Protein in INSANE! Membrane UpperLeaflet>POPC=1.0 LowerLeaflet>POPC=1.0
248046
    1AU     AUC    1   9.426  24.115   7.494
    1AU     AUC    2   9.727  24.155   7.330
    1AU     AUC    3   9.702  24.132   7.667
    1AU     AUC    4   9.136  24.104   7.325
    1AU     AUC    5   9.141  24.098   7.675
    1AU     AUC    6   9.236  24.363   7.514
    1AU     AUC    7   9.577  24.391   7.502
    1AU     AUC    8   9.265  23.832   7.491
    1AU     AUC    9   9.625  23.877   7.488
    1AU     AUC   10   9.459  23.942   7.765
    1AU     AUC   11   9.408  24.270   7.776
    1AU     AUC   12   9.444  23.962   7.214
    1AU     AUC   13   9.443  24.296   7.225
    1AU     AUC   14  10.035  24.182   7.178
    1AU     AUC   15  10.071  24.173   7.499
    1AU     AUC   16  10.003  24.133   7.864
    1AU     AUC   17   8.839  24.086   7.150
    1AU     AUC   18   8.802  24.120   7.515
    1AU     AUC   19   8.856  24.087   7.854
    1AU     AUC   20   9.066  24.663   7.501
    1AU     AUC   21   9.410  24.724   7.495
    1AU     AUC   22   9.724  24.707   7.518
    1AU     AUC   23   9.091  23.515   7.488
    1AU     AUC   24   9.436  23.552   7.486
    1AU     AUC   25   9.828  23.597   7.459
    1AU     AUC   26   9.471  23.717   8.048
    1AU     AUC   27   9.420  24.041   8.095
    1AU     AUC   28   9.418  24.420   8.066
    1AU     AUC   29   9.445  23.775   6.920
    1AU     AUC   30   9.443  24.119   6.909
    1AU     AUC   31   9.463  24.476   6.931
    1AU     AUC   32   9.754  23.889   7.963
    1AU     AUC   33   9.724  24.254   8.010
    1AU     AUC   34   9.738  23.977   7.011
    1AU     AUC   35   9.764  24.337   7.007
    1AU     AUC   36   9.132  23.882   7.975
    1AU     AUC   37   9.128  24.242   7.986
    1AU     AUC   38   9.104  23.913   7.036
    1AU     AUC   39   9.113  24.283   7.017
    1AU     AUC   40   9.931  24.448   7.358
    1AU     AUC   41   9.871  24.415   7.713
    1AU     AUC   42   8.944  24.391   7.301
    1AU     AUC   43   8.926  24.403   7.691
    1AU     AUC   44   9.939  23.871   7.302
    1AU     AUC   45   9.950  23.845   7.631
    1AU     AUC   46   8.908  23.816   7.337
    1AU     AUC   47   8.946  23.812   7.667
    1AU     AUC   48   9.227  24.589   7.790
    1AU     AUC   49   9.561  24.592   7.810
    1AU     AUC   50   9.248  23.602   7.760
    1AU     AUC   51   9.655  23.622   7.788
    1AU     AUC   52   9.238  24.560   7.174
    1AU     AUC   53   9.633  24.599   7.180
    1AU     AUC   54   9.225  23.636   7.204
    1AU     AUC   55   9.619  23.665   7.163
    1AU    AUSL   56  10.006  24.030   8.223
    1AU    AUSL   57   9.861  23.563   8.088
    1AU     AUL   58  10.127  23.645   8.279
    1AU       S   59  10.287  23.252   8.093
    1AU     LIG   60  10.302  22.991   8.439
    1AU     LIG   61  10.508  22.757   8.788
    1AU       S   62  10.257  24.078   8.375
    1AU     LIG   63  10.254  24.279   8.765
    1AU     LIG   64  10.381  24.081   9.157
    1AU    AUSL   65   9.613  23.843   8.303
    1AU    AUSL   66   9.276  24.171   8.379
    1AU     AUL   67   9.464  24.015   8.638
    1AU       S   68   9.894  23.823   8.632
    1AU     LIG   69   9.861  24.032   9.000
    1AU     LIG   70   9.957  23.946   9.439
    1AU       S   71   8.756  23.976   8.669
    1AU     LIG   72   9.009  24.323   8.932
    1AU     LIG   73   9.007  24.309   9.388
    1AU    AUSL   74   9.622  24.261   8.172
    1AU    AUSL   75  10.029  24.450   8.142
    1AU     AUL   76   9.841  24.274   8.465
    1AU       S   77   9.456  24.519   8.626
    1AU     LIG   78   9.814  24.531   8.906
    1AU     LIG   79  10.048  24.446   9.278
    1AU       S   80  10.156  24.607   8.355
    1AU     LIG   81  10.566  24.554   8.432
    1AU     LIG   82  10.915  24.825   8.600
    1AU    AUSL   83   9.997  24.226   6.766
    1AU    AUSL   84   9.884  24.664   6.838
    1AU     AUL   85  10.021  24.519   6.506
    1AU       S   86   9.916  24.104   6.311
    1AU     LIG   87  10.222  24.158   5.966
    1AU     LIG   88  10.446  23.980   5.587
    1AU       S   89  10.256  24.778   6.807
    1AU     LIG   90  10.083  25.039   6.537
    1AU     LIG   91  10.258  25.425   6.350
    1AU    AUSL   92   9.653  23.976   6.724
    1AU    AUSL   93   9.975  23.899   7.049
    1AU     AUL   94  10.088  23.923   6.696
    1AU       S   95  10.052  23.148   6.698
    1AU     LIG   96  10.479  23.115   6.556
    1AU     LIG   97  10.752  22.882   6.254
    1AU       S   98   9.720  23.779   6.398
    1AU     LIG   99   9.679  23.536   5.966
    1AU     LIG  100  10.024  23.668   5.664
    1AU    AUSL  101   9.594  24.408   6.659
    1AU    AUSL  102   9.269  23.860   6.608
    1AU     AUL  103   9.457  24.163   6.420
    1AU       S  104   9.080  23.896   6.295
    1AU     LIG  105   9.222  23.806   5.870
    1AU     LIG  106   8.919  23.799   5.500
    1AU       S  107   9.929  23.844   6.241
    1AU     LIG  108   9.717  24.036   5.863
    1AU     LIG  109   9.960  24.165   5.491
    1AU    AUSL  110   8.917  24.050   8.174
    1AU    AUSL  111   9.158  24.497   8.141
    1AU     AUL  112   9.015  24.359   8.444
    1AU       S  113   8.678  24.040   8.364
    1AU     LIG  114   8.546  24.411   8.657
    1AU     LIG  115   8.544  24.230   9.107
    1AU       S  116   8.743  24.722   8.287
    1AU     LIG  117   8.672  25.010   8.579
    1AU     LIG  118   8.372  25.340   8.707
    1AU    AUSL  119   9.198  23.745   8.340
    1AU    AUSL  120   8.792  23.663   8.036
    1AU     AUL  121   8.880  23.621   8.324
    1AU       S  122   8.570  23.303   8.142
    1AU     LIG  123   8.192  23.022   8.209
    1AU     LIG  124   8.002  22.802   8.600
    1AU       S  125   8.987  23.910   8.659
    1AU     LIG  126   9.052  23.848   9.102
    1AU     LIG  127   8.870  23.814   9.530
    1AU    AUSL  128   8.893  24.015   6.749
    1AU    AUSL  129   9.152  23.704   6.988
    1AU     AUL  130   9.007  23.625   6.669
    1AU       S  131   8.713  23.948   6.471
    1AU     LIG  132   8.408  24.049   6.125
    1AU     LIG  133   8.437  24.012   5.653
    1AU       S  134   8.541  23.488   6.654
    1AU     LIG  135   8.752  23.102   6.520
    1AU     LIG  136   8.617  22.659   6.465
    1AU    AUSL  137   9.245  24.255   6.824
    1AU    AUSL  138   8.803  24.392   6.917
    1AU     AUL  139   9.002  24.307   6.549
    1AU       S  140   8.627  24.536   6.725
    1AU     LIG  141   8.275  24.839   6.683
    1AU     LIG  142   8.087  25.191   6.437
    1AU       S  143   8.828  23.795   6.230
    1AU     LIG  144   8.861  24.163   5.912
    1AU     LIG  145   8.806  24.315   5.453
    1AU    AUSL  146  10.108  24.727   7.559
    1AU    AUSL  147  10.109  24.438   7.118
    1AU     AUL  148  10.269  24.822   7.275
    1AU       S  149  10.364  24.480   6.941
    1AU     LIG  150  10.500  24.409   6.512
    1AU     LIG  151  10.521  24.842   6.338
    1AU       S  152  10.629  24.678   7.935
    1AU     LIG  153  10.965  24.947   7.714
    1AU     LIG  154  11.281  24.968   7.356
    1AU    AUSL  155  10.379  24.393   7.432
    1AU    AUSL  156  10.382  24.003   7.666
    1AU     AUL  157  10.689  24.189   7.528
    1AU       S  158  10.557  24.612   7.663
    1AU     LIG  159  10.872  24.612   7.318
    1AU     LIG  160  11.323  24.471   7.195
    1AU       S  161  10.627  23.716   7.510
    1AU     LIG  162  10.919  23.657   7.816
    1AU     LIG  163  11.391  23.595   7.798
    1AU    AUSL  164  10.119  24.324   7.757
    1AU    AUSL  165   9.790  24.631   7.819
    1AU     AUL  166  10.143  24.729   7.899
    1AU       S  167  10.127  24.914   8.359
    1AU     LIG  168  10.547  25.061   8.319
    1AU     LIG  169  10.876  25.349   8.503
    1AU       S  170  10.465  24.384   7.936
    1AU     LIG  171  10.932  24.286   7.947
    1AU     LIG  172  11.252  24.511   7.700
    1AU    AUSL  173   8.772  24.613   7.533
    1AU    AUSL  174   8.782  24.390   7.950
    1AU     AUL  175   8.507  24.737   7.790
    1AU       S  176   8.649  24.475   8.152
    1AU     LIG  177   8.245  24.699   8.246
    1AU     LIG  178   8.012  25.078   8.419
    1AU       S  179   8.727  25.039   7.501
    1AU     LIG  180   8.281  25.008   7.357
    1AU     LIG  181   7.891  25.298   7.264
    1AU    AUSL  182   8.684  24.257   7.289
    1AU    AUSL  183   8.850  24.760   7.147
    1AU     AUL  184   8.543  24.587   7.201
    1AU       S  185   8.397  24.147   6.939
    1AU     LIG  186   8.074  24.491   7.003
    1AU     LIG  187   7.629  24.645   6.883
    1AU       S  188   8.677  24.977   6.942
    1AU     LIG  189   8.413  25.354   6.829
    1AU     LIG  190   8.162  25.686   6.599
    1AU    AUSL  191   8.482  24.303   7.668
    1AU    AUSL  192   8.474  23.912   7.403
    1AU     AUL  193   8.290  24.228   7.388
    1AU       S  194   8.246  23.844   7.679
    1AU     LIG  195   7.935  23.715   7.383
    1AU     LIG  196   7.500  23.531   7.248
    1AU       S  197   8.264  24.343   7.865
    1AU     LIG  198   7.958  24.591   7.789
    1AU     LIG  199   7.507  24.540   7.734
    1AU    AUSL  200  10.141  23.723   7.445
    1AU    AUSL  201  10.016  23.870   7.838
    1AU     AUL  202  10.340  23.761   7.874
    1AU       S  203  10.443  23.557   7.449
    1AU     LIG  204  10.723  23.208   7.486
    1AU     LIG  205  11.031  23.126   7.806
    1AU       S  206  10.530  23.326   7.934
    1AU     LIG  207  10.778  23.125   8.252
    1AU     LIG  208  10.971  22.856   8.576
    1AU    AUSL  209  10.338  24.030   7.210
    1AU    AUSL  210  10.036  23.441   7.155
    1AU     AUL  211  10.275  23.694   7.043
    1AU       S  212  10.660  23.786   7.280
    1AU     LIG  213  11.090  23.576   7.342
    1AU     LIG  214  11.528  23.612   7.202
    1AU       S  215  10.170  23.245   6.947
    1AU     LIG  216  10.345  22.809   6.969
    1AU     LIG  217  10.453  22.556   6.599
    1AU    AUSL  218   8.833  23.668   7.486
    1AU    AUSL  219   8.732  23.819   7.080
    1AU     AUL  220   8.467  23.596   7.312
    1AU       S  221   8.561  23.680   6.865
    1AU     LIG  222   8.149  23.439   6.955
    1AU     LIG  223   8.145  23.109   6.636
    1AU       S  224   8.208  23.729   7.947
    1AU     LIG  225   8.147  23.338   7.687
    1AU     LIG  226   7.873  23.178   7.342
    1AU    AUSL  227   8.698  23.962   7.770
    1AU    AUSL  228   8.905  23.356   7.752
    1AU     AUL  229   8.606  23.536   7.744
    1AU       S  230   8.738  23.099   7.893
    1AU     LIG  231   8.536  22.686   8.007
    1AU     LIG  232   8.238  22.493   8.285
    1AU       S  233   8.372  23.898   7.922
    1AU     LIG  234   7.840  24.052   7.823
    1AU     LIG  235   7.446  23.792   7.694
    1AU    AUSL  236   9.390  24.806   7.956
    1AU    AUSL  237   8.963  24.777   7.876
    1AU     AUL  238   9.201  24.819   8.260
    1AU       S  239   8.847  24.980   8.006
    1AU     LIG  240   8.447  25.172   8.138
    1AU     LIG  241   8.199  25.567   8.277
    1AU       S  242   9.340  25.195   8.007
    1AU     LIG  243   9.584  25.339   8.330
    1AU     LIG  244   9.669  25.767   8.480
    1AU    AUSL  245   9.204  24.996   7.607
    1AU    AUSL  246   9.550  25.044   7.275
    1AU     AUL  247   9.249  25.273   7.389
    1AU       S  248   9.384  25.414   7.853
    1AU     LIG  249   9.360  25.810   8.057
    1AU     LIG  250   9.192  26.242   8.084
    1AU       S  251   9.509  25.283   6.983
    1AU     LIG  252   9.750  25.665   7.089
    1AU     LIG  253   9.891  26.141   7.040
    1AU    AUSL  254   9.663  24.999   7.677
    1AU    AUSL  255   9.664  24.669   8.241
    1AU     AUL  256   9.749  24.950   8.041
    1AU       S  257   9.882  24.773   8.477
    1AU     LIG  258  10.271  24.801   8.815
    1AU     LIG  259  10.628  25.114   8.918
    1AU       S  260   9.606  25.281   7.733
    1AU     LIG  261   9.844  25.636   7.984
    1AU     LIG  262  10.014  26.049   8.212
    1AU    AUSL  263   9.490  23.364   8.093
    1AU    AUSL  264  10.049  23.414   7.718
    1AU     AUL  265   9.819  23.193   8.005
    1AU       S  266   9.361  22.847   8.061
    1AU     LIG  267   8.996  22.639   8.248
    1AU     LIG  268   8.926  22.246   8.505
    1AU       S  269  10.257  23.255   7.782
    1AU     LIG  270  10.535  22.843   7.854
    1AU     LIG  271  10.634  22.636   8.262
    1AU    AUSL  272   9.298  23.221   7.725
    1AU    AUSL  273   9.214  23.630   7.937
    1AU     AUL  274   9.138  23.294   8.082
    1AU       S  275   9.223  22.925   7.806
    1AU     LIG  276   8.975  22.551   7.745
    1AU     LIG  277   8.995  22.157   7.996
    1AU       S  278   8.714  23.105   8.203
    1AU     LIG  279   8.567  22.823   8.512
    1AU     LIG  280   8.484  22.440   8.747
    1AU    AUSL  281   9.643  23.456   7.670
    1AU    AUSL  282   9.255  23.319   7.319
    1AU     AUL  283   9.574  23.107   7.514
    1AU       S  284   9.105  23.005   7.339
    1AU     LIG  285   8.810  22.662   7.270
    1AU     LIG  286   9.022  22.301   7.074
    1AU       S  287   9.460  22.729   7.829
    1AU     LIG  288   9.407  22.273   7.709
    1AU     LIG  289   9.502  21.839   7.905
    1AU    AUSL  290   9.496  24.783   6.942
    1AU    AUSL  291   9.803  24.704   7.273
    1AU     AUL  292   9.861  24.978   7.045
    1AU       S  293   9.515  25.011   6.716
    1AU     LIG  294   9.790  25.440   6.607
    1AU     LIG  295   9.636  25.883   6.640
    1AU       S  296  10.552  24.736   6.882
    1AU     LIG  297  10.544  25.199   6.745
    1AU     LIG  298  10.765  25.523   6.478
    1AU    AUSL  299   9.240  24.733   7.290
    1AU    AUSL  300   9.122  24.662   6.816
    1AU     AUL  301   9.140  24.975   7.024
    1AU       S  302   9.335  25.300   6.725
    1AU     LIG  303   9.231  25.708   6.959
    1AU     LIG  304   9.259  26.177   7.055
    1AU       S  305   8.863  24.798   6.657
    1AU     LIG  306   8.621  25.117   6.410
    1AU     LIG  307   8.443  25.518   6.200
    1AU    AUSL  308   9.405  23.384   6.904
    1AU    AUSL  309   8.873  23.408   7.156
    1AU     AUL  310   9.113  23.265   6.944
    1AU       S  311   8.648  23.372   6.924
    1AU     LIG  312   8.524  22.946   6.954
    1AU     LIG  313   8.221  22.619   6.804
    1AU       S  314   9.324  22.862   7.134
    1AU     LIG  315   9.019  22.740   6.807
    1AU     LIG  316   9.007  22.328   6.548
    1AU    AUSL  317   9.640  23.495   7.257
    1AU    AUSL  318   9.768  23.586   6.836
    1AU     AUL  319   9.705  23.224   7.038
    1AU       S  320   9.284  22.728   7.351
    1AU     LIG  321   9.530  22.375   7.206
    1AU     LIG  322   9.699  22.056   6.908
    1AU       S  323   9.965  23.447   6.681
    1AU     LIG  324  10.092  23.347   6.247
    1AU     LIG  325  10.240  22.908   6.147
    2AU     AUC  326   9.564  34.880   7.507
    2AU     AUC  327   9.863  34.918   7.337
    2AU     AUC  328   9.841  34.901   7.677
    2AU     AUC  329   9.273  34.862   7.340
    2AU     AUC  330   9.282  34.861   7.692
    2AU     AUC  331   9.371  35.125   7.527
    2AU     AUC  332   9.712  35.157   7.507
    2AU     AUC  333   9.404  34.594   7.509
    2AU     AUC  334   9.766  34.646   7.498
    2AU     AUC  335   9.601  34.712   7.781
    2AU     AUC  336   9.547  35.040   7.789
    2AU     AUC  337   9.583  34.723   7.228
    2AU     AUC  338   9.577  35.055   7.234
    2AU     AUC  339  10.171  34.943   7.182
    2AU     AUC  340  10.209  34.940   7.505
    2AU     AUC  341  10.147  34.909   7.871
    2AU     AUC  342   8.974  34.840   7.168
    2AU     AUC  343   8.943  34.869   7.533
    2AU     AUC  344   8.994  34.845   7.878
    2AU     AUC  345   9.196  35.423   7.513
    2AU     AUC  346   9.541  35.488   7.497
    2AU     AUC  347   9.856  35.475   7.513
    2AU     AUC  348   9.235  34.274   7.511
    2AU     AUC  349   9.578  34.321   7.507
    2AU     AUC  350   9.970  34.365   7.476
    2AU     AUC  351   9.617  34.495   8.069
    2AU     AUC  352   9.567  34.819   8.109
    2AU     AUC  353   9.560  35.197   8.074
    2AU     AUC  354   9.585  34.531   6.935
    2AU     AUC  355   9.574  34.877   6.922
    2AU     AUC  356   9.589  35.234   6.938
    2AU     AUC  357   9.900  34.667   7.977
    2AU     AUC  358   9.870  35.034   8.016
    2AU     AUC  359   9.876  34.735   7.020
    2AU     AUC  360   9.895  35.095   7.011
    2AU     AUC  361   9.275  34.654   7.999
    2AU     AUC  362   9.271  35.012   8.004
    2AU     AUC  363   9.242  34.669   7.051
    2AU     AUC  364   9.242  35.040   7.033
    2AU     AUC  365  10.063  35.214   7.356
    2AU     AUC  366  10.009  35.188   7.712
    2AU     AUC  367   9.078  35.147   7.319
    2AU     AUC  368   9.063  35.161   7.710
    2AU     AUC  369  10.079  34.636   7.314
    2AU     AUC  370  10.092  34.615   7.645
    2AU     AUC  371   9.052  34.567   7.351
    2AU     AUC  372   9.086  34.570   7.684
    2AU     AUC  373   9.361  35.355   7.800
    2AU     AUC  374   9.700  35.364   7.812
    2AU     AUC  375   9.385  34.374   7.787
    2AU     AUC  376   9.796  34.397   7.809
    2AU     AUC  377   9.368  35.319   7.186
    2AU     AUC  378   9.763  35.359   7.179
    2AU     AUC  379   9.372  34.394   7.221
    2AU     AUC  380   9.762  34.425   7.179
    2AU    AUSL  381  10.157  34.814   8.233
    2AU    AUSL  382  10.014  34.338   8.109
    2AU     AUL  383  10.302  34.419   8.309
    2AU       S  384  10.418  34.023   8.108
    2AU     LIG  385  10.168  33.958   8.493
    2AU     LIG  386  10.330  33.734   8.867
    2AU       S  387  10.394  34.860   8.347
    2AU     LIG  388  10.435  35.054   8.740
    2AU     LIG  389  10.562  34.825   9.131
    2AU    AUSL  390   9.761  34.629   8.308
    2AU    AUSL  391   9.427  34.947   8.388
    2AU     AUL  392   9.606  34.830   8.654
    2AU       S  393   9.955  34.552   8.564
    2AU     LIG  394  10.057  34.772   8.924
    2AU     LIG  395  10.103  34.757   9.382
    2AU       S  396   8.896  34.740   8.695
    2AU     LIG  397   9.076  35.099   8.970
    2AU     LIG  398   9.044  35.080   9.435
    2AU    AUSL  399   9.771  35.046   8.181
    2AU    AUSL  400  10.177  35.233   8.136
    2AU     AUL  401   9.994  35.060   8.471
    2AU       S  402   9.599  35.317   8.616
    2AU     LIG  403   9.926  35.269   8.917
    2AU     LIG  404  10.265  35.229   9.214
    2AU       S  405  10.324  35.385   8.343
    2AU     LIG  406  10.782  35.521   8.300
    2AU     LIG  407  11.147  35.825   8.428
    2AU    AUSL  408  10.128  34.979   6.763
    2AU    AUSL  409  10.011  35.422   6.832
    2AU     AUL  410  10.126  35.258   6.485
    2AU       S  411  10.033  34.823   6.307
    2AU     LIG  412  10.425  34.727   6.131
    2AU     LIG  413  10.596  34.870   5.720
    2AU       S  414  10.359  35.520   6.785
    2AU     LIG  415  10.281  35.876   6.599
    2AU     LIG  416  10.562  36.118   6.323
    2AU    AUSL  417   9.785  34.727   6.739
    2AU    AUSL  418  10.115  34.662   7.058
    2AU     AUL  419  10.222  34.669   6.695
    2AU       S  420  10.399  34.118   6.721
    2AU     LIG  421  10.602  34.196   6.358
    2AU     LIG  422  10.782  33.931   6.033
    2AU       S  423   9.852  34.540   6.416
    2AU     LIG  424  10.154  34.288   6.130
    2AU     LIG  425  10.316  34.411   5.690
    2AU    AUSL  426   9.720  35.156   6.676
    2AU    AUSL  427   9.399  34.629   6.617
    2AU     AUL  428   9.588  34.933   6.441
    2AU       S  429   9.223  34.661   6.308
    2AU     LIG  430   9.389  34.533   5.897
    2AU     LIG  431   9.112  34.514   5.515
    2AU       S  432   9.844  34.664   6.129
    2AU     LIG  433  10.065  34.861   5.774
    2AU     LIG  434  10.240  34.829   5.330
    2AU    AUSL  435   9.064  34.816   8.199
    2AU    AUSL  436   9.296  35.277   8.165
    2AU     AUL  437   9.167  35.121   8.473
    2AU       S  438   8.822  34.810   8.397
    2AU     LIG  439   8.639  35.147   8.685
    2AU     LIG  440   8.625  34.932   9.136
    2AU       S  441   8.898  35.477   8.313
    2AU     LIG  442   8.831  35.793   8.558
    2AU     LIG  443   8.710  36.208   8.668
    2AU    AUSL  444   9.353  34.520   8.373
    2AU    AUSL  445   8.926  34.431   8.072
    2AU     AUL  446   9.040  34.400   8.362
    2AU       S  447   8.738  34.080   8.193
    2AU     LIG  448   8.299  34.012   8.335
    2AU     LIG  449   7.976  33.727   8.531
    2AU       S  450   9.145  34.689   8.697
    2AU     LIG  451   9.096  34.622   9.159
    2AU     LIG  452   8.857  34.594   9.563
    2AU    AUSL  453   9.019  34.772   6.764
    2AU    AUSL  454   9.297  34.464   6.997
    2AU     AUL  455   9.153  34.384   6.682
    2AU       S  456   8.853  34.688   6.463
    2AU     LIG  457   8.568  34.735   6.063
    2AU     LIG  458   8.605  34.711   5.581
    2AU       S  459   8.702  34.220   6.665
    2AU     LIG  460   8.749  33.755   6.589
    2AU     LIG  461   8.443  33.439   6.411
    2AU    AUSL  462   9.366  35.017   6.840
    2AU    AUSL  463   8.928  35.146   6.942
    2AU     AUL  464   9.116  35.065   6.567
    2AU       S  465   8.744  35.295   6.756
    2AU     LIG  466   8.467  35.641   6.608
    2AU     LIG  467   8.444  36.000   6.318
    2AU       S  468   8.996  34.549   6.233
    2AU     LIG  469   9.021  34.888   5.885
    2AU     LIG  470   8.996  35.016   5.424
    2AU    AUSL  471  10.241  35.501   7.546
    2AU    AUSL  472  10.234  35.194   7.116
    2AU     AUL  473  10.399  35.585   7.248
    2AU       S  474  10.495  35.230   6.934
    2AU     LIG  475  10.583  35.086   6.513
    2AU     LIG  476  10.545  35.500   6.285
    2AU       S  477  10.751  35.550   7.791
    2AU     LIG  478  10.879  35.836   7.416
    2AU     LIG  479  11.192  35.744   7.040
    2AU    AUSL  480  10.512  35.164   7.425
    2AU    AUSL  481  10.522  34.779   7.681
    2AU     AUL  482  10.830  34.960   7.533
    2AU       S  483  10.688  35.390   7.619
    2AU     LIG  484  10.925  35.357   7.230
    2AU     LIG  485  11.368  35.260   7.126
    2AU       S  486  10.774  34.489   7.528
    2AU     LIG  487  10.956  34.194   7.795
    2AU     LIG  488  11.377  33.953   7.829
    2AU    AUSL  489  10.255  35.101   7.752
    2AU    AUSL  490   9.928  35.407   7.814
    2AU     AUL  491  10.274  35.512   7.888
    2AU       S  492  10.298  35.710   8.341
    2AU     LIG  493  10.674  36.037   8.311
    2AU     LIG  494  10.901  36.456   8.457
    2AU       S  495  10.620  35.200   7.907
    2AU     LIG  496  11.108  35.222   7.900
    2AU     LIG  497  11.543  35.378   8.011
    2AU    AUSL  498   8.903  35.366   7.555
    2AU    AUSL  499   8.930  35.149   7.967
    2AU     AUL  500   8.641  35.481   7.811
    2AU       S  501   8.798  35.245   8.186
    2AU     LIG  502   8.414  35.522   8.266
    2AU     LIG  503   8.309  35.886   8.543
    2AU       S  504   8.843  35.795   7.523
    2AU     LIG  505   8.373  35.739   7.440
    2AU     LIG  506   7.951  36.007   7.456
    2AU    AUSL  507   8.820  35.009   7.316
    2AU    AUSL  508   8.978  35.519   7.169
    2AU     AUL  509   8.677  35.348   7.231
    2AU       S  510   8.526  34.895   6.970
    2AU     LIG  511   8.220  35.273   7.053
    2AU     LIG  512   7.886  35.510   7.314
    2AU       S  513   8.795  35.752   6.966
    2AU     LIG  514   8.652  36.205   6.751
    2AU     LIG  515   8.653  36.655   6.509
    2AU    AUSL  516   8.621  35.046   7.699
    2AU    AUSL  517   8.616  34.657   7.418
    2AU     AUL  518   8.433  34.988   7.419
    2AU       S  519   8.389  34.587   7.668
    2AU     LIG  520   8.126  34.553   7.302
    2AU     LIG  521   7.798  34.238   7.184
    2AU       S  522   8.428  35.068   7.916
    2AU     LIG  523   8.161  35.342   7.713
    2AU     LIG  524   7.846  35.672   7.837
    2AU    AUSL  525  10.284  34.488   7.465
    2AU    AUSL  526  10.157  34.643   7.852
    2AU     AUL  527  10.481  34.513   7.888
    2AU       S  528  10.570  34.326   7.467
    2AU     LIG  529  10.673  33.947   7.388
    2AU     LIG  530  11.083  33.821   7.437
    2AU       S  531  10.377  33.755   8.081
    2AU     LIG  532  10.657  33.767   8.463
    2AU     LIG  533  10.815  33.450   8.766
    2AU    AUSL  534  10.476  34.792   7.223
    2AU    AUSL  535  10.184  34.213   7.168
    2AU     AUL  536  10.420  34.469   7.057
    2AU       S  537  10.802  34.544   7.302
    2AU     LIG  538  11.225  34.315   7.370
    2AU     LIG  539  11.683  34.384   7.337
    2AU       S  540  10.320  34.014   6.970
    2AU     LIG  541  10.578  33.656   6.941
    2AU     LIG  542  10.829  33.703   6.557
    2AU    AUSL  543   8.976  34.410   7.498
    2AU    AUSL  544   8.876  34.569   7.097
    2AU     AUL  545   8.621  34.331   7.326
    2AU       S  546   8.703  34.430   6.878
    2AU     LIG  547   8.273  34.237   6.911
    2AU     LIG  548   8.280  33.940   6.541
    2AU       S  549   8.295  34.372   7.747
    2AU     LIG  550   8.215  34.055   7.432
    2AU     LIG  551   7.912  33.845   7.641
    2AU    AUSL  552   8.848  34.708   7.779
    2AU    AUSL  553   9.050  34.126   7.793
    2AU     AUL  554   8.757  34.286   7.771
    2AU       S  555   8.891  33.868   7.946
    2AU     LIG  556   8.434  33.882   7.855
    2AU     LIG  557   8.130  33.607   8.041
    2AU       S  558   8.445  34.603   7.891
    2AU     LIG  559   7.914  34.656   7.799
    2AU     LIG  560   7.620  34.281   7.688
    2AU    AUSL  561   9.526  35.571   7.955
    2AU    AUSL  562   9.095  35.543   7.890
    2AU     AUL  563   9.345  35.607   8.256
    2AU       S  564   8.959  35.751   8.034
    2AU     LIG  565   8.610  36.052   8.153
    2AU     LIG  566   8.319  36.390   8.370
    2AU       S  567   9.475  35.981   7.996
    2AU     LIG  568   9.751  36.279   8.225
    2AU     LIG  569   9.665  36.675   8.455
    2AU    AUSL  570   9.327  35.755   7.609
    2AU    AUSL  571   9.674  35.806   7.269
    2AU     AUL  572   9.355  36.023   7.379
    2AU       S  573   9.463  36.198   7.822
    2AU     LIG  574   9.295  36.511   8.085
    2AU     LIG  575   9.212  36.906   8.326
    2AU       S  576   9.645  36.061   7.001
    2AU     LIG  577   9.895  36.445   7.163
    2AU     LIG  578   9.922  36.899   6.964
    2AU    AUSL  579   9.787  35.770   7.671
    2AU    AUSL  580   9.815  35.456   8.236
    2AU     AUL  581   9.882  35.734   8.033
    2AU       S  582  10.027  35.555   8.467
    2AU     LIG  583  10.347  35.562   8.815
    2AU     LIG  584  10.751  35.772   8.769
    2AU       S  585   9.714  36.043   7.715
    2AU     LIG  586   9.897  36.442   7.747
    2AU     LIG  587   9.775  36.807   7.980
    2AU    AUSL  588   9.635  34.151   8.119
    2AU    AUSL  589  10.184  34.177   7.733
    2AU     AUL  590   9.946  33.973   8.026
    2AU       S  591   9.337  33.596   8.089
    2AU     LIG  592   9.366  33.210   8.266
    2AU     LIG  593   9.468  32.777   8.225
    2AU       S  594  10.394  34.005   7.817
    2AU     LIG  595  10.804  33.726   7.883
    2AU     LIG  596  10.899  33.396   8.223
    2AU    AUSL  597   9.443  33.997   7.756
    2AU    AUSL  598   9.350  34.411   7.968
    2AU     AUL  599   9.287  34.076   8.120
    2AU       S  600   9.368  33.715   7.834
    2AU     LIG  601   9.080  33.397   7.717
    2AU     LIG  602   9.106  32.987   7.880
    2AU       S  603   8.859  33.833   8.207
    2AU     LIG  604   8.551  33.580   8.414
    2AU     LIG  605   8.370  33.587   8.852
    2AU    AUSL  606   9.781  34.241   7.692
    2AU    AUSL  607   9.402  34.080   7.345
    2AU     AUL  608   9.724  33.882   7.553
    2AU       S  609   9.278  33.758   7.355
    2AU     LIG  610   9.032  33.354   7.205
    2AU     LIG  611   9.134  32.867   7.195
    2AU       S  612   9.602  33.579   7.968
    2AU     LIG  613   9.617  33.149   7.806
    2AU     LIG  614   9.807  32.706   7.857
    2AU    AUSL  615   9.622  35.541   6.937
    2AU    AUSL  616   9.931  35.468   7.267
    2AU     AUL  617   9.983  35.738   7.032
    2AU       S  618   9.622  35.818   6.723
    2AU     LIG  619   9.750  36.256   6.490
    2AU     LIG  620   9.578  36.711   6.509
    2AU       S  621  10.637  35.476   6.821
    2AU     LIG  622  10.717  35.921   6.920
    2AU     LIG  623  11.081  36.229   6.837
    2AU    AUSL  624   9.373  35.490   7.294
    2AU    AUSL  625   9.240  35.421   6.830
    2AU     AUL  626   9.262  35.727   7.024
    2AU       S  627   9.436  36.119   6.824
    2AU     LIG  628   9.451  36.556   6.973
    2AU     LIG  629   9.476  36.895   7.235
    2AU       S  630   8.971  35.550   6.679
    2AU     LIG  631   8.989  35.944   6.475
    2AU     LIG  632   8.847  36.295   6.188
    2AU    AUSL  633   9.549  34.139   6.930
    2AU    AUSL  634   9.027  34.159   7.164
    2AU     AUL  635   9.265  34.022   6.962
    2AU       S  636   8.798  34.123   6.930
    2AU     LIG  637   8.504  33.814   7.048
    2AU     LIG  638   8.211  33.537   6.854
    2AU       S  639   9.497  33.620   7.163
    2AU     LIG  640   9.513  33.165   7.008
    2AU     LIG  641   9.513  32.715   6.841
    2AU    AUSL  642   9.788  34.253   7.278
    2AU    AUSL  643   9.909  34.341   6.851
    2AU     AUL  644   9.859  33.984   7.056
    2AU       S  645   9.464  33.491   7.409
    2AU     LIG  646   9.858  33.298   7.361
    2AU     LIG  647  10.054  32.982   7.082
    2AU       S  648  10.110  34.183   6.685
    2AU     LIG  649  10.232  33.820   6.370
    2AU     LIG  650  10.531  33.492   6.200
    3AU     AUC  651  25.719  44.503   7.497
    3AU     AUC  652  26.019  44.538   7.331
    3AU     AUC  653  25.995  44.523   7.669
    3AU     AUC  654  25.432  44.485   7.326
    3AU     AUC  655  25.435  44.491   7.678
    3AU     AUC  656  25.529  44.751   7.510
    3AU     AUC  657  25.870  44.779   7.498
    3AU     AUC  658  25.557  44.219   7.501
    3AU     AUC  659  25.918  44.264   7.493
    3AU     AUC  660  25.751  44.336   7.772
    3AU     AUC  661  25.700  44.666   7.775
    3AU     AUC  662  25.737  44.342   7.220
    3AU     AUC  663  25.737  44.678   7.224
    3AU     AUC  664  26.327  44.561   7.179
    3AU     AUC  665  26.363  44.557   7.501
    3AU     AUC  666  26.295  44.528   7.866
    3AU     AUC  667  25.134  44.463   7.150
    3AU     AUC  668  25.099  44.506   7.516
    3AU     AUC  669  25.150  44.484   7.858
    3AU     AUC  670  25.358   0.051   7.489
    3AU     AUC  671  25.703   0.113   7.483
    3AU     AUC  672  26.018   0.096   7.507
    3AU     AUC  673  25.382  43.901   7.506
    3AU     AUC  674  25.727  43.941   7.502
    3AU     AUC  675  26.121  43.982   7.472
    3AU     AUC  676  25.763  44.120   8.063
    3AU     AUC  677  25.714  44.446   8.100
    3AU     AUC  678  25.710  44.824   8.061
    3AU     AUC  679  25.737  44.146   6.930
    3AU     AUC  680  25.736  44.492   6.910
    3AU     AUC  681  25.757  44.850   6.926
    3AU     AUC  682  26.047  44.288   7.971
    3AU     AUC  683  26.017  44.656   8.008
    3AU     AUC  684  26.029  44.353   7.016
    3AU     AUC  685  26.056  44.714   7.005
    3AU     AUC  686  25.425  44.286   7.986
    3AU     AUC  687  25.422  44.644   7.988
    3AU     AUC  688  25.397  44.284   7.043
    3AU     AUC  689  25.407  44.657   7.014
    3AU     AUC  690  26.224  44.832   7.354
    3AU     AUC  691  26.165  44.809   7.709
    3AU     AUC  692  25.240  44.773   7.295
    3AU     AUC  693  25.220  44.796   7.686
    3AU     AUC  694  26.232  44.252   7.308
    3AU     AUC  695  26.242  44.234   7.640
    3AU     AUC  696  25.204  44.197   7.344
    3AU     AUC  697  25.239  44.205   7.677
    3AU     AUC  698  25.519  44.985   7.782
    3AU     AUC  699  25.855  44.988   7.801
    3AU     AUC  700  25.536  43.999   7.780
    3AU     AUC  701  25.945  44.018   7.805
    3AU     AUC  702  25.532  44.939   7.165
    3AU     AUC  703  25.926  44.979   7.171
    3AU     AUC  704  25.521  44.013   7.218
    3AU     AUC  705  25.911  44.042   7.175
    3AU    AUSL  706  26.300  44.437   8.224
    3AU    AUSL  707  26.152  43.963   8.107
    3AU     AUL  708  26.427  44.057   8.286
    3AU       S  709  26.552  43.638   8.141
    3AU     LIG  710  26.287  43.605   8.496
    3AU     LIG  711  26.278  43.278   8.829
    3AU       S  712  26.551  44.490   8.376
    3AU     LIG  713  26.550  44.691   8.757
    3AU     LIG  714  26.687  44.481   9.140
    3AU    AUSL  715  25.908  44.254   8.312
    3AU    AUSL  716  25.572  44.583   8.382
    3AU     AUL  717  25.757  44.439   8.646
    3AU       S  718  26.170  44.222   8.623
    3AU     LIG  719  26.172  44.428   8.986
    3AU     LIG  720  26.258  44.380   9.428
    3AU       S  721  25.040  44.381   8.672
    3AU     LIG  722  25.151  44.754   8.941
    3AU     LIG  723  25.158  44.721   9.412
    3AU    AUSL  724  25.916  44.667   8.168
    3AU    AUSL  725  26.321  44.856   8.137
    3AU     AUL  726  26.132  44.683   8.463
    3AU       S  727  25.742  44.941   8.615
    3AU     LIG  728  26.065  44.917   8.902
    3AU     LIG  729  26.362  44.865   9.231
    3AU       S  730  26.444   0.018   8.350
    3AU     LIG  731  26.849   0.003   8.438
    3AU     LIG  732  27.232   0.261   8.397
    3AU    AUSL  733  26.289  44.596   6.765
    3AU    AUSL  734  26.176   0.036   6.828
    3AU     AUL  735  26.306  44.876   6.493
    3AU       S  736  26.209  44.449   6.317
    3AU     LIG  737  26.571  44.503   6.057
    3AU     LIG  738  26.605  44.296   5.631
    3AU       S  739  26.530   0.150   6.790
    3AU     LIG  740  26.334   0.385   6.501
    3AU     LIG  741  26.512   0.666   6.206
    3AU    AUSL  742  25.944  44.351   6.728
    3AU    AUSL  743  26.266  44.274   7.055
    3AU     AUL  744  26.381  44.288   6.709
    3AU       S  745  26.483  43.802   6.637
    3AU     LIG  746  26.822  43.784   6.378
    3AU     LIG  747  27.132  43.681   6.049
    3AU       S  748  26.021  44.157   6.400
    3AU     LIG  749  25.914  43.944   5.957
    3AU     LIG  750  26.156  43.969   5.530
    3AU    AUSL  751  25.882  44.780   6.655
    3AU    AUSL  752  25.564  44.224   6.613
    3AU     AUL  753  25.750  44.532   6.420
    3AU       S  754  25.380  44.250   6.297
    3AU     LIG  755  25.467  44.206   5.839
    3AU     LIG  756  25.246  44.128   5.429
    3AU       S  757  26.260  44.152   6.248
    3AU     LIG  758  26.112  44.392   5.836
    3AU     LIG  759  26.180  44.480   5.382
    3AU    AUSL  760  25.213  44.457   8.182
    3AU    AUSL  761  25.448  44.904   8.141
    3AU     AUL  762  25.305  44.765   8.451
    3AU       S  763  24.960  44.446   8.389
    3AU     LIG  764  24.689  44.703   8.713
    3AU     LIG  765  24.759  44.491   9.150
    3AU       S  766  25.044   0.121   8.274
    3AU     LIG  767  24.957   0.231   8.654
    3AU     LIG  768  24.832   0.661   8.781
    3AU    AUSL  769  25.494  44.157   8.358
    3AU    AUSL  770  25.079  44.072   8.057
    3AU     AUL  771  25.186  44.038   8.347
    3AU       S  772  24.829  43.776   8.184
    3AU     LIG  773  24.456  43.806   8.437
    3AU     LIG  774  24.116  43.578   8.716
    3AU       S  775  25.282  44.335   8.680
    3AU     LIG  776  25.281  44.289   9.126
    3AU     LIG  777  25.063  44.203   9.518
    3AU    AUSL  778  25.187  44.381   6.752
    3AU    AUSL  779  25.449  44.077   6.996
    3AU     AUL  780  25.294  43.995   6.677
    3AU       S  781  24.994  44.320   6.492
    3AU     LIG  782  24.730  44.500   6.150
    3AU     LIG  783  24.828  44.388   5.696
    3AU       S  784  24.843  43.794   6.692
    3AU     LIG  785  24.956  43.413   6.447
    3AU     LIG  786  24.822  43.058   6.132
    3AU    AUSL  787  25.539  44.622   6.825
    3AU    AUSL  788  25.096  44.761   6.908
    3AU     AUL  789  25.303  44.666   6.543
    3AU       S  790  24.925  44.885   6.709
    3AU     LIG  791  24.582   0.146   6.629
    3AU     LIG  792  24.411   0.405   6.283
    3AU       S  793  25.122  44.208   6.247
    3AU     LIG  794  25.202  44.619   6.005
    3AU     LIG  795  25.166  44.751   5.548
    3AU    AUSL  796  26.402   0.116   7.547
    3AU    AUSL  797  26.400  44.815   7.114
    3AU     AUL  798  26.565   0.201   7.257
    3AU       S  799  26.654  44.853   6.936
    3AU     LIG  800  26.762  44.706   6.532
    3AU     LIG  801  26.730   0.109   6.289
    3AU       S  802  26.917   0.011   7.931
    3AU     LIG  803  27.212   0.347   7.793
    3AU     LIG  804  27.608   0.452   7.555
    3AU    AUSL  805  26.669  44.778   7.428
    3AU    AUSL  806  26.673  44.393   7.669
    3AU     AUL  807  26.980  44.592   7.533
    3AU       S  808  26.847   0.010   7.666
    3AU     LIG  809  27.185   0.031   7.367
    3AU     LIG  810  27.654   0.014   7.272
    3AU       S  811  26.925  44.125   7.513
    3AU     LIG  812  27.137  44.101   7.904
    3AU     LIG  813  27.436  43.770   8.050
    3AU    AUSL  814  26.412  44.717   7.757
    3AU    AUSL  815  26.083   0.028   7.809
    3AU     AUL  816  26.438   0.125   7.890
    3AU       S  817  26.421   0.325   8.349
    3AU     LIG  818  26.816   0.454   8.156
    3AU     LIG  819  27.225   0.721   8.148
    3AU       S  820  26.750  44.767   7.943
    3AU     LIG  821  27.210  44.621   7.972
    3AU     LIG  822  27.507  44.922   7.777
    3AU    AUSL  823  25.059   0.007   7.522
    3AU    AUSL  824  25.077  44.786   7.944
    3AU     AUL  825  24.800   0.128   7.798
    3AU       S  826  24.940  44.862   8.150
    3AU     LIG  827  24.559   0.015   8.313
    3AU     LIG  828  24.449   0.333   8.628
    3AU       S  829  25.000   0.408   7.477
    3AU     LIG  830  24.518   0.261   7.408
    3AU     LIG  831  24.059   0.338   7.514
    3AU    AUSL  832  24.988  44.641   7.288
    3AU    AUSL  833  25.147   0.134   7.130
    3AU     AUL  834  24.843  44.966   7.180
    3AU       S  835  24.690  44.511   6.938
    3AU     LIG  836  24.370  44.861   7.019
    3AU     LIG  837  23.936  44.975   7.154
    3AU       S  838  24.974   0.337   6.893
    3AU     LIG  839  24.774   0.638   6.586
    3AU     LIG  840  24.462   0.927   6.356
    3AU    AUSL  841  24.777  44.696   7.663
    3AU    AUSL  842  24.772  44.300   7.407
    3AU     AUL  843  24.601  44.618   7.384
    3AU       S  844  24.528  44.253   7.691
    3AU     LIG  845  24.285  44.241   7.279
    3AU     LIG  846  23.850  44.370   7.177
    3AU       S  847  24.529  44.751   7.851
    3AU     LIG  848  24.177  44.819   7.586
    3AU     LIG  849  23.710  44.910   7.617
    3AU    AUSL  850  26.434  44.101   7.457
    3AU    AUSL  851  26.308  44.261   7.846
    3AU     AUL  852  26.635  44.152   7.882
    3AU       S  853  26.744  43.944   7.474
    3AU     LIG  854  27.109  43.688   7.623
    3AU     LIG  855  27.507  43.535   7.566
    3AU       S  856  26.794  43.703   7.993
    3AU     LIG  857  26.922  43.944   8.336
    3AU     LIG  858  26.986  43.804   8.757
    3AU    AUSL  859  26.627  44.409   7.215
    3AU    AUSL  860  26.331  43.825   7.159
    3AU     AUL  861  26.571  44.062   7.062
    3AU       S  862  26.955  44.191   7.282
    3AU     LIG  863  27.314  43.905   7.225
    3AU     LIG  864  27.373  43.458   7.081
    3AU       S  865  26.443  43.637   6.878
    3AU     LIG  866  26.728  43.319   6.669
    3AU     LIG  867  26.986  42.927   6.592
    3AU    AUSL  868  25.124  44.050   7.498
    3AU    AUSL  869  25.027  44.193   7.087
    3AU     AUL  870  24.756  43.986   7.319
    3AU       S  871  24.852  44.034   6.867
    3AU     LIG  872  24.395  43.906   6.898
    3AU     LIG  873  24.081  43.696   6.593
    3AU       S  874  24.517  44.142   7.958
    3AU     LIG  875  24.443  43.759   7.674
    3AU     LIG  876  24.070  43.550   7.694
    3AU    AUSL  877  24.995  44.357   7.772
    3AU    AUSL  878  25.191  43.758   7.787
    3AU     AUL  879  24.893  43.939   7.755
    3AU       S  880  25.001  43.532   7.976
    3AU     LIG  881  24.568  43.389   7.999
    3AU     LIG  882  24.213  43.410   8.219
    3AU       S  883  24.671  44.313   7.942
    3AU     LIG  884  24.148  44.454   7.990
    3AU     LIG  885  23.679  44.382   7.905
    3AU    AUSL  886  25.683   0.203   7.940
    3AU    AUSL  887  25.257   0.171   7.860
    3AU     AUL  888  25.496   0.231   8.241
    3AU       S  889  25.143   0.389   7.983
    3AU     LIG  890  24.740   0.503   8.208
    3AU     LIG  891  24.474   0.819   8.424
    3AU       S  892  25.639   0.603   7.984
    3AU     LIG  893  25.944   0.805   8.248
    3AU     LIG  894  26.046   1.244   8.379
    3AU    AUSL  895  25.495   0.389   7.589
    3AU    AUSL  896  25.843   0.428   7.257
    3AU     AUL  897  25.539   0.656   7.363
    3AU       S  898  25.658   0.824   7.818
    3AU     LIG  899  25.612   1.199   8.080
    3AU     LIG  900  25.613   1.584   8.362
    3AU       S  901  25.802   0.659   6.963
    3AU     LIG  902  26.061   1.026   7.103
    3AU     LIG  903  26.350   1.401   7.003
    3AU    AUSL  904  25.955   0.392   7.660
    3AU    AUSL  905  25.956   0.076   8.230
    3AU     AUL  906  26.042   0.351   8.023
    3AU       S  907  26.158   0.179   8.466
    3AU     LIG  908  26.485   0.201   8.821
    3AU     LIG  909  26.850   0.453   8.712
    3AU       S  910  25.896   0.679   7.709
    3AU     LIG  911  26.080   1.114   7.850
    3AU     LIG  912  25.971   1.559   7.980
    3AU    AUSL  913  25.779  43.769   8.115
    3AU    AUSL  914  26.338  43.804   7.741
    3AU     AUL  915  26.098  43.587   8.020
    3AU       S  916  25.486  43.214   8.071
    3AU     LIG  917  25.535  42.915   8.398
    3AU     LIG  918  25.688  42.534   8.649
    3AU       S  919  26.554  43.648   7.833
    3AU     LIG  920  26.761  43.203   8.024
    3AU     LIG  921  27.006  42.923   8.315
    3AU    AUSL  922  25.585  43.624   7.750
    3AU    AUSL  923  25.502  44.035   7.958
    3AU     AUL  924  25.428  43.701   8.114
    3AU       S  925  25.494  43.350   7.812
    3AU     LIG  926  25.138  43.121   7.716
    3AU     LIG  927  25.098  42.867   8.080
    3AU       S  928  24.968  43.572   8.261
    3AU     LIG  929  25.075  43.196   8.460
    3AU     LIG  930  24.907  42.849   8.746
    3AU    AUSL  931  25.933  43.857   7.690
    3AU    AUSL  932  25.550  43.698   7.340
    3AU     AUL  933  25.877  43.504   7.558
    3AU       S  934  25.419  43.380   7.343
    3AU     LIG  935  25.209  42.950   7.201
    3AU     LIG  936  25.084  42.659   6.836
    3AU       S  937  25.671  43.149   7.864
    3AU     LIG  938  26.016  43.073   8.067
    3AU     LIG  939  25.957  42.675   8.217
    3AU    AUSL  940  25.789   0.159   6.930
    3AU    AUSL  941  26.097   0.087   7.262
    3AU     AUL  942  26.154   0.357   7.031
    3AU       S  943  25.812   0.383   6.699
    3AU     LIG  944  26.107   0.815   6.612
    3AU     LIG  945  26.053   1.282   6.600
    3AU       S  946  26.812   0.109   6.830
    3AU     LIG  947  26.805   0.562   6.657
    3AU     LIG  948  26.976   1.022   6.689
    3AU    AUSL  949  25.534   0.118   7.280
    3AU    AUSL  950  25.418   0.028   6.803
    3AU     AUL  951  25.432   0.350   7.004
    3AU       S  952  25.643   0.660   6.694
    3AU     LIG  953  25.614   1.109   6.852
    3AU     LIG  954  25.816   1.495   7.011
    3AU       S  955  25.170   0.153   6.636
    3AU     LIG  956  24.937   0.268   6.266
    3AU     LIG  957  24.789   0.654   6.030
    3AU    AUSL  958  25.698  43.748   6.928
    3AU    AUSL  959  25.171  43.786   7.172
    3AU     AUL  960  25.402  43.646   6.958
    3AU       S  961  24.933  43.733   6.953
    3AU     LIG  962  24.946  43.301   6.942
    3AU     LIG  963  24.722  42.972   6.631
    3AU       S  964  25.606  43.243   7.129
    3AU     LIG  965  25.805  43.257   6.734
    3AU     LIG  966  25.910  42.942   6.385
    3AU    AUSL  967  25.937  43.871   7.276
    3AU    AUSL  968  26.049  43.962   6.849
    3AU     AUL  969  26.009  43.595   7.069
    3AU       S  970  25.622  43.161   7.357
    3AU     LIG  971  26.056  43.077   7.204
    3AU     LIG  972  26.105  42.857   6.849
    3AU       S  973  26.200  43.807   6.685
    3AU     LIG  974  26.264  43.382   6.462
    3AU     LIG  975  26.650  43.347   6.163
    4AU     AUC  976  32.076  42.919   7.500
    4AU     AUC  977  32.374  42.962   7.331
    4AU     AUC  978  32.354  42.936   7.669
    4AU     AUC  979  31.789  42.904   7.333
    4AU     AUC  980  31.789  42.900   7.684
    4AU     AUC  981  31.884  43.166   7.520
    4AU     AUC  982  32.224  43.196   7.506
    4AU     AUC  983  31.920  42.636   7.501
    4AU     AUC  984  32.278  42.682   7.487
    4AU     AUC  985  32.113  42.748   7.770
    4AU     AUC  986  32.058  43.074   7.781
    4AU     AUC  987  32.093  42.764   7.220
    4AU     AUC  988  32.090  43.102   7.232
    4AU     AUC  989  32.679  42.993   7.175
    4AU     AUC  990  32.720  42.978   7.495
    4AU     AUC  991  32.658  42.939   7.861
    4AU     AUC  992  31.489  42.882   7.158
    4AU     AUC  993  31.452  42.925   7.526
    4AU     AUC  994  31.508  42.886   7.861
    4AU     AUC  995  31.711  43.463   7.509
    4AU     AUC  996  32.053  43.530   7.504
    4AU     AUC  997  32.369  43.515   7.523
    4AU     AUC  998  31.749  42.319   7.504
    4AU     AUC  999  32.095  42.357   7.497
    4AU     AUC 1000  32.484  42.403   7.457
    4AU     AUC 1001  32.130  42.525   8.055
    4AU     AUC 1002  32.078  42.845   8.100
    4AU     AUC 1003  32.071  43.222   8.072
    4AU     AUC 1004  32.091  42.574   6.930
    4AU     AUC 1005  32.089  42.921   6.914
    4AU     AUC 1006  32.107  43.282   6.938
    4AU     AUC 1007  32.411  42.696   7.964
    4AU     AUC 1008  32.380  43.060   8.010
    4AU     AUC 1009  32.380  42.788   7.011
    4AU     AUC 1010  32.405  43.150   7.009
    4AU     AUC 1011  31.788  42.686   7.983
    4AU     AUC 1012  31.780  43.042   7.994
    4AU     AUC 1013  31.753  42.704   7.048
    4AU     AUC 1014  31.761  43.080   7.024
    4AU     AUC 1015  32.575  43.257   7.359
    4AU     AUC 1016  32.521  43.222   7.713
    4AU     AUC 1017  31.596  43.191   7.307
    4AU     AUC 1018  31.573  43.204   7.700
    4AU     AUC 1019  32.589  42.680   7.296
    4AU     AUC 1020  32.603  42.650   7.628
    4AU     AUC 1021  31.562  42.616   7.350
    4AU     AUC 1022  31.598  42.615   7.680
    4AU     AUC 1023  31.873  43.389   7.799
    4AU     AUC 1024  32.211  43.397   7.816
    4AU     AUC 1025  31.901  42.407   7.774
    4AU     AUC 1026  32.311  42.429   7.794
    4AU     AUC 1027  31.884  43.364   7.179
    4AU     AUC 1028  32.275  43.408   7.185
    4AU     AUC 1029  31.885  42.434   7.221
    4AU     AUC 1030  32.271  42.467   7.167
    4AU    AUSL 1031  32.665  42.838   8.219
    4AU    AUSL 1032  32.522  42.368   8.085
    4AU     AUL 1033  32.776  42.456   8.282
    4AU       S 1034  32.935  42.062   8.096
    4AU     LIG 1035  32.889  41.709   8.376
    4AU     LIG 1036  33.087  41.354   8.638
    4AU       S 1037  32.921  42.888   8.372
    4AU     LIG 1038  32.898  43.060   8.780
    4AU     LIG 1039  32.987  42.862   9.187
    4AU    AUSL 1040  32.277  42.649   8.307
    4AU    AUSL 1041  31.937  42.973   8.389
    4AU     AUL 1042  32.136  42.815   8.641
    4AU       S 1043  32.582  42.653   8.649
    4AU     LIG 1044  32.484  42.820   9.036
    4AU     LIG 1045  32.568  42.722   9.483
    4AU       S 1046  31.413  42.769   8.680
    4AU     LIG 1047  31.632  43.117   8.956
    4AU     LIG 1048  31.609  43.070   9.418
    4AU    AUSL 1049  32.278  43.066   8.174
    4AU    AUSL 1050  32.685  43.257   8.136
    4AU     AUL 1051  32.502  43.084   8.462
    4AU       S 1052  32.116  43.324   8.629
    4AU     LIG 1053  32.470  43.321   8.912
    4AU     LIG 1054  32.647  43.222   9.328
    4AU       S 1055  32.830  43.401   8.347
    4AU     LIG 1056  33.236  43.499   8.449
    4AU     LIG 1057  33.315  43.926   8.621
    4AU    AUSL 1058  32.637  43.044   6.763
    4AU    AUSL 1059  32.522  43.480   6.842
    4AU     AUL 1060  32.653  43.342   6.509
    4AU       S 1061  32.551  42.927   6.307
    4AU     LIG 1062  32.846  43.012   5.973
    4AU     LIG 1063  32.957  42.772   5.585
    4AU       S 1064  32.895  43.597   6.811
    4AU     LIG 1065  32.747  43.983   6.655
    4AU     LIG 1066  32.810  44.173   6.225
    4AU    AUSL 1067  32.295  42.796   6.715
    4AU    AUSL 1068  32.616  42.713   7.040
    4AU     AUL 1069  32.720  42.737   6.689
    4AU       S 1070  32.821  42.255   6.586
    4AU     LIG 1071  33.135  41.910   6.520
    4AU     LIG 1072  33.375  41.576   6.299
    4AU       S 1073  32.367  42.609   6.378
    4AU     LIG 1074  32.321  42.335   5.971
    4AU     LIG 1075  32.535  42.438   5.550
    4AU    AUSL 1076  32.226  43.227   6.665
    4AU    AUSL 1077  31.918  42.646   6.622
    4AU     AUL 1078  32.089  42.974   6.423
    4AU       S 1079  31.733  42.671   6.314
    4AU     LIG 1080  31.871  42.579   5.883
    4AU     LIG 1081  31.615  42.585   5.487
    4AU       S 1082  32.603  42.642   6.225
    4AU     LIG 1083  32.368  42.830   5.852
    4AU     LIG 1084  32.496  42.958   5.417
    4AU    AUSL 1085  31.578  42.849   8.183
    4AU    AUSL 1086  31.805  43.291   8.148
    4AU     AUL 1087  31.667  43.158   8.456
    4AU       S 1088  31.335  42.832   8.386
    4AU     LIG 1089  31.182  43.192   8.666
    4AU     LIG 1090  31.166  42.996   9.113
    4AU       S 1091  31.391  43.522   8.304
    4AU     LIG 1092  31.513  43.910   8.507
    4AU     LIG 1093  31.292  44.265   8.685
    4AU    AUSL 1094  31.863  42.548   8.348
    4AU    AUSL 1095  31.455  42.460   8.045
    4AU     AUL 1096  31.551  42.426   8.339
    4AU       S 1097  31.276  42.091   8.159
    4AU     LIG 1098  30.854  41.959   8.231
    4AU     LIG 1099  30.716  41.640   8.537
    4AU       S 1100  31.657  42.713   8.676
    4AU     LIG 1101  31.643  42.630   9.129
    4AU     LIG 1102  31.427  42.568   9.545
    4AU    AUSL 1103  31.542  42.802   6.763
    4AU    AUSL 1104  31.804  42.490   7.003
    4AU     AUL 1105  31.657  42.404   6.690
    4AU       S 1106  31.366  42.719   6.483
    4AU     LIG 1107  31.066  42.821   6.136
    4AU     LIG 1108  31.097  42.809   5.660
    4AU       S 1109  31.190  42.257   6.711
    4AU     LIG 1110  31.451  41.917   6.556
    4AU     LIG 1111  31.380  41.644   6.176
    4AU    AUSL 1112  31.893  43.046   6.834
    4AU    AUSL 1113  31.448  43.185   6.917
    4AU     AUL 1114  31.642  43.092   6.557
    4AU       S 1115  31.272  43.327   6.728
    4AU     LIG 1116  30.972  43.638   6.608
    4AU     LIG 1117  30.853  43.950   6.299
    4AU       S 1118  31.482  42.556   6.240
    4AU     LIG 1119  31.521  42.941   5.938
    4AU     LIG 1120  31.497  43.097   5.481
    4AU    AUSL 1121  32.756  43.535   7.557
    4AU    AUSL 1122  32.748  43.251   7.119
    4AU     AUL 1123  32.909  43.638   7.277
    4AU       S 1124  33.000  43.295   6.936
    4AU     LIG 1125  33.143  43.295   6.484
    4AU     LIG 1126  33.133  43.757   6.376
    4AU       S 1127  33.279  43.472   7.926
    4AU     LIG 1128  33.480  43.845   7.688
    4AU     LIG 1129  33.655  43.970   7.257
    4AU    AUSL 1130  33.027  43.204   7.424
    4AU    AUSL 1131  33.034  42.809   7.658
    4AU     AUL 1132  33.336  43.000   7.510
    4AU       S 1133  33.208  43.422   7.648
    4AU     LIG 1134  33.666  43.404   7.470
    4AU     LIG 1135  34.139  43.353   7.288
    4AU       S 1136  33.288  42.523   7.511
    4AU     LIG 1137  33.555  42.417   7.854
    4AU     LIG 1138  33.826  42.074   8.101
    4AU    AUSL 1139  32.770  43.131   7.752
    4AU    AUSL 1140  32.439  43.438   7.819
    4AU     AUL 1141  32.795  43.537   7.893
    4AU       S 1142  32.787  43.698   8.357
    4AU     LIG 1143  33.106  43.917   8.150
    4AU     LIG 1144  33.311  44.343   8.267
    4AU       S 1145  33.122  43.193   7.923
    4AU     LIG 1146  33.615  43.102   7.911
    4AU     LIG 1147  34.075  43.185   7.775
    4AU    AUSL 1148  31.419  43.420   7.540
    4AU    AUSL 1149  31.424  43.186   7.964
    4AU     AUL 1150  31.150  43.532   7.816
    4AU       S 1151  31.287  43.248   8.158
    4AU     LIG 1152  30.902  43.458   8.263
    4AU     LIG 1153  30.988  43.865   8.470
    4AU       S 1154  31.355  43.821   7.504
    4AU     LIG 1155  30.874  43.697   7.421
    4AU     LIG 1156  30.402  43.829   7.470
    4AU    AUSL 1157  31.347  43.058   7.296
    4AU    AUSL 1158  31.498  43.554   7.147
    4AU     AUL 1159  31.199  43.387   7.202
    4AU       S 1160  31.051  42.928   6.934
    4AU     LIG 1161  30.762  43.312   6.975
    4AU     LIG 1162  30.334  43.532   7.039
    4AU       S 1163  31.325  43.772   6.934
    4AU     LIG 1164  31.247  44.155   6.669
    4AU     LIG 1165  30.921  44.431   6.478
    4AU    AUSL 1166  31.134  43.107   7.668
    4AU    AUSL 1167  31.129  42.718   7.412
    4AU     AUL 1168  30.954  43.029   7.377
    4AU       S 1169  30.883  42.664   7.682
    4AU     LIG 1170  30.608  42.629   7.346
    4AU     LIG 1171  30.273  42.306   7.254
    4AU       S 1172  30.871  43.148   7.841
    4AU     LIG 1173  30.589  43.488   7.820
    4AU     LIG 1174  30.147  43.648   7.905
    4AU    AUSL 1175  32.791  42.524   7.440
    4AU    AUSL 1176  32.672  42.675   7.834
    4AU     AUL 1177  32.993  42.553   7.870
    4AU       S 1178  33.080  42.366   7.438
    4AU     LIG 1179  33.284  41.998   7.438
    4AU     LIG 1180  33.673  41.971   7.628
    4AU       S 1181  33.177  42.093   7.924
    4AU     LIG 1182  33.377  41.784   8.234
    4AU     LIG 1183  33.494  41.680   8.683
    4AU    AUSL 1184  32.979  42.840   7.206
    4AU    AUSL 1185  32.694  42.268   7.122
    4AU     AUL 1186  32.928  42.519   7.030
    4AU       S 1187  33.305  42.588   7.281
    4AU     LIG 1188  33.671  42.312   7.242
    4AU     LIG 1189  34.121  42.248   7.122
    4AU       S 1190  32.803  42.101   6.850
    4AU     LIG 1191  32.899  41.639   6.899
    4AU     LIG 1192  33.257  41.354   6.766
    4AU    AUSL 1193  31.486  42.480   7.506
    4AU    AUSL 1194  31.383  42.604   7.093
    4AU     AUL 1195  31.120  42.400   7.337
    4AU       S 1196  31.216  42.456   6.887
    4AU     LIG 1197  30.780  42.258   7.003
    4AU     LIG 1198  30.542  41.928   6.787
    4AU       S 1199  30.818  42.501   7.814
    4AU     LIG 1200  30.672  42.155   7.559
    4AU     LIG 1201  30.277  41.874   7.574
    4AU    AUSL 1202  31.333  42.763   7.793
    4AU    AUSL 1203  31.570  42.159   7.752
    4AU     AUL 1204  31.257  42.339   7.769
    4AU       S 1205  31.424  41.891   7.847
    4AU     LIG 1206  31.151  41.469   7.995
    4AU     LIG 1207  30.817  41.229   8.230
    4AU       S 1208  31.026  42.710   7.945
    4AU     LIG 1209  30.544  42.806   8.051
    4AU     LIG 1210  30.278  42.524   7.758
    4AU    AUSL 1211  32.036  43.602   7.966
    4AU    AUSL 1212  31.607  43.572   7.890
    4AU     AUL 1213  31.850  43.612   8.267
    4AU       S 1214  31.500  43.781   8.008
    4AU     LIG 1215  31.265  44.157   8.125
    4AU     LIG 1216  31.250  44.606   8.290
    4AU       S 1217  31.987  43.998   8.028
    4AU     LIG 1218  32.228  44.278   8.322
    4AU     LIG 1219  32.117  44.700   8.508
    4AU    AUSL 1220  31.842  43.794   7.622
    4AU    AUSL 1221  32.188  43.854   7.289
    4AU     AUL 1222  31.864  44.059   7.404
    4AU       S 1223  31.985  44.214   7.867
    4AU     LIG 1224  32.036  44.639   7.995
    4AU     LIG 1225  31.717  44.918   8.205
    4AU       S 1226  32.154  44.102   7.034
    4AU     LIG 1227  32.509  44.313   7.128
    4AU     LIG 1228  32.599  44.775   7.098
    4AU    AUSL 1229  32.302  43.807   7.689
    4AU    AUSL 1230  32.322  43.474   8.244
    4AU     AUL 1231  32.400  43.757   8.046
    4AU       S 1232  32.544  43.586   8.481
    4AU     LIG 1233  32.770  43.986   8.742
    4AU     LIG 1234  33.073  44.367   8.753
    4AU       S 1235  32.222  44.074   7.745
    4AU     LIG 1236  32.471  44.390   7.889
    4AU     LIG 1237  32.515  44.743   8.182
    4AU    AUSL 1238  32.148  42.178   8.115
    4AU    AUSL 1239  32.700  42.214   7.712
    4AU     AUL 1240  32.469  41.999   8.008
    4AU       S 1241  32.034  41.662   8.111
    4AU     LIG 1242  31.944  41.231   8.207
    4AU     LIG 1243  32.218  40.861   8.315
    4AU       S 1244  32.895  42.063   7.778
    4AU     LIG 1245  33.065  41.615   7.832
    4AU     LIG 1246  33.163  41.285   8.136
    4AU    AUSL 1247  31.964  42.020   7.751
    4AU    AUSL 1248  31.873  42.435   7.945
    4AU     AUL 1249  31.791  42.096   8.094
    4AU       S 1250  31.931  41.726   7.845
    4AU     LIG 1251  31.645  41.405   7.819
    4AU     LIG 1252  31.628  40.944   7.889
    4AU       S 1253  31.344  41.901   8.105
    4AU     LIG 1254  31.546  41.610   8.304
    4AU     LIG 1255  31.227  41.375   8.544
    4AU    AUSL 1256  32.295  42.272   7.680
    4AU    AUSL 1257  31.918  42.129   7.347
    4AU     AUL 1258  32.246  41.917   7.535
    4AU       S 1259  31.759  41.805   7.383
    4AU     LIG 1260  31.535  41.612   7.030
    4AU     LIG 1261  31.804  41.244   6.919
    4AU       S 1262  32.187  41.575   7.887
    4AU     LIG 1263  32.137  41.170   7.720
    4AU     LIG 1264  32.183  40.721   7.815
    4AU    AUSL 1265  32.136  43.600   6.950
    4AU    AUSL 1266  32.444  43.515   7.278
    4AU     AUL 1267  32.500  43.790   7.057
    4AU       S 1268  32.162  43.831   6.721
    4AU     LIG 1269  32.342  44.216   6.423
    4AU     LIG 1270  32.387  44.671   6.308
    4AU       S 1271  33.215  43.496   6.930
    4AU     LIG 1272  33.226  43.963   6.905
    4AU     LIG 1273  33.171  44.291   6.571
    4AU    AUSL 1274  31.884  43.539   7.299
    4AU    AUSL 1275  31.772  43.453   6.819
    4AU     AUL 1276  31.785  43.779   7.019
    4AU       S 1277  32.102  44.112   6.825
    4AU     LIG 1278  32.213  44.574   6.795
    4AU     LIG 1279  32.036  44.995   6.786
    4AU       S 1280  31.517  43.586   6.657
    4AU     LIG 1281  31.366  43.819   6.302
    4AU     LIG 1282  31.251  44.233   6.117
    4AU    AUSL 1283  32.057  42.166   6.929
    4AU    AUSL 1284  31.530  42.201   7.192
    4AU     AUL 1285  31.769  42.054   6.980
    4AU       S 1286  31.298  42.142   6.974
    4AU     LIG 1287  31.025  41.773   6.921
    4AU     LIG 1288  30.693  41.424   6.810
    4AU       S 1289  31.997  41.669   7.200
    4AU     LIG 1290  32.139  41.631   6.817
    4AU     LIG 1291  32.379  41.267   6.677
    4AU    AUSL 1292  32.308  42.290   7.266
    4AU    AUSL 1293  32.388  42.405   6.836
    4AU     AUL 1294  32.378  42.027   7.042
    4AU       S 1295  31.925  41.521   7.391
    4AU     LIG 1296  32.265  41.228   7.198
    4AU     LIG 1297  32.468  40.838   6.997
    4AU       S 1298  32.542  42.263   6.660
    4AU     LIG 1299  32.553  41.803   6.539
    4AU     LIG 1300  32.864  41.481   6.399
    5AU     AUC 1301  15.866  39.011   7.494
    5AU     AUC 1302  16.165  39.046   7.323
    5AU     AUC 1303  16.143  39.022   7.661
    5AU     AUC 1304  15.577  39.002   7.326
    5AU     AUC 1305  15.585  39.002   7.681
    5AU     AUC 1306  15.680  39.261   7.516
    5AU     AUC 1307  16.021  39.285   7.497
    5AU     AUC 1308  15.701  38.732   7.495
    5AU     AUC 1309  16.060  38.768   7.477
    5AU     AUC 1310  15.896  38.840   7.767
    5AU     AUC 1311  15.854  39.170   7.776
    5AU     AUC 1312  15.882  38.856   7.212
    5AU     AUC 1313  15.884  39.192   7.224
    5AU     AUC 1314  16.471  39.069   7.165
    5AU     AUC 1315  16.510  39.053   7.488
    5AU     AUC 1316  16.448  39.017   7.852
    5AU     AUC 1317  15.280  38.988   7.153
    5AU     AUC 1318  15.247  39.020   7.520
    5AU     AUC 1319  15.296  38.994   7.868
    5AU     AUC 1320  15.513  39.565   7.505
    5AU     AUC 1321  15.860  39.623   7.491
    5AU     AUC 1322  16.175  39.598   7.509
    5AU     AUC 1323  15.519  38.419   7.499
    5AU     AUC 1324  15.866  38.452   7.491
    5AU     AUC 1325  16.255  38.486   7.450
    5AU     AUC 1326  15.907  38.622   8.056
    5AU     AUC 1327  15.870  38.945   8.098
    5AU     AUC 1328  15.872  39.323   8.065
    5AU     AUC 1329  15.877  38.667   6.921
    5AU     AUC 1330  15.879  39.015   6.904
    5AU     AUC 1331  15.902  39.370   6.930
    5AU     AUC 1332  16.195  38.783   7.958
    5AU     AUC 1333  16.175  39.149   8.002
    5AU     AUC 1334  16.168  38.872   7.001
    5AU     AUC 1335  16.201  39.232   7.000
    5AU     AUC 1336  15.572  38.793   7.987
    5AU     AUC 1337  15.578  39.150   7.994
    5AU     AUC 1338  15.542  38.808   7.037
    5AU     AUC 1339  15.551  39.180   7.018
    5AU     AUC 1340  16.374  39.335   7.349
    5AU     AUC 1341  16.320  39.303   7.703
    5AU     AUC 1342  15.387  39.292   7.307
    5AU     AUC 1343  15.373  39.306   7.698
    5AU     AUC 1344  16.371  38.758   7.287
    5AU     AUC 1345  16.381  38.729   7.622
    5AU     AUC 1346  15.351  38.716   7.336
    5AU     AUC 1347  15.380  38.719   7.672
    5AU     AUC 1348  15.679  39.492   7.791
    5AU     AUC 1349  16.015  39.488   7.803
    5AU     AUC 1350  15.667  38.512   7.776
    5AU     AUC 1351  16.079  38.520   7.790
    5AU     AUC 1352  15.681  39.456   7.176
    5AU     AUC 1353  16.076  39.492   7.175
    5AU     AUC 1354  15.670  38.531   7.208
    5AU     AUC 1355  16.053  38.552   7.161
    5AU    AUSL 1356  16.458  38.923   8.207
    5AU    AUSL 1357  16.293  38.451   8.083
    5AU     AUL 1358  16.564  38.540   8.268
    5AU       S 1359  16.695  38.136   8.086
    5AU     LIG 1360  16.777  37.784   8.369
    5AU     LIG 1361  16.771  37.540   8.777
    5AU       S 1362  16.717  38.969   8.360
    5AU     LIG 1363  16.722  39.176   8.751
    5AU     LIG 1364  16.832  38.969   9.150
    5AU    AUSL 1365  16.066  38.745   8.303
    5AU    AUSL 1366  15.736  39.082   8.384
    5AU     AUL 1367  15.933  38.924   8.637
    5AU       S 1368  16.365  38.733   8.632
    5AU     LIG 1369  16.323  38.927   8.997
    5AU     LIG 1370  16.412  38.809   9.431
    5AU       S 1371  15.207  38.888   8.686
    5AU     LIG 1372  15.403  39.225   8.975
    5AU     LIG 1373  15.373  39.173   9.446
    5AU    AUSL 1374  16.078  39.161   8.166
    5AU    AUSL 1375  16.487  39.343   8.127
    5AU     AUL 1376  16.306  39.174   8.453
    5AU       S 1377  15.930  39.427   8.624
    5AU     LIG 1378  16.296  39.431   8.897
    5AU     LIG 1379  16.488  39.320   9.296
    5AU       S 1380  16.626  39.503   8.342
    5AU     LIG 1381  17.014  39.574   8.492
    5AU     LIG 1382  17.190  39.943   8.692
    5AU    AUSL 1383  16.432  39.121   6.750
    5AU    AUSL 1384  16.325  39.559   6.832
    5AU     AUL 1385  16.447  39.414   6.488
    5AU       S 1386  16.335  39.001   6.291
    5AU     LIG 1387  16.679  39.031   6.026
    5AU     LIG 1388  16.782  38.830   5.619
    5AU       S 1389  16.682  39.664   6.794
    5AU     LIG 1390  16.603  39.921   6.485
    5AU     LIG 1391  16.901  40.220   6.308
    5AU    AUSL 1392  16.084  38.882   6.708
    5AU    AUSL 1393  16.402  38.793   7.030
    5AU     AUL 1394  16.506  38.808   6.671
    5AU       S 1395  16.594  38.325   6.587
    5AU     LIG 1396  16.960  38.090   6.484
    5AU     LIG 1397  17.200  37.694   6.430
    5AU       S 1398  16.144  38.695   6.383
    5AU     LIG 1399  16.355  38.351   6.122
    5AU     LIG 1400  16.445  38.426   5.656
    5AU    AUSL 1401  16.025  39.312   6.655
    5AU    AUSL 1402  15.702  38.756   6.603
    5AU     AUL 1403  15.881  39.079   6.416
    5AU       S 1404  15.526  38.788   6.295
    5AU     LIG 1405  15.744  38.786   5.904
    5AU     LIG 1406  15.532  38.782   5.478
    5AU       S 1407  16.201  38.815   6.145
    5AU     LIG 1408  16.264  38.932   5.723
    5AU     LIG 1409  16.512  39.250   5.489
    5AU    AUSL 1410  15.371  38.963   8.188
    5AU    AUSL 1411  15.612  39.409   8.151
    5AU     AUL 1412  15.478  39.273   8.463
    5AU       S 1413  15.137  38.959   8.393
    5AU     LIG 1414  14.968  39.308   8.679
    5AU     LIG 1415  14.936  39.100   9.129
    5AU       S 1416  15.208  39.643   8.298
    5AU     LIG 1417  14.930  39.906   8.574
    5AU     LIG 1418  14.593  40.155   8.822
    5AU    AUSL 1419  15.650  38.657   8.358
    5AU    AUSL 1420  15.213  38.586   8.063
    5AU     AUL 1421  15.337  38.538   8.351
    5AU       S 1422  14.958  38.317   8.176
    5AU     LIG 1423  14.525  38.233   8.196
    5AU     LIG 1424  14.342  37.890   8.454
    5AU       S 1425  15.454  38.830   8.683
    5AU     LIG 1426  15.412  38.737   9.145
    5AU     LIG 1427  15.261  38.645   9.591
    5AU    AUSL 1428  15.328  38.913   6.745
    5AU    AUSL 1429  15.594  38.598   6.984
    5AU     AUL 1430  15.444  38.523   6.670
    5AU       S 1431  15.161  38.832   6.440
    5AU     LIG 1432  14.862  38.840   6.059
    5AU     LIG 1433  14.968  38.829   5.600
    5AU       S 1434  14.978  38.380   6.651
    5AU     LIG 1435  15.023  37.923   6.584
    5AU     LIG 1436  14.762  37.609   6.370
    5AU    AUSL 1437  15.683  39.150   6.826
    5AU    AUSL 1438  15.240  39.287   6.923
    5AU     AUL 1439  15.433  39.201   6.551
    5AU       S 1440  15.066  39.425   6.733
    5AU     LIG 1441  14.722  39.705   6.672
    5AU     LIG 1442  14.546  40.026   6.379
    5AU       S 1443  15.301  38.663   6.208
    5AU     LIG 1444  15.309  39.057   5.925
    5AU     LIG 1445  15.281  39.244   5.486
    5AU    AUSL 1446  16.564  39.608   7.546
    5AU    AUSL 1447  16.546  39.322   7.108
    5AU     AUL 1448  16.719  39.703   7.261
    5AU       S 1449  16.801  39.365   6.926
    5AU     LIG 1450  16.919  39.272   6.497
    5AU     LIG 1451  17.031  39.685   6.311
    5AU       S 1452  17.065  39.520   7.973
    5AU     LIG 1453  17.281  39.897   7.779
    5AU     LIG 1454  17.506  40.313   7.790
    5AU    AUSL 1455  16.822  39.269   7.416
    5AU    AUSL 1456  16.817  38.874   7.649
    5AU     AUL 1457  17.119  39.061   7.510
    5AU       S 1458  17.011  39.484   7.662
    5AU     LIG 1459  17.425  39.470   7.441
    5AU     LIG 1460  17.733  39.248   7.164
    5AU       S 1461  17.050  38.589   7.477
    5AU     LIG 1462  17.304  38.490   7.785
    5AU     LIG 1463  17.619  38.195   7.911
    5AU    AUSL 1464  16.565  39.204   7.745
    5AU    AUSL 1465  16.244  39.523   7.807
    5AU     AUL 1466  16.599  39.613   7.882
    5AU       S 1467  16.594  39.814   8.330
    5AU     LIG 1468  16.938  40.078   8.258
    5AU     LIG 1469  17.150  40.444   8.484
    5AU       S 1470  16.915  39.252   7.920
    5AU     LIG 1471  17.425  39.193   7.880
    5AU     LIG 1472  17.775  39.517   7.841
    5AU    AUSL 1473  15.209  39.521   7.543
    5AU    AUSL 1474  15.235  39.298   7.960
    5AU     AUL 1475  14.957  39.635   7.809
    5AU       S 1476  15.110  39.393   8.178
    5AU     LIG 1477  14.690  39.599   8.239
    5AU     LIG 1478  14.436  39.976   8.362
    5AU       S 1479  15.170  39.932   7.507
    5AU     LIG 1480  14.709  39.890   7.454
    5AU     LIG 1481  14.306  40.138   7.493
    5AU    AUSL 1482  15.130  39.165   7.303
    5AU    AUSL 1483  15.298  39.654   7.154
    5AU     AUL 1484  14.988  39.496   7.205
    5AU       S 1485  14.830  39.047   6.958
    5AU     LIG 1486  14.426  39.273   7.036
    5AU     LIG 1487  14.060  39.556   7.063
    5AU       S 1488  15.126  39.871   6.929
    5AU     LIG 1489  14.956  40.207   6.649
    5AU     LIG 1490  14.646  40.545   6.487
    5AU    AUSL 1491  14.929  39.203   7.686
    5AU    AUSL 1492  14.918  38.818   7.403
    5AU     AUL 1493  14.740  39.153   7.405
    5AU       S 1494  14.680  38.760   7.657
    5AU     LIG 1495  14.460  38.746   7.232
    5AU     LIG 1496  14.128  38.452   7.252
    5AU       S 1497  14.735  39.224   7.894
    5AU     LIG 1498  14.449  39.521   7.735
    5AU     LIG 1499  14.193  39.873   7.920
    5AU    AUSL 1500  16.563  38.599   7.432
    5AU    AUSL 1501  16.452  38.749   7.827
    5AU     AUL 1502  16.775  38.616   7.853
    5AU       S 1503  16.853  38.418   7.426
    5AU     LIG 1504  17.159  38.095   7.446
    5AU     LIG 1505  17.572  38.254   7.392
    5AU       S 1506  16.919  38.139   7.886
    5AU     LIG 1507  17.184  38.102   8.255
    5AU     LIG 1508  17.183  37.878   8.676
    5AU    AUSL 1509  16.767  38.906   7.199
    5AU    AUSL 1510  16.471  38.346   7.111
    5AU     AUL 1511  16.708  38.593   7.022
    5AU       S 1512  17.091  38.652   7.269
    5AU     LIG 1513  17.514  38.791   7.386
    5AU     LIG 1514  17.892  38.754   7.204
    5AU       S 1515  16.589  38.171   6.844
    5AU     LIG 1516  16.811  37.736   6.831
    5AU     LIG 1517  16.990  37.290   6.691
    5AU    AUSL 1518  15.271  38.561   7.481
    5AU    AUSL 1519  15.176  38.724   7.082
    5AU     AUL 1520  14.909  38.503   7.303
    5AU       S 1521  14.991  38.584   6.853
    5AU     LIG 1522  14.576  38.337   6.949
    5AU     LIG 1523  14.492  37.931   6.742
    5AU       S 1524  14.574  38.571   7.703
    5AU     LIG 1525  14.564  38.181   7.486
    5AU     LIG 1526  14.283  37.899   7.248
    5AU    AUSL 1527  15.150  38.861   7.764
    5AU    AUSL 1528  15.322  38.277   7.781
    5AU     AUL 1529  15.038  38.447   7.741
    5AU       S 1530  15.126  38.040   7.954
    5AU     LIG 1531  14.696  37.825   7.941
    5AU     LIG 1532  14.431  37.472   8.154
    5AU       S 1533  14.744  38.758   7.903
    5AU     LIG 1534  14.248  38.681   8.035
    5AU     LIG 1535  13.870  38.584   7.728
    5AU    AUSL 1536  15.850  39.704   7.948
    5AU    AUSL 1537  15.421  39.681   7.875
    5AU     AUL 1538  15.668  39.737   8.248
    5AU       S 1539  15.305  39.887   8.000
    5AU     LIG 1540  14.882  40.067   8.077
    5AU     LIG 1541  14.742  40.394   8.385
    5AU       S 1542  15.821  40.116   7.995
    5AU     LIG 1543  16.081  40.288   8.336
    5AU     LIG 1544  16.150  40.733   8.521
    5AU    AUSL 1545  15.659  39.906   7.607
    5AU    AUSL 1546  16.001  39.940   7.265
    5AU     AUL 1547  15.719  40.182   7.378
    5AU       S 1548  15.896  40.356   7.827
    5AU     LIG 1549  15.791  40.823   7.870
    5AU     LIG 1550  15.552  41.150   8.148
    5AU       S 1551  15.960  40.169   6.949
    5AU     LIG 1552  16.102  40.539   7.103
    5AU     LIG 1553  16.008  40.982   6.947
    5AU    AUSL 1554  16.121  39.891   7.665
    5AU    AUSL 1555  16.127  39.568   8.231
    5AU     AUL 1556  16.210  39.846   8.027
    5AU       S 1557  16.349  39.673   8.461
    5AU     LIG 1558  16.661  39.826   8.810
    5AU     LIG 1559  16.835  40.275   8.878
    5AU       S 1560  16.082  40.166   7.707
    5AU     LIG 1561  16.398  40.391   7.961
    5AU     LIG 1562  16.457  40.848   8.135
    5AU    AUSL 1563  15.911  38.276   8.106
    5AU    AUSL 1564  16.459  38.291   7.704
    5AU     AUL 1565  16.226  38.088   8.007
    5AU       S 1566  15.517  37.723   8.080
    5AU     LIG 1567  15.682  37.365   8.307
    5AU     LIG 1568  16.074  37.117   8.337
    5AU       S 1569  16.640  38.133   7.760
    5AU     LIG 1570  16.552  37.690   7.906
    5AU     LIG 1571  16.781  37.331   8.125
    5AU    AUSL 1572  15.710  38.131   7.743
    5AU    AUSL 1573  15.636  38.546   7.955
    5AU     AUL 1574  15.558  38.205   8.099
    5AU       S 1575  15.612  37.831   7.813
    5AU     LIG 1576  15.566  37.376   7.734
    5AU     LIG 1577  15.787  37.030   7.909
    5AU       S 1578  15.065  38.095   8.199
    5AU     LIG 1579  15.331  37.975   8.503
    5AU     LIG 1580  15.243  37.730   8.890
    5AU    AUSL 1581  16.056  38.365   7.679
    5AU    AUSL 1582  15.683  38.235   7.338
    5AU     AUL 1583  15.993  38.007   7.557
    5AU       S 1584  15.549  37.915   7.342
    5AU     LIG 1585  15.328  37.710   6.993
    5AU     LIG 1586  15.594  37.352   6.875
    5AU       S 1587  15.827  37.752   8.024
    5AU     LIG 1588  16.072  37.501   7.734
    5AU     LIG 1589  16.287  37.086   7.786
    5AU    AUSL 1590  15.936  39.670   6.943
    5AU    AUSL 1591  16.251  39.597   7.268
    5AU     AUL 1592  16.305  39.870   7.038
    5AU       S 1593  15.947  39.869   6.709
    5AU     LIG 1594  16.160  40.178   6.416
    5AU     LIG 1595  16.088  40.609   6.583
    5AU       S 1596  16.974  39.624   6.844
    5AU     LIG 1597  16.936  40.100   6.850
    5AU     LIG 1598  16.943  40.557   6.739
    5AU    AUSL 1599  15.687  39.633   7.298
    5AU    AUSL 1600  15.559  39.557   6.817
    5AU     AUL 1601  15.584  39.872   7.032
    5AU       S 1602  15.792  40.187   6.732
    5AU     LIG 1603  15.634  40.604   6.900
    5AU     LIG 1604  15.372  41.013   6.846
    5AU       S 1605  15.315  39.687   6.662
    5AU     LIG 1606  15.076  39.840   6.310
    5AU     LIG 1607  14.928  40.244   6.106
    5AU    AUSL 1608  15.832  38.258   6.924
    5AU    AUSL 1609  15.310  38.307   7.148
    5AU     AUL 1610  15.546  38.164   6.948
    5AU       S 1611  15.085  38.284   6.915
    5AU     LIG 1612  14.880  37.956   7.101
    5AU     LIG 1613  14.810  37.550   6.886
    5AU       S 1614  15.789  37.788   7.167
    5AU     LIG 1615  15.888  37.761   6.764
    5AU     LIG 1616  16.011  37.387   6.532
    5AU    AUSL 1617  16.087  38.361   7.265
    5AU    AUSL 1618  16.167  38.489   6.831
    5AU     AUL 1619  16.155  38.111   7.032
    5AU       S 1620  15.728  37.635   7.337
    5AU     LIG 1621  16.105  37.394   7.107
    5AU     LIG 1622  16.305  36.972   6.961
    5AU       S 1623  16.319  38.336   6.649
    5AU     LIG 1624  16.346  37.870   6.538
    5AU     LIG 1625  16.696  37.667   6.326
    6AU     AUC 1626   6.188   5.623   7.503
    6AU     AUC 1627   6.489   5.664   7.337
    6AU     AUC 1628   6.459   5.642   7.673
    6AU     AUC 1629   5.902   5.607   7.332
    6AU     AUC 1630   5.905   5.607   7.686
    6AU     AUC 1631   5.997   5.869   7.522
    6AU     AUC 1632   6.336   5.900   7.506
    6AU     AUC 1633   6.028   5.340   7.502
    6AU     AUC 1634   6.388   5.384   7.493
    6AU     AUC 1635   6.220   5.453   7.776
    6AU     AUC 1636   6.168   5.782   7.786
    6AU     AUC 1637   6.212   5.467   7.224
    6AU     AUC 1638   6.205   5.802   7.232
    6AU     AUC 1639   6.799   5.692   7.188
    6AU     AUC 1640   6.832   5.682   7.508
    6AU     AUC 1641   6.763   5.648   7.872
    6AU     AUC 1642   5.606   5.587   7.156
    6AU     AUC 1643   5.567   5.622   7.523
    6AU     AUC 1644   5.615   5.595   7.870
    6AU     AUC 1645   5.823   6.167   7.507
    6AU     AUC 1646   6.166   6.233   7.498
    6AU     AUC 1647   6.480   6.219   7.519
    6AU     AUC 1648   5.853   5.023   7.502
    6AU     AUC 1649   6.199   5.062   7.501
    6AU     AUC 1650   6.592   5.107   7.470
    6AU     AUC 1651   6.231   5.234   8.062
    6AU     AUC 1652   6.185   5.557   8.106
    6AU     AUC 1653   6.180   5.936   8.073
    6AU     AUC 1654   6.216   5.277   6.932
    6AU     AUC 1655   6.211   5.622   6.915
    6AU     AUC 1656   6.225   5.979   6.936
    6AU     AUC 1657   6.515   5.405   7.972
    6AU     AUC 1658   6.485   5.771   8.015
    6AU     AUC 1659   6.504   5.485   7.020
    6AU     AUC 1660   6.526   5.846   7.014
    6AU     AUC 1661   5.893   5.398   7.991
    6AU     AUC 1662   5.891   5.755   8.000
    6AU     AUC 1663   5.874   5.412   7.043
    6AU     AUC 1664   5.878   5.781   7.022
    6AU     AUC 1665   6.689   5.960   7.362
    6AU     AUC 1666   6.628   5.927   7.715
    6AU     AUC 1667   5.708   5.890   7.310
    6AU     AUC 1668   5.687   5.910   7.701
    6AU     AUC 1669   6.705   5.380   7.312
    6AU     AUC 1670   6.710   5.354   7.640
    6AU     AUC 1671   5.678   5.319   7.342
    6AU     AUC 1672   5.705   5.320   7.675
    6AU     AUC 1673   5.986   6.099   7.798
    6AU     AUC 1674   6.321   6.106   7.814
    6AU     AUC 1675   6.001   5.118   7.778
    6AU     AUC 1676   6.410   5.135   7.801
    6AU     AUC 1677   5.998   6.060   7.179
    6AU     AUC 1678   6.391   6.107   7.184
    6AU     AUC 1679   6.000   5.140   7.216
    6AU     AUC 1680   6.389   5.169   7.176
    6AU    AUSL 1681   6.772   5.551   8.228
    6AU    AUSL 1682   6.620   5.074   8.095
    6AU     AUL 1683   6.858   5.167   8.307
    6AU       S 1684   7.037   4.792   8.101
    6AU     LIG 1685   6.884   4.663   8.468
    6AU     LIG 1686   7.122   4.452   8.808
    6AU       S 1687   7.033   5.597   8.364
    6AU     LIG 1688   7.028   5.774   8.777
    6AU     LIG 1689   7.089   5.494   9.146
    6AU    AUSL 1690   6.383   5.363   8.312
    6AU    AUSL 1691   6.046   5.687   8.389
    6AU     AUL 1692   6.252   5.533   8.641
    6AU       S 1693   6.703   5.390   8.674
    6AU     LIG 1694   6.571   5.534   9.058
    6AU     LIG 1695   6.689   5.415   9.491
    6AU       S 1696   5.536   5.480   8.709
    6AU     LIG 1697   5.677   5.812   9.021
    6AU     LIG 1698   5.648   5.900   9.498
    6AU    AUSL 1699   6.389   5.782   8.179
    6AU    AUSL 1700   6.796   5.972   8.140
    6AU     AUL 1701   6.620   5.805   8.463
    6AU       S 1702   6.234   6.037   8.630
    6AU     LIG 1703   6.604   6.039   8.909
    6AU     LIG 1704   6.838   5.917   9.286
    6AU       S 1705   6.943   6.134   8.355
    6AU     LIG 1706   7.350   6.173   8.502
    6AU     LIG 1707   7.580   6.474   8.757
    6AU    AUSL 1708   6.765   5.737   6.775
    6AU    AUSL 1709   6.644   6.173   6.845
    6AU     AUL 1710   6.781   6.021   6.508
    6AU       S 1711   6.693   5.598   6.313
    6AU     LIG 1712   6.990   5.593   5.932
    6AU     LIG 1713   7.152   5.388   5.531
    6AU       S 1714   7.005   6.285   6.813
    6AU     LIG 1715   6.829   6.532   6.523
    6AU     LIG 1716   7.017   6.881   6.300
    6AU    AUSL 1717   6.424   5.487   6.729
    6AU    AUSL 1718   6.741   5.410   7.059
    6AU     AUL 1719   6.854   5.430   6.708
    6AU       S 1720   7.000   4.949   6.641
    6AU     LIG 1721   7.270   4.690   6.360
    6AU     LIG 1722   7.522   4.450   6.031
    6AU       S 1723   6.495   5.290   6.399
    6AU     LIG 1724   6.414   5.045   5.971
    6AU     LIG 1725   6.680   5.144   5.581
    6AU    AUSL 1726   6.357   5.915   6.663
    6AU    AUSL 1727   6.046   5.357   6.614
    6AU     AUL 1728   6.229   5.668   6.425
    6AU       S 1729   5.860   5.388   6.291
    6AU     LIG 1730   5.954   5.273   5.838
    6AU     LIG 1731   5.673   5.167   5.458
    6AU       S 1732   6.717   5.308   6.252
    6AU     LIG 1733   6.484   5.532   5.871
    6AU     LIG 1734   6.699   5.665   5.468
    6AU    AUSL 1735   5.681   5.563   8.195
    6AU    AUSL 1736   5.919   6.014   8.158
    6AU     AUL 1737   5.786   5.870   8.472
    6AU       S 1738   5.438   5.559   8.418
    6AU     LIG 1739   5.230   5.853   8.759
    6AU     LIG 1740   5.218   5.713   9.237
    6AU       S 1741   5.516   6.228   8.302
    6AU     LIG 1742   5.332   6.359   8.661
    6AU     LIG 1743   5.021   6.624   8.867
    6AU    AUSL 1744   5.969   5.261   8.361
    6AU    AUSL 1745   5.542   5.181   8.056
    6AU     AUL 1746   5.643   5.147   8.349
    6AU       S 1747   5.338   4.833   8.160
    6AU     LIG 1748   4.914   4.697   8.279
    6AU     LIG 1749   4.720   4.471   8.637
    6AU       S 1750   5.775   5.427   8.686
    6AU     LIG 1751   5.914   5.368   9.105
    6AU     LIG 1752   5.672   5.389   9.512
    6AU    AUSL 1753   5.665   5.507   6.746
    6AU    AUSL 1754   5.927   5.206   6.994
    6AU     AUL 1755   5.790   5.122   6.674
    6AU       S 1756   5.491   5.432   6.455
    6AU     LIG 1757   5.161   5.438   6.097
    6AU     LIG 1758   5.210   5.403   5.617
    6AU       S 1759   5.329   4.959   6.646
    6AU     LIG 1760   5.402   4.484   6.616
    6AU     LIG 1761   5.221   4.063   6.472
    6AU    AUSL 1762   6.013   5.753   6.829
    6AU    AUSL 1763   5.568   5.877   6.925
    6AU     AUL 1764   5.771   5.797   6.552
    6AU       S 1765   5.392   6.015   6.731
    6AU     LIG 1766   5.076   6.328   6.624
    6AU     LIG 1767   4.966   6.705   6.381
    6AU       S 1768   5.609   5.266   6.234
    6AU     LIG 1769   5.597   5.624   5.915
    6AU     LIG 1770   5.630   5.686   5.444
    6AU    AUSL 1771   6.866   6.240   7.559
    6AU    AUSL 1772   6.868   5.950   7.130
    6AU     AUL 1773   7.029   6.335   7.280
    6AU       S 1774   7.125   5.991   6.957
    6AU     LIG 1775   7.237   5.847   6.558
    6AU     LIG 1776   7.228   6.253   6.327
    6AU       S 1777   7.359   6.226   7.998
    6AU     LIG 1778   7.548   6.555   7.714
    6AU     LIG 1779   7.878   6.575   7.374
    6AU    AUSL 1780   7.140   5.906   7.442
    6AU    AUSL 1781   7.142   5.518   7.688
    6AU     AUL 1782   7.450   5.704   7.545
    6AU       S 1783   7.302   6.119   7.690
    6AU     LIG 1784   7.570   6.163   7.352
    6AU     LIG 1785   8.016   6.060   7.388
    6AU       S 1786   7.405   5.223   7.560
    6AU     LIG 1787   7.718   4.917   7.691
    6AU     LIG 1788   8.184   4.958   7.631
    6AU    AUSL 1789   6.870   5.836   7.757
    6AU    AUSL 1790   6.546   6.147   7.819
    6AU     AUL 1791   6.890   6.247   7.895
    6AU       S 1792   6.922   6.449   8.333
    6AU     LIG 1793   7.342   6.682   8.337
    6AU     LIG 1794   7.725   6.986   8.435
    6AU       S 1795   7.237   5.919   7.939
    6AU     LIG 1796   7.763   5.996   7.845
    6AU     LIG 1797   8.241   6.045   7.877
    6AU    AUSL 1798   5.526   6.121   7.544
    6AU    AUSL 1799   5.548   5.895   7.961
    6AU     AUL 1800   5.266   6.237   7.815
    6AU       S 1801   5.422   5.981   8.176
    6AU     LIG 1802   5.022   6.100   8.326
    6AU     LIG 1803   4.740   6.431   8.465
    6AU       S 1804   5.473   6.527   7.503
    6AU     LIG 1805   5.018   6.416   7.412
    6AU     LIG 1806   4.590   6.570   7.391
    6AU    AUSL 1807   5.451   5.761   7.304
    6AU    AUSL 1808   5.607   6.250   7.151
    6AU     AUL 1809   5.309   6.079   7.204
    6AU       S 1810   5.157   5.640   6.955
    6AU     LIG 1811   4.860   6.003   7.010
    6AU     LIG 1812   4.499   6.078   7.291
    6AU       S 1813   5.430   6.465   6.939
    6AU     LIG 1814   5.257   6.885   6.823
    6AU     LIG 1815   4.898   7.142   6.658
    6AU    AUSL 1816   5.245   5.805   7.683
    6AU    AUSL 1817   5.241   5.413   7.405
    6AU     AUL 1818   5.055   5.734   7.404
    6AU       S 1819   5.013   5.352   7.689
    6AU     LIG 1820   4.739   5.209   7.374
    6AU     LIG 1821   4.324   5.038   7.258
    6AU       S 1822   5.035   5.839   7.894
    6AU     LIG 1823   4.766   6.073   7.722
    6AU     LIG 1824   4.348   5.920   7.782
    6AU    AUSL 1825   6.913   5.230   7.462
    6AU    AUSL 1826   6.771   5.381   7.846
    6AU     AUL 1827   7.088   5.264   7.899
    6AU       S 1828   7.205   5.079   7.473
    6AU     LIG 1829   7.290   4.678   7.407
    6AU     LIG 1830   7.611   4.396   7.575
    6AU       S 1831   7.285   4.817   7.936
    6AU     LIG 1832   7.408   4.587   8.357
    6AU     LIG 1833   7.622   4.276   8.653
    6AU    AUSL 1834   7.101   5.541   7.227
    6AU    AUSL 1835   6.812   4.964   7.154
    6AU     AUL 1836   7.052   5.214   7.060
    6AU       S 1837   7.427   5.290   7.315
    6AU     LIG 1838   7.701   4.922   7.190
    6AU     LIG 1839   8.149   4.722   7.169
    6AU       S 1840   6.937   4.790   6.885
    6AU     LIG 1841   7.093   4.397   6.741
    6AU     LIG 1842   7.272   4.150   6.382
    6AU    AUSL 1843   5.599   5.167   7.488
    6AU    AUSL 1844   5.506   5.327   7.086
    6AU     AUL 1845   5.238   5.099   7.307
    6AU       S 1846   5.334   5.179   6.858
    6AU     LIG 1847   4.922   4.968   6.938
    6AU     LIG 1848   4.895   4.575   6.713
    6AU       S 1849   5.013   5.244   8.014
    6AU     LIG 1850   4.873   4.872   7.763
    6AU     LIG 1851   4.547   4.636   7.523
    6AU    AUSL 1852   5.471   5.466   7.768
    6AU    AUSL 1853   5.661   4.874   7.776
    6AU     AUL 1854   5.366   5.040   7.744
    6AU       S 1855   5.499   4.620   7.907
    6AU     LIG 1856   5.081   4.413   7.899
    6AU     LIG 1857   4.840   4.157   8.235
    6AU       S 1858   5.111   5.387   7.902
    6AU     LIG 1859   4.558   5.370   7.839
    6AU     LIG 1860   4.247   5.005   7.766
    6AU    AUSL 1861   6.149   6.317   7.958
    6AU    AUSL 1862   5.723   6.284   7.883
    6AU     AUL 1863   5.968   6.341   8.260
    6AU       S 1864   5.605   6.494   8.011
    6AU     LIG 1865   5.174   6.587   8.197
    6AU     LIG 1866   4.938   6.913   8.446
    6AU       S 1867   6.097   6.721   8.002
    6AU     LIG 1868   6.419   6.949   8.231
    6AU     LIG 1869   6.484   7.404   8.311
    6AU    AUSL 1870   5.957   6.504   7.609
    6AU    AUSL 1871   6.299   6.553   7.274
    6AU     AUL 1872   5.991   6.779   7.384
    6AU       S 1873   6.092   6.968   7.834
    6AU     LIG 1874   6.087   7.447   7.946
    6AU     LIG 1875   6.196   7.835   8.218
    6AU       S 1876   6.247   6.774   6.979
    6AU     LIG 1877   6.450   7.074   7.174
    6AU     LIG 1878   6.806   7.314   6.988
    6AU    AUSL 1879   6.415   6.513   7.676
    6AU    AUSL 1880   6.431   6.191   8.242
    6AU     AUL 1881   6.503   6.472   8.040
    6AU       S 1882   6.665   6.303   8.474
    6AU     LIG 1883   7.026   6.451   8.808
    6AU     LIG 1884   7.294   6.882   8.847
    6AU       S 1885   6.344   6.799   7.728
    6AU     LIG 1886   6.528   7.230   7.807
    6AU     LIG 1887   6.558   7.689   7.875
    6AU    AUSL 1888   6.244   4.886   8.114
    6AU    AUSL 1889   6.799   4.918   7.721
    6AU     AUL 1890   6.570   4.708   8.022
    6AU       S 1891   5.916   4.339   8.120
    6AU     LIG 1892   5.857   3.921   8.249
    6AU     LIG 1893   6.026   3.479   8.167
    6AU       S 1894   6.995   4.779   7.800
    6AU     LIG 1895   7.192   4.337   7.884
    6AU     LIG 1896   7.480   4.111   8.169
    6AU    AUSL 1897   6.051   4.736   7.749
    6AU    AUSL 1898   5.967   5.151   7.957
    6AU     AUL 1899   5.892   4.821   8.108
    6AU       S 1900   5.974   4.446   7.841
    6AU     LIG 1901   5.622   4.151   7.776
    6AU     LIG 1902   5.699   3.725   7.794
    6AU       S 1903   5.463   4.603   8.185
    6AU     LIG 1904   5.370   4.193   8.267
    6AU     LIG 1905   5.129   4.117   8.659
    6AU    AUSL 1906   6.393   4.974   7.689
    6AU    AUSL 1907   6.020   4.835   7.341
    6AU     AUL 1908   6.329   4.615   7.550
    6AU       S 1909   5.857   4.513   7.365
    6AU     LIG 1910   5.521   4.173   7.281
    6AU     LIG 1911   5.458   3.794   7.006
    6AU       S 1912   6.188   4.361   8.036
    6AU     LIG 1913   6.172   3.956   7.844
    6AU     LIG 1914   6.465   3.602   7.913
    6AU    AUSL 1915   6.252   6.283   6.946
    6AU    AUSL 1916   6.559   6.217   7.277
    6AU     AUL 1917   6.614   6.490   7.049
    6AU       S 1918   6.269   6.507   6.719
    6AU     LIG 1919   6.568   6.937   6.658
    6AU     LIG 1920   6.375   7.360   6.723
    6AU       S 1921   7.298   6.234   6.873
    6AU     LIG 1922   7.307   6.678   6.695
    6AU     LIG 1923   7.435   7.125   6.564
    6AU    AUSL 1924   5.997   6.238   7.295
    6AU    AUSL 1925   5.879   6.157   6.820
    6AU     AUL 1926   5.889   6.470   7.025
    6AU       S 1927   6.089   6.800   6.727
    6AU     LIG 1928   5.961   7.182   7.001
    6AU     LIG 1929   6.067   7.643   7.031
    6AU       S 1930   5.623   6.279   6.660
    6AU     LIG 1931   5.487   6.644   6.431
    6AU     LIG 1932   5.316   7.081   6.332
    6AU    AUSL 1933   6.177   4.878   6.927
    6AU    AUSL 1934   5.646   4.912   7.156
    6AU     AUL 1935   5.887   4.766   6.963
    6AU       S 1936   5.428   4.888   6.915
    6AU     LIG 1937   5.242   4.582   7.128
    6AU     LIG 1938   5.126   4.187   6.958
    6AU       S 1939   6.105   4.373   7.177
    6AU     LIG 1940   5.797   4.266   6.869
    6AU     LIG 1941   5.709   3.937   6.563
    6AU    AUSL 1942   6.417   4.986   7.275
    6AU    AUSL 1943   6.525   5.098   6.849
    6AU     AUL 1944   6.494   4.728   7.049
    6AU       S 1945   6.005   4.240   7.396
    6AU     LIG 1946   6.365   3.948   7.365
    6AU     LIG 1947   6.627   3.602   7.178
    6AU       S 1948   6.706   4.955   6.678
    6AU     LIG 1949   6.761   4.768   6.245
    6AU     LIG 1950   6.998   4.439   5.988
    7AU     AUC 1951  22.560  13.598   7.491
    7AU     AUC 1952  22.861  13.634   7.326
    7AU     AUC 1953  22.835  13.615   7.662
    7AU     AUC 1954  22.273  13.585   7.318
    7AU     AUC 1955  22.292  13.592   7.677
    7AU     AUC 1956  22.370  13.843   7.515
    7AU     AUC 1957  22.715  13.873   7.496
    7AU     AUC 1958  22.383  13.315   7.487
    7AU     AUC 1959  22.749  13.357   7.481
    7AU     AUC 1960  22.587  13.428   7.767
    7AU     AUC 1961  22.547  13.762   7.774
    7AU     AUC 1962  22.579  13.446   7.210
    7AU     AUC 1963  22.578  13.776   7.220
    7AU     AUC 1964  23.174  13.655   7.178
    7AU     AUC 1965  23.206  13.642   7.495
    7AU     AUC 1966  23.140  13.612   7.856
    7AU     AUC 1967  21.979  13.572   7.146
    7AU     AUC 1968  21.946  13.585   7.507
    7AU     AUC 1969  21.991  13.573   7.868
    7AU     AUC 1970  22.192  14.146   7.504
    7AU     AUC 1971  22.546  14.210   7.485
    7AU     AUC 1972  22.865  14.189   7.503
    7AU     AUC 1973  22.204  13.005   7.484
    7AU     AUC 1974  22.546  13.043   7.484
    7AU     AUC 1975  22.942  13.074   7.459
    7AU     AUC 1976  22.592  13.218   8.059
    7AU     AUC 1977  22.569  13.543   8.102
    7AU     AUC 1978  22.566  13.922   8.061
    7AU     AUC 1979  22.584  13.258   6.909
    7AU     AUC 1980  22.582  13.608   6.899
    7AU     AUC 1981  22.599  13.957   6.926
    7AU     AUC 1982  22.884  13.376   7.961
    7AU     AUC 1983  22.867  13.748   7.997
    7AU     AUC 1984  22.872  13.455   7.010
    7AU     AUC 1985  22.904  13.817   7.005
    7AU     AUC 1986  22.262  13.395   7.994
    7AU     AUC 1987  22.279  13.741   7.997
    7AU     AUC 1988  22.250  13.405   7.017
    7AU     AUC 1989  22.248  13.770   7.014
    7AU     AUC 1990  23.070  13.925   7.349
    7AU     AUC 1991  23.013  13.900   7.702
    7AU     AUC 1992  22.075  13.874   7.313
    7AU     AUC 1993  22.063  13.883   7.695
    7AU     AUC 1994  23.067  13.344   7.301
    7AU     AUC 1995  23.070  13.318   7.630
    7AU     AUC 1996  22.051  13.283   7.306
    7AU     AUC 1997  22.074  13.292   7.650
    7AU     AUC 1998  22.369  14.081   7.785
    7AU     AUC 1999  22.704  14.083   7.796
    7AU     AUC 2000  22.349  13.108   7.777
    7AU     AUC 2001  22.757  13.111   7.790
    7AU     AUC 2002  22.371  14.038   7.179
    7AU     AUC 2003  22.770  14.076   7.173
    7AU     AUC 2004  22.360  13.120   7.186
    7AU     AUC 2005  22.747  13.140   7.161
    7AU    AUSL 2006  23.159  13.530   8.206
    7AU    AUSL 2007  22.965  13.036   8.087
    7AU     AUL 2008  23.228  13.146   8.282
    7AU       S 2009  23.349  12.731   8.112
    7AU     LIG 2010  23.247  12.389   8.412
    7AU     LIG 2011  23.353  12.132   8.798
    7AU       S 2012  23.419  13.571   8.355
    7AU     LIG 2013  23.410  13.742   8.775
    7AU     LIG 2014  23.464  13.489   9.166
    7AU    AUSL 2015  22.768  13.351   8.306
    7AU    AUSL 2016  22.446  13.682   8.388
    7AU     AUL 2017  22.648  13.529   8.642
    7AU       S 2018  23.094  13.371   8.658
    7AU     LIG 2019  22.951  13.437   9.066
    7AU     LIG 2020  23.075  13.336   9.498
    7AU       S 2021  21.928  13.483   8.708
    7AU     LIG 2022  22.074  13.829   8.980
    7AU     LIG 2023  22.081  13.782   9.445
    7AU    AUSL 2024  22.778  13.763   8.157
    7AU    AUSL 2025  23.182  13.951   8.123
    7AU     AUL 2026  23.007  13.784   8.442
    7AU       S 2027  22.633  14.033   8.625
    7AU     LIG 2028  22.950  13.934   8.915
    7AU     LIG 2029  23.142  13.853   9.323
    7AU       S 2030  23.325  14.113   8.332
    7AU     LIG 2031  23.759  14.070   8.359
    7AU     LIG 2032  24.188  14.290   8.417
    7AU    AUSL 2033  23.139  13.698   6.772
    7AU    AUSL 2034  23.025  14.145   6.835
    7AU     AUL 2035  23.190  13.973   6.517
    7AU       S 2036  23.067  13.574   6.310
    7AU     LIG 2037  23.368  13.547   5.936
    7AU     LIG 2038  23.583  13.427   5.525
    7AU       S 2039  23.366  14.280   6.804
    7AU     LIG 2040  23.204  14.594   6.598
    7AU     LIG 2041  23.358  15.015   6.501
    7AU    AUSL 2042  22.790  13.457   6.725
    7AU    AUSL 2043  23.105  13.370   7.051
    7AU     AUL 2044  23.222  13.390   6.702
    7AU       S 2045  23.361  12.919   6.624
    7AU     LIG 2046  23.713  12.641   6.514
    7AU     LIG 2047  24.061  12.322   6.447
    7AU       S 2048  22.851  13.265   6.400
    7AU     LIG 2049  22.818  13.032   5.962
    7AU     LIG 2050  23.126  13.167   5.630
    7AU    AUSL 2051  22.744  13.884   6.649
    7AU    AUSL 2052  22.409  13.374   6.578
    7AU     AUL 2053  22.608  13.663   6.410
    7AU       S 2054  22.223  13.413   6.271
    7AU     LIG 2055  22.373  13.348   5.852
    7AU     LIG 2056  22.119  13.449   5.466
    7AU       S 2057  23.017  13.356   6.253
    7AU     LIG 2058  22.856  13.553   5.856
    7AU     LIG 2059  23.119  13.686   5.482
    7AU    AUSL 2060  22.078  13.560   8.208
    7AU    AUSL 2061  22.311  14.007   8.153
    7AU     AUL 2062  22.200  13.862   8.480
    7AU       S 2063  21.835  13.567   8.441
    7AU     LIG 2064  21.600  13.832   8.768
    7AU     LIG 2065  21.656  13.602   9.189
    7AU       S 2066  21.921  14.205   8.292
    7AU     LIG 2067  21.785  14.314   8.680
    7AU     LIG 2068  21.611  14.651   8.960
    7AU    AUSL 2069  22.357  13.253   8.378
    7AU    AUSL 2070  21.861  13.225   8.067
    7AU     AUL 2071  22.023  13.149   8.353
    7AU       S 2072  21.599  13.002   8.184
    7AU     LIG 2073  21.217  12.746   8.226
    7AU     LIG 2074  21.080  12.352   8.470
    7AU       S 2075  22.174  13.419   8.694
    7AU     LIG 2076  22.156  13.347   9.150
    7AU     LIG 2077  21.921  13.267   9.543
    7AU    AUSL 2078  22.033  13.512   6.730
    7AU    AUSL 2079  22.308  13.201   6.952
    7AU     AUL 2080  22.157  13.131   6.635
    7AU       S 2081  21.854  13.458   6.454
    7AU     LIG 2082  21.612  13.709   6.140
    7AU     LIG 2083  21.629  13.679   5.655
    7AU       S 2084  21.696  12.976   6.616
    7AU     LIG 2085  21.730  12.504   6.575
    7AU     LIG 2086  21.499  12.158   6.395
    7AU    AUSL 2087  22.383  13.758   6.813
    7AU    AUSL 2088  21.939  13.868   6.933
    7AU     AUL 2089  22.146  13.811   6.543
    7AU       S 2090  21.759  13.998   6.727
    7AU     LIG 2091  21.391  14.261   6.712
    7AU     LIG 2092  21.114  14.562   6.484
    7AU       S 2093  21.971  13.357   6.201
    7AU     LIG 2094  22.070  13.755   5.925
    7AU     LIG 2095  22.037  13.969   5.490
    7AU    AUSL 2096  23.257  14.197   7.540
    7AU    AUSL 2097  23.249  13.920   7.120
    7AU     AUL 2098  23.412  14.301   7.266
    7AU       S 2099  23.499  13.961   6.942
    7AU     LIG 2100  23.940  13.821   6.902
    7AU     LIG 2101  24.242  13.950   6.557
    7AU       S 2102  23.774  14.139   7.814
    7AU     LIG 2103  23.816  14.563   7.604
    7AU     LIG 2104  23.953  14.904   7.294
    7AU    AUSL 2105  23.525  13.856   7.425
    7AU    AUSL 2106  23.506  13.464   7.671
    7AU     AUL 2107  23.836  13.634   7.557
    7AU       S 2108  23.700  14.068   7.604
    7AU     LIG 2109  23.910  14.225   7.223
    7AU     LIG 2110  24.268  14.518   7.120
    7AU       S 2111  23.743  13.171   7.497
    7AU     LIG 2112  24.012  13.141   7.798
    7AU     LIG 2113  24.461  13.027   7.773
    7AU    AUSL 2114  23.255  13.798   7.745
    7AU    AUSL 2115  22.936  14.122   7.802
    7AU     AUL 2116  23.296  14.212   7.872
    7AU       S 2117  23.285  14.414   8.338
    7AU     LIG 2118  23.660  14.517   8.120
    7AU     LIG 2119  24.075  14.713   8.119
    7AU       S 2120  23.616  13.865   7.918
    7AU     LIG 2121  24.130  13.905   8.033
    7AU     LIG 2122  24.367  14.325   7.942
    7AU    AUSL 2123  21.859  14.094   7.554
    7AU    AUSL 2124  21.948  13.869   7.950
    7AU     AUL 2125  21.618  14.165   7.849
    7AU       S 2126  21.835  13.988   8.211
    7AU     LIG 2127  21.428  14.084   8.344
    7AU     LIG 2128  21.270  14.384   8.651
    7AU       S 2129  21.769  14.463   7.517
    7AU     LIG 2130  21.309  14.258   7.467
    7AU     LIG 2131  20.880  14.423   7.511
    7AU    AUSL 2132  21.818  13.741   7.310
    7AU    AUSL 2133  21.985  14.232   7.175
    7AU     AUL 2134  21.675  14.066   7.194
    7AU       S 2135  21.523  13.636   6.970
    7AU     LIG 2136  21.183  13.934   7.038
    7AU     LIG 2137  20.802  14.233   7.034
    7AU       S 2138  21.803  14.450   6.938
    7AU     LIG 2139  21.612  14.718   6.602
    7AU     LIG 2140  21.307  15.036   6.413
    7AU    AUSL 2141  21.626  13.737   7.712
    7AU    AUSL 2142  21.611  13.382   7.378
    7AU     AUL 2143  21.443  13.737   7.431
    7AU       S 2144  21.344  13.313   7.593
    7AU     LIG 2145  21.136  13.398   7.193
    7AU     LIG 2146  20.746  13.191   7.056
    7AU       S 2147  21.505  13.703   8.005
    7AU     LIG 2148  21.090  13.747   7.846
    7AU     LIG 2149  20.716  14.047   7.879
    7AU    AUSL 2150  23.263  13.186   7.449
    7AU    AUSL 2151  23.133  13.337   7.837
    7AU     AUL 2152  23.456  13.202   7.869
    7AU       S 2153  23.572  12.992   7.456
    7AU     LIG 2154  23.931  12.675   7.539
    7AU     LIG 2155  24.375  12.484   7.495
    7AU       S 2156  23.601  12.734   7.925
    7AU     LIG 2157  23.763  12.493   8.290
    7AU     LIG 2158  23.821  12.347   8.721
    7AU    AUSL 2159  23.469  13.491   7.215
    7AU    AUSL 2160  23.164  12.918   7.143
    7AU     AUL 2161  23.407  13.160   7.056
    7AU       S 2162  23.797  13.258   7.277
    7AU     LIG 2163  24.218  13.050   7.319
    7AU     LIG 2164  24.634  12.857   7.222
    7AU       S 2165  23.293  12.737   6.862
    7AU     LIG 2166  23.472  12.299   6.808
    7AU     LIG 2167  23.851  12.016   6.809
    7AU    AUSL 2168  21.944  13.081   7.447
    7AU    AUSL 2169  21.894  13.319   7.072
    7AU     AUL 2170  21.609  13.060   7.273
    7AU       S 2171  21.701  13.189   6.837
    7AU     LIG 2172  21.276  13.020   6.873
    7AU     LIG 2173  21.219  12.635   6.624
    7AU       S 2174  21.246  13.110   7.634
    7AU     LIG 2175  21.072  12.891   7.330
    7AU     LIG 2176  20.662  12.701   7.262
    7AU    AUSL 2177  21.888  13.417   7.705
    7AU    AUSL 2178  21.997  12.899   7.820
    7AU     AUL 2179  21.720  13.038   7.733
    7AU       S 2180  21.765  12.691   8.041
    7AU     LIG 2181  21.485  12.310   8.119
    7AU     LIG 2182  21.397  11.945   8.393
    7AU       S 2183  21.367  13.318   7.793
    7AU     LIG 2184  20.965  13.221   8.011
    7AU     LIG 2185  20.682  12.937   7.747
    7AU    AUSL 2186  22.536  14.302   7.936
    7AU    AUSL 2187  22.108  14.257   7.859
    7AU     AUL 2188  22.359  14.345   8.230
    7AU       S 2189  21.981  14.439   7.976
    7AU     LIG 2190  21.588  14.559   8.205
    7AU     LIG 2191  21.426  14.861   8.513
    7AU       S 2192  22.511  14.715   7.973
    7AU     LIG 2193  22.748  14.956   8.286
    7AU     LIG 2194  22.713  15.395   8.478
    7AU    AUSL 2195  22.333  14.496   7.593
    7AU    AUSL 2196  22.682  14.525   7.249
    7AU     AUL 2197  22.399  14.774   7.362
    7AU       S 2198  22.568  14.936   7.799
    7AU     LIG 2199  22.461  15.300   8.032
    7AU     LIG 2200  22.607  15.715   8.068
    7AU       S 2201  22.625  14.731   6.933
    7AU     LIG 2202  22.822  15.080   7.064
    7AU     LIG 2203  23.031  15.413   6.820
    7AU    AUSL 2204  22.803  14.484   7.649
    7AU    AUSL 2205  22.814  14.171   8.223
    7AU     AUL 2206  22.902  14.445   8.015
    7AU       S 2207  23.030  14.276   8.457
    7AU     LIG 2208  23.359  14.260   8.805
    7AU     LIG 2209  23.757  14.476   8.669
    7AU       S 2210  22.761  14.750   7.686
    7AU     LIG 2211  23.075  14.989   7.890
    7AU     LIG 2212  23.065  15.414   8.090
    7AU    AUSL 2213  22.576  12.871   8.090
    7AU    AUSL 2214  23.137  12.880   7.712
    7AU     AUL 2215  22.890  12.669   8.004
    7AU       S 2216  22.442  12.358   8.067
    7AU     LIG 2217  22.280  12.041   8.390
    7AU     LIG 2218  22.476  11.635   8.565
    7AU       S 2219  23.326  12.713   7.788
    7AU     LIG 2220  23.442  12.245   7.960
    7AU     LIG 2221  23.607  11.998   8.354
    7AU    AUSL 2222  22.370  12.736   7.726
    7AU    AUSL 2223  22.306  13.167   7.974
    7AU     AUL 2224  22.230  12.805   8.105
    7AU       S 2225  22.276  12.450   7.797
    7AU     LIG 2226  21.966  12.183   7.978
    7AU     LIG 2227  21.866  11.791   8.204
    7AU       S 2228  21.728  12.758   8.292
    7AU     LIG 2229  21.885  12.370   8.446
    7AU     LIG 2230  21.828  11.982   8.683
    7AU    AUSL 2231  22.733  12.948   7.674
    7AU    AUSL 2232  22.368  12.817   7.314
    7AU     AUL 2233  22.664  12.596   7.536
    7AU       S 2234  22.234  12.519   7.310
    7AU     LIG 2235  21.962  12.301   7.012
    7AU     LIG 2236  21.961  11.821   7.051
    7AU       S 2237  22.486  12.226   7.831
    7AU     LIG 2238  22.625  11.859   8.084
    7AU     LIG 2239  22.794  11.443   8.219
    7AU    AUSL 2240  22.628  14.238   6.938
    7AU    AUSL 2241  22.940  14.188   7.268
    7AU     AUL 2242  22.989  14.460   7.044
    7AU       S 2243  22.641  14.464   6.709
    7AU     LIG 2244  22.839  14.949   6.554
    7AU     LIG 2245  22.615  15.366   6.530
    7AU       S 2246  23.608  14.181   6.793
    7AU     LIG 2247  23.717  14.620   6.930
    7AU     LIG 2248  23.910  15.033   6.790
    7AU    AUSL 2249  22.382  14.212   7.296
    7AU    AUSL 2250  22.238  14.159   6.826
    7AU     AUL 2251  22.262  14.450   7.039
    7AU       S 2252  22.428  14.708   6.671
    7AU     LIG 2253  22.327  15.124   6.903
    7AU     LIG 2254  22.497  15.547   7.011
    7AU       S 2255  21.983  14.277   6.675
    7AU     LIG 2256  21.716  14.298   6.306
    7AU     LIG 2257  21.466  14.636   6.092
    7AU    AUSL 2258  22.537  12.853   6.909
    7AU    AUSL 2259  22.022  12.899   7.080
    7AU     AUL 2260  22.258  12.758   6.906
    7AU       S 2261  21.797  12.891   6.870
    7AU     LIG 2262  21.520  12.595   7.050
    7AU     LIG 2263  21.333  12.197   6.887
    7AU       S 2264  22.468  12.358   7.126
    7AU     LIG 2265  22.384  12.011   6.814
    7AU     LIG 2266  22.510  11.673   6.493
    7AU    AUSL 2267  22.770  12.962   7.261
    7AU    AUSL 2268  22.891  13.064   6.834
    7AU     AUL 2269  22.848  12.698   7.036
    7AU       S 2270  22.346  12.241   7.336
    7AU     LIG 2271  22.588  11.842   7.253
    7AU     LIG 2272  22.852  11.626   6.909
    7AU       S 2273  23.068  12.909   6.658
    7AU     LIG 2274  23.204  12.509   6.396
    7AU     LIG 2275  23.556  12.192   6.293
    8AU     AUC 2276  22.176  26.475   7.507
    8AU     AUC 2277  22.476  26.511   7.339
    8AU     AUC 2278  22.454  26.488   7.676
    8AU     AUC 2279  21.887  26.461   7.342
    8AU     AUC 2280  21.883  26.460   7.694
    8AU     AUC 2281  21.988  26.723   7.527
    8AU     AUC 2282  22.329  26.750   7.511
    8AU     AUC 2283  22.017  26.193   7.508
    8AU     AUC 2284  22.377  26.234   7.494
    8AU     AUC 2285  22.210  26.307   7.775
    8AU     AUC 2286  22.159  26.632   7.790
    8AU     AUC 2287  22.194  26.316   7.228
    8AU     AUC 2288  22.193  26.653   7.237
    8AU     AUC 2289  22.783  26.537   7.183
    8AU     AUC 2290  22.823  26.526   7.504
    8AU     AUC 2291  22.758  26.488   7.871
    8AU     AUC 2292  21.589  26.445   7.166
    8AU     AUC 2293  21.547  26.494   7.539
    8AU     AUC 2294  21.600  26.446   7.868
    8AU     AUC 2295  21.820  27.024   7.513
    8AU     AUC 2296  22.162  27.083   7.503
    8AU     AUC 2297  22.478  27.064   7.523
    8AU     AUC 2298  21.844  25.880   7.511
    8AU     AUC 2299  22.192  25.910   7.504
    8AU     AUC 2300  22.581  25.954   7.467
    8AU     AUC 2301  22.222  26.081   8.061
    8AU     AUC 2302  22.171  26.403   8.103
    8AU     AUC 2303  22.171  26.783   8.076
    8AU     AUC 2304  22.193  26.125   6.940
    8AU     AUC 2305  22.190  26.470   6.922
    8AU     AUC 2306  22.210  26.829   6.942
    8AU     AUC 2307  22.507  26.250   7.972
    8AU     AUC 2308  22.479  26.614   8.019
    8AU     AUC 2309  22.484  26.334   7.019
    8AU     AUC 2310  22.509  26.695   7.016
    8AU     AUC 2311  21.878  26.245   7.988
    8AU     AUC 2312  21.878  26.607   8.003
    8AU     AUC 2313  21.853  26.260   7.057
    8AU     AUC 2314  21.862  26.634   7.029
    8AU     AUC 2315  22.681  26.804   7.364
    8AU     AUC 2316  22.626  26.771   7.719
    8AU     AUC 2317  21.698  26.751   7.313
    8AU     AUC 2318  21.680  26.770   7.708
    8AU     AUC 2319  22.690  26.228   7.306
    8AU     AUC 2320  22.702  26.200   7.638
    8AU     AUC 2321  21.661  26.181   7.360
    8AU     AUC 2322  21.687  26.177   7.692
    8AU     AUC 2323  21.981  26.951   7.805
    8AU     AUC 2324  22.319  26.950   7.818
    8AU     AUC 2325  21.994  25.967   7.777
    8AU     AUC 2326  22.409  25.985   7.802
    8AU     AUC 2327  21.989  26.914   7.184
    8AU     AUC 2328  22.381  26.956   7.188
    8AU     AUC 2329  21.985  25.990   7.232
    8AU     AUC 2330  22.372  26.017   7.176
    8AU    AUSL 2331  22.758  26.383   8.231
    8AU    AUSL 2332  22.620  25.925   8.098
    8AU     AUL 2333  22.899  25.988   8.295
    8AU       S 2334  23.051  25.615   8.071
    8AU     LIG 2335  22.955  25.439   8.450
    8AU     LIG 2336  23.007  25.021   8.651
    8AU       S 2337  23.002  26.428   8.361
    8AU     LIG 2338  23.020  26.621   8.753
    8AU     LIG 2339  23.135  26.391   9.135
    8AU    AUSL 2340  22.358  26.202   8.304
    8AU    AUSL 2341  22.025  26.526   8.377
    8AU     AUL 2342  22.204  26.390   8.643
    8AU       S 2343  22.587  26.138   8.589
    8AU     LIG 2344  22.628  26.353   8.955
    8AU     LIG 2345  22.700  26.250   9.397
    8AU       S 2346  21.503  26.316   8.695
    8AU     LIG 2347  21.692  26.662   8.979
    8AU     LIG 2348  21.671  26.708   9.451
    8AU    AUSL 2349  22.378  26.623   8.185
    8AU    AUSL 2350  22.787  26.803   8.146
    8AU     AUL 2351  22.595  26.624   8.475
    8AU       S 2352  22.206  26.881   8.621
    8AU     LIG 2353  22.546  26.861   8.911
    8AU     LIG 2354  22.802  26.755   9.257
    8AU       S 2355  22.911  26.956   8.360
    8AU     LIG 2356  23.326  26.933   8.382
    8AU     LIG 2357  23.709  27.179   8.265
    8AU    AUSL 2358  22.742  26.586   6.767
    8AU    AUSL 2359  22.629  27.020   6.845
    8AU     AUL 2360  22.750  26.883   6.502
    8AU       S 2361  22.662  26.459   6.317
    8AU     LIG 2362  22.895  26.532   5.920
    8AU     LIG 2363  23.056  26.364   5.516
    8AU       S 2364  22.997  27.120   6.810
    8AU     LIG 2365  22.854  27.387   6.549
    8AU     LIG 2366  23.086  27.652   6.270
    8AU    AUSL 2367  22.398  26.338   6.729
    8AU    AUSL 2368  22.721  26.259   7.051
    8AU     AUL 2369  22.830  26.276   6.702
    8AU       S 2370  22.981  25.797   6.619
    8AU     LIG 2371  23.311  25.512   6.416
    8AU     LIG 2372  23.589  25.250   6.112
    8AU       S 2373  22.468  26.143   6.403
    8AU     LIG 2374  22.399  25.887   5.998
    8AU     LIG 2375  22.673  26.032   5.647
    8AU    AUSL 2376  22.332  26.768   6.670
    8AU    AUSL 2377  22.018  26.198   6.631
    8AU     AUL 2378  22.199  26.518   6.431
    8AU       S 2379  21.842  26.223   6.317
    8AU     LIG 2380  21.950  26.121   5.873
    8AU     LIG 2381  21.644  26.114   5.530
    8AU       S 2382  22.693  26.188   6.240
    8AU     LIG 2383  22.398  26.390   5.904
    8AU     LIG 2384  22.540  26.505   5.468
    8AU    AUSL 2385  21.654  26.407   8.194
    8AU    AUSL 2386  21.912  26.877   8.176
    8AU     AUL 2387  21.769  26.705   8.475
    8AU       S 2388  21.421  26.402   8.389
    8AU     LIG 2389  21.249  26.726   8.713
    8AU     LIG 2390  21.235  26.556   9.187
    8AU       S 2391  21.526  27.090   8.318
    8AU     LIG 2392  21.420  27.417   8.599
    8AU     LIG 2393  21.275  27.835   8.789
    8AU    AUSL 2394  21.943  26.101   8.351
    8AU    AUSL 2395  21.556  26.016   8.042
    8AU     AUL 2396  21.613  25.980   8.336
    8AU       S 2397  21.396  25.601   8.133
    8AU     LIG 2398  21.009  25.459   8.324
    8AU     LIG 2399  20.638  25.228   8.520
    8AU       S 2400  21.743  26.260   8.673
    8AU     LIG 2401  21.818  26.191   9.116
    8AU     LIG 2402  21.565  26.201   9.514
    8AU    AUSL 2403  21.641  26.356   6.767
    8AU    AUSL 2404  21.900  26.047   7.013
    8AU     AUL 2405  21.750  25.965   6.696
    8AU       S 2406  21.458  26.278   6.487
    8AU     LIG 2407  21.180  26.397   6.106
    8AU     LIG 2408  21.229  26.426   5.630
    8AU       S 2409  21.311  25.746   6.743
    8AU     LIG 2410  21.512  25.309   6.695
    8AU     LIG 2411  21.418  24.861   6.493
    8AU    AUSL 2412  21.993  26.598   6.839
    8AU    AUSL 2413  21.549  26.739   6.920
    8AU     AUL 2414  21.744  26.643   6.561
    8AU       S 2415  21.372  26.890   6.723
    8AU     LIG 2416  21.128  27.268   6.529
    8AU     LIG 2417  20.800  27.628   6.445
    8AU       S 2418  21.592  26.153   6.251
    8AU     LIG 2419  21.649  26.521   5.944
    8AU     LIG 2420  21.688  26.636   5.483
    8AU    AUSL 2421  22.864  27.081   7.561
    8AU    AUSL 2422  22.853  26.790   7.125
    8AU     AUL 2423  23.023  27.175   7.275
    8AU       S 2424  23.110  26.828   6.949
    8AU     LIG 2425  23.199  26.685   6.538
    8AU     LIG 2426  23.218  27.098   6.319
    8AU       S 2427  23.375  27.035   7.880
    8AU     LIG 2428  23.387  27.428   7.640
    8AU     LIG 2429  23.654  27.771   7.463
    8AU    AUSL 2430  23.130  26.744   7.432
    8AU    AUSL 2431  23.136  26.353   7.668
    8AU     AUL 2432  23.447  26.533   7.516
    8AU       S 2433  23.297  26.937   7.670
    8AU     LIG 2434  23.538  27.033   7.318
    8AU     LIG 2435  23.936  27.178   7.131
    8AU       S 2436  23.377  26.060   7.514
    8AU     LIG 2437  23.651  25.916   7.817
    8AU     LIG 2438  24.102  25.787   7.769
    8AU    AUSL 2439  22.873  26.678   7.760
    8AU    AUSL 2440  22.548  26.989   7.824
    8AU     AUL 2441  22.896  27.085   7.905
    8AU       S 2442  22.889  27.266   8.365
    8AU     LIG 2443  23.262  27.432   8.166
    8AU     LIG 2444  23.655  27.718   8.209
    8AU       S 2445  23.219  26.736   7.930
    8AU     LIG 2446  23.704  26.694   7.950
    8AU     LIG 2447  23.988  27.068   7.837
    8AU    AUSL 2448  21.526  26.994   7.547
    8AU    AUSL 2449  21.548  26.754   7.967
    8AU     AUL 2450  21.271  27.107   7.825
    8AU       S 2451  21.413  26.852   8.193
    8AU     LIG 2452  21.037  27.147   8.274
    8AU     LIG 2453  20.914  27.534   8.528
    8AU       S 2454  21.478  27.391   7.505
    8AU     LIG 2455  21.015  27.294   7.433
    8AU     LIG 2456  20.609  27.409   7.260
    8AU    AUSL 2457  21.450  26.632   7.307
    8AU    AUSL 2458  21.604  27.108   7.150
    8AU     AUL 2459  21.302  26.951   7.203
    8AU       S 2460  21.141  26.504   6.968
    8AU     LIG 2461  20.812  26.876   7.059
    8AU     LIG 2462  20.375  27.039   7.003
    8AU       S 2463  21.423  27.333   6.937
    8AU     LIG 2464  21.178  27.717   6.788
    8AU     LIG 2465  20.974  28.120   6.604
    8AU    AUSL 2466  21.245  26.682   7.683
    8AU    AUSL 2467  21.224  26.296   7.414
    8AU     AUL 2468  21.049  26.622   7.415
    8AU       S 2469  20.952  26.223   7.647
    8AU     LIG 2470  20.606  26.295   7.355
    8AU     LIG 2471  20.176  26.089   7.257
    8AU       S 2472  21.050  26.695   7.912
    8AU     LIG 2473  20.795  26.959   7.781
    8AU     LIG 2474  20.561  27.311   7.771
    8AU    AUSL 2475  22.888  26.073   7.451
    8AU    AUSL 2476  22.773  26.226   7.844
    8AU     AUL 2477  23.092  26.091   7.878
    8AU       S 2478  23.183  25.901   7.454
    8AU     LIG 2479  23.265  25.513   7.305
    8AU     LIG 2480  23.626  25.203   7.395
    8AU       S 2481  23.267  25.582   7.843
    8AU     LIG 2482  23.496  25.515   8.248
    8AU     LIG 2483  23.435  25.307   8.657
    8AU    AUSL 2484  23.086  26.380   7.215
    8AU    AUSL 2485  22.797  25.811   7.138
    8AU     AUL 2486  23.034  26.060   7.049
    8AU       S 2487  23.420  26.109   7.295
    8AU     LIG 2488  23.747  25.733   7.346
    8AU     LIG 2489  24.213  25.584   7.302
    8AU       S 2490  22.926  25.630   6.877
    8AU     LIG 2491  23.188  25.246   6.845
    8AU     LIG 2492  23.347  24.981   6.490
    8AU    AUSL 2493  21.576  26.056   7.523
    8AU    AUSL 2494  21.483  26.169   7.104
    8AU     AUL 2495  21.224  25.978   7.345
    8AU       S 2496  21.309  26.009   6.889
    8AU     LIG 2497  20.884  25.798   7.030
    8AU     LIG 2498  20.601  25.418   6.987
    8AU       S 2499  20.857  26.035   7.745
    8AU     LIG 2500  20.959  25.621   7.560
    8AU     LIG 2501  20.772  25.232   7.445
    8AU    AUSL 2502  21.391  26.319   7.817
    8AU    AUSL 2503  21.662  25.719   7.744
    8AU     AUL 2504  21.337  25.907   7.787
    8AU       S 2505  21.526  25.466   7.800
    8AU     LIG 2506  21.092  25.215   7.865
    8AU     LIG 2507  20.977  24.948   8.245
    8AU       S 2508  21.023  26.235   7.874
    8AU     LIG 2509  20.567  26.458   7.849
    8AU     LIG 2510  20.155  26.216   7.823
    8AU    AUSL 2511  22.151  27.159   7.959
    8AU    AUSL 2512  21.723  27.142   7.893
    8AU     AUL 2513  21.976  27.208   8.258
    8AU       S 2514  21.605  27.367   8.026
    8AU     LIG 2515  21.261  27.661   8.165
    8AU     LIG 2516  21.078  28.088   8.358
    8AU       S 2517  22.114  27.589   8.005
    8AU     LIG 2518  22.287  27.955   8.270
    8AU     LIG 2519  22.135  28.390   8.452
    8AU    AUSL 2520  21.960  27.359   7.620
    8AU    AUSL 2521  22.298  27.404   7.281
    8AU     AUL 2522  21.981  27.618   7.386
    8AU       S 2523  22.087  27.823   7.819
    8AU     LIG 2524  22.047  28.273   7.959
    8AU     LIG 2525  21.865  28.688   8.084
    8AU       S 2526  22.252  27.637   6.987
    8AU     LIG 2527  22.324  27.978   7.298
    8AU     LIG 2528  22.252  28.437   7.223
    8AU    AUSL 2529  22.419  27.356   7.680
    8AU    AUSL 2530  22.428  27.031   8.246
    8AU     AUL 2531  22.504  27.315   8.042
    8AU       S 2532  22.629  27.122   8.480
    8AU     LIG 2533  22.985  27.131   8.824
    8AU     LIG 2534  23.376  27.351   8.676
    8AU       S 2535  22.347  27.653   7.732
    8AU     LIG 2536  22.505  28.114   7.804
    8AU     LIG 2537  22.519  28.488   8.121
    8AU    AUSL 2538  22.244  25.736   8.122
    8AU    AUSL 2539  22.791  25.763   7.719
    8AU     AUL 2540  22.574  25.565   8.028
    8AU       S 2541  21.957  25.163   8.111
    8AU     LIG 2542  21.956  24.721   8.200
    8AU     LIG 2543  22.035  24.271   8.298
    8AU       S 2544  22.982  25.557   7.765
    8AU     LIG 2545  23.077  25.113   8.069
    8AU     LIG 2546  23.319  24.749   8.321
    8AU    AUSL 2547  22.054  25.578   7.759
    8AU    AUSL 2548  21.972  25.992   7.947
    8AU     AUL 2549  21.887  25.658   8.098
    8AU       S 2550  21.998  25.280   7.843
    8AU     LIG 2551  21.736  24.941   7.713
    8AU     LIG 2552  21.836  24.511   7.748
    8AU       S 2553  21.503  25.364   8.068
    8AU     LIG 2554  21.459  25.260   8.499
    8AU     LIG 2555  21.098  25.118   8.735
    8AU    AUSL 2556  22.387  25.827   7.691
    8AU    AUSL 2557  22.019  25.678   7.352
    8AU     AUL 2558  22.344  25.471   7.558
    8AU       S 2559  21.879  25.362   7.374
    8AU     LIG 2560  21.606  25.053   7.224
    8AU     LIG 2561  21.892  24.663   7.200
    8AU       S 2562  22.221  25.202   8.026
    8AU     LIG 2563  22.261  24.827   7.788
    8AU     LIG 2564  22.417  24.472   8.029
    8AU    AUSL 2565  22.241  27.138   6.952
    8AU    AUSL 2566  22.554  27.065   7.279
    8AU     AUL 2567  22.607  27.335   7.047
    8AU       S 2568  22.256  27.353   6.718
    8AU     LIG 2569  22.520  27.755   6.587
    8AU     LIG 2570  22.352  28.138   6.790
    8AU       S 2571  23.284  27.057   6.863
    8AU     LIG 2572  23.332  27.503   6.737
    8AU     LIG 2573  23.501  27.874   6.504
    8AU    AUSL 2574  21.989  27.094   7.304
    8AU    AUSL 2575  21.873  27.005   6.820
    8AU     AUL 2576  21.885  27.323   7.026
    8AU       S 2577  22.067  27.653   6.731
    8AU     LIG 2578  21.895  27.998   7.007
    8AU     LIG 2579  21.739  28.442   7.034
    8AU       S 2580  21.626  27.138   6.657
    8AU     LIG 2581  21.591  27.572   6.520
    8AU     LIG 2582  21.266  27.808   6.282
    8AU    AUSL 2583  22.156  25.727   6.934
    8AU    AUSL 2584  21.627  25.766   7.217
    8AU     AUL 2585  21.859  25.617   6.983
    8AU       S 2586  21.398  25.701   7.006
    8AU     LIG 2587  21.154  25.345   7.083
    8AU     LIG 2588  21.032  25.127   6.711
    8AU       S 2589  22.107  25.233   7.161
    8AU     LIG 2590  21.915  25.007   6.818
    8AU     LIG 2591  21.826  24.571   6.662
    8AU    AUSL 2592  22.408  25.838   7.275
    8AU    AUSL 2593  22.502  25.947   6.844
    8AU     AUL 2594  22.481  25.579   7.044
    8AU       S 2595  22.078  25.104   7.381
    8AU     LIG 2596  22.405  24.833   7.203
    8AU     LIG 2597  22.317  24.473   6.971
    8AU       S 2598  22.690  25.785   6.659
    8AU     LIG 2599  22.830  25.336   6.459
    8AU     LIG 2600  23.081  25.166   6.075
    9AU     AUC 2601  31.174  24.676   7.495
    9AU     AUC 2602  31.481  24.706   7.337
    9AU     AUC 2603  31.442  24.701   7.676
    9AU     AUC 2604  30.894  24.656   7.313
    9AU     AUC 2605  30.897  24.670   7.674
    9AU     AUC 2606  30.975  24.920   7.505
    9AU     AUC 2607  31.317  24.952   7.495
    9AU     AUC 2608  31.007  24.393   7.495
    9AU     AUC 2609  31.372  24.443   7.500
    9AU     AUC 2610  31.194  24.517   7.780
    9AU     AUC 2611  31.146  24.845   7.774
    9AU     AUC 2612  31.212  24.515   7.219
    9AU     AUC 2613  31.184  24.842   7.215
    9AU     AUC 2614  31.803  24.727   7.199
    9AU     AUC 2615  31.819  24.733   7.518
    9AU     AUC 2616  31.741  24.713   7.879
    9AU     AUC 2617  30.608  24.632   7.131
    9AU     AUC 2618  30.559  24.651   7.493
    9AU     AUC 2619  30.587  24.648   7.857
    9AU     AUC 2620  30.792  25.215   7.485
    9AU     AUC 2621  31.142  25.285   7.471
    9AU     AUC 2622  31.460  25.271   7.497
    9AU     AUC 2623  30.838  24.080   7.498
    9AU     AUC 2624  31.173  24.124   7.512
    9AU     AUC 2625  31.570  24.161   7.499
    9AU     AUC 2626  31.195  24.317   8.079
    9AU     AUC 2627  31.159  24.638   8.111
    9AU     AUC 2628  31.153  25.012   8.057
    9AU     AUC 2629  31.243  24.315   6.924
    9AU     AUC 2630  31.215  24.658   6.907
    9AU     AUC 2631  31.202  25.021   6.923
    9AU     AUC 2632  31.489  24.475   7.985
    9AU     AUC 2633  31.460  24.845   8.009
    9AU     AUC 2634  31.521  24.496   7.030
    9AU     AUC 2635  31.536  24.866   7.030
    9AU     AUC 2636  30.860  24.480   7.998
    9AU     AUC 2637  30.868  24.823   7.988
    9AU     AUC 2638  30.901  24.494   7.004
    9AU     AUC 2639  30.875  24.837   6.987
    9AU     AUC 2640  31.675  25.006   7.357
    9AU     AUC 2641  31.607  24.989   7.708
    9AU     AUC 2642  30.689  24.935   7.296
    9AU     AUC 2643  30.662  24.954   7.681
    9AU     AUC 2644  31.698  24.420   7.338
    9AU     AUC 2645  31.690  24.412   7.661
    9AU     AUC 2646  30.684  24.353   7.303
    9AU     AUC 2647  30.693  24.369   7.650
    9AU     AUC 2648  30.959  25.160   7.772
    9AU     AUC 2649  31.294  25.169   7.792
    9AU     AUC 2650  30.963  24.194   7.793
    9AU     AUC 2651  31.375  24.208   7.822
    9AU     AUC 2652  30.974  25.104   7.157
    9AU     AUC 2653  31.375  25.146   7.174
    9AU     AUC 2654  30.997  24.192   7.198
    9AU     AUC 2655  31.385  24.205   7.194
    9AU    AUSL 2656  31.746  24.632   8.237
    9AU    AUSL 2657  31.588  24.144   8.127
    9AU     AUL 2658  31.884  24.239   8.334
    9AU       S 2659  31.979  23.840   8.126
    9AU     LIG 2660  31.854  23.762   8.515
    9AU     LIG 2661  32.121  23.580   8.841
    9AU       S 2662  31.982  24.681   8.344
    9AU     LIG 2663  31.903  24.651   8.771
    9AU     LIG 2664  32.041  24.424   9.146
    9AU    AUSL 2665  31.347  24.451   8.315
    9AU    AUSL 2666  31.022  24.781   8.389
    9AU     AUL 2667  31.192  24.671   8.662
    9AU       S 2668  31.524  24.379   8.564
    9AU     LIG 2669  31.490  24.451   9.014
    9AU     LIG 2670  31.622  24.433   9.458
    9AU       S 2671  30.617  24.695   8.805
    9AU     LIG 2672  30.517  24.671   9.246
    9AU     LIG 2673  30.388  24.645   9.705
    9AU    AUSL 2674  31.361  24.862   8.168
    9AU    AUSL 2675  31.763  25.051   8.134
    9AU     AUL 2676  31.577  24.882   8.462
    9AU       S 2677  31.203  25.153   8.616
    9AU     LIG 2678  31.560  25.087   8.906
    9AU     LIG 2679  31.794  24.874   9.229
    9AU       S 2680  31.893  25.211   8.334
    9AU     LIG 2681  32.320  25.203   8.422
    9AU     LIG 2682  32.750  25.376   8.448
    9AU    AUSL 2683  31.806  24.744   6.790
    9AU    AUSL 2684  31.635  25.202   6.824
    9AU     AUL 2685  31.727  25.018   6.512
    9AU       S 2686  31.810  24.592   6.331
    9AU     LIG 2687  32.049  24.672   5.974
    9AU     LIG 2688  31.969  24.507   5.547
    9AU       S 2689  31.975  25.301   6.781
    9AU     LIG 2690  31.933  25.463   6.377
    9AU     LIG 2691  32.124  25.771   6.091
    9AU    AUSL 2692  31.495  24.464   6.692
    9AU    AUSL 2693  31.746  24.431   7.085
    9AU     AUL 2694  31.904  24.438   6.748
    9AU       S 2695  32.029  23.961   6.702
    9AU     LIG 2696  32.445  23.866   6.558
    9AU     LIG 2697  32.662  23.815   6.154
    9AU       S 2698  31.553  24.310   6.431
    9AU     LIG 2699  31.340  24.189   6.049
    9AU     LIG 2700  31.480  24.257   5.592
    9AU    AUSL 2701  31.385  24.863   6.803
    9AU    AUSL 2702  31.086  24.453   6.609
    9AU     AUL 2703  31.344  24.729   6.450
    9AU       S 2704  30.970  24.470   6.305
    9AU     LIG 2705  30.830  24.189   5.949
    9AU     LIG 2706  30.629  24.200   5.523
    9AU       S 2707  31.777  24.336   6.257
    9AU     LIG 2708  31.528  24.645   5.937
    9AU     LIG 2709  31.526  24.785   5.486
    9AU    AUSL 2710  30.661  24.643   8.203
    9AU    AUSL 2711  30.891  25.086   8.129
    9AU     AUL 2712  30.778  24.974   8.448
    9AU       S 2713  30.444  24.652   8.517
    9AU     LIG 2714  30.195  24.446   8.881
    9AU     LIG 2715  30.074  24.418   9.350
    9AU       S 2716  30.479  25.287   8.255
    9AU     LIG 2717  30.529  25.514   8.573
    9AU     LIG 2718  30.201  25.763   8.757
    9AU    AUSL 2719  30.939  24.351   8.394
    9AU    AUSL 2720  30.465  24.294   8.055
    9AU     AUL 2721  30.594  24.245   8.350
    9AU       S 2722  30.222  24.003   8.151
    9AU     LIG 2723  29.939  23.831   8.491
    9AU     LIG 2724  29.868  23.455   8.793
    9AU       S 2725  30.745  24.506   8.696
    9AU     LIG 2726  30.897  24.348   9.090
    9AU     LIG 2727  30.683  24.249   9.508
    9AU    AUSL 2728  30.680  24.562   6.716
    9AU    AUSL 2729  30.953  24.260   6.962
    9AU     AUL 2730  30.831  24.181   6.646
    9AU       S 2731  30.627  24.469   6.332
    9AU     LIG 2732  30.406  24.486   5.906
    9AU     LIG 2733  30.196  24.491   5.468
    9AU       S 2734  30.366  24.037   6.585
    9AU     LIG 2735  30.248  23.579   6.509
    9AU     LIG 2736  29.933  23.269   6.335
    9AU    AUSL 2737  30.982  24.865   6.713
    9AU    AUSL 2738  30.561  24.923   6.918
    9AU     AUL 2739  30.677  24.887   6.537
    9AU       S 2740  30.313  25.113   6.720
    9AU     LIG 2741  29.958  25.390   6.612
    9AU     LIG 2742  29.757  25.561   6.212
    9AU       S 2743  30.880  24.654   6.156
    9AU     LIG 2744  30.593  24.957   5.971
    9AU     LIG 2745  30.360  24.987   5.549
    9AU    AUSL 2746  31.846  25.293   7.540
    9AU    AUSL 2747  31.857  24.994   7.130
    9AU     AUL 2748  32.012  25.382   7.253
    9AU       S 2749  32.132  25.037   6.951
    9AU     LIG 2750  32.212  24.874   6.520
    9AU     LIG 2751  32.251  25.125   6.140
    9AU       S 2752  32.349  25.271   7.914
    9AU     LIG 2753  32.727  25.473   7.753
    9AU     LIG 2754  33.154  25.420   7.577
    9AU    AUSL 2755  32.128  24.958   7.447
    9AU    AUSL 2756  32.122  24.579   7.718
    9AU     AUL 2757  32.438  24.773   7.595
    9AU       S 2758  32.297  25.208   7.646
    9AU     LIG 2759  32.564  25.144   7.260
    9AU     LIG 2760  33.021  25.080   7.117
    9AU       S 2761  32.397  24.302   7.580
    9AU     LIG 2762  32.611  24.080   7.884
    9AU     LIG 2763  32.997  23.833   7.815
    9AU    AUSL 2764  31.850  24.901   7.759
    9AU    AUSL 2765  31.523  25.213   7.800
    9AU     AUL 2766  31.872  25.316   7.873
    9AU       S 2767  31.896  25.525   8.315
    9AU     LIG 2768  32.349  25.693   8.225
    9AU     LIG 2769  32.593  26.083   8.404
    9AU       S 2770  32.205  24.991   7.952
    9AU     LIG 2771  32.699  24.987   8.092
    9AU     LIG 2772  33.085  25.285   8.062
    9AU    AUSL 2773  30.469  25.150   7.534
    9AU    AUSL 2774  30.528  24.943   7.934
    9AU     AUL 2775  30.221  25.245   7.801
    9AU       S 2776  30.382  25.039   8.190
    9AU     LIG 2777  30.069  25.233   8.514
    9AU     LIG 2778  29.744  25.552   8.618
    9AU       S 2779  30.402  25.558   7.497
    9AU     LIG 2780  29.947  25.450   7.374
    9AU     LIG 2781  29.538  25.696   7.250
    9AU    AUSL 2782  30.434  24.793   7.291
    9AU    AUSL 2783  30.580  25.296   7.157
    9AU     AUL 2784  30.283  25.114   7.192
    9AU       S 2785  30.156  24.679   6.935
    9AU     LIG 2786  29.838  25.033   6.997
    9AU     LIG 2787  29.477  25.185   7.251
    9AU       S 2788  30.398  25.526   6.971
    9AU     LIG 2789  30.213  25.828   6.689
    9AU     LIG 2790  29.802  25.976   6.543
    9AU    AUSL 2791  30.223  24.804   7.679
    9AU    AUSL 2792  30.236  24.429   7.356
    9AU     AUL 2793  30.049  24.760   7.388
    9AU       S 2794  29.974  24.341   7.585
    9AU     LIG 2795  29.661  24.194   7.275
    9AU     LIG 2796  29.187  24.183   7.320
    9AU       S 2797  30.046  24.818   7.909
    9AU     LIG 2798  29.756  25.069   7.676
    9AU     LIG 2799  29.480  25.445   7.705
    9AU    AUSL 2800  31.909  24.278   7.496
    9AU    AUSL 2801  31.747  24.440   7.867
    9AU     AUL 2802  32.071  24.303   7.913
    9AU       S 2803  32.232  24.102   7.519
    9AU     LIG 2804  32.579  23.807   7.445
    9AU     LIG 2805  33.032  23.755   7.297
    9AU       S 2806  32.195  23.803   7.936
    9AU     LIG 2807  32.402  23.936   8.348
    9AU     LIG 2808  32.594  23.834   8.758
    9AU    AUSL 2809  32.097  24.581   7.254
    9AU    AUSL 2810  31.801  23.980   7.225
    9AU     AUL 2811  32.044  24.218   7.117
    9AU       S 2812  32.398  24.368   7.360
    9AU     LIG 2813  32.548  24.144   7.033
    9AU     LIG 2814  32.878  24.322   6.782
    9AU       S 2815  31.942  23.787   6.944
    9AU     LIG 2816  32.126  23.468   6.648
    9AU     LIG 2817  32.521  23.354   6.406
    9AU    AUSL 2818  30.584  24.156   7.445
    9AU    AUSL 2819  30.536  24.379   7.061
    9AU     AUL 2820  30.255  24.120   7.248
    9AU       S 2821  30.359  24.232   6.805
    9AU     LIG 2822  29.946  24.038   6.861
    9AU     LIG 2823  29.757  23.730   6.595
    9AU       S 2824  29.878  24.148   7.720
    9AU     LIG 2825  29.963  23.807   7.487
    9AU     LIG 2826  29.699  23.676   7.133
    9AU    AUSL 2827  30.494  24.490   7.695
    9AU    AUSL 2828  30.626  23.972   7.819
    9AU     AUL 2829  30.356  24.087   7.710
    9AU       S 2830  30.438  23.721   7.988
    9AU     LIG 2831  30.061  23.498   7.965
    9AU     LIG 2832  29.767  23.394   8.309
    9AU       S 2833  30.017  24.367   7.816
    9AU     LIG 2834  29.656  24.208   8.138
    9AU     LIG 2835  29.227  24.065   7.981
    9AU    AUSL 2836  31.117  25.388   7.925
    9AU    AUSL 2837  30.691  25.337   7.843
    9AU     AUL 2838  30.928  25.419   8.222
    9AU       S 2839  30.551  25.534   7.978
    9AU     LIG 2840  30.154  25.664   8.218
    9AU     LIG 2841  29.881  26.002   8.406
    9AU       S 2842  31.072  25.784   7.957
    9AU     LIG 2843  31.368  25.979   8.239
    9AU     LIG 2844  31.513  26.413   8.339
    9AU    AUSL 2845  30.921  25.563   7.570
    9AU    AUSL 2846  31.284  25.594   7.230
    9AU     AUL 2847  30.991  25.837   7.344
    9AU       S 2848  31.117  26.001   7.793
    9AU     LIG 2849  31.118  26.400   8.011
    9AU     LIG 2850  31.179  26.846   8.176
    9AU       S 2851  31.250  25.805   6.939
    9AU     LIG 2852  31.426  26.120   7.237
    9AU     LIG 2853  31.640  26.560   7.203
    9AU    AUSL 2854  31.385  25.568   7.637
    9AU    AUSL 2855  31.395  25.272   8.218
    9AU     AUL 2856  31.479  25.539   8.008
    9AU       S 2857  31.620  25.386   8.454
    9AU     LIG 2858  31.977  25.403   8.789
    9AU     LIG 2859  32.387  25.639   8.734
    9AU       S 2860  31.339  25.847   7.681
    9AU     LIG 2861  31.573  26.241   7.816
    9AU     LIG 2862  31.592  26.716   7.900
    9AU    AUSL 2863  31.196  23.982   8.127
    9AU    AUSL 2864  31.755  23.978   7.749
    9AU     AUL 2865  31.512  23.779   8.053
    9AU       S 2866  31.073  23.464   8.119
    9AU     LIG 2867  30.780  23.147   8.281
    9AU     LIG 2868  30.819  22.684   8.383
    9AU       S 2869  31.910  23.831   7.777
    9AU     LIG 2870  31.879  23.397   7.965
    9AU     LIG 2871  32.184  23.403   8.332
    9AU    AUSL 2872  31.007  23.817   7.763
    9AU    AUSL 2873  30.913  24.255   7.988
    9AU     AUL 2874  30.853  23.908   8.135
    9AU       S 2875  30.917  23.539   7.853
    9AU     LIG 2876  30.633  23.205   7.792
    9AU     LIG 2877  30.459  22.821   8.028
    9AU       S 2878  30.382  23.797   8.249
    9AU     LIG 2879  30.300  23.392   8.407
    9AU     LIG 2880  30.275  23.098   8.753
    9AU    AUSL 2881  31.355  24.049   7.714
    9AU    AUSL 2882  30.998  23.887   7.348
    9AU     AUL 2883  31.300  23.682   7.585
    9AU       S 2884  30.852  23.587   7.361
    9AU     LIG 2885  30.531  23.250   7.274
    9AU     LIG 2886  30.517  22.811   7.113
    9AU       S 2887  31.131  23.327   7.897
    9AU     LIG 2888  31.024  22.883   7.896
    9AU     LIG 2889  31.264  22.550   8.095
    9AU    AUSL 2890  31.236  25.297   6.919
    9AU    AUSL 2891  31.540  25.259   7.257
    9AU     AUL 2892  31.601  25.516   7.021
    9AU       S 2893  31.249  25.501   6.696
    9AU     LIG 2894  31.624  25.805   6.610
    9AU     LIG 2895  31.575  26.251   6.754
    9AU       S 2896  32.257  25.286   6.820
    9AU     LIG 2897  32.152  25.761   6.738
    9AU     LIG 2898  32.161  26.150   6.476
    9AU    AUSL 2899  30.980  25.283   7.272
    9AU    AUSL 2900  30.836  25.242   6.817
    9AU     AUL 2901  30.870  25.521   7.011
    9AU       S 2902  31.118  25.805   6.690
    9AU     LIG 2903  31.038  26.245   6.900
    9AU     LIG 2904  31.165  26.678   7.050
    9AU       S 2905  30.552  25.357   6.676
    9AU     LIG 2906  30.352  25.509   6.302
    9AU     LIG 2907  30.137  25.900   6.147
    9AU    AUSL 2908  31.184  23.913   6.945
    9AU    AUSL 2909  30.668  23.959   7.087
    9AU     AUL 2910  30.910  23.812   6.940
    9AU       S 2911  30.451  23.929   6.854
    9AU     LIG 2912  30.178  23.572   7.010
    9AU     LIG 2913  29.793  23.284   6.829
    9AU       S 2914  31.081  23.418   7.183
    9AU     LIG 2915  30.834  23.144   6.874
    9AU     LIG 2916  30.656  22.762   6.624
    9AU    AUSL 2917  31.399  24.037   7.303
    9AU    AUSL 2918  31.552  24.100   6.887
    9AU     AUL 2919  31.487  23.754   7.104
    9AU       S 2920  30.996  23.329   7.410
    9AU     LIG 2921  31.010  22.906   7.316
    9AU     LIG 2922  31.032  22.621   6.971
    9AU       S 2923  31.725  23.975   6.742
    9AU     LIG 2924  31.756  23.823   6.316
    9AU     LIG 2925  32.155  23.650   6.151
   10AU     AUC 2926   5.244  14.573   7.496
   10AU     AUC 2927   5.543  14.618   7.329
   10AU     AUC 2928   5.520  14.594   7.667
   10AU     AUC 2929   4.955  14.553   7.327
   10AU     AUC 2930   4.963  14.551   7.679
   10AU     AUC 2931   5.049  14.816   7.517
   10AU     AUC 2932   5.390  14.852   7.501
   10AU     AUC 2933   5.088  14.286   7.494
   10AU     AUC 2934   5.448  14.340   7.482
   10AU     AUC 2935   5.279  14.401   7.768
   10AU     AUC 2936   5.224  14.730   7.777
   10AU     AUC 2937   5.266  14.419   7.215
   10AU     AUC 2938   5.257  14.753   7.227
   10AU     AUC 2939   5.850  14.650   7.176
   10AU     AUC 2940   5.888  14.640   7.499
   10AU     AUC 2941   5.823  14.601   7.863
   10AU     AUC 2942   4.658  14.528   7.155
   10AU     AUC 2943   4.623  14.557   7.519
   10AU     AUC 2944   4.673  14.533   7.863
   10AU     AUC 2945   4.872  15.114   7.504
   10AU     AUC 2946   5.217  15.183   7.494
   10AU     AUC 2947   5.532  15.170   7.514
   10AU     AUC 2948   4.921  13.963   7.494
   10AU     AUC 2949   5.264  14.013   7.488
   10AU     AUC 2950   5.655  14.065   7.456
   10AU     AUC 2951   5.296  14.181   8.055
   10AU     AUC 2952   5.242  14.504   8.098
   10AU     AUC 2953   5.232  14.883   8.066
   10AU     AUC 2954   5.269  14.231   6.921
   10AU     AUC 2955   5.258  14.578   6.908
   10AU     AUC 2956   5.271  14.933   6.932
   10AU     AUC 2957   5.579  14.354   7.963
   10AU     AUC 2958   5.542  14.720   8.008
   10AU     AUC 2959   5.556  14.442   7.009
   10AU     AUC 2960   5.574  14.802   7.005
   10AU     AUC 2961   4.955  14.340   7.984
   10AU     AUC 2962   4.946  14.698   7.991
   10AU     AUC 2963   4.927  14.361   7.037
   10AU     AUC 2964   4.926  14.733   7.023
   10AU     AUC 2965   5.741  14.914   7.356
   10AU     AUC 2966   5.684  14.882   7.711
   10AU     AUC 2967   4.757  14.836   7.307
   10AU     AUC 2968   4.739  14.848   7.696
   10AU     AUC 2969   5.763  14.339   7.299
   10AU     AUC 2970   5.772  14.312   7.630
   10AU     AUC 2971   4.737  14.256   7.337
   10AU     AUC 2972   4.769  14.259   7.669
   10AU     AUC 2973   5.037  15.046   7.791
   10AU     AUC 2974   5.372  15.054   7.808
   10AU     AUC 2975   5.064  14.062   7.771
   10AU     AUC 2976   5.477  14.089   7.792
   10AU     AUC 2977   5.045  15.013   7.178
   10AU     AUC 2978   5.440  15.058   7.178
   10AU     AUC 2979   5.061  14.087   7.205
   10AU     AUC 2980   5.448  14.124   7.162
   10AU    AUSL 2981   5.831  14.501   8.220
   10AU    AUSL 2982   5.696  14.027   8.092
   10AU     AUL 2983   5.986  14.121   8.288
   10AU       S 2984   6.096  13.728   8.079
   10AU     LIG 2985   5.872  13.660   8.455
   10AU     LIG 2986   5.981  13.472   8.856
   10AU       S 2987   6.073  14.560   8.356
   10AU     LIG 2988   6.067  14.694   8.762
   10AU     LIG 2989   6.187  14.434   9.129
   10AU    AUSL 2990   5.438  14.309   8.299
   10AU    AUSL 2991   5.098  14.634   8.380
   10AU     AUL 2992   5.276  14.497   8.645
   10AU       S 2993   5.654  14.245   8.569
   10AU     LIG 2994   5.681  14.422   8.961
   10AU     LIG 2995   5.754  14.335   9.407
   10AU       S 2996   4.568  14.425   8.681
   10AU     LIG 2997   4.772  14.789   8.947
   10AU     LIG 2998   4.721  14.852   9.402
   10AU    AUSL 2999   5.442  14.726   8.170
   10AU    AUSL 3000   5.843  14.922   8.138
   10AU     AUL 3001   5.655  14.735   8.465
   10AU       S 3002   5.263  14.992   8.621
   10AU     LIG 3003   5.579  14.924   8.918
   10AU     LIG 3004   5.885  14.835   9.236
   10AU       S 3005   5.958  15.074   8.346
   10AU     LIG 3006   6.342  15.015   8.447
   10AU     LIG 3007   6.635  15.272   8.676
   10AU    AUSL 3008   5.807  14.695   6.759
   10AU    AUSL 3009   5.690  15.127   6.834
   10AU     AUL 3010   5.817  14.973   6.483
   10AU       S 3011   5.721  14.547   6.303
   10AU     LIG 3012   6.089  14.597   6.024
   10AU     LIG 3013   6.244  14.370   5.638
   10AU       S 3014   6.030  15.230   6.794
   10AU     LIG 3015   6.028  15.450   6.428
   10AU     LIG 3016   5.979  15.838   6.182
   10AU    AUSL 3017   5.466  14.444   6.724
   10AU    AUSL 3018   5.796  14.371   7.045
   10AU     AUL 3019   5.904  14.398   6.694
   10AU       S 3020   6.052  13.930   6.611
   10AU     LIG 3021   6.307  13.686   6.322
   10AU     LIG 3022   6.529  13.457   5.971
   10AU       S 3023   5.541  14.255   6.389
   10AU     LIG 3024   5.441  14.036   5.950
   10AU     LIG 3025   5.719  14.066   5.549
   10AU    AUSL 3026   5.398  14.872   6.655
   10AU    AUSL 3027   5.087  14.319   6.603
   10AU     AUL 3028   5.262  14.625   6.418
   10AU       S 3029   4.876  14.356   6.284
   10AU     LIG 3030   4.889  14.121   5.890
   10AU     LIG 3031   4.727  14.041   5.455
   10AU       S 3032   5.781  14.258   6.236
   10AU     LIG 3033   5.630  14.490   5.822
   10AU     LIG 3034   5.869  14.690   5.483
   10AU    AUSL 3035   4.740  14.502   8.181
   10AU    AUSL 3036   4.970  14.959   8.146
   10AU     AUL 3037   4.830  14.814   8.451
   10AU       S 3038   4.500  14.487   8.377
   10AU     LIG 3039   4.339  14.852   8.652
   10AU     LIG 3040   4.298  14.698   9.109
   10AU       S 3041   4.556  15.175   8.292
   10AU     LIG 3042   4.440  15.521   8.540
   10AU     LIG 3043   4.203  15.836   8.798
   10AU    AUSL 3044   5.027  14.206   8.354
   10AU    AUSL 3045   4.608  14.116   8.052
   10AU     AUL 3046   4.720  14.076   8.339
   10AU       S 3047   4.379  13.796   8.170
   10AU     LIG 3048   4.042  13.618   8.439
   10AU     LIG 3049   3.750  13.341   8.689
   10AU       S 3050   4.809  14.376   8.669
   10AU     LIG 3051   4.915  14.326   9.094
   10AU     LIG 3052   4.644  14.336   9.470
   10AU    AUSL 3053   4.710  14.464   6.752
   10AU    AUSL 3054   4.983  14.155   6.983
   10AU     AUL 3055   4.834  14.081   6.660
   10AU       S 3056   4.528  14.395   6.476
   10AU     LIG 3057   4.374  14.086   6.170
   10AU     LIG 3058   4.329  14.229   5.725
   10AU       S 3059   4.378  13.908   6.665
   10AU     LIG 3060   4.546  13.491   6.550
   10AU     LIG 3061   4.532  13.160   6.250
   10AU    AUSL 3062   5.058  14.710   6.829
   10AU    AUSL 3063   4.614  14.835   6.930
   10AU     AUL 3064   4.816  14.760   6.559
   10AU       S 3065   4.436  14.968   6.740
   10AU     LIG 3066   4.148  15.284   6.601
   10AU     LIG 3067   4.055  15.588   6.271
   10AU       S 3068   4.641  14.496   6.187
   10AU     LIG 3069   4.875  14.628   5.819
   10AU     LIG 3070   4.881  14.554   5.355
   10AU    AUSL 3071   5.915  15.198   7.554
   10AU    AUSL 3072   5.915  14.901   7.117
   10AU     AUL 3073   6.073  15.292   7.262
   10AU       S 3074   6.171  14.951   6.938
   10AU     LIG 3075   6.267  14.767   6.553
   10AU     LIG 3076   6.263  15.048   6.196
   10AU       S 3077   6.428  15.136   7.953
   10AU     LIG 3078   6.807  15.319   7.742
   10AU     LIG 3079   7.211  15.285   7.570
   10AU    AUSL 3080   6.190  14.869   7.428
   10AU    AUSL 3081   6.202  14.477   7.667
   10AU     AUL 3082   6.502  14.671   7.529
   10AU       S 3083   6.365  15.093   7.658
   10AU     LIG 3084   6.660  15.082   7.284
   10AU     LIG 3085   7.113  15.103   7.107
   10AU       S 3086   6.462  14.195   7.511
   10AU     LIG 3087   6.746  13.934   7.727
   10AU     LIG 3088   7.201  13.888   7.694
   10AU    AUSL 3089   5.933  14.795   7.754
   10AU    AUSL 3090   5.600  15.097   7.816
   10AU     AUL 3091   5.951  15.200   7.892
   10AU       S 3092   5.941  15.373   8.368
   10AU     LIG 3093   6.120  15.657   8.062
   10AU     LIG 3094   6.284  16.118   8.017
   10AU       S 3095   6.287  14.863   7.931
   10AU     LIG 3096   6.818  14.830   7.899
   10AU     LIG 3097   7.295  14.972   7.984
   10AU    AUSL 3098   4.577  15.049   7.540
   10AU    AUSL 3099   4.598  14.837   7.956
   10AU     AUL 3100   4.311  15.166   7.793
   10AU       S 3101   4.463  14.918   8.157
   10AU     LIG 3102   4.061  15.130   8.261
   10AU     LIG 3103   3.917  15.495   8.516
   10AU       S 3104   4.521  15.481   7.510
   10AU     LIG 3105   4.073  15.403   7.398
   10AU     LIG 3106   3.625  15.560   7.442
   10AU    AUSL 3107   4.499  14.691   7.300
   10AU    AUSL 3108   4.652  15.206   7.158
   10AU     AUL 3109   4.350  15.018   7.216
   10AU       S 3110   4.207  14.584   6.955
   10AU     LIG 3111   3.870  14.954   7.086
   10AU     LIG 3112   3.440  15.098   7.288
   10AU       S 3113   4.476  15.407   6.960
   10AU     LIG 3114   4.444  15.752   6.667
   10AU     LIG 3115   4.146  16.055   6.476
   10AU    AUSL 3116   4.296  14.731   7.681
   10AU    AUSL 3117   4.299  14.338   7.406
   10AU     AUL 3118   4.109  14.652   7.405
   10AU       S 3119   4.074  14.269   7.690
   10AU     LIG 3120   3.803  14.186   7.360
   10AU     LIG 3121   3.411  14.088   7.139
   10AU       S 3122   4.062  14.771   7.881
   10AU     LIG 3123   3.808  15.058   7.678
   10AU     LIG 3124   3.602  15.394   7.929
   10AU    AUSL 3125   5.969  14.190   7.444
   10AU    AUSL 3126   5.839  14.334   7.837
   10AU     AUL 3127   6.164  14.213   7.868
   10AU       S 3128   6.269  14.033   7.446
   10AU     LIG 3129   6.464  13.676   7.384
   10AU     LIG 3130   6.910  13.553   7.396
   10AU       S 3131   6.319  13.737   7.920
   10AU     LIG 3132   6.437  13.752   8.414
   10AU     LIG 3133   6.496  13.492   8.791
   10AU    AUSL 3134   6.157  14.503   7.211
   10AU    AUSL 3135   5.876  13.924   7.134
   10AU     AUL 3136   6.111  14.182   7.042
   10AU       S 3137   6.496  14.265   7.282
   10AU     LIG 3138   6.934  14.064   7.255
   10AU     LIG 3139   7.368  13.865   7.198
   10AU       S 3140   6.003  13.760   6.855
   10AU     LIG 3141   5.959  13.407   6.583
   10AU     LIG 3142   6.258  13.158   6.323
   10AU    AUSL 3143   4.663  14.099   7.484
   10AU    AUSL 3144   4.561  14.260   7.083
   10AU     AUL 3145   4.301  14.022   7.311
   10AU       S 3146   4.391  14.120   6.866
   10AU     LIG 3147   3.966  13.925   6.936
   10AU     LIG 3148   3.858  13.574   6.645
   10AU       S 3149   4.023  14.123   7.940
   10AU     LIG 3150   3.990  13.758   7.628
   10AU     LIG 3151   3.686  13.651   7.281
   10AU    AUSL 3152   4.533  14.400   7.763
   10AU    AUSL 3153   4.731  13.810   7.775
   10AU     AUL 3154   4.438  13.974   7.745
   10AU       S 3155   4.554  13.563   7.942
   10AU     LIG 3156   4.135  13.387   7.996
   10AU     LIG 3157   4.031  13.096   8.328
   10AU       S 3158   4.179  14.321   7.918
   10AU     LIG 3159   3.629  14.412   7.823
   10AU     LIG 3160   3.177  14.187   7.842
   10AU    AUSL 3161   5.198  15.266   7.952
   10AU    AUSL 3162   4.770  15.227   7.874
   10AU     AUL 3163   5.012  15.284   8.255
   10AU       S 3164   4.648  15.420   8.001
   10AU     LIG 3165   4.227  15.581   8.072
   10AU     LIG 3166   4.050  15.943   8.280
   10AU       S 3167   5.147  15.659   7.996
   10AU     LIG 3168   5.385  15.808   8.315
   10AU     LIG 3169   5.498  16.250   8.345
   10AU    AUSL 3170   5.005  15.453   7.605
   10AU    AUSL 3171   5.349  15.503   7.270
   10AU     AUL 3172   5.050  15.731   7.385
   10AU       S 3173   5.218  15.891   7.835
   10AU     LIG 3174   5.003  16.180   8.118
   10AU     LIG 3175   4.702  16.560   8.193
   10AU       S 3176   5.302  15.740   6.969
   10AU     LIG 3177   5.699  15.936   7.125
   10AU     LIG 3178   5.975  16.336   7.076
   10AU    AUSL 3179   5.467  15.461   7.671
   10AU    AUSL 3180   5.474  15.134   8.238
   10AU     AUL 3181   5.558  15.415   8.039
   10AU       S 3182   5.679  15.231   8.477
   10AU     LIG 3183   6.005  15.203   8.835
   10AU     LIG 3184   6.296  15.525   8.985
   10AU       S 3185   5.414  15.726   7.716
   10AU     LIG 3186   5.725  15.983   7.953
   10AU     LIG 3187   5.889  16.446   8.034
   10AU    AUSL 3188   5.320  13.835   8.099
   10AU    AUSL 3189   5.863  13.877   7.707
   10AU     AUL 3190   5.633  13.659   8.001
   10AU       S 3191   4.947  13.262   8.069
   10AU     LIG 3192   5.000  12.848   8.243
   10AU     LIG 3193   5.023  12.479   8.509
   10AU       S 3194   6.043  13.722   7.748
   10AU     LIG 3195   5.991  13.281   7.955
   10AU     LIG 3196   6.198  13.268   8.385
   10AU    AUSL 3197   5.126  13.684   7.733
   10AU    AUSL 3198   5.033  14.093   7.951
   10AU     AUL 3199   4.976  13.751   8.096
   10AU       S 3200   5.039  13.397   7.794
   10AU     LIG 3201   4.850  13.055   7.636
   10AU     LIG 3202   4.780  12.674   7.829
   10AU       S 3203   4.535  13.595   8.223
   10AU     LIG 3204   4.460  13.295   8.511
   10AU     LIG 3205   4.200  13.059   8.823
   10AU    AUSL 3206   5.460  13.936   7.675
   10AU    AUSL 3207   5.094  13.775   7.324
   10AU     AUL 3208   5.419  13.576   7.541
   10AU       S 3209   4.986  13.460   7.318
   10AU     LIG 3210   4.741  13.125   7.096
   10AU     LIG 3211   5.050  12.811   6.882
   10AU       S 3212   5.239  13.259   7.963
   10AU     LIG 3213   5.296  12.812   7.813
   10AU     LIG 3214   5.556  12.437   7.948
   10AU    AUSL 3215   5.299  15.235   6.942
   10AU    AUSL 3216   5.610  15.168   7.270
   10AU     AUL 3217   5.658  15.441   7.041
   10AU       S 3218   5.307  15.427   6.712
   10AU     LIG 3219   5.661  15.736   6.625
   10AU     LIG 3220   5.576  16.186   6.695
   10AU       S 3221   6.305  15.217   6.828
   10AU     LIG 3222   6.119  15.690   6.900
   10AU     LIG 3223   6.075  16.070   6.644
   10AU    AUSL 3224   5.046  15.186   7.292
   10AU    AUSL 3225   4.922  15.114   6.825
   10AU     AUL 3226   4.939  15.428   7.028
   10AU       S 3227   5.160  15.716   6.698
   10AU     LIG 3228   4.875  16.039   6.916
   10AU     LIG 3229   4.772  16.526   7.002
   10AU       S 3230   4.669  15.238   6.669
   10AU     LIG 3231   4.556  15.431   6.285
   10AU     LIG 3232   4.472  15.864   6.113
   10AU    AUSL 3233   5.242  13.835   6.912
   10AU    AUSL 3234   4.715  13.850   7.149
   10AU     AUL 3235   4.951  13.724   6.934
   10AU       S 3236   4.486  13.817   6.923
   10AU     LIG 3237   4.249  13.481   6.967
   10AU     LIG 3238   4.151  13.121   6.651
   10AU       S 3239   5.206  13.337   7.097
   10AU     LIG 3240   5.002  13.274   6.677
   10AU     LIG 3241   4.977  12.909   6.363
   10AU    AUSL 3242   5.483  13.945   7.260
   10AU    AUSL 3243   5.587  14.057   6.832
   10AU     AUL 3244   5.565  13.689   7.032
   10AU       S 3245   5.178  13.217   7.321
   10AU     LIG 3246   5.470  12.914   7.205
   10AU     LIG 3247   5.543  12.616   6.878
   10AU       S 3248   5.764  13.921   6.659
   10AU     LIG 3249   5.778  13.744   6.229
   10AU     LIG 3250   6.004  13.441   5.962
   11POPC   NC3 3251  33.418  34.715   9.639
   11POPC   PO4 3252  34.025  34.331   9.470
   11POPC   GL1 3253  33.769  34.489   9.175
   11POPC   GL2 3254  33.723  34.850   9.233
   11POPC   C1A 3255  33.875  34.525   8.738
   11POPC   D2A 3256  34.008  34.420   8.330
   11POPC   C3A 3257  33.800  34.611   7.987
   11POPC   C4A 3258  33.880  34.736   7.567
   11POPC   C1B 3259  33.460  34.765   8.879
   11POPC   C2B 3260  33.486  34.894   8.430
   11POPC   C3B 3261  33.283  34.878   7.998
   11POPC   C4B 3262  33.432  34.949   7.564
   12POPC   NC3 3263  25.156  25.570   9.444
   12POPC   PO4 3264  25.071  24.816   9.515
   12POPC   GL1 3265  25.192  25.003   9.126
   12POPC   GL2 3266  24.913  25.176   9.189
   12POPC   C1A 3267  25.388  25.233   8.741
   12POPC   D2A 3268  25.605  25.358   8.348
   12POPC   C3A 3269  25.417  25.284   7.940
   12POPC   C4A 3270  25.453  25.415   7.491
   12POPC   C1B 3271  24.897  25.366   8.827
   12POPC   C2B 3272  24.946  25.165   8.471
   12POPC   C3B 3273  24.918  25.172   8.009
   12POPC   C4B 3274  24.971  25.400   7.655
   13POPC   NC3 3275  30.810  14.128   9.395
   13POPC   PO4 3276  30.482  14.766   9.359
   13POPC   GL1 3277  30.654  14.509   9.061
   13POPC   GL2 3278  31.015  14.517   9.100
   13POPC   C1A 3279  30.772  14.263   8.696
   13POPC   D2A 3280  30.725  14.427   8.283
   13POPC   C3A 3281  30.634  14.170   7.912
   13POPC   C4A 3282  30.798  14.036   7.526
   13POPC   C1B 3283  30.945  14.751   8.704
   13POPC   C2B 3284  30.986  14.875   8.277
   13POPC   C3B 3285  30.796  14.738   7.880
   13POPC   C4B 3286  30.852  14.533   7.471
   14POPC   NC3 3287  18.784  21.593   9.542
   14POPC   PO4 3288  18.226  21.326   9.816
   14POPC   GL1 3289  18.360  21.330   9.292
   14POPC   GL2 3290  18.458  21.598   9.160
   14POPC   C1A 3291  18.220  21.274   8.805
   14POPC   D2A 3292  18.143  21.115   8.349
   14POPC   C3A 3293  18.143  21.394   7.972
   14POPC   C4A 3294  17.948  21.786   7.869
   14POPC   C1B 3295  18.686  21.518   8.803
   14POPC   C2B 3296  18.575  21.409   8.408
   14POPC   C3B 3297  18.658  21.342   7.997
   14POPC   C4B 3298  18.495  21.307   7.583
   15POPC   NC3 3299  40.998  41.872   9.541
   15POPC   PO4 3300  40.543  41.308   9.441
   15POPC   GL1 3301  40.736  41.458   9.113
   15POPC   GL2 3302  41.062  41.589   9.127
   15POPC   C1A 3303  40.606  41.627   8.724
   15POPC   D2A 3304  40.478  41.423   8.335
   15POPC   C3A 3305  40.528  41.658   7.999
   15POPC   C4A 3306  40.794  41.554   7.675
   15POPC   C1B 3307  41.034  41.359   8.721
   15POPC   C2B 3308  40.959  41.596   8.361
   15POPC   C3B 3309  41.068  41.795   8.023
   15POPC   C4B 3310  41.272  41.433   7.908
   16POPC   NC3 3311   8.998  30.289   9.612
   16POPC   PO4 3312   9.412  29.815   9.352
   16POPC   GL1 3313   8.989  29.707   9.147
   16POPC   GL2 3314   8.701  29.905   9.221
   16POPC   C1A 3315   8.708  29.570   8.810
   16POPC   D2A 3316   8.891  29.671   8.427
   16POPC   C3A 3317   8.721  29.612   8.021
   16POPC   C4A 3318   9.057  29.752   7.770
   16POPC   C1B 3319   8.862  30.058   8.791
   16POPC   C2B 3320   8.612  30.100   8.383
   16POPC   C3B 3321   8.694  30.136   7.943
   16POPC   C4B 3322   8.728  30.538   7.731
   17POPC   NC3 3323  20.665  42.756   9.788
   17POPC   PO4 3324  20.821  42.300   9.285
   17POPC   GL1 3325  20.720  42.420   8.965
   17POPC   GL2 3326  20.413  42.518   9.055
   17POPC   C1A 3327  20.800  42.436   8.578
   17POPC   D2A 3328  20.584  42.209   8.306
   17POPC   C3A 3329  20.803  42.335   7.974
   17POPC   C4A 3330  20.737  42.243   7.573
   17POPC   C1B 3331  20.254  42.423   8.693
   17POPC   C2B 3332  20.266  42.652   8.333
   17POPC   C3B 3333  20.311  42.479   7.923
   17POPC   C4B 3334  20.350  42.574   7.503
   18POPC   NC3 3335  28.054   7.695   9.501
   18POPC   PO4 3336  28.567   7.340   9.338
   18POPC   GL1 3337  28.246   7.196   9.111
   18POPC   GL2 3338  28.172   7.539   9.021
   18POPC   C1A 3339  28.227   7.087   8.671
   18POPC   D2A 3340  28.039   7.291   8.277
   18POPC   C3A 3341  28.377   7.363   7.974
   18POPC   C4A 3342  28.462   7.155   7.613
   18POPC   C1B 3343  27.838   7.798   8.867
   18POPC   C2B 3344  27.854   7.828   8.455
   18POPC   C3B 3345  28.144   7.824   8.094
   18POPC   C4B 3346  28.064   7.968   7.689
   19POPC   NC3 3347   5.495  18.734   9.406
   19POPC   PO4 3348   4.903  18.938   9.455
   19POPC   GL1 3349   5.030  18.960   9.061
   19POPC   GL2 3350   5.295  19.191   8.989
   19POPC   C1A 3351   4.869  19.060   8.676
   19POPC   D2A 3352   5.025  19.335   8.441
   19POPC   C3A 3353   5.092  19.160   8.086
   19POPC   C4A 3354   4.789  19.065   7.826
   19POPC   C1B 3355   5.426  18.854   8.755
   19POPC   C2B 3356   5.297  18.781   8.374
   19POPC   C3B 3357   5.439  18.800   7.950
   19POPC   C4B 3358   5.247  18.989   7.615
   20POPC   NC3 3359   3.234  16.905   9.451
   20POPC   PO4 3360   3.762  16.466   9.614
   20POPC   GL1 3361   3.537  16.558   9.204
   20POPC   GL2 3362   3.585  16.912   9.059
   20POPC   C1A 3363   3.500  16.482   8.745
   20POPC   D2A 3364   3.461  16.727   8.351
   20POPC   C3A 3365   3.729  16.840   8.013
   20POPC   C4A 3366   3.720  16.476   7.756
   20POPC   C1B 3367   3.220  16.947   8.753
   20POPC   C2B 3368   3.143  17.112   8.311
   20POPC   C3B 3369   3.238  16.958   7.869
   20POPC   C4B 3370   3.551  16.895   7.503
   21POPC   NC3 3371  21.644  19.054   9.630
   21POPC   PO4 3372  21.142  19.451   9.371
   21POPC   GL1 3373  21.459  19.141   9.159
   21POPC   GL2 3374  21.460  18.802   9.179
   21POPC   C1A 3375  21.387  19.072   8.727
   21POPC   D2A 3376  21.687  19.019   8.409
   21POPC   C3A 3377  21.474  19.258   8.134
   21POPC   C4A 3378  21.381  19.260   7.740
   21POPC   C1B 3379  21.581  18.619   8.793
   21POPC   C2B 3380  21.380  18.606   8.397
   21POPC   C3B 3381  21.438  18.773   7.989
   21POPC   C4B 3382  21.043  18.878   7.822
   22POPC   NC3 3383  35.955  37.463   9.468
   22POPC   PO4 3384  35.676  38.112   9.665
   22POPC   GL1 3385  35.888  37.954   9.286
   22POPC   GL2 3386  35.681  37.756   9.142
   22POPC   C1A 3387  36.094  37.794   8.861
   22POPC   D2A 3388  36.111  37.590   8.434
   22POPC   C3A 3389  36.350  37.764   8.096
   22POPC   C4A 3390  36.275  37.821   7.659
   22POPC   C1B 3391  35.672  37.544   8.741
   22POPC   C2B 3392  35.615  37.659   8.314
   22POPC   C3B 3393  35.833  37.780   7.959
   22POPC   C4B 3394  35.816  37.602   7.556
   23POPC   NC3 3395  34.349  36.686   9.449
   23POPC   PO4 3396  34.919  36.814   9.524
   23POPC   GL1 3397  34.720  36.815   9.123
   23POPC   GL2 3398  34.505  37.104   9.174
   23POPC   C1A 3399  34.587  36.855   8.693
   23POPC   D2A 3400  34.783  36.792   8.316
   23POPC   C3A 3401  34.482  36.711   8.027
   23POPC   C4A 3402  34.210  36.648   7.673
   23POPC   C1B 3403  34.801  37.273   8.855
   23POPC   C2B 3404  34.731  37.323   8.404
   23POPC   C3B 3405  34.454  37.274   8.066
   23POPC   C4B 3406  34.524  37.079   7.679
   24POPC   NC3 3407  21.116   4.151   9.444
   24POPC   PO4 3408  21.681   4.497   9.620
   24POPC   GL1 3409  21.596   4.350   9.219
   24POPC   GL2 3410  21.635   3.985   9.273
   24POPC   C1A 3411  21.427   4.508   8.808
   24POPC   D2A 3412  21.110   4.542   8.483
   24POPC   C3A 3413  21.253   4.400   8.080
   24POPC   C4A 3414  21.009   4.151   7.795
   24POPC   C1B 3415  21.510   3.980   8.844
   24POPC   C2B 3416  21.335   4.039   8.460
   24POPC   C3B 3417  21.351   3.877   8.054
   24POPC   C4B 3418  21.554   3.852   7.643
   25POPC   NC3 3419  24.187  23.965   9.453
   25POPC   PO4 3420  24.173  24.664   9.530
   25POPC   GL1 3421  24.494  24.401   9.301
   25POPC   GL2 3422  24.817  24.538   9.179
   25POPC   C1A 3423  24.442  24.370   8.846
   25POPC   D2A 3424  24.314  24.542   8.436
   25POPC   C3A 3425  24.434  24.427   7.985
   25POPC   C4A 3426  24.246  24.288   7.571
   25POPC   C1B 3427  24.948  24.315   8.822
   25POPC   C2B 3428  24.766  24.284   8.409
   25POPC   C3B 3429  24.983  24.408   8.053
   25POPC   C4B 3430  24.867  24.699   7.723
   26POPC   NC3 3431   5.567  19.812   9.397
   26POPC   PO4 3432   6.070  20.188   9.509
   26POPC   GL1 3433   5.966  19.932   9.135
   26POPC   GL2 3434   6.065  19.592   9.129
   26POPC   C1A 3435   5.830  19.770   8.727
   26POPC   D2A 3436   5.948  19.551   8.377
   26POPC   C3A 3437   5.837  19.723   8.002
   26POPC   C4A 3438   5.658  19.768   7.611
   26POPC   C1B 3439   6.309  19.412   8.756
   26POPC   C2B 3440   6.278  19.167   8.358
   26POPC   C3B 3441   6.182  19.340   7.936
   26POPC   C4B 3442   6.192  19.704   7.648
   27POPC   NC3 3443  15.697  33.185   9.606
   27POPC   PO4 3444  16.229  32.974   9.362
   27POPC   GL1 3445  15.968  33.098   9.081
   27POPC   GL2 3446  15.616  33.040   9.125
   27POPC   C1A 3447  16.097  33.222   8.700
   27POPC   D2A 3448  16.300  33.003   8.399
   27POPC   C3A 3449  16.161  32.928   7.997
   27POPC   C4A 3450  16.139  33.264   7.726
   27POPC   C1B 3451  15.702  32.808   8.749
   27POPC   C2B 3452  15.795  32.929   8.363
   27POPC   C3B 3453  15.663  33.076   7.984
   27POPC   C4B 3454  15.774  32.828   7.667
   28POPC   NC3 3455   8.456  36.938   9.531
   28POPC   PO4 3456   7.890  36.624   9.569
   28POPC   GL1 3457   8.072  36.868   9.174
   28POPC   GL2 3458   7.897  37.164   9.057
   28POPC   C1A 3459   8.175  36.974   8.688
   28POPC   D2A 3460   8.104  36.893   8.258
   28POPC   C3A 3461   8.409  36.676   7.955
   28POPC   C4A 3462   8.315  36.354   7.644
   28POPC   C1B 3463   7.839  37.375   8.674
   28POPC   C2B 3464   8.079  37.427   8.338
   28POPC   C3B 3465   8.266  37.294   7.965
   28POPC   C4B 3466   8.056  36.971   7.757
   29POPC   NC3 3467   1.784  20.767   9.583
   29POPC   PO4 3468   2.394  20.596   9.593
   29POPC   GL1 3469   2.170  20.795   9.235
   29POPC   GL2 3470   1.905  20.577   9.093
   29POPC   C1A 3471   2.119  20.977   8.826
   29POPC   D2A 3472   2.401  20.972   8.435
   29POPC   C3A 3473   2.180  20.783   8.076
   29POPC   C4A 3474   2.391  20.691   7.673
   29POPC   C1B 3475   1.942  20.520   8.644
   29POPC   C2B 3476   1.689  20.573   8.272
   29POPC   C3B 3477   1.719  20.345   7.893
   29POPC   C4B 3478   2.159  20.227   7.841
   30POPC   NC3 3479  19.238   3.369   9.789
   30POPC   PO4 3480  19.245   2.766   9.401
   30POPC   GL1 3481  18.968   2.868   9.080
   30POPC   GL2 3482  18.796   3.122   9.267
   30POPC   C1A 3483  19.051   2.686   8.681
   30POPC   D2A 3484  19.386   2.681   8.369
   30POPC   C3A 3485  19.175   2.684   8.013
   30POPC   C4A 3486  18.920   2.335   7.855
   30POPC   C1B 3487  18.608   3.174   8.843
   30POPC   C2B 3488  18.724   3.013   8.453
   30POPC   C3B 3489  18.852   3.116   8.055
   30POPC   C4B 3490  18.857   2.897   7.682
   31POPC   NC3 3491  19.086  24.837   9.457
   31POPC   PO4 3492  18.825  25.511   9.498
   31POPC   GL1 3493  18.754  25.273   9.116
   31POPC   GL2 3494  19.067  25.218   9.099
   31POPC   C1A 3495  18.790  25.394   8.682
   31POPC   D2A 3496  19.032  25.431   8.325
   31POPC   C3A 3497  18.934  25.156   8.010
   31POPC   C4A 3498  18.780  25.434   7.771
   31POPC   C1B 3499  19.236  25.144   8.707
   31POPC   C2B 3500  19.320  25.006   8.317
   31POPC   C3B 3501  19.409  25.302   7.975
   31POPC   C4B 3502  19.353  25.230   7.580
   32POPC   NC3 3503  44.355   0.615   9.406
   32POPC   PO4 3504  44.993   0.394   9.532
   32POPC   GL1 3505  44.779   0.382   9.140
   32POPC   GL2 3506  44.949   0.685   9.106
   32POPC   C1A 3507  44.628   0.431   8.695
   32POPC   D2A 3508  44.449   0.387   8.263
   32POPC   C3A 3509  44.730   0.521   7.947
   32POPC   C4A 3510  44.435   0.787   7.800
   32POPC   C1B 3511   0.124   0.564   8.753
   32POPC   C2B 3512   0.036   0.641   8.354
   32POPC   C3B 3513   0.205   0.773   7.989
   32POPC   C4B 3514   0.129   0.612   7.598
   33POPC   NC3 3515   0.557  43.424   9.576
   33POPC   PO4 3516   0.124  42.901   9.691
   33POPC   GL1 3517   0.328  43.019   9.267
   33POPC   GL2 3518   0.336  43.365   9.121
   33POPC   C1A 3519   0.437  42.981   8.815
   33POPC   D2A 3520   0.438  43.110   8.414
   33POPC   C3A 3521   0.386  42.765   8.168
   33POPC   C4A 3522   0.493  42.735   7.772
   33POPC   C1B 3523   0.187  43.471   8.698
   33POPC   C2B 3524   0.175  43.519   8.236
   33POPC   C3B 3525   0.286  43.234   7.897
   33POPC   C4B 3526   0.436  43.318   7.468
   34POPC   NC3 3527  36.262  21.800   9.419
   34POPC   PO4 3528  35.684  21.414   9.502
   34POPC   GL1 3529  35.842  21.610   9.167
   34POPC   GL2 3530  35.927  21.265   9.043
   34POPC   C1A 3531  36.066  21.669   8.782
   34POPC   D2A 3532  36.294  21.483   8.439
   34POPC   C3A 3533  36.184  21.521   8.008
   34POPC   C4A 3534  36.254  21.263   7.639
   34POPC   C1B 3535  35.690  20.964   8.775
   34POPC   C2B 3536  35.735  20.835   8.374
   34POPC   C3B 3537  35.773  20.910   7.925
   34POPC   C4B 3538  35.937  20.898   7.524
   35POPC   NC3 3539   3.017  44.902   9.469
   35POPC   PO4 3540   2.599  44.351   9.338
   35POPC   GL1 3541   2.914  44.536   9.114
   35POPC   GL2 3542   2.776  44.881   9.014
   35POPC   C1A 3543   2.904  44.447   8.708
   35POPC   D2A 3544   2.752  44.707   8.421
   35POPC   C3A 3545   2.924  44.565   8.032
   35POPC   C4A 3546   3.000  44.892   7.773
   35POPC   C1B 3547   2.396  44.728   8.811
   35POPC   C2B 3548   2.213  44.605   8.415
   35POPC   C3B 3549   2.451  44.758   8.017
   35POPC   C4B 3550   2.514  44.609   7.569
   36POPC   NC3 3551  44.874  35.572   9.265
   36POPC   PO4 3552  44.503  36.128   9.492
   36POPC   GL1 3553  44.391  36.161   9.115
   36POPC   GL2 3554  44.483  35.843   9.023
   36POPC   C1A 3555  44.152  36.148   8.768
   36POPC   D2A 3556  44.303  36.105   8.391
   36POPC   C3A 3557  44.697  36.228   8.257
   36POPC   C4A 3558  44.701  36.130   7.821
   36POPC   C1B 3559  44.659  35.798   8.630
   36POPC   C2B 3560   0.075  35.768   8.478
   36POPC   C3B 3561   0.242  35.790   8.062
   36POPC   C4B 3562   0.122  35.924   7.617
   37POPC   NC3 3563  10.894  12.970   9.386
   37POPC   PO4 3564  10.222  13.176   9.505
   37POPC   GL1 3565  10.420  12.939   9.147
   37POPC   GL2 3566  10.556  12.584   9.010
   37POPC   C1A 3567  10.531  13.017   8.725
   37POPC   D2A 3568  10.538  12.713   8.409
   37POPC   C3A 3569  10.322  12.856   8.085
   37POPC   C4A 3570  10.388  12.841   7.641
   37POPC   C1B 3571  10.940  12.598   8.692
   37POPC   C2B 3572  11.060  12.602   8.255
   37POPC   C3B 3573  10.797  12.741   7.935
   37POPC   C4B 3574  10.807  12.543   7.556
   38POPC   NC3 3575   4.719  11.305   9.486
   38POPC   PO4 3576   5.342  11.153   9.595
   38POPC   GL1 3577   5.144  11.229   9.228
   38POPC   GL2 3578   5.160  11.558   9.321
   38POPC   C1A 3579   4.875  11.205   8.848
   38POPC   D2A 3580   4.955  11.292   8.411
   38POPC   C3A 3581   4.897  11.171   7.957
   38POPC   C4A 3582   5.130  11.085   7.544
   38POPC   C1B 3583   5.228  11.574   8.878
   38POPC   C2B 3584   5.290  11.654   8.453
   38POPC   C3B 3585   5.331  11.430   8.070
   38POPC   C4B 3586   5.348  11.580   7.648
   39POPC   NC3 3587  33.062  40.357   9.549
   39POPC   PO4 3588  32.476  40.396   9.553
   39POPC   GL1 3589  32.731  40.615   9.198
   39POPC   GL2 3590  33.106  40.706   9.182
   39POPC   C1A 3591  32.707  40.758   8.737
   39POPC   D2A 3592  32.777  40.939   8.298
   39POPC   C3A 3593  32.714  40.706   7.894
   39POPC   C4A 3594  32.558  40.889   7.498
   39POPC   C1B 3595  33.225  40.856   8.768
   39POPC   C2B 3596  33.273  40.798   8.335
   39POPC   C3B 3597  33.225  40.799   7.908
   39POPC   C4B 3598  33.003  41.120   7.654
   40POPC   NC3 3599  38.456  20.374   9.556
   40POPC   PO4 3600  38.866  20.913   9.488
   40POPC   GL1 3601  38.576  20.674   9.150
   40POPC   GL2 3602  38.214  20.506   9.140
   40POPC   C1A 3603  38.469  20.574   8.703
   40POPC   D2A 3604  38.708  20.539   8.358
   40POPC   C3A 3605  38.558  20.691   7.993
   40POPC   C4A 3606  38.762  20.497   7.667
   40POPC   C1B 3607  38.153  20.903   8.921
   40POPC   C2B 3608  38.065  20.831   8.483
   40POPC   C3B 3609  38.115  20.511   8.177
   40POPC   C4B 3610  38.145  20.510   7.726
   41POPC   NC3 3611  31.335  36.208   9.308
   41POPC   PO4 3612  31.977  36.252   9.643
   41POPC   GL1 3613  32.221  36.158   9.279
   41POPC   GL2 3614  32.039  36.428   9.157
   41POPC   C1A 3615  32.381  36.212   8.848
   41POPC   D2A 3616  32.236  36.137   8.435
   41POPC   C3A 3617  32.370  36.347   8.059
   41POPC   C4A 3618  32.277  36.134   7.671
   41POPC   C1B 3619  32.069  36.649   8.770
   41POPC   C2B 3620  31.929  36.552   8.392
   41POPC   C3B 3621  31.892  36.646   7.994
   41POPC   C4B 3622  31.841  36.409   7.627
   42POPC   NC3 3623   2.335  29.481   9.510
   42POPC   PO4 3624   1.813  29.898   9.638
   42POPC   GL1 3625   2.043  29.908   9.261
   42POPC   GL2 3626   2.050  29.593   9.119
   42POPC   C1A 3627   2.035  29.988   8.801
   42POPC   D2A 3628   1.975  30.093   8.367
   42POPC   C3A 3629   1.834  29.953   7.980
   42POPC   C4A 3630   2.025  29.941   7.594
   42POPC   C1B 3631   2.233  29.441   8.751
   42POPC   C2B 3632   2.271  29.666   8.366
   42POPC   C3B 3633   2.197  29.593   7.924
   42POPC   C4B 3634   2.301  29.547   7.471
   43POPC   NC3 3635  21.427  37.267   9.256
   43POPC   PO4 3636  21.324  37.823   9.589
   43POPC   GL1 3637  21.216  37.830   9.165
   43POPC   GL2 3638  21.548  37.756   9.120
   43POPC   C1A 3639  21.250  37.660   8.734
   43POPC   D2A 3640  21.479  37.653   8.382
   43POPC   C3A 3641  21.323  37.824   8.016
   43POPC   C4A 3642  21.315  37.625   7.622
   43POPC   C1B 3643  21.821  37.620   8.796
   43POPC   C2B 3644  21.981  37.431   8.419
   43POPC   C3B 3645  21.852  37.590   8.044
   43POPC   C4B 3646  21.783  37.818   7.690
   44POPC   NC3 3647  41.076   8.305   9.634
   44POPC   PO4 3648  40.625   7.925   9.385
   44POPC   GL1 3649  40.673   8.140   9.028
   44POPC   GL2 3650  40.725   8.482   9.152
   44POPC   C1A 3651  40.905   8.285   8.672
   44POPC   D2A 3652  40.987   8.435   8.278
   44POPC   C3A 3653  40.859   8.106   8.047
   44POPC   C4A 3654  40.627   7.960   7.726
   44POPC   C1B 3655  40.472   8.531   8.767
   44POPC   C2B 3656  40.462   8.402   8.339
   44POPC   C3B 3657  40.568   8.477   7.926
   44POPC   C4B 3658  40.286   8.484   7.635
   45POPC   NC3 3659   1.578  35.984   9.470
   45POPC   PO4 3660   1.057  36.374   9.349
   45POPC   GL1 3661   1.406  36.194   9.042
   45POPC   GL2 3662   1.599  36.450   8.838
   45POPC   C1A 3663   1.397  35.930   8.697
   45POPC   D2A 3664   1.086  35.845   8.368
   45POPC   C3A 3665   1.123  36.026   7.965
   45POPC   C4A 3666   1.343  36.066   7.593
   45POPC   C1B 3667   1.169  36.447   8.659
   45POPC   C2B 3668   1.054  36.470   8.243
   45POPC   C3B 3669   0.995  36.502   7.843
   45POPC   C4B 3670   1.251  36.583   7.538
   46POPC   NC3 3671  35.979  33.583   9.597
   46POPC   PO4 3672  36.336  34.077   9.448
   46POPC   GL1 3673  36.141  33.945   9.111
   46POPC   GL2 3674  36.195  33.580   9.107
   46POPC   C1A 3675  36.324  33.944   8.718
   46POPC   D2A 3676  36.289  33.679   8.369
   46POPC   C3A 3677  36.249  33.973   8.052
   46POPC   C4A 3678  36.245  33.932   7.629
   46POPC   C1B 3679  35.901  33.660   8.735
   46POPC   C2B 3680  35.804  33.861   8.350
   46POPC   C3B 3681  35.759  33.809   7.927
   46POPC   C4B 3682  35.628  33.483   7.661
   47POPC   NC3 3683  16.795   5.583   9.347
   47POPC   PO4 3684  16.503   6.223   9.306
   47POPC   GL1 3685  16.766   6.022   9.037
   47POPC   GL2 3686  16.499   5.782   8.977
   47POPC   C1A 3687  16.998   5.786   8.734
   47POPC   D2A 3688  16.844   5.660   8.337
   47POPC   C3A 3689  16.937   5.881   7.983
   47POPC   C4A 3690  16.642   6.115   7.743
   47POPC   C1B 3691  16.268   5.653   8.620
   47POPC   C2B 3692  16.314   5.667   8.187
   47POPC   C3B 3693  16.218   5.762   7.772
   47POPC   C4B 3694  16.440   5.469   7.581
   48POPC   NC3 3695  34.795  25.551   9.333
   48POPC   PO4 3696  34.190  25.224   9.415
   48POPC   GL1 3697  34.429  25.252   9.056
   48POPC   GL2 3698  34.470  25.576   8.937
   48POPC   C1A 3699  34.452  25.007   8.680
   48POPC   D2A 3700  34.271  25.124   8.286
   48POPC   C3A 3701  34.448  25.293   7.951
   48POPC   C4A 3702  34.779  25.082   7.721
   48POPC   C1B 3703  34.793  25.390   8.670
   48POPC   C2B 3704  34.881  25.277   8.235
   48POPC   C3B 3705  34.866  25.561   7.856
   48POPC   C4B 3706  34.768  25.542   7.400
   49POPC   NC3 3707  28.600  34.658   9.407
   49POPC   PO4 3708  27.948  34.842   9.549
   49POPC   GL1 3709  28.140  34.587   9.199
   49POPC   GL2 3710  28.049  34.235   9.083
   49POPC   C1A 3711  28.347  34.635   8.766
   49POPC   D2A 3712  28.698  34.669   8.435
   49POPC   C3A 3713  28.704  34.550   7.980
   49POPC   C4A 3714  28.593  34.800   7.611
   49POPC   C1B 3715  28.217  34.150   8.662
   49POPC   C2B 3716  28.247  34.430   8.296
   49POPC   C3B 3717  28.201  34.651   7.909
   49POPC   C4B 3718  27.956  34.484   7.516
   50POPC   NC3 3719   2.322  11.160   9.472
   50POPC   PO4 3720   1.599  11.099   9.474
   50POPC   GL1 3721   1.741  11.214   9.055
   50POPC   GL2 3722   1.861  11.557   8.947
   50POPC   C1A 3723   1.513  11.257   8.679
   50POPC   D2A 3724   1.738  11.268   8.313
   50POPC   C3A 3725   1.581  11.156   7.929
   50POPC   C4A 3726   1.759  11.400   7.589
   50POPC   C1B 3727   2.241  11.436   8.754
   50POPC   C2B 3728   2.258  11.253   8.342
   50POPC   C3B 3729   2.169  11.350   7.912
   50POPC   C4B 3730   2.493  11.197   7.633
   51POPC   NC3 3731   7.595  40.170   9.621
   51POPC   PO4 3732   7.166  39.637   9.518
   51POPC   GL1 3733   7.306  39.851   9.147
   51POPC   GL2 3734   7.681  39.866   9.141
   51POPC   C1A 3735   7.071  40.004   8.770
   51POPC   D2A 3736   7.252  40.255   8.390
   51POPC   C3A 3737   7.271  40.184   7.974
   51POPC   C4A 3738   7.280  39.988   7.604
   51POPC   C1B 3739   7.573  39.966   8.697
   51POPC   C2B 3740   7.719  40.062   8.256
   51POPC   C3B 3741   7.751  39.963   7.803
   51POPC   C4B 3742   7.714  39.908   7.348
   52POPC   NC3 3743   3.686  31.027   9.518
   52POPC   PO4 3744   3.001  30.808   9.435
   52POPC   GL1 3745   3.409  30.717   9.230
   52POPC   GL2 3746   3.660  30.498   9.283
   52POPC   C1A 3747   3.755  30.780   8.858
   52POPC   D2A 3748   3.621  30.752   8.415
   52POPC   C3A 3749   3.846  30.712   7.991
   52POPC   C4A 3750   3.624  30.868   7.600
   52POPC   C1B 3751   3.454  30.368   8.873
   52POPC   C2B 3752   3.717  30.256   8.518
   52POPC   C3B 3753   3.518  30.319   8.109
   52POPC   C4B 3754   3.235  30.317   7.747
   53POPC   NC3 3755  12.731  27.217   9.474
   53POPC   PO4 3756  13.023  27.775   9.390
   53POPC   GL1 3757  12.747  27.631   9.144
   53POPC   GL2 3758  12.608  27.914   8.979
   53POPC   C1A 3759  12.726  27.378   8.823
   53POPC   D2A 3760  12.539  27.528   8.441
   53POPC   C3A 3761  12.639  27.365   8.035
   53POPC   C4A 3762  12.846  27.352   7.652
   53POPC   C1B 3763  12.941  27.829   8.688
   53POPC   C2B 3764  13.009  27.913   8.253
   53POPC   C3B 3765  12.936  27.814   7.838
   53POPC   C4B 3766  12.889  27.930   7.390
   54POPC   NC3 3767   3.266  34.454   9.916
   54POPC   PO4 3768   3.796  34.552   9.450
   54POPC   GL1 3769   3.509  34.474   9.163
   54POPC   GL2 3770   3.733  34.698   8.972
   54POPC   C1A 3771   3.304  34.494   8.791
   54POPC   D2A 3772   3.433  34.675   8.435
   54POPC   C3A 3773   3.241  34.536   8.122
   54POPC   C4A 3774   3.354  34.456   7.763
   54POPC   C1B 3775   3.813  34.394   8.702
   54POPC   C2B 3776   3.979  34.311   8.303
   54POPC   C3B 3777   3.780  34.570   8.024
   54POPC   C4B 3778   3.745  34.789   7.651
   55POPC   NC3 3779  12.870   1.460   9.574
   55POPC   PO4 3780  12.433   1.063   9.355
   55POPC   GL1 3781  12.615   1.325   9.067
   55POPC   GL2 3782  12.978   1.325   9.086
   55POPC   C1A 3783  12.678   1.154   8.645
   55POPC   D2A 3784  12.750   1.208   8.223
   55POPC   C3A 3785  12.716   0.872   7.992
   55POPC   C4A 3786  12.622   0.871   7.605
   55POPC   C1B 3787  12.907   1.588   8.717
   55POPC   C2B 3788  12.999   1.669   8.269
   55POPC   C3B 3789  12.848   1.557   7.877
   55POPC   C4B 3790  12.979   1.228   7.700
   56POPC   NC3 3791   6.929  32.568   9.448
   56POPC   PO4 3792   6.561  31.968   9.543
   56POPC   GL1 3793   6.513  32.132   9.078
   56POPC   GL2 3794   6.614  32.424   9.063
   56POPC   C1A 3795   6.667  32.173   8.615
   56POPC   D2A 3796   6.850  31.950   8.277
   56POPC   C3A 3797   6.673  32.116   7.896
   56POPC   C4A 3798   6.715  31.921   7.487
   56POPC   C1B 3799   6.634  32.652   8.730
   56POPC   C2B 3800   6.351  32.786   8.455
   56POPC   C3B 3801   6.491  32.878   8.060
   56POPC   C4B 3802   6.735  32.616   7.849
   57POPC   NC3 3803  35.882  12.615   9.590
   57POPC   PO4 3804  36.500  12.863   9.418
   57POPC   GL1 3805  36.203  13.065   9.136
   57POPC   GL2 3806  36.414  13.295   8.934
   57POPC   C1A 3807  35.940  12.890   8.808
   57POPC   D2A 3808  36.043  12.708   8.391
   57POPC   C3A 3809  36.319  13.003   8.153
   57POPC   C4A 3810  36.244  13.245   7.807
   57POPC   C1B 3811  36.437  12.932   8.676
   57POPC   C2B 3812  36.562  12.617   8.395
   57POPC   C3B 3813  36.353  12.520   8.012
   57POPC   C4B 3814  36.461  12.761   7.635
   58POPC   NC3 3815   2.995  35.182   9.859
   58POPC   PO4 3816   2.573  35.573   9.483
   58POPC   GL1 3817   2.728  35.515   9.161
   58POPC   GL2 3818   2.967  35.299   9.308
   58POPC   C1A 3819   2.560  35.401   8.769
   58POPC   D2A 3820   2.382  35.304   8.360
   58POPC   C3A 3821   2.585  35.364   7.994
   58POPC   C4A 3822   2.462  35.483   7.606
   58POPC   C1B 3823   3.076  35.355   8.848
   58POPC   C2B 3824   2.931  35.448   8.413
   58POPC   C3B 3825   3.097  35.366   7.988
   58POPC   C4B 3826   2.970  35.364   7.566
   59POPC   NC3 3827  42.903   1.641   9.489
   59POPC   PO4 3828  43.056   2.309   9.673
   59POPC   GL1 3829  43.242   2.124   9.282
   59POPC   GL2 3830  43.339   1.780   9.223
   59POPC   C1A 3831  43.218   2.205   8.842
   59POPC   D2A 3832  43.383   2.131   8.449
   59POPC   C3A 3833  43.110   2.159   8.111
   59POPC   C4A 3834  43.099   2.188   7.663
   59POPC   C1B 3835  43.060   1.730   8.832
   59POPC   C2B 3836  43.159   1.547   8.425
   59POPC   C3B 3837  43.085   1.664   7.992
   59POPC   C4B 3838  43.155   1.476   7.599
   60POPC   NC3 3839   2.311  13.583   9.567
   60POPC   PO4 3840   1.733  13.953   9.394
   60POPC   GL1 3841   1.908  13.595   9.201
   60POPC   GL2 3842   2.228  13.717   9.071
   60POPC   C1A 3843   1.871  13.392   8.810
   60POPC   D2A 3844   1.890  13.244   8.400
   60POPC   C3A 3845   2.167  13.461   8.135
   60POPC   C4A 3846   2.198  13.549   7.709
   60POPC   C1B 3847   1.918  13.902   8.741
   60POPC   C2B 3848   1.769  13.742   8.335
   60POPC   C3B 3849   1.722  13.614   7.898
   60POPC   C4B 3850   1.843  13.885   7.536
   61POPC   NC3 3851  32.435   3.867   9.399
   61POPC   PO4 3852  32.080   3.339   9.399
   61POPC   GL1 3853  32.232   3.554   9.026
   61POPC   GL2 3854  32.535   3.732   8.927
   61POPC   C1A 3855  32.068   3.832   8.711
   61POPC   D2A 3856  31.723   3.763   8.423
   61POPC   C3A 3857  31.928   3.456   8.149
   61POPC   C4A 3858  32.306   3.609   7.949
   61POPC   C1B 3859  32.589   3.382   8.649
   61POPC   C2B 3860  32.503   3.232   8.228
   61POPC   C3B 3861  32.653   3.207   7.775
   61POPC   C4B 3862  32.463   3.144   7.382
   62POPC   NC3 3863  40.011  18.481   9.395
   62POPC   PO4 3864  39.769  17.833   9.472
   62POPC   GL1 3865  39.934  17.865   9.059
   62POPC   GL2 3866  40.193  18.127   9.045
   62POPC   C1A 3867  39.972  17.974   8.605
   62POPC   D2A 3868  39.919  18.399   8.446
   62POPC   C3A 3869  39.774  18.458   8.039
   62POPC   C4A 3870  39.678  18.182   7.702
   62POPC   C1B 3871  40.392  18.282   8.659
   62POPC   C2B 3872  40.391  18.470   8.256
   62POPC   C3B 3873  40.220  18.254   7.899
   62POPC   C4B 3874  40.070  18.423   7.493
   63POPC   NC3 3875   1.752  39.106   9.637
   63POPC   PO4 3876   1.857  39.750   9.546
   63POPC   GL1 3877   1.844  39.430   9.202
   63POPC   GL2 3878   1.877  39.039   9.161
   63POPC   C1A 3879   2.069  39.340   8.798
   63POPC   D2A 3880   2.140  39.129   8.374
   63POPC   C3A 3881   2.129  39.346   7.965
   63POPC   C4A 3882   2.489  39.581   7.777
   63POPC   C1B 3883   1.922  38.848   8.753
   63POPC   C2B 3884   1.710  38.866   8.342
   63POPC   C3B 3885   1.903  38.855   7.967
   63POPC   C4B 3886   1.996  39.007   7.583
   64POPC   NC3 3887  29.118  31.708   9.353
   64POPC   PO4 3888  29.642  31.259   9.525
   64POPC   GL1 3889  29.506  31.437   9.149
   64POPC   GL2 3890  29.639  31.718   9.074
   64POPC   C1A 3891  29.368  31.346   8.721
   64POPC   D2A 3892  29.146  31.061   8.433
   64POPC   C3A 3893  29.077  31.177   8.016
   64POPC   C4A 3894  28.747  31.467   7.882
   64POPC   C1B 3895  29.441  31.850   8.698
   64POPC   C2B 3896  29.296  31.668   8.288
   64POPC   C3B 3897  29.268  31.644   7.838
   64POPC   C4B 3898  29.558  31.824   7.543
   65POPC   NC3 3899  43.537  11.705   9.531
   65POPC   PO4 3900  44.127  12.074   9.454
   65POPC   GL1 3901  43.949  11.855   9.148
   65POPC   GL2 3902  43.669  12.079   9.138
   65POPC   C1A 3903  43.975  11.970   8.710
   65POPC   D2A 3904  43.720  11.856   8.344
   65POPC   C3A 3905  43.893  12.034   7.954
   65POPC   C4A 3906  43.945  12.355   7.635
   65POPC   C1B 3907  43.549  12.302   8.768
   65POPC   C2B 3908  43.684  12.355   8.361
   65POPC   C3B 3909  43.599  12.467   7.967
   65POPC   C4B 3910  43.467  12.183   7.674
   66POPC   NC3 3911  27.744  30.880   9.603
   66POPC   PO4 3912  27.220  30.473   9.386
   66POPC   GL1 3913  27.646  30.537   9.209
   66POPC   GL2 3914  27.775  30.870   9.108
   66POPC   C1A 3915  27.803  30.463   8.796
   66POPC   D2A 3916  27.573  30.546   8.420
   66POPC   C3A 3917  27.795  30.444   8.077
   66POPC   C4A 3918  27.701  30.508   7.685
   66POPC   C1B 3919  27.472  30.913   8.787
   66POPC   C2B 3920  27.419  31.079   8.387
   66POPC   C3B 3921  27.501  30.892   8.014
   66POPC   C4B 3922  27.548  30.990   7.594
   67POPC   NC3 3923  44.803  43.160   9.508
   67POPC   PO4 3924  44.217  43.433   9.414
   67POPC   GL1 3925  44.477  43.188   9.111
   67POPC   GL2 3926  44.829  43.273   9.027
   67POPC   C1A 3927  44.450  43.110   8.686
   67POPC   D2A 3928  44.371  43.185   8.284
   67POPC   C3A 3929  44.506  42.834   8.047
   67POPC   C4A 3930  44.540  42.897   7.617
   67POPC   C1B 3931  44.952  43.031   8.703
   67POPC   C2B 3932  44.932  43.031   8.283
   67POPC   C3B 3933  44.782  43.248   7.935
   67POPC   C4B 3934  44.937  43.211   7.490
   68POPC   NC3 3935  36.366   9.116   9.378
   68POPC   PO4 3936  35.848   9.317   9.686
   68POPC   GL1 3937  35.912   8.926   9.277
   68POPC   GL2 3938  36.221   8.730   9.118
   68POPC   C1A 3939  35.813   8.906   8.829
   68POPC   D2A 3940  35.986   9.089   8.425
   68POPC   C3A 3941  35.877   8.950   7.991
   68POPC   C4A 3942  36.024   9.181   7.612
   68POPC   C1B 3943  36.350   8.892   8.756
   68POPC   C2B 3944  36.515   8.965   8.381
   68POPC   C3B 3945  36.373   9.047   8.015
   68POPC   C4B 3946  36.490   9.322   7.727
   69POPC   NC3 3947  12.951   5.831   9.656
   69POPC   PO4 3948  12.388   5.614   9.419
   69POPC   GL1 3949  12.693   5.894   9.226
   69POPC   GL2 3950  13.062   5.765   9.170
   69POPC   C1A 3951  12.782   5.972   8.804
   69POPC   D2A 3952  12.875   5.789   8.414
   69POPC   C3A 3953  12.611   5.882   8.116
   69POPC   C4A 3954  12.775   5.987   7.724
   69POPC   C1B 3955  13.238   5.687   8.762
   69POPC   C2B 3956  13.249   5.450   8.341
   69POPC   C3B 3957  13.196   5.704   7.960
   69POPC   C4B 3958  13.291   6.013   7.653
   70POPC   NC3 3959  19.481   7.608   9.414
   70POPC   PO4 3960  18.856   7.528   9.552
   70POPC   GL1 3961  19.016   7.473   9.115
   70POPC   GL2 3962  19.287   7.256   9.069
   70POPC   C1A 3963  19.050   7.377   8.653
   70POPC   D2A 3964  18.772   7.390   8.328
   70POPC   C3A 3965  18.918   7.548   7.958
   70POPC   C4A 3966  18.975   7.781   7.560
   70POPC   C1B 3967  19.543   7.141   8.737
   70POPC   C2B 3968  19.481   7.289   8.359
   70POPC   C3B 3969  19.246   7.137   8.040
   70POPC   C4B 3970  19.258   7.315   7.632
   71POPC   NC3 3971  26.637  26.394   9.529
   71POPC   PO4 3972  26.684  27.103   9.493
   71POPC   GL1 3973  26.721  26.784   9.206
   71POPC   GL2 3974  27.035  26.638   9.367
   71POPC   C1A 3975  26.774  26.730   8.775
   71POPC   D2A 3976  26.858  26.937   8.358
   71POPC   C3A 3977  26.704  26.744   7.935
   71POPC   C4A 3978  26.763  26.708   7.443
   71POPC   C1B 3979  27.235  26.552   9.009
   71POPC   C2B 3980  27.236  26.647   8.578
   71POPC   C3B 3981  27.190  26.627   8.144
   71POPC   C4B 3982  27.142  26.559   7.734
   72POPC   NC3 3983  12.624  37.986   9.216
   72POPC   PO4 3984  12.671  37.388   9.502
   72POPC   GL1 3985  12.823  37.530   9.093
   72POPC   GL2 3986  13.138  37.412   9.029
   72POPC   C1A 3987  12.788  37.438   8.634
   72POPC   D2A 3988  13.124  37.404   8.347
   72POPC   C3A 3989  12.968  37.481   7.960
   72POPC   C4A 3990  13.012  37.621   7.562
   72POPC   C1B 3991  13.067  37.827   8.733
   72POPC   C2B 3992  13.025  37.923   8.291
   72POPC   C3B 3993  12.864  38.011   7.880
   72POPC   C4B 3994  13.101  38.390   7.787
   73POPC   NC3 3995  44.701  25.828   9.540
   73POPC   PO4 3996  44.649  26.515   9.332
   73POPC   GL1 3997  44.719  26.114   9.094
   73POPC   GL2 3998  44.879  25.771   9.086
   73POPC   C1A 3999  44.612  25.927   8.695
   73POPC   D2A 4000  44.440  26.088   8.375
   73POPC   C3A 4001  44.527  25.883   8.021
   73POPC   C4A 4002  44.550  25.873   7.571
   73POPC   C1B 4003   0.107  25.930   8.743
   73POPC   C2B 4004  44.963  26.078   8.320
   73POPC   C3B 4005  44.959  26.084   7.859
   73POPC   C4B 4006   0.044  25.885   7.469
   74POPC   NC3 4007  38.296   9.191   9.303
   74POPC   PO4 4008  37.843   8.811   9.632
   74POPC   GL1 4009  37.793   9.072   9.253
   74POPC   GL2 4010  37.608   8.816   9.065
   74POPC   C1A 4011  37.754   9.289   8.843
   74POPC   D2A 4012  37.604   9.084   8.463
   74POPC   C3A 4013  37.785   9.188   8.062
   74POPC   C4A 4014  37.614   9.174   7.646
   74POPC   C1B 4015  37.592   8.595   8.649
   74POPC   C2B 4016  37.805   8.650   8.250
   74POPC   C3B 4017  37.699   8.702   7.807
   74POPC   C4B 4018  37.870   8.738   7.362
   75POPC   NC3 4019  41.611  33.379   9.536
   75POPC   PO4 4020  41.958  32.779   9.427
   75POPC   GL1 4021  41.672  33.032   9.166
   75POPC   GL2 4022  41.279  33.070   9.220
   75POPC   C1A 4023  41.528  32.940   8.781
   75POPC   D2A 4024  41.417  32.647   8.490
   75POPC   C3A 4025  41.348  32.870   8.130
   75POPC   C4A 4026  41.628  32.850   7.795
   75POPC   C1B 4027  41.204  33.328   8.816
   75POPC   C2B 4028  41.423  33.316   8.415
   75POPC   C3B 4029  41.200  33.369   8.056
   75POPC   C4B 4030  41.202  33.134   7.714
   76POPC   NC3 4031  20.518   6.519   9.341
   76POPC   PO4 4032  20.588   7.167   9.245
   76POPC   GL1 4033  20.622   6.791   8.931
   76POPC   GL2 4034  20.820   6.459   8.945
   76POPC   C1A 4035  20.561   6.583   8.518
   76POPC   D2A 4036  20.401   6.886   8.274
   76POPC   C3A 4037  20.455   6.872   7.860
   76POPC   C4A 4038  20.327   7.088   7.568
   76POPC   C1B 4039  21.053   6.718   8.649
   76POPC   C2B 4040  21.030   6.826   8.202
   76POPC   C3B 4041  20.901   6.695   7.797
   76POPC   C4B 4042  20.704   6.336   7.601
   77POPC   NC3 4043   5.211  27.361   9.431
   77POPC   PO4 4044   4.701  27.775   9.376
   77POPC   GL1 4045   4.927  27.563   9.063
   77POPC   GL2 4046   4.886  27.178   9.055
   77POPC   C1A 4047   4.869  27.589   8.651
   77POPC   D2A 4048   4.827  27.875   8.338
   77POPC   C3A 4049   4.964  27.659   8.008
   77POPC   C4A 4050   5.023  27.796   7.606
   77POPC   C1B 4051   5.242  27.250   8.767
   77POPC   C2B 4052   5.538  27.258   8.450
   77POPC   C3B 4053   5.514  27.350   8.006
   77POPC   C4B 4054   5.177  27.317   7.694
   78POPC   NC3 4055   0.799   3.369   9.497
   78POPC   PO4 4056   0.317   3.896   9.538
   78POPC   GL1 4057   0.283   3.630   9.178
   78POPC   GL2 4058   0.611   3.574   9.071
   78POPC   C1A 4059   0.203   3.667   8.713
   78POPC   D2A 4060   0.525   3.735   8.361
   78POPC   C3A 4061   0.378   3.632   7.955
   78POPC   C4A 4062   0.443   3.859   7.567
   78POPC   C1B 4063   0.741   3.213   8.845
   78POPC   C2B 4064   0.884   3.262   8.464
   78POPC   C3B 4065   0.771   3.320   8.092
   78POPC   C4B 4066   0.769   3.029   7.791
   79POPC   NC3 4067   2.850  36.782   9.564
   79POPC   PO4 4068   3.049  37.401   9.372
   79POPC   GL1 4069   2.843  37.068   9.107
   79POPC   GL2 4070   2.806  36.679   9.072
   79POPC   C1A 4071   2.532  37.112   8.774
   79POPC   D2A 4072   2.386  36.986   8.381
   79POPC   C3A 4073   2.339  37.240   8.014
   79POPC   C4A 4074   2.539  37.351   7.643
   79POPC   C1B 4075   2.721  36.654   8.610
   79POPC   C2B 4076   2.737  36.740   8.132
   79POPC   C3B 4077   2.904  36.786   7.704
   79POPC   C4B 4078   3.035  36.595   7.301
   80POPC   NC3 4079  44.792  36.510   9.486
   80POPC   PO4 4080  44.366  36.944   9.682
   80POPC   GL1 4081  44.584  36.935   9.264
   80POPC   GL2 4082  44.381  36.672   9.186
   80POPC   C1A 4083  44.874  36.826   8.888
   80POPC   D2A 4084  44.952  36.681   8.441
   80POPC   C3A 4085  44.716  36.749   8.064
   80POPC   C4A 4086  44.763  37.000   7.677
   80POPC   C1B 4087  44.489  36.529   8.776
   80POPC   C2B 4088  44.346  36.623   8.405
   80POPC   C3B 4089  44.255  36.489   7.991
   80POPC   C4B 4090  44.479  36.547   7.623
   81POPC   NC3 4091  39.003  31.169   9.363
   81POPC   PO4 4092  39.486  31.475   9.540
   81POPC   GL1 4093  39.313  31.521   9.173
   81POPC   GL2 4094  39.261  31.856   9.191
   81POPC   C1A 4095  39.330  31.287   8.790
   81POPC   D2A 4096  39.223  31.390   8.379
   81POPC   C3A 4097  39.422  31.281   7.972
   81POPC   C4A 4098  39.218  31.273   7.562
   81POPC   C1B 4099  39.493  31.783   8.774
   81POPC   C2B 4100  39.332  31.917   8.401
   81POPC   C3B 4101  39.236  31.757   8.039
   81POPC   C4B 4102  39.147  31.821   7.655
   82POPC   NC3 4103   2.496  41.764   9.785
   82POPC   PO4 4104   1.892  41.458   9.614
   82POPC   GL1 4105   1.768  41.343   9.192
   82POPC   GL2 4106   2.070  41.241   9.022
   82POPC   C1A 4107   1.719  41.474   8.744
   82POPC   D2A 4108   1.983  41.311   8.435
   82POPC   C3A 4109   1.804  41.465   8.087
   82POPC   C4A 4110   1.894  41.608   7.686
   82POPC   C1B 4111   2.307  41.022   8.720
   82POPC   C2B 4112   2.476  41.113   8.343
   82POPC   C3B 4113   2.213  41.109   8.018
   82POPC   C4B 4114   2.258  41.256   7.669
   83POPC   NC3 4115  22.910   4.312   9.533
   83POPC   PO4 4116  23.327   4.824   9.378
   83POPC   GL1 4117  23.071   4.521   9.094
   83POPC   GL2 4118  22.785   4.256   9.069
   83POPC   C1A 4119  23.194   4.196   8.797
   83POPC   D2A 4120  23.210   4.420   8.430
   83POPC   C3A 4121  23.217   4.185   8.100
   83POPC   C4A 4122  23.042   4.236   7.753
   83POPC   C1B 4123  22.707   4.387   8.698
   83POPC   C2B 4124  22.740   4.211   8.331
   83POPC   C3B 4125  22.626   4.373   7.969
   83POPC   C4B 4126  22.715   4.571   7.569
   84POPC   NC3 4127   4.297   9.541   9.529
   84POPC   PO4 4128   4.106  10.197   9.660
   84POPC   GL1 4129   4.116  10.058   9.215
   84POPC   GL2 4130   4.472   9.903   9.162
   84POPC   C1A 4131   4.129   9.907   8.782
   84POPC   D2A 4132   4.020   9.571   8.522
   84POPC   C3A 4133   3.965   9.717   8.098
   84POPC   C4A 4134   4.099   9.648   7.719
   84POPC   C1B 4135   4.622   9.828   8.726
   84POPC   C2B 4136   4.461   9.710   8.306
   84POPC   C3B 4137   4.446   9.925   7.912
   84POPC   C4B 4138   4.577   9.578   7.603
   85POPC   NC3 4139   7.048  17.865   9.521
   85POPC   PO4 4140   7.479  17.439   9.560
   85POPC   GL1 4141   7.423  17.290   9.162
   85POPC   GL2 4142   7.736  17.246   9.091
   85POPC   C1A 4143   7.322  17.287   8.727
   85POPC   D2A 4144   7.344  17.630   8.393
   85POPC   C3A 4145   7.192  17.655   7.971
   85POPC   C4A 4146   7.370  17.283   7.809
   85POPC   C1B 4147   7.722  17.605   8.813
   85POPC   C2B 4148   7.869  17.663   8.386
   85POPC   C3B 4149   7.740  17.614   7.954
   85POPC   C4B 4150   7.806  17.366   7.578
   86POPC   NC3 4151  26.135  32.993   9.650
   86POPC   PO4 4152  25.500  32.839   9.410
   86POPC   GL1 4153  25.793  32.958   9.082
   86POPC   GL2 4154  26.093  33.072   9.161
   86POPC   C1A 4155  25.837  33.190   8.715
   86POPC   D2A 4156  26.041  33.004   8.374
   86POPC   C3A 4157  26.154  33.192   7.987
   86POPC   C4A 4158  26.021  32.915   7.684
   86POPC   C1B 4159  26.333  32.789   8.876
   86POPC   C2B 4160  26.516  32.876   8.472
   86POPC   C3B 4161  26.440  32.757   8.044
   86POPC   C4B 4162  26.442  32.680   7.615
   87POPC   NC3 4163   7.138  30.960   9.304
   87POPC   PO4 4164   7.673  30.637   9.493
   87POPC   GL1 4165   7.598  30.525   9.101
   87POPC   GL2 4166   7.250  30.554   9.017
   87POPC   C1A 4167   7.728  30.708   8.709
   87POPC   D2A 4168   7.901  30.785   8.273
   87POPC   C3A 4169   7.617  30.851   7.904
   87POPC   C4A 4170   7.334  30.481   7.749
   87POPC   C1B 4171   7.223  30.803   8.637
   87POPC   C2B 4172   7.213  30.719   8.191
   87POPC   C3B 4173   7.123  30.936   7.788
   87POPC   C4B 4174   7.056  31.034   7.349
   88POPC   NC3 4175  13.721  17.693   9.798
   88POPC   PO4 4176  13.308  17.261   9.461
   88POPC   GL1 4177  13.653  17.460   9.206
   88POPC   GL2 4178  13.715  17.829   9.230
   88POPC   C1A 4179  13.904  17.415   8.837
   88POPC   D2A 4180  13.779  17.444   8.418
   88POPC   C3A 4181  13.966  17.232   8.051
   88POPC   C4A 4182  14.002  17.314   7.597
   88POPC   C1B 4183  13.782  17.922   8.817
   88POPC   C2B 4184  13.680  17.939   8.404
   88POPC   C3B 4185  13.752  17.723   7.990
   88POPC   C4B 4186  14.132  17.770   7.768
   89POPC   NC3 4187  11.101  28.423   9.911
   89POPC   PO4 4188  11.495  27.992   9.552
   89POPC   GL1 4189  11.375  28.293   9.262
   89POPC   GL2 4190  11.709  28.354   9.144
   89POPC   C1A 4191  11.241  28.295   8.823
   89POPC   D2A 4192  11.241  28.076   8.428
   89POPC   C3A 4193  11.104  28.290   8.041
   89POPC   C4A 4194  11.154  28.594   7.707
   89POPC   C1B 4195  11.658  28.598   8.773
   89POPC   C2B 4196  11.498  28.503   8.379
   89POPC   C3B 4197  11.625  28.349   8.000
   89POPC   C4B 4198  11.478  28.230   7.604
   90POPC   NC3 4199  20.024   3.547   9.507
   90POPC   PO4 4200  19.306   3.749   9.493
   90POPC   GL1 4201  19.632   3.723   9.145
   90POPC   GL2 4202  19.794   3.410   9.077
   90POPC   C1A 4203  19.985   3.902   8.846
   90POPC   D2A 4204  20.157   4.061   8.430
   90POPC   C3A 4205  19.987   3.841   8.046
   90POPC   C4A 4206  20.120   3.569   7.704
   90POPC   C1B 4207  19.789   3.088   8.750
   90POPC   C2B 4208  19.829   2.954   8.348
   90POPC   C3B 4209  19.854   3.262   8.025
   90POPC   C4B 4210  19.604   3.552   7.807
   91POPC   NC3 4211  42.364  38.944   9.543
   91POPC   PO4 4212  42.584  39.614   9.504
   91POPC   GL1 4213  42.412  39.334   9.175
   91POPC   GL2 4214  42.625  39.017   9.120
   91POPC   C1A 4215  42.177  39.430   8.778
   91POPC   D2A 4216  42.340  39.445   8.332
   91POPC   C3A 4217  42.147  39.470   7.891
   91POPC   C4A 4218  42.209  39.302   7.449
   91POPC   C1B 4219  42.638  39.197   8.738
   91POPC   C2B 4220  42.580  39.003   8.357
   91POPC   C3B 4221  42.624  39.206   7.963
   91POPC   C4B 4222  42.652  39.064   7.552
   92POPC   NC3 4223  16.840   1.185   9.573
   92POPC   PO4 4224  16.353   1.554   9.241
   92POPC   GL1 4225  16.639   1.238   9.088
   92POPC   GL2 4226  16.961   1.329   9.098
   92POPC   C1A 4227  16.654   1.140   8.662
   92POPC   D2A 4228  16.409   1.420   8.375
   92POPC   C3A 4229  16.564   1.377   7.959
   92POPC   C4A 4230  16.727   0.942   7.838
   92POPC   C1B 4231  17.152   1.320   8.695
   92POPC   C2B 4232  17.048   1.107   8.308
   92POPC   C3B 4233  17.058   1.326   7.947
   92POPC   C4B 4234  17.148   1.647   7.718
   93POPC   NC3 4235  33.793  36.310   9.448
   93POPC   PO4 4236  34.446  35.933   9.534
   93POPC   GL1 4237  34.288  35.856   9.064
   93POPC   GL2 4238  33.884  35.926   9.092
   93POPC   C1A 4239  34.124  36.018   8.655
   93POPC   D2A 4240  33.835  35.936   8.299
   93POPC   C3A 4241  34.038  35.954   7.895
   93POPC   C4A 4242  34.045  36.191   7.538
   93POPC   C1B 4243  33.534  36.063   8.808
   93POPC   C2B 4244  33.308  35.912   8.432
   93POPC   C3B 4245  33.365  36.072   7.994
   93POPC   C4B 4246  33.549  36.098   7.585
   94POPC   NC3 4247  37.479  34.153   9.455
   94POPC   PO4 4248  37.812  34.788   9.402
   94POPC   GL1 4249  37.714  34.502   9.067
   94POPC   GL2 4250  37.419  34.258   8.967
   94POPC   C1A 4251  37.791  34.675   8.655
   94POPC   D2A 4252  37.783  34.915   8.275
   94POPC   C3A 4253  37.837  34.607   8.009
   94POPC   C4A 4254  37.682  34.508   7.627
   94POPC   C1B 4255  37.278  34.586   8.724
   94POPC   C2B 4256  37.338  34.697   8.328
   94POPC   C3B 4257  37.308  34.496   7.961
   94POPC   C4B 4258  37.225  34.770   7.618
   95POPC   NC3 4259  17.948  26.621   9.171
   95POPC   PO4 4260  17.442  27.002   9.516
   95POPC   GL1 4261  17.533  26.902   9.105
   95POPC   GL2 4262  17.318  26.653   9.034
   95POPC   C1A 4263  17.745  27.047   8.702
   95POPC   D2A 4264  17.768  26.845   8.262
   95POPC   C3A 4265  17.443  26.860   7.922
   95POPC   C4A 4266  17.675  26.904   7.581
   95POPC   C1B 4267  17.477  26.620   8.650
   95POPC   C2B 4268  17.265  26.576   8.298
   95POPC   C3B 4269  17.144  26.367   7.941
   95POPC   C4B 4270  17.233  26.496   7.551
   96POPC   NC3 4271   4.504  30.400   9.486
   96POPC   PO4 4272   4.263  31.009   9.538
   96POPC   GL1 4273   4.396  30.835   9.155
   96POPC   GL2 4274   4.152  30.601   9.142
   96POPC   C1A 4275   4.311  30.914   8.726
   96POPC   D2A 4276   4.029  31.077   8.430
   96POPC   C3A 4277   4.208  31.075   8.037
   96POPC   C4A 4278   4.441  30.863   7.740
   96POPC   C1B 4279   4.176  30.425   8.714
   96POPC   C2B 4280   4.332  30.567   8.282
   96POPC   C3B 4281   4.575  30.408   7.901
   96POPC   C4B 4282   4.672  30.493   7.440
   97POPC   NC3 4283  36.216  30.001   9.714
   97POPC   PO4 4284  35.604  30.133   9.641
   97POPC   GL1 4285  35.866  30.102   9.212
   97POPC   GL2 4286  36.134  29.870   9.235
   97POPC   C1A 4287  35.839  30.097   8.763
   97POPC   D2A 4288  35.937  29.751   8.487
   97POPC   C3A 4289  35.944  29.903   8.096
   97POPC   C4A 4290  36.013  29.974   7.689
   97POPC   C1B 4291  36.323  29.915   8.833
   97POPC   C2B 4292  36.312  30.097   8.412
   97POPC   C3B 4293  36.441  30.034   7.959
   97POPC   C4B 4294  36.466  29.667   7.679
   98POPC   NC3 4295  19.676  31.920   9.358
   98POPC   PO4 4296  20.060  32.471   9.441
   98POPC   GL1 4297  20.059  32.202   9.086
   98POPC   GL2 4298  19.700  32.268   9.009
   98POPC   C1A 4299  19.949  32.075   8.637
   98POPC   D2A 4300  19.640  32.262   8.396
   98POPC   C3A 4301  19.810  32.299   8.015
   98POPC   C4A 4302  19.975  32.247   7.608
   98POPC   C1B 4303  19.403  32.001   8.770
   98POPC   C2B 4304  19.170  31.994   8.408
   98POPC   C3B 4305  19.355  32.055   8.003
   98POPC   C4B 4306  19.517  32.006   7.598
   99POPC   NC3 4307  23.544  16.259   9.506
   99POPC   PO4 4308  23.981  16.861   9.486
   99POPC   GL1 4309  23.683  16.666   9.225
   99POPC   GL2 4310  23.922  16.457   9.090
   99POPC   C1A 4311  23.424  16.503   8.896
   99POPC   D2A 4312  23.264  16.513   8.487
   99POPC   C3A 4313  23.469  16.758   8.178
   99POPC   C4A 4314  23.659  16.600   7.824
   99POPC   C1B 4315  23.866  16.680   8.675
   99POPC   C2B 4316  23.998  16.776   8.236
   99POPC   C3B 4317  24.121  16.791   7.806
   99POPC   C4B 4318  23.935  16.749   7.385
  100POPC   NC3 4319  15.277  42.085   9.445
  100POPC   PO4 4320  15.045  42.715   9.534
  100POPC   GL1 4321  14.950  42.453   9.149
  100POPC   GL2 4322  14.919  42.063   9.102
  100POPC   C1A 4323  15.147  42.387   8.731
  100POPC   D2A 4324  15.325  42.485   8.316
  100POPC   C3A 4325  15.117  42.607   7.929
  100POPC   C4A 4326  15.276  42.582   7.512
  100POPC   C1B 4327  15.073  41.884   8.715
  100POPC   C2B 4328  15.277  41.959   8.318
  100POPC   C3B 4329  15.153  42.091   7.896
  100POPC   C4B 4330  14.888  42.258   7.544
  101POPC   NC3 4331   3.317  21.217   9.569
  101POPC   PO4 4332   3.524  21.841   9.582
  101POPC   GL1 4333   3.476  21.561   9.221
  101POPC   GL2 4334   3.136  21.536   9.181
  101POPC   C1A 4335   3.542  21.566   8.778
  101POPC   D2A 4336   3.767  21.545   8.398
  101POPC   C3A 4337   3.789  21.168   8.168
  101POPC   C4A 4338   3.700  21.192   7.747
  101POPC   C1B 4339   3.249  21.168   8.919
  101POPC   C2B 4340   3.312  21.193   8.466
  101POPC   C3B 4341   3.270  21.181   8.015
  101POPC   C4B 4342   3.334  20.800   7.764
  102POPC   NC3 4343  23.686  31.186   9.437
  102POPC   PO4 4344  23.688  31.924   9.307
  102POPC   GL1 4345  23.570  31.564   9.117
  102POPC   GL2 4346  23.861  31.492   9.072
  102POPC   C1A 4347  23.525  31.255   8.774
  102POPC   D2A 4348  23.667  31.349   8.391
  102POPC   C3A 4349  23.407  31.459   8.055
  102POPC   C4A 4350  23.441  31.643   7.636
  102POPC   C1B 4351  23.943  31.738   8.717
  102POPC   C2B 4352  24.073  31.632   8.305
  102POPC   C3B 4353  23.901  31.567   7.870
  102POPC   C4B 4354  23.903  31.765   7.434
  103POPC   NC3 4355  41.861  18.020   9.743
  103POPC   PO4 4356  41.455  18.548   9.530
  103POPC   GL1 4357  41.643  18.295   9.210
  103POPC   GL2 4358  41.966  18.169   9.247
  103POPC   C1A 4359  41.631  18.301   8.787
  103POPC   D2A 4360  41.384  18.308   8.442
  103POPC   C3A 4361  41.444  18.551   8.096
  103POPC   C4A 4362  41.559  18.409   7.695
  103POPC   C1B 4363  42.118  18.147   8.806
  103POPC   C2B 4364  41.900  17.984   8.463
  103POPC   C3B 4365  41.710  18.087   8.087
  103POPC   C4B 4366  41.943  18.082   7.717
  104POPC   NC3 4367  29.745  32.475   9.489
  104POPC   PO4 4368  30.173  32.060   9.706
  104POPC   GL1 4369  30.171  32.251   9.276
  104POPC   GL2 4370  29.849  32.179   9.107
  104POPC   C1A 4371  30.216  32.299   8.780
  104POPC   D2A 4372  30.198  32.462   8.326
  104POPC   C3A 4373  29.947  32.366   7.956
  104POPC   C4A 4374  30.019  32.244   7.507
  104POPC   C1B 4375  29.719  32.290   8.687
  104POPC   C2B 4376  29.664  32.085   8.306
  104POPC   C3B 4377  29.464  32.123   7.942
  104POPC   C4B 4378  29.553  32.348   7.605
  105POPC   NC3 4379   1.519   0.528   9.465
  105POPC   PO4 4380   0.936   0.596   9.796
  105POPC   GL1 4381   1.050   0.420   9.335
  105POPC   GL2 4382   1.184   0.777   9.180
  105POPC   C1A 4383   1.076   0.362   8.860
  105POPC   D2A 4384   0.975   0.273   8.411
  105POPC   C3A 4385   1.149   0.403   8.015
  105POPC   C4A 4386   0.992   0.763   7.787
  105POPC   C1B 4387   1.440   0.746   8.821
  105POPC   C2B 4388   1.456   0.609   8.397
  105POPC   C3B 4389   1.478   0.810   7.969
  105POPC   C4B 4390   1.742   0.709   7.608
  106POPC   NC3 4391   4.586  19.012   9.768
  106POPC   PO4 4392   4.113  18.709   9.496
  106POPC   GL1 4393   4.453  18.812   9.212
  106POPC   GL2 4394   4.552  19.135   9.109
  106POPC   C1A 4395   4.446  18.744   8.765
  106POPC   D2A 4396   4.411  18.969   8.377
  106POPC   C3A 4397   4.415  18.754   7.978
  106POPC   C4A 4398   4.487  18.735   7.583
  106POPC   C1B 4399   4.444  19.359   8.737
  106POPC   C2B 4400   4.518  19.459   8.310
  106POPC   C3B 4401   4.323  19.260   7.954
  106POPC   C4B 4402   4.426  19.257   7.532
  107POPC   NC3 4403  21.559  10.006   9.616
  107POPC   PO4 4404  20.926   9.789   9.545
  107POPC   GL1 4405  21.218   9.799   9.200
  107POPC   GL2 4406  21.426   9.491   9.125
  107POPC   C1A 4407  21.272   9.788   8.751
  107POPC   D2A 4408  21.615   9.772   8.459
  107POPC   C3A 4409  21.437   9.818   8.054
  107POPC   C4A 4410  21.293  10.136   7.766
  107POPC   C1B 4411  21.553   9.343   8.713
  107POPC   C2B 4412  21.759   9.319   8.280
  107POPC   C3B 4413  21.631   9.373   7.830
  107POPC   C4B 4414  21.295   9.572   7.551
  108POPC   NC3 4415   9.360  18.707   9.370
  108POPC   PO4 4416   9.407  18.110   9.387
  108POPC   GL1 4417   9.815  18.181   9.179
  108POPC   GL2 4418   9.782  18.541   9.123
  108POPC   C1A 4419   9.950  18.245   8.731
  108POPC   D2A 4420   9.716  18.305   8.334
  108POPC   C3A 4421   9.874  18.145   7.943
  108POPC   C4A 4422  10.249  17.962   7.786
  108POPC   C1B 4423   9.517  18.617   8.740
  108POPC   C2B 4424   9.533  18.787   8.320
  108POPC   C3B 4425   9.443  18.542   7.955
  108POPC   C4B 4426   9.433  18.192   7.692
  109POPC   NC3 4427  26.768  30.264   9.346
  109POPC   PO4 4428  27.034  29.618   9.440
  109POPC   GL1 4429  27.021  29.891   9.066
  109POPC   GL2 4430  26.708  29.780   9.059
  109POPC   C1A 4431  26.827  30.129   8.705
  109POPC   D2A 4432  26.679  30.204   8.289
  109POPC   C3A 4433  26.859  30.068   7.903
  109POPC   C4A 4434  26.852  29.930   7.457
  109POPC   C1B 4435  26.907  29.577   8.694
  109POPC   C2B 4436  26.866  29.684   8.286
  109POPC   C3B 4437  26.666  29.578   7.922
  109POPC   C4B 4438  26.824  29.438   7.543
  110POPC   NC3 4439  33.266  25.900   9.566
  110POPC   PO4 4440  33.485  26.435   9.182
  110POPC   GL1 4441  33.328  26.082   8.945
  110POPC   GL2 4442  33.425  25.745   9.082
  110POPC   C1A 4443  33.092  25.919   8.568
  110POPC   D2A 4444  32.898  25.768   8.162
  110POPC   C3A 4445  32.827  26.106   7.864
  110POPC   C4A 4446  32.945  26.133   7.417
  110POPC   C1B 4447  33.601  25.744   8.650
  110POPC   C2B 4448  33.393  25.641   8.249
  110POPC   C3B 4449  33.284  25.864   7.839
  110POPC   C4B 4450  33.408  25.810   7.390
  111POPC   NC3 4451  42.854  37.319   9.423
  111POPC   PO4 4452  43.323  37.873   9.396
  111POPC   GL1 4453  43.059  37.699   9.094
  111POPC   GL2 4454  42.741  37.733   9.007
  111POPC   C1A 4455  43.094  37.533   8.703
  111POPC   D2A 4456  42.957  37.492   8.301
  111POPC   C3A 4457  43.284  37.562   7.986
  111POPC   C4A 4458  43.557  37.798   7.718
  111POPC   C1B 4459  42.601  37.829   8.622
  111POPC   C2B 4460  42.509  37.690   8.229
  111POPC   C3B 4461  42.727  37.630   7.851
  111POPC   C4B 4462  43.018  37.871   7.670
  112POPC   NC3 4463  19.137  24.000   9.745
  112POPC   PO4 4464  18.750  24.495   9.457
  112POPC   GL1 4465  19.106  24.486   9.102
  112POPC   GL2 4466  18.910  24.370   8.839
  112POPC   C1A 4467  19.350  24.560   8.702
  112POPC   D2A 4468  19.092  24.542   8.366
  112POPC   C3A 4469  19.252  24.624   7.958
  112POPC   C4A 4470  19.362  24.280   7.658
  112POPC   C1B 4471  18.859  24.822   8.808
  112POPC   C2B 4472  18.759  24.939   8.420
  112POPC   C3B 4473  18.696  24.639   8.066
  112POPC   C4B 4474  18.857  24.504   7.639
  113POPC   NC3 4475   3.190  38.496   9.331
  113POPC   PO4 4476   2.604  38.774   9.452
  113POPC   GL1 4477   2.788  38.715   9.087
  113POPC   GL2 4478   2.733  38.379   9.004
  113POPC   C1A 4479   2.969  38.690   8.697
  113POPC   D2A 4480   2.878  38.429   8.353
  113POPC   C3A 4481   2.875  38.645   7.957
  113POPC   C4A 4482   2.788  38.663   7.506
  113POPC   C1B 4483   3.104  38.190   8.765
  113POPC   C2B 4484   3.231  38.033   8.363
  113POPC   C3B 4485   3.097  38.178   7.945
  113POPC   C4B 4486   2.974  38.142   7.505
  114POPC   NC3 4487  39.434  21.980   9.437
  114POPC   PO4 4488  39.143  22.559   9.712
  114POPC   GL1 4489  39.112  22.339   9.213
  114POPC   GL2 4490  38.808  22.232   9.077
  114POPC   C1A 4491  39.220  22.088   8.804
  114POPC   D2A 4492  39.406  21.862   8.439
  114POPC   C3A 4493  39.281  22.046   8.052
  114POPC   C4A 4494  39.416  22.356   7.779
  114POPC   C1B 4495  38.602  22.373   8.699
  114POPC   C2B 4496  38.798  22.529   8.336
  114POPC   C3B 4497  38.903  22.395   7.938
  114POPC   C4B 4498  38.983  22.575   7.565
  115POPC   NC3 4499  44.153  21.791   9.484
  115POPC   PO4 4500  43.741  21.343   9.613
  115POPC   GL1 4501  43.904  21.366   9.171
  115POPC   GL2 4502  44.191  21.502   9.069
  115POPC   C1A 4503  43.864  21.279   8.739
  115POPC   D2A 4504  43.781  21.569   8.408
  115POPC   C3A 4505  43.760  21.401   8.005
  115POPC   C4A 4506  43.886  21.574   7.617
  115POPC   C1B 4507  44.221  21.668   8.660
  115POPC   C2B 4508  44.245  21.602   8.196
  115POPC   C3B 4509  44.392  21.557   7.752
  115POPC   C4B 4510  44.449  21.657   7.299
  116POPC   NC3 4511   5.404   8.421   9.601
  116POPC   PO4 4512   6.039   8.316   9.548
  116POPC   GL1 4513   5.949   8.278   9.137
  116POPC   GL2 4514   5.607   8.242   9.150
  116POPC   C1A 4515   5.954   8.200   8.661
  116POPC   D2A 4516   6.077   8.354   8.234
  116POPC   C3A 4517   6.205   8.162   7.811
  116POPC   C4A 4518   5.900   8.288   7.495
  116POPC   C1B 4519   5.435   8.238   8.726
  116POPC   C2B 4520   5.564   8.182   8.260
  116POPC   C3B 4521   5.779   7.924   7.934
  116POPC   C4B 4522   5.980   7.758   7.540
  117POPC   NC3 4523   5.211  36.659   9.394
  117POPC   PO4 4524   4.970  37.281   9.495
  117POPC   GL1 4525   5.057  37.284   9.103
  117POPC   GL2 4526   4.751  37.441   9.017
  117POPC   C1A 4527   5.107  37.026   8.725
  117POPC   D2A 4528   4.901  36.786   8.374
  117POPC   C3A 4529   5.075  36.627   7.978
  117POPC   C4A 4530   4.849  36.707   7.565
  117POPC   C1B 4531   5.034  37.543   8.670
  117POPC   C2B 4532   5.260  37.333   8.336
  117POPC   C3B 4533   5.057  37.128   7.973
  117POPC   C4B 4534   4.951  37.215   7.540
  118POPC   NC3 4535   3.918   7.333   9.583
  118POPC   PO4 4536   4.546   7.538   9.577
  118POPC   GL1 4537   4.245   7.448   9.219
  118POPC   GL2 4538   3.940   7.701   9.226
  118POPC   C1A 4539   4.288   7.243   8.807
  118POPC   D2A 4540   4.176   7.408   8.412
  118POPC   C3A 4541   4.276   7.245   7.999
  118POPC   C4A 4542   4.642   7.172   7.731
  118POPC   C1B 4543   4.173   7.779   8.844
  118POPC   C2B 4544   4.200   7.941   8.432
  118POPC   C3B 4545   4.236   7.778   8.039
  118POPC   C4B 4546   4.390   7.661   7.665
  119POPC   NC3 4547  44.979  35.582   9.809
  119POPC   PO4 4548  44.390  35.386   9.422
  119POPC   GL1 4549  44.508  35.333   9.002
  119POPC   GL2 4550  44.732  35.080   9.081
  119POPC   C1A 4551  44.881  35.318   8.681
  119POPC   D2A 4552  44.914  35.314   8.280
  119POPC   C3A 4553  44.711  35.677   8.114
  119POPC   C4A 4554  44.906  35.508   7.785
  119POPC   C1B 4555  44.548  34.920   8.726
  119POPC   C2B 4556  44.399  35.101   8.376
  119POPC   C3B 4557  44.505  35.166   7.972
  119POPC   C4B 4558  44.349  35.507   7.786
  120POPC   NC3 4559   0.808  42.207   9.426
  120POPC   PO4 4560   1.464  42.340   9.417
  120POPC   GL1 4561   1.204  42.389   9.023
  120POPC   GL2 4562   0.893  42.262   8.939
  120POPC   C1A 4563   1.219  42.403   8.575
  120POPC   D2A 4564   1.388  42.170   8.231
  120POPC   C3A 4565   1.344  42.434   7.872
  120POPC   C4A 4566   1.017  42.704   7.795
  120POPC   C1B 4567   0.750  41.999   8.653
  120POPC   C2B 4568   0.922  41.916   8.295
  120POPC   C3B 4569   1.002  42.067   7.887
  120POPC   C4B 4570   1.155  42.149   7.487
  121POPC   NC3 4571  37.906  25.134   9.439
  121POPC   PO4 4572  37.471  25.660   9.483
  121POPC   GL1 4573  37.672  25.486   9.107
  121POPC   GL2 4574  38.030  25.504   9.059
  121POPC   C1A 4575  37.668  25.568   8.654
  121POPC   D2A 4576  37.851  25.468   8.250
  121POPC   C3A 4577  37.586  25.564   7.922
  121POPC   C4A 4578  37.603  25.415   7.514
  121POPC   C1B 4579  37.986  25.184   8.725
  121POPC   C2B 4580  37.713  24.988   8.373
  121POPC   C3B 4581  37.757  25.082   7.913
  121POPC   C4B 4582  38.083  25.392   7.745
  122POPC   NC3 4583  21.354  11.779   9.640
  122POPC   PO4 4584  21.696  11.157   9.509
  122POPC   GL1 4585  21.602  11.035   9.089
  122POPC   GL2 4586  21.289  11.203   8.963
  122POPC   C1A 4587  21.676  11.115   8.656
  122POPC   D2A 4588  21.521  11.448   8.410
  122POPC   C3A 4589  21.549  11.464   7.950
  122POPC   C4A 4590  21.364  11.505   7.496
  122POPC   C1B 4591  21.089  11.143   8.583
  122POPC   C2B 4592  21.207  11.091   8.173
  122POPC   C3B 4593  21.318  11.054   7.755
  122POPC   C4B 4594  21.428  10.901   7.333
  123POPC   NC3 4595  34.943  14.380   9.323
  123POPC   PO4 4596  35.505  14.673   9.432
  123POPC   GL1 4597  35.435  14.342   9.055
  123POPC   GL2 4598  35.121  14.106   8.955
  123POPC   C1A 4599  35.491  14.213   8.616
  123POPC   D2A 4600  35.630  14.449   8.279
  123POPC   C3A 4601  35.346  14.466   7.989
  123POPC   C4A 4602  35.388  14.247   7.655
  123POPC   C1B 4603  35.050  14.449   8.679
  123POPC   C2B 4604  34.911  14.328   8.307
  123POPC   C3B 4605  34.903  14.143   7.927
  123POPC   C4B 4606  34.937  14.472   7.650
  124POPC   NC3 4607  26.990  36.923   9.648
  124POPC   PO4 4608  26.425  36.802   9.438
  124POPC   GL1 4609  26.688  36.892   9.136
  124POPC   GL2 4610  27.028  36.879   9.152
  124POPC   C1A 4611  26.555  36.887   8.738
  124POPC   D2A 4612  26.734  36.766   8.394
  124POPC   C3A 4613  26.573  36.916   8.018
  124POPC   C4A 4614  26.746  36.980   7.636
  124POPC   C1B 4615  27.178  36.878   8.742
  124POPC   C2B 4616  27.212  36.612   8.403
  124POPC   C3B 4617  27.085  36.871   8.046
  124POPC   C4B 4618  27.066  36.601   7.724
  125POPC   NC3 4619  37.245  19.272   9.481
  125POPC   PO4 4620  37.747  18.890   9.444
  125POPC   GL1 4621  37.538  19.031   9.097
  125POPC   GL2 4622  37.439  19.408   9.047
  125POPC   C1A 4623  37.695  18.829   8.751
  125POPC   D2A 4624  37.653  18.642   8.382
  125POPC   C3A 4625  37.928  18.873   8.139
  125POPC   C4A 4626  37.860  19.038   7.756
  125POPC   C1B 4627  37.751  19.353   8.759
  125POPC   C2B 4628  37.620  19.197   8.383
  125POPC   C3B 4629  37.592  19.377   8.005
  125POPC   C4B 4630  37.934  19.567   7.763
  126POPC   NC3 4631  16.817  35.855   9.423
  126POPC   PO4 4632  16.598  36.616   9.479
  126POPC   GL1 4633  16.576  36.267   9.196
  126POPC   GL2 4634  16.925  36.262   9.102
  126POPC   C1A 4635  16.525  36.259   8.743
  126POPC   D2A 4636  16.645  36.187   8.312
  126POPC   C3A 4637  16.572  36.372   7.909
  126POPC   C4A 4638  16.616  36.075   7.588
  126POPC   C1B 4639  17.015  36.062   8.697
  126POPC   C2B 4640  17.149  36.143   8.286
  126POPC   C3B 4641  17.034  35.966   7.872
  126POPC   C4B 4642  17.086  36.157   7.430
  127POPC   NC3 4643  28.522  11.494   9.570
  127POPC   PO4 4644  27.905  11.741   9.651
  127POPC   GL1 4645  28.108  11.481   9.250
  127POPC   GL2 4646  28.463  11.244   9.154
  127POPC   C1A 4647  28.120  11.278   8.811
  127POPC   D2A 4648  28.187  11.110   8.438
  127POPC   C3A 4649  28.091  11.304   8.061
  127POPC   C4A 4650  28.132  11.231   7.641
  127POPC   C1B 4651  28.637  11.212   8.731
  127POPC   C2B 4652  28.574  11.418   8.320
  127POPC   C3B 4653  28.578  11.344   7.890
  127POPC   C4B 4654  28.844  11.009   7.847
  128POPC   NC3 4655  29.307  37.153   9.585
  128POPC   PO4 4656  28.822  36.774   9.486
  128POPC   GL1 4657  29.073  36.936   9.199
  128POPC   GL2 4658  29.425  36.780   9.248
  128POPC   C1A 4659  28.881  36.906   8.825
  128POPC   D2A 4660  28.796  36.944   8.439
  128POPC   C3A 4661  28.971  36.708   8.107
  128POPC   C4A 4662  28.972  36.978   7.780
  128POPC   C1B 4663  29.465  37.008   8.877
  128POPC   C2B 4664  29.336  36.929   8.478
  128POPC   C3B 4665  29.419  36.984   8.069
  128POPC   C4B 4666  29.425  36.834   7.668
  129POPC   NC3 4667  33.366  20.181   9.400
  129POPC   PO4 4668  32.934  20.700   9.563
  129POPC   GL1 4669  33.086  20.620   9.188
  129POPC   GL2 4670  32.875  20.427   9.090
  129POPC   C1A 4671  33.197  20.764   8.792
  129POPC   D2A 4672  33.020  20.894   8.415
  129POPC   C3A 4673  33.126  20.656   8.065
  129POPC   C4A 4674  32.996  20.729   7.663
  129POPC   C1B 4675  32.975  20.316   8.659
  129POPC   C2B 4676  32.870  20.107   8.255
  129POPC   C3B 4677  32.830  20.265   7.840
  129POPC   C4B 4678  32.870  20.302   7.398
  130POPC   NC3 4679  35.070  27.398   9.565
  130POPC   PO4 4680  35.617  27.745   9.412
  130POPC   GL1 4681  35.317  27.548   9.153
  130POPC   GL2 4682  34.965  27.639   9.125
  130POPC   C1A 4683  35.353  27.326   8.808
  130POPC   D2A 4684  35.615  27.477   8.508
  130POPC   C3A 4685  35.518  27.466   8.079
  130POPC   C4A 4686  35.553  27.733   7.727
  130POPC   C1B 4687  35.168  27.790   8.708
  130POPC   C2B 4688  35.212  27.826   8.244
  130POPC   C3B 4689  35.214  28.077   7.855
  130POPC   C4B 4690  35.077  27.990   7.432
  131POPC   NC3 4691  43.660  20.241   9.611
  131POPC   PO4 4692  43.887  19.670   9.437
  131POPC   GL1 4693  43.774  20.004   9.163
  131POPC   GL2 4694  44.057  20.101   8.955
  131POPC   C1A 4695  43.644  19.894   8.755
  131POPC   D2A 4696  43.874  19.868   8.403
  131POPC   C3A 4697  43.625  19.859   8.074
  131POPC   C4A 4698  43.931  20.039   7.828
  131POPC   C1B 4699  44.158  19.663   8.791
  131POPC   C2B 4700  44.343  19.539   8.388
  131POPC   C3B 4701  44.088  19.573   7.992
  131POPC   C4B 4702  44.126  19.344   7.616
  132POPC   NC3 4703  40.624  12.527   9.537
  132POPC   PO4 4704  41.010  11.894   9.378
  132POPC   GL1 4705  40.691  11.911   9.111
  132POPC   GL2 4706  40.688  12.254   9.118
  132POPC   C1A 4707  40.792  11.892   8.699
  132POPC   D2A 4708  40.610  11.739   8.336
  132POPC   C3A 4709  40.823  11.900   8.005
  132POPC   C4A 4710  41.017  12.015   7.644
  132POPC   C1B 4711  40.567  12.371   8.720
  132POPC   C2B 4712  40.827  12.276   8.364
  132POPC   C3B 4713  40.983  12.419   7.989
  132POPC   C4B 4714  40.812  12.457   7.566
  133POPC   NC3 4715  20.474  17.267   9.739
  133POPC   PO4 4716  20.504  16.505   9.648
  133POPC   GL1 4717  20.478  16.645   9.069
  133POPC   GL2 4718  20.801  16.723   8.928
  133POPC   C1A 4719  20.430  16.911   8.662
  133POPC   D2A 4720  20.314  16.672   8.295
  133POPC   C3A 4721  20.445  16.799   7.872
  133POPC   C4A 4722  20.409  16.535   7.478
  133POPC   C1B 4723  20.646  16.461   8.616
  133POPC   C2B 4724  20.823  16.618   8.271
  133POPC   C3B 4725  21.130  16.754   8.030
  133POPC   C4B 4726  21.021  17.070   7.809
  134POPC   NC3 4727  34.823  37.704   9.332
  134POPC   PO4 4728  34.195  37.530   9.374
  134POPC   GL1 4729  34.398  37.570   8.991
  134POPC   GL2 4730  34.434  37.878   9.069
  134POPC   C1A 4731  34.721  37.757   8.684
  134POPC   D2A 4732  34.635  37.943   8.328
  134POPC   C3A 4733  34.738  37.708   7.992
  134POPC   C4A 4734  34.520  37.576   7.628
  134POPC   C1B 4735  34.209  37.948   8.708
  134POPC   C2B 4736  34.108  38.018   8.320
  134POPC   C3B 4737  34.207  37.791   7.956
  134POPC   C4B 4738  34.041  37.739   7.519
  135POPC   NC3 4739   4.884  17.015   9.700
  135POPC   PO4 4740   5.430  17.361   9.550
  135POPC   GL1 4741   5.223  17.440   9.162
  135POPC   GL2 4742   5.359  17.715   8.975
  135POPC   C1A 4743   5.213  17.307   8.715
  135POPC   D2A 4744   5.308  17.438   8.310
  135POPC   C3A 4745   4.995  17.418   8.018
  135POPC   C4A 4746   4.834  17.672   7.689
  135POPC   C1B 4747   5.597  17.754   8.628
  135POPC   C2B 4748   5.456  17.918   8.233
  135POPC   C3B 4749   5.303  17.787   7.858
  135POPC   C4B 4750   5.401  17.405   7.639
  136POPC   NC3 4751   6.911  38.905   9.841
  136POPC   PO4 4752   6.596  39.363   9.484
  136POPC   GL1 4753   6.645  39.118   9.157
  136POPC   GL2 4754   6.828  38.870   9.316
  136POPC   C1A 4755   6.454  39.036   8.757
  136POPC   D2A 4756   6.163  39.162   8.442
  136POPC   C3A 4757   6.339  39.538   8.209
  136POPC   C4A 4758   6.459  39.432   7.787
  136POPC   C1B 4759   6.859  38.732   8.882
  136POPC   C2B 4760   6.933  38.837   8.455
  136POPC   C3B 4761   6.848  39.152   8.145
  136POPC   C4B 4762   6.836  39.079   7.722
  137POPC   NC3 4763   2.386  38.351   9.473
  137POPC   PO4 4764   1.813  38.654   9.695
  137POPC   GL1 4765   1.900  38.535   9.270
  137POPC   GL2 4766   2.235  38.647   9.093
  137POPC   C1A 4767   1.855  38.349   8.880
  137POPC   D2A 4768   1.943  38.413   8.464
  137POPC   C3A 4769   1.739  38.376   8.113
  137POPC   C4A 4770   1.823  38.438   7.695
  137POPC   C1B 4771   2.393  38.510   8.668
  137POPC   C2B 4772   2.390  38.422   8.209
  137POPC   C3B 4773   2.487  38.295   7.793
  137POPC   C4B 4774   2.293  38.601   7.543
  138POPC   NC3 4775  23.733  31.679   9.689
  138POPC   PO4 4776  23.802  32.380   9.718
  138POPC   GL1 4777  23.719  32.423   9.267
  138POPC   GL2 4778  24.043  32.491   9.143
  138POPC   C1A 4779  23.622  32.409   8.817
  138POPC   D2A 4780  23.723  32.124   8.451
  138POPC   C3A 4781  23.544  32.226   8.048
  138POPC   C4A 4782  23.572  32.140   7.617
  138POPC   C1B 4783  24.121  32.376   8.736
  138POPC   C2B 4784  24.032  32.571   8.352
  138POPC   C3B 4785  24.248  32.554   7.960
  138POPC   C4B 4786  23.877  32.558   7.723
  139POPC   NC3 4787  26.224  17.539   9.452
  139POPC   PO4 4788  25.673  17.740   9.671
  139POPC   GL1 4789  25.796  17.592   9.188
  139POPC   GL2 4790  26.052  17.800   9.045
  139POPC   C1A 4791  26.006  17.373   8.786
  139POPC   D2A 4792  26.013  17.557   8.355
  139POPC   C3A 4793  26.225  17.328   8.024
  139POPC   C4A 4794  26.057  17.252   7.614
  139POPC   C1B 4795  26.337  17.767   8.716
  139POPC   C2B 4796  26.514  17.707   8.302
  139POPC   C3B 4797  26.421  17.957   7.964
  139POPC   C4B 4798  26.012  17.768   7.834
  140POPC   NC3 4799  21.756  24.387   9.842
  140POPC   PO4 4800  21.201  24.364   9.488
  140POPC   GL1 4801  21.347  24.414   9.045
  140POPC   GL2 4802  21.117  24.639   8.917
  140POPC   C1A 4803  21.511  24.227   8.634
  140POPC   D2A 4804  21.537  24.398   8.216
  140POPC   C3A 4805  21.420  24.234   7.847
  140POPC   C4A 4806  21.686  24.055   7.523
  140POPC   C1B 4807  21.442  24.751   8.593
  140POPC   C2B 4808  21.467  24.881   8.151
  140POPC   C3B 4809  21.260  24.746   7.787
  140POPC   C4B 4810  21.127  24.883   7.359
  141POPC   NC3 4811   4.892  22.799   9.626
  141POPC   PO4 4812   5.421  23.106   9.347
  141POPC   GL1 4813   5.171  22.925   9.061
  141POPC   GL2 4814   4.838  23.047   9.151
  141POPC   C1A 4815   5.240  22.948   8.617
  141POPC   D2A 4816   5.375  23.260   8.321
  141POPC   C3A 4817   5.312  23.167   7.897
  141POPC   C4A 4818   5.296  22.842   7.578
  141POPC   C1B 4819   4.762  22.765   8.809
  141POPC   C2B 4820   4.924  22.555   8.453
  141POPC   C3B 4821   5.061  22.753   8.085
  141POPC   C4B 4822   4.844  23.001   7.772
  142POPC   NC3 4823  43.527  16.470   9.516
  142POPC   PO4 4824  43.849  15.906   9.726
  142POPC   GL1 4825  43.914  15.949   9.246
  142POPC   GL2 4826  43.662  16.140   9.154
  142POPC   C1A 4827  44.082  16.153   8.850
  142POPC   D2A 4828  44.231  16.012   8.432
  142POPC   C3A 4829  44.200  16.113   7.994
  142POPC   C4A 4830  44.047  15.717   7.777
  142POPC   C1B 4831  43.556  16.096   8.734
  142POPC   C2B 4832  43.491  15.916   8.323
  142POPC   C3B 4833  43.690  16.091   7.958
  142POPC   C4B 4834  43.912  16.155   7.554
  143POPC   NC3 4835   2.824  32.079   9.574
  143POPC   PO4 4836   2.214  32.288   9.553
  143POPC   GL1 4837   2.541  32.305   9.191
  143POPC   GL2 4838   2.940  32.282   9.129
  143POPC   C1A 4839   2.604  32.151   8.757
  143POPC   D2A 4840   2.552  32.365   8.374
  143POPC   C3A 4841   2.679  32.281   7.942
  143POPC   C4A 4842   2.650  32.673   7.724
  143POPC   C1B 4843   3.124  32.118   8.744
  143POPC   C2B 4844   3.031  32.156   8.315
  143POPC   C3B 4845   3.168  32.034   7.911
  143POPC   C4B 4846   2.956  32.027   7.542
  144POPC   NC3 4847  14.310   6.068   9.564
  144POPC   PO4 4848  14.628   5.457   9.420
  144POPC   GL1 4849  14.471   5.735   9.129
  144POPC   GL2 4850  14.215   5.997   9.071
  144POPC   C1A 4851  14.689   5.739   8.748
  144POPC   D2A 4852  14.512   5.741   8.351
  144POPC   C3A 4853  14.752   5.856   8.014
  144POPC   C4A 4854  14.630   5.975   7.609
  144POPC   C1B 4855  14.132   5.769   8.716
  144POPC   C2B 4856  14.000   5.901   8.317
  144POPC   C3B 4857  14.226   5.949   7.961
  144POPC   C4B 4858  14.312   5.606   7.763
  145POPC   NC3 4859   0.135  22.851   9.374
  145POPC   PO4 4860   0.735  23.229   9.566
  145POPC   GL1 4861   0.596  22.998   9.219
  145POPC   GL2 4862   0.309  23.231   9.133
  145POPC   C1A 4863   0.553  22.911   8.785
  145POPC   D2A 4864   0.688  22.599   8.504
  145POPC   C3A 4865   0.666  22.818   8.145
  145POPC   C4A 4866   0.593  22.886   7.715
  145POPC   C1B 4867   0.265  23.320   8.754
  145POPC   C2B 4868   0.502  23.276   8.381
  145POPC   C3B 4869   0.309  23.206   8.001
  145POPC   C4B 4870   0.075  22.936   7.747
  146POPC   NC3 4871  13.294  13.539   9.533
  146POPC   PO4 4872  13.978  13.327   9.486
  146POPC   GL1 4873  13.745  13.666   9.281
  146POPC   GL2 4874  13.570  13.430   9.124
  146POPC   C1A 4875  13.755  13.826   8.832
  146POPC   D2A 4876  13.790  13.677   8.392
  146POPC   C3A 4877  13.577  13.831   8.032
  146POPC   C4A 4878  13.520  13.784   7.551
  146POPC   C1B 4879  13.652  13.315   8.732
  146POPC   C2B 4880  13.524  13.197   8.339
  146POPC   C3B 4881  13.669  13.314   7.983
  146POPC   C4B 4882  13.957  13.564   7.795
  147POPC   NC3 4883  32.849  18.678   9.441
  147POPC   PO4 4884  33.421  19.007   9.515
  147POPC   GL1 4885  33.246  19.034   9.107
  147POPC   GL2 4886  33.490  19.301   9.055
  147POPC   C1A 4887  32.856  18.989   8.812
  147POPC   D2A 4888  32.718  18.819   8.396
  147POPC   C3A 4889  33.073  18.676   8.197
  147POPC   C4A 4890  33.166  18.652   7.778
  147POPC   C1B 4891  33.192  19.377   8.706
  147POPC   C2B 4892  33.071  19.191   8.314
  147POPC   C3B 4893  32.891  19.087   7.905
  147POPC   C4B 4894  32.838  19.383   7.538
  148POPC   NC3 4895  40.380   7.563   9.552
  148POPC   PO4 4896  41.016   7.500   9.685
  148POPC   GL1 4897  40.993   7.347   9.235
  148POPC   GL2 4898  40.659   7.274   9.200
  148POPC   C1A 4899  40.868   7.598   8.833
  148POPC   D2A 4900  40.808   7.830   8.462
  148POPC   C3A 4901  40.877   7.600   8.062
  148POPC   C4A 4902  40.901   7.486   7.622
  148POPC   C1B 4903  40.687   7.139   8.751
  148POPC   C2B 4904  40.685   7.012   8.318
  148POPC   C3B 4905  40.702   7.127   7.901
  148POPC   C4B 4906  40.633   7.102   7.418
  149POPC   NC3 4907   7.700  30.175   9.512
  149POPC   PO4 4908   7.014  29.886   9.462
  149POPC   GL1 4909   7.303  30.066   9.181
  149POPC   GL2 4910   7.519  29.778   9.133
  149POPC   C1A 4911   7.481  30.149   8.775
  149POPC   D2A 4912   7.505  29.890   8.435
  149POPC   C3A 4913   7.301  30.071   8.082
  149POPC   C4A 4914   7.346  29.965   7.662
  149POPC   C1B 4915   7.161  29.715   8.803
  149POPC   C2B 4916   6.965  29.783   8.373
  149POPC   C3B 4917   6.980  29.712   7.906
  149POPC   C4B 4918   7.089  29.569   7.450
  150POPC   NC3 4919   1.073  37.485   9.526
  150POPC   PO4 4920   1.318  38.019   9.644
  150POPC   GL1 4921   1.228  37.882   9.253
  150POPC   GL2 4922   1.428  37.609   9.194
  150POPC   C1A 4923   1.156  37.921   8.844
  150POPC   D2A 4924   1.131  37.694   8.480
  150POPC   C3A 4925   1.075  37.886   8.126
  150POPC   C4A 4926   0.923  37.853   7.758
  150POPC   C1B 4927   1.413  37.426   8.824
  150POPC   C2B 4928   1.582  37.449   8.447
  150POPC   C3B 4929   1.355  37.430   8.098
  150POPC   C4B 4930   1.487  37.608   7.739
  151POPC   NC3 4931  41.900   8.026   9.493
  151POPC   PO4 4932  42.257   8.564   9.627
  151POPC   GL1 4933  42.084   8.422   9.207
  151POPC   GL2 4934  42.172   8.079   9.065
  151POPC   C1A 4935  42.209   8.482   8.767
  151POPC   D2A 4936  42.466   8.335   8.451
  151POPC   C3A 4937  42.319   8.332   8.043
  151POPC   C4A 4938  42.553   8.227   7.726
  151POPC   C1B 4939  42.089   7.819   8.687
  151POPC   C2B 4940  41.966   7.842   8.259
  151POPC   C3B 4941  42.174   7.853   7.861
  151POPC   C4B 4942  42.206   7.965   7.415
  152POPC   NC3 4943  41.717  21.903   9.477
  152POPC   PO4 4944  41.355  22.475   9.504
  152POPC   GL1 4945  41.567  22.298   9.146
  152POPC   GL2 4946  41.440  21.971   9.056
  152POPC   C1A 4947  41.601  22.343   8.697
  152POPC   D2A 4948  41.823  22.472   8.323
  152POPC   C3A 4949  41.620  22.374   7.944
  152POPC   C4A 4950  41.210  22.467   7.876
  152POPC   C1B 4951  41.201  21.980   8.684
  152POPC   C2B 4952  41.307  22.115   8.277
  152POPC   C3B 4953  41.424  21.852   7.929
  152POPC   C4B 4954  41.780  21.744   7.698
  153POPC   NC3 4955  28.244  22.653   9.416
  153POPC   PO4 4956  28.339  23.271   9.566
  153POPC   GL1 4957  28.261  23.102   9.124
  153POPC   GL2 4958  28.227  22.761   8.937
  153POPC   C1A 4959  28.514  23.122   8.743
  153POPC   D2A 4960  28.514  22.789   8.446
  153POPC   C3A 4961  28.251  22.976   8.154
  153POPC   C4A 4962  28.308  23.046   7.724
  153POPC   C1B 4963  27.967  22.662   8.600
  153POPC   C2B 4964  27.761  22.606   8.222
  153POPC   C3B 4965  28.019  22.605   7.877
  153POPC   C4B 4966  28.464  22.566   7.889
  154POPC   NC3 4967   6.025  44.580   9.642
  154POPC   PO4 4968   5.601   0.106   9.592
  154POPC   GL1 4969   5.784   0.018   9.178
  154POPC   GL2 4970   5.904  44.664   9.153
  154POPC   C1A 4971   5.927  44.966   8.728
  154POPC   D2A 4972   5.747  44.724   8.356
  154POPC   C3A 4973   5.826  44.854   7.958
  154POPC   C4A 4974   5.985  44.743   7.568
  154POPC   C1B 4975   5.752  44.475   8.797
  154POPC   C2B 4976   5.909  44.237   8.471
  154POPC   C3B 4977   5.992  44.347   8.053
  154POPC   C4B 4978   5.821  44.265   7.638
  155POPC   NC3 4979  14.137  34.500   9.475
  155POPC   PO4 4980  13.495  34.581   9.469
  155POPC   GL1 4981  13.359  34.586   9.085
  155POPC   GL2 4982  13.757  34.579   9.015
  155POPC   C1A 4983  13.401  34.517   8.666
  155POPC   D2A 4984  13.679  34.722   8.369
  155POPC   C3A 4985  13.594  34.706   7.924
  155POPC   C4A 4986  13.360  34.821   7.519
  155POPC   C1B 4987  13.861  34.291   8.660
  155POPC   C2B 4988  13.953  34.326   8.212
  155POPC   C3B 4989  13.833  34.215   7.824
  155POPC   C4B 4990  13.804  34.503   7.476
  156POPC   NC3 4991  44.915   3.241   9.448
  156POPC   PO4 4992  44.489   2.703   9.344
  156POPC   GL1 4993  44.599   2.519   9.017
  156POPC   GL2 4994  44.926   2.410   9.054
  156POPC   C1A 4995  44.609   2.748   8.621
  156POPC   D2A 4996   0.012   2.852   8.417
  156POPC   C3A 4997   0.059   2.656   8.036
  156POPC   C4A 4998  44.795   2.774   7.751
  156POPC   C1B 4999  44.876   2.317   8.609
  156POPC   C2B 5000  44.881   2.205   8.172
  156POPC   C3B 5001  44.712   2.270   7.756
  156POPC   C4B 5002  44.863   2.415   7.347
  157POPC   NC3 5003  23.334  20.969   9.191
  157POPC   PO4 5004  23.673  21.454   9.490
  157POPC   GL1 5005  23.818  21.237   9.113
  157POPC   GL2 5006  23.565  21.341   8.927
  157POPC   C1A 5007  23.963  21.189   8.656
  157POPC   D2A 5008  23.893  21.406   8.246
  157POPC   C3A 5009  24.147  21.228   7.923
  157POPC   C4A 5010  24.068  21.323   7.484
  157POPC   C1B 5011  23.448  21.173   8.524
  157POPC   C2B 5012  23.643  20.967   8.171
  157POPC   C3B 5013  23.663  21.200   7.789
  157POPC   C4B 5014  23.431  21.527   7.924
  158POPC   NC3 5015  39.300  26.504   9.493
  158POPC   PO4 5016  38.866  27.071   9.498
  158POPC   GL1 5017  39.118  26.869   9.137
  158POPC   GL2 5018  39.462  26.682   9.064
  158POPC   C1A 5019  39.305  27.023   8.732
  158POPC   D2A 5020  39.148  27.175   8.359
  158POPC   C3A 5021  39.390  27.111   8.042
  158POPC   C4A 5022  39.424  27.196   7.658
  158POPC   C1B 5023  39.211  26.517   8.732
  158POPC   C2B 5024  39.322  26.642   8.328
  158POPC   C3B 5025  39.599  26.639   7.967
  158POPC   C4B 5026  39.376  26.692   7.642
  159POPC   NC3 5027   9.495  41.755   9.488
  159POPC   PO4 5028   9.949  41.391   9.278
  159POPC   GL1 5029   9.672  41.607   9.029
  159POPC   GL2 5030   9.784  41.964   9.112
  159POPC   C1A 5031   9.712  41.409   8.645
  159POPC   D2A 5032   9.840  41.213   8.249
  159POPC   C3A 5033   9.725  41.518   7.916
  159POPC   C4A 5034   9.715  41.607   7.456
  159POPC   C1B 5035   9.930  41.894   8.701
  159POPC   C2B 5036  10.037  41.686   8.329
  159POPC   C3B 5037  10.108  41.915   7.974
  159POPC   C4B 5038   9.870  42.057   7.635
  160POPC   NC3 5039  24.850  32.564   9.442
  160POPC   PO4 5040  25.207  32.045   9.440
  160POPC   GL1 5041  25.181  32.356   9.108
  160POPC   GL2 5042  25.475  32.527   9.016
  160POPC   C1A 5043  25.095  32.435   8.672
  160POPC   D2A 5044  25.294  32.383   8.274
  160POPC   C3A 5045  25.134  32.193   7.886
  160POPC   C4A 5046  24.872  31.934   7.593
  160POPC   C1B 5047  25.574  32.151   8.799
  160POPC   C2B 5048  25.778  32.186   8.406
  160POPC   C3B 5049  25.653  32.166   7.982
  160POPC   C4B 5050  25.542  32.137   7.564
  161POPC   NC3 5051  11.002  36.583   9.437
  161POPC   PO4 5052  11.303  37.220   9.531
  161POPC   GL1 5053  11.215  36.980   9.183
  161POPC   GL2 5054  11.462  36.745   9.224
  161POPC   C1A 5055  11.058  36.867   8.768
  161POPC   D2A 5056  10.987  37.091   8.383
  161POPC   C3A 5057  11.245  37.120   8.006
  161POPC   C4A 5058  11.232  37.104   7.541
  161POPC   C1B 5059  11.532  36.720   8.768
  161POPC   C2B 5060  11.349  36.714   8.317
  161POPC   C3B 5061  11.368  36.670   7.834
  161POPC   C4B 5062  11.531  36.575   7.417
  162POPC   NC3 5063  37.119  11.502   9.462
  162POPC   PO4 5064  36.598  11.046   9.538
  162POPC   GL1 5065  36.876  11.036   9.202
  162POPC   GL2 5066  37.056  11.281   9.025
  162POPC   C1A 5067  36.750  10.978   8.764
  162POPC   D2A 5068  36.501  11.123   8.428
  162POPC   C3A 5069  36.678  11.040   8.029
  162POPC   C4A 5070  37.030  11.214   7.803
  162POPC   C1B 5071  36.733  11.499   8.757
  162POPC   C2B 5072  36.569  11.640   8.331
  162POPC   C3B 5073  36.631  11.545   7.880
  162POPC   C4B 5074  36.870  11.549   7.461
  163POPC   NC3 5075  43.674   9.584   9.543
  163POPC   PO4 5076  44.304   9.597   9.363
  163POPC   GL1 5077  43.927   9.856   9.166
  163POPC   GL2 5078  43.548   9.957   9.179
  163POPC   C1A 5079  43.785   9.907   8.735
  163POPC   D2A 5080  44.037   9.722   8.442
  163POPC   C3A 5081  44.039   9.890   8.058
  163POPC   C4A 5082  43.865   9.743   7.710
  163POPC   C1B 5083  43.447   9.570   8.924
  163POPC   C2B 5084  43.549   9.487   8.490
  163POPC   C3B 5085  43.578   9.606   8.099
  163POPC   C4B 5086  43.605   9.272   7.790
  164POPC   NC3 5087  37.299  36.702   9.403
  164POPC   PO4 5088  36.721  37.062   9.463
  164POPC   GL1 5089  36.854  36.756   9.180
  164POPC   GL2 5090  37.074  36.998   9.045
  164POPC   C1A 5091  36.757  36.565   8.822
  164POPC   D2A 5092  36.694  36.803   8.447
  164POPC   C3A 5093  36.881  36.677   8.096
  164POPC   C4A 5094  37.014  36.550   7.720
  164POPC   C1B 5095  37.169  36.824   8.636
  164POPC   C2B 5096  37.247  37.024   8.248
  164POPC   C3B 5097  37.029  37.084   7.859
  164POPC   C4B 5098  36.738  37.143   7.502
  165POPC   NC3 5099  22.544  21.756   9.493
  165POPC   PO4 5100  21.934  22.157   9.481
  165POPC   GL1 5101  22.174  22.197   9.130
  165POPC   GL2 5102  22.511  22.115   9.149
  165POPC   C1A 5103  22.167  22.433   8.779
  165POPC   D2A 5104  21.869  22.424   8.444
  165POPC   C3A 5105  21.890  22.113   8.132
  165POPC   C4A 5106  22.084  22.262   7.752
  165POPC   C1B 5107  22.417  21.925   8.759
  165POPC   C2B 5108  22.316  22.128   8.391
  165POPC   C3B 5109  22.522  22.190   8.016
  165POPC   C4B 5110  22.672  21.894   7.742
  166POPC   NC3 5111  37.932  27.440   9.271
  166POPC   PO4 5112  37.408  27.847   9.498
  166POPC   GL1 5113  37.487  27.773   9.102
  166POPC   GL2 5114  37.782  27.936   9.082
  166POPC   C1A 5115  37.491  27.620   8.683
  166POPC   D2A 5116  37.544  27.782   8.277
  166POPC   C3A 5117  37.540  27.449   7.960
  166POPC   C4A 5118  37.453  27.277   7.538
  166POPC   C1B 5119  37.958  27.852   8.691
  166POPC   C2B 5120  38.102  27.956   8.288
  166POPC   C3B 5121  37.881  27.880   7.900
  166POPC   C4B 5122  37.571  27.801   7.582
  167POPC   NC3 5123  42.503  43.490   9.400
  167POPC   PO4 5124  42.476  44.199   9.353
  167POPC   GL1 5125  42.429  43.874   9.056
  167POPC   GL2 5126  42.577  44.066   8.808
  167POPC   C1A 5127  42.269  43.676   8.667
  167POPC   D2A 5128  42.180  43.854   8.225
  167POPC   C3A 5129  42.296  43.596   7.836
  167POPC   C4A 5130  42.309  43.600   7.378
  167POPC   C1B 5131  42.093  44.142   8.747
  167POPC   C2B 5132  41.869  44.343   8.407
  167POPC   C3B 5133  41.992  44.341   7.969
  167POPC   C4B 5134  42.133  44.038   7.642
  168POPC   NC3 5135  12.958  24.115   9.431
  168POPC   PO4 5136  12.537  24.584   9.698
  168POPC   GL1 5137  12.638  24.701   9.187
  168POPC   GL2 5138  12.948  24.472   9.082
  168POPC   C1A 5139  12.666  24.652   8.718
  168POPC   D2A 5140  12.886  24.523   8.321
  168POPC   C3A 5141  12.712  24.770   7.991
  168POPC   C4A 5142  12.546  24.774   7.603
  168POPC   C1B 5143  12.856  24.146   8.710
  168POPC   C2B 5144  12.629  24.099   8.292
  168POPC   C3B 5145  12.603  24.280   7.892
  168POPC   C4B 5146  12.982  24.421   7.725
  169POPC   NC3 5147   5.851  22.530   9.719
  169POPC   PO4 5148   5.385  22.192   9.369
  169POPC   GL1 5149   5.609  22.198   9.022
  169POPC   GL2 5150   5.924  22.058   9.065
  169POPC   C1A 5151   5.726  22.095   8.600
  169POPC   D2A 5152   6.007  21.960   8.312
  169POPC   C3A 5153   5.818  22.236   8.024
  169POPC   C4A 5154   5.674  22.342   7.600
  169POPC   C1B 5155   6.177  22.322   8.727
  169POPC   C2B 5156   6.443  22.250   8.347
  169POPC   C3B 5157   6.335  22.127   7.932
  169POPC   C4B 5158   6.016  21.880   7.726
  170POPC   NC3 5159  43.814  23.525   9.718
  170POPC   PO4 5160  44.351  23.900   9.508
  170POPC   GL1 5161  44.081  23.663   9.198
  170POPC   GL2 5162  43.745  23.502   9.211
  170POPC   C1A 5163  44.193  23.503   8.771
  170POPC   D2A 5164  44.088  23.688   8.376
  170POPC   C3A 5165  44.268  23.701   7.959
  170POPC   C4A 5166  44.037  23.709   7.551
  170POPC   C1B 5167  43.699  23.688   8.801
  170POPC   C2B 5168  43.596  23.535   8.398
  170POPC   C3B 5169  43.717  23.587   7.972
  170POPC   C4B 5170  43.556  23.434   7.585
  171POPC   NC3 5171  28.086   2.237   9.333
  171POPC   PO4 5172  27.505   2.027   9.555
  171POPC   GL1 5173  27.614   2.090   9.154
  171POPC   GL2 5174  27.357   2.313   9.125
  171POPC   C1A 5175  27.762   2.241   8.745
  171POPC   D2A 5176  27.589   2.405   8.354
  171POPC   C3A 5177  27.749   2.234   7.958
  171POPC   C4A 5178  27.905   1.850   7.738
  171POPC   C1B 5179  27.247   2.210   8.710
  171POPC   C2B 5180  27.053   2.394   8.309
  171POPC   C3B 5181  27.238   2.293   7.891
  171POPC   C4B 5182  27.389   1.898   7.759
  172POPC   NC3 5183  23.194  18.811   9.527
  172POPC   PO4 5184  23.874  18.971   9.519
  172POPC   GL1 5185  23.687  19.074   9.130
  172POPC   GL2 5186  23.378  19.210   9.244
  172POPC   C1A 5187  23.826  18.995   8.713
  172POPC   D2A 5188  23.757  18.797   8.272
  172POPC   C3A 5189  24.025  18.965   7.962
  172POPC   C4A 5190  23.945  19.308   7.733
  172POPC   C1B 5191  23.307  19.327   8.839
  172POPC   C2B 5192  23.394  19.099   8.483
  172POPC   C3B 5193  23.307  18.941   8.105
  172POPC   C4B 5194  23.555  18.982   7.773
  173POPC   NC3 5195  33.014  15.679   9.730
  173POPC   PO4 5196  33.106  15.100   9.426
  173POPC   GL1 5197  33.317  15.050   9.057
  173POPC   GL2 5198  33.070  14.810   8.943
  173POPC   C1A 5199  33.375  15.101   8.620
  173POPC   D2A 5200  33.134  15.294   8.307
  173POPC   C3A 5201  33.222  15.089   7.971
  173POPC   C4A 5202  33.338  15.111   7.580
  173POPC   C1B 5203  32.846  15.091   8.680
  173POPC   C2B 5204  32.716  15.030   8.266
  173POPC   C3B 5205  32.728  15.208   7.877
  173POPC   C4B 5206  32.435  15.277   7.531
  174POPC   NC3 5207  35.363  40.350   9.508
  174POPC   PO4 5208  35.138  40.923   9.458
  174POPC   GL1 5209  35.487  40.877   9.174
  174POPC   GL2 5210  35.727  40.602   9.109
  174POPC   C1A 5211  35.419  40.888   8.737
  174POPC   D2A 5212  35.187  41.039   8.379
  174POPC   C3A 5213  35.465  41.087   8.030
  174POPC   C4A 5214  35.381  40.824   7.698
  174POPC   C1B 5215  35.873  40.649   8.669
  174POPC   C2B 5216  35.687  40.593   8.236
  174POPC   C3B 5217  35.746  40.480   7.803
  174POPC   C4B 5218  35.565  40.446   7.361
  175POPC   NC3 5219  34.685   9.265   9.367
  175POPC   PO4 5220  34.509   8.620   9.474
  175POPC   GL1 5221  34.482   8.867   9.132
  175POPC   GL2 5222  34.196   9.083   9.201
  175POPC   C1A 5223  34.749   8.974   8.764
  175POPC   D2A 5224  34.849   8.788   8.363
  175POPC   C3A 5225  34.811   8.956   7.939
  175POPC   C4A 5226  34.821   9.109   7.521
  175POPC   C1B 5227  34.336   9.291   8.812
  175POPC   C2B 5228  34.466   9.189   8.379
  175POPC   C3B 5229  34.292   9.146   7.956
  175POPC   C4B 5230  34.345   8.877   7.603
  176POPC   NC3 5231  36.987   7.771   9.454
  176POPC   PO4 5232  36.565   7.350   9.750
  176POPC   GL1 5233  36.755   7.362   9.307
  176POPC   GL2 5234  36.735   7.136   9.097
  176POPC   C1A 5235  36.815   7.576   8.846
  176POPC   D2A 5236  36.887   7.432   8.407
  176POPC   C3A 5237  36.839   7.659   7.992
  176POPC   C4A 5238  36.777   7.615   7.522
  176POPC   C1B 5239  37.110   7.134   8.824
  176POPC   C2B 5240  37.164   6.992   8.411
  176POPC   C3B 5241  36.944   7.070   8.034
  176POPC   C4B 5242  37.043   7.180   7.616
  177POPC   NC3 5243  40.057  16.413   9.484
  177POPC   PO4 5244  40.016  17.016   9.874
  177POPC   GL1 5245  39.862  16.915   9.351
  177POPC   GL2 5246  40.092  16.696   9.074
  177POPC   C1A 5247  39.748  16.965   8.859
  177POPC   D2A 5248  39.751  16.571   8.572
  177POPC   C3A 5249  39.936  16.554   8.151
  177POPC   C4A 5250  39.996  16.787   7.762
  177POPC   C1B 5251  40.215  16.863   8.664
  177POPC   C2B 5252  40.368  16.818   8.249
  177POPC   C3B 5253  40.372  17.100   7.912
  177POPC   C4B 5254  40.341  17.022   7.428
  178POPC   NC3 5255  13.102   0.493   9.675
  178POPC   PO4 5256  13.746   0.294   9.538
  178POPC   GL1 5257  13.666   0.373   9.135
  178POPC   GL2 5258  13.412   0.086   9.140
  178POPC   C1A 5259  13.696   0.642   8.751
  178POPC   D2A 5260  13.561   0.904   8.385
  178POPC   C3A 5261  13.723   0.728   7.996
  178POPC   C4A 5262  13.768   0.288   7.814
  178POPC   C1B 5263  13.343   0.264   8.757
  178POPC   C2B 5264  13.439   0.415   8.344
  178POPC   C3B 5265  13.289   0.220   7.987
  178POPC   C4B 5266  13.293   0.332   7.575
  179POPC   NC3 5267  34.434   7.480   9.522
  179POPC   PO4 5268  34.865   6.957   9.524
  179POPC   GL1 5269  34.774   7.308   9.172
  179POPC   GL2 5270  35.036   7.505   9.054
  179POPC   C1A 5271  34.446   7.561   8.883
  179POPC   D2A 5272  34.419   7.717   8.451
  179POPC   C3A 5273  34.246   7.509   8.107
  179POPC   C4A 5274  34.335   7.398   7.692
  179POPC   C1B 5275  34.909   7.549   8.669
  179POPC   C2B 5276  34.957   7.591   8.256
  179POPC   C3B 5277  34.818   7.411   7.879
  179POPC   C4B 5278  34.804   7.400   7.425
  180POPC   NC3 5279  35.489  21.911   9.439
  180POPC   PO4 5280  35.205  22.556   9.489
  180POPC   GL1 5281  35.120  22.325   9.134
  180POPC   GL2 5282  35.211  22.048   9.058
  180POPC   C1A 5283  35.301  22.364   8.677
  180POPC   D2A 5284  35.379  22.150   8.332
  180POPC   C3A 5285  35.513  22.290   7.969
  180POPC   C4A 5286  35.421  22.393   7.555
  180POPC   C1B 5287  35.192  21.829   8.708
  180POPC   C2B 5288  35.343  21.650   8.346
  180POPC   C3B 5289  35.266  21.814   7.958
  180POPC   C4B 5290  35.170  21.945   7.552
  181POPC   NC3 5291   0.071  42.572   9.380
  181POPC   PO4 5292   0.795  42.644   9.284
  181POPC   GL1 5293   0.474  42.539   9.036
  181POPC   GL2 5294   0.387  42.228   9.104
  181POPC   C1A 5295   0.561  42.495   8.601
  181POPC   D2A 5296   0.808  42.424   8.232
  181POPC   C3A 5297   0.534  42.263   7.920
  181POPC   C4A 5298   0.269  42.299   7.494
  181POPC   C1B 5299   0.254  42.048   8.722
  181POPC   C2B 5300   0.398  41.871   8.282
  181POPC   C3B 5301   0.211  41.903   7.839
  181POPC   C4B 5302   0.195  41.813   7.344
  182POPC   NC3 5303  12.554  13.234   9.229
  182POPC   PO4 5304  12.813  13.722   9.532
  182POPC   GL1 5305  12.811  13.658   9.124
  182POPC   GL2 5306  13.046  13.390   9.105
  182POPC   C1A 5307  12.797  13.646   8.669
  182POPC   D2A 5308  12.750  13.909   8.291
  182POPC   C3A 5309  12.596  13.677   7.975
  182POPC   C4A 5310  12.750  13.453   7.705
  182POPC   C1B 5311  13.248  13.768   8.923
  182POPC   C2B 5312  13.315  13.652   8.548
  182POPC   C3B 5313  13.148  13.547   8.183
  182POPC   C4B 5314  13.098  13.814   7.871
  183POPC   NC3 5315  12.865   6.777   9.342
  183POPC   PO4 5316  12.587   6.205   9.662
  183POPC   GL1 5317  12.553   6.386   9.254
  183POPC   GL2 5318  12.924   6.348   9.093
  183POPC   C1A 5319  12.440   6.380   8.825
  183POPC   D2A 5320  12.653   6.313   8.423
  183POPC   C3A 5321  12.699   6.661   8.113
  183POPC   C4A 5322  12.632   6.686   7.659
  183POPC   C1B 5323  12.974   6.647   8.728
  183POPC   C2B 5324  13.166   6.663   8.329
  183POPC   C3B 5325  13.199   6.902   7.958
  183POPC   C4B 5326  13.232   7.151   7.603
  184POPC   NC3 5327  11.397  39.597   9.492
  184POPC   PO4 5328  10.979  40.090   9.329
  184POPC   GL1 5329  11.056  39.716   9.076
  184POPC   GL2 5330  11.401  39.863   8.988
  184POPC   C1A 5331  11.153  39.635   8.624
  184POPC   D2A 5332  11.443  39.894   8.418
  184POPC   C3A 5333  11.548  39.816   8.030
  184POPC   C4A 5334  11.292  40.073   7.858
  184POPC   C1B 5335  11.075  40.123   8.696
  184POPC   C2B 5336  11.002  40.216   8.258
  184POPC   C3B 5337  10.835  40.333   7.847
  184POPC   C4B 5338  10.958  40.196   7.415
  185POPC   NC3 5339   8.696  42.547   9.513
  185POPC   PO4 5340   7.972  42.555   9.471
  185POPC   GL1 5341   8.322  42.484   9.179
  185POPC   GL2 5342   8.422  42.098   9.124
  185POPC   C1A 5343   8.533  42.469   8.797
  185POPC   D2A 5344   8.441  42.133   8.550
  185POPC   C3A 5345   8.358  42.230   8.139
  185POPC   C4A 5346   8.552  42.258   7.742
  185POPC   C1B 5347   8.034  42.182   8.872
  185POPC   C2B 5348   7.804  42.201   8.475
  185POPC   C3B 5349   7.863  42.454   8.102
  185POPC   C4B 5350   8.034  42.290   7.737
  186POPC   NC3 5351   2.522  19.763   9.516
  186POPC   PO4 5352   3.116  19.811   9.689
  186POPC   GL1 5353   2.992  19.719   9.203
  186POPC   GL2 5354   2.700  19.581   9.073
  186POPC   C1A 5355   2.991  19.914   8.752
  186POPC   D2A 5356   2.620  19.873   8.464
  186POPC   C3A 5357   2.606  19.973   8.012
  186POPC   C4A 5358   2.588  20.182   7.587
  186POPC   C1B 5359   2.616  19.318   8.727
  186POPC   C2B 5360   2.517  19.399   8.303
  186POPC   C3B 5361   2.742  19.488   7.928
  186POPC   C4B 5362   2.918  19.801   7.619
  187POPC   NC3 5363   8.262  40.509   9.531
  187POPC   PO4 5364   7.717  40.947   9.368
  187POPC   GL1 5365   8.094  41.001   9.143
  187POPC   GL2 5366   8.426  40.859   9.186
  187POPC   C1A 5367   8.159  40.805   8.741
  187POPC   D2A 5368   7.912  40.907   8.404
  187POPC   C3A 5369   8.144  40.861   8.057
  187POPC   C4A 5370   8.005  40.815   7.686
  187POPC   C1B 5371   8.628  40.625   8.827
  187POPC   C2B 5372   8.558  40.696   8.408
  187POPC   C3B 5373   8.649  40.768   8.007
  187POPC   C4B 5374   8.435  40.550   7.706
  188POPC   NC3 5375  15.802  29.140   9.506
  188POPC   PO4 5376  15.081  29.111   9.468
  188POPC   GL1 5377  15.228  29.042   9.098
  188POPC   GL2 5378  15.570  28.928   9.120
  188POPC   C1A 5379  15.046  29.141   8.717
  188POPC   D2A 5380  14.881  29.211   8.304
  188POPC   C3A 5381  15.001  29.327   7.892
  188POPC   C4A 5382  14.877  29.053   7.552
  188POPC   C1B 5383  15.563  29.142   8.741
  188POPC   C2B 5384  15.438  29.356   8.403
  188POPC   C3B 5385  15.493  29.191   8.014
  188POPC   C4B 5386  15.406  29.192   7.614
  189POPC   NC3 5387  20.252  39.858   9.280
  189POPC   PO4 5388  20.731  40.065   9.697
  189POPC   GL1 5389  20.714  40.035   9.240
  189POPC   GL2 5390  20.507  40.296   9.120
  189POPC   C1A 5391  20.611  39.938   8.761
  189POPC   D2A 5392  20.372  39.756   8.418
  189POPC   C3A 5393  20.572  39.786   8.034
  189POPC   C4A 5394  20.825  39.978   7.685
  189POPC   C1B 5395  20.305  40.385   8.730
  189POPC   C2B 5396  20.430  40.234   8.324
  189POPC   C3B 5397  20.398  40.234   7.863
  189POPC   C4B 5398  20.234  40.390   7.492
  190POPC   NC3 5399  15.398  24.938   9.335
  190POPC   PO4 5400  15.560  24.217   9.447
  190POPC   GL1 5401  15.326  24.448   9.108
  190POPC   GL2 5402  14.932  24.475   9.084
  190POPC   C1A 5403  15.236  24.344   8.687
  190POPC   D2A 5404  15.337  24.548   8.302
  190POPC   C3A 5405  15.292  24.300   7.942
  190POPC   C4A 5406  15.138  24.613   7.649
  190POPC   C1B 5407  14.733  24.428   8.710
  190POPC   C2B 5408  14.792  24.588   8.320
  190POPC   C3B 5409  14.782  24.392   7.963
  190POPC   C4B 5410  14.895  24.177   7.615
  191POPC   NC3 5411  24.480  38.750   9.763
  191POPC   PO4 5412  24.603  39.378   9.563
  191POPC   GL1 5413  24.638  39.298   9.177
  191POPC   GL2 5414  24.575  39.619   9.052
  191POPC   C1A 5415  24.720  39.213   8.768
  191POPC   D2A 5416  24.577  39.366   8.393
  191POPC   C3A 5417  24.649  39.070   8.073
  191POPC   C4A 5418  24.748  38.809   7.708
  191POPC   C1B 5419  24.241  39.704   8.754
  191POPC   C2B 5420  24.151  39.631   8.314
  191POPC   C3B 5421  24.357  39.507   7.949
  191POPC   C4B 5422  24.315  39.528   7.510
  192POPC   NC3 5423  10.005  30.427   9.559
  192POPC   PO4 5424   9.561  30.791   9.192
  192POPC   GL1 5425   9.973  30.800   9.053
  192POPC   GL2 5426   9.987  30.459   9.055
  192POPC   C1A 5427  10.060  30.681   8.608
  192POPC   D2A 5428   9.716  30.471   8.390
  192POPC   C3A 5429   9.632  30.682   8.002
  192POPC   C4A 5430   9.912  30.977   7.787
  192POPC   C1B 5431  10.061  30.175   8.730
  192POPC   C2B 5432  10.188  30.210   8.315
  192POPC   C3B 5433   9.868  30.158   8.006
  192POPC   C4B 5434   9.704  30.352   7.628
  193POPC   NC3 5435  12.929  24.791   9.576
  193POPC   PO4 5436  12.522  25.241   9.420
  193POPC   GL1 5437  12.841  25.269   9.111
  193POPC   GL2 5438  13.031  24.975   9.066
  193POPC   C1A 5439  12.949  25.276   8.666
  193POPC   D2A 5440  12.826  25.455   8.290
  193POPC   C3A 5441  12.970  25.350   7.896
  193POPC   C4A 5442  12.892  25.125   7.495
  193POPC   C1B 5443  13.151  24.795   8.663
  193POPC   C2B 5444  13.098  24.985   8.232
  193POPC   C3B 5445  13.254  24.897   7.778
  193POPC   C4B 5446  13.384  24.967   7.295
  194POPC   NC3 5447   6.558  30.163   9.473
  194POPC   PO4 5448   6.709  30.822   9.359
  194POPC   GL1 5449   6.725  30.497   9.091
  194POPC   GL2 5450   6.419  30.319   8.991
  194POPC   C1A 5451   6.731  30.670   8.691
  194POPC   D2A 5452   6.796  30.951   8.355
  194POPC   C3A 5453   6.701  30.724   8.003
  194POPC   C4A 5454   6.655  30.655   7.579
  194POPC   C1B 5455   6.218  30.623   8.713
  194POPC   C2B 5456   6.275  31.022   8.495
  194POPC   C3B 5457   6.385  31.179   8.117
  194POPC   C4B 5458   6.270  30.945   7.773
  195POPC   NC3 5459  42.411  26.969   9.625
  195POPC   PO4 5460  42.239  26.293   9.555
  195POPC   GL1 5461  42.433  26.586   9.287
  195POPC   GL2 5462  42.152  26.820   9.207
  195POPC   C1A 5463  42.553  26.714   8.873
  195POPC   D2A 5464  42.461  26.863   8.424
  195POPC   C3A 5465  42.477  26.602   8.044
  195POPC   C4A 5466  42.511  26.863   7.683
  195POPC   C1B 5467  42.119  26.973   8.786
  195POPC   C2B 5468  41.990  27.137   8.406
  195POPC   C3B 5469  42.119  26.980   8.033
  195POPC   C4B 5470  41.973  26.950   7.655
  196POPC   NC3 5471  39.639  11.239   9.359
  196POPC   PO4 5472  40.303  11.207   9.545
  196POPC   GL1 5473  40.129  11.353   9.123
  196POPC   GL2 5474  39.887  11.108   8.949
  196POPC   C1A 5475  40.077  11.460   8.659
  196POPC   D2A 5476  39.933  11.147   8.355
  196POPC   C3A 5477  39.948  11.357   7.972
  196POPC   C4A 5478  40.315  11.574   7.802
  196POPC   C1B 5479  39.673  10.806   8.682
  196POPC   C2B 5480  39.664  10.701   8.265
  196POPC   C3B 5481  39.612  10.967   7.906
  196POPC   C4B 5482  39.762  11.147   7.490
  197POPC   NC3 5483  40.190  20.348   9.621
  197POPC   PO4 5484  39.740  20.911   9.588
  197POPC   GL1 5485  39.920  20.671   9.258
  197POPC   GL2 5486  39.794  20.343   9.212
  197POPC   C1A 5487  40.023  20.695   8.821
  197POPC   D2A 5488  40.166  20.660   8.387
  197POPC   C3A 5489  39.952  20.885   8.062
  197POPC   C4A 5490  39.946  20.805   7.606
  197POPC   C1B 5491  39.783  20.236   8.751
  197POPC   C2B 5492  39.770  20.317   8.310
  197POPC   C3B 5493  39.958  20.395   7.894
  197POPC   C4B 5494  39.751  20.361   7.460
  198POPC   NC3 5495  40.651  33.867   9.604
  198POPC   PO4 5496  41.207  33.556   9.406
  198POPC   GL1 5497  40.898  33.920   9.161
  198POPC   GL2 5498  40.497  33.918   9.132
  198POPC   C1A 5499  41.028  34.014   8.751
  198POPC   D2A 5500  41.091  33.718   8.449
  198POPC   C3A 5501  40.979  33.928   8.122
  198POPC   C4A 5502  40.941  33.772   7.747
  198POPC   C1B 5503  40.479  34.156   8.744
  198POPC   C2B 5504  40.636  34.244   8.325
  198POPC   C3B 5505  40.473  34.001   7.982
  198POPC   C4B 5506  40.475  33.848   7.568
  199POPC   NC3 5507  18.840  41.804   9.516
  199POPC   PO4 5508  18.211  41.908   9.495
  199POPC   GL1 5509  18.316  41.556   9.184
  199POPC   GL2 5510  18.655  41.415   9.186
  199POPC   C1A 5511  18.270  41.460   8.731
  199POPC   D2A 5512  18.043  41.623   8.384
  199POPC   C3A 5513  18.135  41.567   7.963
  199POPC   C4A 5514  18.221  41.458   7.520
  199POPC   C1B 5515  18.718  41.673   8.803
  199POPC   C2B 5516  18.481  41.877   8.446
  199POPC   C3B 5517  18.556  41.874   7.972
  199POPC   C4B 5518  18.620  42.086   7.540
  200POPC   NC3 5519  27.559  24.098   9.511
  200POPC   PO4 5520  27.444  24.794   9.487
  200POPC   GL1 5521  27.438  24.676   9.061
  200POPC   GL2 5522  27.473  24.327   9.036
  200POPC   C1A 5523  27.447  24.638   8.609
  200POPC   D2A 5524  27.636  24.824   8.269
  200POPC   C3A 5525  27.442  24.650   7.934
  200POPC   C4A 5526  27.501  24.616   7.467
  200POPC   C1B 5527  27.490  24.116   8.638
  200POPC   C2B 5528  27.581  24.182   8.194
  200POPC   C3B 5529  27.572  24.191   7.742
  200POPC   C4B 5530  27.578  24.174   7.260
  201POPC   NC3 5531  15.398  31.198   9.461
  201POPC   PO4 5532  15.216  31.806   9.645
  201POPC   GL1 5533  15.186  31.592   9.223
  201POPC   GL2 5534  15.385  31.824   9.146
  201POPC   C1A 5535  15.007  31.431   8.803
  201POPC   D2A 5536  14.951  31.549   8.329
  201POPC   C3A 5537  14.845  31.172   7.993
  201POPC   C4A 5538  14.982  31.187   7.550
  201POPC   C1B 5539  15.196  31.899   8.762
  201POPC   C2B 5540  15.371  32.015   8.382
  201POPC   C3B 5541  15.398  31.876   7.974
  201POPC   C4B 5542  15.165  31.562   7.836
  202POPC   NC3 5543   2.441   9.363   9.491
  202POPC   PO4 5544   2.704   9.993   9.410
  202POPC   GL1 5545   2.847   9.670   9.135
  202POPC   GL2 5546   2.737   9.936   8.886
  202POPC   C1A 5547   2.858   9.468   8.737
  202POPC   D2A 5548   2.814   9.690   8.359
  202POPC   C3A 5549   3.009   9.477   8.032
  202POPC   C4A 5550   2.745   9.528   7.701
  202POPC   C1B 5551   3.130   9.917   8.716
  202POPC   C2B 5552   3.302   9.940   8.300
  202POPC   C3B 5553   3.077   9.988   7.948
  202POPC   C4B 5554   2.656   9.992   7.884
  203POPC   NC3 5555  12.918  38.476   9.550
  203POPC   PO4 5556  12.363  38.844   9.457
  203POPC   GL1 5557  12.698  38.721   9.139
  203POPC   GL2 5558  12.834  38.398   9.039
  203POPC   C1A 5559  12.758  38.741   8.694
  203POPC   D2A 5560  12.911  38.560   8.324
  203POPC   C3A 5561  12.932  38.866   8.020
  203POPC   C4A 5562  12.946  38.839   7.593
  203POPC   C1B 5563  12.698  38.195   8.625
  203POPC   C2B 5564  12.456  38.238   8.269
  203POPC   C3B 5565  12.612  38.457   7.920
  203POPC   C4B 5566  12.651  38.362   7.498
  204POPC   NC3 5567  23.580  15.662   9.862
  204POPC   PO4 5568  24.027  16.076   9.516
  204POPC   GL1 5569  23.817  15.966   9.135
  204POPC   GL2 5570  23.523  15.824   9.195
  204POPC   C1A 5571  23.683  16.119   8.725
  204POPC   D2A 5572  23.735  16.318   8.314
  204POPC   C3A 5573  23.647  16.091   7.923
  204POPC   C4A 5574  23.817  16.220   7.514
  204POPC   C1B 5575  23.359  15.730   8.789
  204POPC   C2B 5576  23.515  15.797   8.360
  204POPC   C3B 5577  23.575  15.594   7.966
  204POPC   C4B 5578  23.300  15.588   7.639
  205POPC   NC3 5579  41.924  18.625   9.479
  205POPC   PO4 5580  42.319  18.083   9.721
  205POPC   GL1 5581  42.469  18.236   9.261
  205POPC   GL2 5582  42.266  18.526   9.104
  205POPC   C1A 5583  42.607  18.322   8.821
  205POPC   D2A 5584  42.386  18.471   8.450
  205POPC   C3A 5585  42.307  18.171   8.123
  205POPC   C4A 5586  42.515  18.225   7.723
  205POPC   C1B 5587  42.017  18.660   8.767
  205POPC   C2B 5588  41.883  18.503   8.363
  205POPC   C3B 5589  41.997  18.525   7.930
  205POPC   C4B 5590  41.992  18.615   7.460
  206POPC   NC3 5591  23.030  17.096   9.556
  206POPC   PO4 5592  23.109  16.464   9.598
  206POPC   GL1 5593  23.105  16.679   9.230
  206POPC   GL2 5594  22.786  16.789   9.226
  206POPC   C1A 5595  23.114  16.906   8.816
  206POPC   D2A 5596  22.856  16.854   8.426
  206POPC   C3A 5597  22.973  16.624   8.079
  206POPC   C4A 5598  23.162  16.740   7.709
  206POPC   C1B 5599  22.727  16.571   8.845
  206POPC   C2B 5600  22.421  16.608   8.511
  206POPC   C3B 5601  22.469  16.645   8.071
  206POPC   C4B 5602  22.647  16.594   7.664
  207POPC   NC3 5603  24.713  17.216   9.450
  207POPC   PO4 5604  24.252  17.725   9.396
  207POPC   GL1 5605  24.433  17.785   9.010
  207POPC   GL2 5606  24.692  17.528   9.050
  207POPC   C1A 5607  24.507  17.547   8.592
  207POPC   D2A 5608  24.247  17.181   8.463
  207POPC   C3A 5609  24.265  17.247   8.041
  207POPC   C4A 5610  24.691  17.427   8.014
  207POPC   C1B 5611  24.891  17.858   8.850
  207POPC   C2B 5612  24.789  18.049   8.492
  207POPC   C3B 5613  24.911  17.985   8.070
  207POPC   C4B 5614  24.802  17.788   7.679
  208POPC   NC3 5615  41.187  12.336   9.332
  208POPC   PO4 5616  41.848  12.346   9.439
  208POPC   GL1 5617  41.638  12.152   9.113
  208POPC   GL2 5618  41.755  11.851   9.129
  208POPC   C1A 5619  41.446  11.981   8.732
  208POPC   D2A 5620  41.379  12.231   8.376
  208POPC   C3A 5621  41.400  12.120   7.956
  208POPC   C4A 5622  41.325  12.432   7.610
  208POPC   C1B 5623  41.937  11.802   8.703
  208POPC   C2B 5624  41.731  11.796   8.281
  208POPC   C3B 5625  41.647  11.711   7.837
  208POPC   C4B 5626  41.387  11.763   7.453
  209POPC   NC3 5627   2.364  25.510   9.594
  209POPC   PO4 5628   2.798  24.940   9.553
  209POPC   GL1 5629   2.756  24.944   9.108
  209POPC   GL2 5630   2.869  25.290   9.065
  209POPC   C1A 5631   2.839  24.964   8.655
  209POPC   D2A 5632   2.711  25.261   8.336
  209POPC   C3A 5633   2.666  25.053   7.941
  209POPC   C4A 5634   2.908  25.059   7.559
  209POPC   C1B 5635   3.110  25.396   8.698
  209POPC   C2B 5636   3.196  25.523   8.296
  209POPC   C3B 5637   3.019  25.442   7.921
  209POPC   C4B 5638   2.609  25.588   7.855
  210POPC   NC3 5639  29.188  20.302   9.548
  210POPC   PO4 5640  29.241  20.987   9.450
  210POPC   GL1 5641  29.192  20.647   9.153
  210POPC   GL2 5642  28.893  20.496   9.166
  210POPC   C1A 5643  29.343  20.502   8.771
  210POPC   D2A 5644  29.517  20.688   8.422
  210POPC   C3A 5645  29.311  20.576   8.068
  210POPC   C4A 5646  29.130  20.791   7.754
  210POPC   C1B 5647  28.855  20.295   8.762
  210POPC   C2B 5648  28.760  20.449   8.359
  210POPC   C3B 5649  28.770  20.488   7.941
  210POPC   C4B 5650  28.713  20.171   7.716
  211POPC   NC3 5651   5.600  35.582   9.557
  211POPC   PO4 5652   6.271  35.532   9.684
  211POPC   GL1 5653   5.980  35.539   9.204
  211POPC   GL2 5654   5.577  35.597   9.064
  211POPC   C1A 5655   5.935  35.256   8.813
  211POPC   D2A 5656   5.920  35.031   8.401
  211POPC   C3A 5657   5.905  35.200   7.984
  211POPC   C4A 5658   6.169  35.341   7.631
  211POPC   C1B 5659   5.819  35.748   8.747
  211POPC   C2B 5660   5.968  35.580   8.394
  211POPC   C3B 5661   5.974  35.692   8.033
  211POPC   C4B 5662   5.691  35.596   7.719
  212POPC   NC3 5663  27.746  17.855   9.361
  212POPC   PO4 5664  27.387  17.305   9.484
  212POPC   GL1 5665  27.503  17.443   9.094
  212POPC   GL2 5666  27.286  17.763   9.050
  212POPC   C1A 5667  27.722  17.243   8.718
  212POPC   D2A 5668  27.944  17.454   8.380
  212POPC   C3A 5669  27.792  17.328   7.986
  212POPC   C4A 5670  27.615  17.231   7.588
  212POPC   C1B 5671  27.480  17.708   8.625
  212POPC   C2B 5672  27.534  17.756   8.167
  212POPC   C3B 5673  27.795  17.797   7.784
  212POPC   C4B 5674  27.747  17.654   7.335
  213POPC   NC3 5675  10.897  26.572   9.452
  213POPC   PO4 5676  10.287  26.693   9.479
  213POPC   GL1 5677  10.542  26.828   9.097
  213POPC   GL2 5678  10.875  26.721   8.976
  213POPC   C1A 5679  10.478  26.885   8.669
  213POPC   D2A 5680  10.421  27.074   8.283
  213POPC   C3A 5681  10.618  26.845   7.940
  213POPC   C4A 5682  10.561  26.711   7.529
  213POPC   C1B 5683  10.730  26.446   8.662
  213POPC   C2B 5684  10.759  26.446   8.217
  213POPC   C3B 5685  10.858  26.384   7.775
  213POPC   C4B 5686  10.781  26.240   7.296
  214POPC   NC3 5687  20.150  15.142   9.539
  214POPC   PO4 5688  19.953  15.726   9.320
  214POPC   GL1 5689  19.723  15.430   9.038
  214POPC   GL2 5690  19.749  15.071   9.108
  214POPC   C1A 5691  19.871  15.409   8.604
  214POPC   D2A 5692  19.965  15.657   8.226
  214POPC   C3A 5693  20.157  15.372   7.942
  214POPC   C4A 5694  20.073  14.926   7.892
  214POPC   C1B 5695  19.470  15.109   8.731
  214POPC   C2B 5696  19.588  15.117   8.274
  214POPC   C3B 5697  19.658  15.250   7.863
  214POPC   C4B 5698  19.558  15.319   7.440
  215POPC   NC3 5699  29.500   0.452   9.801
  215POPC   PO4 5700  28.848   0.284   9.644
  215POPC   GL1 5701  29.121   0.277   9.266
  215POPC   GL2 5702  29.175   0.576   9.233
  215POPC   C1A 5703  29.340   0.242   8.832
  215POPC   D2A 5704  29.457   0.224   8.378
  215POPC   C3A 5705  29.176   0.273   8.018
  215POPC   C4A 5706  28.808   0.442   7.822
  215POPC   C1B 5707  29.125   0.698   8.823
  215POPC   C2B 5708  29.034   0.578   8.404
  215POPC   C3B 5709  29.112   0.801   8.005
  215POPC   C4B 5710  29.134   0.701   7.540
  216POPC   NC3 5711  17.983  16.177   9.336
  216POPC   PO4 5712  18.361  15.637   9.502
  216POPC   GL1 5713  18.170  15.742   9.141
  216POPC   GL2 5714  18.352  16.006   9.056
  216POPC   C1A 5715  18.011  15.757   8.740
  216POPC   D2A 5716  17.933  15.915   8.359
  216POPC   C3A 5717  18.168  16.135   8.085
  216POPC   C4A 5718  18.099  16.098   7.669
  216POPC   C1B 5719  18.299  16.183   8.671
  216POPC   C2B 5720  18.567  16.291   8.380
  216POPC   C3B 5721  18.576  16.441   7.993
  216POPC   C4B 5722  18.580  16.220   7.622
  217POPC   NC3 5723  38.885   5.214   9.267
  217POPC   PO4 5724  38.382   4.861   9.673
  217POPC   GL1 5725  38.379   5.122   9.278
  217POPC   GL2 5726  38.554   4.910   9.014
  217POPC   C1A 5727  38.347   5.369   8.858
  217POPC   D2A 5728  38.277   5.340   8.390
  217POPC   C3A 5729  38.253   4.971   8.124
  217POPC   C4A 5730  38.451   4.926   7.739
  217POPC   C1B 5731  38.834   4.884   8.630
  217POPC   C2B 5732  38.786   4.975   8.168
  217POPC   C3B 5733  38.938   5.116   7.761
  217POPC   C4B 5734  38.870   4.899   7.321
  218POPC   NC3 5735  43.823  14.440   9.750
  218POPC   PO4 5736  43.973  14.184   9.082
  218POPC   GL1 5737  44.066  14.617   8.820
  218POPC   GL2 5738  43.722  14.789   8.750
  218POPC   C1A 5739  44.031  14.547   8.411
  218POPC   D2A 5740  44.002  14.122   8.258
  218POPC   C3A 5741  44.095  14.232   7.875
  218POPC   C4A 5742  44.106  14.679   7.913
  218POPC   C1B 5743  43.498  14.378   8.641
  218POPC   C2B 5744  43.493  14.175   8.281
  218POPC   C3B 5745  43.647  14.459   8.046
  218POPC   C4B 5746  43.682  14.469   7.666
  219POPC   NC3 5747  19.431  11.155   9.501
  219POPC   PO4 5748  20.056  11.498   9.506
  219POPC   GL1 5749  19.972  11.604   9.107
  219POPC   GL2 5750  19.759  11.320   9.113
  219POPC   C1A 5751  20.069  11.508   8.669
  219POPC   D2A 5752  19.906  11.218   8.348
  219POPC   C3A 5753  19.827  11.399   7.957
  219POPC   C4A 5754  20.126  11.542   7.683
  219POPC   C1B 5755  19.590  11.293   8.733
  219POPC   C2B 5756  19.406  10.992   8.441
  219POPC   C3B 5757  19.586  10.926   8.057
  219POPC   C4B 5758  19.500  11.078   7.664
  220POPC   NC3 5759  40.910  35.975   9.981
  220POPC   PO4 5760  40.430  36.161   9.537
  220POPC   GL1 5761  40.723  36.123   9.148
  220POPC   GL2 5762  40.940  36.401   9.095
  220POPC   C1A 5763  40.923  35.947   8.736
  220POPC   D2A 5764  41.036  35.791   8.291
  220POPC   C3A 5765  40.932  35.935   7.882
  220POPC   C4A 5766  40.567  36.067   7.583
  220POPC   C1B 5767  40.724  36.399   8.706
  220POPC   C2B 5768  40.798  36.275   8.289
  220POPC   C3B 5769  40.801  36.427   7.879
  220POPC   C4B 5770  41.031  36.282   7.510
  221POPC   NC3 5771   2.699   8.573   9.813
  221POPC   PO4 5772   2.797   9.097   9.322
  221POPC   GL1 5773   2.958   9.030   8.980
  221POPC   GL2 5774   3.186   8.732   8.993
  221POPC   C1A 5775   2.635   9.007   8.670
  221POPC   D2A 5776   2.316   9.199   8.451
  221POPC   C3A 5777   2.528   9.259   8.102
  221POPC   C4A 5778   2.614   8.888   7.882
  221POPC   C1B 5779   3.062   8.764   8.572
  221POPC   C2B 5780   2.988   8.963   8.209
  221POPC   C3B 5781   3.098   8.704   7.847
  221POPC   C4B 5782   3.065   8.638   7.402
  222POPC   NC3 5783  38.969  15.283   9.851
  222POPC   PO4 5784  39.488  15.275   9.389
  222POPC   GL1 5785  39.187  15.300   9.071
  222POPC   GL2 5786  39.088  15.014   8.938
  222POPC   C1A 5787  39.209  15.516   8.697
  222POPC   D2A 5788  38.982  15.514   8.343
  222POPC   C3A 5789  39.200  15.352   8.044
  222POPC   C4A 5790  39.314  15.353   7.633
  222POPC   C1B 5791  39.323  14.707   8.787
  222POPC   C2B 5792  39.330  14.891   8.400
  222POPC   C3B 5793  38.944  14.939   8.191
  222POPC   C4B 5794  38.992  14.968   7.763
  223POPC   NC3 5795   0.926  40.624   9.500
  223POPC   PO4 5796   1.560  40.614   9.576
  223POPC   GL1 5797   1.316  40.785   9.182
  223POPC   GL2 5798   0.939  40.940   9.103
  223POPC   C1A 5799   1.323  40.710   8.744
  223POPC   D2A 5800   1.570  40.558   8.388
  223POPC   C3A 5801   1.386  40.502   7.991
  223POPC   C4A 5802   1.310  40.819   7.722
  223POPC   C1B 5803   0.831  40.646   8.778
  223POPC   C2B 5804   1.020  40.634   8.341
  223POPC   C3B 5805   0.874  40.732   7.962
  223POPC   C4B 5806   0.749  41.111   7.739
  224POPC   NC3 5807   9.165  11.380   9.673
  224POPC   PO4 5808   8.723  10.901   9.446
  224POPC   GL1 5809   8.904  11.197   9.177
  224POPC   GL2 5810   9.246  11.204   9.192
  224POPC   C1A 5811   8.907  11.403   8.781
  224POPC   D2A 5812   8.845  11.252   8.373
  224POPC   C3A 5813   8.772  11.503   7.997
  224POPC   C4A 5814   8.924  11.221   7.707
  224POPC   C1B 5815   9.389  11.459   8.893
  224POPC   C2B 5816   9.405  11.553   8.469
  224POPC   C3B 5817   9.301  11.419   8.068
  224POPC   C4B 5818   9.223  11.669   7.728
  225POPC   NC3 5819  35.315   5.843   9.695
  225POPC   PO4 5820  35.688   6.085   9.186
  225POPC   GL1 5821  35.399   6.090   8.922
  225POPC   GL2 5822  35.167   6.084   9.164
  225POPC   C1A 5823  35.304   5.827   8.604
  225POPC   D2A 5824  35.316   5.941   8.210
  225POPC   C3A 5825  35.243   5.687   7.918
  225POPC   C4A 5826  35.082   5.591   7.561
  225POPC   C1B 5827  34.921   6.119   8.745
  225POPC   C2B 5828  34.960   6.288   8.362
  225POPC   C3B 5829  35.096   6.319   7.954
  225POPC   C4B 5830  35.180   6.129   7.555
  226POPC   NC3 5831  23.187  42.262   9.434
  226POPC   PO4 5832  22.592  41.861   9.252
  226POPC   GL1 5833  22.804  42.241   9.065
  226POPC   GL2 5834  23.042  42.551   9.029
  226POPC   C1A 5835  22.748  42.361   8.637
  226POPC   D2A 5836  22.929  42.137   8.298
  226POPC   C3A 5837  22.786  42.190   7.883
  226POPC   C4A 5838  22.421  42.214   7.680
  226POPC   C1B 5839  23.251  42.324   8.746
  226POPC   C2B 5840  23.330  42.468   8.349
  226POPC   C3B 5841  23.291  42.302   7.966
  226POPC   C4B 5842  23.116  42.429   7.569
  227POPC   NC3 5843  33.352  21.011   9.391
  227POPC   PO4 5844  33.838  20.416   9.377
  227POPC   GL1 5845  33.587  20.580   9.086
  227POPC   GL2 5846  33.730  20.916   9.055
  227POPC   C1A 5847  33.651  20.449   8.671
  227POPC   D2A 5848  34.000  20.594   8.397
  227POPC   C3A 5849  33.806  20.561   8.029
  227POPC   C4A 5850  33.472  20.231   7.981
  227POPC   C1B 5851  33.645  20.955   8.615
  227POPC   C2B 5852  33.428  21.184   8.288
  227POPC   C3B 5853  33.406  21.047   7.833
  227POPC   C4B 5854  33.519  20.668   7.635
  228POPC   NC3 5855  26.508   9.354   9.402
  228POPC   PO4 5856  26.934   9.821   9.659
  228POPC   GL1 5857  26.876   9.924   9.198
  228POPC   GL2 5858  26.884   9.620   9.099
  228POPC   C1A 5859  26.615   9.896   8.793
  228POPC   D2A 5860  26.617  10.179   8.443
  228POPC   C3A 5861  26.524  10.069   8.029
  228POPC   C4A 5862  26.747   9.832   7.724
  228POPC   C1B 5863  27.102   9.821   8.688
  228POPC   C2B 5864  26.907   9.739   8.261
  228POPC   C3B 5865  26.870   9.389   7.912
  228POPC   C4B 5866  26.607   9.375   7.497
  229POPC   NC3 5867  33.217  32.586   9.471
  229POPC   PO4 5868  32.758  33.045   9.404
  229POPC   GL1 5869  33.120  32.979   9.110
  229POPC   GL2 5870  33.282  32.635   8.987
  229POPC   C1A 5871  33.058  33.211   8.715
  229POPC   D2A 5872  32.718  33.339   8.398
  229POPC   C3A 5873  32.909  33.245   8.005
  229POPC   C4A 5874  33.138  32.998   7.706
  229POPC   C1B 5875  33.015  32.680   8.705
  229POPC   C2B 5876  33.004  32.866   8.336
  229POPC   C3B 5877  32.820  32.707   8.021
  229POPC   C4B 5878  32.885  32.530   7.669
  230POPC   NC3 5879  35.386  16.704   9.579
  230POPC   PO4 5880  34.879  17.026   9.251
  230POPC   GL1 5881  35.261  16.859   9.086
  230POPC   GL2 5882  35.379  16.519   9.109
  230POPC   C1A 5883  35.254  16.836   8.649
  230POPC   D2A 5884  34.914  16.766   8.382
  230POPC   C3A 5885  35.092  16.952   8.056
  230POPC   C4A 5886  35.474  16.876   7.875
  230POPC   C1B 5887  35.540  16.436   8.718
  230POPC   C2B 5888  35.508  16.514   8.264
  230POPC   C3B 5889  35.570  16.399   7.809
  230POPC   C4B 5890  35.707  16.479   7.340
  231POPC   NC3 5891  41.998  20.223   9.380
  231POPC   PO4 5892  42.395  20.715   9.548
  231POPC   GL1 5893  42.428  20.549   9.158
  231POPC   GL2 5894  42.514  20.212   9.232
  231POPC   C1A 5895  42.411  20.740   8.758
  231POPC   D2A 5896  42.178  20.748   8.422
  231POPC   C3A 5897  42.397  20.705   8.061
  231POPC   C4A 5898  42.732  20.844   7.806
  231POPC   C1B 5899  42.546  20.207   8.766
  231POPC   C2B 5900  42.656  20.136   8.315
  231POPC   C3B 5901  42.631  20.286   7.893
  231POPC   C4B 5902  42.217  20.377   7.717
  232POPC   NC3 5903  16.249  22.305   9.584
  232POPC   PO4 5904  15.826  21.909   9.627
  232POPC   GL1 5905  15.742  21.884   9.192
  232POPC   GL2 5906  15.916  22.190   9.176
  232POPC   C1A 5907  15.567  21.901   8.792
  232POPC   D2A 5908  15.593  21.980   8.361
  232POPC   C3A 5909  15.931  22.191   8.153
  232POPC   C4A 5910  15.914  22.038   7.727
  232POPC   C1B 5911  15.902  22.288   8.736
  232POPC   C2B 5912  15.775  22.599   8.458
  232POPC   C3B 5913  15.765  22.720   8.055
  232POPC   C4B 5914  15.962  22.538   7.711
  233POPC   NC3 5915  10.248  13.718   9.538
  233POPC   PO4 5916  10.992  13.792   9.508
  233POPC   GL1 5917  10.640  13.831   9.227
  233POPC   GL2 5918  10.479  13.476   9.131
  233POPC   C1A 5919  10.591  13.858   8.802
  233POPC   D2A 5920  10.707  13.546   8.497
  233POPC   C3A 5921  10.660  13.769   8.121
  233POPC   C4A 5922  10.785  13.763   7.699
  233POPC   C1B 5923  10.221  13.480   8.725
  233POPC   C2B 5924  10.252  13.413   8.264
  233POPC   C3B 5925  10.586  13.279   7.970
  233POPC   C4B 5926  10.566  13.310   7.542
  234POPC   NC3 5927  43.319  33.360   9.564
  234POPC   PO4 5928  42.710  33.137   9.693
  234POPC   GL1 5929  43.033  33.067   9.262
  234POPC   GL2 5930  43.187  33.395   9.082
  234POPC   C1A 5931  42.976  32.886   8.867
  234POPC   D2A 5932  43.104  32.882   8.449
  234POPC   C3A 5933  43.026  32.646   8.082
  234POPC   C4A 5934  42.869  32.936   7.766
  234POPC   C1B 5935  43.139  33.354   8.652
  234POPC   C2B 5936  43.221  33.338   8.220
  234POPC   C3B 5937  43.208  33.325   7.820
  234POPC   C4B 5938  43.374  33.533   7.511
  235POPC   NC3 5939   1.117  11.080   9.525
  235POPC   PO4 5940   1.341  10.440   9.657
  235POPC   GL1 5941   1.361  10.431   9.207
  235POPC   GL2 5942   1.007  10.512   9.152
  235POPC   C1A 5943   1.433  10.527   8.765
  235POPC   D2A 5944   1.188  10.461   8.387
  235POPC   C3A 5945   1.416  10.344   8.019
  235POPC   C4A 5946   1.540  10.664   7.739
  235POPC   C1B 5947   1.059  10.198   8.825
  235POPC   C2B 5948   0.805  10.134   8.473
  235POPC   C3B 5949   0.787  10.268   8.053
  235POPC   C4B 5950   1.033  10.360   7.679
  236POPC   NC3 5951   9.438  16.690   9.523
  236POPC   PO4 5952  10.173  16.592   9.579
  236POPC   GL1 5953   9.919  16.387   9.206
  236POPC   GL2 5954   9.651  16.593   9.090
  236POPC   C1A 5955   9.854  16.351   8.716
  236POPC   D2A 5956   9.669  16.463   8.347
  236POPC   C3A 5957   9.883  16.677   8.057
  236POPC   C4A 5958   9.609  16.724   7.754
  236POPC   C1B 5959   9.729  16.853   8.713
  236POPC   C2B 5960   9.547  16.969   8.369
  236POPC   C3B 5961   9.645  17.133   8.033
  236POPC   C4B 5962   9.910  17.101   7.670
  237POPC   NC3 5963  29.695  33.193   9.493
  237POPC   PO4 5964  30.154  32.734   9.470
  237POPC   GL1 5965  30.004  32.681   9.070
  237POPC   GL2 5966  29.778  32.883   9.103
  237POPC   C1A 5967  29.983  32.778   8.650
  237POPC   D2A 5968  30.276  33.002   8.378
  237POPC   C3A 5969  30.093  32.926   7.999
  237POPC   C4A 5970  29.858  32.782   7.657
  237POPC   C1B 5971  30.083  33.205   8.886
  237POPC   C2B 5972  29.926  33.360   8.473
  237POPC   C3B 5973  30.046  33.444   8.052
  237POPC   C4B 5974  29.955  33.310   7.648
  238POPC   NC3 5975   5.111   8.492  10.223
  238POPC   PO4 5976   4.946   8.329   9.602
  238POPC   GL1 5977   5.091   8.323   9.190
  238POPC   GL2 5978   5.186   7.986   9.281
  238POPC   C1A 5979   4.942   8.419   8.765
  238POPC   D2A 5980   5.145   8.494   8.391
  238POPC   C3A 5981   5.075   8.327   8.001
  238POPC   C4A 5982   5.439   8.274   7.760
  238POPC   C1B 5983   5.023   7.926   8.850
  238POPC   C2B 5984   5.122   7.963   8.395
  238POPC   C3B 5985   5.262   7.833   7.971
  238POPC   C4B 5986   5.464   7.805   7.555
  239POPC   NC3 5987  25.895  33.998   9.419
  239POPC   PO4 5988  25.869  33.376   9.565
  239POPC   GL1 5989  25.943  33.564   9.130
  239POPC   GL2 5990  26.299  33.599   9.178
  239POPC   C1A 5991  25.912  33.923   8.789
  239POPC   D2A 5992  26.048  34.077   8.394
  239POPC   C3A 5993  26.071  33.709   8.103
  239POPC   C4A 5994  25.892  33.890   7.737
  239POPC   C1B 5995  26.414  33.803   8.772
  239POPC   C2B 5996  26.515  33.876   8.346
  239POPC   C3B 5997  26.555  33.654   7.960
  239POPC   C4B 5998  26.319  33.605   7.639
  240POPC   NC3 5999  28.648  18.270   9.477
  240POPC   PO4 6000  28.010  18.366   9.544
  240POPC   GL1 6001  28.222  18.169   9.206
  240POPC   GL2 6002  28.318  18.513   9.127
  240POPC   C1A 6003  28.440  18.031   8.811
  240POPC   D2A 6004  28.220  17.920   8.421
  240POPC   C3A 6005  28.392  18.093   8.058
  240POPC   C4A 6006  28.465  18.038   7.658
  240POPC   C1B 6007  28.062  18.380   8.758
  240POPC   C2B 6008  28.237  18.456   8.392
  240POPC   C3B 6009  28.156  18.558   7.997
  240POPC   C4B 6010  28.494  18.532   7.763
  241POPC   NC3 6011  35.680  30.526   9.402
  241POPC   PO4 6012  35.228  31.048   9.496
  241POPC   GL1 6013  35.302  30.786   9.117
  241POPC   GL2 6014  35.227  31.001   8.846
  241POPC   C1A 6015  35.510  30.554   8.747
  241POPC   D2A 6016  35.587  30.341   8.349
  241POPC   C3A 6017  35.409  30.567   8.045
  241POPC   C4A 6018  35.616  30.568   7.671
  241POPC   C1B 6019  35.679  31.044   8.780
  241POPC   C2B 6020  35.720  30.950   8.353
  241POPC   C3B 6021  35.527  31.077   7.978
  241POPC   C4B 6022  35.419  31.013   7.565
  242POPC   NC3 6023  35.146  12.587   9.366
  242POPC   PO4 6024  35.366  11.915   9.510
  242POPC   GL1 6025  35.446  12.069   9.141
  242POPC   GL2 6026  35.119  12.148   9.108
  242POPC   C1A 6027  35.490  12.118   8.699
  242POPC   D2A 6028  35.310  11.954   8.328
  242POPC   C3A 6029  35.432  12.042   7.920
  242POPC   C4A 6030  35.631  11.749   7.659
  242POPC   C1B 6031  35.007  11.920   8.761
  242POPC   C2B 6032  34.807  12.037   8.380
  242POPC   C3B 6033  34.899  12.002   7.938
  242POPC   C4B 6034  35.117  11.980   7.528
  243POPC   NC3 6035  18.158   2.271   9.667
  243POPC   PO4 6036  18.715   1.921   9.480
  243POPC   GL1 6037  18.528   2.188   9.128
  243POPC   GL2 6038  18.182   2.304   9.164
  243POPC   C1A 6039  18.385   2.144   8.669
  243POPC   D2A 6040  18.105   1.874   8.398
  243POPC   C3A 6041  18.077   1.875   7.937
  243POPC   C4A 6042  18.288   1.665   7.637
  243POPC   C1B 6043  18.034   2.490   8.808
  243POPC   C2B 6044  17.914   2.336   8.414
  243POPC   C3B 6045  18.019   2.418   7.994
  243POPC   C4B 6046  17.944   2.290   7.583
  244POPC   NC3 6047  27.818  19.408   9.506
  244POPC   PO4 6048  27.378  19.797   9.171
  244POPC   GL1 6049  27.556  19.546   8.962
  244POPC   GL2 6050  27.867  19.641   9.055
  244POPC   C1A 6051  27.472  19.585   8.553
  244POPC   D2A 6052  27.286  19.946   8.375
  244POPC   C3A 6053  27.344  19.798   7.977
  244POPC   C4A 6054  27.404  19.839   7.565
  244POPC   C1B 6055  27.970  19.783   8.660
  244POPC   C2B 6056  27.790  19.897   8.271
  244POPC   C3B 6057  27.821  19.926   7.844
  244POPC   C4B 6058  28.031  19.693   7.565
  245POPC   NC3 6059  24.226  35.681   9.536
  245POPC   PO4 6060  24.479  36.293   9.481
  245POPC   GL1 6061  24.417  36.047   9.161
  245POPC   GL2 6062  24.748  35.946   9.178
  245POPC   C1A 6063  24.383  36.216   8.766
  245POPC   D2A 6064  24.403  36.404   8.373
  245POPC   C3A 6065  24.306  36.099   8.077
  245POPC   C4A 6066  24.355  36.239   7.681
  245POPC   C1B 6067  24.876  36.104   8.824
  245POPC   C2B 6068  24.896  36.277   8.425
  245POPC   C3B 6069  24.784  36.259   7.993
  245POPC   C4B 6070  24.729  35.892   7.735
  246POPC   NC3 6071   7.560  32.899   9.542
  246POPC   PO4 6072   6.948  33.093   9.529
  246POPC   GL1 6073   7.173  32.914   9.157
  246POPC   GL2 6074   7.490  33.081   9.051
  246POPC   C1A 6075   7.174  32.803   8.710
  246POPC   D2A 6076   7.477  32.951   8.414
  246POPC   C3A 6077   7.548  32.773   8.026
  246POPC   C4A 6078   7.261  32.725   7.737
  246POPC   C1B 6079   7.672  33.330   8.695
  246POPC   C2B 6080   7.716  33.382   8.247
  246POPC   C3B 6081   7.866  33.188   7.888
  246POPC   C4B 6082   7.703  32.927   7.549
  247POPC   NC3 6083  27.275  20.227   9.322
  247POPC   PO4 6084  27.817  20.596   9.582
  247POPC   GL1 6085  27.658  20.514   9.176
  247POPC   GL2 6086  27.805  20.178   9.149
  247POPC   C1A 6087  27.562  20.679   8.764
  247POPC   D2A 6088  27.498  20.982   8.453
  247POPC   C3A 6089  27.288  20.931   8.089
  247POPC   C4A 6090  27.389  20.795   7.693
  247POPC   C1B 6091  27.663  20.176   8.729
  247POPC   C2B 6092  27.628  20.374   8.361
  247POPC   C3B 6093  27.495  20.294   8.006
  247POPC   C4B 6094  27.279  20.298   7.691
  248POPC   NC3 6095  12.393   9.217   9.349
  248POPC   PO4 6096  11.769   9.391   9.474
  248POPC   GL1 6097  11.942   9.136   9.139
  248POPC   GL2 6098  12.101   8.805   9.240
  248POPC   C1A 6099  12.147   9.012   8.745
  248POPC   D2A 6100  12.068   9.127   8.301
  248POPC   C3A 6101  12.245   8.914   7.946
  248POPC   C4A 6102  12.114   9.000   7.532
  248POPC   C1B 6103  11.783   8.690   8.926
  248POPC   C2B 6104  11.830   8.518   8.531
  248POPC   C3B 6105  11.852   8.618   8.107
  248POPC   C4B 6106  11.831   8.573   7.654
  249POPC   NC3 6107  10.057   3.978   9.506
  249POPC   PO4 6108   9.507   4.356   9.538
  249POPC   GL1 6109   9.803   4.508   9.195
  249POPC   GL2 6110  10.156   4.601   9.325
  249POPC   C1A 6111   9.708   4.506   8.751
  249POPC   D2A 6112   9.418   4.584   8.385
  249POPC   C3A 6113   9.622   4.561   7.992
  249POPC   C4A 6114   9.615   4.455   7.581
  249POPC   C1B 6115  10.240   4.655   8.872
  249POPC   C2B 6116  10.102   4.564   8.425
  249POPC   C3B 6117  10.143   4.518   7.986
  249POPC   C4B 6118  10.033   4.203   7.697
  250POPC   NC3 6119  34.451  19.057   9.445
  250POPC   PO4 6120  35.010  19.237   9.502
  250POPC   GL1 6121  34.821  19.004   9.085
  250POPC   GL2 6122  34.485  19.103   8.957
  250POPC   C1A 6123  34.816  18.994   8.611
  250POPC   D2A 6124  34.546  19.270   8.299
  250POPC   C3A 6125  34.476  19.250   7.845
  250POPC   C4A 6126  34.578  18.929   7.512
  250POPC   C1B 6127  34.166  18.799   8.813
  250POPC   C2B 6128  33.941  18.755   8.398
  250POPC   C3B 6129  34.103  18.940   8.012
  250POPC   C4B 6130  34.089  19.067   7.559
  251POPC   NC3 6131   1.809   8.081   9.221
  251POPC   PO4 6132   1.384   8.329   9.680
  251POPC   GL1 6133   1.346   8.357   9.224
  251POPC   GL2 6134   1.247   8.013   9.122
  251POPC   C1A 6135   1.220   8.447   8.778
  251POPC   D2A 6136   1.498   8.443   8.388
  251POPC   C3A 6137   1.192   8.463   8.111
  251POPC   C4A 6138   1.096   8.193   7.801
  251POPC   C1B 6139   1.016   7.849   8.733
  251POPC   C2B 6140   1.102   7.952   8.281
  251POPC   C3B 6141   1.240   7.716   7.893
  251POPC   C4B 6142   0.961   7.728   7.526
  252POPC   NC3 6143  40.474  18.917   9.245
  252POPC   PO4 6144  40.960  19.340   9.475
  252POPC   GL1 6145  40.906  19.110   9.056
  252POPC   GL2 6146  40.929  18.737   9.032
  252POPC   C1A 6147  40.775  19.257   8.631
  252POPC   D2A 6148  41.022  19.378   8.233
  252POPC   C3A 6149  40.778  19.286   7.842
  252POPC   C4A 6150  40.551  19.040   7.506
  252POPC   C1B 6151  40.657  18.734   8.652
  252POPC   C2B 6152  40.613  18.938   8.264
  252POPC   C3B 6153  40.690  18.761   7.899
  252POPC   C4B 6154  40.548  18.532   7.585
  253POPC   NC3 6155   1.600  28.815   9.473
  253POPC   PO4 6156   1.056  29.245   9.632
  253POPC   GL1 6157   1.166  29.187   9.186
  253POPC   GL2 6158   0.846  29.098   9.085
  253POPC   C1A 6159   1.341  29.171   8.738
  253POPC   D2A 6160   1.309  29.380   8.330
  253POPC   C3A 6161   1.352  29.179   7.905
  253POPC   C4A 6162   1.526  29.094   7.472
  253POPC   C1B 6163   1.000  28.794   8.777
  253POPC   C2B 6164   1.135  28.868   8.345
  253POPC   C3B 6165   0.870  28.998   8.024
  253POPC   C4B 6166   0.722  28.856   7.660
  254POPC   NC3 6167  43.025   6.204   9.757
  254POPC   PO4 6168  42.909   5.623   9.576
  254POPC   GL1 6169  43.064   5.901   9.271
  254POPC   GL2 6170  42.828   5.741   9.005
  254POPC   C1A 6171  43.209   6.025   8.856
  254POPC   D2A 6172  42.949   5.921   8.469
  254POPC   C3A 6173  43.098   6.155   8.128
  254POPC   C4A 6174  43.336   6.289   7.759
  254POPC   C1B 6175  43.171   5.523   8.694
  254POPC   C2B 6176  43.206   5.533   8.210
  254POPC   C3B 6177  43.307   5.793   7.826
  254POPC   C4B 6178  43.398   5.969   7.374
  255POPC   NC3 6179  23.969  20.138   9.456
  255POPC   PO4 6180  23.476  20.546   9.267
  255POPC   GL1 6181  23.767  20.705   9.009
  255POPC   GL2 6182  23.985  20.413   9.036
  255POPC   C1A 6183  23.649  20.660   8.599
  255POPC   D2A 6184  23.488  20.337   8.329
  255POPC   C3A 6185  23.532  20.526   7.951
  255POPC   C4A 6186  23.926  20.741   7.812
  255POPC   C1B 6187  24.139  20.453   8.649
  255POPC   C2B 6188  23.987  20.451   8.259
  255POPC   C3B 6189  23.929  20.226   7.920
  255POPC   C4B 6190  24.096  20.327   7.543
  256POPC   NC3 6191  33.611  44.345   9.686
  256POPC   PO4 6192  33.980  44.727   9.455
  256POPC   GL1 6193  33.630  44.625   9.220
  256POPC   GL2 6194  33.770  44.318   9.127
  256POPC   C1A 6195  33.490  44.680   8.806
  256POPC   D2A 6196  33.588  44.999   8.506
  256POPC   C3A 6197  33.471  44.900   8.089
  256POPC   C4A 6198  33.752  44.687   7.806
  256POPC   C1B 6199  34.001  44.556   8.767
  256POPC   C2B 6200  34.002  44.693   8.309
  256POPC   C3B 6201  34.265  44.698   7.907
  256POPC   C4B 6202  34.130  44.605   7.452
  257POPC   NC3 6203  10.453  41.819   9.786
  257POPC   PO4 6204  10.200  41.283   9.813
  257POPC   GL1 6205  10.379  41.618   9.339
  257POPC   GL2 6206  10.588  41.927   9.237
  257POPC   C1A 6207  10.360  41.654   8.847
  257POPC   D2A 6208  10.447  41.394   8.478
  257POPC   C3A 6209  10.475  41.539   8.051
  257POPC   C4A 6210  10.184  41.515   7.687
  257POPC   C1B 6211  10.797  41.903   8.796
  257POPC   C2B 6212  10.869  41.667   8.374
  257POPC   C3B 6213  10.968  41.744   7.931
  257POPC   C4B 6214  11.006  41.734   7.450
  258POPC   NC3 6215  33.859  17.225   9.423
  258POPC   PO4 6216  33.419  16.629   9.457
  258POPC   GL1 6217  33.755  16.659   9.157
  258POPC   GL2 6218  33.604  16.956   9.075
  258POPC   C1A 6219  33.970  16.800   8.751
  258POPC   D2A 6220  34.203  16.714   8.361
  258POPC   C3A 6221  33.880  16.813   8.055
  258POPC   C4A 6222  33.750  16.930   7.643
  258POPC   C1B 6223  33.343  17.010   8.757
  258POPC   C2B 6224  33.488  16.850   8.399
  258POPC   C3B 6225  33.392  16.982   8.014
  258POPC   C4B 6226  33.270  16.756   7.668
  259POPC   NC3 6227  29.481  21.355   9.596
  259POPC   PO4 6228  28.946  21.748   9.520
  259POPC   GL1 6229  29.147  21.450   9.206
  259POPC   GL2 6230  29.001  21.124   9.014
  259POPC   C1A 6231  29.368  21.401   8.807
  259POPC   D2A 6232  29.333  21.141   8.492
  259POPC   C3A 6233  29.394  21.156   8.073
  259POPC   C4A 6234  29.143  21.291   7.738
  259POPC   C1B 6235  28.963  20.840   8.657
  259POPC   C2B 6236  28.929  20.911   8.194
  259POPC   C3B 6237  28.681  20.988   7.789
  259POPC   C4B 6238  28.904  21.035   7.358
  260POPC   NC3 6239  12.448   3.511   9.408
  260POPC   PO4 6240  13.134   3.589   9.548
  260POPC   GL1 6241  12.960   3.554   9.125
  260POPC   GL2 6242  12.757   3.238   9.077
  260POPC   C1A 6243  12.938   3.714   8.687
  260POPC   D2A 6244  12.899   3.792   8.227
  260POPC   C3A 6245  12.987   3.489   7.941
  260POPC   C4A 6246  13.138   3.818   7.661
  260POPC   C1B 6247  12.480   3.453   8.775
  260POPC   C2B 6248  12.457   3.737   8.450
  260POPC   C3B 6249  12.472   3.474   8.091
  260POPC   C4B 6250  12.530   3.288   7.683
  261POPC   NC3 6251  35.717   1.174   9.646
  261POPC   PO4 6252  36.402   1.287   9.515
  261POPC   GL1 6253  36.270   1.371   9.109
  261POPC   GL2 6254  35.938   1.251   9.136
  261POPC   C1A 6255  36.346   1.614   8.724
  261POPC   D2A 6256  36.195   1.533   8.296
  261POPC   C3A 6257  36.175   1.140   8.049
  261POPC   C4A 6258  36.268   1.212   7.615
  261POPC   C1B 6259  35.856   1.464   8.724
  261POPC   C2B 6260  35.712   1.345   8.303
  261POPC   C3B 6261  35.814   1.471   7.903
  261POPC   C4B 6262  35.784   1.330   7.486
  262POPC   NC3 6263  16.305   9.790   9.883
  262POPC   PO4 6264  15.734   9.906   9.463
  262POPC   GL1 6265  16.020   9.761   9.151
  262POPC   GL2 6266  15.918  10.044   8.995
  262POPC   C1A 6267  15.971   9.501   8.785
  262POPC   D2A 6268  15.760   9.388   8.395
  262POPC   C3A 6269  15.934   9.578   8.040
  262POPC   C4A 6270  15.968   9.679   7.636
  262POPC   C1B 6271  16.214  10.141   8.738
  262POPC   C2B 6272  16.325   9.974   8.388
  262POPC   C3B 6273  16.155  10.039   8.032
  262POPC   C4B 6274  16.085  10.175   7.703
  263POPC   NC3 6275   3.361  31.776   9.392
  263POPC   PO4 6276   3.307  31.180   9.775
  263POPC   GL1 6277   3.264  31.211   9.281
  263POPC   GL2 6278   3.337  31.447   9.022
  263POPC   C1A 6279   3.279  30.993   8.828
  263POPC   D2A 6280   3.381  31.249   8.472
  263POPC   C3A 6281   3.626  31.167   8.092
  263POPC   C4A 6282   3.603  31.393   7.725
  263POPC   C1B 6283   3.500  31.742   8.720
  263POPC   C2B 6284   3.497  31.960   8.318
  263POPC   C3B 6285   3.680  31.913   7.906
  263POPC   C4B 6286   3.468  31.832   7.522
  264POPC   NC3 6287  32.751   5.626   9.301
  264POPC   PO4 6288  32.224   5.819   9.677
  264POPC   GL1 6289  32.072   5.921   9.250
  264POPC   GL2 6290  32.409   5.950   9.098
  264POPC   C1A 6291  32.028   5.825   8.777
  264POPC   D2A 6292  32.301   5.885   8.373
  264POPC   C3A 6293  32.150   5.867   7.910
  264POPC   C4A 6294  32.182   5.948   7.441
  264POPC   C1B 6295  32.706   6.146   8.813
  264POPC   C2B 6296  32.857   6.001   8.415
  264POPC   C3B 6297  32.673   6.020   8.004
  264POPC   C4B 6298  32.647   5.797   7.613
  265POPC   NC3 6299  43.023  29.983   9.581
  265POPC   PO4 6300  43.230  29.441   9.462
  265POPC   GL1 6301  43.298  29.736   9.138
  265POPC   GL2 6302  43.251  30.084   9.140
  265POPC   C1A 6303  43.242  29.692   8.698
  265POPC   D2A 6304  43.215  29.357   8.380
  265POPC   C3A 6305  43.137  29.635   8.048
  265POPC   C4A 6306  43.379  29.850   7.751
  265POPC   C1B 6307  43.103  30.241   8.752
  265POPC   C2B 6308  43.204  30.201   8.318
  265POPC   C3B 6309  43.175  30.399   7.917
  265POPC   C4B 6310  42.944  30.128   7.677
  266POPC   NC3 6311   6.820  33.537   9.561
  266POPC   PO4 6312   7.029  34.090   9.530
  266POPC   GL1 6313   7.170  33.769   9.241
  266POPC   GL2 6314   7.066  33.431   9.133
  266POPC   C1A 6315   7.102  33.830   8.818
  266POPC   D2A 6316   7.403  33.763   8.523
  266POPC   C3A 6317   7.232  33.888   8.155
  266POPC   C4A 6318   7.457  33.716   7.847
  266POPC   C1B 6319   7.168  33.326   8.701
  266POPC   C2B 6320   7.206  33.363   8.264
  266POPC   C3B 6321   7.352  33.229   7.851
  266POPC   C4B 6322   7.186  33.456   7.468
  267POPC   NC3 6323  26.155  16.549   9.464
  267POPC   PO4 6324  25.947  17.166   9.423
  267POPC   GL1 6325  26.051  16.915   9.093
  267POPC   GL2 6326  26.432  16.919   9.181
  267POPC   C1A 6327  25.844  16.639   8.768
  267POPC   D2A 6328  25.717  16.540   8.315
  267POPC   C3A 6329  25.875  16.868   8.011
  267POPC   C4A 6330  25.911  16.733   7.574
  267POPC   C1B 6331  26.382  16.643   8.809
  267POPC   C2B 6332  26.211  16.732   8.405
  267POPC   C3B 6333  26.219  16.496   8.035
  267POPC   C4B 6334  26.355  16.833   7.794
  268POPC   NC3 6335  40.930  15.968   9.431
  268POPC   PO4 6336  40.362  16.103   9.657
  268POPC   GL1 6337  40.433  16.113   9.196
  268POPC   GL2 6338  40.582  15.784   9.117
  268POPC   C1A 6339  40.674  16.151   8.776
  268POPC   D2A 6340  40.869  15.865   8.516
  268POPC   C3A 6341  40.838  15.953   8.057
  268POPC   C4A 6342  40.624  16.070   7.654
  268POPC   C1B 6343  40.611  15.492   8.749
  268POPC   C2B 6344  40.512  15.528   8.306
  268POPC   C3B 6345  40.473  15.652   7.883
  268POPC   C4B 6346  40.457  15.634   7.398
  269POPC   NC3 6347  40.838   3.085   9.487
  269POPC   PO4 6348  40.567   2.498   9.480
  269POPC   GL1 6349  40.641   2.724   9.144
  269POPC   GL2 6350  41.009   2.705   9.173
  269POPC   C1A 6351  40.649   2.736   8.707
  269POPC   D2A 6352  40.729   3.043   8.408
  269POPC   C3A 6353  40.763   2.849   8.040
  269POPC   C4A 6354  40.701   2.878   7.599
  269POPC   C1B 6355  41.090   2.980   8.820
  269POPC   C2B 6356  41.172   2.784   8.437
  269POPC   C3B 6357  41.183   2.521   8.093
  269POPC   C4B 6358  40.962   2.477   7.734
  270POPC   NC3 6359  44.889   3.959   9.342
  270POPC   PO4 6360  44.468   3.449   9.479
  270POPC   GL1 6361  44.493   3.721   9.129
  270POPC   GL2 6362  44.802   3.546   9.047
  270POPC   C1A 6363  44.643   3.818   8.669
  270POPC   D2A 6364  44.792   3.505   8.374
  270POPC   C3A 6365  44.647   3.640   7.988
  270POPC   C4A 6366  44.558   3.419   7.599
  270POPC   C1B 6367  44.609   3.264   8.789
  270POPC   C2B 6368  44.362   3.207   8.434
  270POPC   C3B 6369  44.459   3.126   8.007
  270POPC   C4B 6370  44.191   3.063   7.646
  271POPC   NC3 6371  19.181  33.289   9.427
  271POPC   PO4 6372  18.796  32.774   9.473
  271POPC   GL1 6373  18.928  33.026   9.075
  271POPC   GL2 6374  19.310  33.058   9.000
  271POPC   C1A 6375  18.996  32.886   8.651
  271POPC   D2A 6376  19.051  33.061   8.273
  271POPC   C3A 6377  19.267  33.023   7.917
  271POPC   C4A 6378  18.952  33.026   7.599
  271POPC   C1B 6379  19.523  32.968   8.604
  271POPC   C2B 6380  19.549  32.734   8.235
  271POPC   C3B 6381  19.620  32.693   7.786
  271POPC   C4B 6382  19.416  32.858   7.420
  272POPC   NC3 6383   4.779  24.345   9.597
  272POPC   PO4 6384   5.409  24.625   9.382
  272POPC   GL1 6385   5.019  24.566   9.168
  272POPC   GL2 6386   4.893  24.209   9.113
  272POPC   C1A 6387   5.000  24.612   8.736
  272POPC   D2A 6388   5.291  24.771   8.428
  272POPC   C3A 6389   5.175  24.692   8.012
  272POPC   C4A 6390   4.848  24.668   7.725
  272POPC   C1B 6391   5.269  24.171   8.820
  272POPC   C2B 6392   5.353  24.276   8.366
  272POPC   C3B 6393   5.277  24.100   7.942
  272POPC   C4B 6394   4.940  24.178   7.642
  273POPC   NC3 6395   7.879  12.082   9.534
  273POPC   PO4 6396   7.418  11.669   9.421
  273POPC   GL1 6397   7.697  11.792   9.094
  273POPC   GL2 6398   7.634  12.158   9.099
  273POPC   C1A 6399   7.606  11.875   8.653
  273POPC   D2A 6400   7.501  12.226   8.354
  273POPC   C3A 6401   7.338  12.055   7.960
  273POPC   C4A 6402   6.940  12.130   7.781
  273POPC   C1B 6403   7.894  12.282   8.775
  273POPC   C2B 6404   7.999  12.151   8.353
  273POPC   C3B 6405   7.836  12.183   7.937
  273POPC   C4B 6406   7.765  11.905   7.640
  274POPC   NC3 6407  34.879  43.992   9.510
  274POPC   PO4 6408  34.469  43.468   9.602
  274POPC   GL1 6409  34.615  43.633   9.176
  274POPC   GL2 6410  34.961  43.605   9.167
  274POPC   C1A 6411  34.534  43.733   8.700
  274POPC   D2A 6412  34.421  43.460   8.301
  274POPC   C3A 6413  34.360  43.628   7.854
  274POPC   C4A 6414  34.027  43.774   7.569
  274POPC   C1B 6415  34.966  43.969   8.856
  274POPC   C2B 6416  34.870  44.181   8.470
  274POPC   C3B 6417  35.005  44.161   8.029
  274POPC   C4B 6418  34.803  43.915   7.731
  275POPC   NC3 6419  18.251  24.286   9.457
  275POPC   PO4 6420  18.237  24.931   9.296
  275POPC   GL1 6421  18.460  24.591   9.039
  275POPC   GL2 6422  18.451  24.213   9.008
  275POPC   C1A 6423  18.453  24.563   8.588
  275POPC   D2A 6424  18.204  24.842   8.301
  275POPC   C3A 6425  18.032  24.695   7.926
  275POPC   C4A 6426  18.339  24.441   7.752
  275POPC   C1B 6427  18.268  24.080   8.651
  275POPC   C2B 6428  18.167  24.280   8.256
  275POPC   C3B 6429  17.948  24.161   7.912
  275POPC   C4B 6430  18.079  24.088   7.498
  276POPC   NC3 6431  25.584  34.897   9.472
  276POPC   PO4 6432  25.517  35.593   9.474
  276POPC   GL1 6433  25.354  35.280   9.187
  276POPC   GL2 6434  24.986  35.266   9.205
  276POPC   C1A 6435  25.398  35.278   8.748
  276POPC   D2A 6436  25.426  35.594   8.420
  276POPC   C3A 6437  25.491  35.448   7.986
  276POPC   C4A 6438  25.423  35.114   7.718
  276POPC   C1B 6439  24.977  35.579   8.866
  276POPC   C2B 6440  24.963  35.768   8.451
  276POPC   C3B 6441  25.000  35.599   8.055
  276POPC   C4B 6442  25.020  35.487   7.620
  277POPC   NC3 6443  19.369  44.119   9.502
  277POPC   PO4 6444  18.882  43.684   9.432
  277POPC   GL1 6445  19.049  43.955   9.150
  277POPC   GL2 6446  19.371  43.715   9.189
  277POPC   C1A 6447  18.969  44.275   8.821
  277POPC   D2A 6448  18.713  44.297   8.427
  277POPC   C3A 6449  18.943  44.165   8.040
  277POPC   C4A 6450  18.867  43.755   7.826
  277POPC   C1B 6451  19.192  43.657   8.795
  277POPC   C2B 6452  19.168  43.930   8.457
  277POPC   C3B 6453  19.316  43.822   8.063
  277POPC   C4B 6454  19.390  43.690   7.666
  278POPC   NC3 6455  23.998  11.811   9.532
  278POPC   PO4 6456  24.661  11.990   9.417
  278POPC   GL1 6457  24.364  11.843   9.130
  278POPC   GL2 6458  24.095  12.075   9.108
  278POPC   C1A 6459  24.517  12.006   8.739
  278POPC   D2A 6460  24.725  12.330   8.481
  278POPC   C3A 6461  24.835  12.211   8.053
  278POPC   C4A 6462  24.749  11.828   7.884
  278POPC   C1B 6463  24.021  11.881   8.692
  278POPC   C2B 6464  24.111  12.093   8.282
  278POPC   C3B 6465  24.118  12.122   7.814
  278POPC   C4B 6466  23.957  12.138   7.371
  279POPC   NC3 6467  21.178  41.980   9.422
  279POPC   PO4 6468  21.092  42.598   9.661
  279POPC   GL1 6469  21.283  42.479   9.212
  279POPC   GL2 6470  21.578  42.644   9.116
  279POPC   C1A 6471  21.232  42.192   8.796
  279POPC   D2A 6472  21.084  42.039   8.378
  279POPC   C3A 6473  21.267  42.121   7.977
  279POPC   C4A 6474  21.547  42.298   7.727
  279POPC   C1B 6475  21.332  42.676   8.733
  279POPC   C2B 6476  21.306  42.495   8.336
  279POPC   C3B 6477  21.211  42.641   7.925
  279POPC   C4B 6478  21.162  42.570   7.492
  280POPC   NC3 6479  21.631  17.248   9.517
  280POPC   PO4 6480  20.921  17.266   9.565
  280POPC   GL1 6481  21.207  17.334   9.196
  280POPC   GL2 6482  21.408  17.654   9.256
  280POPC   C1A 6483  21.337  17.276   8.757
  280POPC   D2A 6484  21.202  17.559   8.429
  280POPC   C3A 6485  21.331  17.368   8.083
  280POPC   C4A 6486  21.204  17.506   7.672
  280POPC   C1B 6487  21.436  17.761   8.833
  280POPC   C2B 6488  21.695  17.691   8.438
  280POPC   C3B 6489  21.603  17.781   7.990
  280POPC   C4B 6490  21.656  17.696   7.544
  281POPC   NC3 6491  22.024  31.419   9.455
  281POPC   PO4 6492  22.497  31.852   9.468
  281POPC   GL1 6493  22.520  31.655   9.052
  281POPC   GL2 6494  22.390  31.305   9.087
  281POPC   C1A 6495  22.397  31.573   8.640
  281POPC   D2A 6496  21.981  31.573   8.454
  281POPC   C3A 6497  22.017  31.553   8.025
  281POPC   C4A 6498  22.099  31.345   7.658
  281POPC   C1B 6499  22.160  31.125   8.748
  281POPC   C2B 6500  22.290  31.178   8.306
  281POPC   C3B 6501  22.492  31.017   7.960
  281POPC   C4B 6502  22.364  30.875   7.563
  282POPC   NC3 6503  37.996   6.592   9.416
  282POPC   PO4 6504  37.468   7.096   9.405
  282POPC   GL1 6505  37.627   6.780   9.104
  282POPC   GL2 6506  37.931   6.948   9.051
  282POPC   C1A 6507  37.880   6.545   8.756
  282POPC   D2A 6508  38.048   6.611   8.345
  282POPC   C3A 6509  37.819   6.628   7.949
  282POPC   C4A 6510  37.779   6.698   7.503
  282POPC   C1B 6511  37.691   7.039   8.665
  282POPC   C2B 6512  37.649   7.025   8.215
  282POPC   C3B 6513  37.491   7.034   7.782
  282POPC   C4B 6514  37.430   7.041   7.298
  283POPC   NC3 6515  19.087   7.121   9.518
  283POPC   PO4 6516  19.086   6.442   9.476
  283POPC   GL1 6517  19.138   6.770   9.152
  283POPC   GL2 6518  18.792   6.923   9.148
  283POPC   C1A 6519  19.103   6.865   8.711
  283POPC   D2A 6520  19.077   6.485   8.438
  283POPC   C3A 6521  19.016   6.577   7.995
  283POPC   C4A 6522  19.241   6.786   7.661
  283POPC   C1B 6523  18.634   6.697   8.784
  283POPC   C2B 6524  18.697   6.837   8.365
  283POPC   C3B 6525  18.735   7.023   7.982
  283POPC   C4B 6526  18.739   6.842   7.629
  284POPC   NC3 6527   8.565  43.383   9.388
  284POPC   PO4 6528   9.112  43.798   9.406
  284POPC   GL1 6529   9.084  43.625   9.034
  284POPC   GL2 6530   8.740  43.696   9.026
  284POPC   C1A 6531   9.002  43.786   8.605
  284POPC   D2A 6532   9.188  44.157   8.387
  284POPC   C3A 6533   9.250  44.043   7.947
  284POPC   C4A 6534   9.218  43.695   7.643
  284POPC   C1B 6535   8.530  43.523   8.669
  284POPC   C2B 6536   8.634  43.530   8.222
  284POPC   C3B 6537   8.782  43.809   7.891
  284POPC   C4B 6538   8.762  43.764   7.425
  285POPC   NC3 6539  21.723   3.357   9.484
  285POPC   PO4 6540  21.157   3.706   9.304
  285POPC   GL1 6541  21.223   3.339   9.134
  285POPC   GL2 6542  21.559   3.477   9.038
  285POPC   C1A 6543  21.035   3.286   8.748
  285POPC   D2A 6544  21.016   3.601   8.433
  285POPC   C3A 6545  20.954   3.471   8.019
  285POPC   C4A 6546  21.070   3.666   7.647
  285POPC   C1B 6547  21.586   3.251   8.703
  285POPC   C2B 6548  21.511   3.452   8.335
  285POPC   C3B 6549  21.449   3.392   7.914
  285POPC   C4B 6550  21.827   3.384   7.707
  286POPC   NC3 6551  10.298  11.199   9.452
  286POPC   PO4 6552   9.599  11.377   9.515
  286POPC   GL1 6553   9.808  11.275   9.146
  286POPC   GL2 6554  10.048  11.577   9.196
  286POPC   C1A 6555   9.755  11.145   8.676
  286POPC   D2A 6556   9.779  11.271   8.261
  286POPC   C3A 6557   9.708  11.073   7.899
  286POPC   C4A 6558   9.427  11.224   7.598
  286POPC   C1B 6559  10.202  11.313   8.830
  286POPC   C2B 6560  10.257  11.229   8.436
  286POPC   C3B 6561  10.252  11.425   8.064
  286POPC   C4B 6562  10.125  11.318   7.680
  287POPC   NC3 6563  13.896   8.589   9.466
  287POPC   PO4 6564  13.959   9.284   9.453
  287POPC   GL1 6565  13.639   9.151   9.140
  287POPC   GL2 6566  13.708   8.833   9.055
  287POPC   C1A 6567  13.496   9.129   8.686
  287POPC   D2A 6568  13.652   8.952   8.273
  287POPC   C3A 6569  13.555   9.117   7.846
  287POPC   C4A 6570  13.819   9.025   7.474
  287POPC   C1B 6571  13.555   8.617   8.688
  287POPC   C2B 6572  13.268   8.587   8.305
  287POPC   C3B 6573  13.338   8.638   7.862
  287POPC   C4B 6574  13.325   8.847   7.443
  288POPC   NC3 6575  17.040   7.893   9.315
  288POPC   PO4 6576  16.656   8.475   9.583
  288POPC   GL1 6577  16.737   8.286   9.160
  288POPC   GL2 6578  16.495   8.383   8.923
  288POPC   C1A 6579  16.947   8.133   8.743
  288POPC   D2A 6580  17.099   8.351   8.388
  288POPC   C3A 6581  16.983   8.130   7.998
  288POPC   C4A 6582  17.007   7.987   7.560
  288POPC   C1B 6583  16.583   8.349   8.482
  288POPC   C2B 6584  16.574   7.943   8.276
  288POPC   C3B 6585  16.556   7.844   7.838
  288POPC   C4B 6586  16.434   8.207   7.614
  289POPC   NC3 6587  15.366  15.971   9.526
  289POPC   PO4 6588  14.916  16.368   9.448
  289POPC   GL1 6589  15.105  16.117   9.125
  289POPC   GL2 6590  15.475  16.276   9.132
  289POPC   C1A 6591  15.034  15.817   8.773
  289POPC   D2A 6592  15.119  15.703   8.321
  289POPC   C3A 6593  14.780  15.691   8.014
  289POPC   C4A 6594  14.788  15.657   7.563
  289POPC   C1B 6595  15.519  15.982   8.790
  289POPC   C2B 6596  15.466  16.101   8.356
  289POPC   C3B 6597  15.392  16.099   7.903
  289POPC   C4B 6598  15.471  16.243   7.474
  290POPC   NC3 6599   9.358  31.294   9.706
  290POPC   PO4 6600   8.779  31.251   9.377
  290POPC   GL1 6601   8.989  31.450   9.061
  290POPC   GL2 6602   8.885  31.724   9.057
  290POPC   C1A 6603   9.140  31.269   8.666
  290POPC   D2A 6604   8.851  31.047   8.368
  290POPC   C3A 6605   8.827  31.230   7.948
  290POPC   C4A 6606   9.159  31.444   7.717
  290POPC   C1B 6607   8.938  31.720   8.633
  290POPC   C2B 6608   9.018  31.567   8.269
  290POPC   C3B 6609   8.870  31.778   7.959
  290POPC   C4B 6610   9.063  32.092   7.725
  291POPC   NC3 6611  24.181  10.051   9.550
  291POPC   PO4 6612  24.439   9.393   9.442
  291POPC   GL1 6613  24.436   9.674   9.123
  291POPC   GL2 6614  24.144   9.828   9.101
  291POPC   C1A 6615  24.493   9.699   8.675
  291POPC   D2A 6616  24.621   9.842   8.272
  291POPC   C3A 6617  24.458   9.625   7.926
  291POPC   C4A 6618  24.596   9.381   7.609
  291POPC   C1B 6619  24.159  10.119   8.718
  291POPC   C2B 6620  24.318  10.279   8.348
  291POPC   C3B 6621  24.308  10.123   7.943
  291POPC   C4B 6622  24.040   9.822   7.733
  292POPC   NC3 6623   8.260  21.725   9.531
  292POPC   PO4 6624   8.233  22.287   9.511
  292POPC   GL1 6625   8.053  22.092   9.157
  292POPC   GL2 6626   8.356  21.936   9.070
  292POPC   C1A 6627   8.059  22.170   8.703
  292POPC   D2A 6628   8.191  21.991   8.302
  292POPC   C3A 6629   8.113  22.187   7.906
  292POPC   C4A 6630   8.052  22.641   7.797
  292POPC   C1B 6631   8.557  21.923   8.683
  292POPC   C2B 6632   8.672  21.862   8.267
  292POPC   C3B 6633   8.558  21.905   7.860
  292POPC   C4B 6634   8.335  21.910   7.478
  293POPC   NC3 6635  22.142  30.429   9.526
  293POPC   PO4 6636  22.429  31.100   9.553
  293POPC   GL1 6637  22.172  30.854   9.238
  293POPC   GL2 6638  21.809  30.943   9.207
  293POPC   C1A 6639  22.066  30.573   8.876
  293POPC   D2A 6640  22.208  30.690   8.470
  293POPC   C3A 6641  22.151  30.446   8.127
  293POPC   C4A 6642  22.169  30.448   7.711
  293POPC   C1B 6643  21.671  30.891   8.769
  293POPC   C2B 6644  21.802  31.047   8.361
  293POPC   C3B 6645  21.984  30.899   7.943
  293POPC   C4B 6646  21.882  30.918   7.471
  294POPC   NC3 6647  35.139  41.389   9.405
  294POPC   PO4 6648  35.815  41.281   9.397
  294POPC   GL1 6649  35.533  41.378   9.052
  294POPC   GL2 6650  35.409  41.728   9.080
  294POPC   C1A 6651  35.320  41.469   8.651
  294POPC   D2A 6652  35.378  41.886   8.397
  294POPC   C3A 6653  35.394  41.741   7.949
  294POPC   C4A 6654  35.690  41.749   7.552
  294POPC   C1B 6655  35.028  41.851   8.806
  294POPC   C2B 6656  34.891  41.769   8.357
  294POPC   C3B 6657  34.792  41.582   7.961
  294POPC   C4B 6658  35.025  41.235   7.826
  295POPC   NC3 6659  30.402  38.326   9.418
  295POPC   PO4 6660  31.110  38.602   9.343
  295POPC   GL1 6661  30.709  38.596   9.125
  295POPC   GL2 6662  30.710  38.230   9.020
  295POPC   C1A 6663  30.440  38.564   8.731
  295POPC   D2A 6664  30.552  38.306   8.352
  295POPC   C3A 6665  30.478  38.488   7.922
  295POPC   C4A 6666  30.674  38.414   7.480
  295POPC   C1B 6667  30.945  38.436   8.693
  295POPC   C2B 6668  31.028  38.593   8.289
  295POPC   C3B 6669  30.992  38.515   7.845
  295POPC   C4B 6670  31.100  38.733   7.427
  296POPC   NC3 6671  38.904  17.208   9.554
  296POPC   PO4 6672  38.825  17.875   9.465
  296POPC   GL1 6673  38.902  17.666   9.092
  296POPC   GL2 6674  39.111  17.397   9.097
  296POPC   C1A 6675  38.987  17.592   8.650
  296POPC   D2A 6676  39.332  17.712   8.405
  296POPC   C3A 6677  39.259  17.424   8.088
  296POPC   C4A 6678  38.952  17.434   7.744
  296POPC   C1B 6679  39.322  17.218   8.720
  296POPC   C2B 6680  39.523  17.000   8.371
  296POPC   C3B 6681  39.643  17.113   7.956
  296POPC   C4B 6682  39.402  17.294   7.604
  297POPC   NC3 6683  31.664  13.630   9.542
  297POPC   PO4 6684  31.122  13.205   9.596
  297POPC   GL1 6685  31.256  13.577   9.227
  297POPC   GL2 6686  31.601  13.823   9.095
  297POPC   C1A 6687  31.330  13.598   8.754
  297POPC   D2A 6688  31.447  13.701   8.338
  297POPC   C3A 6689  31.255  13.509   7.983
  297POPC   C4A 6690  31.207  13.894   7.784
  297POPC   C1B 6691  31.818  13.497   8.850
  297POPC   C2B 6692  31.910  13.450   8.426
  297POPC   C3B 6693  31.756  13.410   8.015
  297POPC   C4B 6694  31.616  13.629   7.626
  298POPC   NC3 6695   2.050  43.420   9.237
  298POPC   PO4 6696   1.776  42.834   9.267
  298POPC   GL1 6697   1.607  43.102   8.995
  298POPC   GL2 6698   1.438  42.824   8.831
  298POPC   C1A 6699   1.739  43.362   8.620
  298POPC   D2A 6700   1.961  43.546   8.244
  298POPC   C3A 6701   2.343  43.357   8.103
  298POPC   C4A 6702   2.242  43.081   7.798
  298POPC   C1B 6703   1.870  42.834   8.631
  298POPC   C2B 6704   1.999  43.012   8.256
  298POPC   C3B 6705   1.754  43.087   7.889
  298POPC   C4B 6706   1.492  42.850   7.605
  299POPC   NC3 6707  37.707  41.032   9.330
  299POPC   PO4 6708  37.441  40.429   9.545
  299POPC   GL1 6709  37.544  40.583   9.133
  299POPC   GL2 6710  37.940  40.595   9.133
  299POPC   C1A 6711  37.407  40.795   8.732
  299POPC   D2A 6712  37.568  40.705   8.297
  299POPC   C3A 6713  37.281  40.754   7.927
  299POPC   C4A 6714  37.329  41.066   7.585
  299POPC   C1B 6715  37.895  40.879   8.742
  299POPC   C2B 6716  37.708  41.184   8.479
  299POPC   C3B 6717  37.557  41.209   8.057
  299POPC   C4B 6718  37.778  40.913   7.826
  300POPC   NC3 6719  26.654  39.731   9.299
  300POPC   PO4 6720  26.825  39.039   9.404
  300POPC   GL1 6721  26.879  39.262   8.957
  300POPC   GL2 6722  26.683  39.576   8.844
  300POPC   C1A 6723  26.934  39.403   8.473
  300POPC   D2A 6724  26.607  39.515   8.186
  300POPC   C3A 6725  26.764  39.256   7.874
  300POPC   C4A 6726  27.076  38.893   7.856
  300POPC   C1B 6727  27.218  39.604   8.853
  300POPC   C2B 6728  27.403  39.654   8.408
  300POPC   C3B 6729  27.223  39.504   7.964
  300POPC   C4B 6730  27.379  39.599   7.520
  301POPC   NC3 6731  38.499  40.527   9.673
  301POPC   PO4 6732  38.151  41.131   9.484
  301POPC   GL1 6733  38.417  40.844   9.184
  301POPC   GL2 6734  38.581  40.484   9.159
  301POPC   C1A 6735  38.336  40.662   8.766
  301POPC   D2A 6736  38.119  40.572   8.404
  301POPC   C3A 6737  38.358  40.794   8.142
  301POPC   C4A 6738  38.289  40.915   7.773
  301POPC   C1B 6739  38.794  40.475   8.735
  301POPC   C2B 6740  38.752  40.493   8.271
  301POPC   C3B 6741  38.598  40.463   7.814
  301POPC   C4B 6742  38.635  40.222   7.412
  302POPC   NC3 6743  26.466  39.745   9.784
  302POPC   PO4 6744  27.071  39.912   9.461
  302POPC   GL1 6745  27.040  40.071   9.070
  302POPC   GL2 6746  26.758  40.204   9.130
  302POPC   C1A 6747  26.965  39.963   8.639
  302POPC   D2A 6748  26.975  39.880   8.212
  302POPC   C3A 6749  26.837  39.803   7.808
  302POPC   C4A 6750  26.878  39.732   7.409
  302POPC   C1B 6751  26.563  40.228   8.757
  302POPC   C2B 6752  26.508  39.978   8.421
  302POPC   C3B 6753  26.482  40.076   8.028
  302POPC   C4B 6754  26.503  40.170   7.604
  303POPC   NC3 6755  40.549   9.907   9.527
  303POPC   PO4 6756  40.829   9.445   9.840
  303POPC   GL1 6757  40.725   9.493   9.316
  303POPC   GL2 6758  40.456   9.462   9.103
  303POPC   C1A 6759  40.740   9.804   8.892
  303POPC   D2A 6760  40.840   9.726   8.449
  303POPC   C3A 6761  40.624   9.779   8.053
  303POPC   C4A 6762  40.850   9.675   7.656
  303POPC   C1B 6763  40.387   9.509   8.655
  303POPC   C2B 6764  40.542   9.308   8.301
  303POPC   C3B 6765  40.545   9.296   7.852
  303POPC   C4B 6766  40.485   9.311   7.395
  304POPC   NC3 6767  44.489  31.963   9.486
  304POPC   PO4 6768  44.907  31.378   9.511
  304POPC   GL1 6769  44.688  31.477   9.178
  304POPC   GL2 6770  44.823  31.797   9.160
  304POPC   C1A 6771  44.692  31.297   8.775
  304POPC   D2A 6772  44.664  31.514   8.390
  304POPC   C3A 6773  44.553  31.253   8.061
  304POPC   C4A 6774  44.771  31.189   7.688
  304POPC   C1B 6775  44.577  31.892   8.782
  304POPC   C2B 6776  44.635  32.037   8.348
  304POPC   C3B 6777  44.836  31.962   7.972
  304POPC   C4B 6778  44.619  31.658   7.752
  305POPC   NC3 6779  36.540  42.233   9.530
  305POPC   PO4 6780  35.924  42.264   9.543
  305POPC   GL1 6781  36.156  42.235   9.163
  305POPC   GL2 6782  36.321  42.557   9.192
  305POPC   C1A 6783  35.983  42.200   8.739
  305POPC   D2A 6784  35.773  42.311   8.346
  305POPC   C3A 6785  35.814  42.022   8.003
  305POPC   C4A 6786  36.058  42.074   7.634
  305POPC   C1B 6787  36.389  42.522   8.765
  305POPC   C2B 6788  36.374  42.280   8.378
  305POPC   C3B 6789  36.179  42.387   8.011
  305POPC   C4B 6790  36.252  42.646   7.673
  306POPC   NC3 6791  23.226   5.884   9.196
  306POPC   PO4 6792  22.900   5.380   9.532
  306POPC   GL1 6793  22.690   5.686   9.162
  306POPC   GL2 6794  22.787   6.037   9.024
  306POPC   C1A 6795  22.603   5.635   8.693
  306POPC   D2A 6796  23.008   5.478   8.492
  306POPC   C3A 6797  23.084   5.679   8.136
  306POPC   C4A 6798  22.697   5.595   7.871
  306POPC   C1B 6799  22.958   5.994   8.594
  306POPC   C2B 6800  22.674   5.978   8.259
  306POPC   C3B 6801  22.667   6.093   7.811
  306POPC   C4B 6802  23.087   5.912   7.693
  307POPC   NC3 6803  42.029   1.098   9.359
  307POPC   PO4 6804  42.708   1.142   9.494
  307POPC   GL1 6805  42.464   1.287   9.099
  307POPC   GL2 6806  42.141   1.515   9.094
  307POPC   C1A 6807  42.299   1.244   8.656
  307POPC   D2A 6808  42.053   1.061   8.287
  307POPC   C3A 6809  42.323   1.185   7.945
  307POPC   C4A 6810  42.665   1.441   7.772
  307POPC   C1B 6811  41.848   1.482   8.736
  307POPC   C2B 6812  42.046   1.579   8.329
  307POPC   C3B 6813  42.243   1.700   7.951
  307POPC   C4B 6814  42.029   1.550   7.600
  308POPC   NC3 6815  24.137   8.265   9.421
  308POPC   PO4 6816  24.742   8.519   9.418
  308POPC   GL1 6817  24.567   8.235   9.158
  308POPC   GL2 6818  24.372   8.510   9.042
  308POPC   C1A 6819  24.386   8.044   8.792
  308POPC   D2A 6820  24.552   7.975   8.388
  308POPC   C3A 6821  24.347   8.134   8.030
  308POPC   C4A 6822  24.343   7.922   7.685
  308POPC   C1B 6823  24.368   8.680   8.653
  308POPC   C2B 6824  24.600   8.710   8.264
  308POPC   C3B 6825  24.616   8.553   7.848
  308POPC   C4B 6826  24.196   8.528   7.663
  309POPC   NC3 6827  23.379  40.622   9.406
  309POPC   PO4 6828  23.994  41.003   9.460
  309POPC   GL1 6829  23.811  40.911   9.081
  309POPC   GL2 6830  23.466  41.020   9.048
  309POPC   C1A 6831  23.769  40.634   8.672
  309POPC   D2A 6832  23.981  40.533   8.295
  309POPC   C3A 6833  23.711  40.607   7.930
  309POPC   C4A 6834  23.354  40.846   7.775
  309POPC   C1B 6835  23.703  41.134   8.660
  309POPC   C2B 6836  23.628  40.981   8.267
  309POPC   C3B 6837  23.762  41.124   7.910
  309POPC   C4B 6838  24.056  41.246   7.662
  310POPC   NC3 6839  32.871  33.484   9.348
  310POPC   PO4 6840  33.126  34.021   9.198
  310POPC   GL1 6841  32.752  33.922   8.974
  310POPC   GL2 6842  32.400  34.079   9.059
  310POPC   C1A 6843  32.891  33.830   8.542
  310POPC   D2A 6844  33.269  33.870   8.273
  310POPC   C3A 6845  33.213  33.623   7.900
  310POPC   C4A 6846  32.874  33.657   7.605
  310POPC   C1B 6847  32.505  34.315   8.696
  310POPC   C2B 6848  32.754  34.272   8.327
  310POPC   C3B 6849  32.819  33.966   8.026
  310POPC   C4B 6850  32.496  33.982   7.733
  311POPC   NC3 6851  30.666  18.038   9.135
  311POPC   PO4 6852  31.179  18.049   9.624
  311POPC   GL1 6853  31.056  18.368   9.137
  311POPC   GL2 6854  30.780  18.600   9.044
  311POPC   C1A 6855  30.955  18.327   8.643
  311POPC   D2A 6856  30.519  18.143   8.475
  311POPC   C3A 6857  30.538  18.137   8.020
  311POPC   C4A 6858  30.893  18.199   7.776
  311POPC   C1B 6859  30.545  18.650   8.648
  311POPC   C2B 6860  30.694  18.567   8.251
  311POPC   C3B 6861  30.632  18.656   7.852
  311POPC   C4B 6862  30.807  18.614   7.449
  312POPC   NC3 6863   7.031  42.623   9.924
  312POPC   PO4 6864   6.635  42.199   9.585
  312POPC   GL1 6865   6.602  42.230   9.157
  312POPC   GL2 6866   6.621  41.888   9.062
  312POPC   C1A 6867   6.488  42.571   8.853
  312POPC   D2A 6868   6.485  42.850   8.463
  312POPC   C3A 6869   6.536  42.642   8.089
  312POPC   C4A 6870   6.547  42.435   7.707
  312POPC   C1B 6871   6.845  42.037   8.748
  312POPC   C2B 6872   6.656  42.148   8.376
  312POPC   C3B 6873   6.752  42.029   7.958
  312POPC   C4B 6874   7.033  42.205   7.701
  313POPC   NC3 6875  15.280  28.693   9.484
  313POPC   PO4 6876  15.057  28.108   9.554
  313POPC   GL1 6877  15.182  28.225   9.146
  313POPC   GL2 6878  15.486  28.407   9.112
  313POPC   C1A 6879  15.155  28.237   8.719
  313POPC   D2A 6880  15.303  28.354   8.352
  313POPC   C3A 6881  15.226  28.113   8.037
  313POPC   C4A 6882  15.095  28.330   7.732
  313POPC   C1B 6883  15.350  28.688   8.744
  313POPC   C2B 6884  15.256  28.859   8.339
  313POPC   C3B 6885  15.164  28.809   7.909
  313POPC   C4B 6886  15.370  28.699   7.522
  314POPC   NC3 6887  11.093  35.645   9.773
  314POPC   PO4 6888  11.387  36.224   9.503
  314POPC   GL1 6889  11.499  36.260   9.046
  314POPC   GL2 6890  11.655  35.947   9.029
  314POPC   C1A 6891  11.426  36.258   8.560
  314POPC   D2A 6892  11.227  36.251   8.124
  314POPC   C3A 6893  11.434  36.164   7.730
  314POPC   C4A 6894  11.290  36.150   7.309
  314POPC   C1B 6895  11.770  35.883   8.600
  314POPC   C2B 6896  11.611  35.906   8.168
  314POPC   C3B 6897  11.218  35.758   7.925
  314POPC   C4B 6898  11.288  35.565   7.536
  315POPC   NC3 6899  24.288  16.507   9.470
  315POPC   PO4 6900  24.980  16.811   9.470
  315POPC   GL1 6901  24.682  16.827   9.121
  315POPC   GL2 6902  24.521  16.556   9.013
  315POPC   C1A 6903  24.696  17.090   8.735
  315POPC   D2A 6904  24.946  17.107   8.339
  315POPC   C3A 6905  24.905  16.990   7.894
  315POPC   C4A 6906  24.565  17.001   7.705
  315POPC   C1B 6907  24.390  16.711   8.622
  315POPC   C2B 6908  24.526  16.812   8.202
  315POPC   C3B 6909  24.576  16.515   7.853
  315POPC   C4B 6910  24.306  16.397   7.481
  316POPC   NC3 6911  30.633  13.247   9.666
  316POPC   PO4 6912  30.394  13.876   9.452
  316POPC   GL1 6913  30.693  13.604   9.280
  316POPC   GL2 6914  30.513  13.313   9.185
  316POPC   C1A 6915  30.837  13.595   8.869
  316POPC   D2A 6916  30.945  13.457   8.454
  316POPC   C3A 6917  30.844  13.749   8.149
  316POPC   C4A 6918  30.794  13.576   7.746
  316POPC   C1B 6919  30.320  13.561   8.870
  316POPC   C2B 6920  30.400  13.530   8.440
  316POPC   C3B 6921  30.374  13.602   8.018
  316POPC   C4B 6922  30.351  13.305   7.726
  317POPC   NC3 6923   4.468  33.388   9.608
  317POPC   PO4 6924   4.221  33.999   9.536
  317POPC   GL1 6925   4.346  33.732   9.232
  317POPC   GL2 6926   4.058  33.501   9.315
  317POPC   C1A 6927   4.458  33.834   8.809
  317POPC   D2A 6928   4.675  33.767   8.434
  317POPC   C3A 6929   4.354  33.918   8.153
  317POPC   C4A 6930   4.407  33.889   7.745
  317POPC   C1B 6931   4.060  33.500   8.875
  317POPC   C2B 6932   4.211  33.499   8.443
  317POPC   C3B 6933   4.061  33.496   8.004
  317POPC   C4B 6934   4.213  33.440   7.622
  318POPC   NC3 6935   0.007  10.651   9.457
  318POPC   PO4 6936  44.464  10.400   9.567
  318POPC   GL1 6937  44.635  10.406   9.137
  318POPC   GL2 6938  44.659  10.762   8.994
  318POPC   C1A 6939  44.677  10.374   8.681
  318POPC   D2A 6940  44.559  10.719   8.419
  318POPC   C3A 6941  44.434  10.720   8.013
  318POPC   C4A 6942  44.591  10.605   7.635
  318POPC   C1B 6943  44.886  10.998   8.688
  318POPC   C2B 6944  44.973  11.023   8.238
  318POPC   C3B 6945  44.834  11.011   7.800
  318POPC   C4B 6946  44.871  10.988   7.328
  319POPC   NC3 6947   2.289  20.262   9.299
  319POPC   PO4 6948   2.059  19.658   9.500
  319POPC   GL1 6949   2.140  19.801   9.123
  319POPC   GL2 6950   1.840  20.036   9.131
  319POPC   C1A 6951   2.192  19.609   8.724
  319POPC   D2A 6952   1.968  19.467   8.357
  319POPC   C3A 6953   2.128  19.678   7.999
  319POPC   C4A 6954   2.344  19.746   7.637
  319POPC   C1B 6955   1.641  20.090   8.725
  319POPC   C2B 6956   1.754  19.996   8.292
  319POPC   C3B 6957   1.636  19.834   7.892
  319POPC   C4B 6958   1.861  19.954   7.539
  320POPC   NC3 6959   6.287  18.288   9.534
  320POPC   PO4 6960   6.882  18.167   9.223
  320POPC   GL1 6961   6.785  18.490   8.964
  320POPC   GL2 6962   6.426  18.473   9.026
  320POPC   C1A 6963   6.867  18.451   8.540
  320POPC   D2A 6964   7.005  18.048   8.348
  320POPC   C3A 6965   6.809  18.073   7.947
  320POPC   C4A 6966   6.782  18.439   7.640
  320POPC   C1B 6967   6.491  18.103   8.731
  320POPC   C2B 6968   6.441  18.000   8.306
  320POPC   C3B 6969   6.339  17.913   7.878
  320POPC   C4B 6970   6.535  18.048   7.480
  321POPC   NC3 6971  23.287  36.108   9.427
  321POPC   PO4 6972  22.713  36.133   9.772
  321POPC   GL1 6973  22.870  36.286   9.231
  321POPC   GL2 6974  22.754  36.569   9.048
  321POPC   C1A 6975  22.956  36.212   8.766
  321POPC   D2A 6976  22.903  35.932   8.412
  321POPC   C3A 6977  23.061  36.064   8.017
  321POPC   C4A 6978  23.003  36.039   7.535
  321POPC   C1B 6979  22.684  36.706   8.640
  321POPC   C2B 6980  22.603  36.362   8.390
  321POPC   C3B 6981  22.519  36.332   8.003
  321POPC   C4B 6982  22.840  36.461   7.799
  322POPC   NC3 6983  13.136   4.831   9.517
  322POPC   PO4 6984  13.785   5.029   9.474
  322POPC   GL1 6985  13.482   4.951   9.153
  322POPC   GL2 6986  13.739   5.048   8.955
  322POPC   C1A 6987  13.292   5.116   8.754
  322POPC   D2A 6988  13.255   4.937   8.326
  322POPC   C3A 6989  13.508   5.123   7.975
  322POPC   C4A 6990  13.989   5.201   7.875
  322POPC   C1B 6991  13.667   4.773   8.623
  322POPC   C2B 6992  13.853   4.806   8.217
  322POPC   C3B 6993  13.626   4.610   7.898
  322POPC   C4B 6994  13.273   4.731   7.690
  323POPC   NC3 6995  13.432  36.535   9.488
  323POPC   PO4 6996  13.654  37.203   9.508
  323POPC   GL1 6997  13.429  36.974   9.196
  323POPC   GL2 6998  13.678  36.796   9.131
  323POPC   C1A 6999  13.362  36.638   8.797
  323POPC   D2A 7000  13.512  36.719   8.378
  323POPC   C3A 7001  13.409  36.533   7.985
  323POPC   C4A 7002  13.415  36.799   7.616
  323POPC   C1B 7003  13.640  37.075   8.757
  323POPC   C2B 7004  13.925  37.060   8.411
  323POPC   C3B 7005  14.002  37.228   7.989
  323POPC   C4B 7006  13.807  37.105   7.651
  324POPC   NC3 7007  36.327   1.996   9.787
  324POPC   PO4 7008  37.062   2.010   9.641
  324POPC   GL1 7009  37.065   1.980   9.199
  324POPC   GL2 7010  36.864   2.262   9.173
  324POPC   C1A 7011  36.816   1.913   8.807
  324POPC   D2A 7012  36.820   1.607   8.488
  324POPC   C3A 7013  36.822   1.799   8.088
  324POPC   C4A 7014  36.906   1.926   7.687
  324POPC   C1B 7015  36.773   2.433   8.789
  324POPC   C2B 7016  36.671   2.223   8.372
  324POPC   C3B 7017  36.748   2.355   7.953
  324POPC   C4B 7018  36.541   2.388   7.581
  325POPC   NC3 7019  12.460  40.873   9.558
  325POPC   PO4 7020  11.932  41.147   9.578
  325POPC   GL1 7021  12.079  40.970   9.206
  325POPC   GL2 7022  12.210  40.622   9.184
  325POPC   C1A 7023  11.965  40.987   8.791
  325POPC   D2A 7024  12.055  40.801   8.410
  325POPC   C3A 7025  12.288  41.072   8.179
  325POPC   C4A 7026  12.156  41.014   7.809
  325POPC   C1B 7027  12.225  40.474   8.774
  325POPC   C2B 7028  12.182  40.278   8.382
  325POPC   C3B 7029  12.135  40.496   8.000
  325POPC   C4B 7030  12.149  40.579   7.561
  326POPC   NC3 7031  23.182  21.305   9.574
  326POPC   PO4 7032  22.611  21.400   9.227
  326POPC   GL1 7033  22.810  21.577   8.950
  326POPC   GL2 7034  23.094  21.421   9.077
  326POPC   C1A 7035  22.668  21.529   8.558
  326POPC   D2A 7036  22.591  21.723   8.242
  326POPC   C3A 7037  22.566  21.454   7.999
  326POPC   C4A 7038  22.917  21.451   7.842
  326POPC   C1B 7039  22.948  21.127   8.704
  326POPC   C2B 7040  22.879  21.130   8.252
  326POPC   C3B 7041  23.188  21.049   7.904
  326POPC   C4B 7042  23.227  21.262   7.490
  327POPC   NC3 7043  34.896   8.366   9.481
  327POPC   PO4 7044  34.852   7.682   9.520
  327POPC   GL1 7045  34.712   7.914   9.174
  327POPC   GL2 7046  34.499   8.223   9.159
  327POPC   C1A 7047  34.698   8.016   8.745
  327POPC   D2A 7048  34.716   8.184   8.356
  327POPC   C3A 7049  34.640   7.905   8.006
  327POPC   C4A 7050  34.788   8.121   7.713
  327POPC   C1B 7051  34.532   8.505   8.793
  327POPC   C2B 7052  34.383   8.584   8.382
  327POPC   C3B 7053  34.548   8.514   7.989
  327POPC   C4B 7054  34.344   8.341   7.664
  328POPC   NC3 7055  11.733  32.865   9.474
  328POPC   PO4 7056  12.341  32.761   9.531
  328POPC   GL1 7057  12.279  32.916   9.121
  328POPC   GL2 7058  11.949  32.880   9.006
  328POPC   C1A 7059  12.343  33.006   8.692
  328POPC   D2A 7060  12.368  32.726   8.357
  328POPC   C3A 7061  12.215  32.961   8.050
  328POPC   C4A 7062  12.047  33.130   7.687
  328POPC   C1B 7063  11.913  32.723   8.581
  328POPC   C2B 7064  11.720  32.971   8.231
  328POPC   C3B 7065  11.559  33.063   7.787
  328POPC   C4B 7066  11.536  32.934   7.362
  329POPC   NC3 7067  36.513  26.814   9.579
  329POPC   PO4 7068  36.902  26.375   9.508
  329POPC   GL1 7069  36.784  26.603   9.193
  329POPC   GL2 7070  37.097  26.687   9.111
  329POPC   C1A 7071  36.709  26.735   8.774
  329POPC   D2A 7072  36.634  27.131   8.587
  329POPC   C3A 7073  36.443  27.051   8.201
  329POPC   C4A 7074  36.604  27.021   7.802
  329POPC   C1B 7075  37.194  26.805   8.686
  329POPC   C2B 7076  36.964  26.776   8.289
  329POPC   C3B 7077  37.044  26.758   7.846
  329POPC   C4B 7078  37.280  26.794   7.456
  330POPC   NC3 7079  22.124  22.607   9.448
  330POPC   PO4 7080  22.323  23.217   9.690
  330POPC   GL1 7081  22.339  23.067   9.271
  330POPC   GL2 7082  22.001  23.128   9.254
  330POPC   C1A 7083  22.416  22.948   8.820
  330POPC   D2A 7084  22.200  22.815   8.437
  330POPC   C3A 7085  22.401  22.877   8.046
  330POPC   C4A 7086  22.208  22.835   7.671
  330POPC   C1B 7087  21.906  22.946   8.859
  330POPC   C2B 7088  21.819  23.186   8.469
  330POPC   C3B 7089  21.913  23.094   8.046
  330POPC   C4B 7090  21.870  23.205   7.608
  331POPC   NC3 7091  38.145   9.135   9.841
  331POPC   PO4 7092  38.591   8.735   9.485
  331POPC   GL1 7093  38.449   8.782   9.095
  331POPC   GL2 7094  38.113   8.660   9.172
  331POPC   C1A 7095  38.515   9.030   8.723
  331POPC   D2A 7096  38.766   8.965   8.368
  331POPC   C3A 7097  38.588   9.149   8.041
  331POPC   C4A 7098  38.609   9.025   7.629
  331POPC   C1B 7099  38.034   8.843   8.757
  331POPC   C2B 7100  38.155   9.034   8.370
  331POPC   C3B 7101  38.163   8.876   7.960
  331POPC   C4B 7102  38.103   9.097   7.648
  332POPC   NC3 7103  14.959  44.291   9.529
  332POPC   PO4 7104  15.461  43.878   9.448
  332POPC   GL1 7105  15.272  44.115   9.134
  332POPC   GL2 7106  14.967  43.916   9.180
  332POPC   C1A 7107  15.382  44.143   8.685
  332POPC   D2A 7108  15.306  44.284   8.250
  332POPC   C3A 7109  15.272  43.957   7.960
  332POPC   C4A 7110  15.078  43.547   8.042
  332POPC   C1B 7111  14.860  44.099   8.790
  332POPC   C2B 7112  14.891  43.981   8.342
  332POPC   C3B 7113  14.781  44.061   7.906
  332POPC   C4B 7114  14.992  43.977   7.520
  333POPC   NC3 7115  44.346   9.125   9.229
  333POPC   PO4 7116  44.881   8.758   9.487
  333POPC   GL1 7117  44.830   8.845   9.074
  333POPC   GL2 7118  44.920   9.153   9.059
  333POPC   C1A 7119  44.656   9.022   8.671
  333POPC   D2A 7120  44.665   9.257   8.296
  333POPC   C3A 7121  44.425   8.987   8.032
  333POPC   C4A 7122  44.744   8.812   7.827
  333POPC   C1B 7123   0.097   9.320   8.686
  333POPC   C2B 7124   0.128   9.562   8.289
  333POPC   C3B 7125   0.083   9.368   7.864
  333POPC   C4B 7126  44.996   9.286   7.414
  334POPC   NC3 7127  33.133  17.004   9.424
  334POPC   PO4 7128  32.622  16.601   9.399
  334POPC   GL1 7129  32.719  16.907   9.150
  334POPC   GL2 7130  33.044  16.693   9.040
  334POPC   C1A 7131  32.775  17.031   8.758
  334POPC   D2A 7132  32.995  17.037   8.374
  334POPC   C3A 7133  32.972  16.690   8.085
  334POPC   C4A 7134  32.769  16.642   7.681
  334POPC   C1B 7135  33.400  16.475   8.812
  334POPC   C2B 7136  33.468  16.304   8.407
  334POPC   C3B 7137  33.457  16.444   8.027
  334POPC   C4B 7138  33.306  16.251   7.673
  335POPC   NC3 7139  14.348  21.123   9.598
  335POPC   PO4 7140  14.297  21.735   9.575
  335POPC   GL1 7141  14.270  21.468   9.167
  335POPC   GL2 7142  14.592  21.297   9.164
  335POPC   C1A 7143  14.121  21.408   8.723
  335POPC   D2A 7144  14.300  21.293   8.299
  335POPC   C3A 7145  14.183  21.567   7.922
  335POPC   C4A 7146  14.214  21.655   7.441
  335POPC   C1B 7147  14.554  21.102   8.754
  335POPC   C2B 7148  14.600  20.865   8.372
  335POPC   C3B 7149  14.704  21.008   7.960
  335POPC   C4B 7150  14.477  21.247   7.642
  336POPC   NC3 7151   1.430   4.142   9.567
  336POPC   PO4 7152   0.963   4.656   9.461
  336POPC   GL1 7153   1.251   4.467   9.157
  336POPC   GL2 7154   1.578   4.294   9.113
  336POPC   C1A 7155   1.377   4.583   8.744
  336POPC   D2A 7156   1.570   4.603   8.352
  336POPC   C3A 7157   1.273   4.571   8.055
  336POPC   C4A 7158   1.125   4.487   7.655
  336POPC   C1B 7159   1.449   4.035   8.801
  336POPC   C2B 7160   1.577   4.076   8.412
  336POPC   C3B 7161   1.404   4.061   8.048
  336POPC   C4B 7162   1.464   4.113   7.651
  337POPC   NC3 7163  26.650  14.452   9.472
  337POPC   PO4 7164  27.272  14.344   9.556
  337POPC   GL1 7165  27.015  14.498   9.120
  337POPC   GL2 7166  26.688  14.749   9.072
  337POPC   C1A 7167  27.044  14.761   8.723
  337POPC   D2A 7168  26.842  14.559   8.374
  337POPC   C3A 7169  27.028  14.520   7.969
  337POPC   C4A 7170  26.875  14.251   7.680
  337POPC   C1B 7171  26.447  14.470   8.797
  337POPC   C2B 7172  26.323  14.438   8.373
  337POPC   C3B 7173  26.499  14.507   7.968
  337POPC   C4B 7174  26.371  14.281   7.604
  338POPC   NC3 7175  34.933   3.456   9.582
  338POPC   PO4 7176  35.535   3.731   9.498
  338POPC   GL1 7177  35.219   3.694   9.213
  338POPC   GL2 7178  35.230   3.335   9.149
  338POPC   C1A 7179  35.104   3.766   8.796
  338POPC   D2A 7180  35.149   3.480   8.439
  338POPC   C3A 7181  35.088   3.717   8.075
  338POPC   C4A 7182  35.197   3.801   7.650
  338POPC   C1B 7183  35.524   3.473   8.817
  338POPC   C2B 7184  35.718   3.442   8.411
  338POPC   C3B 7185  35.576   3.545   7.993
  338POPC   C4B 7186  35.281   3.284   7.770
  339POPC   NC3 7187  20.197  18.204   9.530
  339POPC   PO4 7188  20.895  18.140   9.437
  339POPC   GL1 7189  20.593  18.143   9.160
  339POPC   GL2 7190  20.746  18.462   9.069
  339POPC   C1A 7191  20.524  18.112   8.729
  339POPC   D2A 7192  20.457  17.840   8.386
  339POPC   C3A 7193  20.577  18.043   7.982
  339POPC   C4A 7194  20.748  17.795   7.662
  339POPC   C1B 7195  21.054  18.645   8.809
  339POPC   C2B 7196  20.810  18.553   8.473
  339POPC   C3B 7197  20.736  18.537   8.060
  339POPC   C4B 7198  20.417  18.559   7.741
  340POPC   NC3 7199  16.584  18.652   9.345
  340POPC   PO4 7200  16.870  18.105   9.461
  340POPC   GL1 7201  16.698  18.206   9.089
  340POPC   GL2 7202  16.373  18.206   9.169
  340POPC   C1A 7203  16.608  18.079   8.689
  340POPC   D2A 7204  16.852  18.096   8.342
  340POPC   C3A 7205  16.849  18.511   8.202
  340POPC   C4A 7206  16.835  18.507   7.777
  340POPC   C1B 7207  16.250  18.434   8.780
  340POPC   C2B 7208  16.225  18.375   8.322
  340POPC   C3B 7209  16.437  18.198   7.967
  340POPC   C4B 7210  16.437  18.257   7.516
  341POPC   NC3 7211  19.545  41.569   9.377
  341POPC   PO4 7212  19.975  41.807   9.858
  341POPC   GL1 7213  20.049  41.672   9.411
  341POPC   GL2 7214  19.971  41.966   9.249
  341POPC   C1A 7215  20.009  41.597   8.896
  341POPC   D2A 7216  20.224  41.828   8.495
  341POPC   C3A 7217  20.006  41.797   8.058
  341POPC   C4A 7218  19.976  41.375   7.820
  341POPC   C1B 7219  19.884  42.073   8.819
  341POPC   C2B 7220  19.694  41.853   8.474
  341POPC   C3B 7221  19.570  41.538   8.169
  341POPC   C4B 7222  19.518  41.590   7.728
  342POPC   NC3 7223   0.104  44.114   9.498
  342POPC   PO4 7224   0.738  43.866   9.555
  342POPC   GL1 7225   0.460  43.868   9.222
  342POPC   GL2 7226   0.461  44.231   9.156
  342POPC   C1A 7227   0.434  43.891   8.785
  342POPC   D2A 7228   0.635  43.677   8.466
  342POPC   C3A 7229   0.560  43.921   8.116
  342POPC   C4A 7230   0.342  43.741   7.774
  342POPC   C1B 7231   0.113  44.286   8.800
  342POPC   C2B 7232   0.049  44.092   8.344
  342POPC   C3B 7233   0.211  44.225   7.914
  342POPC   C4B 7234   0.334  44.172   7.481
  343POPC   NC3 7235  28.307   5.396   9.542
  343POPC   PO4 7236  28.290   4.754   9.302
  343POPC   GL1 7237  28.269   5.105   9.039
  343POPC   GL2 7238  28.569   5.324   9.117
  343POPC   C1A 7239  28.180   4.973   8.573
  343POPC   D2A 7240  28.357   4.765   8.186
  343POPC   C3A 7241  28.241   4.945   7.813
  343POPC   C4A 7242  28.294   5.360   7.900
  343POPC   C1B 7243  28.663   5.091   8.732
  343POPC   C2B 7244  28.587   5.211   8.315
  343POPC   C3B 7245  28.719   5.045   7.924
  343POPC   C4B 7246  28.650   5.019   7.462
  344POPC   NC3 7247  40.055  15.793   9.527
  344POPC   PO4 7248  39.709  16.368   9.177
  344POPC   GL1 7249  39.970  16.226   8.911
  344POPC   GL2 7250  39.973  15.910   9.043
  344POPC   C1A 7251  39.860  16.042   8.521
  344POPC   D2A 7252  39.991  15.632   8.389
  344POPC   C3A 7253  39.969  15.723   8.029
  344POPC   C4A 7254  39.726  16.106   7.918
  344POPC   C1B 7255  40.276  15.853   8.732
  344POPC   C2B 7256  40.402  16.047   8.343
  344POPC   C3B 7257  40.240  16.174   7.966
  344POPC   C4B 7258  40.122  15.948   7.612
  345POPC   NC3 7259   1.416  19.940   9.439
  345POPC   PO4 7260   0.649  20.073   9.367
  345POPC   GL1 7261   1.016  19.991   9.115
  345POPC   GL2 7262   1.242  20.257   9.073
  345POPC   C1A 7263   1.172  19.854   8.717
  345POPC   D2A 7264   0.860  19.981   8.407
  345POPC   C3A 7265   0.871  19.856   7.980
  345POPC   C4A 7266   1.196  19.580   7.805
  345POPC   C1B 7267   1.137  20.354   8.666
  345POPC   C2B 7268   1.285  20.238   8.239
  345POPC   C3B 7269   1.206  20.190   7.798
  345POPC   C4B 7270   1.377  20.024   7.421
  346POPC   NC3 7271  42.832  12.146   9.637
  346POPC   PO4 7272  43.478  12.098   9.772
  346POPC   GL1 7273  43.201  12.007   9.317
  346POPC   GL2 7274  42.966  12.225   9.147
  346POPC   C1A 7275  43.204  11.885   8.841
  346POPC   D2A 7276  43.252  12.082   8.412
  346POPC   C3A 7277  43.180  11.936   8.023
  346POPC   C4A 7278  43.341  11.647   7.745
  346POPC   C1B 7279  42.981  12.363   8.724
  346POPC   C2B 7280  42.780  12.326   8.334
  346POPC   C3B 7281  42.914  12.337   7.905
  346POPC   C4B 7282  42.994  12.087   7.541
  347POPC   NC3 7283  18.661  27.267   9.444
  347POPC   PO4 7284  19.105  26.758   9.477
  347POPC   GL1 7285  18.984  26.660   9.068
  347POPC   GL2 7286  18.784  26.950   9.064
  347POPC   C1A 7287  19.075  26.784   8.675
  347POPC   D2A 7288  19.101  27.013   8.341
  347POPC   C3A 7289  19.277  26.790   8.037
  347POPC   C4A 7290  19.435  26.722   7.650
  347POPC   C1B 7291  18.622  26.986   8.638
  347POPC   C2B 7292  18.652  27.236   8.273
  347POPC   C3B 7293  18.734  26.950   7.945
  347POPC   C4B 7294  18.933  26.649   7.703
  348POPC   NC3 7295   6.039  43.771   9.359
  348POPC   PO4 7296   5.671  44.303   9.487
  348POPC   GL1 7297   5.699  44.073   9.105
  348POPC   GL2 7298   6.041  44.114   8.979
  348POPC   C1A 7299   5.740  43.799   8.716
  348POPC   D2A 7300   5.660  43.629   8.331
  348POPC   C3A 7301   5.642  43.942   8.054
  348POPC   C4A 7302   5.677  43.788   7.674
  348POPC   C1B 7303   6.271  43.838   8.681
  348POPC   C2B 7304   6.123  43.833   8.243
  348POPC   C3B 7305   6.171  43.917   7.790
  348POPC   C4B 7306   6.382  43.826   7.381
  349POPC   NC3 7307  41.274  44.758   9.547
  349POPC   PO4 7308  40.717  44.402   9.494
  349POPC   GL1 7309  40.666  44.621   9.109
  349POPC   GL2 7310  40.922  44.857   9.108
  349POPC   C1A 7311  40.591  44.428   8.718
  349POPC   D2A 7312  40.887  44.349   8.402
  349POPC   C3A 7313  40.803  44.466   8.016
  349POPC   C4A 7314  40.704  44.558   7.628
  349POPC   C1B 7315  40.876  44.835   8.651
  349POPC   C2B 7316  41.031  44.876   8.206
  349POPC   C3B 7317  41.117  44.817   7.750
  349POPC   C4B 7318  41.075  44.993   7.280
  350POPC   NC3 7319  42.706   8.484   9.549
  350POPC   PO4 7320  43.309   8.146   9.483
  350POPC   GL1 7321  43.050   8.309   9.175
  350POPC   GL2 7322  42.697   8.146   9.159
  350POPC   C1A 7323  43.049   8.201   8.754
  350POPC   D2A 7324  42.922   8.026   8.366
  350POPC   C3A 7325  43.032   8.231   8.008
  350POPC   C4A 7326  43.418   8.142   7.812
  350POPC   C1B 7327  42.587   7.944   8.761
  350POPC   C2B 7328  42.469   7.840   8.300
  350POPC   C3B 7329  42.713   7.791   7.900
  350POPC   C4B 7330  42.726   7.850   7.439
  351POPC   NC3 7331  11.481  41.262   9.548
  351POPC   PO4 7332  10.857  41.667   9.594
  351POPC   GL1 7333  10.958  41.558   9.151
  351POPC   GL2 7334  11.276  41.380   9.101
  351POPC   C1A 7335  11.277  41.770   8.793
  351POPC   D2A 7336  11.305  41.909   8.373
  351POPC   C3A 7337  11.554  41.703   8.120
  351POPC   C4A 7338  11.456  41.939   7.785
  351POPC   C1B 7339  11.029  41.326   8.725
  351POPC   C2B 7340  11.294  41.360   8.409
  351POPC   C3B 7341  11.262  41.215   8.053
  351POPC   C4B 7342  11.322  41.457   7.727
  352POPC   NC3 7343   0.609  25.410   9.554
  352POPC   PO4 7344   0.878  24.849   9.291
  352POPC   GL1 7345   0.552  25.158   9.111
  352POPC   GL2 7346   0.152  25.096   9.080
  352POPC   C1A 7347   0.451  25.309   8.720
  352POPC   D2A 7348   0.612  25.466   8.355
  352POPC   C3A 7349   0.426  25.261   8.034
  352POPC   C4A 7350   0.613  25.227   7.648
  352POPC   C1B 7351  44.946  25.384   8.787
  352POPC   C2B 7352   0.092  25.550   8.415
  352POPC   C3B 7353   0.040  25.619   8.023
  352POPC   C4B 7354   0.127  25.407   7.640
  353POPC   NC3 7355   9.504  10.873   9.487
  353POPC   PO4 7356  10.106  10.781   9.404
  353POPC   GL1 7357   9.824  10.615   9.104
  353POPC   GL2 7358   9.562  10.825   8.993
  353POPC   C1A 7359   9.610  10.367   8.783
  353POPC   D2A 7360   9.412  10.398   8.381
  353POPC   C3A 7361   9.595  10.511   8.005
  353POPC   C4A 7362   9.605  10.211   7.628
  353POPC   C1B 7363   9.242  10.983   8.710
  353POPC   C2B 7364   9.106  10.812   8.306
  353POPC   C3B 7365   9.218  10.818   7.854
  353POPC   C4B 7366   9.572  10.731   7.549
  354POPC   NC3 7367  19.948  19.346   9.420
  354POPC   PO4 7368  20.042  18.668   9.522
  354POPC   GL1 7369  19.780  18.926   9.166
  354POPC   GL2 7370  19.502  19.180   9.151
  354POPC   C1A 7371  19.836  19.227   8.767
  354POPC   D2A 7372  20.143  19.323   8.431
  354POPC   C3A 7373  20.124  19.415   7.971
  354POPC   C4A 7374  19.982  19.192   7.581
  354POPC   C1B 7375  19.460  18.880   8.766
  354POPC   C2B 7376  19.566  19.005   8.359
  354POPC   C3B 7377  19.632  19.133   7.940
  354POPC   C4B 7378  19.503  18.961   7.544
  355POPC   NC3 7379  19.644  30.781   9.502
  355POPC   PO4 7380  19.703  30.152   9.679
  355POPC   GL1 7381  19.911  30.486   9.202
  355POPC   GL2 7382  19.904  30.894   9.061
  355POPC   C1A 7383  19.706  30.597   8.731
  355POPC   D2A 7384  19.470  30.723   8.406
  355POPC   C3A 7385  19.655  30.652   8.003
  355POPC   C4A 7386  19.641  30.926   7.659
  355POPC   C1B 7387  20.180  30.791   8.708
  355POPC   C2B 7388  20.062  30.760   8.304
  355POPC   C3B 7389  20.110  30.944   7.896
  355POPC   C4B 7390  20.124  30.777   7.487
  356POPC   NC3 7391  38.999  33.998   9.536
  356POPC   PO4 7392  39.632  33.679   9.472
  356POPC   GL1 7393  39.382  33.907   9.191
  356POPC   GL2 7394  39.084  33.691   9.153
  356POPC   C1A 7395  39.274  33.908   8.744
  356POPC   D2A 7396  39.555  33.965   8.429
  356POPC   C3A 7397  39.397  33.840   8.039
  356POPC   C4A 7398  39.502  33.805   7.620
  356POPC   C1B 7399  38.913  33.518   8.768
  356POPC   C2B 7400  39.071  33.552   8.363
  356POPC   C3B 7401  38.913  33.665   7.983
  356POPC   C4B 7402  39.092  33.497   7.650
  357POPC   NC3 7403  12.381  18.125   9.395
  357POPC   PO4 7404  11.954  18.578   9.567
  357POPC   GL1 7405  11.912  18.449   9.127
  357POPC   GL2 7406  12.046  18.135   8.952
  357POPC   C1A 7407  11.666  18.384   8.722
  357POPC   D2A 7408  11.926  18.329   8.376
  357POPC   C3A 7409  11.906  18.137   7.986
  357POPC   C4A 7410  12.097  18.326   7.677
  357POPC   C1B 7411  12.372  18.217   8.620
  357POPC   C2B 7412  12.393  18.229   8.152
  357POPC   C3B 7413  12.369  17.924   7.817
  357POPC   C4B 7414  12.387  18.044   7.371
  358POPC   NC3 7415  25.336  17.997   9.476
  358POPC   PO4 7416  24.865  18.478   9.635
  358POPC   GL1 7417  24.978  18.453   9.212
  358POPC   GL2 7418  25.192  18.218   9.045
  358POPC   C1A 7419  24.994  18.598   8.790
  358POPC   D2A 7420  25.095  18.448   8.387
  358POPC   C3A 7421  25.059  18.539   7.964
  358POPC   C4A 7422  25.146  18.178   7.651
  358POPC   C1B 7423  25.311  18.052   8.632
  358POPC   C2B 7424  25.596  17.912   8.308
  358POPC   C3B 7425  25.537  17.956   7.888
  358POPC   C4B 7426  25.627  18.055   7.460
  359POPC   NC3 7427  34.189   6.731   9.575
  359POPC   PO4 7428  33.964   7.392   9.528
  359POPC   GL1 7429  33.723   7.379   9.183
  359POPC   GL2 7430  33.629   7.039   9.182
  359POPC   C1A 7431  33.738   7.664   8.839
  359POPC   D2A 7432  33.874   7.846   8.433
  359POPC   C3A 7433  33.717   7.688   8.061
  359POPC   C4A 7434  33.832   7.488   7.692
  359POPC   C1B 7435  33.967   7.103   8.859
  359POPC   C2B 7436  33.918   7.338   8.484
  359POPC   C3B 7437  33.842   7.182   8.089
  359POPC   C4B 7438  33.448   7.179   7.873
  360POPC   NC3 7439  38.413   2.345   9.207
  360POPC   PO4 7440  38.622   1.777   9.496
  360POPC   GL1 7441  38.512   1.829   9.121
  360POPC   GL2 7442  38.843   2.021   9.107
  360POPC   C1A 7443  38.308   1.897   8.724
  360POPC   D2A 7444  38.513   1.810   8.349
  360POPC   C3A 7445  38.424   2.106   8.092
  360POPC   C4A 7446  38.242   1.917   7.785
  360POPC   C1B 7447  38.822   1.941   8.723
  360POPC   C2B 7448  38.911   2.117   8.342
  360POPC   C3B 7449  38.886   1.929   7.957
  360POPC   C4B 7450  38.699   2.125   7.632
  361POPC   NC3 7451  14.310  14.713   9.406
  361POPC   PO4 7452  14.522  14.064   9.454
  361POPC   GL1 7453  14.423  14.219   9.012
  361POPC   GL2 7454  14.266  14.570   8.931
  361POPC   C1A 7455  14.668  14.427   8.664
  361POPC   D2A 7456  14.725  14.536   8.239
  361POPC   C3A 7457  14.572  14.270   7.969
  361POPC   C4A 7458  14.683  14.174   7.596
  361POPC   C1B 7459  14.311  14.775   8.522
  361POPC   C2B 7460  14.186  14.509   8.158
  361POPC   C3B 7461  14.207  14.508   7.679
  361POPC   C4B 7462  14.176  14.691   7.207
  362POPC   NC3 7463   1.723  10.645   9.517
  362POPC   PO4 7464   1.804  10.121   9.171
  362POPC   GL1 7465   1.893  10.544   9.047
  362POPC   GL2 7466   2.228  10.517   8.944
  362POPC   C1A 7467   1.818  10.845   8.696
  362POPC   D2A 7468   1.607  10.758   8.284
  362POPC   C3A 7469   1.955  10.609   8.025
  362POPC   C4A 7470   2.342  10.853   8.004
  362POPC   C1B 7471   2.295  10.142   8.671
  362POPC   C2B 7472   2.316  10.190   8.235
  362POPC   C3B 7473   2.139  10.151   7.847
  362POPC   C4B 7474   2.414  10.311   7.578
  363POPC   NC3 7475  22.940  39.267   9.490
  363POPC   PO4 7476  22.386  39.537   9.499
  363POPC   GL1 7477  22.625  39.521   9.121
  363POPC   GL2 7478  22.577  39.186   9.081
  363POPC   C1A 7479  22.949  39.344   8.790
  363POPC   D2A 7480  23.013  39.091   8.387
  363POPC   C3A 7481  22.890  39.391   8.062
  363POPC   C4A 7482  23.020  39.457   7.647
  363POPC   C1B 7483  22.607  38.933   8.696
  363POPC   C2B 7484  22.524  39.012   8.240
  363POPC   C3B 7485  22.685  39.012   7.799
  363POPC   C4B 7486  22.908  38.939   7.392
  364POPC   NC3 7487  31.795  15.301   9.417
  364POPC   PO4 7488  31.349  14.828   9.358
  364POPC   GL1 7489  31.353  15.159   9.077
  364POPC   GL2 7490  31.355  15.511   9.236
  364POPC   C1A 7491  31.670  15.159   8.759
  364POPC   D2A 7492  31.823  14.980   8.396
  364POPC   C3A 7493  31.480  14.882   8.131
  364POPC   C4A 7494  31.393  15.159   7.799
  364POPC   C1B 7495  31.401  15.572   8.774
  364POPC   C2B 7496  31.375  15.375   8.343
  364POPC   C3B 7497  31.246  15.606   7.963
  364POPC   C4B 7498  31.037  15.560   7.532
  365POPC   NC3 7499  33.845  11.377   9.677
  365POPC   PO4 7500  33.473  10.907   9.527
  365POPC   GL1 7501  33.783  11.148   9.216
  365POPC   GL2 7502  33.869  11.539   9.172
  365POPC   C1A 7503  33.824  11.218   8.769
  365POPC   D2A 7504  33.538  11.306   8.430
  365POPC   C3A 7505  33.703  11.267   8.022
  365POPC   C4A 7506  33.563  11.595   7.765
  365POPC   C1B 7507  34.073  11.684   8.788
  365POPC   C2B 7508  33.991  11.536   8.390
  365POPC   C3B 7509  34.009  11.683   7.993
  365POPC   C4B 7510  34.079  11.448   7.622
  366POPC   NC3 7511   8.757  27.330   9.552
  366POPC   PO4 7512   9.135  26.787   9.741
  366POPC   GL1 7513   9.087  27.017   9.252
  366POPC   GL2 7514   8.736  27.153   9.085
  366POPC   C1A 7515   9.132  26.868   8.776
  366POPC   D2A 7516   8.968  26.665   8.352
  366POPC   C3A 7517   9.122  26.698   7.883
  366POPC   C4A 7518   9.112  26.399   7.546
  366POPC   C1B 7519   8.623  26.955   8.696
  366POPC   C2B 7520   8.436  26.707   8.366
  366POPC   C3B 7521   8.652  26.820   7.979
  366POPC   C4B 7522   8.648  26.685   7.559
  367POPC   NC3 7523  12.915  41.753   9.694
  367POPC   PO4 7524  13.015  42.373   9.340
  367POPC   GL1 7525  12.878  42.379   8.960
  367POPC   GL2 7526  12.842  42.715   8.927
  367POPC   C1A 7527  12.575  42.374   8.657
  367POPC   D2A 7528  12.325  42.337   8.328
  367POPC   C3A 7529  12.673  42.390   8.033
  367POPC   C4A 7530  12.690  42.279   7.608
  367POPC   C1B 7531  13.189  42.656   8.682
  367POPC   C2B 7532  12.990  42.710   8.328
  367POPC   C3B 7533  13.117  42.671   7.951
  367POPC   C4B 7534  12.904  42.744   7.624
  368POPC   NC3 7535  17.896   9.832   9.508
  368POPC   PO4 7536  18.516  10.100   9.444
  368POPC   GL1 7537  18.396   9.884   9.085
  368POPC   GL2 7538  18.117   9.696   9.069
  368POPC   C1A 7539  18.471   9.817   8.664
  368POPC   D2A 7540  18.234   9.883   8.315
  368POPC   C3A 7541  18.343  10.074   7.979
  368POPC   C4A 7542  18.253   9.983   7.591
  368POPC   C1B 7543  17.993   9.556   8.661
  368POPC   C2B 7544  17.782   9.664   8.295
  368POPC   C3B 7545  17.966   9.678   7.918
  368POPC   C4B 7546  17.950   9.334   7.661
  369POPC   NC3 7547  13.307  22.314   9.314
  369POPC   PO4 7548  12.734  22.616   9.423
  369POPC   GL1 7549  12.816  22.254   9.151
  369POPC   GL2 7550  13.009  22.424   8.900
  369POPC   C1A 7551  12.970  21.917   8.820
  369POPC   D2A 7552  12.809  21.856   8.379
  369POPC   C3A 7553  12.939  22.212   8.090
  369POPC   C4A 7554  13.125  22.177   7.674
  369POPC   C1B 7555  12.628  22.265   8.671
  369POPC   C2B 7556  12.451  22.268   8.273
  369POPC   C3B 7557  12.500  22.219   7.804
  369POPC   C4B 7558  12.646  22.253   7.379
  370POPC   NC3 7559  12.659  30.659   9.459
  370POPC   PO4 7560  13.267  30.898   9.491
  370POPC   GL1 7561  13.043  30.838   9.162
  370POPC   GL2 7562  13.023  30.468   9.126
  370POPC   C1A 7563  13.094  30.813   8.758
  370POPC   D2A 7564  13.022  30.573   8.422
  370POPC   C3A 7565  13.137  30.713   8.076
  370POPC   C4A 7566  13.058  30.510   7.720
  370POPC   C1B 7567  12.671  30.549   8.821
  370POPC   C2B 7568  12.569  30.348   8.445
  370POPC   C3B 7569  12.618  30.518   8.038
  370POPC   C4B 7570  12.348  30.455   7.707
  371POPC   NC3 7571  11.107   7.564   9.527
  371POPC   PO4 7572  11.575   7.122   9.592
  371POPC   GL1 7573  11.322   7.184   9.204
  371POPC   GL2 7574  11.426   7.526   9.102
  371POPC   C1A 7575  11.114   7.310   8.791
  371POPC   D2A 7576  11.249   7.590   8.471
  371POPC   C3A 7577  11.157   7.405   8.065
  371POPC   C4A 7578  10.922   7.495   7.710
  371POPC   C1B 7579  11.567   7.863   8.767
  371POPC   C2B 7580  11.618   8.042   8.380
  371POPC   C3B 7581  11.401   7.852   8.043
  371POPC   C4B 7582  11.407   7.632   7.669
  372POPC   NC3 7583  34.528  21.636   9.475
  372POPC   PO4 7584  34.584  20.966   9.573
  372POPC   GL1 7585  34.507  21.181   9.188
  372POPC   GL2 7586  34.843  21.329   9.154
  372POPC   C1A 7587  34.361  21.213   8.730
  372POPC   D2A 7588  34.456  21.477   8.354
  372POPC   C3A 7589  34.300  21.421   7.939
  372POPC   C4A 7590  34.331  21.587   7.540
  372POPC   C1B 7591  34.749  21.588   8.767
  372POPC   C2B 7592  34.852  21.785   8.330
  372POPC   C3B 7593  34.753  21.679   7.897
  372POPC   C4B 7594  34.726  21.306   7.630
  373POPC   NC3 7595   4.480  23.580   9.523
  373POPC   PO4 7596   4.414  24.226   9.356
  373POPC   GL1 7597   4.447  23.898   9.077
  373POPC   GL2 7598   4.140  23.730   9.127
  373POPC   C1A 7599   4.369  23.743   8.651
  373POPC   D2A 7600   4.295  23.446   8.324
  373POPC   C3A 7601   4.558  23.436   7.939
  373POPC   C4A 7602   4.656  23.639   7.520
  373POPC   C1B 7603   4.008  24.069   8.825
  373POPC   C2B 7604   3.857  24.033   8.392
  373POPC   C3B 7605   4.173  23.920   8.099
  373POPC   C4B 7606   4.175  23.713   7.722
  374POPC   NC3 7607  20.216   1.110   9.599
  374POPC   PO4 7608  20.774   1.550   9.475
  374POPC   GL1 7609  20.545   1.382   9.109
  374POPC   GL2 7610  20.436   1.035   9.133
  374POPC   C1A 7611  20.509   1.514   8.665
  374POPC   D2A 7612  20.806   1.349   8.359
  374POPC   C3A 7613  20.760   1.439   7.922
  374POPC   C4A 7614  20.374   1.560   7.718
  374POPC   C1B 7615  20.514   1.004   8.662
  374POPC   C2B 7616  20.403   1.076   8.187
  374POPC   C3B 7617  20.490   1.041   7.744
  374POPC   C4B 7618  20.603   0.809   7.306
  375POPC   NC3 7619   3.150  39.857   9.296
  375POPC   PO4 7620   3.804  39.952   9.436
  375POPC   GL1 7621   3.570  40.016   9.085
  375POPC   GL2 7622   3.448  40.327   9.013
  375POPC   C1A 7623   3.365  39.983   8.667
  375POPC   D2A 7624   3.426  40.202   8.289
  375POPC   C3A 7625   3.407  39.869   8.007
  375POPC   C4A 7626   3.475  39.809   7.586
  375POPC   C1B 7627   3.813  40.230   8.718
  375POPC   C2B 7628   3.958  40.100   8.289
  375POPC   C3B 7629   3.782  40.200   7.869
  375POPC   C4B 7630   3.351  40.304   7.737
  376POPC   NC3 7631  12.356  15.513   9.496
  376POPC   PO4 7632  12.297  16.088   9.618
  376POPC   GL1 7633  12.018  16.022   9.256
  376POPC   GL2 7634  11.915  15.687   9.188
  376POPC   C1A 7635  11.988  16.045   8.804
  376POPC   D2A 7636  12.122  15.908   8.386
  376POPC   C3A 7637  12.177  16.216   8.043
  376POPC   C4A 7638  11.948  16.292   7.660
  376POPC   C1B 7639  12.175  15.557   8.796
  376POPC   C2B 7640  12.202  15.363   8.381
  376POPC   C3B 7641  12.104  15.538   7.997
  376POPC   C4B 7642  12.306  15.849   7.742
  377POPC   NC3 7643  17.784  23.597   9.361
  377POPC   PO4 7644  17.080  23.680   9.477
  377POPC   GL1 7645  17.332  23.665   9.147
  377POPC   GL2 7646  17.386  23.316   9.197
  377POPC   C1A 7647  17.543  23.910   8.806
  377POPC   D2A 7648  17.483  24.174   8.429
  377POPC   C3A 7649  17.506  23.894   8.033
  377POPC   C4A 7650  17.662  23.788   7.621
  377POPC   C1B 7651  17.456  23.382   8.746
  377POPC   C2B 7652  17.633  23.420   8.337
  377POPC   C3B 7653  17.632  23.340   7.927
  377POPC   C4B 7654  17.297  23.455   7.692
  378POPC   NC3 7655  38.525   8.259   9.542
  378POPC   PO4 7656  38.941   7.784   9.318
  378POPC   GL1 7657  38.590   7.976   9.110
  378POPC   GL2 7658  38.467   8.289   9.056
  378POPC   C1A 7659  38.362   7.926   8.747
  378POPC   D2A 7660  38.559   8.079   8.405
  378POPC   C3A 7661  38.387   7.937   8.060
  378POPC   C4A 7662  38.460   8.023   7.675
  378POPC   C1B 7663  38.517   8.517   8.688
  378POPC   C2B 7664  38.380   8.574   8.317
  378POPC   C3B 7665  38.570   8.600   7.942
  378POPC   C4B 7666  38.366   8.590   7.548
  379POPC   NC3 7667  12.570  39.191   9.247
  379POPC   PO4 7668  13.163  38.917   9.535
  379POPC   GL1 7669  13.104  39.139   9.132
  379POPC   GL2 7670  12.963  39.485   9.107
  379POPC   C1A 7671  12.974  39.195   8.692
  379POPC   D2A 7672  12.664  39.181   8.361
  379POPC   C3A 7673  12.858  39.409   8.039
  379POPC   C4A 7674  13.181  39.257   7.784
  379POPC   C1B 7675  12.634  39.572   8.718
  379POPC   C2B 7676  12.441  39.653   8.323
  379POPC   C3B 7677  12.346  39.416   7.973
  379POPC   C4B 7678  12.623  39.278   7.602
  380POPC   NC3 7679  15.212  35.784   9.549
  380POPC   PO4 7680  15.668  36.250   9.452
  380POPC   GL1 7681  15.340  36.088   9.155
  380POPC   GL2 7682  14.983  36.122   9.220
  380POPC   C1A 7683  15.266  36.132   8.740
  380POPC   D2A 7684  15.048  35.995   8.386
  380POPC   C3A 7685  15.201  36.217   8.056
  380POPC   C4A 7686  15.175  35.926   7.769
  380POPC   C1B 7687  14.761  36.066   8.814
  380POPC   C2B 7688  14.592  36.268   8.406
  380POPC   C3B 7689  14.711  36.176   7.957
  380POPC   C4B 7690  14.853  36.200   7.489
  381POPC   NC3 7691  40.389  13.475   9.927
  381POPC   PO4 7692  40.041  13.985   9.610
  381POPC   GL1 7693  39.979  13.651   9.298
  381POPC   GL2 7694  39.924  13.923   9.095
  381POPC   C1A 7695  39.966  13.447   8.875
  381POPC   D2A 7696  40.175  13.283   8.486
  381POPC   C3A 7697  40.061  13.497   8.089
  381POPC   C4A 7698  39.843  13.477   7.733
  381POPC   C1B 7699  40.059  13.988   8.719
  381POPC   C2B 7700  39.908  14.045   8.323
  381POPC   C3B 7701  40.006  14.045   7.892
  381POPC   C4B 7702  39.907  14.088   7.440
  382POPC   NC3 7703  21.182   1.813   9.510
  382POPC   PO4 7704  21.675   2.267   9.529
  382POPC   GL1 7705  21.580   1.964   9.179
  382POPC   GL2 7706  21.242   1.967   9.042
  382POPC   C1A 7707  21.643   1.773   8.786
  382POPC   D2A 7708  21.448   1.838   8.413
  382POPC   C3A 7709  21.699   1.898   8.082
  382POPC   C4A 7710  21.626   2.106   7.711
  382POPC   C1B 7711  21.456   2.258   8.774
  382POPC   C2B 7712  21.360   2.402   8.393
  382POPC   C3B 7713  21.245   2.195   8.029
  382POPC   C4B 7714  21.122   2.170   7.581
  383POPC   NC3 7715  42.401   4.052   9.421
  383POPC   PO4 7716  42.575   4.691   9.440
  383POPC   GL1 7717  42.303   4.524   9.101
  383POPC   GL2 7718  42.315   4.194   8.958
  383POPC   C1A 7719  42.207   4.656   8.689
  383POPC   D2A 7720  42.342   4.363   8.387
  383POPC   C3A 7721  42.188   4.427   7.985
  383POPC   C4A 7722  42.507   4.421   7.709
  383POPC   C1B 7723  42.279   3.861   8.669
  383POPC   C2B 7724  42.484   3.867   8.297
  383POPC   C3B 7725  42.347   3.946   7.884
  383POPC   C4B 7726  42.262   4.006   7.448
  384POPC   NC3 7727  17.867  41.572   9.505
  384POPC   PO4 7728  17.239  41.818   9.394
  384POPC   GL1 7729  17.489  41.551   9.131
  384POPC   GL2 7730  17.827  41.497   9.008
  384POPC   C1A 7731  17.351  41.444   8.736
  384POPC   D2A 7732  17.136  41.424   8.331
  384POPC   C3A 7733  17.340  41.492   7.929
  384POPC   C4A 7734  17.381  41.437   7.506
  384POPC   C1B 7735  17.800  41.250   8.635
  384POPC   C2B 7736  17.663  41.255   8.219
  384POPC   C3B 7737  17.786  41.246   7.754
  384POPC   C4B 7738  17.816  41.234   7.277
  385POPC   NC3 7739  34.190   3.513   9.229
  385POPC   PO4 7740  34.532   3.925   9.641
  385POPC   GL1 7741  34.692   3.784   9.224
  385POPC   GL2 7742  34.874   4.105   9.126
  385POPC   C1A 7743  34.690   3.478   8.835
  385POPC   D2A 7744  34.484   3.276   8.467
  385POPC   C3A 7745  34.793   3.241   8.130
  385POPC   C4A 7746  34.805   3.458   7.736
  385POPC   C1B 7747  34.555   4.018   8.791
  385POPC   C2B 7748  34.329   3.774   8.498
  385POPC   C3B 7749  34.524   3.713   8.099
  385POPC   C4B 7750  34.732   4.011   7.805
  386POPC   NC3 7751  44.264  14.045   9.412
  386POPC   PO4 7752  44.665  14.545   9.668
  386POPC   GL1 7753  44.743  14.526   9.256
  386POPC   GL2 7754   0.044  14.390   9.231
  386POPC   C1A 7755  44.557  14.450   8.874
  386POPC   D2A 7756  44.575  14.604   8.476
  386POPC   C3A 7757  44.560  14.349   8.119
  386POPC   C4A 7758  44.520  14.467   7.694
  386POPC   C1B 7759   0.055  14.542   8.819
  386POPC   C2B 7760   0.081  14.678   8.403
  386POPC   C3B 7761   0.069  14.598   7.987
  386POPC   C4B 7762  44.987  14.344   7.628
  387POPC   NC3 7763   2.787  15.419   9.632
  387POPC   PO4 7764   2.991  14.802   9.772
  387POPC   GL1 7765   2.869  14.934   9.303
  387POPC   GL2 7766   2.792  15.262   9.145
  387POPC   C1A 7767   2.955  14.896   8.827
  387POPC   D2A 7768   2.945  14.845   8.349
  387POPC   C3A 7769   3.047  15.239   8.064
  387POPC   C4A 7770   3.161  15.402   7.646
  387POPC   C1B 7771   2.475  15.080   8.858
  387POPC   C2B 7772   2.451  14.982   8.441
  387POPC   C3B 7773   2.596  15.005   8.016
  387POPC   C4B 7774   2.597  15.404   7.796
  388POPC   NC3 7775  21.694  44.438   9.539
  388POPC   PO4 7776  22.379  44.641   9.542
  388POPC   GL1 7777  22.207  44.717   9.134
  388POPC   GL2 7778  21.868  44.588   9.098
  388POPC   C1A 7779  22.175  44.583   8.707
  388POPC   D2A 7780  22.075  44.675   8.308
  388POPC   C3A 7781  22.241  44.304   8.092
  388POPC   C4A 7782  22.314  44.385   7.635
  388POPC   C1B 7783  21.704  44.823   8.759
  388POPC   C2B 7784  21.610  44.974   8.361
  388POPC   C3B 7785  21.755  44.905   7.962
  388POPC   C4B 7786  21.861  44.509   7.845
  389POPC   NC3 7787   9.357   3.990   9.793
  389POPC   PO4 7788   8.858   4.297   9.572
  389POPC   GL1 7789   9.084   4.332   9.209
  389POPC   GL2 7790   8.827   4.155   9.005
  389POPC   C1A 7791   9.251   4.276   8.770
  389POPC   D2A 7792   8.956   4.328   8.408
  389POPC   C3A 7793   9.118   4.330   7.983
  389POPC   C4A 7794   8.816   4.190   7.632
  389POPC   C1B 7795   8.880   4.620   8.837
  389POPC   C2B 7796   8.952   4.841   8.440
  389POPC   C3B 7797   8.905   4.801   7.979
  389POPC   C4B 7798   9.117   4.641   7.590
  390POPC   NC3 7799  35.063  23.236   9.785
  390POPC   PO4 7800  34.646  22.737   9.564
  390POPC   GL1 7801  34.456  22.910   9.216
  390POPC   GL2 7802  34.598  23.245   9.142
  390POPC   C1A 7803  34.423  22.735   8.802
  390POPC   D2A 7804  34.577  22.733   8.393
  390POPC   C3A 7805  34.367  22.810   8.014
  390POPC   C4A 7806  34.518  22.777   7.614
  390POPC   C1B 7807  34.730  23.153   8.727
  390POPC   C2B 7808  34.842  23.255   8.316
  390POPC   C3B 7809  34.850  23.056   7.919
  390POPC   C4B 7810  34.794  23.168   7.484
  391POPC   NC3 7811  33.418  10.448   9.473
  391POPC   PO4 7812  34.136  10.401   9.378
  391POPC   GL1 7813  33.972  10.407   9.019
  391POPC   GL2 7814  33.680  10.205   9.094
  391POPC   C1A 7815  33.924  10.721   8.704
  391POPC   D2A 7816  33.704  10.824   8.321
  391POPC   C3A 7817  33.870  10.638   7.954
  391POPC   C4A 7818  33.972  10.222   8.037
  391POPC   C1B 7819  33.592  10.329   8.653
  391POPC   C2B 7820  33.385  10.379   8.266
  391POPC   C3B 7821  33.453  10.364   7.874
  391POPC   C4B 7822  33.588  10.541   7.493
  392POPC   NC3 7823  17.783  33.735   9.428
  392POPC   PO4 7824  17.312  34.169   9.492
  392POPC   GL1 7825  17.610  34.098   9.117
  392POPC   GL2 7826  17.453  33.767   9.050
  392POPC   C1A 7827  17.763  34.175   8.678
  392POPC   D2A 7828  17.655  34.145   8.245
  392POPC   C3A 7829  17.797  33.935   7.869
  392POPC   C4A 7830  17.536  34.120   7.549
  392POPC   C1B 7831  17.452  33.798   8.633
  392POPC   C2B 7832  17.627  33.641   8.284
  392POPC   C3B 7833  17.335  33.799   7.991
  392POPC   C4B 7834  17.007  33.729   7.724
  393POPC   NC3 7835  12.602  36.195   9.466
  393POPC   PO4 7836  13.202  36.226   9.738
  393POPC   GL1 7837  13.014  35.976   9.275
  393POPC   GL2 7838  12.748  36.182   8.995
  393POPC   C1A 7839  12.885  35.730   8.866
  393POPC   D2A 7840  12.743  36.024   8.496
  393POPC   C3A 7841  12.755  35.887   8.069
  393POPC   C4A 7842  12.647  35.980   7.638
  393POPC   C1B 7843  12.831  36.536   8.699
  393POPC   C2B 7844  13.000  36.479   8.308
  393POPC   C3B 7845  12.849  36.397   7.903
  393POPC   C4B 7846  13.130  36.358   7.576
  394POPC   NC3 7847   0.010  22.287   9.588
  394POPC   PO4 7848  44.393  22.089   9.744
  394POPC   GL1 7849  44.539  22.189   9.297
  394POPC   GL2 7850  44.501  21.901   9.110
  394POPC   C1A 7851  44.819  22.266   8.883
  394POPC   D2A 7852  44.684  22.325   8.409
  394POPC   C3A 7853  44.830  22.322   7.982
  394POPC   C4A 7854   0.030  22.196   7.591
  394POPC   C1B 7855  44.334  22.152   8.777
  394POPC   C2B 7856  44.174  22.108   8.358
  394POPC   C3B 7857  44.229  22.024   7.923
  394POPC   C4B 7858  44.554  22.036   7.636
  395POPC   NC3 7859   7.243  26.139   9.496
  395POPC   PO4 7860   7.614  25.483   9.485
  395POPC   GL1 7861   7.584  25.877   9.204
  395POPC   GL2 7862   7.257  25.948   9.044
  395POPC   C1A 7863   7.651  26.197   8.850
  395POPC   D2A 7864   7.553  26.371   8.459
  395POPC   C3A 7865   7.584  26.206   8.042
  395POPC   C4A 7866   7.712  26.200   7.625
  395POPC   C1B 7867   7.330  25.827   8.652
  395POPC   C2B 7868   7.153  25.951   8.266
  395POPC   C3B 7869   7.263  25.848   7.841
  395POPC   C4B 7870   7.335  25.912   7.425
  396POPC   NC3 7871  36.723  33.499   9.431
  396POPC   PO4 7872  37.119  34.025   9.719
  396POPC   GL1 7873  37.018  33.992   9.216
  396POPC   GL2 7874  36.671  33.887   9.096
  396POPC   C1A 7875  37.044  33.779   8.772
  396POPC   D2A 7876  36.773  33.856   8.421
  396POPC   C3A 7877  37.038  33.706   8.085
  396POPC   C4A 7878  36.961  33.824   7.678
  396POPC   C1B 7879  36.591  33.506   8.779
  396POPC   C2B 7880  36.699  33.362   8.337
  396POPC   C3B 7881  36.566  33.564   7.924
  396POPC   C4B 7882  36.576  33.535   7.451
  397POPC   NC3 7883  30.784  34.804   9.935
  397POPC   PO4 7884  30.562  35.466   9.716
  397POPC   GL1 7885  30.682  35.411   9.243
  397POPC   GL2 7886  30.829  35.065   9.133
  397POPC   C1A 7887  30.533  35.542   8.804
  397POPC   D2A 7888  30.487  35.812   8.431
  397POPC   C3A 7889  30.636  35.628   8.037
  397POPC   C4A 7890  30.659  35.801   7.632
  397POPC   C1B 7891  30.542  35.020   8.760
  397POPC   C2B 7892  30.395  35.241   8.356
  397POPC   C3B 7893  30.391  35.208   7.883
  397POPC   C4B 7894  30.689  35.292   7.522
  398POPC   NC3 7895  43.677   4.725   9.567
  398POPC   PO4 7896  43.888   5.423   9.593
  398POPC   GL1 7897  43.859   5.266   9.216
  398POPC   GL2 7898  44.098   5.489   9.111
  398POPC   C1A 7899  43.722   4.976   8.890
  398POPC   D2A 7900  43.593   5.078   8.472
  398POPC   C3A 7901  43.848   4.997   8.137
  398POPC   C4A 7902  43.728   5.055   7.732
  398POPC   C1B 7903  44.176   5.266   8.724
  398POPC   C2B 7904  44.306   5.273   8.269
  398POPC   C3B 7905  44.133   5.333   7.840
  398POPC   C4B 7906  44.028   5.251   7.372
  399POPC   NC3 7907   8.430  20.535   9.428
  399POPC   PO4 7908   7.851  20.799   9.213
  399POPC   GL1 7909   8.177  20.668   9.014
  399POPC   GL2 7910   8.420  20.923   9.086
  399POPC   C1A 7911   8.134  20.482   8.638
  399POPC   D2A 7912   8.032  20.721   8.313
  399POPC   C3A 7913   7.992  20.503   7.991
  399POPC   C4A 7914   8.074  20.359   7.619
  399POPC   C1B 7915   8.559  20.764   8.652
  399POPC   C2B 7916   8.497  20.535   8.241
  399POPC   C3B 7917   8.457  20.696   7.811
  399POPC   C4B 7918   8.679  20.974   7.495
  400POPC   NC3 7919  37.812  41.973   9.300
  400POPC   PO4 7920  37.854  42.611   9.604
  400POPC   GL1 7921  37.693  42.482   9.185
  400POPC   GL2 7922  37.353  42.389   9.255
  400POPC   C1A 7923  37.682  42.229   8.753
  400POPC   D2A 7924  37.904  42.172   8.391
  400POPC   C3A 7925  37.729  42.320   8.035
  400POPC   C4A 7926  37.919  42.299   7.680
  400POPC   C1B 7927  37.254  42.478   8.826
  400POPC   C2B 7928  37.354  42.433   8.401
  400POPC   C3B 7929  37.228  42.492   7.993
  400POPC   C4B 7930  37.395  42.397   7.604
  401POPC   NC3 7931  28.331  25.827   9.699
  401POPC   PO4 7932  28.018  26.407   9.767
  401POPC   GL1 7933  28.308  26.160   9.334
  401POPC   GL2 7934  28.591  25.988   9.222
  401POPC   C1A 7935  28.241  26.100   8.828
  401POPC   D2A 7936  28.255  26.390   8.449
  401POPC   C3A 7937  28.239  26.172   8.054
  401POPC   C4A 7938  28.412  26.249   7.644
  401POPC   C1B 7939  28.738  26.130   8.807
  401POPC   C2B 7940  28.593  25.992   8.389
  401POPC   C3B 7941  28.741  26.015   7.955
  401POPC   C4B 7942  28.692  25.814   7.547
  402POPC   NC3 7943  33.133  28.488   9.649
  402POPC   PO4 7944  32.685  28.127   9.736
  402POPC   GL1 7945  32.807  28.274   9.222
  402POPC   GL2 7946  32.988  28.549   9.143
  402POPC   C1A 7947  33.019  28.217   8.777
  402POPC   D2A 7948  32.873  28.166   8.357
  402POPC   C3A 7949  33.203  28.119   8.048
  402POPC   C4A 7950  33.135  28.063   7.624
  402POPC   C1B 7951  32.844  28.705   8.750
  402POPC   C2B 7952  32.908  28.830   8.330
  402POPC   C3B 7953  32.860  28.511   7.973
  402POPC   C4B 7954  32.992  28.554   7.537
  403POPC   NC3 7955  34.736  12.867   9.639
  403POPC   PO4 7956  35.476  12.845   9.558
  403POPC   GL1 7957  35.347  13.016   9.170
  403POPC   GL2 7958  35.590  13.275   9.101
  403POPC   C1A 7959  35.236  12.829   8.748
  403POPC   D2A 7960  35.429  12.913   8.329
  403POPC   C3A 7961  35.290  12.838   7.900
  403POPC   C4A 7962  35.200  12.462   7.648
  403POPC   C1B 7963  35.614  13.252   8.673
  403POPC   C2B 7964  35.871  13.187   8.321
  403POPC   C3B 7965  35.801  13.015   7.916
  403POPC   C4B 7966  35.649  13.248   7.553
  404POPC   NC3 7967  42.814  15.796   9.324
  404POPC   PO4 7968  43.060  16.425   9.396
  404POPC   GL1 7969  43.149  16.092   9.056
  404POPC   GL2 7970  43.346  15.734   9.070
  404POPC   C1A 7971  43.047  16.027   8.620
  404POPC   D2A 7972  43.047  16.260   8.238
  404POPC   C3A 7973  43.161  16.029   7.901
  404POPC   C4A 7974  43.416  15.807   7.640
  404POPC   C1B 7975  43.088  15.522   8.741
  404POPC   C2B 7976  42.745  15.504   8.475
  404POPC   C3B 7977  42.573  15.483   8.050
  404POPC   C4B 7978  42.739  15.766   7.752
  405POPC   NC3 7979  36.207   7.646   9.640
  405POPC   PO4 7980  36.188   8.398   9.488
  405POPC   GL1 7981  35.982   8.300   9.051
  405POPC   GL2 7982  36.016   7.940   9.002
  405POPC   C1A 7983  36.031   8.469   8.672
  405POPC   D2A 7984  36.215   8.288   8.365
  405POPC   C3A 7985  36.234   8.530   8.009
  405POPC   C4A 7986  36.028   8.235   7.783
  405POPC   C1B 7987  36.374   7.839   8.758
  405POPC   C2B 7988  36.621   7.931   8.411
  405POPC   C3B 7989  36.464   8.033   8.001
  405POPC   C4B 7990  36.350   7.879   7.603
  406POPC   NC3 7991   7.365   3.843   9.892
  406POPC   PO4 7992   7.639   3.356   9.577
  406POPC   GL1 7993   7.800   3.497   9.160
  406POPC   GL2 7994   7.637   3.225   9.052
  406POPC   C1A 7995   7.733   3.594   8.705
  406POPC   D2A 7996   7.585   3.374   8.333
  406POPC   C3A 7997   7.561   3.645   7.975
  406POPC   C4A 7998   7.399   3.895   7.635
  406POPC   C1B 7999   7.213   3.245   8.824
  406POPC   C2B 8000   7.107   3.196   8.373
  406POPC   C3B 8001   7.110   3.393   7.949
  406POPC   C4B 8002   6.816   3.392   7.601
  407POPC   NC3 8003  37.000  27.614   9.448
  407POPC   PO4 8004  36.966  26.952   9.555
  407POPC   GL1 8005  36.827  27.124   9.135
  407POPC   GL2 8006  36.696  27.454   9.070
  407POPC   C1A 8007  37.089  27.286   8.782
  407POPC   D2A 8008  37.274  27.214   8.363
  407POPC   C3A 8009  37.026  27.279   7.987
  407POPC   C4A 8010  37.105  27.604   7.685
  407POPC   C1B 8011  36.532  27.637   8.675
  407POPC   C2B 8012  36.510  27.571   8.249
  407POPC   C3B 8013  36.392  27.902   7.990
  407POPC   C4B 8014  36.530  28.005   7.590
  408POPC   NC3 8015  33.101   2.506   9.533
  408POPC   PO4 8016  33.364   1.910   9.577
  408POPC   GL1 8017  33.148   1.854   9.183
  408POPC   GL2 8018  32.909   2.128   9.132
  408POPC   C1A 8019  32.947   1.691   8.807
  408POPC   D2A 8020  32.907   1.846   8.404
  408POPC   C3A 8021  32.647   1.748   8.091
  408POPC   C4A 8022  32.758   1.875   7.671
  408POPC   C1B 8023  33.133   2.166   8.744
  408POPC   C2B 8024  33.153   2.329   8.333
  408POPC   C3B 8025  33.197   2.193   7.882
  408POPC   C4B 8026  33.002   2.279   7.452
  409POPC   NC3 8027  12.254   4.532   9.443
  409POPC   PO4 8028  12.363   3.955   9.464
  409POPC   GL1 8029  12.095   4.152   9.109
  409POPC   GL2 8030  11.859   4.450   9.140
  409POPC   C1A 8031  12.066   4.255   8.675
  409POPC   D2A 8032  12.012   4.013   8.310
  409POPC   C3A 8033  12.003   4.232   7.929
  409POPC   C4A 8034  12.354   4.531   7.826
  409POPC   C1B 8035  11.680   4.591   8.746
  409POPC   C2B 8036  11.863   4.599   8.315
  409POPC   C3B 8037  11.861   4.723   7.883
  409POPC   C4B 8038  11.519   4.677   7.576
  410POPC   NC3 8039  31.876  10.447   9.624
  410POPC   PO4 8040  32.565  10.538   9.725
  410POPC   GL1 8041  32.332  10.644   9.277
  410POPC   GL2 8042  32.035  10.456   9.128
  410POPC   C1A 8043  32.332  10.712   8.795
  410POPC   D2A 8044  32.144  10.452   8.454
  410POPC   C3A 8045  32.324  10.439   8.036
  410POPC   C4A 8046  32.466  10.769   7.796
  410POPC   C1B 8047  31.771  10.293   8.774
  410POPC   C2B 8048  31.767  10.129   8.304
  410POPC   C3B 8049  31.860  10.261   7.854
  410POPC   C4B 8050  32.177  10.280   7.549
  411POPC   NC3 8051  14.160  39.716   9.577
  411POPC   PO4 8052  13.446  39.876   9.522
  411POPC   GL1 8053  13.443  40.112   9.113
  411POPC   GL2 8054  13.335  40.462   9.181
  411POPC   C1A 8055  13.550  40.063   8.661
  411POPC   D2A 8056  13.907  39.960   8.367
  411POPC   C3A 8057  13.678  39.877   7.995
  411POPC   C4A 8058  13.271  39.734   7.960
  411POPC   C1B 8059  13.528  40.550   8.767
  411POPC   C2B 8060  13.729  40.427   8.335
  411POPC   C3B 8061  13.854  40.332   7.854
  411POPC   C4B 8062  13.786  40.353   7.358
  412POPC   NC3 8063  43.428   5.528   9.534
  412POPC   PO4 8064  43.399   6.291   9.507
  412POPC   GL1 8065  43.734   5.967   9.284
  412POPC   GL2 8066  43.555   5.735   9.099
  412POPC   C1A 8067  43.977   5.897   8.854
  412POPC   D2A 8068  43.960   6.049   8.444
  412POPC   C3A 8069  44.053   5.860   8.056
  412POPC   C4A 8070  43.776   6.029   7.778
  412POPC   C1B 8071  43.687   5.482   8.783
  412POPC   C2B 8072  43.867   5.520   8.393
  412POPC   C3B 8073  43.682   5.494   8.000
  412POPC   C4B 8074  43.668   5.573   7.549
  413POPC   NC3 8075  35.579   8.941   9.635
  413POPC   PO4 8076  35.131   9.390   9.333
  413POPC   GL1 8077  35.284   8.979   9.160
  413POPC   GL2 8078  35.027   8.692   9.110
  413POPC   C1A 8079  35.309   8.869   8.714
  413POPC   D2A 8080  35.582   8.770   8.383
  413POPC   C3A 8081  35.367   8.908   7.981
  413POPC   C4A 8082  35.270   9.247   7.687
  413POPC   C1B 8083  35.025   8.441   8.726
  413POPC   C2B 8084  35.205   8.448   8.302
  413POPC   C3B 8085  35.118   8.488   7.860
  413POPC   C4B 8086  35.245   8.747   7.483
  414POPC   NC3 8087  31.775   6.415   9.481
  414POPC   PO4 8088  31.567   7.039   9.668
  414POPC   GL1 8089  31.364   6.858   9.254
  414POPC   GL2 8090  31.341   6.491   9.200
  414POPC   C1A 8091  31.445   6.890   8.802
  414POPC   D2A 8092  31.829   6.748   8.520
  414POPC   C3A 8093  31.701   6.575   8.105
  414POPC   C4A 8094  31.396   6.858   7.911
  414POPC   C1B 8095  31.582   6.395   8.829
  414POPC   C2B 8096  31.344   6.474   8.460
  414POPC   C3B 8097  31.177   6.408   8.053
  414POPC   C4B 8098  31.436   6.372   7.691
  415POPC   NC3 8099   8.101  38.857   9.775
  415POPC   PO4 8100   8.243  38.254   9.509
  415POPC   GL1 8101   8.216  38.402   9.101
  415POPC   GL2 8102   8.050  38.702   9.179
  415POPC   C1A 8103   8.249  38.352   8.646
  415POPC   D2A 8104   8.192  38.397   8.209
  415POPC   C3A 8105   8.499  38.477   7.938
  415POPC   C4A 8106   8.583  38.120   7.710
  415POPC   C1B 8107   8.259  38.863   8.812
  415POPC   C2B 8108   8.406  38.801   8.416
  415POPC   C3B 8109   8.161  38.887   8.043
  415POPC   C4B 8110   8.114  38.701   7.654
  416POPC   NC3 8111  40.755  35.715   9.454
  416POPC   PO4 8112  40.926  35.030   9.554
  416POPC   GL1 8113  40.779  35.103   9.174
  416POPC   GL2 8114  41.089  35.071   9.036
  416POPC   C1A 8115  40.590  35.347   8.841
  416POPC   D2A 8116  40.517  35.220   8.385
  416POPC   C3A 8117  40.652  35.501   8.051
  416POPC   C4A 8118  40.685  35.589   7.597
  416POPC   C1B 8119  40.889  34.981   8.664
  416POPC   C2B 8120  40.919  34.802   8.296
  416POPC   C3B 8121  40.941  34.924   7.892
  416POPC   C4B 8122  40.679  35.109   7.696
  417POPC   NC3 8123  29.968  42.994   9.581
  417POPC   PO4 8124  30.039  42.337   9.381
  417POPC   GL1 8125  29.772  42.759   9.163
  417POPC   GL2 8126  29.963  43.104   9.093
  417POPC   C1A 8127  29.605  43.031   8.770
  417POPC   D2A 8128  29.652  43.007   8.324
  417POPC   C3A 8129  29.813  43.228   7.949
  417POPC   C4A 8130  29.714  43.063   7.547
  417POPC   C1B 8131  30.071  43.184   8.627
  417POPC   C2B 8132  30.263  43.220   8.198
  417POPC   C3B 8133  30.261  43.097   7.754
  417POPC   C4B 8134  30.480  43.180   7.390
  418POPC   NC3 8135  42.101  11.966   9.552
  418POPC   PO4 8136  42.525  12.503   9.580
  418POPC   GL1 8137  42.474  12.148   9.258
  418POPC   GL2 8138  42.163  12.143   9.064
  418POPC   C1A 8139  42.592  11.967   8.843
  418POPC   D2A 8140  42.349  12.029   8.445
  418POPC   C3A 8141  42.581  11.928   8.063
  418POPC   C4A 8142  42.595  11.748   7.666
  418POPC   C1B 8143  41.971  12.326   8.695
  418POPC   C2B 8144  41.916  12.280   8.241
  418POPC   C3B 8145  41.994  12.108   7.822
  418POPC   C4B 8146  42.176  11.948   7.415
  419POPC   NC3 8147  13.222  10.214   9.754
  419POPC   PO4 8148  12.688  10.511   9.462
  419POPC   GL1 8149  12.650  10.527   9.059
  419POPC   GL2 8150  12.327  10.714   9.079
  419POPC   C1A 8151  12.791  10.327   8.650
  419POPC   D2A 8152  12.968  10.159   8.271
  419POPC   C3A 8153  12.827  10.294   7.863
  419POPC   C4A 8154  13.054  10.655   7.696
  419POPC   C1B 8155  12.503  10.750   8.654
  419POPC   C2B 8156  12.602  10.630   8.222
  419POPC   C3B 8157  12.506  10.713   7.782
  419POPC   C4B 8158  12.287  10.741   7.391
  420POPC   NC3 8159  27.727  42.573   9.434
  420POPC   PO4 8160  27.698  43.220   9.610
  420POPC   GL1 8161  27.632  43.022   9.199
  420POPC   GL2 8162  27.937  42.923   9.100
  420POPC   C1A 8163  27.567  43.144   8.763
  420POPC   D2A 8164  27.606  43.388   8.369
  420POPC   C3A 8165  27.745  43.325   7.967
  420POPC   C4A 8166  27.541  43.045   7.655
  420POPC   C1B 8167  27.956  42.821   8.653
  420POPC   C2B 8168  27.919  42.649   8.241
  420POPC   C3B 8169  27.987  42.906   7.836
  420POPC   C4B 8170  27.893  42.748   7.421
  421POPC   NC3 8171  12.174  17.351   9.407
  421POPC   PO4 8172  11.941  17.970   9.423
  421POPC   GL1 8173  11.859  17.654   9.115
  421POPC   GL2 8174  12.231  17.647   8.995
  421POPC   C1A 8175  11.876  17.537   8.659
  421POPC   D2A 8176  12.145  17.759   8.348
  421POPC   C3A 8177  11.968  17.626   7.976
  421POPC   C4A 8178  11.586  17.658   7.784
  421POPC   C1B 8179  12.279  17.229   8.765
  421POPC   C2B 8180  12.195  17.221   8.319
  421POPC   C3B 8181  12.310  17.259   7.875
  421POPC   C4B 8182  12.374  17.538   7.480
  422POPC   NC3 8183  27.736   9.211   9.233
  422POPC   PO4 8184  27.186   8.859   9.552
  422POPC   GL1 8185  27.387   8.826   9.117
  422POPC   GL2 8186  27.712   8.822   8.867
  422POPC   C1A 8187  27.255   8.920   8.688
  422POPC   D2A 8188  27.483   8.715   8.367
  422POPC   C3A 8189  27.695   8.964   8.130
  422POPC   C4A 8190  27.647   8.893   7.747
  422POPC   C1B 8191  27.722   9.212   8.576
  422POPC   C2B 8192  27.825   9.465   8.179
  422POPC   C3B 8193  27.973   9.267   7.747
  422POPC   C4B 8194  27.784   9.184   7.315
  423POPC   NC3 8195  17.646  36.124   9.723
  423POPC   PO4 8196  17.245  35.879   9.284
  423POPC   GL1 8197  17.453  36.153   9.038
  423POPC   GL2 8198  17.712  36.327   9.216
  423POPC   C1A 8199  17.589  35.951   8.681
  423POPC   D2A 8200  17.561  35.859   8.258
  423POPC   C3A 8201  17.520  36.159   7.934
  423POPC   C4A 8202  17.576  36.078   7.533
  423POPC   C1B 8203  17.928  36.326   8.818
  423POPC   C2B 8204  17.744  36.335   8.410
  423POPC   C3B 8205  17.930  36.422   8.069
  423POPC   C4B 8206  17.854  36.493   7.657
  424POPC   NC3 8207  30.490   0.337   9.887
  424POPC   PO4 8208  30.900   0.576   9.457
  424POPC   GL1 8209  30.711   0.396   9.077
  424POPC   GL2 8210  30.867   0.066   9.065
  424POPC   C1A 8211  30.537   0.601   8.672
  424POPC   D2A 8212  30.424   0.761   8.262
  424POPC   C3A 8213  30.579   0.585   7.880
  424POPC   C4A 8214  30.815   0.528   7.480
  424POPC   C1B 8215  30.775   0.154   8.629
  424POPC   C2B 8216  30.523   0.228   8.270
  424POPC   C3B 8217  30.643   0.074   7.863
  424POPC   C4B 8218  30.580  44.714   7.572
  425POPC   NC3 8219  27.101  37.806   9.643
  425POPC   PO4 8220  26.726  37.297   9.745
  425POPC   GL1 8221  26.972  37.389   9.338
  425POPC   GL2 8222  26.663  37.394   9.204
  425POPC   C1A 8223  26.977  37.733   8.960
  425POPC   D2A 8224  26.649  37.817   8.612
  425POPC   C3A 8225  26.631  37.873   8.154
  425POPC   C4A 8226  26.893  37.912   7.787
  425POPC   C1B 8227  26.861  37.271   8.816
  425POPC   C2B 8228  26.819  37.275   8.366
  425POPC   C3B 8229  26.839  37.399   7.934
  425POPC   C4B 8230  26.522  37.588   7.630
  426POPC   NC3 8231  13.938  23.430   9.440
  426POPC   PO4 8232  13.407  23.999   9.484
  426POPC   GL1 8233  13.639  23.958   9.134
  426POPC   GL2 8234  13.638  23.624   9.081
  426POPC   C1A 8235  13.791  24.076   8.740
  426POPC   D2A 8236  13.790  23.778   8.455
  426POPC   C3A 8237  13.560  23.824   8.108
  426POPC   C4A 8238  13.895  23.911   7.847
  426POPC   C1B 8239  13.423  23.341   8.816
  426POPC   C2B 8240  13.406  23.426   8.398
  426POPC   C3B 8241  13.167  23.398   8.062
  426POPC   C4B 8242  13.352  23.289   7.682
  427POPC   NC3 8243  21.347  33.579   9.656
  427POPC   PO4 8244  21.220  34.197   9.441
  427POPC   GL1 8245  21.468  33.859   9.151
  427POPC   GL2 8246  21.452  33.515   9.169
  427POPC   C1A 8247  21.370  33.794   8.708
  427POPC   D2A 8248  21.548  33.986   8.357
  427POPC   C3A 8249  21.368  33.950   7.955
  427POPC   C4A 8250  21.561  34.187   7.642
  427POPC   C1B 8251  21.755  33.496   8.821
  427POPC   C2B 8252  21.677  33.493   8.346
  427POPC   C3B 8253  21.797  33.659   7.934
  427POPC   C4B 8254  21.579  33.703   7.523
  428POPC   NC3 8255  31.174  38.094   9.306
  428POPC   PO4 8256  31.725  38.003   9.786
  428POPC   GL1 8257  31.666  38.221   9.403
  428POPC   GL2 8258  31.695  37.956   9.229
  428POPC   C1A 8259  31.680  38.477   9.015
  428POPC   D2A 8260  31.441  38.581   8.654
  428POPC   C3A 8261  31.565  38.506   8.246
  428POPC   C4A 8262  31.360  38.208   7.999
  428POPC   C1B 8263  31.798  38.033   8.801
  428POPC   C2B 8264  31.985  38.276   8.423
  428POPC   C3B 8265  31.941  38.260   7.972
  428POPC   C4B 8266  31.701  38.587   7.751
  429POPC   NC3 8267  44.643  42.061   9.399
  429POPC   PO4 8268  44.603  42.729   9.364
  429POPC   GL1 8269  44.612  42.438   9.064
  429POPC   GL2 8270  44.626  42.674   8.837
  429POPC   C1A 8271  44.674  42.195   8.698
  429POPC   D2A 8272  44.644  42.361   8.268
  429POPC   C3A 8273  44.684  42.020   7.954
  429POPC   C4A 8274  44.808  42.068   7.528
  429POPC   C1B 8275   0.054  42.533   8.696
  429POPC   C2B 8276   0.158  42.317   8.305
  429POPC   C3B 8277   0.021  42.411   7.915
  429POPC   C4B 8278  44.998  42.810   7.801
  430POPC   NC3 8279  17.521  18.724   9.313
  430POPC   PO4 8280  17.754  18.071   9.390
  430POPC   GL1 8281  17.562  18.255   9.084
  430POPC   GL2 8282  17.230  18.138   9.107
  430POPC   C1A 8283  17.687  18.442   8.711
  430POPC   D2A 8284  17.837  18.339   8.309
  430POPC   C3A 8285  17.782  18.598   7.960
  430POPC   C4A 8286  17.695  18.516   7.571
  430POPC   C1B 8287  17.109  18.316   8.746
  430POPC   C2B 8288  17.316  18.367   8.375
  430POPC   C3B 8289  17.317  18.333   7.959
  430POPC   C4B 8290  17.026  18.028   7.863
  431POPC   NC3 8291  23.339  33.610   9.799
  431POPC   PO4 8292  23.230  34.135   9.377
  431POPC   GL1 8293  22.953  33.841   9.127
  431POPC   GL2 8294  22.595  33.708   9.141
  431POPC   C1A 8295  22.986  33.828   8.707
  431POPC   D2A 8296  22.992  34.249   8.564
  431POPC   C3A 8297  22.946  34.241   8.140
  431POPC   C4A 8298  22.854  33.923   7.803
  431POPC   C1B 8299  22.605  33.505   8.737
  431POPC   C2B 8300  22.687  33.376   8.311
  431POPC   C3B 8301  22.675  33.457   7.862
  431POPC   C4B 8302  22.529  33.502   7.405
  432POPC   NC3 8303  16.944   6.362   9.398
  432POPC   PO4 8304  16.488   6.857   9.466
  432POPC   GL1 8305  16.658   6.675   9.108
  432POPC   GL2 8306  17.009   6.698   9.022
  432POPC   C1A 8307  16.559   6.774   8.715
  432POPC   D2A 8308  16.440   6.672   8.319
  432POPC   C3A 8309  16.725   6.857   8.049
  432POPC   C4A 8310  16.707   6.627   7.686
  432POPC   C1B 8311  16.936   6.431   8.649
  432POPC   C2B 8312  16.858   6.366   8.184
  432POPC   C3B 8313  17.096   6.355   7.794
  432POPC   C4B 8314  17.141   6.623   7.400
  433POPC   NC3 8315  37.316  17.674   9.353
  433POPC   PO4 8316  37.126  17.055   9.623
  433POPC   GL1 8317  36.976  17.239   9.210
  433POPC   GL2 8318  37.187  17.420   8.921
  433POPC   C1A 8319  36.721  17.198   8.849
  433POPC   D2A 8320  36.694  17.449   8.474
  433POPC   C3A 8321  36.964  17.310   8.145
  433POPC   C4A 8322  36.986  17.511   7.737
  433POPC   C1B 8323  37.125  17.747   8.569
  433POPC   C2B 8324  37.110  17.793   8.154
  433POPC   C3B 8325  37.238  17.991   7.805
  433POPC   C4B 8326  37.329  17.812   7.413
  434POPC   NC3 8327  13.784  22.296   9.687
  434POPC   PO4 8328  13.394  21.845   9.396
  434POPC   GL1 8329  13.688  22.025   9.125
  434POPC   GL2 8330  13.972  21.978   9.277
  434POPC   C1A 8331  13.683  22.218   8.716
  434POPC   D2A 8332  13.445  22.075   8.346
  434POPC   C3A 8333  13.456  22.381   8.017
  434POPC   C4A 8334  13.620  22.252   7.613
  434POPC   C1B 8335  14.130  21.925   8.855
  434POPC   C2B 8336  14.141  22.194   8.481
  434POPC   C3B 8337  13.935  22.196   8.097
  434POPC   C4B 8338  14.078  22.073   7.697
  435POPC   NC3 8339   7.823  44.107   9.255
  435POPC   PO4 8340   8.303  43.741   9.532
  435POPC   GL1 8341   8.231  43.726   9.091
  435POPC   GL2 8342   7.923  43.617   9.092
  435POPC   C1A 8343   8.219  43.930   8.651
  435POPC   D2A 8344   8.518  44.036   8.322
  435POPC   C3A 8345   8.337  44.084   7.955
  435POPC   C4A 8346   8.294  43.705   7.764
  435POPC   C1B 8347   7.994  43.467   8.664
  435POPC   C2B 8348   7.771  43.575   8.275
  435POPC   C3B 8349   7.809  43.513   7.786
  435POPC   C4B 8350   7.901  43.608   7.320
  436POPC   NC3 8351   0.626   4.337   9.476
  436POPC   PO4 8352   0.013   4.398   9.317
  436POPC   GL1 8353   0.301   4.171   9.108
  436POPC   GL2 8354   0.401   4.463   8.920
  436POPC   C1A 8355   0.562   4.007   8.792
  436POPC   D2A 8356   0.545   4.266   8.422
  436POPC   C3A 8357   0.394   4.171   8.008
  436POPC   C4A 8358   0.526   4.368   7.645
  436POPC   C1B 8359   0.863   4.413   8.818
  436POPC   C2B 8360   1.085   4.233   8.459
  436POPC   C3B 8361   0.907   4.204   8.045
  436POPC   C4B 8362   0.915   4.044   7.636
  437POPC   NC3 8363  44.202  24.249   9.255
  437POPC   PO4 8364  43.740  24.684   9.395
  437POPC   GL1 8365  43.881  24.495   8.973
  437POPC   GL2 8366  43.720  24.152   9.025
  437POPC   C1A 8367  43.937  24.175   8.569
  437POPC   D2A 8368  43.891  24.073   8.089
  437POPC   C3A 8369  43.976  24.466   7.878
  437POPC   C4A 8370  44.221  24.802   8.110
  437POPC   C1B 8371  43.499  24.423   8.690
  437POPC   C2B 8372  43.519  24.379   8.264
  437POPC   C3B 8373  43.393  24.273   7.863
  437POPC   C4B 8374  43.484  24.637   7.656
  438POPC   NC3 8375  14.995  18.589   9.524
  438POPC   PO4 8376  15.246  17.929   9.518
  438POPC   GL1 8377  15.019  18.128   9.148
  438POPC   GL2 8378  14.864  18.485   9.055
  438POPC   C1A 8379  15.137  18.128   8.696
  438POPC   D2A 8380  15.264  18.232   8.263
  438POPC   C3A 8381  15.002  18.269   7.917
  438POPC   C4A 8382  15.059  17.840   7.752
  438POPC   C1B 8383  15.273  18.588   8.895
  438POPC   C2B 8384  15.443  18.644   8.480
  438POPC   C3B 8385  15.360  18.695   8.042
  438POPC   C4B 8386  15.440  18.488   7.644
  439POPC   NC3 8387   3.956  26.597   9.434
  439POPC   PO4 8388   4.558  26.903   9.719
  439POPC   GL1 8389   4.458  26.771   9.309
  439POPC   GL2 8390   4.203  26.960   9.140
  439POPC   C1A 8391   4.576  26.735   8.887
  439POPC   D2A 8392   4.604  26.737   8.445
  439POPC   C3A 8393   4.282  26.701   8.177
  439POPC   C4A 8394   3.984  26.630   7.859
  439POPC   C1B 8395   4.014  27.199   8.801
  439POPC   C2B 8396   3.954  27.276   8.348
  439POPC   C3B 8397   4.082  27.123   7.923
  439POPC   C4B 8398   4.415  26.847   7.692
  440POPC   NC3 8399  34.900  31.375   9.654
  440POPC   PO4 8400  34.433  31.851   9.407
  440POPC   GL1 8401  34.538  31.589   9.116
  440POPC   GL2 8402  34.484  31.270   9.067
  440POPC   C1A 8403  34.462  31.629   8.686
  440POPC   D2A 8404  34.703  31.850   8.390
  440POPC   C3A 8405  34.744  31.616   8.009
  440POPC   C4A 8406  34.338  31.559   7.804
  440POPC   C1B 8407  34.753  31.189   8.721
  440POPC   C2B 8408  34.632  31.005   8.375
  440POPC   C3B 8409  34.591  31.121   7.978
  440POPC   C4B 8410  34.360  31.052   7.661
  441POPC   NC3 8411  30.983  17.622   9.507
  441POPC   PO4 8412  30.372  17.669   9.249
  441POPC   GL1 8413  30.716  17.537   9.006
  441POPC   GL2 8414  30.981  17.291   9.109
  441POPC   C1A 8415  30.587  17.599   8.583
  441POPC   D2A 8416  30.307  17.712   8.242
  441POPC   C3A 8417  30.657  17.646   7.947
  441POPC   C4A 8418  30.778  17.312   7.674
  441POPC   C1B 8419  31.096  17.408   8.684
  441POPC   C2B 8420  30.954  17.354   8.268
  441POPC   C3B 8421  31.183  17.486   7.923
  441POPC   C4B 8422  31.087  17.768   7.619
  442POPC   NC3 8423  16.741  16.960   9.790
  442POPC   PO4 8424  17.095  16.553   9.392
  442POPC   GL1 8425  16.782  16.733   9.118
  442POPC   GL2 8426  16.598  16.982   9.291
  442POPC   C1A 8427  16.803  16.823   8.676
  442POPC   D2A 8428  16.724  16.578   8.323
  442POPC   C3A 8429  16.699  16.726   7.921
  442POPC   C4A 8430  16.922  16.502   7.625
  442POPC   C1B 8431  16.406  17.072   8.880
  442POPC   C2B 8432  16.319  16.918   8.460
  442POPC   C3B 8433  16.104  16.954   8.068
  442POPC   C4B 8434  16.251  16.960   7.668
  443POPC   NC3 8435  31.945  29.403   9.461
  443POPC   PO4 8436  31.507  28.867   9.376
  443POPC   GL1 8437  31.575  29.041   9.026
  443POPC   GL2 8438  31.558  29.378   9.109
  443POPC   C1A 8439  31.749  29.225   8.665
  443POPC   D2A 8440  31.576  29.321   8.274
  443POPC   C3A 8441  31.466  29.031   7.969
  443POPC   C4A 8442  31.747  28.824   7.721
  443POPC   C1B 8443  31.239  29.322   8.746
  443POPC   C2B 8444  31.089  29.456   8.332
  443POPC   C3B 8445  31.286  29.539   7.922
  443POPC   C4B 8446  31.712  29.455   7.779
  444POPC   NC3 8447  14.314  27.206   9.413
  444POPC   PO4 8448  14.623  27.684   9.807
  444POPC   GL1 8449  14.672  27.603   9.350
  444POPC   GL2 8450  14.748  27.915   9.218
  444POPC   C1A 8451  14.433  27.648   8.933
  444POPC   D2A 8452  14.510  27.681   8.498
  444POPC   C3A 8453  14.200  27.653   8.180
  444POPC   C4A 8454  14.231  27.725   7.762
  444POPC   C1B 8455  14.676  28.105   8.815
  444POPC   C2B 8456  14.843  28.036   8.368
  444POPC   C3B 8457  14.717  28.000   7.915
  444POPC   C4B 8458  14.703  28.162   7.462
  445POPC   NC3 8459  10.049  36.856   9.563
  445POPC   PO4 8460  10.674  36.903   9.392
  445POPC   GL1 8461  10.610  36.973   9.012
  445POPC   GL2 8462  10.241  36.989   9.020
  445POPC   C1A 8463  10.578  36.857   8.602
  445POPC   D2A 8464  10.531  36.963   8.202
  445POPC   C3A 8465  10.850  36.786   7.959
  445POPC   C4A 8466  10.785  36.849   7.523
  445POPC   C1B 8467  10.120  36.676   8.691
  445POPC   C2B 8468  10.182  36.592   8.226
  445POPC   C3B 8469  10.264  36.797   7.794
  445POPC   C4B 8470   9.926  36.889   7.476
  446POPC   NC3 8471  13.398  26.269   9.439
  446POPC   PO4 8472  13.654  25.646   9.422
  446POPC   GL1 8473  13.660  25.821   9.037
  446POPC   GL2 8474  13.764  26.148   9.069
  446POPC   C1A 8475  13.372  26.051   8.757
  446POPC   D2A 8476  13.296  26.308   8.401
  446POPC   C3A 8477  13.352  26.135   7.981
  446POPC   C4A 8478  13.456  25.687   7.947
  446POPC   C1B 8479  13.882  26.154   8.626
  446POPC   C2B 8480  13.926  26.196   8.155
  446POPC   C3B 8481  14.133  26.242   7.740
  446POPC   C4B 8482  13.955  26.423   7.365
  447POPC   NC3 8483  32.503  31.674   9.376
  447POPC   PO4 8484  32.103  31.255   9.674
  447POPC   GL1 8485  32.234  31.233   9.207
  447POPC   GL2 8486  31.895  31.254   9.052
  447POPC   C1A 8487  32.503  31.369   8.821
  447POPC   D2A 8488  32.481  31.395   8.376
  447POPC   C3A 8489  32.549  31.723   8.071
  447POPC   C4A 8490  32.495  31.546   7.669
  447POPC   C1B 8491  32.004  31.460   8.652
  447POPC   C2B 8492  32.061  31.733   8.300
  447POPC   C3B 8493  32.083  31.464   7.966
  447POPC   C4B 8494  31.972  31.099   7.780
  448POPC   NC3 8495   5.433  37.402   9.485
  448POPC   PO4 8496   5.907  37.906   9.482
  448POPC   GL1 8497   5.719  37.689   9.150
  448POPC   GL2 8498   5.994  37.635   8.968
  448POPC   C1A 8499   5.547  37.511   8.761
  448POPC   D2A 8500   5.781  37.337   8.401
  448POPC   C3A 8501   5.722  37.579   8.060
  448POPC   C4A 8502   5.795  37.608   7.638
  448POPC   C1B 8503   6.214  37.482   8.648
  448POPC   C2B 8504   6.224  37.647   8.259
  448POPC   C3B 8505   6.220  37.465   7.889
  448POPC   C4B 8506   6.305  37.701   7.556
  449POPC   NC3 8507  23.887  32.814   9.542
  449POPC   PO4 8508  23.265  33.205   9.565
  449POPC   GL1 8509  23.423  33.114   9.100
  449POPC   GL2 8510  23.702  32.898   9.065
  449POPC   C1A 8511  23.493  33.003   8.621
  449POPC   D2A 8512  23.848  33.073   8.298
  449POPC   C3A 8513  23.647  33.029   7.901
  449POPC   C4A 8514  23.384  32.676   7.852
  449POPC   C1B 8515  23.909  33.231   8.794
  449POPC   C2B 8516  24.154  33.456   8.490
  449POPC   C3B 8517  24.251  33.379   8.069
  449POPC   C4B 8518  24.153  33.039   7.779
  450POPC   NC3 8519  15.269   6.151   9.479
  450POPC   PO4 8520  15.075   6.821   9.525
  450POPC   GL1 8521  15.379   6.699   9.250
  450POPC   GL2 8522  15.125   6.478   9.111
  450POPC   C1A 8523  15.478   6.845   8.837
  450POPC   D2A 8524  15.343   6.684   8.440
  450POPC   C3A 8525  15.507   6.855   8.092
  450POPC   C4A 8526  15.556   6.684   7.733
  450POPC   C1B 8527  14.916   6.622   8.737
  450POPC   C2B 8528  14.914   6.419   8.320
  450POPC   C3B 8529  15.119   6.488   7.905
  450POPC   C4B 8530  15.104   6.781   7.533
  451POPC   NC3 8531  24.532  33.185   9.482
  451POPC   PO4 8532  23.860  33.331   9.414
  451POPC   GL1 8533  24.187  33.007   9.146
  451POPC   GL2 8534  24.564  32.907   9.076
  451POPC   C1A 8535  24.249  32.879   8.700
  451POPC   D2A 8536  24.375  32.946   8.297
  451POPC   C3A 8537  24.647  33.063   7.994
  451POPC   C4A 8538  24.616  32.862   7.662
  451POPC   C1B 8539  24.604  32.541   8.833
  451POPC   C2B 8540  24.557  32.458   8.431
  451POPC   C3B 8541  24.802  32.597   8.103
  451POPC   C4B 8542  25.083  32.726   7.770
  452POPC   NC3 8543  30.145  35.321   9.911
  452POPC   PO4 8544  29.761  34.872   9.630
  452POPC   GL1 8545  29.973  35.227   9.341
  452POPC   GL2 8546  29.960  35.631   9.253
  452POPC   C1A 8547  30.107  35.281   8.894
  452POPC   D2A 8548  29.923  35.093   8.520
  452POPC   C3A 8549  29.937  35.152   8.106
  452POPC   C4A 8550  29.884  35.208   7.680
  452POPC   C1B 8551  30.049  35.789   8.809
  452POPC   C2B 8552  30.011  35.594   8.428
  452POPC   C3B 8553  30.095  35.642   8.014
  452POPC   C4B 8554  29.798  35.721   7.691
  453POPC   NC3 8555  34.869  30.548   9.445
  453POPC   PO4 8556  34.459  31.057   9.642
  453POPC   GL1 8557  34.453  30.797   9.259
  453POPC   GL2 8558  34.782  30.869   9.096
  453POPC   C1A 8559  34.390  30.702   8.807
  453POPC   D2A 8560  34.539  30.512   8.412
  453POPC   C3A 8561  34.330  30.663   8.023
  453POPC   C4A 8562  34.228  30.565   7.581
  453POPC   C1B 8563  34.924  30.580   8.781
  453POPC   C2B 8564  35.072  30.723   8.414
  453POPC   C3B 8565  34.883  30.686   8.005
  453POPC   C4B 8566  35.101  30.609   7.632
  454POPC   NC3 8567  27.371  10.966   9.436
  454POPC   PO4 8568  27.775  10.303   9.513
  454POPC   GL1 8569  27.584  10.321   9.134
  454POPC   GL2 8570  27.628  10.675   9.115
  454POPC   C1A 8571  27.493  10.213   8.721
  454POPC   D2A 8572  27.594  10.488   8.387
  454POPC   C3A 8573  27.548  10.335   7.983
  454POPC   C4A 8574  27.539  10.060   7.713
  454POPC   C1B 8575  27.283  10.666   8.812
  454POPC   C2B 8576  27.220  10.860   8.428
  454POPC   C3B 8577  27.328  10.769   8.016
  454POPC   C4B 8578  27.700  10.754   7.725
  455POPC   NC3 8579  22.362   9.281   9.783
  455POPC   PO4 8580  21.847   9.644   9.589
  455POPC   GL1 8581  21.880   9.721   9.152
  455POPC   GL2 8582  22.191   9.874   9.139
  455POPC   C1A 8583  22.031   9.563   8.746
  455POPC   D2A 8584  22.205   9.769   8.390
  455POPC   C3A 8585  21.970   9.737   8.045
  455POPC   C4A 8586  22.133   9.502   7.683
  455POPC   C1B 8587  22.444   9.992   8.776
  455POPC   C2B 8588  22.651  10.100   8.366
  455POPC   C3B 8589  22.658   9.925   7.913
  455POPC   C4B 8590  22.654   9.949   7.417
  456POPC   NC3 8591  36.669  32.508   9.309
  456POPC   PO4 8592  37.075  31.981   9.461
  456POPC   GL1 8593  36.985  32.167   9.091
  456POPC   GL2 8594  37.145  32.511   9.056
  456POPC   C1A 8595  36.867  32.017   8.681
  456POPC   D2A 8596  37.021  32.172   8.303
  456POPC   C3A 8597  36.798  32.148   7.910
  456POPC   C4A 8598  37.115  32.143   7.582
  456POPC   C1B 8599  36.883  32.540   8.690
  456POPC   C2B 8600  36.693  32.561   8.269
  456POPC   C3B 8601  36.971  32.641   7.908
  456POPC   C4B 8602  37.028  32.643   7.450
  457POPC   NC3 8603   2.682  40.697   9.568
  457POPC   PO4 8604   2.702  41.388   9.612
  457POPC   GL1 8605   2.900  41.037   9.227
  457POPC   GL2 8606   2.780  40.654   9.093
  457POPC   C1A 8607   2.835  40.969   8.725
  457POPC   D2A 8608   2.558  40.619   8.525
  457POPC   C3A 8609   2.482  40.653   8.097
  457POPC   C4A 8610   2.704  40.962   7.814
  457POPC   C1B 8611   2.998  40.445   8.739
  457POPC   C2B 8612   3.098  40.621   8.333
  457POPC   C3B 8613   2.932  40.497   7.935
  457POPC   C4B 8614   2.784  40.542   7.497
  458POPC   NC3 8615  19.173  39.474   9.473
  458POPC   PO4 8616  18.712  39.066   9.581
  458POPC   GL1 8617  18.938  38.971   9.189
  458POPC   GL2 8618  19.318  39.005   9.091
  458POPC   C1A 8619  18.933  39.135   8.768
  458POPC   D2A 8620  19.189  39.077   8.404
  458POPC   C3A 8621  18.971  38.764   8.179
  458POPC   C4A 8622  18.721  38.916   7.836
  458POPC   C1B 8623  19.394  39.378   8.783
  458POPC   C2B 8624  19.347  39.573   8.327
  458POPC   C3B 8625  19.196  39.561   7.902
  458POPC   C4B 8626  19.203  39.370   7.486
  459POPC   NC3 8627  11.544  14.931   9.466
  459POPC   PO4 8628  12.183  15.098   9.534
  459POPC   GL1 8629  12.092  15.197   9.132
  459POPC   GL2 8630  11.775  15.197   9.111
  459POPC   C1A 8631  12.011  15.019   8.710
  459POPC   D2A 8632  12.024  14.789   8.342
  459POPC   C3A 8633  11.844  15.051   8.053
  459POPC   C4A 8634  11.909  15.209   7.648
  459POPC   C1B 8635  11.659  15.463   8.789
  459POPC   C2B 8636  11.737  15.572   8.386
  459POPC   C3B 8637  11.582  15.496   7.967
  459POPC   C4B 8638  11.816  15.702   7.613
  460POPC   NC3 8639  43.911  25.103   9.515
  460POPC   PO4 8640  44.276  25.608   9.511
  460POPC   GL1 8641  43.918  25.518   9.182
  460POPC   GL2 8642  43.677  25.220   9.106
  460POPC   C1A 8643  43.851  25.499   8.732
  460POPC   D2A 8644  43.711  25.251   8.393
  460POPC   C3A 8645  44.058  25.283   8.104
  460POPC   C4A 8646  44.173  25.590   7.806
  460POPC   C1B 8647  43.614  24.929   8.796
  460POPC   C2B 8648  43.829  24.738   8.454
  460POPC   C3B 8649  43.695  24.862   8.054
  460POPC   C4B 8650  43.693  25.195   7.758
  461POPC   NC3 8651  30.890  20.076   9.398
  461POPC   PO4 8652  30.418  19.604   9.510
  461POPC   GL1 8653  30.656  19.669   9.152
  461POPC   GL2 8654  30.498  19.993   9.058
  461POPC   C1A 8655  30.879  19.647   8.755
  461POPC   D2A 8656  31.072  19.805   8.397
  461POPC   C3A 8657  30.904  19.559   8.082
  461POPC   C4A 8658  30.641  19.668   7.737
  461POPC   C1B 8659  30.577  20.089   8.630
  461POPC   C2B 8660  30.632  19.997   8.204
  461POPC   C3B 8661  30.980  20.039   7.932
  461POPC   C4B 8662  30.852  20.185   7.581
  462POPC   NC3 8663  14.522  42.740   9.454
  462POPC   PO4 8664  14.208  42.088   9.476
  462POPC   GL1 8665  14.461  42.258   9.154
  462POPC   GL2 8666  14.369  42.555   9.016
  462POPC   C1A 8667  14.649  42.238   8.710
  462POPC   D2A 8668  14.851  42.245   8.317
  462POPC   C3A 8669  14.622  42.370   7.977
  462POPC   C4A 8670  14.374  42.550   7.694
  462POPC   C1B 8671  14.151  42.225   8.758
  462POPC   C2B 8672  14.243  42.222   8.327
  462POPC   C3B 8673  14.040  42.290   7.960
  462POPC   C4B 8674  14.198  42.073   7.605
  463POPC   NC3 8675  20.129  16.576   9.401
  463POPC   PO4 8676  19.633  17.060   9.486
  463POPC   GL1 8677  19.698  16.738   9.165
  463POPC   GL2 8678  19.478  16.442   9.182
  463POPC   C1A 8679  19.971  16.770   8.796
  463POPC   D2A 8680  19.975  17.045   8.445
  463POPC   C3A 8681  19.921  16.836   8.045
  463POPC   C4A 8682  19.806  16.929   7.634
  463POPC   C1B 8683  19.620  16.430   8.741
  463POPC   C2B 8684  19.506  16.659   8.349
  463POPC   C3B 8685  19.541  16.531   7.905
  463POPC   C4B 8686  19.948  16.427   7.692
  464POPC   NC3 8687  43.629  18.152   9.531
  464POPC   PO4 8688  44.005  18.678   9.487
  464POPC   GL1 8689  44.167  18.384   9.140
  464POPC   GL2 8690  43.847  18.170   9.064
  464POPC   C1A 8691  44.115  18.353   8.682
  464POPC   D2A 8692  43.766  18.087   8.529
  464POPC   C3A 8693  43.575  18.190   8.139
  464POPC   C4A 8694  43.801  18.269   7.722
  464POPC   C1B 8695  44.115  17.851   8.837
  464POPC   C2B 8696  44.059  17.664   8.414
  464POPC   C3B 8697  44.024  17.910   8.039
  464POPC   C4B 8698  44.101  17.825   7.600
  465POPC   NC3 8699  25.823  15.806   9.611
  465POPC   PO4 8700  26.295  16.206   9.739
  465POPC   GL1 8701  26.096  16.070   9.296
  465POPC   GL2 8702  25.702  16.012   9.184
  465POPC   C1A 8703  26.107  16.029   8.861
  465POPC   D2A 8704  26.115  16.248   8.500
  465POPC   C3A 8705  26.077  15.984   8.166
  465POPC   C4A 8706  26.003  16.095   7.787
  465POPC   C1B 8707  25.612  16.184   8.811
  465POPC   C2B 8708  25.692  15.964   8.495
  465POPC   C3B 8709  25.592  15.894   8.098
  465POPC   C4B 8710  25.545  15.815   7.695
  466POPC   NC3 8711  31.761   8.772   9.443
  466POPC   PO4 8712  31.253   9.152   9.682
  466POPC   GL1 8713  31.398   9.099   9.273
  466POPC   GL2 8714  31.296   8.753   9.236
  466POPC   C1A 8715  31.592   9.020   8.876
  466POPC   D2A 8716  31.583   9.058   8.455
  466POPC   C3A 8717  31.667   9.128   8.029
  466POPC   C4A 8718  31.654   8.813   7.690
  466POPC   C1B 8719  31.219   8.567   8.862
  466POPC   C2B 8720  31.120   8.684   8.466
  466POPC   C3B 8721  31.278   8.801   8.081
  466POPC   C4B 8722  31.076   8.845   7.709
  467POPC   NC3 8723  12.473  35.270   9.521
  467POPC   PO4 8724  13.196  35.515   9.466
  467POPC   GL1 8725  13.070  35.280   9.114
  467POPC   GL2 8726  12.725  35.126   9.101
  467POPC   C1A 8727  13.222  35.334   8.716
  467POPC   D2A 8728  13.004  35.542   8.394
  467POPC   C3A 8729  13.023  35.382   8.016
  467POPC   C4A 8730  13.031  35.646   7.700
  467POPC   C1B 8731  12.723  35.235   8.683
  467POPC   C2B 8732  12.784  35.006   8.298
  467POPC   C3B 8733  12.601  35.105   7.910
  467POPC   C4B 8734  12.542  35.493   7.775
  468POPC   NC3 8735  44.688  32.762   9.518
  468POPC   PO4 8736   0.030  32.158   9.473
  468POPC   GL1 8737   0.045  32.243   9.061
  468POPC   GL2 8738  44.704  32.354   9.084
  468POPC   C1A 8739   0.025  32.184   8.637
  468POPC   D2A 8740  44.835  32.506   8.403
  468POPC   C3A 8741  44.713  32.468   8.002
  468POPC   C4A 8742  44.622  32.333   7.630
  468POPC   C1B 8743  44.449  32.394   8.712
  468POPC   C2B 8744  44.266  32.393   8.281
  468POPC   C3B 8745  44.204  32.548   7.858
  468POPC   C4B 8746  44.144  32.342   7.426
  469POPC   NC3 8747  20.558  12.325   9.929
  469POPC   PO4 8748  20.938  11.841   9.830
  469POPC   GL1 8749  20.736  11.884   9.331
  469POPC   GL2 8750  20.522  11.668   9.088
  469POPC   C1A 8751  20.700  12.049   8.835
  469POPC   D2A 8752  20.535  11.797   8.428
  469POPC   C3A 8753  20.677  11.971   7.991
  469POPC   C4A 8754  20.710  12.328   7.675
  469POPC   C1B 8755  20.929  11.619   8.729
  469POPC   C2B 8756  21.031  11.585   8.272
  469POPC   C3B 8757  21.186  11.834   7.935
  469POPC   C4B 8758  21.029  11.923   7.538
  470POPC   NC3 8759   4.521   3.934   9.449
  470POPC   PO4 8760   5.009   3.460   9.330
  470POPC   GL1 8761   4.813   3.355   8.968
  470POPC   GL2 8762   4.566   3.584   9.042
  470POPC   C1A 8763   4.791   3.290   8.507
  470POPC   D2A 8764   4.668   3.543   8.150
  470POPC   C3A 8765   4.972   3.421   7.860
  470POPC   C4A 8766   5.409   3.350   7.950
  470POPC   C1B 8767   4.754   3.769   8.639
  470POPC   C2B 8768   5.108   3.731   8.297
  470POPC   C3B 8769   5.110   3.909   7.861
  470POPC   C4B 8770   5.012   4.153   7.462
  471POPC   NC3 8771  36.130  10.975   9.511
  471POPC   PO4 8772  35.881  10.352   9.477
  471POPC   GL1 8773  36.061  10.587   9.134
  471POPC   GL2 8774  36.425  10.655   9.211
  471POPC   C1A 8775  35.947  10.515   8.682
  471POPC   D2A 8776  35.741  10.300   8.365
  471POPC   C3A 8777  35.989  10.350   8.022
  471POPC   C4A 8778  35.944  10.579   7.677
  471POPC   C1B 8779  36.434  10.578   8.787
  471POPC   C2B 8780  36.371  10.408   8.373
  471POPC   C3B 8781  36.433  10.580   7.950
  471POPC   C4B 8782  36.424  10.653   7.504
  472POPC   NC3 8783   4.125  29.369   9.667
  472POPC   PO4 8784   4.267  30.009   9.570
  472POPC   GL1 8785   4.313  30.094   9.136
  472POPC   GL2 8786   3.968  30.132   9.102
  472POPC   C1A 8787   4.565  30.038   8.747
  472POPC   D2A 8788   4.591  29.722   8.412
  472POPC   C3A 8789   4.665  29.915   8.010
  472POPC   C4A 8790   4.521  30.020   7.578
  472POPC   C1B 8791   4.071  29.916   8.727
  472POPC   C2B 8792   4.206  30.059   8.325
  472POPC   C3B 8793   4.148  29.919   7.906
  472POPC   C4B 8794   3.940  29.539   7.750
  473POPC   NC3 8795  15.661  23.824   9.685
  473POPC   PO4 8796  16.215  23.433   9.494
  473POPC   GL1 8797  16.071  23.624   9.121
  473POPC   GL2 8798  15.864  23.893   9.180
  473POPC   C1A 8799  15.961  23.699   8.688
  473POPC   D2A 8800  16.261  23.645   8.342
  473POPC   C3A 8801  16.097  23.705   7.946
  473POPC   C4A 8802  15.721  23.586   7.765
  473POPC   C1B 8803  15.808  24.194   8.834
  473POPC   C2B 8804  15.693  24.214   8.449
  473POPC   C3B 8805  15.688  23.987   8.103
  473POPC   C4B 8806  15.707  24.082   7.700
  474POPC   NC3 8807  29.341   9.084   9.606
  474POPC   PO4 8808  28.832   8.680   9.528
  474POPC   GL1 8809  29.053   8.817   9.191
  474POPC   GL2 8810  29.063   9.137   9.178
  474POPC   C1A 8811  29.213   8.848   8.766
  474POPC   D2A 8812  29.011   8.973   8.384
  474POPC   C3A 8813  29.239   8.796   8.072
  474POPC   C4A 8814  29.459   8.791   7.691
  474POPC   C1B 8815  28.941   9.294   8.775
  474POPC   C2B 8816  28.625   9.326   8.439
  474POPC   C3B 8817  28.726   9.197   8.015
  474POPC   C4B 8818  29.142   9.288   7.805
  475POPC   NC3 8819  34.050  39.174   9.503
  475POPC   PO4 8820  34.724  39.230   9.558
  475POPC   GL1 8821  34.740  39.087   9.154
  475POPC   GL2 8822  34.409  39.178   9.136
  475POPC   C1A 8823  34.700  39.165   8.708
  475POPC   D2A 8824  34.785  39.396   8.342
  475POPC   C3A 8825  34.845  39.189   8.002
  475POPC   C4A 8826  34.678  39.123   7.606
  475POPC   C1B 8827  34.299  39.497   8.836
  475POPC   C2B 8828  34.350  39.699   8.415
  475POPC   C3B 8829  34.405  39.516   7.980
  475POPC   C4B 8830  34.416  39.726   7.594
  476POPC   NC3 8831  17.704   7.643   9.521
  476POPC   PO4 8832  17.384   7.141   9.302
  476POPC   GL1 8833  17.375   7.549   9.088
  476POPC   GL2 8834  17.727   7.663   9.002
  476POPC   C1A 8835  17.369   7.648   8.651
  476POPC   D2A 8836  17.666   7.544   8.302
  476POPC   C3A 8837  17.532   7.614   7.862
  476POPC   C4A 8838  17.412   7.314   7.546
  476POPC   C1B 8839  17.722   7.249   8.740
  476POPC   C2B 8840  17.785   7.015   8.328
  476POPC   C3B 8841  17.870   7.216   7.912
  476POPC   C4B 8842  17.883   7.214   7.436
  477POPC   NC3 8843  31.809  21.838   9.490
  477POPC   PO4 8844  32.393  22.089   9.573
  477POPC   GL1 8845  32.341  22.031   9.150
  477POPC   GL2 8846  32.531  21.776   9.065
  477POPC   C1A 8847  32.478  22.121   8.700
  477POPC   D2A 8848  32.244  22.156   8.319
  477POPC   C3A 8849  32.505  22.136   7.934
  477POPC   C4A 8850  32.494  22.258   7.481
  477POPC   C1B 8851  32.091  21.793   8.786
  477POPC   C2B 8852  31.911  21.744   8.373
  477POPC   C3B 8853  32.094  21.825   7.965
  477POPC   C4B 8854  32.424  21.734   7.616
  478POPC   NC3 8855   5.152  32.047   9.537
  478POPC   PO4 8856   5.051  32.689   9.431
  478POPC   GL1 8857   5.033  32.363   9.126
  478POPC   GL2 8858   4.827  32.050   9.130
  478POPC   C1A 8859   5.104  32.447   8.715
  478POPC   D2A 8860   4.945  32.310   8.367
  478POPC   C3A 8861   5.076  32.530   7.996
  478POPC   C4A 8862   5.379  32.359   7.713
  478POPC   C1B 8863   4.788  31.888   8.689
  478POPC   C2B 8864   4.657  31.899   8.248
  478POPC   C3B 8865   4.701  31.904   7.793
  478POPC   C4B 8866   4.920  32.174   7.583
  479POPC   NC3 8867  26.498  25.762   9.331
  479POPC   PO4 8868  27.103  26.030   9.626
  479POPC   GL1 8869  26.999  25.778   9.242
  479POPC   GL2 8870  26.968  26.115   9.130
  479POPC   C1A 8871  26.852  25.728   8.779
  479POPC   D2A 8872  26.565  25.953   8.477
  479POPC   C3A 8873  26.569  25.810   8.047
  479POPC   C4A 8874  26.747  25.716   7.642
  479POPC   C1B 8875  26.963  26.231   8.716
  479POPC   C2B 8876  26.788  26.411   8.378
  479POPC   C3B 8877  26.905  26.209   8.055
  479POPC   C4B 8878  26.731  26.243   7.705
  480POPC   NC3 8879  33.231  35.542   9.539
  480POPC   PO4 8880  33.007  34.932   9.593
  480POPC   GL1 8881  33.159  35.073   9.207
  480POPC   GL2 8882  32.990  35.394   9.123
  480POPC   C1A 8883  33.108  35.084   8.748
  480POPC   D2A 8884  32.978  35.169   8.344
  480POPC   C3A 8885  33.147  35.501   8.099
  480POPC   C4A 8886  33.076  35.278   7.733
  480POPC   C1B 8887  32.768  35.475   8.743
  480POPC   C2B 8888  32.566  35.716   8.421
  480POPC   C3B 8889  32.622  35.558   7.978
  480POPC   C4B 8890  32.711  35.571   7.519
  481POPC   NC3 8891  10.663  39.770   9.443
  481POPC   PO4 8892  10.477  40.349   9.694
  481POPC   GL1 8893  10.496  40.243   9.191
  481POPC   GL2 8894  10.435  39.928   9.027
  481POPC   C1A 8895  10.659  40.431   8.797
  481POPC   D2A 8896  10.588  40.508   8.365
  481POPC   C3A 8897  10.466  40.141   8.140
  481POPC   C4A 8898  10.545  39.911   7.757
  481POPC   C1B 8899  10.645  39.682   8.718
  481POPC   C2B 8900  10.777  39.753   8.296
  481POPC   C3B 8901  10.994  39.680   7.942
  481POPC   C4B 8902  10.839  39.488   7.587
  482POPC   NC3 8903  36.747  34.258   9.560
  482POPC   PO4 8904  37.310  34.591   9.378
  482POPC   GL1 8905  36.946  34.486   9.139
  482POPC   GL2 8906  36.563  34.409   9.119
  482POPC   C1A 8907  36.888  34.250   8.762
  482POPC   D2A 8908  37.154  34.188   8.392
  482POPC   C3A 8909  36.877  34.205   8.018
  482POPC   C4A 8910  36.983  34.324   7.570
  482POPC   C1B 8911  36.661  34.701   8.786
  482POPC   C2B 8912  36.850  34.613   8.391
  482POPC   C3B 8913  36.835  34.710   7.961
  482POPC   C4B 8914  36.723  34.836   7.533
  483POPC   NC3 8915  44.007  41.401   9.515
  483POPC   PO4 8916  43.391  41.699   9.482
  483POPC   GL1 8917  43.542  41.602   9.083
  483POPC   GL2 8918  43.646  41.288   9.130
  483POPC   C1A 8919  43.642  41.800   8.674
  483POPC   D2A 8920  43.884  41.777   8.314
  483POPC   C3A 8921  43.707  41.636   7.977
  483POPC   C4A 8922  43.849  41.837   7.665
  483POPC   C1B 8923  43.922  41.393   8.809
  483POPC   C2B 8924  43.790  41.301   8.414
  483POPC   C3B 8925  44.024  41.258   8.075
  483POPC   C4B 8926  43.968  41.311   7.700
  484POPC   NC3 8927  43.392   7.725   9.290
  484POPC   PO4 8928  44.017   7.741   9.496
  484POPC   GL1 8929  43.850   7.532   9.152
  484POPC   GL2 8930  43.790   7.855   9.002
  484POPC   C1A 8931  43.656   7.282   8.811
  484POPC   D2A 8932  43.707   7.189   8.361
  484POPC   C3A 8933  43.671   7.503   8.019
  484POPC   C4A 8934  43.997   7.330   7.798
  484POPC   C1B 8935  43.943   7.769   8.593
  484POPC   C2B 8936  44.122   7.576   8.241
  484POPC   C3B 8937  44.357   7.669   7.899
  484POPC   C4B 8938  44.342   7.514   7.498
  485POPC   NC3 8939  36.137  38.148   9.721
  485POPC   PO4 8940  36.180  38.664   9.394
  485POPC   GL1 8941  36.048  38.418   9.089
  485POPC   GL2 8942  36.305  38.204   9.174
  485POPC   C1A 8943  35.876  38.477   8.681
  485POPC   D2A 8944  36.055  38.584   8.282
  485POPC   C3A 8945  35.827  38.575   7.884
  485POPC   C4A 8946  35.983  38.604   7.445
  485POPC   C1B 8947  36.413  38.162   8.780
  485POPC   C2B 8948  36.174  38.114   8.407
  485POPC   C3B 8949  36.253  38.245   7.951
  485POPC   C4B 8950  36.645  38.156   7.720
  486POPC   NC3 8951  39.187  14.918   9.416
  486POPC   PO4 8952  39.424  14.324   9.639
  486POPC   GL1 8953  39.157  14.412   9.230
  486POPC   GL2 8954  38.831  14.639   9.194
  486POPC   C1A 8955  39.161  14.192   8.821
  486POPC   D2A 8956  39.408  14.132   8.438
  486POPC   C3A 8957  39.174  14.044   8.061
  486POPC   C4A 8958  39.520  14.163   7.776
  486POPC   C1B 8959  38.792  14.655   8.738
  486POPC   C2B 8960  39.035  14.472   8.404
  486POPC   C3B 8961  39.254  14.532   8.050
  486POPC   C4B 8962  39.187  14.523   7.629
  487POPC   NC3 8963  25.146  16.424   9.212
  487POPC   PO4 8964  25.702  16.437   9.467
  487POPC   GL1 8965  25.516  16.855   9.243
  487POPC   GL2 8966  25.173  16.884   9.004
  487POPC   C1A 8967  25.588  17.093   8.852
  487POPC   D2A 8968  25.367  16.869   8.526
  487POPC   C3A 8969  25.380  16.985   8.115
  487POPC   C4A 8970  25.441  16.844   7.754
  487POPC   C1B 8971  24.906  16.632   8.671
  487POPC   C2B 8972  24.801  16.398   8.324
  487POPC   C3B 8973  25.077  16.568   8.066
  487POPC   C4B 8974  25.077  16.532   7.645
  488POPC   NC3 8975  23.022  43.386   9.641
  488POPC   PO4 8976  23.033  42.726   9.492
  488POPC   GL1 8977  22.938  43.069   9.208
  488POPC   GL2 8978  22.607  43.277   9.153
  488POPC   C1A 8979  23.089  43.176   8.787
  488POPC   D2A 8980  23.060  43.007   8.366
  488POPC   C3A 8981  23.218  43.237   7.998
  488POPC   C4A 8982  23.144  43.188   7.541
  488POPC   C1B 8983  22.668  43.521   8.745
  488POPC   C2B 8984  22.789  43.460   8.295
  488POPC   C3B 8985  22.720  43.137   7.966
  488POPC   C4B 8986  22.727  42.714   7.799
  489POPC   NC3 8987   1.604  41.846   9.457
  489POPC   PO4 8988   0.951  41.792   9.561
  489POPC   GL1 8989   1.171  41.904   9.198
  489POPC   GL2 8990   1.285  41.573   9.153
  489POPC   C1A 8991   1.247  41.890   8.752
  489POPC   D2A 8992   1.261  41.547   8.460
  489POPC   C3A 8993   1.311  41.689   8.053
  489POPC   C4A 8994   1.541  41.964   7.778
  489POPC   C1B 8995   1.295  41.225   8.888
  489POPC   C2B 8996   1.038  41.094   8.548
  489POPC   C3B 8997   1.132  41.178   8.090
  489POPC   C4B 8998   1.447  41.324   7.753
  490POPC   NC3 8999  18.927  43.223   9.475
  490POPC   PO4 9000  19.514  42.971   9.723
  490POPC   GL1 9001  19.292  43.202   9.156
  490POPC   GL2 9002  19.033  42.968   9.049
  490POPC   C1A 9003  19.043  43.220   8.648
  490POPC   D2A 9004  19.005  43.446   8.286
  490POPC   C3A 9005  19.133  43.297   7.908
  490POPC   C4A 9006  19.220  43.244   7.462
  490POPC   C1B 9007  19.454  42.976   8.707
  490POPC   C2B 9008  19.381  43.012   8.290
  490POPC   C3B 9009  19.463  42.907   7.885
  490POPC   C4B 9010  19.081  42.827   7.666
  491POPC   NC3 9011  34.237  34.767   9.381
  491POPC   PO4 9012  34.761  34.297   9.397
  491POPC   GL1 9013  34.606  34.502   9.072
  491POPC   GL2 9014  34.285  34.407   9.030
  491POPC   C1A 9015  34.702  34.399   8.659
  491POPC   D2A 9016  34.904  34.628   8.345
  491POPC   C3A 9017  34.826  34.482   7.965
  491POPC   C4A 9018  34.689  34.796   7.747
  491POPC   C1B 9019  34.327  34.732   8.686
  491POPC   C2B 9020  34.418  34.724   8.238
  491POPC   C3B 9021  34.226  34.933   7.886
  491POPC   C4B 9022  34.326  34.888   7.402
  492POPC   NC3 9023   3.539  42.855   9.574
  492POPC   PO4 9024   3.329  43.482   9.286
  492POPC   GL1 9025   3.429  43.246   8.961
  492POPC   GL2 9026   3.541  42.970   9.096
  492POPC   C1A 9027   3.327  43.130   8.552
  492POPC   D2A 9028   3.442  43.409   8.230
  492POPC   C3A 9029   3.334  43.502   7.794
  492POPC   C4A 9030   3.412  43.256   7.428
  492POPC   C1B 9031   3.738  42.855   8.747
  492POPC   C2B 9032   3.808  43.002   8.350
  492POPC   C3B 9033   3.570  42.969   7.980
  492POPC   C4B 9034   3.710  42.888   7.580
  493POPC   NC3 9035  31.229   7.892   9.458
  493POPC   PO4 9036  31.648   8.336   9.353
  493POPC   GL1 9037  31.493   8.142   9.033
  493POPC   GL2 9038  31.427   7.815   8.979
  493POPC   C1A 9039  31.479   8.195   8.614
  493POPC   D2A 9040  31.292   8.257   8.246
  493POPC   C3A 9041  31.477   8.366   7.867
  493POPC   C4A 9042  31.252   8.438   7.471
  493POPC   C1B 9043  31.082   7.872   8.671
  493POPC   C2B 9044  30.933   7.882   8.241
  493POPC   C3B 9045  31.054   8.051   7.831
  493POPC   C4B 9046  31.405   7.978   7.546
  494POPC   NC3 9047  10.574  16.316   9.546
  494POPC   PO4 9048  10.319  15.604   9.627
  494POPC   GL1 9049  10.342  15.718   9.171
  494POPC   GL2 9050  10.318  16.050   9.194
  494POPC   C1A 9051  10.613  15.862   8.780
  494POPC   D2A 9052  10.818  15.893   8.372
  494POPC   C3A 9053  10.642  16.084   7.994
  494POPC   C4A 9054  10.308  15.960   7.741
  494POPC   C1B 9055  10.324  16.280   8.877
  494POPC   C2B 9056  10.400  16.230   8.468
  494POPC   C3B 9057  10.350  16.498   8.170
  494POPC   C4B 9058  10.255  16.482   7.747
  495POPC   NC3 9059  18.789  11.262   9.255
  495POPC   PO4 9060  19.314  11.657   9.433
  495POPC   GL1 9061  19.242  11.489   9.063
  495POPC   GL2 9062  18.949  11.669   9.013
  495POPC   C1A 9063  19.079  11.283   8.694
  495POPC   D2A 9064  18.931  11.363   8.325
  495POPC   C3A 9065  19.122  11.186   8.016
  495POPC   C4A 9066  18.844  10.967   7.826
  495POPC   C1B 9067  18.694  11.648   8.688
  495POPC   C2B 9068  18.654  11.775   8.277
  495POPC   C3B 9069  18.843  11.723   7.871
  495POPC   C4B 9070  18.706  11.647   7.456
  496POPC   NC3 9071   7.137  22.946   9.424
  496POPC   PO4 9072   7.669  22.762   9.656
  496POPC   GL1 9073   7.482  22.591   9.205
  496POPC   GL2 9074   7.153  22.648   9.009
  496POPC   C1A 9075   7.597  22.479   8.743
  496POPC   D2A 9076   7.712  22.468   8.267
  496POPC   C3A 9077   7.561  22.771   7.924
  496POPC   C4A 9078   7.625  22.728   7.449
  496POPC   C1B 9079   7.160  22.773   8.590
  496POPC   C2B 9080   7.217  23.024   8.215
  496POPC   C3B 9081   7.224  23.155   7.764
  496POPC   C4B 9082   7.247  23.063   7.316
  497POPC   NC3 9083   2.170  19.218   9.477
  497POPC   PO4 9084   2.249  18.592   9.495
  497POPC   GL1 9085   2.152  18.856   9.118
  497POPC   GL2 9086   1.836  19.052   9.117
  497POPC   C1A 9087   2.136  19.074   8.716
  497POPC   D2A 9088   2.028  18.875   8.322
  497POPC   C3A 9089   2.185  19.133   8.040
  497POPC   C4A 9090   2.475  19.079   7.753
  497POPC   C1B 9091   1.717  18.772   8.764
  497POPC   C2B 9092   1.644  18.537   8.373
  497POPC   C3B 9093   1.584  18.695   7.959
  497POPC   C4B 9094   1.904  18.865   7.733
  498POPC   NC3 9095   3.288   6.987   9.489
  498POPC   PO4 9096   3.549   7.610   9.567
  498POPC   GL1 9097   3.471   7.401   9.188
  498POPC   GL2 9098   3.664   7.146   9.153
  498POPC   C1A 9099   3.331   7.363   8.710
  498POPC   D2A 9100   3.263   7.176   8.283
  498POPC   C3A 9101   3.319   7.484   7.926
  498POPC   C4A 9102   3.396   7.505   7.470
  498POPC   C1B 9103   3.817   7.421   8.823
  498POPC   C2B 9104   3.736   7.663   8.455
  498POPC   C3B 9105   3.758   7.359   8.124
  498POPC   C4B 9106   3.839   7.159   7.755
  499POPC   NC3 9107  23.625  37.115   9.513
  499POPC   PO4 9108  23.576  36.485   9.410
  499POPC   GL1 9109  23.768  36.719   9.076
  499POPC   GL2 9110  23.929  37.065   9.078
  499POPC   C1A 9111  23.724  36.792   8.635
  499POPC   D2A 9112  23.520  36.939   8.288
  499POPC   C3A 9113  23.670  36.749   7.955
  499POPC   C4A 9114  23.906  36.967   7.656
  499POPC   C1B 9115  23.525  37.184   8.872
  499POPC   C2B 9116  23.409  37.384   8.516
  499POPC   C3B 9117  23.495  37.474   8.128
  499POPC   C4B 9118  23.467  37.245   7.762
  500POPC   NC3 9119  39.102  35.542   9.669
  500POPC   PO4 9120  39.415  35.010   9.398
  500POPC   GL1 9121  39.295  35.357   9.138
  500POPC   GL2 9122  38.964  35.502   9.177
  500POPC   C1A 9123  39.198  35.321   8.710
  500POPC   D2A 9124  39.043  35.169   8.330
  500POPC   C3A 9125  39.227  35.167   7.932
  500POPC   C4A 9126  39.110  34.999   7.543
  500POPC   C1B 9127  38.971  35.761   8.833
  500POPC   C2B 9128  38.960  35.695   8.436
  500POPC   C3B 9129  38.892  35.584   8.044
  500POPC   C4B 9130  39.189  35.637   7.760
  501POPC   NC3 9131  18.540  25.144   9.553
  501POPC   PO4 9132  17.948  25.538   9.417
  501POPC   GL1 9133  18.252  25.378   9.087
  501POPC   GL2 9134  18.401  25.633   8.904
  501POPC   C1A 9135  18.342  25.170   8.665
  501POPC   D2A 9136  18.480  25.315   8.220
  501POPC   C3A 9137  18.451  25.017   7.835
  501POPC   C4A 9138  18.434  24.779   7.404
  501POPC   C1B 9139  17.985  25.544   8.705
  501POPC   C2B 9140  17.849  25.255   8.411
  501POPC   C3B 9141  18.008  25.234   8.010
  501POPC   C4B 9142  18.274  25.521   7.770
  502POPC   NC3 9143  29.553  34.901   9.223
  502POPC   PO4 9144  29.863  34.296   9.455
  502POPC   GL1 9145  29.986  34.556   9.206
  502POPC   GL2 9146  30.112  34.287   8.966
  502POPC   C1A 9147  30.075  34.770   8.864
  502POPC   D2A 9148  29.982  34.588   8.455
  502POPC   C3A 9149  30.274  34.746   8.163
  502POPC   C4A 9150  30.088  34.736   7.771
  502POPC   C1B 9151  29.744  34.194   8.700
  502POPC   C2B 9152  29.596  34.158   8.257
  502POPC   C3B 9153  29.704  34.300   7.827
  502POPC   C4B 9154  29.821  34.270   7.398
  503POPC   NC3 9155  41.251  37.393   9.525
  503POPC   PO4 9156  41.804  37.728   9.597
  503POPC   GL1 9157  41.717  37.528   9.180
  503POPC   GL2 9158  41.394  37.683   9.128
  503POPC   C1A 9159  41.673  37.627   8.708
  503POPC   D2A 9160  41.613  38.051   8.531
  503POPC   C3A 9161  41.653  38.041   8.066
  503POPC   C4A 9162  41.789  37.655   7.803
  503POPC   C1B 9163  41.115  37.744   8.769
  503POPC   C2B 9164  41.058  37.559   8.385
  503POPC   C3B 9165  41.334  37.567   8.046
  503POPC   C4B 9166  41.319  37.856   7.717
  504POPC   NC3 9167  12.627  44.900   9.850
  504POPC   PO4 9168  12.185  44.527   9.520
  504POPC   GL1 9169  12.191  44.570   9.070
  504POPC   GL2 9170  12.074  44.895   9.037
  504POPC   C1A 9171  12.161  44.608   8.627
  504POPC   D2A 9172  12.208  44.869   8.277
  504POPC   C3A 9173  12.064  44.605   7.995
  504POPC   C4A 9174  11.825  44.668   7.661
  504POPC   C1B 9175  12.336   0.068   8.767
  504POPC   C2B 9176  12.626  44.882   8.559
  504POPC   C3B 9177  12.700  44.818   8.160
  504POPC   C4B 9178  12.465  44.847   7.790
  505POPC   NC3 9179  37.162  20.196   9.384
  505POPC   PO4 9180  36.672  19.700   9.355
  505POPC   GL1 9181  36.760  19.959   9.064
  505POPC   GL2 9182  37.089  19.840   9.016
  505POPC   C1A 9183  36.677  19.989   8.630
  505POPC   D2A 9184  36.905  19.861   8.257
  505POPC   C3A 9185  36.651  19.908   7.901
  505POPC   C4A 9186  36.790  19.728   7.508
  505POPC   C1B 9187  37.163  20.126   8.663
  505POPC   C2B 9188  37.224  20.263   8.224
  505POPC   C3B 9189  37.126  20.062   7.801
  505POPC   C4B 9190  37.172  20.021   7.310
  506POPC   NC3 9191  23.780  34.401   9.557
  506POPC   PO4 9192  23.722  35.005   9.404
  506POPC   GL1 9193  23.681  34.698   9.122
  506POPC   GL2 9194  23.996  34.588   9.141
  506POPC   C1A 9195  23.663  34.517   8.707
  506POPC   D2A 9196  23.379  34.512   8.355
  506POPC   C3A 9197  23.420  34.301   7.970
  506POPC   C4A 9198  23.699  34.036   7.883
  506POPC   C1B 9199  24.015  34.893   8.785
  506POPC   C2B 9200  24.038  34.738   8.349
  506POPC   C3B 9201  23.853  34.594   7.957
  506POPC   C4B 9202  23.647  34.871   7.689
  507POPC   NC3 9203  28.053  10.686   9.492
  507POPC   PO4 9204  28.566  10.275   9.576
  507POPC   GL1 9205  28.435  10.475   9.188
  507POPC   GL2 9206  28.117  10.339   9.147
  507POPC   C1A 9207  28.408  10.753   8.800
  507POPC   D2A 9208  28.605  10.835   8.357
  507POPC   C3A 9209  28.377  10.826   7.942
  507POPC   C4A 9210  28.450  10.499   7.584
  507POPC   C1B 9211  27.959  10.501   8.791
  507POPC   C2B 9212  28.098  10.618   8.416
  507POPC   C3B 9213  28.023  10.489   8.046
  507POPC   C4B 9214  27.985  10.311   7.661
  508POPC   NC3 9215   1.763   6.361   9.453
  508POPC   PO4 9216   2.119   6.909   9.394
  508POPC   GL1 9217   1.927   6.697   9.110
  508POPC   GL2 9218   2.178   6.435   9.136
  508POPC   C1A 9219   1.830   6.795   8.710
  508POPC   D2A 9220   2.037   6.747   8.335
  508POPC   C3A 9221   1.829   6.717   7.930
  508POPC   C4A 9222   2.085   6.713   7.572
  508POPC   C1B 9223   2.085   6.343   8.715
  508POPC   C2B 9224   2.217   6.264   8.286
  508POPC   C3B 9225   2.102   6.280   7.862
  508POPC   C4B 9226   1.974   6.123   7.478
  509POPC   NC3 9227  16.299  29.392   9.914
  509POPC   PO4 9228  16.224  29.085   9.350
  509POPC   GL1 9229  16.028  29.205   9.037
  509POPC   GL2 9230  15.734  29.442   9.113
  509POPC   C1A 9231  16.025  28.940   8.706
  509POPC   D2A 9232  15.773  28.840   8.367
  509POPC   C3A 9233  16.012  28.744   8.036
  509POPC   C4A 9234  15.830  28.906   7.676
  509POPC   C1B 9235  15.858  29.537   8.694
  509POPC   C2B 9236  16.129  29.357   8.402
  509POPC   C3B 9237  15.987  29.255   8.023
  509POPC   C4B 9238  15.893  29.433   7.626
  510POPC   NC3 9239  22.880   8.957   9.584
  510POPC   PO4 9240  22.438   9.469   9.361
  510POPC   GL1 9241  22.820   9.232   9.146
  510POPC   GL2 9242  22.940   8.876   9.096
  510POPC   C1A 9243  22.900   9.227   8.710
  510POPC   D2A 9244  23.163   9.281   8.377
  510POPC   C3A 9245  22.953   9.213   7.994
  510POPC   C4A 9246  22.757   9.093   7.606
  510POPC   C1B 9247  22.755   8.709   8.735
  510POPC   C2B 9248  22.817   8.862   8.354
  510POPC   C3B 9249  22.873   8.718   7.973
  510POPC   C4B 9250  22.862   8.563   7.589
  511POPC   NC3 9251  23.290  43.925   9.347
  511POPC   PO4 9252  22.657  43.647   9.526
  511POPC   GL1 9253  22.791  43.788   9.171
  511POPC   GL2 9254  23.038  43.558   9.121
  511POPC   C1A 9255  22.798  44.081   8.845
  511POPC   D2A 9256  22.888  44.031   8.416
  511POPC   C3A 9257  22.753  44.241   8.011
  511POPC   C4A 9258  22.628  43.988   7.662
  511POPC   C1B 9259  23.154  43.692   8.730
  511POPC   C2B 9260  23.265  43.632   8.334
  511POPC   C3B 9261  23.071  43.810   8.008
  511POPC   C4B 9262  22.894  43.569   7.741
  512POPC   NC3 9263  10.780   0.321   9.499
  512POPC   PO4 9264  10.124   0.370   9.659
  512POPC   GL1 9265  10.404   0.584   9.268
  512POPC   GL2 9266  10.573   0.364   9.029
  512POPC   C1A 9267  10.447   0.768   8.794
  512POPC   D2A 9268  10.520   0.525   8.407
  512POPC   C3A 9269  10.567   0.703   8.008
  512POPC   C4A 9270  10.922   0.720   7.770
  512POPC   C1B 9271  10.670   0.013   8.751
  512POPC   C2B 9272  10.629  44.994   8.327
  512POPC   C3B 9273  10.554   0.150   7.947
  512POPC   C4B 9274  10.193  44.971   7.814
  513POPC   NC3 9275   5.962  27.974   9.607
  513POPC   PO4 9276   6.105  28.620   9.541
  513POPC   GL1 9277   5.850  28.516   9.191
  513POPC   GL2 9278   5.981  28.811   9.054
  513POPC   C1A 9279   5.572  28.314   8.885
  513POPC   D2A 9280   5.717  28.124   8.511
  513POPC   C3A 9281   5.619  28.360   8.109
  513POPC   C4A 9282   5.848  28.229   7.725
  513POPC   C1B 9283   6.074  28.495   8.728
  513POPC   C2B 9284   6.075  28.437   8.303
  513POPC   C3B 9285   6.112  28.639   7.927
  513POPC   C4B 9286   5.953  28.704   7.533
  514POPC   NC3 9287   3.137  28.462   9.479
  514POPC   PO4 9288   2.508  28.116   9.506
  514POPC   GL1 9289   2.757  28.124   9.113
  514POPC   GL2 9290   2.791  28.473   9.097
  514POPC   C1A 9291   2.655  28.215   8.650
  514POPC   D2A 9292   2.429  28.521   8.369
  514POPC   C3A 9293   2.564  28.467   7.944
  514POPC   C4A 9294   2.740  28.197   7.634
  514POPC   C1B 9295   2.961  28.605   8.744
  514POPC   C2B 9296   2.948  28.670   8.298
  514POPC   C3B 9297   3.107  28.442   7.941
  514POPC   C4B 9298   3.083  28.561   7.509
  515POPC   NC3 9299  33.202  12.821   9.515
  515POPC   PO4 9300  32.625  12.881   9.622
  515POPC   GL1 9301  32.875  12.660   9.185
  515POPC   GL2 9302  33.142  12.895   9.040
  515POPC   C1A 9303  32.945  12.509   8.773
  515POPC   D2A 9304  32.980  12.795   8.438
  515POPC   C3A 9305  33.147  12.721   8.056
  515POPC   C4A 9306  32.808  12.620   7.759
  515POPC   C1B 9307  33.195  13.167   8.718
  515POPC   C2B 9308  33.358  13.144   8.345
  515POPC   C3B 9309  33.173  13.233   7.978
  515POPC   C4B 9310  33.130  12.992   7.622
  516POPC   NC3 9311  35.995  34.392   9.383
  516POPC   PO4 9312  36.584  34.770   9.519
  516POPC   GL1 9313  36.269  34.823   9.159
  516POPC   GL2 9314  35.915  34.915   9.235
  516POPC   C1A 9315  36.186  34.560   8.775
  516POPC   D2A 9316  36.398  34.360   8.429
  516POPC   C3A 9317  36.271  34.503   8.026
  516POPC   C4A 9318  36.491  34.387   7.681
  516POPC   C1B 9319  35.830  34.990   8.809
  516POPC   C2B 9320  35.914  34.823   8.425
  516POPC   C3B 9321  35.739  34.878   8.064
  516POPC   C4B 9322  35.862  34.806   7.685
  517POPC   NC3 9323  43.498  40.316   9.444
  517POPC   PO4 9324  43.833  40.960   9.498
  517POPC   GL1 9325  43.914  40.854   9.098
  517POPC   GL2 9326  43.772  40.551   9.062
  517POPC   C1A 9327  43.704  40.921   8.733
  517POPC   D2A 9328  43.601  40.749   8.360
  517POPC   C3A 9329  43.624  40.984   8.023
  517POPC   C4A 9330  43.862  40.835   7.698
  517POPC   C1B 9331  44.183  40.527   8.792
  517POPC   C2B 9332  44.254  40.430   8.357
  517POPC   C3B 9333  43.932  40.489   8.065
  517POPC   C4B 9334  43.873  40.332   7.649
  518POPC   NC3 9335  43.459   8.737   9.475
  518POPC   PO4 9336  42.740   8.957   9.566
  518POPC   GL1 9337  42.991   8.821   9.243
  518POPC   GL2 9338  43.187   9.132   9.148
  518POPC   C1A 9339  43.197   8.711   8.860
  518POPC   D2A 9340  43.328   9.035   8.581
  518POPC   C3A 9341  43.254   8.979   8.135
  518POPC   C4A 9342  43.134   8.726   7.764
  518POPC   C1B 9343  42.847   9.082   8.824
  518POPC   C2B 9344  42.783   9.063   8.378
  518POPC   C3B 9345  42.814   9.117   7.932
  518POPC   C4B 9346  43.113   9.273   7.691
  519POPC   NC3 9347  37.016  25.561   9.601
  519POPC   PO4 9348  36.796  24.906   9.686
  519POPC   GL1 9349  36.657  25.158   9.279
  519POPC   GL2 9350  36.509  25.506   9.336
  519POPC   C1A 9351  36.886  25.405   8.922
  519POPC   D2A 9352  37.076  25.628   8.537
  519POPC   C3A 9353  37.171  25.375   8.159
  519POPC   C4A 9354  37.121  25.444   7.720
  519POPC   C1B 9355  36.389  25.470   8.882
  519POPC   C2B 9356  36.601  25.389   8.465
  519POPC   C3B 9357  36.679  25.217   8.049
  519POPC   C4B 9358  36.601  25.353   7.664
  520POPC   NC3 9359   3.809  34.092   9.345
  520POPC   PO4 9360   3.239  33.897   9.694
  520POPC   GL1 9361   3.321  33.930   9.246
  520POPC   GL2 9362   3.598  33.708   9.106
  520POPC   C1A 9363   3.292  33.980   8.799
  520POPC   D2A 9364   3.456  34.158   8.404
  520POPC   C3A 9365   3.296  34.014   8.009
  520POPC   C4A 9366   3.431  33.921   7.582
  520POPC   C1B 9367   3.785  33.882   8.717
  520POPC   C2B 9368   3.806  33.809   8.295
  520POPC   C3B 9369   3.858  33.961   7.874
  520POPC   C4B 9370   4.011  33.930   7.434
  521POPC   NC3 9371  41.203  20.187   9.712
  521POPC   PO4 9372  41.450  20.798   9.547
  521POPC   GL1 9373  41.469  20.670   9.138
  521POPC   GL2 9374  41.824  20.609   9.062
  521POPC   C1A 9375  41.487  20.820   8.725
  521POPC   D2A 9376  41.663  20.680   8.368
  521POPC   C3A 9377  41.388  20.758   7.999
  521POPC   C4A 9378  41.271  20.627   7.572
  521POPC   C1B 9379  42.036  20.361   8.730
  521POPC   C2B 9380  42.066  20.287   8.277
  521POPC   C3B 9381  41.791  20.436   7.948
  521POPC   C4B 9382  41.735  20.429   7.518
  522POPC   NC3 9383   3.037   5.066   9.807
  522POPC   PO4 9384   3.590   5.039   9.493
  522POPC   GL1 9385   3.679   5.095   9.086
  522POPC   GL2 9386   3.397   5.124   8.840
  522POPC   C1A 9387   3.747   4.766   8.779
  522POPC   D2A 9388   3.567   4.897   8.409
  522POPC   C3A 9389   3.781   4.993   8.036
  522POPC   C4A 9390   3.769   4.836   7.630
  522POPC   C1B 9391   3.316   5.470   8.561
  522POPC   C2B 9392   3.306   5.440   8.138
  522POPC   C3B 9393   3.577   5.394   7.789
  522POPC   C4B 9394   3.919   5.322   7.477
  523POPC   NC3 9395  42.332  28.617   9.447
  523POPC   PO4 9396  42.122  27.997   9.447
  523POPC   GL1 9397  42.390  28.258   9.115
  523POPC   GL2 9398  42.566  28.093   8.965
  523POPC   C1A 9399  42.402  28.482   8.678
  523POPC   D2A 9400  42.189  28.645   8.312
  523POPC   C3A 9401  42.346  28.556   7.904
  523POPC   C4A 9402  42.347  28.656   7.466
  523POPC   C1B 9403  42.243  27.987   8.698
  523POPC   C2B 9404  42.200  28.116   8.268
  523POPC   C3B 9405  42.240  27.975   7.856
  523POPC   C4B 9406  42.272  28.162   7.480
  524POPC   NC3 9407  19.467  34.685   9.905
  524POPC   PO4 9408  18.816  34.741   9.616
  524POPC   GL1 9409  18.942  34.484   9.097
  524POPC   GL2 9410  19.254  34.603   9.059
  524POPC   C1A 9411  18.885  34.470   8.638
  524POPC   D2A 9412  18.796  34.373   8.224
  524POPC   C3A 9413  18.921  34.693   7.962
  524POPC   C4A 9414  19.301  34.831   7.878
  524POPC   C1B 9415  19.366  34.334   8.721
  524POPC   C2B 9416  19.330  34.500   8.310
  524POPC   C3B 9417  19.291  34.330   7.921
  524POPC   C4B 9418  19.572  34.395   7.588
  525POPC   NC3 9419  43.663   2.279   9.616
  525POPC   PO4 9420  44.080   1.719   9.485
  525POPC   GL1 9421  43.821   2.017   9.224
  525POPC   GL2 9422  44.095   1.999   9.051
  525POPC   C1A 9423  43.725   2.251   8.835
  525POPC   D2A 9424  43.943   2.122   8.466
  525POPC   C3A 9425  43.750   2.196   8.100
  525POPC   C4A 9426  43.519   1.933   7.847
  525POPC   C1B 9427  44.128   1.711   8.719
  525POPC   C2B 9428  44.154   1.645   8.286
  525POPC   C3B 9429  43.985   1.657   7.881
  525POPC   C4B 9430  44.134   1.519   7.453
  526POPC   NC3 9431  18.657   1.487   9.298
  526POPC   PO4 9432  18.121   1.118   9.510
  526POPC   GL1 9433  18.304   1.158   9.126
  526POPC   GL2 9434  18.642   0.987   9.148
  526POPC   C1A 9435  18.129   1.249   8.737
  526POPC   D2A 9436  18.265   1.397   8.344
  526POPC   C3A 9437  18.059   1.280   7.996
  526POPC   C4A 9438  18.170   1.172   7.577
  526POPC   C1B 9439  18.655   1.231   8.723
  526POPC   C2B 9440  18.746   1.261   8.299
  526POPC   C3B 9441  18.607   1.338   7.881
  526POPC   C4B 9442  18.645   1.037   7.533
  527POPC   NC3 9443  43.203  10.249   9.516
  527POPC   PO4 9444  42.993  10.819   9.622
  527POPC   GL1 9445  43.081  10.676   9.214
  527POPC   GL2 9446  43.311  10.423   9.057
  527POPC   C1A 9447  42.780  10.614   8.897
  527POPC   D2A 9448  42.679  10.409   8.484
  527POPC   C3A 9449  42.573  10.604   8.084
  527POPC   C4A 9450  42.708  10.807   7.706
  527POPC   C1B 9451  43.171  10.417   8.625
  527POPC   C2B 9452  43.275  10.469   8.214
  527POPC   C3B 9453  43.083  10.479   7.838
  527POPC   C4B 9454  43.105  10.203   7.492
  528POPC   NC3 9455   2.004  12.296   9.541
  528POPC   PO4 9456   2.133  11.615   9.398
  528POPC   GL1 9457   2.162  11.979   9.149
  528POPC   GL2 9458   1.820  12.039   9.131
  528POPC   C1A 9459   2.238  11.961   8.718
  528POPC   D2A 9460   2.017  11.728   8.358
  528POPC   C3A 9461   1.977  11.885   7.919
  528POPC   C4A 9462   2.180  12.180   7.636
  528POPC   C1B 9463   1.657  11.946   8.695
  528POPC   C2B 9464   1.541  12.064   8.254
  528POPC   C3B 9465   1.529  12.280   7.837
  528POPC   C4B 9466   1.726  12.155   7.423
  529POPC   NC3 9467  37.436  32.110   9.710
  529POPC   PO4 9468  37.878  32.576   9.496
  529POPC   GL1 9469  37.668  32.474   9.111
  529POPC   GL2 9470  37.509  32.155   9.205
  529POPC   C1A 9471  37.833  32.544   8.685
  529POPC   D2A 9472  38.103  32.438   8.331
  529POPC   C3A 9473  37.892  32.166   8.052
  529POPC   C4A 9474  37.713  32.270   7.680
  529POPC   C1B 9475  37.381  32.138   8.780
  529POPC   C2B 9476  37.530  32.075   8.394
  529POPC   C3B 9477  37.387  31.953   8.005
  529POPC   C4B 9478  37.501  31.824   7.630
  530POPC   NC3 9479  16.839  41.794   9.615
  530POPC   PO4 9480  16.773  42.435   9.477
  530POPC   GL1 9481  16.622  42.204   9.132
  530POPC   GL2 9482  16.899  41.997   9.037
  530POPC   C1A 9483  16.623  42.195   8.663
  530POPC   D2A 9484  16.438  42.213   8.255
  530POPC   C3A 9485  16.560  42.554   7.990
  530POPC   C4A 9486  16.944  42.676   7.845
  530POPC   C1B 9487  17.132  42.037   8.624
  530POPC   C2B 9488  17.177  41.991   8.178
  530POPC   C3B 9489  16.887  42.147   7.889
  530POPC   C4B 9490  16.500  41.960   7.808
  531POPC   NC3 9491  15.721  12.546   9.489
  531POPC   PO4 9492  16.217  13.198   9.477
  531POPC   GL1 9493  15.930  12.984   9.207
  531POPC   GL2 9494  16.036  12.669   9.110
  531POPC   C1A 9495  15.686  12.942   8.817
  531POPC   D2A 9496  15.514  13.209   8.477
  531POPC   C3A 9497  15.779  13.154   8.122
  531POPC   C4A 9498  15.778  13.037   7.706
  531POPC   C1B 9499  16.239  12.865   8.770
  531POPC   C2B 9500  16.144  12.817   8.339
  531POPC   C3B 9501  16.241  12.899   7.923
  531POPC   C4B 9502  16.065  12.642   7.611
  532POPC   NC3 9503   0.240  29.751   9.412
  532POPC   PO4 9504   0.469  30.357   9.642
  532POPC   GL1 9505   0.520  30.212   9.192
  532POPC   GL2 9506   0.275  30.096   9.030
  532POPC   C1A 9507   0.739  30.084   8.752
  532POPC   D2A 9508   0.975  30.100   8.338
  532POPC   C3A 9509   0.650  30.161   8.004
  532POPC   C4A 9510   0.428  29.874   7.768
  532POPC   C1B 9511  44.998  30.391   8.870
  532POPC   C2B 9512  44.885  30.366   8.443
  532POPC   C3B 9513   0.093  30.154   8.124
  532POPC   C4B 9514   0.078  30.262   7.721
  533POPC   NC3 9515  32.764  38.091   9.388
  533POPC   PO4 9516  32.945  38.767   9.522
  533POPC   GL1 9517  32.931  38.552   9.149
  533POPC   GL2 9518  32.601  38.473   9.070
  533POPC   C1A 9519  33.030  38.622   8.713
  533POPC   D2A 9520  32.870  38.794   8.329
  533POPC   C3A 9521  33.030  38.657   7.937
  533POPC   C4A 9522  33.211  38.661   7.510
  533POPC   C1B 9523  32.798  38.167   8.730
  533POPC   C2B 9524  32.953  38.208   8.274
  533POPC   C3B 9525  33.012  38.169   7.792
  533POPC   C4B 9526  32.805  38.289   7.398
  534POPC   NC3 9527  14.533  41.742   9.499
  534POPC   PO4 9528  14.201  41.172   9.584
  534POPC   GL1 9529  14.228  41.449   9.181
  534POPC   GL2 9530  14.450  41.246   8.974
  534POPC   C1A 9531  14.449  41.744   8.836
  534POPC   D2A 9532  14.683  41.758   8.419
  534POPC   C3A 9533  14.493  41.864   8.019
  534POPC   C4A 9534  14.338  41.582   7.719
  534POPC   C1B 9535  14.057  41.280   8.714
  534POPC   C2B 9536  13.774  41.401   8.370
  534POPC   C3B 9537  14.071  41.297   8.039
  534POPC   C4B 9538  14.061  41.157   7.604
  535POPC   NC3 9539  41.323  11.563   9.293
  535POPC   PO4 9540  41.927  11.501   9.451
  535POPC   GL1 9541  41.720  11.357   9.049
  535POPC   GL2 9542  41.621  11.027   8.963
  535POPC   C1A 9543  41.562  11.451   8.651
  535POPC   D2A 9544  41.468  11.326   8.247
  535POPC   C3A 9545  41.746  11.207   7.928
  535POPC   C4A 9546  41.530  11.309   7.552
  535POPC   C1B 9547  41.267  10.978   8.698
  535POPC   C2B 9548  41.052  11.032   8.302
  535POPC   C3B 9549  41.200  11.015   7.889
  535POPC   C4B 9550  41.047  11.170   7.503
  536POPC   NC3 9551  20.512  32.403   9.330
  536POPC   PO4 9552  20.400  31.773   9.572
  536POPC   GL1 9553  20.581  31.925   9.191
  536POPC   GL2 9554  20.903  31.951   9.056
  536POPC   C1A 9555  20.431  31.966   8.780
  536POPC   D2A 9556  20.577  32.065   8.360
  536POPC   C3A 9557  20.326  32.159   8.003
  536POPC   C4A 9558  20.386  31.938   7.640
  536POPC   C1B 9559  20.804  32.319   8.737
  536POPC   C2B 9560  21.016  32.379   8.332
  536POPC   C3B 9561  20.866  32.332   7.901
  536POPC   C4B 9562  20.899  32.621   7.528
  537POPC   NC3 9563  29.752  27.779   9.432
  537POPC   PO4 9564  30.360  27.785   9.696
  537POPC   GL1 9565  30.171  27.470   9.262
  537POPC   GL2 9566  29.824  27.521   9.026
  537POPC   C1A 9567  30.207  27.491   8.742
  537POPC   D2A 9568  30.017  27.850   8.494
  537POPC   C3A 9569  30.038  27.858   8.040
  537POPC   C4A 9570  29.942  27.543   7.750
  537POPC   C1B 9571  29.591  27.872   8.823
  537POPC   C2B 9572  29.422  27.929   8.438
  537POPC   C3B 9573  29.542  27.667   8.096
  537POPC   C4B 9574  29.583  27.958   7.768
  538POPC   NC3 9575  29.938   6.125   9.536
  538POPC   PO4 9576  29.703   5.541   9.472
  538POPC   GL1 9577  29.900   5.814   9.133
  538POPC   GL2 9578  30.192   6.071   9.105
  538POPC   C1A 9579  29.880   5.790   8.708
  538POPC   D2A 9580  29.893   5.649   8.298
  538POPC   C3A 9581  29.731   5.846   7.934
  538POPC   C4A 9582  29.775   5.970   7.519
  538POPC   C1B 9583  30.090   6.262   8.737
  538POPC   C2B 9584  29.976   6.132   8.340
  538POPC   C3B 9585  30.215   6.001   7.992
  538POPC   C4B 9586  30.110   6.289   7.713
  539POPC   NC3 9587  33.798  19.317   9.507
  539POPC   PO4 9588  34.135  18.711   9.479
  539POPC   GL1 9589  33.858  18.927   9.194
  539POPC   GL2 9590  34.002  19.237   9.051
  539POPC   C1A 9591  33.654  18.890   8.807
  539POPC   D2A 9592  33.598  19.176   8.463
  539POPC   C3A 9593  33.493  18.979   8.076
  539POPC   C4A 9594  33.702  18.772   7.756
  539POPC   C1B 9595  34.112  19.250   8.612
  539POPC   C2B 9596  34.001  19.399   8.224
  539POPC   C3B 9597  33.799  19.348   7.847
  539POPC   C4B 9598  33.896  19.513   7.421
  540POPC   NC3 9599   4.742  37.688   9.474
  540POPC   PO4 9600   5.352  37.853   9.452
  540POPC   GL1 9601   5.150  37.812   9.114
  540POPC   GL2 9602   4.938  38.104   9.210
  540POPC   C1A 9603   5.220  38.017   8.711
  540POPC   D2A 9604   5.347  37.845   8.327
  540POPC   C3A 9605   5.040  37.673   8.032
  540POPC   C4A 9606   5.307  37.507   7.743
  540POPC   C1B 9607   4.741  37.943   8.844
  540POPC   C2B 9608   4.753  37.905   8.405
  540POPC   C3B 9609   4.992  38.176   8.166
  540POPC   C4B 9610   5.225  38.109   7.827
  541POPC   NC3 9611  16.734  20.467   9.548
  541POPC   PO4 9612  17.076  20.932   9.405
  541POPC   GL1 9613  16.696  20.753   9.130
  541POPC   GL2 9614  16.506  20.375   9.121
  541POPC   C1A 9615  16.526  20.915   8.732
  541POPC   D2A 9616  16.770  20.949   8.342
  541POPC   C3A 9617  16.585  20.874   7.898
  541POPC   C4A 9618  16.877  20.823   7.511
  541POPC   C1B 9619  16.595  20.427   8.711
  541POPC   C2B 9620  16.408  20.588   8.336
  541POPC   C3B 9621  16.445  20.381   7.954
  541POPC   C4B 9622  16.191  20.420   7.645
  542POPC   NC3 9623  17.759  30.716   9.337
  542POPC   PO4 9624  18.228  30.413   9.717
  542POPC   GL1 9625  18.252  30.550   9.260
  542POPC   GL2 9626  18.227  30.887   9.110
  542POPC   C1A 9627  18.154  30.448   8.804
  542POPC   D2A 9628  18.029  30.283   8.393
  542POPC   C3A 9629  18.062  30.571   8.058
  542POPC   C4A 9630  18.367  30.607   7.784
  542POPC   C1B 9631  17.989  30.909   8.709
  542POPC   C2B 9632  18.080  31.042   8.265
  542POPC   C3B 9633  18.242  31.106   7.828
  542POPC   C4B 9634  17.998  31.141   7.411
  543POPC   NC3 9635  26.208  34.572   9.635
  543POPC   PO4 9636  25.635  34.416   9.426
  543POPC   GL1 9637  25.959  34.416   9.139
  543POPC   GL2 9638  26.037  34.727   9.168
  543POPC   C1A 9639  26.063  34.507   8.714
  543POPC   D2A 9640  26.088  34.771   8.386
  543POPC   C3A 9641  25.986  34.545   8.016
  543POPC   C4A 9642  25.757  34.695   7.664
  543POPC   C1B 9643  26.326  34.931   8.892
  543POPC   C2B 9644  26.545  35.021   8.484
  543POPC   C3B 9645  26.409  34.990   8.055
  543POPC   C4B 9646  26.227  34.853   7.669
  544POPC   NC3 9647  27.637  15.657   9.708
  544POPC   PO4 9648  27.085  15.847   9.797
  544POPC   GL1 9649  27.480  16.003   9.367
  544POPC   GL2 9650  27.815  15.990   9.285
  544POPC   C1A 9651  27.490  15.923   8.815
  544POPC   D2A 9652  27.513  15.927   8.356
  544POPC   C3A 9653  27.402  15.929   7.945
  544POPC   C4A 9654  27.185  15.571   7.795
  544POPC   C1B 9655  27.784  15.591   9.038
  544POPC   C2B 9656  27.748  15.530   8.583
  544POPC   C3B 9657  27.937  15.713   8.174
  544POPC   C4B 9658  27.797  15.683   7.761
  545POPC   NC3 9659   3.152  17.759   9.430
  545POPC   PO4 9660   3.624  17.240   9.468
  545POPC   GL1 9661   3.450  17.425   9.166
  545POPC   GL2 9662   3.597  17.753   9.172
  545POPC   C1A 9663   3.485  17.400   8.744
  545POPC   D2A 9664   3.529  17.648   8.389
  545POPC   C3A 9665   3.533  17.385   8.038
  545POPC   C4A 9666   3.422  17.385   7.599
  545POPC   C1B 9667   3.879  17.748   8.833
  545POPC   C2B 9668   3.953  17.977   8.450
  545POPC   C3B 9669   3.881  17.823   8.050
  545POPC   C4B 9670   3.824  18.016   7.683
  546POPC   NC3 9671  29.979  11.879   9.505
  546POPC   PO4 9672  30.015  11.215   9.446
  546POPC   GL1 9673  30.125  11.504   9.128
  546POPC   GL2 9674  29.830  11.652   9.069
  546POPC   C1A 9675  30.095  11.311   8.715
  546POPC   D2A 9676  30.052  10.991   8.400
  546POPC   C3A 9677  29.779  11.077   8.065
  546POPC   C4A 9678  29.705  11.041   7.666
  546POPC   C1B 9679  29.679  11.671   8.673
  546POPC   C2B 9680  29.887  11.553   8.296
  546POPC   C3B 9681  29.872  11.573   7.876
  546POPC   C4B 9682  29.520  11.511   7.634
  547POPC   NC3 9683  31.201  12.827   9.352
  547POPC   PO4 9684  30.490  12.817   9.499
  547POPC   GL1 9685  30.692  12.833   9.166
  547POPC   GL2 9686  30.463  12.616   8.981
  547POPC   C1A 9687  30.868  13.087   8.846
  547POPC   D2A 9688  30.837  12.957   8.442
  547POPC   C3A 9689  30.733  13.165   8.066
  547POPC   C4A 9690  30.619  12.879   7.738
  547POPC   C1B 9691  30.846  12.544   8.787
  547POPC   C2B 9692  31.003  12.476   8.405
  547POPC   C3B 9693  30.980  12.668   8.044
  547POPC   C4B 9694  31.070  12.610   7.653
  548POPC   NC3 9695   7.265  40.905   9.228
  548POPC   PO4 9696   7.666  40.602   9.754
  548POPC   GL1 9697   7.584  40.481   9.233
  548POPC   GL2 9698   7.695  40.731   8.936
  548POPC   C1A 9699   7.326  40.419   8.851
  548POPC   D2A 9700   7.377  40.776   8.550
  548POPC   C3A 9701   7.490  40.661   8.145
  548POPC   C4A 9702   7.152  40.669   7.835
  548POPC   C1B 9703   7.775  40.453   8.613
  548POPC   C2B 9704   8.107  40.419   8.341
  548POPC   C3B 9705   8.004  40.380   7.952
  548POPC   C4B 9706   7.629  40.446   7.698
  549POPC   NC3 9707  38.236  11.781   9.420
  549POPC   PO4 9708  38.700  12.256   9.502
  549POPC   GL1 9709  38.544  12.134   9.101
  549POPC   GL2 9710  38.232  12.266   9.088
  549POPC   C1A 9711  38.554  12.256   8.640
  549POPC   D2A 9712  38.716  12.191   8.213
  549POPC   C3A 9713  38.515  12.275   7.809
  549POPC   C4A 9714  38.088  12.402   7.681
  549POPC   C1B 9715  38.195  11.921   8.791
  549POPC   C2B 9716  38.125  12.064   8.405
  549POPC   C3B 9717  38.170  11.965   8.003
  549POPC   C4B 9718  38.204  11.925   7.528
  550POPC   NC3 9719  17.286  40.636   9.694
  550POPC   PO4 9720  17.730  41.112   9.489
  550POPC   GL1 9721  17.555  41.046   9.100
  550POPC   GL2 9722  17.872  40.950   9.019
  550POPC   C1A 9723  17.401  40.928   8.686
  550POPC   D2A 9724  17.496  40.774   8.289
  550POPC   C3A 9725  17.366  40.955   7.899
  550POPC   C4A 9726  17.178  40.669   7.637
  550POPC   C1B 9727  17.841  40.651   8.712
  550POPC   C2B 9728  17.993  40.626   8.307
  550POPC   C3B 9729  17.863  40.769   7.926
  550POPC   C4B 9730  17.743  40.700   7.529
  551POPC   NC3 9731  30.125  19.976   9.422
  551POPC   PO4 9732  29.660  19.379   9.442
  551POPC   GL1 9733  29.796  19.689   9.148
  551POPC   GL2 9734  30.111  19.554   9.101
  551POPC   C1A 9735  29.949  19.944   8.770
  551POPC   D2A 9736  30.146  19.894   8.349
  551POPC   C3A 9737  30.085  20.112   7.958
  551POPC   C4A 9738  29.662  20.188   7.820
  551POPC   C1B 9739  30.357  19.625   8.737
  551POPC   C2B 9740  30.466  19.506   8.326
  551POPC   C3B 9741  30.164  19.473   7.987
  551POPC   C4B 9742  29.821  19.695   7.800
  552POPC   NC3 9743  22.114   4.158   9.516
  552POPC   PO4 9744  22.562   4.612   9.375
  552POPC   GL1 9745  22.286   4.358   9.067
  552POPC   GL2 9746  22.348   3.983   9.085
  552POPC   C1A 9747  21.910   4.294   8.802
  552POPC   D2A 9748  21.707   4.385   8.378
  552POPC   C3A 9749  21.805   4.219   7.959
  552POPC   C4A 9750  22.204   4.338   7.704
  552POPC   C1B 9751  22.313   4.071   8.616
  552POPC   C2B 9752  22.269   4.053   8.153
  552POPC   C3B 9753  22.546   3.901   7.775
  552POPC   C4B 9754  22.383   3.892   7.328
  553POPC   NC3 9755  22.737  36.587   9.586
  553POPC   PO4 9756  23.210  36.994   9.670
  553POPC   GL1 9757  23.175  36.898   9.182
  553POPC   GL2 9758  23.265  36.566   9.035
  553POPC   C1A 9759  23.007  37.112   8.770
  553POPC   D2A 9760  23.023  37.063   8.298
  553POPC   C3A 9761  22.719  36.989   7.940
  553POPC   C4A 9762  22.624  37.216   7.516
  553POPC   C1B 9763  23.211  36.662   8.620
  553POPC   C2B 9764  23.147  36.567   8.192
  553POPC   C3B 9765  23.182  36.829   7.818
  553POPC   C4B 9766  23.460  36.803   7.483
  554POPC   NC3 9767  17.154  44.627   9.529
  554POPC   PO4 9768  16.500  44.846   9.613
  554POPC   GL1 9769  16.700  44.838   9.225
  554POPC   GL2 9770  16.683  44.533   9.064
  554POPC   C1A 9771  16.661  44.965   8.776
  554POPC   D2A 9772  16.480  44.663   8.427
  554POPC   C3A 9773  16.420  44.864   8.004
  554POPC   C4A 9774  16.426  44.648   7.549
  554POPC   C1B 9775  16.935  44.549   8.668
  554POPC   C2B 9776  16.930  44.816   8.299
  554POPC   C3B 9777  16.815  44.562   7.973
  554POPC   C4B 9778  17.149  44.544   7.757
  555POPC   NC3 9779  16.302  31.703   9.487
  555POPC   PO4 9780  16.866  31.307   9.666
  555POPC   GL1 9781  16.726  31.429   9.254
  555POPC   GL2 9782  16.546  31.099   9.177
  555POPC   C1A 9783  16.607  31.439   8.802
  555POPC   D2A 9784  16.595  31.181   8.449
  555POPC   C3A 9785  16.519  31.400   8.080
  555POPC   C4A 9786  16.649  31.504   7.702
  555POPC   C1B 9787  16.967  31.058   8.942
  555POPC   C2B 9788  17.102  31.064   8.494
  555POPC   C3B 9789  16.956  31.100   8.076
  555POPC   C4B 9790  17.103  31.214   7.691
  556POPC   NC3 9791  38.154  39.023   9.572
  556POPC   PO4 9792  38.682  39.474   9.454
  556POPC   GL1 9793  38.471  39.185   9.188
  556POPC   GL2 9794  38.398  39.456   9.025
  556POPC   C1A 9795  38.489  39.031   8.750
  556POPC   D2A 9796  38.325  39.170   8.345
  556POPC   C3A 9797  38.516  38.980   7.980
  556POPC   C4A 9798  38.570  39.030   7.549
  556POPC   C1B 9799  38.334  39.705   8.701
  556POPC   C2B 9800  38.461  39.693   8.279
  556POPC   C3B 9801  38.487  39.476   7.883
  556POPC   C4B 9802  38.192  39.381   7.567
  557POPC   NC3 9803  27.406   4.962   9.558
  557POPC   PO4 9804  28.006   4.941   9.736
  557POPC   GL1 9805  27.819   4.965   9.267
  557POPC   GL2 9806  27.819   5.307   9.226
  557POPC   C1A 9807  27.468   5.111   8.902
  557POPC   D2A 9808  27.221   5.353   8.554
  557POPC   C3A 9809  27.223   5.141   8.120
  557POPC   C4A 9810  27.352   4.727   7.946
  557POPC   C1B 9811  27.900   5.360   8.783
  557POPC   C2B 9812  27.729   5.211   8.380
  557POPC   C3B 9813  27.740   5.160   7.912
  557POPC   C4B 9814  27.881   5.029   7.477
  558POPC   NC3 9815  42.611  13.606   9.347
  558POPC   PO4 9816  41.998  14.004   9.250
  558POPC   GL1 9817  42.229  13.739   9.012
  558POPC   GL2 9818  42.152  13.410   9.115
  558POPC   C1A 9819  42.311  13.787   8.593
  558POPC   D2A 9820  42.208  13.563   8.246
  558POPC   C3A 9821  42.414  13.821   8.014
  558POPC   C4A 9822  42.327  13.659   7.665
  558POPC   C1B 9823  42.262  13.300   8.681
  558POPC   C2B 9824  42.410  13.074   8.342
  558POPC   C3B 9825  42.452  13.215   7.938
  558POPC   C4B 9826  42.579  13.239   7.516
  559POPC   NC3 9827  10.956   9.124   9.264
  559POPC   PO4 9828  10.368   9.402   9.353
  559POPC   GL1 9829  10.518   9.106   9.046
  559POPC   GL2 9830  10.625   8.733   9.062
  559POPC   C1A 9831  10.636   9.043   8.639
  559POPC   D2A 9832  10.431   8.866   8.314
  559POPC   C3A 9833  10.594   8.823   7.908
  559POPC   C4A 9834  10.837   9.047   7.652
  559POPC   C1B 9835  10.869   8.581   8.671
  559POPC   C2B 9836  10.871   8.518   8.208
  559POPC   C3B 9837  10.956   8.486   7.754
  559POPC   C4B 9838  10.791   8.644   7.349
  560POPC   NC3 9839  21.929  18.124   9.582
  560POPC   PO4 9840  22.603  18.129   9.601
  560POPC   GL1 9841  22.288  18.155   9.229
  560POPC   GL2 9842  22.172  18.502   9.178
  560POPC   C1A 9843  22.294  17.996   8.795
  560POPC   D2A 9844  22.107  18.017   8.357
  560POPC   C3A 9845  22.361  18.171   7.997
  560POPC   C4A 9846  22.271  18.340   7.540
  560POPC   C1B 9847  22.095  18.461   8.759
  560POPC   C2B 9848  21.890  18.517   8.362
  560POPC   C3B 9849  21.978  18.543   7.927
  560POPC   C4B 9850  21.832  18.609   7.503
  561POPC   NC3 9851  27.129   8.432   9.386
  561POPC   PO4 9852  27.669   7.978   9.477
  561POPC   GL1 9853  27.559   8.276   9.153
  561POPC   GL2 9854  27.332   8.037   9.084
  561POPC   C1A 9855  27.408   8.420   8.769
  561POPC   D2A 9856  27.461   8.177   8.408
  561POPC   C3A 9857  27.746   8.163   8.088
  561POPC   C4A 9858  27.815   8.427   7.779
  561POPC   C1B 9859  27.342   7.790   8.721
  561POPC   C2B 9860  27.155   7.786   8.317
  561POPC   C3B 9861  27.249   7.995   7.939
  561POPC   C4B 9862  27.546   8.000   7.634
  562POPC   NC3 9863   4.448  13.303   9.824
  562POPC   PO4 9864   4.183  12.803   9.557
  562POPC   GL1 9865   4.118  12.618   9.116
  562POPC   GL2 9866   4.492  12.656   9.023
  562POPC   C1A 9867   4.169  12.570   8.653
  562POPC   D2A 9868   4.007  12.516   8.274
  562POPC   C3A 9869   4.002  12.773   7.931
  562POPC   C4A 9870   4.297  12.538   7.766
  562POPC   C1B 9871   4.607  12.807   8.580
  562POPC   C2B 9872   4.471  12.931   8.132
  562POPC   C3B 9873   4.363  13.080   7.692
  562POPC   C4B 9874   4.481  13.489   7.442
  563POPC   NC3 9875  19.283  25.630   9.331
  563POPC   PO4 9876  19.645  26.021   9.759
  563POPC   GL1 9877  19.591  26.071   9.239
  563POPC   GL2 9878  19.661  26.420   9.135
  563POPC   C1A 9879  19.570  26.047   8.733
  563POPC   D2A 9880  19.799  26.070   8.298
  563POPC   C3A 9881  19.603  25.990   7.875
  563POPC   C4A 9882  19.783  25.833   7.475
  563POPC   C1B 9883  19.512  26.557   8.750
  563POPC   C2B 9884  19.452  26.436   8.352
  563POPC   C3B 9885  19.709  26.471   7.973
  563POPC   C4B 9886  19.782  26.344   7.516
  564POPC   NC3 9887  12.777  19.061   9.378
  564POPC   PO4 9888  13.310  19.465   9.422
  564POPC   GL1 9889  13.148  19.228   9.041
  564POPC   GL2 9890  13.111  18.849   9.053
  564POPC   C1A 9891  12.963  19.396   8.661
  564POPC   D2A 9892  12.773  19.504   8.262
  564POPC   C3A 9893  12.989  19.340   7.928
  564POPC   C4A 9894  13.132  18.935   7.866
  564POPC   C1B 9895  12.760  18.919   8.754
  564POPC   C2B 9896  12.628  18.718   8.377
  564POPC   C3B 9897  12.626  18.925   7.982
  564POPC   C4B 9898  12.496  19.327   7.828
  565POPC   NC3 9899  24.627  17.989   9.489
  565POPC   PO4 9900  24.355  18.608   9.795
  565POPC   GL1 9901  24.440  18.433   9.351
  565POPC   GL2 9902  24.180  18.224   9.226
  565POPC   C1A 9903  24.592  18.308   8.916
  565POPC   D2A 9904  24.570  18.510   8.508
  565POPC   C3A 9905  24.523  18.304   8.127
  565POPC   C4A 9906  24.662  18.317   7.729
  565POPC   C1B 9907  24.133  18.150   8.789
  565POPC   C2B 9908  24.281  17.961   8.418
  565POPC   C3B 9909  24.357  17.809   7.996
  565POPC   C4B 9910  24.340  17.987   7.561
  566POPC   NC3 9911  10.541   2.044   9.482
  566POPC   PO4 9912  10.944   1.588   9.208
  566POPC   GL1 9913  10.672   1.863   9.022
  566POPC   GL2 9914  10.396   1.685   9.065
  566POPC   C1A 9915  10.747   2.126   8.662
  566POPC   D2A 9916  10.649   2.036   8.206
  566POPC   C3A 9917  10.776   2.241   7.806
  566POPC   C4A 9918  10.791   2.015   7.373
  566POPC   C1B 9919  10.288   1.913   8.667
  566POPC   C2B 9920  10.187   2.189   8.313
  566POPC   C3B 9921  10.263   2.123   7.841
  566POPC   C4B 9922  10.378   2.325   7.443
  567POPC   NC3 9923   3.849  35.044   9.357
  567POPC   PO4 9924   3.359  35.416   9.677
  567POPC   GL1 9925   3.465  35.345   9.209
  567POPC   GL2 9926   3.340  34.974   9.187
  567POPC   C1A 9927   3.624  35.516   8.789
  567POPC   D2A 9928   3.828  35.469   8.363
  567POPC   C3A 9929   3.617  35.480   7.948
  567POPC   C4A 9930   3.505  35.231   7.549
  567POPC   C1B 9931   3.465  35.046   8.771
  567POPC   C2B 9932   3.401  35.200   8.386
  567POPC   C3B 9933   3.443  34.990   8.011
  567POPC   C4B 9934   3.133  34.900   7.703
  568POPC   NC3 9935  32.237  11.372   9.493
  568POPC   PO4 9936  31.875  10.879   9.398
  568POPC   GL1 9937  32.086  11.085   9.077
  568POPC   GL2 9938  32.454  11.140   9.068
  568POPC   C1A 9939  32.082  11.243   8.668
  568POPC   D2A 9940  32.240  11.322   8.280
  568POPC   C3A 9941  31.990  11.261   7.928
  568POPC   C4A 9942  32.168  11.101   7.527
  568POPC   C1B 9943  32.598  11.390   8.679
  568POPC   C2B 9944  32.717  11.540   8.242
  568POPC   C3B 9945  32.533  11.348   7.841
  568POPC   C4B 9946  32.547  11.446   7.368
  569POPC   NC3 9947  39.771  34.136   9.521
  569POPC   PO4 9948  40.153  34.653   9.441
  569POPC   GL1 9949  39.988  34.411   9.150
  569POPC   GL2 9950  39.647  34.534   9.222
  569POPC   C1A 9951  40.017  34.550   8.758
  569POPC   D2A 9952  39.980  34.817   8.457
  569POPC   C3A 9953  40.045  34.633   8.084
  569POPC   C4A 9954  39.983  34.808   7.670
  569POPC   C1B 9955  39.546  34.340   8.833
  569POPC   C2B 9956  39.636  34.467   8.406
  569POPC   C3B 9957  39.651  34.303   7.997
  569POPC   C4B 9958  39.288  34.252   7.743
  570POPC   NC3 9959  19.007  18.498   9.105
  570POPC   PO4 9960  19.296  18.001   9.477
  570POPC   GL1 9961  19.010  17.954   9.095
  570POPC   GL2 9962  18.647  17.884   9.145
  570POPC   C1A 9963  19.076  18.033   8.641
  570POPC   D2A 9964  19.296  18.080   8.268
  570POPC   C3A 9965  19.153  18.299   7.921
  570POPC   C4A 9966  19.342  18.473   7.571
  570POPC   C1B 9967  18.590  18.067   8.746
  570POPC   C2B 9968  18.722  18.452   8.511
  570POPC   C3B 9969  18.721  18.586   8.080
  570POPC   C4B 9970  18.684  18.370   7.703
  571POPC   NC3 9971   1.855   1.468   9.523
  571POPC   PO4 9972   1.876   0.805   9.528
  571POPC   GL1 9973   1.769   1.050   9.162
  571POPC   GL2 9974   2.086   1.246   9.117
  571POPC   C1A 9975   1.906   0.958   8.736
  571POPC   D2A 9976   2.162   1.082   8.394
  571POPC   C3A 9977   1.914   1.066   8.061
  571POPC   C4A 9978   2.053   1.107   7.663
  571POPC   C1B 9979   1.951   1.450   8.728
  571POPC   C2B 9980   2.064   1.613   8.354
  571POPC   C3B 9981   2.103   1.535   7.951
  571POPC   C4B 9982   2.419   1.475   7.665
  572POPC   NC3 9983  44.455  12.434   9.395
  572POPC   PO4 9984  44.820  11.858   9.439
  572POPC   GL1 9985  44.683  11.847   9.026
  572POPC   GL2 9986  44.426  12.048   9.053
  572POPC   C1A 9987  44.561  11.899   8.588
  572POPC   D2A 9988  44.740  12.276   8.387
  572POPC   C3A 9989  44.779  12.171   7.992
  572POPC   C4A 9990  44.595  11.850   7.739
  572POPC   C1B 9991  44.384  12.360   8.748
  572POPC   C2B 9992  44.211  12.284   8.336
  572POPC   C3B 9993  44.339  12.426   7.936
  572POPC   C4B 9994  44.406  12.248   7.517
  573POPC   NC3 9995  33.324   8.669   9.779
  573POPC   PO4 9996  33.214   8.045   9.448
  573POPC   GL1 9997  32.964   8.019   9.104
  573POPC   GL2 9998  33.251   8.054   8.928
  573POPC   C1A 9999  32.812   8.335   8.829
  573POPC   D2A10000  32.815   8.514   8.413
  573POPC   C3A10001  32.851   8.209   8.069
  573POPC   C4A10002  32.937   8.329   7.666
  573POPC   C1B10003  33.347   7.826   8.572
  573POPC   C2B10004  33.443   8.082   8.253
  573POPC   C3B10005  33.325   8.115   7.849
  573POPC   C4B10006  33.200   7.999   7.384
  574POPC   NC310007   1.084  12.485   9.545
  574POPC   PO410008   1.270  13.176   9.502
  574POPC   GL110009   1.203  12.927   9.131
  574POPC   GL210010   1.443  13.179   9.007
  574POPC   C1A10011   1.106  12.832   8.681
  574POPC   D2A10012   0.894  12.984   8.332
  574POPC   C3A10013   0.976  12.815   7.958
  574POPC   C4A10014   1.037  12.460   7.746
  574POPC   C1B10015   1.608  12.889   8.705
  574POPC   C2B10016   1.565  12.666   8.302
  574POPC   C3B10017   1.478  12.827   7.893
  574POPC   C4B10018   1.430  13.164   7.551
  575POPC   NC310019  42.127   4.859   9.429
  575POPC   PO410020  42.265   5.471   9.425
  575POPC   GL110021  42.417   5.388   9.040
  575POPC   GL210022  42.472   5.020   9.053
  575POPC   C1A10023  42.203   5.209   8.668
  575POPC   D2A10024  41.835   5.005   8.534
  575POPC   C3A10025  41.988   4.859   8.177
  575POPC   C4A10026  41.876   4.810   7.776
  575POPC   C1B10027  42.699   4.776   8.744
  575POPC   C2B10028  42.622   4.808   8.304
  575POPC   C3B10029  42.435   4.939   7.901
  575POPC   C4B10030  42.386   4.876   7.457
  576POPC   NC310031  21.572  32.019   9.309
  576POPC   PO410032  20.923  32.261   9.480
  576POPC   GL110033  21.087  32.431   9.146
  576POPC   GL210034  21.416  32.539   9.176
  576POPC   C1A10035  21.284  32.226   8.773
  576POPC   D2A10036  21.589  32.142   8.471
  576POPC   C3A10037  21.405  32.142   8.068
  576POPC   C4A10038  21.554  31.858   7.723
  576POPC   C1B10039  21.610  32.604   8.748
  576POPC   C2B10040  21.510  32.631   8.315
  576POPC   C3B10041  21.682  32.531   7.911
  576POPC   C4B10042  21.342  32.404   7.627
  577POPC   NC310043  38.548  29.736   9.472
  577POPC   PO410044  38.028  30.198   9.473
  577POPC   GL110045  38.204  29.910   9.141
  577POPC   GL210046  38.110  29.613   9.035
  577POPC   C1A10047  38.509  29.935   8.795
  577POPC   D2A10048  38.442  30.030   8.358
  577POPC   C3A10049  38.766  30.019   8.037
  577POPC   C4A10050  38.715  30.075   7.571
  577POPC   C1B10051  38.183  29.565   8.627
  577POPC   C2B10052  38.152  29.439   8.241
  577POPC   C3B10053  38.359  29.692   7.970
  577POPC   C4B10054  38.281  29.781   7.560
  578POPC   NC310055  17.451   0.725   9.429
  578POPC   PO410056  17.335   0.051   9.454
  578POPC   GL110057  17.516   0.175   9.052
  578POPC   GL210058  17.518   0.528   8.969
  578POPC   C1A10059  17.745   0.213   8.664
  578POPC   D2A10060  17.613   0.504   8.345
  578POPC   C3A10061  17.708   0.285   7.988
  578POPC   C4A10062  17.467   0.493   7.726
  578POPC   C1B10063  17.880   0.718   8.721
  578POPC   C2B10064  18.048   0.916   8.362
  578POPC   C3B10065  17.895   0.768   7.963
  578POPC   C4B10066  17.755   0.894   7.579
  579POPC   NC310067  30.052  17.290   9.308
  579POPC   PO410068  29.625  17.825   9.597
  579POPC   GL110069  29.726  17.645   9.141
  579POPC   GL210070  29.707  17.313   8.836
  579POPC   C1A10071  29.932  17.729   8.730
  579POPC   D2A10072  29.752  17.525   8.362
  579POPC   C3A10073  29.788  17.723   7.962
  579POPC   C4A10074  30.203  17.790   7.734
  579POPC   C1B10075  30.151  17.253   8.655
  579POPC   C2B10076  30.426  17.206   8.278
  579POPC   C3B10077  30.301  17.274   7.863
  579POPC   C4B10078  29.896  17.297   7.748
  580POPC   NC310079   5.282  43.305   9.564
  580POPC   PO410080   5.976  43.335   9.506
  580POPC   GL110081   6.085  43.135   9.114
  580POPC   GL210082   5.973  43.446   8.984
  580POPC   C1A10083   6.044  42.832   8.732
  580POPC   D2A10084   5.758  42.735   8.366
  580POPC   C3A10085   5.747  42.962   7.949
  580POPC   C4A10086   5.570  43.288   7.659
  580POPC   C1B10087   5.774  43.254   8.664
  580POPC   C2B10088   6.016  43.211   8.308
  580POPC   C3B10089   5.961  43.447   7.952
  580POPC   C4B10090   6.043  43.479   7.533
  581POPC   NC310091  15.041  20.464   9.530
  581POPC   PO410092  15.466  21.021   9.528
  581POPC   GL110093  15.448  20.701   9.232
  581POPC   GL210094  15.105  20.756   9.100
  581POPC   C1A10095  15.536  20.499   8.845
  581POPC   D2A10096  15.317  20.532   8.457
  581POPC   C3A10097  15.428  20.772   8.116
  581POPC   C4A10098  15.184  20.765   7.715
  581POPC   C1B10099  14.978  20.391   8.854
  581POPC   C2B10100  14.828  20.385   8.440
  581POPC   C3B10101  14.954  20.492   8.062
  581POPC   C4B10102  15.090  20.269   7.676
  582POPC   NC310103  30.268  22.169   9.703
  582POPC   PO410104  30.697  22.721   9.513
  582POPC   GL110105  30.746  22.388   9.167
  582POPC   GL210106  30.668  22.021   9.175
  582POPC   C1A10107  30.660  22.291   8.716
  582POPC   D2A10108  30.504  22.278   8.299
  582POPC   C3A10109  30.764  22.413   7.950
  582POPC   C4A10110  30.652  22.687   7.588
  582POPC   C1B10111  30.548  21.796   8.802
  582POPC   C2B10112  30.732  21.809   8.405
  582POPC   C3B10113  30.634  21.902   7.978
  582POPC   C4B10114  30.750  22.004   7.588
  583POPC   NC310115  15.640  44.317   9.470
  583POPC   PO410116  16.210  43.900   9.465
  583POPC   GL110117  16.129  43.917   9.047
  583POPC   GL210118  15.794  44.039   9.052
  583POPC   C1A10119  16.142  43.853   8.610
  583POPC   D2A10120  15.926  43.815   8.240
  583POPC   C3A10121  16.169  43.922   7.927
  583POPC   C4A10122  16.469  44.170   7.715
  583POPC   C1B10123  15.675  43.706   8.760
  583POPC   C2B10124  15.454  43.666   8.369
  583POPC   C3B10125  15.585  43.558   7.944
  583POPC   C4B10126  15.848  43.658   7.616
  584POPC   NC310127  44.391  43.871   9.516
  584POPC   PO410128   0.058  43.610   9.483
  584POPC   GL110129  44.750  43.756   9.177
  584POPC   GL210130  44.612  44.077   9.101
  584POPC   C1A10131  44.488  43.610   8.838
  584POPC   D2A10132  44.722  43.494   8.481
  584POPC   C3A10133  44.693  43.723   8.107
  584POPC   C4A10134  44.641  43.645   7.671
  584POPC   C1B10135  44.658  44.047   8.669
  584POPC   C2B10136  44.456  44.137   8.290
  584POPC   C3B10137  44.709  44.219   7.954
  584POPC   C4B10138  44.830  44.086   7.548
  585POPC   NC310139   7.039  29.426   9.484
  585POPC   PO410140   6.462  29.779   9.724
  585POPC   GL110141   6.539  29.681   9.260
  585POPC   GL210142   6.743  29.913   9.044
  585POPC   C1A10143   6.380  29.649   8.806
  585POPC   D2A10144   6.445  29.847   8.386
  585POPC   C3A10145   6.490  29.617   7.980
  585POPC   C4A10146   6.635  29.767   7.537
  585POPC   C1B10147   6.965  30.192   8.766
  585POPC   C2B10148   6.909  30.323   8.354
  585POPC   C3B10149   6.705  30.139   8.020
  585POPC   C4B10150   6.885  30.192   7.654
  586POPC   NC310151   0.893  27.316   9.323
  586POPC   PO410152   0.465  27.487   9.769
  586POPC   GL110153   0.421  27.460   9.251
  586POPC   GL210154   0.607  27.687   9.109
  586POPC   C1A10155   0.190  27.614   8.839
  586POPC   D2A10156   0.328  27.441   8.455
  586POPC   C3A10157   0.269  27.646   8.072
  586POPC   C4A10158   0.221  27.452   7.688
  586POPC   C1B10159   0.744  27.793   8.739
  586POPC   C2B10160   0.634  27.996   8.380
  586POPC   C3B10161   0.723  27.979   7.988
  586POPC   C4B10162   0.527  27.844   7.616
  587POPC   NC310163  18.083  43.039   9.442
  587POPC   PO410164  18.585  43.231   9.773
  587POPC   GL110165  18.455  43.344   9.266
  587POPC   GL210166  18.739  43.406   9.026
  587POPC   C1A10167  18.121  43.367   8.875
  587POPC   D2A10168  18.065  43.400   8.389
  587POPC   C3A10169  18.214  43.018   8.142
  587POPC   C4A10170  18.277  42.958   7.660
  587POPC   C1B10171  18.559  43.360   8.604
  587POPC   C2B10172  18.681  42.996   8.359
  587POPC   C3B10173  18.698  42.978   7.944
  587POPC   C4B10174  18.713  43.291   7.622
  588POPC   NC310175  13.825  25.236   9.554
  588POPC   PO410176  13.376  24.698   9.579
  588POPC   GL110177  13.485  25.086   9.218
  588POPC   GL210178  13.813  25.262   9.071
  588POPC   C1A10179  13.476  25.164   8.735
  588POPC   D2A10180  13.578  24.926   8.352
  588POPC   C3A10181  13.639  25.190   8.006
  588POPC   C4A10182  13.755  25.067   7.622
  588POPC   C1B10183  13.928  25.517   8.713
  588POPC   C2B10184  14.107  25.660   8.301
  588POPC   C3B10185  13.965  25.766   7.870
  588POPC   C4B10186  13.797  25.549   7.497
  589POPC   NC310187   3.150  30.764   9.865
  589POPC   PO410188   2.522  30.576   9.633
  589POPC   GL110189   2.613  30.646   9.172
  589POPC   GL210190   2.952  30.586   8.996
  589POPC   C1A10191   2.561  30.859   8.787
  589POPC   D2A10192   2.872  30.812   8.484
  589POPC   C3A10193   2.615  30.746   8.142
  589POPC   C4A10194   2.289  30.803   7.818
  589POPC   C1B10195   2.927  30.330   8.649
  589POPC   C2B10196   2.989  30.300   8.231
  589POPC   C3B10197   2.753  30.319   7.898
  589POPC   C4B10198   2.784  30.690   7.669
  590POPC   NC310199  40.500   6.574   9.463
  590POPC   PO410200  41.159   6.717   9.479
  590POPC   GL110201  40.842   6.741   9.090
  590POPC   GL210202  40.440   6.837   9.053
  590POPC   C1A10203  41.033   6.777   8.668
  590POPC   D2A10204  41.204   6.526   8.339
  590POPC   C3A10205  41.055   6.615   7.948
  590POPC   C4A10206  40.707   6.657   7.679
  590POPC   C1B10207  40.475   6.670   8.648
  590POPC   C2B10208  40.658   6.493   8.263
  590POPC   C3B10209  40.565   6.225   7.930
  590POPC   C4B10210  40.293   6.359   7.632
  591POPC   NC310211  14.401  19.050   9.689
  591POPC   PO410212  14.506  18.426   9.461
  591POPC   GL110213  14.497  18.139   9.174
  591POPC   GL210214  14.210  17.963   9.181
  591POPC   C1A10215  14.619  18.151   8.757
  591POPC   D2A10216  14.731  18.129   8.344
  591POPC   C3A10217  14.444  18.331   8.049
  591POPC   C4A10218  14.472  18.569   7.687
  591POPC   C1B10219  14.135  18.287   8.860
  591POPC   C2B10220  14.072  18.319   8.427
  591POPC   C3B10221  13.913  18.223   8.038
  591POPC   C4B10222  14.067  18.249   7.618
  592POPC   NC310223  34.504  32.765  10.187
  592POPC   PO410224  34.424  32.846   9.500
  592POPC   GL110225  34.420  32.997   9.154
  592POPC   GL210226  34.370  33.323   9.239
  592POPC   C1A10227  34.593  32.903   8.778
  592POPC   D2A10228  34.813  32.842   8.404
  592POPC   C3A10229  34.533  32.823   8.068
  592POPC   C4A10230  34.581  32.901   7.637
  592POPC   C1B10231  34.543  33.399   8.848
  592POPC   C2B10232  34.463  33.265   8.437
  592POPC   C3B10233  34.375  33.438   8.057
  592POPC   C4B10234  34.586  33.516   7.679
  593POPC   NC310235   7.664  18.645   9.407
  593POPC   PO410236   8.228  19.114   9.497
  593POPC   GL110237   8.137  19.120   9.091
  593POPC   GL210238   7.965  18.838   9.059
  593POPC   C1A10239   8.279  18.912   8.685
  593POPC   D2A10240   8.194  19.088   8.313
  593POPC   C3A10241   8.363  18.852   7.994
  593POPC   C4A10242   8.650  18.899   7.677
  593POPC   C1B10243   7.811  19.114   8.706
  593POPC   C2B10244   7.793  19.425   8.369
  593POPC   C3B10245   7.752  19.237   7.966
  593POPC   C4B10246   8.014  19.033   7.666
  594POPC   NC310247  22.076  11.532   9.599
  594POPC   PO410248  22.648  11.445   9.403
  594POPC   GL110249  22.254  11.198   9.229
  594POPC   GL210250  21.958  11.401   9.113
  594POPC   C1A10251  22.176  11.020   8.806
  594POPC   D2A10252  22.492  11.087   8.470
  594POPC   C3A10253  22.444  11.078   8.016
  594POPC   C4A10254  22.232  11.012   7.623
  594POPC   C1B10255  21.997  11.498   8.670
  594POPC   C2B10256  22.020  11.284   8.273
  594POPC   C3B10257  22.112  11.467   7.867
  594POPC   C4B10258  22.175  11.867   7.631
  595POPC   NC310259  12.842  10.107   9.271
  595POPC   PO410260  13.265   9.755   9.649
  595POPC   GL110261  13.064   9.622   9.207
  595POPC   GL210262  12.748   9.558   9.030
  595POPC   C1A10263  13.170   9.530   8.759
  595POPC   D2A10264  13.242   9.680   8.322
  595POPC   C3A10265  12.985   9.533   7.946
  595POPC   C4A10266  12.889   9.751   7.566
  595POPC   C1B10267  12.531   9.786   8.719
  595POPC   C2B10268  12.690   9.749   8.306
  595POPC   C3B10269  12.518   9.826   7.909
  595POPC   C4B10270  12.404   9.734   7.477
  596POPC   NC310271  21.790   5.695   9.492
  596POPC   PO410272  21.381   6.270   9.608
  596POPC   GL110273  21.696   6.142   9.267
  596POPC   GL210274  21.471   5.858   9.128
  596POPC   C1A10275  21.750   6.118   8.811
  596POPC   D2A10276  21.590   5.987   8.427
  596POPC   C3A10277  21.804   6.177   8.113
  596POPC   C4A10278  21.681   6.238   7.716
  596POPC   C1B10279  21.324   5.655   8.740
  596POPC   C2B10280  21.149   5.719   8.327
  596POPC   C3B10281  21.306   5.846   7.924
  596POPC   C4B10282  21.414   5.822   7.476
  597POPC   NC310283  40.377  37.850   9.353
  597POPC   PO410284  39.765  37.540   9.510
  597POPC   GL110285  39.758  37.666   9.104
  597POPC   GL210286  39.478  37.404   9.061
  597POPC   C1A10287  40.035  37.754   8.716
  597POPC   D2A10288  40.286  37.684   8.315
  597POPC   C3A10289  40.045  37.674   7.933
  597POPC   C4A10290  40.240  37.836   7.539
  597POPC   C1B10291  39.792  37.305   8.752
  597POPC   C2B10292  39.861  37.418   8.370
  597POPC   C3B10293  39.704  37.266   8.039
  597POPC   C4B10294  39.842  37.305   7.650
  598POPC   NC310295  21.190  16.219   9.470
  598POPC   PO410296  21.463  15.576   9.644
  598POPC   GL110297  21.494  15.869   9.237
  598POPC   GL210298  21.639  16.223   9.159
  598POPC   C1A10299  21.360  15.925   8.790
  598POPC   D2A10300  21.597  15.877   8.383
  598POPC   C3A10301  21.363  15.831   7.976
  598POPC   C4A10302  21.229  15.895   7.540
  598POPC   C1B10303  21.609  16.356   8.688
  598POPC   C2B10304  21.563  16.347   8.204
  598POPC   C3B10305  21.736  16.109   7.795
  598POPC   C4B10306  21.832  16.193   7.349
  599POPC   NC310307   5.251  42.411   9.690
  599POPC   PO410308   4.789  42.273   9.292
  599POPC   GL110309   5.039  42.124   9.054
  599POPC   GL210310   4.830  41.860   8.946
  599POPC   C1A10311   5.018  42.344   8.671
  599POPC   D2A10312   4.833  42.544   8.339
  599POPC   C3A10313   5.140  42.672   8.047
  599POPC   C4A10314   4.998  42.609   7.649
  599POPC   C1B10315   5.191  41.854   8.665
  599POPC   C2B10316   5.034  41.978   8.317
  599POPC   C3B10317   4.935  42.193   7.981
  599POPC   C4B10318   5.252  42.181   7.708
  600POPC   NC310319  34.771  17.412   9.496
  600POPC   PO410320  34.086  17.653   9.412
  600POPC   GL110321  34.441  17.651   9.113
  600POPC   GL210322  34.748  17.445   9.003
  600POPC   C1A10323  34.379  17.510   8.685
  600POPC   D2A10324  34.310  17.700   8.309
  600POPC   C3A10325  34.432  17.523   7.902
  600POPC   C4A10326  34.664  17.382   7.510
  600POPC   C1B10327  34.906  17.714   8.712
  600POPC   C2B10328  34.873  17.756   8.263
  600POPC   C3B10329  34.973  17.488   7.903
  600POPC   C4B10330  35.112  17.622   7.476
  601POPC   NC310331  19.338  36.101   9.535
  601POPC   PO410332  18.763  36.368   9.375
  601POPC   GL110333  19.033  36.100   9.105
  601POPC   GL210334  19.373  35.905   9.080
  601POPC   C1A10335  19.027  35.940   8.701
  601POPC   D2A10336  19.312  35.994   8.348
  601POPC   C3A10337  19.050  36.185   8.079
  601POPC   C4A10338  18.769  36.051   7.749
  601POPC   C1B10339  19.493  35.699   8.741
  601POPC   C2B10340  19.663  35.591   8.370
  601POPC   C3B10341  19.495  35.677   7.973
  601POPC   C4B10342  19.253  35.940   7.697
  602POPC   NC310343  20.398  43.712   9.671
  602POPC   PO410344  19.786  43.908   9.502
  602POPC   GL110345  19.889  43.810   9.133
  602POPC   GL210346  20.196  43.600   9.147
  602POPC   C1A10347  19.643  43.870   8.779
  602POPC   D2A10348  19.696  43.953   8.373
  602POPC   C3A10349  19.826  43.867   7.963
  602POPC   C4A10350  20.194  44.004   7.767
  602POPC   C1B10351  20.119  43.766   8.682
  602POPC   C2B10352  20.024  43.545   8.308
  602POPC   C3B10353  20.147  43.464   7.874
  602POPC   C4B10354  20.374  43.597   7.505
  603POPC   NC310355  34.115  19.999   9.412
  603POPC   PO410356  33.522  19.702   9.471
  603POPC   GL110357  33.794  19.715   9.140
  603POPC   GL210358  33.718  20.062   9.020
  603POPC   C1A10359  33.859  19.694   8.704
  603POPC   D2A10360  33.866  20.021   8.376
  603POPC   C3A10361  33.863  19.838   7.991
  603POPC   C4A10362  33.579  19.794   7.703
  603POPC   C1B10363  34.111  20.211   8.783
  603POPC   C2B10364  34.363  20.209   8.388
  603POPC   C3B10365  34.183  20.221   7.988
  603POPC   C4B10366  33.885  20.228   7.639
  604POPC   NC310367  17.817  26.798   9.704
  604POPC   PO410368  18.219  27.207   9.365
  604POPC   GL110369  18.257  26.968   8.982
  604POPC   GL210370  18.426  26.621   9.004
  604POPC   C1A10371  18.155  26.751   8.585
  604POPC   D2A10372  18.351  26.770   8.219
  604POPC   C3A10373  18.126  26.944   7.868
  604POPC   C4A10374  18.168  26.989   7.400
  604POPC   C1B10375  18.563  26.439   8.624
  604POPC   C2B10376  18.367  26.245   8.258
  604POPC   C3B10377  18.156  26.411   7.897
  604POPC   C4B10378  18.440  26.622   7.621
  605POPC   NC310379  35.614   9.518   9.334
  605POPC   PO410380  35.315  10.104   9.374
  605POPC   GL110381  35.187   9.849   9.032
  605POPC   GL210382  35.536   9.814   8.922
  605POPC   C1A10383  35.193   9.767   8.561
  605POPC   D2A10384  35.414   9.935   8.196
  605POPC   C3A10385  35.304   9.810   7.774
  605POPC   C4A10386  35.012   9.636   7.444
  605POPC   C1B10387  35.524   9.377   8.717
  605POPC   C2B10388  35.510   9.283   8.296
  605POPC   C3B10389  35.682   9.430   7.917
  605POPC   C4B10390  35.645   9.542   7.479
  606POPC   NC310391  38.784   6.084   9.523
  606POPC   PO410392  39.162   5.476   9.560
  606POPC   GL110393  39.032   5.725   9.177
  606POPC   GL210394  39.197   6.047   9.166
  606POPC   C1A10395  39.162   5.748   8.736
  606POPC   D2A10396  39.220   5.960   8.347
  606POPC   C3A10397  39.257   5.683   7.981
  606POPC   C4A10398  39.062   5.586   7.595
  606POPC   C1B10399  39.466   6.179   8.777
  606POPC   C2B10400  39.547   6.377   8.343
  606POPC   C3B10401  39.517   6.121   7.960
  606POPC   C4B10402  39.184   6.078   7.656
  607POPC   NC310403  39.634   6.978   9.758
  607POPC   PO410404  39.775   7.639   9.625
  607POPC   GL110405  39.748   7.265   9.313
  607POPC   GL210406  40.114   7.238   9.199
  607POPC   C1A10407  39.670   7.266   8.852
  607POPC   D2A10408  39.938   7.513   8.549
  607POPC   C3A10409  39.907   7.554   8.119
  607POPC   C4A10410  39.672   7.860   7.948
  607POPC   C1B10411  40.336   7.506   8.872
  607POPC   C2B10412  40.456   7.470   8.430
  607POPC   C3B10413  40.390   7.577   7.995
  607POPC   C4B10414  40.242   7.286   7.746
  608POPC   NC310415  19.657   5.093   9.544
  608POPC   PO410416  20.318   4.930   9.525
  608POPC   GL110417  19.982   4.893   9.204
  608POPC   GL210418  19.934   5.255   9.094
  608POPC   C1A10419  19.725   4.894   8.810
  608POPC   D2A10420  19.863   5.086   8.429
  608POPC   C3A10421  19.767   4.852   8.034
  608POPC   C4A10422  19.570   4.845   7.615
  608POPC   C1B10423  19.630   5.411   8.766
  608POPC   C2B10424  19.451   5.455   8.403
  608POPC   C3B10425  19.638   5.345   8.032
  608POPC   C4B10426  19.498   5.350   7.649
  609POPC   NC310427  44.125  10.416   9.866
  609POPC   PO410428  43.609  10.484   9.490
  609POPC   GL110429  44.029  10.397   9.248
  609POPC   GL210430  43.825  10.347   9.016
  609POPC   C1A10431  44.196  10.572   8.784
  609POPC   D2A10432  44.034  10.635   8.348
  609POPC   C3A10433  44.029  10.413   7.942
  609POPC   C4A10434  44.094  10.650   7.551
  609POPC   C1B10435  43.674  10.433   8.651
  609POPC   C2B10436  43.731  10.196   8.308
  609POPC   C3B10437  43.571  10.124   7.916
  609POPC   C4B10438  43.576  10.491   7.696
  610POPC   NC310439  42.032  29.855   9.529
  610POPC   PO410440  42.497  29.354   9.516
  610POPC   GL110441  42.376  29.662   9.202
  610POPC   GL210442  42.483  30.012   9.259
  610POPC   C1A10443  42.345  29.771   8.762
  610POPC   D2A10444  42.287  29.588   8.356
  610POPC   C3A10445  42.094  29.791   8.018
  610POPC   C4A10446  42.158  30.196   7.841
  610POPC   C1B10447  42.812  29.843   8.966
  610POPC   C2B10448  42.804  29.870   8.492
  610POPC   C3B10449  42.616  29.963   8.085
  610POPC   C4B10450  42.503  29.873   7.664
  611POPC   NC310451  22.759  41.496   9.498
  611POPC   PO410452  23.362  41.781   9.504
  611POPC   GL110453  23.112  41.759   9.153
  611POPC   GL210454  23.058  41.397   9.099
  611POPC   C1A10455  23.003  41.860   8.735
  611POPC   D2A10456  23.011  41.618   8.361
  611POPC   C3A10457  23.058  41.756   7.951
  611POPC   C4A10458  22.762  41.433   7.843
  611POPC   C1B10459  23.290  41.416   8.747
  611POPC   C2B10460  23.490  41.462   8.342
  611POPC   C3B10461  23.290  41.305   8.009
  611POPC   C4B10462  23.196  41.341   7.604
  612POPC   NC310463  41.302   2.018   9.384
  612POPC   PO410464  41.777   1.503   9.495
  612POPC   GL110465  41.689   1.773   9.167
  612POPC   GL210466  41.916   1.996   9.109
  612POPC   C1A10467  41.561   1.936   8.771
  612POPC   D2A10468  41.556   1.764   8.405
  612POPC   C3A10469  41.398   2.068   8.189
  612POPC   C4A10470  41.321   2.114   7.752
  612POPC   C1B10471  42.074   1.941   8.701
  612POPC   C2B10472  41.928   2.078   8.302
  612POPC   C3B10473  41.780   1.894   7.907
  612POPC   C4B10474  41.669   1.909   7.467
  613POPC   NC310475   5.889  36.520   9.366
  613POPC   PO410476   5.429  36.014   9.440
  613POPC   GL110477   5.855  36.030   9.206
  613POPC   GL210478   5.673  36.199   8.983
  613POPC   C1A10479   6.135  36.132   8.790
  613POPC   D2A10480   5.904  36.132   8.377
  613POPC   C3A10481   6.000  36.187   7.911
  613POPC   C4A10482   6.190  35.863   7.632
  613POPC   C1B10483   5.478  36.440   8.683
  613POPC   C2B10484   5.412  36.342   8.266
  613POPC   C3B10485   5.605  36.557   7.933
  613POPC   C4B10486   5.748  36.553   7.526
  614POPC   NC310487  44.745  27.463   9.945
  614POPC   PO410488   0.117  27.792   9.457
  614POPC   GL110489  44.760  27.832   9.211
  614POPC   GL210490  44.737  27.488   9.199
  614POPC   C1A10491  44.636  27.775   8.781
  614POPC   D2A10492  44.809  27.584   8.437
  614POPC   C3A10493  44.735  27.835   8.092
  614POPC   C4A10494  44.901  27.871   7.713
  614POPC   C1B10495  44.487  27.300   8.891
  614POPC   C2B10496  44.319  27.423   8.520
  614POPC   C3B10497  44.195  27.374   8.114
  614POPC   C4B10498  44.425  27.514   7.798
  615POPC   NC310499  29.535  35.882   9.416
  615POPC   PO410500  28.932  35.992   9.304
  615POPC   GL110501  29.215  36.157   9.071
  615POPC   GL210502  29.057  36.458   9.031
  615POPC   C1A10503  29.155  36.031   8.670
  615POPC   D2A10504  28.789  36.106   8.369
  615POPC   C3A10505  28.941  36.059   7.950
  615POPC   C4A10506  29.304  35.855   7.802
  615POPC   C1B10507  29.059  36.506   8.586
  615POPC   C2B10508  29.273  36.298   8.256
  615POPC   C3B10509  29.333  36.374   7.840
  615POPC   C4B10510  29.382  36.438   7.370
  616POPC   NC310511  20.813  16.776   9.421
  616POPC   PO410512  21.494  16.569   9.527
  616POPC   GL110513  21.409  16.821   9.215
  616POPC   GL210514  21.257  16.546   9.042
  616POPC   C1A10515  21.636  16.860   8.839
  616POPC   D2A10516  21.397  16.793   8.464
  616POPC   C3A10517  21.620  16.859   8.073
  616POPC   C4A10518  21.571  17.098   7.731
  616POPC   C1B10519  21.121  16.363   8.650
  616POPC   C2B10520  21.084  16.188   8.248
  616POPC   C3B10521  21.199  16.304   7.822
  616POPC   C4B10522  21.219  16.366   7.361
  617POPC   NC310523  39.584  13.936   9.465
  617POPC   PO410524  39.301  13.315   9.554
  617POPC   GL110525  39.050  13.544   9.263
  617POPC   GL210526  39.364  13.642   9.128
  617POPC   C1A10527  38.958  13.701   8.843
  617POPC   D2A10528  39.180  13.679   8.436
  617POPC   C3A10529  38.981  13.511   8.078
  617POPC   C4A10530  38.888  13.213   7.725
  617POPC   C1B10531  39.563  13.781   8.782
  617POPC   C2B10532  39.700  13.573   8.442
  617POPC   C3B10533  39.586  13.737   8.079
  617POPC   C4B10534  39.327  13.658   7.764
  618POPC   NC310535  25.427   2.141   9.529
  618POPC   PO410536  25.042   1.643   9.463
  618POPC   GL110537  25.237   1.926   9.106
  618POPC   GL210538  25.046   2.223   9.166
  618POPC   C1A10539  25.544   2.008   8.723
  618POPC   D2A10540  25.394   2.080   8.280
  618POPC   C3A10541  25.440   1.806   7.921
  618POPC   C4A10542  25.107   1.654   7.659
  618POPC   C1B10543  25.138   2.303   8.727
  618POPC   C2B10544  25.050   2.453   8.327
  618POPC   C3B10545  25.090   2.247   7.898
  618POPC   C4B10546  25.403   2.193   7.566
  619POPC   NC310547  17.814   0.000   9.434
  619POPC   PO410548  17.576  44.432   9.488
  619POPC   GL110549  17.483  44.665   9.122
  619POPC   GL210550  17.168  44.771   9.048
  619POPC   C1A10551  17.562  44.716   8.695
  619POPC   D2A10552  17.374  44.533   8.321
  619POPC   C3A10553  17.583  44.665   7.955
  619POPC   C4A10554  17.667  44.487   7.517
  619POPC   C1B10555  17.175   0.036   8.706
  619POPC   C2B10556  17.386   0.043   8.315
  619POPC   C3B10557  17.245   0.051   7.893
  619POPC   C4B10558  17.557  44.993   7.551
  620POPC   NC310559  20.360  40.301   9.848
  620POPC   PO410560  20.617  40.677   9.422
  620POPC   GL110561  20.789  40.918   9.124
  620POPC   GL210562  20.737  41.282   9.176
  620POPC   C1A10563  20.566  40.913   8.728
  620POPC   D2A10564  20.379  40.770   8.361
  620POPC   C3A10565  20.644  40.611   8.088
  620POPC   C4A10566  20.632  40.657   7.684
  620POPC   C1B10567  20.945  41.269   8.770
  620POPC   C2B10568  20.890  41.091   8.353
  620POPC   C3B10569  20.646  41.097   7.981
  620POPC   C4B10570  20.419  41.154   7.632
  621POPC   NC310571  30.498  11.328   9.430
  621POPC   PO410572  31.185  11.422   9.569
  621POPC   GL110573  30.922  11.507   9.161
  621POPC   GL210574  30.861  11.155   9.074
  621POPC   C1A10575  30.592  11.489   8.781
  621POPC   D2A10576  30.401  11.540   8.352
  621POPC   C3A10577  30.259  11.264   8.026
  621POPC   C4A10578  30.229  10.938   7.711
  621POPC   C1B10579  31.055  11.282   8.666
  621POPC   C2B10580  31.041  11.237   8.194
  621POPC   C3B10581  30.730  11.203   7.842
  621POPC   C4B10582  30.463  11.534   7.639
  622POPC   NC310583  36.765  15.830   9.494
  622POPC   PO410584  37.192  16.332   9.659
  622POPC   GL110585  37.119  16.145   9.241
  622POPC   GL210586  36.774  16.089   9.072
  622POPC   C1A10587  37.212  16.038   8.805
  622POPC   D2A10588  37.006  15.915   8.421
  622POPC   C3A10589  37.212  15.934   8.022
  622POPC   C4A10590  36.993  15.912   7.624
  622POPC   C1B10591  36.779  15.714   8.839
  622POPC   C2B10592  36.605  15.567   8.446
  622POPC   C3B10593  36.739  15.683   8.037
  622POPC   C4B10594  36.621  15.510   7.638
  623POPC   NC310595   2.644  27.052   9.531
  623POPC   PO410596   2.889  26.522   9.457
  623POPC   GL110597   2.696  26.702   9.118
  623POPC   GL210598   2.931  26.936   9.119
  623POPC   C1A10599   2.826  26.635   8.680
  623POPC   D2A10600   2.922  26.506   8.224
  623POPC   C3A10601   2.649  26.671   7.884
  623POPC   C4A10602   2.599  26.528   7.485
  623POPC   C1B10603   3.016  27.127   8.747
  623POPC   C2B10604   2.888  27.019   8.339
  623POPC   C3B10605   3.049  26.980   7.933
  623POPC   C4B10606   3.026  27.235   7.581
  624POPC   NC310607  38.885  25.977   9.468
  624POPC   PO410608  39.533  26.101   9.529
  624POPC   GL110609  39.359  25.852   9.176
  624POPC   GL210610  39.220  26.132   9.076
  624POPC   C1A10611  39.039  25.686   8.841
  624POPC   D2A10612  38.834  25.701   8.398
  624POPC   C3A10613  39.107  25.788   8.017
  624POPC   C4A10614  38.947  25.971   7.610
  624POPC   C1B10615  39.359  26.036   8.679
  624POPC   C2B10616  39.089  26.171   8.354
  624POPC   C3B10617  39.179  26.309   7.914
  624POPC   C4B10618  39.391  26.164   7.490
  625POPC   NC310619  41.793  41.327   9.588
  625POPC   PO410620  41.381  40.758   9.447
  625POPC   GL110621  41.677  40.975   9.210
  625POPC   GL210622  41.430  41.222   9.173
  625POPC   C1A10623  41.849  40.780   8.832
  625POPC   D2A10624  41.627  40.641   8.474
  625POPC   C3A10625  41.754  40.730   8.078
  625POPC   C4A10626  41.602  40.488   7.742
  625POPC   C1B10627  41.360  40.977   8.782
  625POPC   C2B10628  41.291  41.092   8.351
  625POPC   C3B10629  41.296  40.907   7.971
  625POPC   C4B10630  41.450  41.021   7.602
  626POPC   NC310631  30.618   6.328   9.507
  626POPC   PO410632  30.794   6.896   9.442
  626POPC   GL110633  30.842   6.616   9.116
  626POPC   GL210634  30.509   6.491   9.042
  626POPC   C1A10635  30.868   6.612   8.675
  626POPC   D2A10636  30.627   6.851   8.382
  626POPC   C3A10637  30.896   6.893   8.039
  626POPC   C4A10638  30.988   6.689   7.634
  626POPC   C1B10639  30.593   6.176   8.758
  626POPC   C2B10640  30.471   6.306   8.351
  626POPC   C3B10641  30.542   6.512   7.958
  626POPC   C4B10642  30.556   6.416   7.532
  627POPC   NC310643  22.438   5.412   9.513
  627POPC   PO410644  22.163   6.056   9.530
  627POPC   GL110645  22.291   6.034   9.132
  627POPC   GL210646  22.196   5.733   8.985
  627POPC   C1A10647  22.395   6.146   8.707
  627POPC   D2A10648  22.122   5.944   8.451
  627POPC   C3A10649  22.243   5.838   8.057
  627POPC   C4A10650  22.269   5.801   7.631
  627POPC   C1B10651  21.843   5.628   8.729
  627POPC   C2B10652  21.822   5.550   8.256
  627POPC   C3B10653  21.812   5.748   7.821
  627POPC   C4B10654  21.852   5.532   7.404
  628POPC   NC310655  26.378   2.447   9.472
  628POPC   PO410656  27.082   2.605   9.502
  628POPC   GL110657  26.977   2.631   9.051
  628POPC   GL210658  26.645   2.640   9.092
  628POPC   C1A10659  26.875   2.804   8.629
  628POPC   D2A10660  26.801   2.965   8.187
  628POPC   C3A10661  27.015   2.737   7.836
  628POPC   C4A10662  27.004   2.702   7.370
  628POPC   C1B10663  26.400   2.612   8.760
  628POPC   C2B10664  26.438   2.610   8.367
  628POPC   C3B10665  26.571   2.523   7.975
  628POPC   C4B10666  26.527   2.708   7.555
  629POPC   NC310667  22.549  10.011   9.473
  629POPC   PO410668  22.808   9.428   9.762
  629POPC   GL110669  22.888   9.708   9.277
  629POPC   GL210670  23.188   9.893   9.190
  629POPC   C1A10671  22.894   9.736   8.801
  629POPC   D2A10672  22.771   9.609   8.371
  629POPC   C3A10673  23.088   9.689   8.038
  629POPC   C4A10674  22.920   9.577   7.632
  629POPC   C1B10675  23.228  10.134   8.823
  629POPC   C2B10676  23.186  10.013   8.416
  629POPC   C3B10677  23.299  10.185   8.012
  629POPC   C4B10678  23.101  10.075   7.638
  630POPC   NC310679   4.747   9.008   9.555
  630POPC   PO410680   5.300   8.779   9.911
  630POPC   GL110681   5.193   8.816   9.379
  630POPC   GL210682   5.084   9.139   9.194
  630POPC   C1A10683   5.265   8.778   8.885
  630POPC   D2A10684   5.174   9.010   8.466
  630POPC   C3A10685   5.041   8.857   8.043
  630POPC   C4A10686   5.160   8.691   7.623
  630POPC   C1B10687   4.958   9.343   8.812
  630POPC   C2B10688   4.871   9.440   8.404
  630POPC   C3B10689   4.767   9.309   8.006
  630POPC   C4B10690   4.853   9.102   7.626
  631POPC   NC310691   5.539  34.589   9.579
  631POPC   PO410692   5.894  35.135   9.547
  631POPC   GL110693   5.984  34.841   9.214
  631POPC   GL210694   6.030  34.488   9.308
  631POPC   C1A10695   5.797  34.731   8.824
  631POPC   D2A10696   5.894  34.509   8.449
  631POPC   C3A10697   5.645  34.489   8.087
  631POPC   C4A10698   5.866  34.718   7.791
  631POPC   C1B10699   6.172  34.360   8.882
  631POPC   C2B10700   6.338  34.261   8.463
  631POPC   C3B10701   6.183  34.268   8.040
  631POPC   C4B10702   6.154  34.360   7.588
  632POPC   NC310703  35.917   6.249   9.540
  632POPC   PO410704  36.031   5.567   9.511
  632POPC   GL110705  36.087   5.797   9.095
  632POPC   GL210706  36.416   5.837   8.974
  632POPC   C1A10707  36.057   5.952   8.647
  632POPC   D2A10708  36.126   5.694   8.274
  632POPC   C3A10709  35.758   5.765   8.006
  632POPC   C4A10710  35.615   6.187   7.844
  632POPC   C1B10711  36.547   5.786   8.571
  632POPC   C2B10712  36.594   6.010   8.226
  632POPC   C3B10713  36.372   5.922   7.867
  632POPC   C4B10714  36.491   5.894   7.451
  633POPC   NC310715  21.916  28.559   9.339
  633POPC   PO410716  21.604  28.037   9.551
  633POPC   GL110717  21.395  28.295   9.179
  633POPC   GL210718  21.022  28.427   9.179
  633POPC   C1A10719  21.448  28.329   8.706
  633POPC   D2A10720  21.391  28.530   8.284
  633POPC   C3A10721  21.545  28.343   7.874
  633POPC   C4A10722  21.846  28.450   7.536
  633POPC   C1B10723  20.985  28.529   8.723
  633POPC   C2B10724  20.875  28.593   8.284
  633POPC   C3B10725  21.049  28.435   7.898
  633POPC   C4B10726  21.109  28.142   7.548
  634POPC   NC310727   0.738  21.816   9.475
  634POPC   PO410728   0.427  22.502   9.488
  634POPC   GL110729   0.680  22.270   9.220
  634POPC   GL210730   0.766  22.528   9.016
  634POPC   C1A10731   0.682  22.034   8.870
  634POPC   D2A10732   0.402  21.925   8.551
  634POPC   C3A10733   0.563  21.734   8.189
  634POPC   C4A10734   0.329  21.928   7.883
  634POPC   C1B10735   0.329  22.438   8.819
  634POPC   C2B10736   0.176  22.557   8.375
  634POPC   C3B10737   0.295  22.509   7.914
  634POPC   C4B10738   0.313  22.572   7.441
  635POPC   NC310739  42.002  36.773   9.389
  635POPC   PO410740  42.508  37.068   9.631
  635POPC   GL110741  42.460  37.029   9.212
  635POPC   GL210742  42.408  37.365   9.159
  635POPC   C1A10743  42.295  36.889   8.809
  635POPC   D2A10744  42.087  36.899   8.414
  635POPC   C3A10745  42.269  36.827   8.031
  635POPC   C4A10746  42.060  36.984   7.713
  635POPC   C1B10747  42.664  37.273   8.796
  635POPC   C2B10748  42.627  37.026   8.441
  635POPC   C3B10749  42.589  37.203   8.089
  635POPC   C4B10750  42.644  37.130   7.689
  636POPC   NC310751  20.236  27.204   9.990
  636POPC   PO410752  19.861  27.709   9.583
  636POPC   GL110753  19.525  27.719   9.255
  636POPC   GL210754  19.588  27.406   9.103
  636POPC   C1A10755  19.442  27.769   8.785
  636POPC   D2A10756  19.607  27.544   8.417
  636POPC   C3A10757  19.632  27.737   8.029
  636POPC   C4A10758  19.887  27.713   7.683
  636POPC   C1B10759  19.910  27.409   8.809
  636POPC   C2B10760  20.071  27.245   8.408
  636POPC   C3B10761  20.085  27.335   7.956
  636POPC   C4B10762  20.145  27.286   7.479
  637POPC   NC310763  44.262  19.950   9.393
  637POPC   PO410764  44.930  19.862   9.570
  637POPC   GL110765  44.754  19.872   9.208
  637POPC   GL210766  44.673  20.238   9.287
  637POPC   C1A10767  44.684  19.629   8.806
  637POPC   D2A10768  44.966  19.424   8.498
  637POPC   C3A10769  44.855  19.435   8.062
  637POPC   C4A10770  44.536  19.597   7.768
  637POPC   C1B10771  44.571  20.146   8.839
  637POPC   C2B10772  44.346  20.060   8.511
  637POPC   C3B10773  44.387  19.967   8.111
  637POPC   C4B10774  44.435  20.102   7.739
  638POPC   NC310775   3.226  25.060   9.361
  638POPC   PO410776   3.495  24.481   9.657
  638POPC   GL110777   3.488  24.341   9.239
  638POPC   GL210778   3.256  24.587   9.157
  638POPC   C1A10779   3.534  24.266   8.789
  638POPC   D2A10780   3.714  24.531   8.441
  638POPC   C3A10781   3.582  24.381   8.014
  638POPC   C4A10782   3.875  24.150   7.731
  638POPC   C1B10783   3.296  24.740   8.745
  638POPC   C2B10784   3.252  24.691   8.300
  638POPC   C3B10785   3.085  24.678   7.893
  638POPC   C4B10786   3.255  24.667   7.457
  639POPC   NC310787   4.761  28.843   9.507
  639POPC   PO410788   5.328  29.245   9.458
  639POPC   GL110789   5.024  29.185   9.152
  639POPC   GL210790   5.019  28.866   9.077
  639POPC   C1A10791   5.170  29.183   8.708
  639POPC   D2A10792   5.025  29.348   8.358
  639POPC   C3A10793   5.117  29.136   8.012
  639POPC   C4A10794   4.842  29.171   7.691
  639POPC   C1B10795   5.176  28.644   8.744
  639POPC   C2B10796   5.286  28.707   8.326
  639POPC   C3B10797   5.071  28.633   7.966
  639POPC   C4B10798   5.201  28.815   7.598
  640POPC   NC310799  17.109   3.435   9.811
  640POPC   PO410800  16.502   3.488   9.575
  640POPC   GL110801  16.756   3.412   9.170
  640POPC   GL210802  16.992   3.686   9.061
  640POPC   C1A10803  16.761   3.417   8.698
  640POPC   D2A10804  16.834   3.237   8.291
  640POPC   C3A10805  16.817   3.525   7.944
  640POPC   C4A10806  16.426   3.707   7.807
  640POPC   C1B10807  17.235   3.785   8.745
  640POPC   C2B10808  17.073   3.707   8.369
  640POPC   C3B10809  17.214   3.859   8.009
  640POPC   C4B10810  17.325   3.683   7.654
  641POPC   NC310811  33.291  41.728   9.706
  641POPC   PO410812  33.760  41.386   9.519
  641POPC   GL110813  33.873  41.328   9.070
  641POPC   GL210814  33.599  41.163   8.971
  641POPC   C1A10815  33.996  41.561   8.705
  641POPC   D2A10816  34.000  41.493   8.274
  641POPC   C3A10817  33.732  41.575   7.932
  641POPC   C4A10818  33.822  41.516   7.468
  641POPC   C1B10819  33.611  41.206   8.531
  641POPC   C2B10820  33.629  41.097   8.120
  641POPC   C3B10821  33.507  41.178   7.689
  641POPC   C4B10822  33.295  41.472   7.383
  642POPC   NC310823   9.015  21.069   9.501
  642POPC   PO410824   8.347  21.269   9.534
  642POPC   GL110825   8.517  21.436   9.145
  642POPC   GL210826   8.881  21.423   9.132
  642POPC   C1A10827   8.585  21.328   8.714
  642POPC   D2A10828   8.808  21.388   8.311
  642POPC   C3A10829   8.598  21.358   7.908
  642POPC   C4A10830   8.670  21.533   7.502
  642POPC   C1B10831   8.995  21.643   8.731
  642POPC   C2B10832   9.168  21.756   8.314
  642POPC   C3B10833   9.032  21.640   7.882
  642POPC   C4B10834   9.231  21.705   7.468
  643POPC   NC310835  27.440  32.674   9.546
  643POPC   PO410836  27.817  32.149   9.560
  643POPC   GL110837  27.617  32.277   9.209
  643POPC   GL210838  27.507  31.951   9.142
  643POPC   C1A10839  27.597  32.280   8.772
  643POPC   D2A10840  27.567  32.029   8.419
  643POPC   C3A10841  27.548  32.272   8.092
  643POPC   C4A10842  27.551  32.153   7.692
  643POPC   C1B10843  27.857  31.853   8.801
  643POPC   C2B10844  28.056  31.858   8.383
  643POPC   C3B10845  27.943  31.961   7.954
  643POPC   C4B10846  28.008  32.085   7.483
  644POPC   NC310847   7.769  22.324   9.546
  644POPC   PO410848   7.031  22.459   9.474
  644POPC   GL110849   7.170  22.161   9.125
  644POPC   GL210850   7.379  21.886   9.208
  644POPC   C1A10851   7.253  22.105   8.681
  644POPC   D2A10852   7.217  21.973   8.254
  644POPC   C3A10853   7.304  22.282   7.984
  644POPC   C4A10854   7.646  22.315   7.741
  644POPC   C1B10855   7.676  21.857   8.853
  644POPC   C2B10856   7.693  21.971   8.424
  644POPC   C3B10857   7.682  21.878   7.995
  644POPC   C4B10858   7.860  21.851   7.616
  645POPC   NC310859  28.847  27.696   9.521
  645POPC   PO410860  29.501  27.357   9.417
  645POPC   GL110861  29.311  27.484   9.078
  645POPC   GL210862  29.276  27.822   9.219
  645POPC   C1A10863  29.332  27.453   8.620
  645POPC   D2A10864  29.068  27.411   8.243
  645POPC   C3A10865  29.101  27.419   7.786
  645POPC   C4A10866  29.467  27.528   7.549
  645POPC   C1B10867  29.038  27.844   8.834
  645POPC   C2B10868  28.899  27.926   8.425
  645POPC   C3B10869  29.094  27.891   8.021
  645POPC   C4B10870  28.897  27.918   7.634
  646POPC   NC310871  15.655  15.124   9.521
  646POPC   PO410872  16.134  14.864   9.819
  646POPC   GL110873  16.010  14.879   9.282
  646POPC   GL210874  15.980  15.242   9.151
  646POPC   C1A10875  15.965  14.899   8.788
  646POPC   D2A10876  15.978  15.221   8.444
  646POPC   C3A10877  15.994  15.107   8.002
  646POPC   C4A10878  16.271  15.265   7.655
  646POPC   C1B10879  15.658  15.366   8.852
  646POPC   C2B10880  15.587  15.568   8.456
  646POPC   C3B10881  15.687  15.674   8.028
  646POPC   C4B10882  15.809  15.443   7.671
  647POPC   NC310883  24.328  28.971   9.510
  647POPC   PO410884  24.726  29.499   9.525
  647POPC   GL110885  24.552  29.286   9.177
  647POPC   GL210886  24.759  29.027   9.028
  647POPC   C1A10887  24.225  29.219   8.857
  647POPC   D2A10888  24.067  29.136   8.459
  647POPC   C3A10889  24.378  29.011   8.157
  647POPC   C4A10890  24.493  28.847   7.754
  647POPC   C1B10891  24.727  29.398   8.698
  647POPC   C2B10892  24.517  29.534   8.280
  647POPC   C3B10893  24.443  29.385   7.818
  647POPC   C4B10894  24.685  29.210   7.460
  648POPC   NC310895  14.946  34.080   9.413
  648POPC   PO410896  15.427  33.552   9.515
  648POPC   GL110897  15.261  33.739   9.174
  648POPC   GL210898  14.947  33.591   9.215
  648POPC   C1A10899  15.184  33.860   8.731
  648POPC   D2A10900  15.445  33.739   8.375
  648POPC   C3A10901  15.359  33.924   7.970
  648POPC   C4A10902  15.047  34.028   7.681
  648POPC   C1B10903  15.114  33.366   8.858
  648POPC   C2B10904  15.009  33.442   8.419
  648POPC   C3B10905  15.236  33.403   8.030
  648POPC   C4B10906  15.254  33.548   7.618
  649POPC   NC310907  21.565  20.577   9.416
  649POPC   PO410908  20.853  20.734   9.435
  649POPC   GL110909  21.159  20.767   9.128
  649POPC   GL210910  21.082  20.461   9.011
  649POPC   C1A10911  21.352  20.954   8.734
  649POPC   D2A10912  21.566  20.779   8.341
  649POPC   C3A10913  21.469  20.948   7.915
  649POPC   C4A10914  21.207  20.802   7.563
  649POPC   C1B10915  21.283  20.456   8.669
  649POPC   C2B10916  21.134  20.378   8.299
  649POPC   C3B10917  21.284  20.457   7.942
  649POPC   C4B10918  21.220  20.256   7.581
  650POPC   NC310919   8.707  39.777   9.405
  650POPC   PO410920   8.019  40.001   9.524
  650POPC   GL110921   8.149  40.091   9.136
  650POPC   GL210922   8.276  39.757   9.094
  650POPC   C1A10923   8.067  40.050   8.698
  650POPC   D2A10924   8.216  39.774   8.386
  650POPC   C3A10925   8.242  39.915   7.982
  650POPC   C4A10926   8.178  39.727   7.575
  650POPC   C1B10927   8.531  39.922   8.788
  650POPC   C2B10928   8.549  40.187   8.448
  650POPC   C3B10929   8.709  40.206   8.049
  650POPC   C4B10930   8.586  40.086   7.639
  651POPC   NC310931  33.261  37.759   9.734
  651POPC   PO410932  32.611  37.660   9.472
  651POPC   GL110933  32.914  37.592   9.134
  651POPC   GL210934  33.168  37.863   9.194
  651POPC   C1A10935  32.926  37.428   8.678
  651POPC   D2A10936  33.130  37.670   8.330
  651POPC   C3A10937  33.029  37.643   7.884
  651POPC   C4A10938  33.141  37.782   7.445
  651POPC   C1B10939  33.353  37.680   8.825
  651POPC   C2B10940  33.464  37.323   8.572
  651POPC   C3B10941  33.393  37.258   8.145
  651POPC   C4B10942  33.526  37.551   7.801
  652POPC   NC310943  39.890  33.305   9.278
  652POPC   PO410944  40.184  33.913   9.568
  652POPC   GL110945  39.985  33.842   9.145
  652POPC   GL210946  39.729  33.631   8.930
  652POPC   C1A10947  39.965  34.047   8.761
  652POPC   D2A10948  40.101  34.200   8.377
  652POPC   C3A10949  39.958  33.893   8.119
  652POPC   C4A10950  39.991  33.935   7.719
  652POPC   C1B10951  40.180  33.559   8.755
  652POPC   C2B10952  40.296  33.324   8.380
  652POPC   C3B10953  40.260  33.509   7.971
  652POPC   C4B10954  39.889  33.439   7.792
  653POPC   NC310955  43.507   6.737   9.393
  653POPC   PO410956  44.176   6.880   9.301
  653POPC   GL110957  43.836   6.766   8.985
  653POPC   GL210958  43.701   6.412   9.022
  653POPC   C1A10959  43.737   6.616   8.551
  653POPC   D2A10960  43.616   6.349   8.189
  653POPC   C3A10961  43.760   6.576   7.836
  653POPC   C4A10962  44.125   6.845   7.868
  653POPC   C1B10963  44.157   6.378   8.834
  653POPC   C2B10964  44.391   6.299   8.451
  653POPC   C3B10965  44.199   6.355   8.047
  653POPC   C4B10966  44.264   6.184   7.645
  654POPC   NC310967  41.178   6.306   9.265
  654POPC   PO410968  41.702   6.781   9.563
  654POPC   GL110969  41.571   6.699   9.172
  654POPC   GL210970  41.672   6.356   9.172
  654POPC   C1A10971  41.639   6.909   8.757
  654POPC   D2A10972  41.399   7.016   8.364
  654POPC   C3A10973  41.529   6.853   7.971
  654POPC   C4A10974  41.919   6.659   7.864
  654POPC   C1B10975  41.542   6.416   8.732
  654POPC   C2B10976  41.702   6.432   8.318
  654POPC   C3B10977  41.516   6.340   7.926
  654POPC   C4B10978  41.734   6.229   7.592
  655POPC   NC310979  37.932   4.817   9.540
  655POPC   PO410980  37.653   5.466   9.522
  655POPC   GL110981  37.877   5.320   9.168
  655POPC   GL210982  37.561   5.136   9.109
  655POPC   C1A10983  37.904   5.141   8.740
  655POPC   D2A10984  37.582   5.136   8.453
  655POPC   C3A10985  37.740   5.023   8.040
  655POPC   C4A10986  38.000   5.352   7.908
  655POPC   C1B10987  37.468   4.785   8.832
  655POPC   C2B10988  37.255   4.732   8.414
  655POPC   C3B10989  37.244   5.088   8.084
  655POPC   C4B10990  37.327   4.891   7.691
  656POPC   NC310991  35.253  21.252   9.593
  656POPC   PO410992  34.976  21.807   9.448
  656POPC   GL110993  35.308  21.545   9.141
  656POPC   GL210994  35.415  21.185   9.136
  656POPC   C1A10995  35.582  21.497   8.758
  656POPC   D2A10996  35.803  21.348   8.407
  656POPC   C3A10997  35.595  21.363   8.020
  656POPC   C4A10998  35.768  21.436   7.664
  656POPC   C1B10999  35.201  21.175   8.785
  656POPC   C2B11000  35.313  21.136   8.380
  656POPC   C3B11001  35.079  21.315   8.047
  656POPC   C4B11002  35.216  21.426   7.650
  657POPC   NC311003  33.616  28.316   9.515
  657POPC   PO411004  34.254  28.253   9.525
  657POPC   GL111005  33.960  28.406   9.146
  657POPC   GL211006  33.586  28.335   9.025
  657POPC   C1A11007  33.915  28.637   8.744
  657POPC   D2A11008  33.719  28.789   8.366
  657POPC   C3A11009  33.716  28.394   8.160
  657POPC   C4A11010  33.933  28.267   7.835
  657POPC   C1B11011  33.382  28.623   8.752
  657POPC   C2B11012  33.264  28.501   8.393
  657POPC   C3B11013  33.321  28.660   8.013
  657POPC   C4B11014  33.477  28.449   7.688
  658POPC   NC311015  13.987  31.889   9.418
  658POPC   PO411016  14.667  32.181   9.526
  658POPC   GL111017  14.477  32.072   9.146
  658POPC   GL211018  14.800  31.905   9.086
  658POPC   C1A11019  14.272  32.275   8.770
  658POPC   D2A11020  14.427  32.459   8.399
  658POPC   C3A11021  14.293  32.257   8.032
  658POPC   C4A11022  14.425  32.375   7.636
  658POPC   C1B11023  14.737  32.096   8.677
  658POPC   C2B11024  14.804  32.100   8.223
  658POPC   C3B11025  14.869  32.046   7.763
  658POPC   C4B11026  14.894  32.192   7.320
  659POPC   NC311027  26.190  36.431   9.304
  659POPC   PO411028  25.805  37.001   9.492
  659POPC   GL111029  25.964  36.847   9.145
  659POPC   GL211030  26.208  37.079   9.079
  659POPC   C1A11031  26.078  36.682   8.732
  659POPC   D2A11032  26.235  36.736   8.343
  659POPC   C3A11033  26.065  36.696   7.933
  659POPC   C4A11034  26.103  36.683   7.499
  659POPC   C1B11035  25.911  37.188   8.785
  659POPC   C2B11036  25.798  37.295   8.423
  659POPC   C3B11037  25.883  37.171   8.044
  659POPC   C4B11038  25.732  37.160   7.660
  660POPC   NC311039  43.814  19.094   9.373
  660POPC   PO411040  44.500  19.188   9.379
  660POPC   GL111041  44.173  18.910   9.046
  660POPC   GL211042  43.773  18.707   9.049
  660POPC   C1A11043  43.867  19.074   8.717
  660POPC   D2A11044  43.853  19.355   8.383
  660POPC   C3A11045  43.906  19.089   8.020
  660POPC   C4A11046  43.794  18.974   7.618
  660POPC   C1B11047  43.647  18.589   8.659
  660POPC   C2B11048  43.827  18.620   8.252
  660POPC   C3B11049  43.525  18.659   7.900
  660POPC   C4B11050  43.444  18.661   7.437
  661POPC   NC311051   6.364  25.942   9.530
  661POPC   PO411052   5.739  26.057   9.437
  661POPC   GL111053   5.994  26.129   9.145
  661POPC   GL211054   6.226  26.378   9.250
  661POPC   C1A11055   5.828  26.118   8.749
  661POPC   D2A11056   5.661  25.841   8.444
  661POPC   C3A11057   5.798  26.029   8.042
  661POPC   C4A11058   5.644  26.142   7.654
  661POPC   C1B11059   6.130  26.538   8.828
  661POPC   C2B11060   6.022  26.487   8.398
  661POPC   C3B11061   6.251  26.348   8.027
  661POPC   C4B11062   6.161  26.170   7.627
  662POPC   NC311063  32.963  39.235   9.504
  662POPC   PO411064  33.582  39.118   9.470
  662POPC   GL111065  33.760  39.157   9.073
  662POPC   GL211066  33.983  38.896   9.071
  662POPC   C1A11067  33.871  39.269   8.662
  662POPC   D2A11068  33.777  39.109   8.275
  662POPC   C3A11069  33.937  39.282   7.909
  662POPC   C4A11070  33.947  39.453   7.501
  662POPC   C1B11071  34.241  38.932   8.722
  662POPC   C2B11072  34.300  39.177   8.368
  662POPC   C3B11073  34.361  38.985   7.990
  662POPC   C4B11074  34.176  38.959   7.585
  663POPC   NC311075  39.816  12.155   9.521
  663POPC   PO411076  40.459  12.103   9.574
  663POPC   GL111077  40.194  11.851   9.292
  663POPC   GL211078  40.187  12.137   9.128
  663POPC   C1A11079  39.826  11.810   8.956
  663POPC   D2A11080  39.711  12.000   8.555
  663POPC   C3A11081  39.864  11.836   8.171
  663POPC   C4A11082  40.038  12.013   7.814
  663POPC   C1B11083  40.275  11.944   8.740
  663POPC   C2B11084  40.272  12.151   8.341
  663POPC   C3B11085  40.478  12.270   7.968
  663POPC   C4B11086  40.512  12.027   7.631
  664POPC   NC311087  38.012  28.895   9.546
  664POPC   PO411088  37.485  29.359   9.490
  664POPC   GL111089  37.806  29.234   9.202
  664POPC   GL211090  37.802  28.906   9.092
  664POPC   C1A11091  37.772  29.286   8.749
  664POPC   D2A11092  37.504  29.154   8.412
  664POPC   C3A11093  37.667  29.266   8.029
  664POPC   C4A11094  37.590  29.196   7.601
  664POPC   C1B11095  37.584  28.767   8.747
  664POPC   C2B11096  37.402  28.651   8.350
  664POPC   C3B11097  37.530  28.789   7.954
  664POPC   C4B11098  37.850  28.764   7.631
  665POPC   NC311099   5.376   0.518   9.728
  665POPC   PO411100   4.801   0.316   9.564
  665POPC   GL111101   4.945   0.455   9.199
  665POPC   GL211102   5.267   0.575   9.202
  665POPC   C1A11103   5.062   0.201   8.805
  665POPC   D2A11104   4.905   0.222   8.412
  665POPC   C3A11105   5.042   0.372   8.013
  665POPC   C4A11106   4.831   0.455   7.622
  665POPC   C1B11107   5.076   0.689   8.773
  665POPC   C2B11108   5.296   0.604   8.406
  665POPC   C3B11109   5.375   0.761   7.998
  665POPC   C4B11110   5.129   0.849   7.664
  666POPC   NC311111  33.337   8.490   9.283
  666POPC   PO411112  32.991   8.997   9.668
  666POPC   GL111113  32.940   9.096   9.204
  666POPC   GL211114  32.659   9.303   9.085
  666POPC   C1A11115  33.022   8.927   8.765
  666POPC   D2A11116  33.053   9.085   8.317
  666POPC   C3A11117  33.075   8.802   7.929
  666POPC   C4A11118  33.477   8.627   7.749
  666POPC   C1B11119  32.573   9.168   8.711
  666POPC   C2B11120  32.567   8.949   8.347
  666POPC   C3B11121  32.632   9.077   7.923
  666POPC   C4B11122  32.851   9.124   7.472
  667POPC   NC311123  34.017   3.819   9.671
  667POPC   PO411124  33.791   3.308   9.384
  667POPC   GL111125  33.734   3.633   9.101
  667POPC   GL211126  33.472   3.602   8.969
  667POPC   C1A11127  33.868   3.578   8.648
  667POPC   D2A11128  33.671   3.756   8.291
  667POPC   C3A11129  33.810   3.627   7.888
  667POPC   C4A11130  33.561   3.745   7.595
  667POPC   C1B11131  33.574   3.185   8.809
  667POPC   C2B11132  33.597   3.156   8.397
  667POPC   C3B11133  33.437   3.339   8.053
  667POPC   C4B11134  33.524   3.216   7.643
  668POPC   NC311135   4.271  27.979   9.397
  668POPC   PO411136   4.294  28.678   9.517
  668POPC   GL111137   4.124  28.540   9.118
  668POPC   GL211138   4.259  28.250   8.960
  668POPC   C1A11139   4.169  28.693   8.688
  668POPC   D2A11140   4.279  28.531   8.275
  668POPC   C3A11141   4.169  28.517   7.819
  668POPC   C4A11142   4.373  28.268   7.447
  668POPC   C1B11143   3.836  28.111   8.897
  668POPC   C2B11144   3.777  28.023   8.475
  668POPC   C3B11145   4.071  28.076   8.148
  668POPC   C4B11146   4.037  27.997   7.743
  669POPC   NC311147  34.273  11.850   9.402
  669POPC   PO411148  33.615  11.778   9.555
  669POPC   GL111149  33.516  11.918   9.142
  669POPC   GL211150  33.836  12.072   9.073
  669POPC   C1A11151  33.600  11.788   8.714
  669POPC   D2A11152  33.827  12.014   8.417
  669POPC   C3A11153  33.619  11.997   8.062
  669POPC   C4A11154  33.855  12.083   7.710
  669POPC   C1B11155  33.891  12.386   8.749
  669POPC   C2B11156  34.113  12.488   8.346
  669POPC   C3B11157  34.098  12.492   7.900
  669POPC   C4B11158  33.889  12.676   7.567
  670POPC   NC311159  12.125  25.391   9.589
  670POPC   PO411160  11.743  24.878   9.448
  670POPC   GL111161  12.013  25.096   9.108
  670POPC   GL211162  12.203  25.426   9.072
  670POPC   C1A11163  11.941  25.202   8.689
  670POPC   D2A11164  11.898  25.547   8.452
  670POPC   C3A11165  11.994  25.376   8.063
  670POPC   C4A11166  12.011  25.060   7.751
  670POPC   C1B11167  12.451  25.146   8.783
  670POPC   C2B11168  12.459  25.049   8.342
  670POPC   C3B11169  12.475  25.232   7.908
  670POPC   C4B11170  12.398  25.273   7.448
  671POPC   NC311171   0.683  13.729   9.425
  671POPC   PO411172   0.153  13.345   9.518
  671POPC   GL111173   0.246  13.377   9.097
  671POPC   GL211174   0.415  13.711   8.967
  671POPC   C1A11175   0.179  13.372   8.683
  671POPC   D2A11176   0.369  13.677   8.436
  671POPC   C3A11177   0.303  13.623   7.996
  671POPC   C4A11178   0.647  13.743   7.727
  671POPC   C1B11179   0.073  13.941   8.770
  671POPC   C2B11180  44.941  14.182   8.433
  671POPC   C3B11181  44.993  14.048   8.024
  671POPC   C4B11182   0.035  13.837   7.601
  672POPC   NC311183  16.037  25.403   9.625
  672POPC   PO411184  15.333  25.328   9.584
  672POPC   GL111185  15.726  25.293   9.193
  672POPC   GL211186  16.113  25.340   9.143
  672POPC   C1A11187  15.924  25.097   8.763
  672POPC   D2A11188  15.987  25.302   8.355
  672POPC   C3A11189  15.953  25.012   7.966
  672POPC   C4A11190  15.889  25.040   7.514
  672POPC   C1B11191  16.406  25.353   8.801
  672POPC   C2B11192  16.468  25.466   8.393
  672POPC   C3B11193  16.357  25.315   8.005
  672POPC   C4B11194  16.356  25.189   7.602
  673POPC   NC311195  38.198   1.618   9.593
  673POPC   PO411196  38.523   1.042   9.733
  673POPC   GL111197  38.489   1.271   9.302
  673POPC   GL211198  38.701   1.024   9.139
  673POPC   C1A11199  38.283   1.414   8.877
  673POPC   D2A11200  38.116   1.311   8.442
  673POPC   C3A11201  38.311   1.432   8.054
  673POPC   C4A11202  38.473   1.472   7.660
  673POPC   C1B11203  38.481   0.963   8.758
  673POPC   C2B11204  38.551   0.842   8.331
  673POPC   C3B11205  38.492   0.973   7.908
  673POPC   C4B11206  38.673   1.041   7.504
  674POPC   NC311207  15.303   7.213   9.461
  674POPC   PO411208  14.914   7.791   9.489
  674POPC   GL111209  15.040   7.587   9.140
  674POPC   GL211210  15.417   7.582   9.098
  674POPC   C1A11211  15.130   7.249   8.836
  674POPC   D2A11212  15.297   7.216   8.423
  674POPC   C3A11213  15.051   7.049   8.069
  674POPC   C4A11214  15.312   7.197   7.748
  674POPC   C1B11215  15.257   7.731   8.718
  674POPC   C2B11216  14.942   7.622   8.436
  674POPC   C3B11217  15.017   7.558   8.030
  674POPC   C4B11218  15.110   7.724   7.657
  675POPC   NC311219   2.569  33.560   9.327
  675POPC   PO411220   3.217  33.420   9.297
  675POPC   GL111221   2.968  33.598   9.005
  675POPC   GL211222   2.826  33.920   9.048
  675POPC   C1A11223   2.965  33.658   8.584
  675POPC   D2A11224   3.284  33.608   8.314
  675POPC   C3A11225   3.019  33.532   7.965
  675POPC   C4A11226   2.570  33.539   7.842
  675POPC   C1B11227   2.540  33.934   8.682
  675POPC   C2B11228   2.627  33.860   8.225
  675POPC   C3B11229   2.473  34.038   7.795
  675POPC   C4B11230   2.624  34.203   7.333
  676POPC   NC311231  41.654  27.196   9.408
  676POPC   PO411232  41.380  27.821   9.629
  676POPC   GL111233  41.493  27.673   9.216
  676POPC   GL211234  41.820  27.723   9.164
  676POPC   C1A11235  41.542  27.428   8.820
  676POPC   D2A11236  41.239  27.336   8.551
  676POPC   C3A11237  41.224  27.558   8.211
  676POPC   C4A11238  41.373  27.575   7.818
  676POPC   C1B11239  41.697  27.905   8.764
  676POPC   C2B11240  41.715  27.722   8.360
  676POPC   C3B11241  41.745  27.884   7.951
  676POPC   C4B11242  41.831  27.941   7.500
  677POPC   NC311243  25.646  21.910   9.509
  677POPC   PO411244  26.200  22.154   9.669
  677POPC   GL111245  26.088  22.115   9.236
  677POPC   GL211246  26.127  22.471   9.146
  677POPC   C1A11247  26.155  21.948   8.811
  677POPC   D2A11248  25.952  21.941   8.416
  677POPC   C3A11249  26.176  21.917   8.018
  677POPC   C4A11250  26.118  22.008   7.543
  677POPC   C1B11251  26.257  22.457   8.702
  677POPC   C2B11252  26.141  22.403   8.263
  677POPC   C3B11253  26.194  22.405   7.827
  677POPC   C4B11254  26.181  22.489   7.341
  678POPC   NC311255  32.917  30.409   9.333
  678POPC   PO411256  33.601  30.501   9.616
  678POPC   GL111257  33.405  30.467   9.218
  678POPC   GL211258  33.191  30.775   9.108
  678POPC   C1A11259  33.396  30.372   8.784
  678POPC   D2A11260  33.145  30.409   8.368
  678POPC   C3A11261  33.299  30.210   7.957
  678POPC   C4A11262  33.358  30.222   7.465
  678POPC   C1B11263  32.906  30.696   8.746
  678POPC   C2B11264  32.683  30.763   8.359
  678POPC   C3B11265  32.997  30.871   8.060
  678POPC   C4B11266  33.203  30.653   7.748
  679POPC   NC311267  15.704  30.136   9.511
  679POPC   PO411268  16.069  29.585   9.564
  679POPC   GL111269  16.093  29.804   9.156
  679POPC   GL211270  16.140  30.164   9.202
  679POPC   C1A11271  16.292  29.763   8.740
  679POPC   D2A11272  16.088  29.871   8.357
  679POPC   C3A11273  16.208  29.717   7.970
  679POPC   C4A11274  15.956  29.941   7.737
  679POPC   C1B11275  15.962  30.165   8.775
  679POPC   C2B11276  15.853  30.339   8.366
  679POPC   C3B11277  15.586  30.223   8.013
  679POPC   C4B11278  15.626  30.297   7.562
  680POPC   NC311279  22.200  20.051   9.541
  680POPC   PO411280  22.037  19.553   9.170
  680POPC   GL111281  22.300  19.902   9.049
  680POPC   GL211282  22.062  20.201   9.067
  680POPC   C1A11283  22.392  19.799   8.631
  680POPC   D2A11284  22.216  19.729   8.210
  680POPC   C3A11285  22.377  19.866   7.815
  680POPC   C4A11286  22.018  19.831   7.527
  680POPC   C1B11287  22.338  20.311   8.714
  680POPC   C2B11288  22.444  20.193   8.297
  680POPC   C3B11289  22.133  20.262   8.006
  680POPC   C4B11290  22.166  20.304   7.591
  681POPC   NC311291  37.328  22.728   9.444
  681POPC   PO411292  38.001  22.952   9.473
  681POPC   GL111293  37.754  22.865   9.112
  681POPC   GL211294  37.428  23.038   9.073
  681POPC   C1A11295  37.677  22.800   8.673
  681POPC   D2A11296  37.602  22.622   8.272
  681POPC   C3A11297  37.964  22.592   7.983
  681POPC   C4A11298  38.069  22.987   7.802
  681POPC   C1B11299  37.277  23.159   8.690
  681POPC   C2B11300  37.552  23.208   8.351
  681POPC   C3B11301  37.526  23.064   7.956
  681POPC   C4B11302  37.212  23.143   7.648
  682POPC   NC311303  35.825  11.858   9.457
  682POPC   PO411304  36.257  12.341   9.504
  682POPC   GL111305  36.215  12.050   9.170
  682POPC   GL211306  36.442  11.808   9.090
  682POPC   C1A11307  35.974  11.931   8.799
  682POPC   D2A11308  35.817  11.816   8.383
  682POPC   C3A11309  35.928  12.071   8.031
  682POPC   C4A11310  36.073  11.960   7.654
  682POPC   C1B11311  36.510  11.978   8.727
  682POPC   C2B11312  36.299  12.112   8.384
  682POPC   C3B11313  36.446  12.021   7.988
  682POPC   C4B11314  36.490  12.244   7.601
  683POPC   NC311315  44.051  21.023   9.496
  683POPC   PO411316  44.143  20.380   9.603
  683POPC   GL111317  44.186  20.540   9.213
  683POPC   GL211318  43.820  20.565   9.195
  683POPC   C1A11319  44.096  20.560   8.752
  683POPC   D2A11320  43.703  20.370   8.544
  683POPC   C3A11321  43.619  20.387   8.077
  683POPC   C4A11322  43.940  20.549   7.760
  683POPC   C1B11323  43.634  20.808   8.851
  683POPC   C2B11324  43.597  20.968   8.412
  683POPC   C3B11325  43.602  20.894   7.965
  683POPC   C4B11326  43.729  21.064   7.567
  684POPC   NC311327  20.859  38.043   9.528
  684POPC   PO411328  20.754  37.328   9.586
  684POPC   GL111329  20.770  37.566   9.194
  684POPC   GL211330  20.604  37.871   9.115
  684POPC   C1A11331  20.792  37.423   8.757
  684POPC   D2A11332  20.920  37.600   8.332
  684POPC   C3A11333  20.577  37.750   8.036
  684POPC   C4A11334  20.587  37.665   7.582
  684POPC   C1B11335  20.810  37.922   8.717
  684POPC   C2B11336  20.895  38.100   8.282
  684POPC   C3B11337  20.876  38.049   7.781
  684POPC   C4B11338  20.989  37.864   7.319
  685POPC   NC311339  36.699   8.465   9.474
  685POPC   PO411340  36.533   7.833   9.390
  685POPC   GL111341  36.730   8.097   9.075
  685POPC   GL211342  36.982   8.389   9.034
  685POPC   C1A11343  36.546   8.362   8.759
  685POPC   D2A11344  36.683   8.478   8.341
  685POPC   C3A11345  36.951   8.204   8.106
  685POPC   C4A11346  36.868   8.092   7.691
  685POPC   C1B11347  37.133   8.357   8.591
  685POPC   C2B11348  37.295   8.576   8.203
  685POPC   C3B11349  37.221   8.482   7.748
  685POPC   C4B11350  37.390   8.568   7.293
  686POPC   NC311351  37.146  16.689   9.342
  686POPC   PO411352  37.840  16.738   9.522
  686POPC   GL111353  37.635  16.754   9.144
  686POPC   GL211354  37.453  17.061   9.199
  686POPC   C1A11355  37.489  16.605   8.722
  686POPC   D2A11356  37.206  16.391   8.406
  686POPC   C3A11357  37.365  16.437   7.996
  686POPC   C4A11358  37.666  16.598   7.715
  686POPC   C1B11359  37.564  17.120   8.770
  686POPC   C2B11360  37.474  17.275   8.358
  686POPC   C3B11361  37.480  16.967   8.067
  686POPC   C4B11362  37.342  16.979   7.652
  687POPC   NC311363  12.490  44.864   9.360
  687POPC   PO411364  13.062   0.012   9.822
  687POPC   GL111365  12.998  44.837   9.367
  687POPC   GL211366  12.816  44.520   9.199
  687POPC   C1A11367  13.023  44.861   8.881
  687POPC   D2A11368  13.061  44.571   8.507
  687POPC   C3A11369  13.175  44.666   8.058
  687POPC   C4A11370  12.975  44.903   7.735
  687POPC   C1B11371  12.629  44.445   8.801
  687POPC   C2B11372  12.612  44.334   8.345
  687POPC   C3B11373  12.751  44.401   7.878
  687POPC   C4B11374  12.701  44.562   7.415
  688POPC   NC311375  34.515  13.699   9.553
  688POPC   PO411376  34.985  13.219   9.496
  688POPC   GL111377  34.690  13.394   9.158
  688POPC   GL211378  34.384  13.586   9.089
  688POPC   C1A11379  34.736  13.582   8.735
  688POPC   D2A11380  34.656  13.424   8.356
  688POPC   C3A11381  34.910  13.624   8.056
  688POPC   C4A11382  34.725  13.694   7.691
  688POPC   C1B11383  34.224  13.377   8.746
  688POPC   C2B11384  34.143  13.567   8.345
  688POPC   C3B11385  34.308  13.567   7.960
  688POPC   C4B11386  34.238  13.638   7.496
  689POPC   NC311387   6.437   1.107   9.419
  689POPC   PO411388   6.945   1.536   9.457
  689POPC   GL111389   6.777   1.303   9.078
  689POPC   GL211390   6.382   1.195   8.946
  689POPC   C1A11391   6.695   1.453   8.682
  689POPC   D2A11392   6.538   1.251   8.390
  689POPC   C3A11393   6.686   1.344   8.043
  689POPC   C4A11394   6.849   1.328   7.693
  689POPC   C1B11395   6.616   0.882   8.749
  689POPC   C2B11396   6.392   0.732   8.406
  689POPC   C3B11397   6.365   0.928   8.013
  689POPC   C4B11398   6.681   0.856   7.703
  690POPC   NC311399  41.490  31.680   9.725
  690POPC   PO411400  41.798  31.075   9.517
  690POPC   GL111401  41.710  31.380   9.174
  690POPC   GL211402  41.498  31.687   9.204
  690POPC   C1A11403  41.849  31.268   8.752
  690POPC   D2A11404  41.746  31.158   8.339
  690POPC   C3A11405  41.785  31.457   7.994
  690POPC   C4A11406  41.687  31.463   7.538
  690POPC   C1B11407  41.350  31.446   8.827
  690POPC   C2B11408  41.255  31.324   8.385
  690POPC   C3B11409  41.273  31.436   7.939
  690POPC   C4B11410  41.043  31.784   7.715
  691POPC   NC311411  25.909  28.820   9.190
  691POPC   PO411412  26.257  28.372   9.642
  691POPC   GL111413  26.286  28.357   9.168
  691POPC   GL211414  26.036  28.444   8.906
  691POPC   C1A11415  26.468  28.254   8.741
  691POPC   D2A11416  26.471  28.433   8.320
  691POPC   C3A11417  26.274  28.334   7.925
  691POPC   C4A11418  26.042  28.612   7.696
  691POPC   C1B11419  25.989  28.056   8.754
  691POPC   C2B11420  25.979  28.196   8.343
  691POPC   C3B11421  25.754  28.310   7.974
  691POPC   C4B11422  25.847  28.141   7.571
  692POPC   NC311423   3.761  43.365   9.368
  692POPC   PO411424   3.278  43.849   9.673
  692POPC   GL111425   3.436  43.984   9.216
  692POPC   GL211426   3.734  43.812   9.114
  692POPC   C1A11427   3.417  44.063   8.767
  692POPC   D2A11428   3.734  44.060   8.415
  692POPC   C3A11429   3.598  43.863   8.055
  692POPC   C4A11430   3.556  43.961   7.629
  692POPC   C1B11431   3.710  43.603   8.691
  692POPC   C2B11432   3.938  43.521   8.304
  692POPC   C3B11433   3.862  43.473   7.844
  692POPC   C4B11434   3.987  43.717   7.489
  693POPC   NC311435  20.500  22.528   9.493
  693POPC   PO411436  20.757  23.119   9.496
  693POPC   GL111437  20.543  22.917   9.164
  693POPC   GL211438  20.697  22.651   9.038
  693POPC   C1A11439  20.360  22.980   8.773
  693POPC   D2A11440  20.595  23.097   8.419
  693POPC   C3A11441  20.423  23.135   8.024
  693POPC   C4A11442  20.585  23.137   7.613
  693POPC   C1B11443  20.555  22.508   8.644
  693POPC   C2B11444  20.532  22.636   8.218
  693POPC   C3B11445  20.650  22.668   7.805
  693POPC   C4B11446  20.749  22.401   7.457
  694POPC   NC311447   3.283  20.101   9.377
  694POPC   PO411448   3.465  20.783   9.530
  694POPC   GL111449   3.484  20.586   9.150
  694POPC   GL211450   3.765  20.325   9.175
  694POPC   C1A11451   3.520  20.753   8.724
  694POPC   D2A11452   3.812  20.662   8.383
  694POPC   C3A11453   3.610  20.465   8.059
  694POPC   C4A11454   3.678  20.429   7.648
  694POPC   C1B11455   3.552  20.235   8.773
  694POPC   C2B11456   3.188  20.372   8.539
  694POPC   C3B11457   3.047  20.178   8.168
  694POPC   C4B11458   3.279  20.142   7.762
  695POPC   NC311459  28.112  35.304   9.541
  695POPC   PO411460  28.800  35.073   9.455
  695POPC   GL111461  28.437  35.221   9.150
  695POPC   GL211462  28.133  35.490   9.067
  695POPC   C1A11463  28.306  35.141   8.727
  695POPC   D2A11464  28.272  34.943   8.341
  695POPC   C3A11465  28.564  35.045   8.055
  695POPC   C4A11466  28.457  35.303   7.742
  695POPC   C1B11467  28.290  35.648   8.660
  695POPC   C2B11468  28.300  35.470   8.229
  695POPC   C3B11469  28.052  35.570   7.851
  695POPC   C4B11470  28.174  35.902   7.526
  696POPC   NC311471  15.423  24.881   9.910
  696POPC   PO411472  14.967  24.834   9.434
  696POPC   GL111473  14.896  25.231   9.196
  696POPC   GL211474  15.207  25.418   9.121
  696POPC   C1A11475  14.918  25.322   8.737
  696POPC   D2A11476  15.052  25.021   8.435
  696POPC   C3A11477  15.084  25.151   8.007
  696POPC   C4A11478  15.027  25.079   7.549
  696POPC   C1B11479  15.424  25.210   8.763
  696POPC   C2B11480  15.544  25.063   8.365
  696POPC   C3B11481  15.579  25.328   8.044
  696POPC   C4B11482  15.465  25.281   7.665
  697POPC   NC311483   9.924  12.775   9.525
  697POPC   PO411484   9.297  12.940   9.736
  697POPC   GL111485   9.454  12.819   9.245
  697POPC   GL211486   9.784  12.611   9.070
  697POPC   C1A11487   9.465  12.852   8.765
  697POPC   D2A11488   9.753  12.784   8.395
  697POPC   C3A11489   9.843  12.824   7.943
  697POPC   C4A11490  10.071  13.214   7.792
  697POPC   C1B11491  10.115  12.623   8.725
  697POPC   C2B11492  10.134  12.406   8.292
  697POPC   C3B11493  10.192  12.421   7.831
  697POPC   C4B11494   9.967  12.608   7.462
  698POPC   NC311495  19.482  13.523   9.441
  698POPC   PO411496  20.054  13.855   9.634
  698POPC   GL111497  19.879  13.749   9.225
  698POPC   GL211498  19.579  13.894   9.111
  698POPC   C1A11499  19.881  13.607   8.797
  698POPC   D2A11500  19.963  13.752   8.395
  698POPC   C3A11501  20.086  13.494   8.105
  698POPC   C4A11502  19.956  13.505   7.702
  698POPC   C1B11503  19.379  13.718   8.759
  698POPC   C2B11504  19.465  13.759   8.341
  698POPC   C3B11505  19.452  13.563   7.944
  698POPC   C4B11506  19.389  13.781   7.566
  699POPC   NC311507  38.313  12.575   9.483
  699POPC   PO411508  38.649  13.167   9.396
  699POPC   GL111509  38.403  12.902   9.105
  699POPC   GL211510  38.642  12.633   9.093
  699POPC   C1A11511  38.288  12.701   8.695
  699POPC   D2A11512  38.281  12.536   8.246
  699POPC   C3A11513  38.245  12.854   7.912
  699POPC   C4A11514  38.372  12.816   7.467
  699POPC   C1B11515  38.974  12.495   8.817
  699POPC   C2B11516  39.038  12.587   8.356
  699POPC   C3B11517  38.743  12.693   8.009
  699POPC   C4B11518  38.825  12.601   7.560
  700POPC   NC311519  34.338  27.681   9.579
  700POPC   PO411520  33.659  27.899   9.733
  700POPC   GL111521  33.614  27.797   9.260
  700POPC   GL211522  33.900  27.578   9.155
  700POPC   C1A11523  33.442  27.833   8.819
  700POPC   D2A11524  33.514  27.645   8.396
  700POPC   C3A11525  33.642  27.829   7.970
  700POPC   C4A11526  34.027  27.794   7.697
  700POPC   C1B11527  33.693  27.341   8.806
  700POPC   C2B11528  33.789  27.176   8.410
  700POPC   C3B11529  33.983  27.191   8.058
  700POPC   C4B11530  33.767  27.336   7.765
  701POPC   NC311531  18.480  43.672   9.667
  701POPC   PO411532  18.192  44.204   9.379
  701POPC   GL111533  18.169  43.829   9.140
  701POPC   GL211534  18.509  43.850   9.126
  701POPC   C1A11535  18.204  43.821   8.678
  701POPC   D2A11536  18.219  44.077   8.332
  701POPC   C3A11537  18.295  43.894   7.939
  701POPC   C4A11538  18.519  44.171   7.772
  701POPC   C1B11539  18.719  43.841   8.731
  701POPC   C2B11540  18.654  43.796   8.303
  701POPC   C3B11541  18.494  43.445   8.067
  701POPC   C4B11542  18.064  43.399   7.854
  702POPC   NC311543  33.905  30.255   9.364
  702POPC   PO411544  33.406  29.779   9.518
  702POPC   GL111545  33.677  29.771   9.135
  702POPC   GL211546  33.940  29.497   9.132
  702POPC   C1A11547  33.805  30.025   8.755
  702POPC   D2A11548  33.609  30.158   8.379
  702POPC   C3A11549  33.629  29.846   8.102
  702POPC   C4A11550  33.521  29.798   7.712
  702POPC   C1B11551  34.094  29.555   8.740
  702POPC   C2B11552  34.063  29.774   8.365
  702POPC   C3B11553  34.236  29.757   7.977
  702POPC   C4B11554  34.017  29.637   7.641
  703POPC   NC311555  18.786  23.133   9.566
  703POPC   PO411556  19.280  22.644   9.394
  703POPC   GL111557  19.095  22.844   9.052
  703POPC   GL211558  19.091  23.161   9.171
  703POPC   C1A11559  18.764  22.737   8.722
  703POPC   D2A11560  18.700  22.616   8.321
  703POPC   C3A11561  19.091  22.595   8.131
  703POPC   C4A11562  19.227  22.844   7.828
  703POPC   C1B11563  18.918  23.238   8.779
  703POPC   C2B11564  19.065  23.059   8.397
  703POPC   C3B11565  19.277  23.303   8.042
  703POPC   C4B11566  19.410  23.247   7.569
  704POPC   NC311567   0.155   6.094   9.488
  704POPC   PO411568   0.548   5.565   9.489
  704POPC   GL111569   0.404   5.772   9.145
  704POPC   GL211570   0.251   5.434   9.059
  704POPC   C1A11571   0.499   6.073   8.783
  704POPC   D2A11572   0.459   6.330   8.379
  704POPC   C3A11573   0.417   6.095   7.986
  704POPC   C4A11574   0.072   5.867   7.836
  704POPC   C1B11575   0.499   5.526   8.702
  704POPC   C2B11576   0.363   5.535   8.288
  704POPC   C3B11577   0.509   5.592   7.892
  704POPC   C4B11578   0.365   5.532   7.483
  705POPC   NC311579  28.553   9.065   9.424
  705POPC   PO411580  27.906   8.793   9.329
  705POPC   GL111581  28.190   8.995   9.051
  705POPC   GL211582  28.462   9.231   8.947
  705POPC   C1A11583  28.173   8.939   8.635
  705POPC   D2A11584  28.183   9.116   8.260
  705POPC   C3A11585  28.157   8.835   7.949
  705POPC   C4A11586  28.438   8.908   7.675
  705POPC   C1B11587  28.667   8.863   8.784
  705POPC   C2B11588  28.536   8.644   8.412
  705POPC   C3B11589  28.703   8.657   8.028
  705POPC   C4B11590  28.943   8.840   7.681
  706POPC   NC311591  31.051   5.725   9.504
  706POPC   PO411592  30.406   5.929   9.554
  706POPC   GL111593  30.671   5.882   9.187
  706POPC   GL211594  30.950   6.110   9.186
  706POPC   C1A11595  30.524   5.665   8.831
  706POPC   D2A11596  30.361   5.791   8.450
  706POPC   C3A11597  30.469   5.546   8.092
  706POPC   C4A11598  30.805   5.572   7.802
  706POPC   C1B11599  31.113   6.175   8.824
  706POPC   C2B11600  30.974   6.096   8.418
  706POPC   C3B11601  30.764   6.032   8.031
  706POPC   C4B11602  30.970   6.148   7.658
  707POPC   NC311603   9.966  41.002   9.508
  707POPC   PO411604   9.542  40.503   9.490
  707POPC   GL111605   9.667  40.754   9.148
  707POPC   GL211606   9.550  41.101   9.139
  707POPC   C1A11607   9.683  40.822   8.718
  707POPC   D2A11608   9.551  40.617   8.376
  707POPC   C3A11609   9.791  40.720   8.025
  707POPC   C4A11610   9.552  40.708   7.679
  707POPC   C1B11611   9.281  41.137   8.787
  707POPC   C2B11612   9.333  41.259   8.354
  707POPC   C3B11613   9.396  41.110   7.968
  707POPC   C4B11614   9.471  41.183   7.550
  708POPC   NC311615  10.699  21.745   9.532
  708POPC   PO411616  10.254  21.273   9.537
  708POPC   GL111617  10.393  21.491   9.190
  708POPC   GL211618  10.700  21.380   9.148
  708POPC   C1A11619  10.329  21.362   8.773
  708POPC   D2A11620  10.262  21.098   8.435
  708POPC   C3A11621  10.322  21.369   8.099
  708POPC   C4A11622  10.372  21.268   7.708
  708POPC   C1B11623  10.870  21.309   8.747
  708POPC   C2B11624  10.757  21.191   8.345
  708POPC   C3B11625  10.833  21.341   7.902
  708POPC   C4B11626  10.797  21.525   7.477
  709POPC   NC311627  44.920  44.936   9.476
  709POPC   PO411628  44.667  44.273   9.574
  709POPC   GL111629  44.480  44.538   9.278
  709POPC   GL211630  44.808  44.598   9.107
  709POPC   C1A11631  44.386  44.475   8.832
  709POPC   D2A11632  44.708  44.534   8.502
  709POPC   C3A11633  44.469  44.643   8.135
  709POPC   C4A11634  44.439  44.566   7.714
  709POPC   C1B11635  44.519  44.952   8.960
  709POPC   C2B11636  44.446  44.971   8.546
  709POPC   C3B11637  44.794   0.015   8.262
  709POPC   C4B11638  44.779  44.976   7.824
  710POPC   NC311639  29.676  28.234   9.668
  710POPC   PO411640  30.154  27.965   9.225
  710POPC   GL111641  30.052  28.332   9.089
  710POPC   GL211642  29.731  28.302   9.166
  710POPC   C1A11643  30.124  28.504   8.689
  710POPC   D2A11644  30.292  28.418   8.280
  710POPC   C3A11645  30.140  28.532   7.890
  710POPC   C4A11646  29.986  28.205   7.598
  710POPC   C1B11647  29.631  28.377   8.726
  710POPC   C2B11648  29.750  28.543   8.305
  710POPC   C3B11649  29.630  28.488   7.855
  710POPC   C4B11650  29.385  28.741   7.529
  711POPC   NC311651   1.671  11.563   9.411
  711POPC   PO411652   1.091  11.543   9.444
  711POPC   GL111653   1.173  11.307   9.068
  711POPC   GL211654   1.313  10.939   9.078
  711POPC   C1A11655   1.017  11.411   8.666
  711POPC   D2A11656   1.286  11.597   8.346
  711POPC   C3A11657   1.087  11.478   7.993
  711POPC   C4A11658   1.227  11.337   7.617
  711POPC   C1B11659   1.090  10.901   8.713
  711POPC   C2B11660   1.166  11.045   8.313
  711POPC   C3B11661   1.097  10.785   7.988
  711POPC   C4B11662   1.093  10.845   7.583
  712POPC   NC311663  23.298   3.686   9.699
  712POPC   PO411664  22.695   3.889   9.542
  712POPC   GL111665  22.843   3.753   9.159
  712POPC   GL211666  23.103   3.518   9.193
  712POPC   C1A11667  22.765   3.839   8.740
  712POPC   D2A11668  22.565   3.704   8.370
  712POPC   C3A11669  22.905   3.765   8.126
  712POPC   C4A11670  23.057   3.710   7.751
  712POPC   C1B11671  22.939   3.323   8.803
  712POPC   C2B11672  22.794   3.261   8.358
  712POPC   C3B11673  22.780   3.304   7.908
  712POPC   C4B11674  23.112   3.203   7.620
  713POPC   NC311675  11.502   3.225   9.440
  713POPC   PO411676  11.158   3.781   9.550
  713POPC   GL111677  11.118   3.517   9.193
  713POPC   GL211678  11.182   3.800   9.023
  713POPC   C1A11679  10.984   3.384   8.758
  713POPC   D2A11680  11.096   3.590   8.335
  713POPC   C3A11681  10.998   3.405   7.931
  713POPC   C4A11682  11.245   3.290   7.554
  713POPC   C1B11683  11.421   3.618   8.734
  713POPC   C2B11684  11.618   3.703   8.409
  713POPC   C3B11685  11.522   3.856   8.013
  713POPC   C4B11686  11.274   3.789   7.660
  714POPC   NC311687   4.939  22.112   9.600
  714POPC   PO411688   5.285  22.572   9.726
  714POPC   GL111689   4.986  22.452   9.234
  714POPC   GL211690   4.998  22.009   9.117
  714POPC   C1A11691   4.710  22.275   8.844
  714POPC   D2A11692   4.785  22.022   8.452
  714POPC   C3A11693   4.857  22.243   8.057
  714POPC   C4A11694   4.998  22.448   7.677
  714POPC   C1B11695   5.234  21.978   8.730
  714POPC   C2B11696   5.302  22.068   8.304
  714POPC   C3B11697   5.325  22.127   7.868
  714POPC   C4B11698   5.268  22.081   7.374
  715POPC   NC311699  44.632   4.634   9.284
  715POPC   PO411700  44.757   5.315   9.494
  715POPC   GL111701  44.653   5.148   9.139
  715POPC   GL211702  44.974   4.958   9.102
  715POPC   C1A11703  44.710   5.201   8.712
  715POPC   D2A11704   0.051   5.145   8.465
  715POPC   C3A11705  44.865   4.945   8.122
  715POPC   C4A11706  44.606   5.188   7.858
  715POPC   C1B11707  44.945   4.676   8.698
  715POPC   C2B11708   0.010   4.462   8.267
  715POPC   C3B11709   0.074   4.572   7.838
  715POPC   C4B11710  44.776   4.797   7.578
  716POPC   NC311711  21.759  40.503   9.524
  716POPC   PO411712  22.234  40.944   9.431
  716POPC   GL111713  22.118  40.707   9.143
  716POPC   GL211714  21.803  40.856   9.129
  716POPC   C1A11715  22.361  40.741   8.781
  716POPC   D2A11716  22.401  41.008   8.455
  716POPC   C3A11717  22.454  40.743   8.060
  716POPC   C4A11718  22.393  40.645   7.636
  716POPC   C1B11719  21.904  40.918   8.729
  716POPC   C2B11720  22.005  40.700   8.352
  716POPC   C3B11721  21.981  40.855   7.934
  716POPC   C4B11722  21.867  41.097   7.602
  717POPC   NC311723  34.410   1.631   9.468
  717POPC   PO411724  34.805   1.073   9.495
  717POPC   GL111725  34.719   1.147   9.096
  717POPC   GL211726  34.642   1.494   9.040
  717POPC   C1A11727  34.495   1.010   8.779
  717POPC   D2A11728  34.313   1.203   8.459
  717POPC   C3A11729  34.412   1.029   8.083
  717POPC   C4A11730  34.249   1.077   7.709
  717POPC   C1B11731  34.754   1.518   8.621
  717POPC   C2B11732  34.736   1.413   8.197
  717POPC   C3B11733  34.640   1.405   7.761
  717POPC   C4B11734  34.806   1.265   7.362
  718POPC   NC311735  35.261   7.468   9.487
  718POPC   PO411736  35.658   7.001   9.513
  718POPC   GL111737  35.537   7.282   9.115
  718POPC   GL211738  35.542   7.672   9.094
  718POPC   C1A11739  35.408   7.372   8.700
  718POPC   D2A11740  35.388   7.102   8.367
  718POPC   C3A11741  35.315   7.298   8.006
  718POPC   C4A11742  35.578   7.478   7.746
  718POPC   C1B11743  35.602   7.852   8.714
  718POPC   C2B11744  35.518   7.698   8.287
  718POPC   C3B11745  35.638   7.936   7.928
  718POPC   C4B11746  35.843   7.846   7.536
  719POPC   NC311747  24.153  39.267   9.384
  719POPC   PO411748  23.381  39.322   9.353
  719POPC   GL111749  23.729  39.411   9.088
  719POPC   GL211750  23.850  39.074   9.005
  719POPC   C1A11751  23.737  39.561   8.673
  719POPC   D2A11752  23.745  39.322   8.303
  719POPC   C3A11753  23.407  39.338   8.021
  719POPC   C4A11754  23.209  39.006   7.809
  719POPC   C1B11755  24.124  39.223   8.644
  719POPC   C2B11756  24.161  39.014   8.252
  719POPC   C3B11757  23.836  38.978   7.937
  719POPC   C4B11758  23.869  39.413   7.798
  720POPC   NC311759  10.041  15.267   9.840
  720POPC   PO411760  10.470  15.022   9.348
  720POPC   GL111761  10.383  15.201   9.028
  720POPC   GL211762  10.041  15.302   9.047
  720POPC   C1A11763  10.438  15.074   8.628
  720POPC   D2A11764  10.277  15.096   8.256
  720POPC   C3A11765  10.654  15.020   8.061
  720POPC   C4A11766  10.706  14.939   7.671
  720POPC   C1B11767  10.230  15.543   8.683
  720POPC   C2B11768  10.331  15.751   8.296
  720POPC   C3B11769  10.516  15.530   7.962
  720POPC   C4B11770  10.266  15.207   7.762
  721POPC   NC311771  22.396  42.919   9.477
  721POPC   PO411772  21.817  43.277   9.549
  721POPC   GL111773  22.066  43.274   9.200
  721POPC   GL211774  22.017  42.936   9.126
  721POPC   C1A11775  22.210  43.274   8.779
  721POPC   D2A11776  22.275  43.438   8.379
  721POPC   C3A11777  22.223  43.087   8.117
  721POPC   C4A11778  22.174  42.951   7.718
  721POPC   C1B11779  21.800  42.915   8.752
  721POPC   C2B11780  21.853  42.722   8.376
  721POPC   C3B11781  21.716  42.689   7.990
  721POPC   C4B11782  21.634  42.789   7.573
  722POPC   NC311783  20.456  13.635   9.640
  722POPC   PO411784  20.926  13.406   9.465
  722POPC   GL111785  20.558  13.539   9.135
  722POPC   GL211786  20.360  13.871   9.114
  722POPC   C1A11787  20.387  13.572   8.684
  722POPC   D2A11788  20.473  13.797   8.283
  722POPC   C3A11789  20.568  13.538   7.913
  722POPC   C4A11790  20.792  13.397   7.548
  722POPC   C1B11791  20.253  14.074   8.676
  722POPC   C2B11792  20.122  14.200   8.225
  722POPC   C3B11793  20.216  13.934   7.853
  722POPC   C4B11794  20.379  13.716   7.477
  723POPC   NC311795   4.278  27.247   9.592
  723POPC   PO411796   3.940  27.748   9.617
  723POPC   GL111797   4.041  27.543   9.198
  723POPC   GL211798   4.411  27.426   9.119
  723POPC   C1A11799   4.177  27.715   8.778
  723POPC   D2A11800   4.381  27.644   8.413
  723POPC   C3A11801   4.276  27.613   7.991
  723POPC   C4A11802   4.528  27.813   7.675
  723POPC   C1B11803   4.514  27.218   8.697
  723POPC   C2B11804   4.486  27.184   8.232
  723POPC   C3B11805   4.640  27.293   7.825
  723POPC   C4B11806   4.317  27.345   7.525
  724POPC   NC311807  20.865  31.622   9.531
  724POPC   PO411808  21.553  31.523   9.437
  724POPC   GL111809  21.207  31.479   9.164
  724POPC   GL211810  21.400  31.238   9.017
  724POPC   C1A11811  21.230  31.677   8.761
  724POPC   D2A11812  21.051  31.893   8.441
  724POPC   C3A11813  21.097  31.757   8.020
  724POPC   C4A11814  21.218  31.459   7.761
  724POPC   C1B11815  21.193  31.177   8.659
  724POPC   C2B11816  21.364  31.379   8.286
  724POPC   C3B11817  21.618  31.239   7.926
  724POPC   C4B11818  21.416  30.964   7.635
  725POPC   NC311819  29.223  39.495   9.562
  725POPC   PO411820  29.146  38.944   9.230
  725POPC   GL111821  29.025  39.331   9.099
  725POPC   GL211822  29.358  39.454   9.039
  725POPC   C1A11823  28.939  39.276   8.687
  725POPC   D2A11824  29.062  38.877   8.429
  725POPC   C3A11825  28.965  38.937   7.988
  725POPC   C4A11826  28.934  39.307   7.732
  725POPC   C1B11827  29.433  39.132   8.703
  725POPC   C2B11828  29.304  39.311   8.314
  725POPC   C3B11829  29.401  39.261   7.907
  725POPC   C4B11830  29.419  39.067   7.533
  726POPC   NC311831  22.484  33.900   9.599
  726POPC   PO411832  21.809  33.642   9.546
  726POPC   GL111833  22.006  33.815   9.176
  726POPC   GL211834  22.238  34.088   9.171
  726POPC   C1A11835  22.188  33.805   8.767
  726POPC   D2A11836  22.050  33.810   8.400
  726POPC   C3A11837  22.286  33.719   8.078
  726POPC   C4A11838  22.227  33.840   7.646
  726POPC   C1B11839  22.572  34.132   8.849
  726POPC   C2B11840  22.573  33.973   8.409
  726POPC   C3B11841  22.464  34.178   7.985
  726POPC   C4B11842  22.550  34.207   7.528
  727POPC   NC311843  44.370   8.870   9.652
  727POPC   PO411844  43.717   9.121   9.551
  727POPC   GL111845  43.712   9.156   9.135
  727POPC   GL211846  43.659   8.834   9.023
  727POPC   C1A11847  43.914   9.336   8.793
  727POPC   D2A11848  44.180   9.205   8.457
  727POPC   C3A11849  44.064   9.373   8.047
  727POPC   C4A11850  44.092   9.297   7.602
  727POPC   C1B11851  43.833   8.815   8.641
  727POPC   C2B11852  43.751   9.007   8.259
  727POPC   C3B11853  43.942   8.892   7.880
  727POPC   C4B11854  43.845   8.859   7.454
  728POPC   NC311855  28.408   3.884   9.592
  728POPC   PO411856  28.648   3.333   9.428
  728POPC   GL111857  28.440   3.502   9.095
  728POPC   GL211858  28.435   3.824   9.083
  728POPC   C1A11859  28.454   3.433   8.666
  728POPC   D2A11860  28.638   3.620   8.303
  728POPC   C3A11861  28.555   3.356   7.952
  728POPC   C4A11862  28.178   3.326   7.721
  728POPC   C1B11863  28.069   3.767   8.787
  728POPC   C2B11864  28.146   3.848   8.360
  728POPC   C3B11865  28.293   3.788   7.962
  728POPC   C4B11866  28.095   3.820   7.627
  729POPC   NC311867  35.697  43.417   9.533
  729POPC   PO411868  35.206  42.960   9.586
  729POPC   GL111869  35.207  43.128   9.169
  729POPC   GL211870  35.563  43.071   9.134
  729POPC   C1A11871  35.259  43.076   8.709
  729POPC   D2A11872  35.338  43.285   8.314
  729POPC   C3A11873  35.188  43.085   7.915
  729POPC   C4A11874  35.224  42.672   7.749
  729POPC   C1B11875  35.700  43.290   8.758
  729POPC   C2B11876  35.826  43.174   8.363
  729POPC   C3B11877  35.688  43.172   7.936
  729POPC   C4B11878  35.617  42.948   7.536
  730POPC   NC311879  20.181  28.055   9.497
  730POPC   PO411880  20.094  28.671   9.439
  730POPC   GL111881  19.972  28.479   9.111
  730POPC   GL211882  19.775  28.183   9.201
  730POPC   C1A11883  20.141  28.467   8.709
  730POPC   D2A11884  19.912  28.478   8.356
  730POPC   C3A11885  20.032  28.529   7.937
  730POPC   C4A11886  20.103  28.189   7.660
  730POPC   C1B11887  19.643  28.278   8.778
  730POPC   C2B11888  19.539  28.115   8.398
  730POPC   C3B11889  19.547  28.325   8.048
  730POPC   C4B11890  19.573  28.138   7.700
  731POPC   NC311891   0.926  20.398   9.530
  731POPC   PO411892   1.572  20.383   9.436
  731POPC   GL111893   1.398  20.739   9.179
  731POPC   GL211894   1.038  20.887   9.282
  731POPC   C1A11895   1.479  20.761   8.721
  731POPC   D2A11896   1.192  20.741   8.346
  731POPC   C3A11897   1.346  20.707   7.912
  731POPC   C4A11898   1.418  20.532   7.478
  731POPC   C1B11899   0.982  20.843   8.832
  731POPC   C2B11900   0.730  20.635   8.523
  731POPC   C3B11901   0.795  20.413   8.133
  731POPC   C4B11902   0.876  20.603   7.752
  732POPC   NC311903  26.147  40.503   9.332
  732POPC   PO411904  25.618  40.843   9.671
  732POPC   GL111905  25.853  40.943   9.202
  732POPC   GL211906  25.810  40.699   8.878
  732POPC   C1A11907  26.052  41.105   8.778
  732POPC   D2A11908  25.991  40.872   8.388
  732POPC   C3A11909  26.075  40.961   7.963
  732POPC   C4A11910  26.350  41.053   7.658
  732POPC   C1B11911  26.124  40.468   8.689
  732POPC   C2B11912  26.347  40.460   8.326
  732POPC   C3B11913  26.452  40.596   7.931
  732POPC   C4B11914  26.136  40.587   7.603
  733POPC   NC311915  40.335  23.123   9.530
  733POPC   PO411916  40.928  23.356   9.710
  733POPC   GL111917  40.763  23.282   9.202
  733POPC   GL211918  40.593  22.965   9.141
  733POPC   C1A11919  40.887  23.012   8.742
  733POPC   D2A11920  41.082  23.109   8.357
  733POPC   C3A11921  40.967  22.915   7.976
  733POPC   C4A11922  40.729  22.565   7.762
  733POPC   C1B11923  40.388  22.850   8.750
  733POPC   C2B11924  40.542  23.030   8.364
  733POPC   C3B11925  40.579  23.313   8.020
  733POPC   C4B11926  40.641  23.106   7.633
  734POPC   NC311927  16.041  24.327   9.414
  734POPC   PO411928  15.801  24.933   9.573
  734POPC   GL111929  15.782  24.694   9.156
  734POPC   GL211930  16.039  24.619   8.972
  734POPC   C1A11931  15.611  24.686   8.727
  734POPC   D2A11932  15.888  24.690   8.381
  734POPC   C3A11933  15.793  24.498   7.991
  734POPC   C4A11934  15.640  24.608   7.576
  734POPC   C1B11935  16.251  24.413   8.613
  734POPC   C2B11936  16.165  24.178   8.219
  734POPC   C3B11937  16.196  24.181   7.734
  734POPC   C4B11938  16.307  24.138   7.267
  735POPC   NC311939  36.832  18.360   9.499
  735POPC   PO411940  36.894  17.766   9.156
  735POPC   GL111941  37.050  18.160   8.997
  735POPC   GL211942  37.242  18.477   9.169
  735POPC   C1A11943  36.877  18.255   8.584
  735POPC   D2A11944  36.896  18.249   8.146
  735POPC   C3A11945  36.711  18.383   7.789
  735POPC   C4A11946  36.733  17.956   7.694
  735POPC   C1B11947  37.260  18.568   8.742
  735POPC   C2B11948  37.134  18.679   8.332
  735POPC   C3B11949  37.210  18.548   7.898
  735POPC   C4B11950  37.040  18.675   7.492
  736POPC   NC311951  41.216   4.757   9.512
  736POPC   PO411952  41.138   4.064   9.420
  736POPC   GL111953  41.401   4.018   8.998
  736POPC   GL211954  41.778   4.085   9.051
  736POPC   C1A11955  41.434   4.185   8.585
  736POPC   D2A11956  41.668   4.450   8.271
  736POPC   C3A11957  41.428   4.460   7.904
  736POPC   C4A11958  41.535   4.541   7.493
  736POPC   C1B11959  41.927   4.223   8.654
  736POPC   C2B11960  41.970   4.009   8.255
  736POPC   C3B11961  41.797   4.109   7.855
  736POPC   C4B11962  41.763   4.088   7.419
  737POPC   NC311963  27.008  35.913   9.487
  737POPC   PO411964  26.328  35.991   9.363
  737POPC   GL111965  26.677  36.085   9.117
  737POPC   GL211966  26.808  36.398   9.278
  737POPC   C1A11967  26.956  35.936   8.783
  737POPC   D2A11968  27.107  35.909   8.351
  737POPC   C3A11969  26.898  36.153   7.961
  737POPC   C4A11970  26.767  36.022   7.492
  737POPC   C1B11971  26.876  36.462   8.829
  737POPC   C2B11972  26.705  36.261   8.449
  737POPC   C3B11973  26.463  36.364   8.082
  737POPC   C4B11974  26.567  36.482   7.677
  738POPC   NC311975   1.860  23.236   9.535
  738POPC   PO411976   2.340  22.891   9.524
  738POPC   GL111977   2.101  23.027   9.146
  738POPC   GL211978   1.728  22.897   9.165
  738POPC   C1A11979   1.994  22.857   8.744
  738POPC   D2A11980   2.105  22.619   8.378
  738POPC   C3A11981   2.386  22.781   8.044
  738POPC   C4A11982   2.265  23.024   7.693
  738POPC   C1B11983   1.528  22.662   8.802
  738POPC   C2B11984   1.623  22.843   8.381
  738POPC   C3B11985   1.788  22.714   7.976
  738POPC   C4B11986   1.709  22.945   7.619
  739POPC   NC311987  39.802   1.424   9.519
  739POPC   PO411988  40.266   1.011   9.461
  739POPC   GL111989  40.039   1.132   9.152
  739POPC   GL211990  39.715   0.963   9.214
  739POPC   C1A11991  40.162   1.258   8.753
  739POPC   D2A11992  40.228   1.073   8.365
  739POPC   C3A11993  40.160   1.368   8.042
  739POPC   C4A11994  39.808   1.679   8.031
  739POPC   C1B11995  39.634   1.191   8.820
  739POPC   C2B11996  39.739   1.250   8.369
  739POPC   C3B11997  39.826   0.998   7.992
  739POPC   C4B11998  39.572   0.845   7.648
  740POPC   NC311999  26.032  38.951   9.359
  740POPC   PO412000  26.181  39.615   9.446
  740POPC   GL112001  26.147  39.397   9.053
  740POPC   GL212002  26.399  39.127   9.049
  740POPC   C1A12003  25.865  39.287   8.669
  740POPC   D2A12004  25.564  39.067   8.386
  740POPC   C3A12005  25.717  39.046   7.974
  740POPC   C4A12006  25.867  39.452   7.860
  740POPC   C1B12007  26.393  39.212   8.607
  740POPC   C2B12008  26.162  39.249   8.227
  740POPC   C3B12009  26.275  39.153   7.792
  740POPC   C4B12010  26.542  39.295   7.412
  741POPC   NC312011   1.054  34.057   9.277
  741POPC   PO412012   1.599  34.070   9.654
  741POPC   GL112013   1.446  33.738   9.255
  741POPC   GL212014   1.138  33.572   9.157
  741POPC   C1A12015   1.532  33.685   8.785
  741POPC   D2A12016   1.385  33.630   8.351
  741POPC   C3A12017   1.219  34.005   8.138
  741POPC   C4A12018   1.265  34.119   7.690
  741POPC   C1B12019   0.987  33.588   8.719
  741POPC   C2B12020   0.788  33.681   8.310
  741POPC   C3B12021   0.905  33.699   7.898
  741POPC   C4B12022   1.335  33.614   7.814
  742POPC   NC312023   6.492   2.673   9.403
  742POPC   PO412024   7.105   2.522   9.434
  742POPC   GL112025   6.844   2.499   9.067
  742POPC   GL212026   6.793   2.878   9.043
  742POPC   C1A12027   6.520   2.576   8.735
  742POPC   D2A12028   6.268   2.523   8.348
  742POPC   C3A12029   6.404   2.333   8.014
  742POPC   C4A12030   6.638   2.615   7.839
  742POPC   C1B12031   6.681   3.053   8.626
  742POPC   C2B12032   6.639   3.140   8.167
  742POPC   C3B12033   6.425   3.110   7.802
  742POPC   C4B12034   6.297   3.181   7.362
  743POPC   NC312035  13.373  28.793   9.293
  743POPC   PO412036  12.755  29.327   9.470
  743POPC   GL112037  12.910  29.364   9.095
  743POPC   GL212038  12.970  29.012   9.044
  743POPC   C1A12039  12.766  29.290   8.667
  743POPC   D2A12040  12.759  29.025   8.302
  743POPC   C3A12041  12.733  29.240   7.931
  743POPC   C4A12042  12.659  29.508   7.577
  743POPC   C1B12043  13.111  28.827   8.632
  743POPC   C2B12044  13.230  28.808   8.170
  743POPC   C3B12045  13.064  28.703   7.778
  743POPC   C4B12046  12.770  28.934   7.516
  744POPC   NC312047  24.076  32.092   9.491
  744POPC   PO412048  24.390  32.668   9.469
  744POPC   GL112049  24.502  32.249   9.226
  744POPC   GL212050  24.292  31.983   9.045
  744POPC   C1A12051  24.792  32.068   8.893
  744POPC   D2A12052  24.901  32.016   8.432
  744POPC   C3A12053  24.668  32.119   8.059
  744POPC   C4A12054  24.647  32.371   7.665
  744POPC   C1B12055  24.392  31.973   8.599
  744POPC   C2B12056  24.201  32.113   8.256
  744POPC   C3B12057  24.012  32.084   7.874
  744POPC   C4B12058  24.205  32.180   7.487
  745POPC   NC312059  26.619  10.180   9.674
  745POPC   PO412060  26.918  10.817   9.563
  745POPC   GL112061  26.873  10.684   9.173
  745POPC   GL212062  27.067  10.422   9.213
  745POPC   C1A12063  26.608  10.659   8.831
  745POPC   D2A12064  26.719  10.691   8.429
  745POPC   C3A12065  26.388  10.566   8.171
  745POPC   C4A12066  26.638  10.588   7.800
  745POPC   C1B12067  26.952  10.286   8.821
  745POPC   C2B12068  27.103  10.323   8.396
  745POPC   C3B12069  27.042  10.194   7.971
  745POPC   C4B12070  27.122  10.468   7.640
  746POPC   NC312071  28.978  32.466   9.368
  746POPC   PO412072  29.471  32.003   9.455
  746POPC   GL112073  29.308  32.158   9.091
  746POPC   GL212074  29.432  32.483   9.070
  746POPC   C1A12075  29.095  32.326   8.717
  746POPC   D2A12076  29.180  32.375   8.290
  746POPC   C3A12077  28.964  32.026   8.063
  746POPC   C4A12078  28.837  31.932   7.638
  746POPC   C1B12079  29.445  32.706   8.680
  746POPC   C2B12080  29.647  32.665   8.269
  746POPC   C3B12081  29.386  32.691   7.918
  746POPC   C4B12082  29.037  32.443   7.777
  747POPC   NC312083  11.321  10.053   9.615
  747POPC   PO412084  11.131   9.452   9.532
  747POPC   GL112085  11.195   9.771   9.205
  747POPC   GL212086  11.530   9.974   9.154
  747POPC   C1A12087  11.040   9.818   8.787
  747POPC   D2A12088  10.856   9.850   8.358
  747POPC   C3A12089  11.172   9.801   8.010
  747POPC   C4A12090  11.069   9.729   7.550
  747POPC   C1B12091  11.559   9.659   8.857
  747POPC   C2B12092  11.379   9.527   8.478
  747POPC   C3B12093  11.648   9.548   8.150
  747POPC   C4B12094  11.615   9.636   7.739
  748POPC   NC312095  29.491   2.325   9.421
  748POPC   PO412096  29.582   1.639   9.517
  748POPC   GL112097  29.782   1.702   9.085
  748POPC   GL212098  30.153   1.661   9.032
  748POPC   C1A12099  29.876   2.121   8.873
  748POPC   D2A12100  30.080   2.289   8.513
  748POPC   C3A12101  29.960   2.067   8.165
  748POPC   C4A12102  30.027   2.099   7.759
  748POPC   C1B12103  29.986   1.717   8.598
  748POPC   C2B12104  29.942   1.561   8.195
  748POPC   C3B12105  30.283   1.665   7.911
  748POPC   C4B12106  30.276   1.757   7.468
  749POPC   NC312107  36.318  24.924   9.636
  749POPC   PO412108  36.063  25.585   9.644
  749POPC   GL112109  36.058  25.258   9.326
  749POPC   GL212110  35.945  25.488   9.098
  749POPC   C1A12111  36.123  25.047   8.911
  749POPC   D2A12112  36.100  25.250   8.496
  749POPC   C3A12113  36.164  25.138   8.071
  749POPC   C4A12114  36.179  25.075   7.628
  749POPC   C1B12115  35.731  25.504   8.734
  749POPC   C2B12116  35.611  25.635   8.374
  749POPC   C3B12117  35.831  25.540   8.026
  749POPC   C4B12118  35.684  25.509   7.601
  750POPC   NC312119  41.976  39.695   9.469
  750POPC   PO412120  42.302  40.347   9.417
  750POPC   GL112121  42.437  40.112   9.020
  750POPC   GL212122  42.642  39.806   9.035
  750POPC   C1A12123  42.484  40.037   8.559
  750POPC   D2A12124  42.229  39.922   8.206
  750POPC   C3A12125  42.195  40.087   7.788
  750POPC   C4A12126  42.219  39.805   7.418
  750POPC   C1B12127  42.862  39.684   8.676
  750POPC   C2B12128  42.784  39.676   8.226
  750POPC   C3B12129  42.568  39.753   7.845
  750POPC   C4B12130  42.620  40.096   7.479
  751POPC   NC312131  15.065  27.671   9.699
  751POPC   PO412132  15.676  27.707   9.862
  751POPC   GL112133  15.402  27.795   9.348
  751POPC   GL212134  15.284  27.518   9.240
  751POPC   C1A12135  15.087  27.763   8.874
  751POPC   D2A12136  14.999  27.474   8.480
  751POPC   C3A12137  15.063  27.614   8.022
  751POPC   C4A12138  15.100  27.835   7.604
  751POPC   C1B12139  15.467  27.431   8.796
  751POPC   C2B12140  15.441  27.154   8.459
  751POPC   C3B12141  15.505  27.331   8.059
  751POPC   C4B12142  15.618  27.244   7.649
  752POPC   NC312143   8.545  37.857   9.580
  752POPC   PO412144   8.151  37.307   9.487
  752POPC   GL112145   8.197  37.610   9.164
  752POPC   GL212146   8.538  37.564   9.144
  752POPC   C1A12147   8.103  37.834   8.756
  752POPC   D2A12148   8.270  37.912   8.324
  752POPC   C3A12149   8.000  37.774   7.981
  752POPC   C4A12150   7.785  37.417   7.794
  752POPC   C1B12151   8.426  37.442   8.731
  752POPC   C2B12152   8.590  37.513   8.351
  752POPC   C3B12153   8.631  37.654   7.924
  752POPC   C4B12154   8.628  37.529   7.484
  753POPC   NC312155  31.069  28.896   9.272
  753POPC   PO412156  30.553  29.312   9.235
  753POPC   GL112157  30.653  28.967   9.006
  753POPC   GL212158  30.394  28.739   9.079
  753POPC   C1A12159  30.798  29.084   8.607
  753POPC   D2A12160  30.576  29.398   8.360
  753POPC   C3A12161  30.743  29.304   7.971
  753POPC   C4A12162  30.850  29.549   7.663
  753POPC   C1B12163  30.295  28.975   8.672
  753POPC   C2B12164  30.439  28.901   8.282
  753POPC   C3B12165  30.292  29.053   7.953
  753POPC   C4B12166  30.312  28.930   7.564
  754POPC   NC312167  36.455  26.275   9.432
  754POPC   PO412168  36.121  26.993   9.416
  754POPC   GL112169  36.346  26.905   9.073
  754POPC   GL212170  36.285  26.584   9.088
  754POPC   C1A12171  36.224  26.802   8.633
  754POPC   D2A12172  35.934  26.746   8.312
  754POPC   C3A12173  36.076  26.858   7.866
  754POPC   C4A12174  35.821  26.933   7.473
  754POPC   C1B12175  36.391  26.328   8.727
  754POPC   C2B12176  36.502  26.494   8.308
  754POPC   C3B12177  36.526  26.534   7.856
  754POPC   C4B12178  36.287  26.625   7.461
  755POPC   NC312179  13.083  34.430   9.615
  755POPC   PO412180  12.608  34.813   9.506
  755POPC   GL112181  12.815  34.620   9.154
  755POPC   GL212182  12.779  34.287   9.245
  755POPC   C1A12183  12.927  34.715   8.706
  755POPC   D2A12184  13.134  34.614   8.258
  755POPC   C3A12185  12.973  34.749   7.857
  755POPC   C4A12186  12.578  34.678   7.630
  755POPC   C1B12187  13.012  34.217   8.866
  755POPC   C2B12188  12.957  34.136   8.417
  755POPC   C3B12189  12.874  34.269   7.956
  755POPC   C4B12190  12.915  34.191   7.501
  756POPC   NC312191  26.213   1.700   9.346
  756POPC   PO412192  25.871   2.263   9.418
  756POPC   GL112193  26.067   2.359   9.054
  756POPC   GL212194  26.337   2.167   9.049
  756POPC   C1A12195  26.104   2.239   8.598
  756POPC   D2A12196  25.884   2.013   8.318
  756POPC   C3A12197  25.798   2.165   7.942
  756POPC   C4A12198  25.915   1.911   7.634
  756POPC   C1B12199  26.427   1.848   8.755
  756POPC   C2B12200  26.277   1.715   8.368
  756POPC   C3B12201  26.284   1.966   7.995
  756POPC   C4B12202  26.438   1.909   7.583
  757POPC   NC312203  11.284  16.897   9.392
  757POPC   PO412204  11.632  16.350   9.400
  757POPC   GL112205  11.385  16.453   9.050
  757POPC   GL212206  11.024  16.481   9.152
  757POPC   C1A12207  11.327  16.811   8.759
  757POPC   D2A12208  11.199  16.980   8.385
  757POPC   C3A12209  11.399  16.775   8.091
  757POPC   C4A12210  11.190  16.821   7.744
  757POPC   C1B12211  10.979  16.277   8.738
  757POPC   C2B12212  10.893  16.405   8.327
  757POPC   C3B12213  11.122  16.332   7.984
  757POPC   C4B12214  11.075  16.384   7.556
  758POPC   NC312215  27.872  27.675   9.747
  758POPC   PO412216  27.474  27.426   9.186
  758POPC   GL112217  27.527  27.698   8.948
  758POPC   GL212218  27.559  27.955   9.201
  758POPC   C1A12219  27.606  27.608   8.541
  758POPC   D2A12220  27.395  27.498   8.200
  758POPC   C3A12221  27.648  27.478   7.830
  758POPC   C4A12222  27.395  27.666   7.525
  758POPC   C1B12223  27.496  28.164   8.807
  758POPC   C2B12224  27.427  28.070   8.398
  758POPC   C3B12225  27.726  27.911   8.132
  758POPC   C4B12226  27.700  28.060   7.729
  759POPC   NC312227   4.504  10.329   9.459
  759POPC   PO412228   3.826  10.595   9.370
  759POPC   GL112229   4.183  10.568   9.128
  759POPC   GL212230   4.446  10.794   9.109
  759POPC   C1A12231   4.381  10.349   8.788
  759POPC   D2A12232   4.339  10.182   8.379
  759POPC   C3A12233   4.238  10.384   7.997
  759POPC   C4A12234   4.403  10.386   7.586
  759POPC   C1B12235   4.660  10.758   8.702
  759POPC   C2B12236   4.531  10.672   8.284
  759POPC   C3B12237   4.557  10.808   7.826
  759POPC   C4B12238   4.696  10.903   7.369
  760POPC   NC312239  19.462  26.436   9.607
  760POPC   PO412240  19.879  26.993   9.771
  760POPC   GL112241  19.771  26.939   9.285
  760POPC   GL212242  19.448  26.901   9.117
  760POPC   C1A12243  19.910  26.875   8.827
  760POPC   D2A12244  19.935  26.623   8.424
  760POPC   C3A12245  20.077  26.821   8.017
  760POPC   C4A12246  19.922  26.842   7.589
  760POPC   C1B12247  19.478  27.106   8.696
  760POPC   C2B12248  19.636  27.028   8.282
  760POPC   C3B12249  19.626  27.170   7.845
  760POPC   C4B12250  19.521  27.153   7.398
  761POPC   NC312251  16.533   4.855   9.420
  761POPC   PO412252  16.317   5.506   9.390
  761POPC   GL112253  16.510   5.270   9.054
  761POPC   GL212254  16.565   4.907   8.924
  761POPC   C1A12255  16.684   5.334   8.686
  761POPC   D2A12256  16.744   5.096   8.327
  761POPC   C3A12257  16.781   5.323   7.949
  761POPC   C4A12258  16.731   5.077   7.588
  761POPC   C1B12259  16.982   4.862   8.723
  761POPC   C2B12260  17.222   4.839   8.342
  761POPC   C3B12261  17.037   4.865   7.936
  761POPC   C4B12262  16.992   4.634   7.531
  762POPC   NC312263  36.267  24.236   9.353
  762POPC   PO412264  35.838  24.615   9.740
  762POPC   GL112265  35.915  24.622   9.232
  762POPC   GL212266  35.849  24.290   9.065
  762POPC   C1A12267  36.122  24.556   8.762
  762POPC   D2A12268  36.068  24.746   8.389
  762POPC   C3A12269  36.273  24.643   8.024
  762POPC   C4A12270  36.004  24.606   7.709
  762POPC   C1B12271  36.040  23.992   8.804
  762POPC   C2B12272  36.204  24.077   8.415
  762POPC   C3B12273  35.935  24.248   8.102
  762POPC   C4B12274  35.752  24.111   7.729
  763POPC   NC312275   1.003  16.176   9.428
  763POPC   PO412276   1.402  15.632   9.523
  763POPC   GL112277   1.393  15.898   9.182
  763POPC   GL212278   1.715  15.991   9.097
  763POPC   C1A12279   1.263  16.101   8.799
  763POPC   D2A12280   0.986  16.068   8.430
  763POPC   C3A12281   1.241  16.170   8.049
  763POPC   C4A12282   1.092  16.077   7.659
  763POPC   C1B12283   1.647  15.713   8.757
  763POPC   C2B12284   1.405  15.784   8.414
  763POPC   C3B12285   1.461  15.728   8.026
  763POPC   C4B12286   1.563  15.823   7.607
  764POPC   NC312287  37.485   0.982   9.298
  764POPC   PO412288  37.770   1.453   9.677
  764POPC   GL112289  37.945   1.308   9.257
  764POPC   GL212290  37.933   1.659   9.142
  764POPC   C1A12291  37.924   1.049   8.836
  764POPC   D2A12292  37.684   1.019   8.427
  764POPC   C3A12293  37.980   0.963   8.067
  764POPC   C4A12294  38.060   1.165   7.677
  764POPC   C1B12295  37.837   1.704   8.691
  764POPC   C2B12296  38.016   1.797   8.271
  764POPC   C3B12297  37.851   1.599   7.917
  764POPC   C4B12298  37.568   1.289   8.007
  765POPC   NC312299  19.678   2.558   9.527
  765POPC   PO412300  19.653   3.249   9.592
  765POPC   GL112301  19.699   2.933   9.210
  765POPC   GL212302  19.958   2.744   9.140
  765POPC   C1A12303  19.550   2.633   8.852
  765POPC   D2A12304  19.695   2.306   8.562
  765POPC   C3A12305  19.878   2.476   8.182
  765POPC   C4A12306  19.687   2.786   7.870
  765POPC   C1B12307  20.062   2.635   8.726
  765POPC   C2B12308  20.347   2.682   8.388
  765POPC   C3B12309  20.243   2.854   8.010
  765POPC   C4B12310  20.066   3.042   7.627
  766POPC   NC312311  30.547   0.830   9.294
  766POPC   PO412312  30.492   1.493   9.457
  766POPC   GL112313  30.805   1.287   9.190
  766POPC   GL212314  30.919   1.560   9.019
  766POPC   C1A12315  31.004   1.122   8.786
  766POPC   D2A12316  30.802   1.086   8.390
  766POPC   C3A12317  30.933   1.281   7.998
  766POPC   C4A12318  30.859   0.979   7.692
  766POPC   C1B12319  30.529   1.419   8.765
  766POPC   C2B12320  30.349   1.311   8.354
  766POPC   C3B12321  30.443   1.157   7.941
  766POPC   C4B12322  30.566   1.370   7.604
  767POPC   NC312323   1.075  18.622   9.414
  767POPC   PO412324   1.276  17.999   9.483
  767POPC   GL112325   1.130  18.188   9.136
  767POPC   GL212326   1.424  18.396   9.081
  767POPC   C1A12327   1.023  18.122   8.717
  767POPC   D2A12328   1.397  18.069   8.452
  767POPC   C3A12329   1.363  18.217   8.031
  767POPC   C4A12330   1.034  18.081   7.734
  767POPC   C1B12331   1.250  18.574   8.712
  767POPC   C2B12332   1.137  18.675   8.268
  767POPC   C3B12333   1.094  18.588   7.809
  767POPC   C4B12334   1.385  18.499   7.503
  768POPC   NC312335  44.091  13.364   9.455
  768POPC   PO412336  43.812  13.993   9.613
  768POPC   GL112337  43.827  13.727   9.230
  768POPC   GL212338  44.180  13.708   9.049
  768POPC   C1A12339  43.667  13.567   8.838
  768POPC   D2A12340  43.836  13.644   8.429
  768POPC   C3A12341  43.760  13.602   8.004
  768POPC   C4A12342  43.640  13.973   7.806
  768POPC   C1B12343  44.149  13.368   8.803
  768POPC   C2B12344  44.103  13.211   8.426
  768POPC   C3B12345  44.378  13.279   8.138
  768POPC   C4B12346  44.309  13.360   7.715
  769POPC   NC312347  37.415  38.360   9.446
  769POPC   PO412348  37.655  38.976   9.590
  769POPC   GL112349  37.601  38.753   9.150
  769POPC   GL212350  37.884  38.504   9.081
  769POPC   C1A12351  37.546  38.606   8.694
  769POPC   D2A12352  37.854  38.396   8.425
  769POPC   C3A12353  37.848  38.627   8.033
  769POPC   C4A12354  37.478  38.735   7.763
  769POPC   C1B12355  37.667  38.144   8.861
  769POPC   C2B12356  37.395  38.122   8.491
  769POPC   C3B12357  37.419  38.345   8.111
  769POPC   C4B12358  37.654  38.244   7.739
  770POPC   NC312359  28.576  23.590   9.784
  770POPC   PO412360  28.001  23.918   9.502
  770POPC   GL112361  28.110  23.608   9.189
  770POPC   GL212362  28.487  23.568   9.165
  770POPC   C1A12363  28.101  23.447   8.759
  770POPC   D2A12364  28.393  23.486   8.390
  770POPC   C3A12365  28.210  23.510   7.982
  770POPC   C4A12366  28.450  23.566   7.613
  770POPC   C1B12367  28.453  23.822   8.783
  770POPC   C2B12368  28.417  24.060   8.397
  770POPC   C3B12369  28.528  23.930   7.988
  770POPC   C4B12370  28.819  24.027   7.677
  771POPC   NC312371  21.586   6.668   9.501
  771POPC   PO412372  20.936   6.624   9.479
  771POPC   GL112373  21.227   6.715   9.140
  771POPC   GL212374  21.292   6.401   9.135
  771POPC   C1A12375  21.558   6.653   8.806
  771POPC   D2A12376  21.524   6.823   8.410
  771POPC   C3A12377  21.450   6.573   8.043
  771POPC   C4A12378  21.364   6.765   7.661
  771POPC   C1B12379  21.241   6.189   8.778
  771POPC   C2B12380  21.154   6.281   8.388
  771POPC   C3B12381  20.979   6.245   8.028
  771POPC   C4B12382  21.196   6.279   7.663
  772POPC   NC312383  37.896  25.867   9.415
  772POPC   PO412384  38.484  26.163   9.674
  772POPC   GL112385  38.487  26.095   9.196
  772POPC   GL212386  38.202  26.185   9.070
  772POPC   C1A12387  38.706  26.136   8.765
  772POPC   D2A12388  38.481  26.181   8.385
  772POPC   C3A12389  38.690  26.151   8.042
  772POPC   C4A12390  38.647  26.374   7.712
  772POPC   C1B12391  38.258  25.865   8.769
  772POPC   C2B12392  38.063  25.895   8.381
  772POPC   C3B12393  38.241  25.831   7.994
  772POPC   C4B12394  38.624  25.677   7.874
  773POPC   NC312395  25.214  22.810   9.466
  773POPC   PO412396  24.559  22.721   9.321
  773POPC   GL112397  24.898  22.992   9.089
  773POPC   GL212398  25.294  23.091   9.068
  773POPC   C1A12399  25.043  22.909   8.672
  773POPC   D2A12400  25.288  22.983   8.299
  773POPC   C3A12401  24.968  22.923   7.988
  773POPC   C4A12402  24.844  22.543   7.819
  773POPC   C1B12403  25.525  22.800   8.788
  773POPC   C2B12404  25.815  22.778   8.457
  773POPC   C3B12405  25.725  22.643   8.073
  773POPC   C4B12406  25.427  22.754   7.802
  774POPC   NC312407  37.749  10.007   9.573
  774POPC   PO412408  37.471   9.437   9.536
  774POPC   GL112409  37.408   9.742   9.190
  774POPC   GL212410  37.757   9.800   9.129
  774POPC   C1A12411  37.485   9.760   8.723
  774POPC   D2A12412  37.729   9.603   8.383
  774POPC   C3A12413  37.505   9.598   7.967
  774POPC   C4A12414  37.889   9.590   7.703
  774POPC   C1B12415  37.838  10.146   8.819
  774POPC   C2B12416  37.726  10.134   8.420
  774POPC   C3B12417  37.819   9.993   8.035
  774POPC   C4B12418  37.588  10.008   7.675
  775POPC   NC312419  28.225  30.177   9.696
  775POPC   PO412420  28.467  29.671   9.569
  775POPC   GL112421  28.407  29.967   9.242
  775POPC   GL212422  28.730  29.861   9.144
  775POPC   C1A12423  28.149  29.972   8.858
  775POPC   D2A12424  28.292  30.068   8.434
  775POPC   C3A12425  28.093  30.021   8.077
  775POPC   C4A12426  28.168  29.822   7.719
  775POPC   C1B12427  28.689  30.068   8.768
  775POPC   C2B12428  28.785  29.949   8.353
  775POPC   C3B12429  28.605  30.029   7.934
  775POPC   C4B12430  28.576  30.340   7.592
  776POPC   NC312431  26.994  17.088   9.543
  776POPC   PO412432  26.698  16.468   9.386
  776POPC   GL112433  26.937  16.783   9.101
  776POPC   GL212434  27.303  16.892   9.166
  776POPC   C1A12435  26.771  17.024   8.728
  776POPC   D2A12436  26.695  17.212   8.288
  776POPC   C3A12437  26.842  16.913   7.962
  776POPC   C4A12438  26.715  16.459   7.874
  776POPC   C1B12439  27.355  16.785   8.740
  776POPC   C2B12440  27.433  16.418   8.474
  776POPC   C3B12441  27.395  16.510   8.057
  776POPC   C4B12442  27.339  16.869   7.826
  777POPC   NC312443   9.238   9.672   9.407
  777POPC   PO412444   8.654  10.104   9.484
  777POPC   GL112445   8.780   9.815   9.203
  777POPC   GL212446   9.008  10.046   9.060
  777POPC   C1A12447   8.900   9.563   8.857
  777POPC   D2A12448   8.853   9.740   8.458
  777POPC   C3A12449   9.021   9.509   8.117
  777POPC   C4A12450   8.902   9.574   7.700
  777POPC   C1B12451   9.255   9.981   8.683
  777POPC   C2B12452   9.441   9.889   8.268
  777POPC   C3B12453   9.371   9.808   7.843
  777POPC   C4B12454   9.174   9.922   7.434
  778POPC   NC312455  25.138  16.425   9.716
  778POPC   PO412456  25.341  15.829   9.548
  778POPC   GL112457  25.175  15.903   9.155
  778POPC   GL212458  24.981  15.632   9.037
  778POPC   C1A12459  25.147  15.986   8.699
  778POPC   D2A12460  25.269  16.205   8.359
  778POPC   C3A12461  25.176  16.109   7.917
  778POPC   C4A12462  25.545  16.343   7.785
  778POPC   C1B12463  24.830  15.595   8.615
  778POPC   C2B12464  24.940  15.767   8.217
  778POPC   C3B12465  25.016  15.644   7.769
  778POPC   C4B12466  24.969  15.735   7.307
  779POPC   NC312467  30.513  35.888   9.499
  779POPC   PO412468  29.896  36.178   9.495
  779POPC   GL112469  29.879  36.149   9.112
  779POPC   GL212470  30.252  36.154   9.117
  779POPC   C1A12471  29.642  36.227   8.733
  779POPC   D2A12472  29.596  35.905   8.431
  779POPC   C3A12473  29.710  36.056   8.046
  779POPC   C4A12474  29.772  36.253   7.646
  779POPC   C1B12475  30.149  36.334   8.726
  779POPC   C2B12476  30.094  36.160   8.369
  779POPC   C3B12477  30.170  36.307   7.979
  779POPC   C4B12478  30.212  36.018   7.683
  780POPC   NC312479   4.806  39.454   9.714
  780POPC   PO412480   4.243  39.069   9.602
  780POPC   GL112481   4.373  39.076   9.213
  780POPC   GL212482   4.035  38.983   9.124
  780POPC   C1A12483   4.396  39.282   8.803
  780POPC   D2A12484   4.626  39.234   8.405
  780POPC   C3A12485   4.516  39.215   7.970
  780POPC   C4A12486   4.293  39.511   7.725
  780POPC   C1B12487   3.919  39.112   8.735
  780POPC   C2B12488   4.083  39.290   8.379
  780POPC   C3B12489   4.005  39.084   8.017
  780POPC   C4B12490   4.108  39.027   7.623
  781POPC   NC312491  21.481  22.343   9.554
  781POPC   PO412492  21.147  21.648   9.447
  781POPC   GL112493  21.435  21.967   9.197
  781POPC   GL212494  21.258  22.313   9.111
  781POPC   C1A12495  21.595  22.161   8.784
  781POPC   D2A12496  21.360  22.311   8.397
  781POPC   C3A12497  21.563  22.460   8.022
  781POPC   C4A12498  21.569  22.119   7.718
  781POPC   C1B12499  21.140  22.586   8.803
  781POPC   C2B12500  20.994  22.726   8.434
  781POPC   C3B12501  21.082  22.603   8.043
  781POPC   C4B12502  21.222  22.492   7.647
  782POPC   NC312503  23.311  10.533   9.651
  782POPC   PO412504  23.938  10.687   9.609
  782POPC   GL112505  23.635  10.618   9.260
  782POPC   GL212506  23.542  10.258   9.289
  782POPC   C1A12507  23.598  10.531   8.812
  782POPC   D2A12508  23.886  10.592   8.445
  782POPC   C3A12509  23.663  10.672   8.021
  782POPC   C4A12510  23.711  10.884   7.617
  782POPC   C1B12511  23.708  10.034   8.953
  782POPC   C2B12512  23.690  10.045   8.502
  782POPC   C3B12513  23.841  10.192   8.125
  782POPC   C4B12514  23.730  10.211   7.713
  783POPC   NC312515  15.842  27.963   9.529
  783POPC   PO412516  15.758  28.671   9.547
  783POPC   GL112517  15.980  28.624   9.144
  783POPC   GL212518  15.990  28.259   9.146
  783POPC   C1A12519  15.815  28.472   8.729
  783POPC   D2A12520  15.801  28.282   8.337
  783POPC   C3A12521  15.616  28.450   7.925
  783POPC   C4A12522  15.798  28.444   7.475
  783POPC   C1B12523  16.091  27.962   8.803
  783POPC   C2B12524  16.123  27.853   8.375
  783POPC   C3B12525  16.181  28.158   8.034
  783POPC   C4B12526  16.101  28.056   7.633
  784POPC   NC312527  37.414  23.603   9.560
  784POPC   PO412528  38.010  23.896   9.415
  784POPC   GL112529  37.850  23.771   9.056
  784POPC   GL212530  37.701  23.468   9.086
  784POPC   C1A12531  37.824  24.004   8.711
  784POPC   D2A12532  37.952  23.775   8.407
  784POPC   C3A12533  37.707  23.887   8.095
  784POPC   C4A12534  37.825  23.836   7.697
  784POPC   C1B12535  37.498  23.618   8.673
  784POPC   C2B12536  37.266  23.653   8.260
  784POPC   C3B12537  37.353  23.627   7.794
  784POPC   C4B12538  37.466  23.769   7.358
  785POPC   NC312539  42.080  29.202   9.380
  785POPC   PO412540  42.646  28.805   9.178
  785POPC   GL112541  42.469  29.175   9.010
  785POPC   GL212542  42.123  29.319   8.898
  785POPC   C1A12543  42.418  29.101   8.573
  785POPC   D2A12544  42.064  29.134   8.341
  785POPC   C3A12545  42.317  29.101   8.001
  785POPC   C4A12546  42.211  29.386   7.711
  785POPC   C1B12547  42.023  28.875   8.793
  785POPC   C2B12548  41.714  28.788   8.504
  785POPC   C3B12549  41.731  28.795   8.082
  785POPC   C4B12550  41.967  28.886   7.706
  786POPC   NC312551  25.101  23.930   9.468
  786POPC   PO412552  25.089  23.261   9.502
  786POPC   GL112553  24.990  23.525   9.146
  786POPC   GL212554  25.322  23.610   9.095
  786POPC   C1A12555  24.976  23.820   8.794
  786POPC   D2A12556  25.189  24.016   8.426
  786POPC   C3A12557  25.063  23.915   7.990
  786POPC   C4A12558  25.337  23.754   7.675
  786POPC   C1B12559  25.210  23.403   8.668
  786POPC   C2B12560  25.202  23.498   8.236
  786POPC   C3B12561  25.286  23.287   7.852
  786POPC   C4B12562  25.115  23.325   7.426
  787POPC   NC312563   0.731  39.050   9.547
  787POPC   PO412564   1.356  39.338   9.656
  787POPC   GL112565   1.375  39.217   9.247
  787POPC   GL212566   1.096  39.401   9.154
  787POPC   C1A12567   1.524  39.171   8.815
  787POPC   D2A12568   1.457  39.355   8.411
  787POPC   C3A12569   1.490  39.167   7.991
  787POPC   C4A12570   1.131  39.094   7.750
  787POPC   C1B12571   0.778  39.636   8.907
  787POPC   C2B12572   0.837  39.761   8.470
  787POPC   C3B12573   1.030  39.509   8.147
  787POPC   C4B12574   0.886  39.532   7.732
  788POPC   NC312575  28.886  29.464   9.463
  788POPC   PO412576  29.098  30.148   9.434
  788POPC   GL112577  29.229  30.031   9.069
  788POPC   GL212578  29.228  29.698   9.156
  788POPC   C1A12579  29.190  30.160   8.666
  788POPC   D2A12580  29.301  29.939   8.353
  788POPC   C3A12581  29.117  30.004   7.969
  788POPC   C4A12582  29.008  30.113   7.575
  788POPC   C1B12583  29.034  29.687   8.749
  788POPC   C2B12584  28.904  29.431   8.453
  788POPC   C3B12585  29.107  29.512   8.111
  788POPC   C4B12586  28.896  29.578   7.766
  789POPC   NC312587  16.380  44.406   9.515
  789POPC   PO412588  15.853  44.797   9.405
  789POPC   GL112589  16.193  44.770   9.166
  789POPC   GL212590  16.142  44.440   9.078
  789POPC   C1A12591  16.162  44.880   8.745
  789POPC   D2A12592  15.986  44.784   8.348
  789POPC   C3A12593  16.148  44.453   8.069
  789POPC   C4A12594  15.980  44.659   7.737
  789POPC   C1B12595  16.106  44.368   8.663
  789POPC   C2B12596  15.788  44.288   8.385
  789POPC   C3B12597  15.711  44.233   7.926
  789POPC   C4B12598  15.980  44.191   7.551
  790POPC   NC312599  32.558  39.938   9.659
  790POPC   PO412600  33.176  39.973   9.791
  790POPC   GL112601  33.033  39.867   9.336
  790POPC   GL212602  32.790  40.105   9.183
  790POPC   C1A12603  33.094  39.852   8.866
  790POPC   D2A12604  32.952  39.937   8.442
  790POPC   C3A12605  33.237  39.891   8.090
  790POPC   C4A12606  33.230  39.823   7.669
  790POPC   C1B12607  33.011  40.351   8.819
  790POPC   C2B12608  32.898  40.444   8.378
  790POPC   C3B12609  32.838  40.216   8.013
  790POPC   C4B12610  33.111  40.311   7.730
  791POPC   NC312611   6.056   0.253   9.712
  791POPC   PO412612   5.717   0.836   9.770
  791POPC   GL112613   5.751   0.527   9.363
  791POPC   GL212614   6.057   0.562   9.224
  791POPC   C1A12615   5.645   0.423   8.858
  791POPC   D2A12616   5.599   0.200   8.394
  791POPC   C3A12617   5.585   0.319   7.921
  791POPC   C4A12618   5.720   0.670   7.623
  791POPC   C1B12619   6.058   0.782   8.813
  791POPC   C2B12620   5.863   0.659   8.423
  791POPC   C3B12621   6.008   0.568   8.027
  791POPC   C4B12622   6.095   0.233   7.726
  792POPC   NC312623  26.610  32.561   9.929
  792POPC   PO412624  26.565  33.178   9.698
  792POPC   GL112625  26.539  32.846   9.342
  792POPC   GL212626  26.604  33.141   9.138
  792POPC   C1A12627  26.828  32.733   8.942
  792POPC   D2A12628  27.000  32.961   8.558
  792POPC   C3A12629  26.946  32.716   8.163
  792POPC   C4A12630  26.904  32.792   7.749
  792POPC   C1B12631  26.344  33.286   8.782
  792POPC   C2B12632  26.431  33.376   8.378
  792POPC   C3B12633  26.720  33.189   8.086
  792POPC   C4B12634  26.699  33.251   7.649
  793POPC   NC312635   0.727  28.889   9.548
  793POPC   PO412636   0.198  29.339   9.616
  793POPC   GL112637   0.317  29.061   9.274
  793POPC   GL212638   0.369  29.352   9.072
  793POPC   C1A12639   0.463  28.828   8.891
  793POPC   D2A12640   0.610  28.955   8.486
  793POPC   C3A12641   0.328  29.078   8.181
  793POPC   C4A12642   0.420  29.245   7.795
  793POPC   C1B12643   0.266  29.350   8.632
  793POPC   C2B12644  44.888  29.262   8.373
  793POPC   C3B12645  44.929  29.274   7.911
  793POPC   C4B12646  44.999  29.154   7.473
  794POPC   NC312647   4.553  43.440   9.728
  794POPC   PO412648   4.991  42.934   9.607
  794POPC   GL112649   4.920  43.075   9.212
  794POPC   GL212650   4.785  43.384   9.276
  794POPC   C1A12651   5.150  43.096   8.833
  794POPC   D2A12652   5.266  43.385   8.537
  794POPC   C3A12653   5.318  43.230   8.117
  794POPC   C4A12654   5.122  43.089   7.731
  794POPC   C1B12655   4.725  43.391   8.832
  794POPC   C2B12656   4.801  43.537   8.403
  794POPC   C3B12657   4.833  43.422   7.997
  794POPC   C4B12658   4.781  43.413   7.552
  795POPC   NC312659   1.416  21.546   9.576
  795POPC   PO412660   0.806  21.354   9.502
  795POPC   GL112661   1.082  21.502   9.186
  795POPC   GL212662   1.380  21.277   9.126
  795POPC   C1A12663   1.079  21.696   8.792
  795POPC   D2A12664   0.987  21.577   8.405
  795POPC   C3A12665   1.223  21.545   8.073
  795POPC   C4A12666   1.049  21.448   7.720
  795POPC   C1B12667   1.280  21.233   8.662
  795POPC   C2B12668   1.480  21.141   8.242
  795POPC   C3B12669   1.494  21.186   7.772
  795POPC   C4B12670   1.608  20.989   7.341
  796POPC   NC312671  39.981  26.298   9.525
  796POPC   PO412672  40.065  25.663   9.670
  796POPC   GL112673  39.909  25.910   9.201
  796POPC   GL212674  39.721  26.236   9.083
  796POPC   C1A12675  40.013  26.014   8.742
  796POPC   D2A12676  40.021  25.966   8.310
  796POPC   C3A12677  40.274  26.108   7.984
  796POPC   C4A12678  40.183  26.103   7.551
  796POPC   C1B12679  39.701  26.424   8.657
  796POPC   C2B12680  39.585  26.209   8.253
  796POPC   C3B12681  39.761  26.155   7.846
  796POPC   C4B12682  39.817  26.427   7.462
  797POPC   NC312683   3.539  27.498   9.553
  797POPC   PO412684   3.506  28.165   9.539
  797POPC   GL112685   3.519  27.801   9.160
  797POPC   GL212686   3.395  27.369   9.102
  797POPC   C1A12687   3.692  27.607   8.784
  797POPC   D2A12688   3.515  27.579   8.390
  797POPC   C3A12689   3.768  27.661   8.057
  797POPC   C4A12690   3.871  27.516   7.647
  797POPC   C1B12691   3.187  27.616   8.793
  797POPC   C2B12692   2.990  27.532   8.416
  797POPC   C3B12693   3.141  27.477   8.035
  797POPC   C4B12694   3.380  27.626   7.739
  798POPC   NC312695  33.319  30.171   9.760
  798POPC   PO412696  32.819  29.961   9.354
  798POPC   GL112697  33.170  29.995   9.107
  798POPC   GL212698  32.959  30.170   8.892
  798POPC   C1A12699  33.332  29.828   8.713
  798POPC   D2A12700  33.194  29.621   8.329
  798POPC   C3A12701  32.944  29.820   8.012
  798POPC   C4A12702  33.023  29.734   7.573
  798POPC   C1B12703  32.851  29.973   8.543
  798POPC   C2B12704  32.677  30.226   8.268
  798POPC   C3B12705  32.779  30.412   7.969
  798POPC   C4B12706  32.885  30.197   7.642
  799POPC   NC312707   6.506  41.151   9.469
  799POPC   PO412708   6.946  40.603   9.382
  799POPC   GL112709   6.707  40.851   9.115
  799POPC   GL212710   6.342  40.740   9.216
  799POPC   C1A12711   6.773  40.953   8.686
  799POPC   D2A12712   6.969  40.895   8.281
  799POPC   C3A12713   6.712  40.932   7.940
  799POPC   C4A12714   6.612  40.508   7.817
  799POPC   C1B12715   6.261  40.935   8.808
  799POPC   C2B12716   6.344  40.954   8.360
  799POPC   C3B12717   6.288  41.214   8.003
  799POPC   C4B12718   6.391  41.209   7.596
  800POPC   NC312719  35.707  35.981   9.429
  800POPC   PO412720  36.260  36.267   9.405
  800POPC   GL112721  36.111  36.011   9.074
  800POPC   GL212722  35.842  36.245   9.027
  800POPC   C1A12723  36.141  36.112   8.630
  800POPC   D2A12724  36.378  36.415   8.488
  800POPC   C3A12725  36.463  36.378   8.059
  800POPC   C4A12726  36.398  36.044   7.776
  800POPC   C1B12727  35.669  35.987   8.725
  800POPC   C2B12728  35.696  36.208   8.351
  800POPC   C3B12729  35.979  36.114   8.066
  800POPC   C4B12730  35.886  35.884   7.729
  801POPC   NC312731  29.516  22.624   9.389
  801POPC   PO412732  29.863  23.240   9.435
  801POPC   GL112733  29.855  23.020   9.064
  801POPC   GL212734  29.953  22.703   9.078
  801POPC   C1A12735  29.819  22.921   8.618
  801POPC   D2A12736  30.038  22.977   8.248
  801POPC   C3A12737  29.750  23.076   7.929
  801POPC   C4A12738  29.755  23.368   7.566
  801POPC   C1B12739  30.195  22.589   8.682
  801POPC   C2B12740  30.031  22.472   8.285
  801POPC   C3B12741  30.009  22.640   7.840
  801POPC   C4B12742  30.126  22.619   7.377
  802POPC   NC312743  20.882   0.296   9.365
  802POPC   PO412744  20.357   0.667   9.567
  802POPC   GL112745  20.397   0.515   9.137
  802POPC   GL212746  20.719   0.630   8.993
  802POPC   C1A12747  20.313   0.532   8.671
  802POPC   D2A12748  20.583   0.599   8.305
  802POPC   C3A12749  20.364   0.576   7.909
  802POPC   C4A12750  20.102   0.768   7.538
  802POPC   C1B12751  20.722   0.267   8.738
  802POPC   C2B12752  20.813   0.135   8.347
  802POPC   C3B12753  20.779   0.272   7.925
  802POPC   C4B12754  20.831   0.682   7.742
  803POPC   NC312755  38.058  13.871   9.538
  803POPC   PO412756  37.499  13.483   9.392
  803POPC   GL112757  37.633  13.686   9.072
  803POPC   GL212758  37.585  13.350   8.894
  803POPC   C1A12759  37.526  13.802   8.666
  803POPC   D2A12760  37.752  13.821   8.278
  803POPC   C3A12761  37.562  13.681   7.891
  803POPC   C4A12762  37.456  13.910   7.496
  803POPC   C1B12763  37.977  13.580   8.740
  803POPC   C2B12764  38.165  13.534   8.373
  803POPC   C3B12765  37.995  13.421   7.989
  803POPC   C4B12766  37.931  13.572   7.557
  804POPC   NC312767   8.244   0.667   9.579
  804POPC   PO412768   7.885   0.133   9.461
  804POPC   GL112769   8.105   0.208   9.079
  804POPC   GL212770   8.300   0.519   9.076
  804POPC   C1A12771   8.061   0.404   8.643
  804POPC   D2A12772   7.953   0.735   8.343
  804POPC   C3A12773   8.113   0.618   7.962
  804POPC   C4A12774   8.415   0.641   7.645
  804POPC   C1B12775   8.532   0.249   8.755
  804POPC   C2B12776   8.662   0.367   8.364
  804POPC   C3B12777   8.500   0.255   7.974
  804POPC   C4B12778   8.739   0.272   7.622
  805POPC   NC312779  34.011  25.724   9.490
  805POPC   PO412780  33.565  26.235   9.664
  805POPC   GL112781  33.796  26.068   9.190
  805POPC   GL212782  34.103  26.138   9.135
  805POPC   C1A12783  33.783  26.214   8.677
  805POPC   D2A12784  33.558  26.115   8.268
  805POPC   C3A12785  33.763  26.061   7.868
  805POPC   C4A12786  34.177  26.206   7.771
  805POPC   C1B12787  34.219  25.962   8.720
  805POPC   C2B12788  34.093  25.951   8.261
  805POPC   C3B12789  34.136  25.694   7.840
  805POPC   C4B12790  34.317  25.809   7.425
  806POPC   NC312791  20.605  44.489   9.899
  806POPC   PO412792  20.772  44.861   9.480
  806POPC   GL112793  20.452  44.639   9.224
  806POPC   GL212794  20.437  44.980   9.098
  806POPC   C1A12795  20.189  44.568   8.817
  806POPC   D2A12796  20.161  44.247   8.480
  806POPC   C3A12797  20.428  44.293   8.114
  806POPC   C4A12798  20.475  44.461   7.711
  806POPC   C1B12799  20.648  44.786   8.754
  806POPC   C2B12800  20.520  44.707   8.386
  806POPC   C3B12801  20.767  44.719   8.036
  806POPC   C4B12802  20.824  44.863   7.620
  807POPC   NC312803  21.236   2.594   9.555
  807POPC   PO412804  21.725   2.943   9.684
  807POPC   GL112805  21.495   2.918   9.254
  807POPC   GL212806  21.817   2.972   9.151
  807POPC   C1A12807  21.281   2.845   8.806
  807POPC   D2A12808  21.250   3.012   8.366
  807POPC   C3A12809  21.287   2.744   8.028
  807POPC   C4A12810  21.149   2.676   7.617
  807POPC   C1B12811  21.753   2.666   8.866
  807POPC   C2B12812  21.720   2.792   8.456
  807POPC   C3B12813  21.767   3.033   8.094
  807POPC   C4B12814  21.584   2.946   7.681
  808POPC   NC312815  21.862  23.235   9.797
  808POPC   PO412816  21.993  24.010   9.716
  808POPC   GL112817  22.077  23.984   9.213
  808POPC   GL212818  21.967  23.651   9.063
  808POPC   C1A12819  22.327  23.886   8.808
  808POPC   D2A12820  22.144  23.752   8.422
  808POPC   C3A12821  22.313  23.898   8.059
  808POPC   C4A12822  22.158  24.119   7.747
  808POPC   C1B12823  22.169  23.386   8.785
  808POPC   C2B12824  22.326  23.293   8.344
  808POPC   C3B12825  22.301  23.373   7.870
  808POPC   C4B12826  22.322  23.304   7.387
  809POPC   NC312827  16.037   6.785   9.406
  809POPC   PO412828  15.728   6.182   9.402
  809POPC   GL112829  15.811   6.437   9.067
  809POPC   GL212830  16.172   6.494   8.998
  809POPC   C1A12831  15.800   6.495   8.633
  809POPC   D2A12832  15.934   6.764   8.323
  809POPC   C3A12833  15.926   6.485   8.005
  809POPC   C4A12834  16.160   6.265   7.698
  809POPC   C1B12835  16.072   6.918   8.789
  809POPC   C2B12836  16.268   7.147   8.464
  809POPC   C3B12837  16.263   7.080   8.050
  809POPC   C4B12838  16.239   6.790   7.758
  810POPC   NC312839  11.787  12.203   9.847
  810POPC   PO412840  11.210  11.957   9.624
  810POPC   GL112841  11.266  11.955   9.173
  810POPC   GL212842  11.450  11.650   9.265
  810POPC   C1A12843  11.290  12.217   8.787
  810POPC   D2A12844  11.563  12.393   8.457
  810POPC   C3A12845  11.491  12.290   8.032
  810POPC   C4A12846  11.058  12.204   7.877
  810POPC   C1B12847  11.387  11.613   8.833
  810POPC   C2B12848  11.525  11.865   8.508
  810POPC   C3B12849  11.294  11.856   8.169
  810POPC   C4B12850  11.400  11.842   7.771
  811POPC   NC312851  14.222  13.736   9.599
  811POPC   PO412852  14.877  13.584   9.719
  811POPC   GL112853  14.558  13.566   9.276
  811POPC   GL212854  14.217  13.631   9.100
  811POPC   C1A12855  14.626  13.648   8.823
  811POPC   D2A12856  14.478  13.901   8.491
  811POPC   C3A12857  14.640  13.779   8.088
  811POPC   C4A12858  14.580  13.523   7.752
  811POPC   C1B12859  14.192  13.392   8.683
  811POPC   C2B12860  14.222  13.484   8.242
  811POPC   C3B12861  14.136  13.925   8.101
  811POPC   C4B12862  14.277  13.937   7.716
  812POPC   NC312863  42.682   9.479   9.453
  812POPC   PO412864  43.275   9.802   9.562
  812POPC   GL112865  43.000   9.844   9.225
  812POPC   GL212866  42.882   9.563   9.005
  812POPC   C1A12867  43.129   9.974   8.845
  812POPC   D2A12868  43.319   9.944   8.457
  812POPC   C3A12869  43.086   9.997   8.086
  812POPC   C4A12870  43.222   9.760   7.736
  812POPC   C1B12871  43.048   9.498   8.608
  812POPC   C2B12872  43.080   9.482   8.194
  812POPC   C3B12873  42.752   9.617   7.938
  812POPC   C4B12874  42.745   9.630   7.529
  813POPC   NC312875  13.764  41.267   9.485
  813POPC   PO412876  13.289  41.696   9.430
  813POPC   GL112877  13.370  41.384   9.116
  813POPC   GL212878  13.699  41.446   9.019
  813POPC   C1A12879  13.316  41.498   8.669
  813POPC   D2A12880  13.300  41.793   8.338
  813POPC   C3A12881  13.453  41.670   7.959
  813POPC   C4A12882  13.604  41.255   7.870
  813POPC   C1B12883  13.915  41.762   8.792
  813POPC   C2B12884  14.148  41.737   8.403
  813POPC   C3B12885  13.952  41.796   7.995
  813POPC   C4B12886  13.831  41.618   7.592
  814POPC   NC312887  42.070  12.778   9.492
  814POPC   PO412888  42.598  13.170   9.185
  814POPC   GL112889  42.301  12.910   9.017
  814POPC   GL212890  42.316  12.610   9.107
  814POPC   C1A12891  42.033  12.855   8.680
  814POPC   D2A12892  41.894  13.127   8.351
  814POPC   C3A12893  42.036  12.835   8.055
  814POPC   C4A12894  42.279  12.802   7.690
  814POPC   C1B12895  42.466  12.463   8.755
  814POPC   C2B12896  42.338  12.570   8.377
  814POPC   C3B12897  42.371  12.403   8.000
  814POPC   C4B12898  42.502  12.270   7.614
  815POPC   NC312899  19.645  42.538   9.603
  815POPC   PO412900  20.311  42.588   9.534
  815POPC   GL112901  19.919  42.477   9.171
  815POPC   GL212902  19.562  42.271   9.177
  815POPC   C1A12903  19.730  42.535   8.717
  815POPC   D2A12904  19.882  42.313   8.334
  815POPC   C3A12905  19.798  42.499   7.934
  815POPC   C4A12906  19.919  42.306   7.539
  815POPC   C1B12907  19.366  42.183   8.779
  815POPC   C2B12908  19.375  42.252   8.345
  815POPC   C3B12909  19.546  42.028   7.978
  815POPC   C4B12910  19.470  42.066   7.507
  816POPC   NC312911   8.775   4.739   9.477
  816POPC   PO412912   9.242   5.227   9.478
  816POPC   GL112913   9.124   5.048   9.093
  816POPC   GL212914   9.339   4.742   9.023
  816POPC   C1A12915   8.988   5.293   8.707
  816POPC   D2A12916   8.957   5.549   8.311
  816POPC   C3A12917   8.967   5.331   7.895
  816POPC   C4A12918   8.647   5.288   7.548
  816POPC   C1B12919   9.405   5.016   8.668
  816POPC   C2B12920   9.300   5.174   8.271
  816POPC   C3B12921   9.365   4.996   7.889
  816POPC   C4B12922   9.579   4.948   7.543
  817POPC   NC312923  41.362  23.252   9.597
  817POPC   PO412924  41.340  23.955   9.498
  817POPC   GL112925  41.490  23.775   9.130
  817POPC   GL212926  41.273  23.478   9.149
  817POPC   C1A12927  41.555  23.819   8.669
  817POPC   D2A12928  41.852  23.827   8.314
  817POPC   C3A12929  41.738  23.625   7.943
  817POPC   C4A12930  41.804  23.210   7.825
  817POPC   C1B12931  41.371  23.332   8.752
  817POPC   C2B12932  41.555  23.325   8.339
  817POPC   C3B12933  41.299  23.364   7.970
  817POPC   C4B12934  41.402  23.458   7.565
  818POPC   NC312935  15.744  33.970   9.421
  818POPC   PO412936  16.401  33.780   9.502
  818POPC   GL112937  16.127  33.650   9.126
  818POPC   GL212938  15.750  33.551   9.120
  818POPC   C1A12939  15.956  33.754   8.702
  818POPC   D2A12940  15.914  33.989   8.320
  818POPC   C3A12941  16.159  33.788   7.995
  818POPC   C4A12942  16.073  33.814   7.546
  818POPC   C1B12943  15.616  33.368   8.705
  818POPC   C2B12944  15.855  33.445   8.289
  818POPC   C3B12945  15.721  33.569   7.863
  818POPC   C4B12946  15.677  33.304   7.502
  819POPC   NC312947  34.369  15.343   9.578
  819POPC   PO412948  34.625  14.703   9.446
  819POPC   GL112949  34.480  14.967   9.114
  819POPC   GL212950  34.670  15.251   9.181
  819POPC   C1A12951  34.296  14.903   8.693
  819POPC   D2A12952  34.278  14.919   8.221
  819POPC   C3A12953  34.589  15.212   8.112
  819POPC   C4A12954  34.914  15.275   7.822
  819POPC   C1B12955  34.576  15.386   8.778
  819POPC   C2B12956  34.258  15.400   8.489
  819POPC   C3B12957  34.115  15.425   8.120
  819POPC   C4B12958  34.178  15.169   7.756
  820POPC   NC312959  25.300  41.553   9.701
  820POPC   PO412960  24.871  41.111   9.387
  820POPC   GL112961  25.015  41.297   9.053
  820POPC   GL212962  25.186  41.548   9.199
  820POPC   C1A12963  25.056  41.257   8.615
  820POPC   D2A12964  24.933  41.517   8.278
  820POPC   C3A12965  25.177  41.474   7.960
  820POPC   C4A12966  25.134  41.573   7.573
  820POPC   C1B12967  25.408  41.576   8.809
  820POPC   C2B12968  25.431  41.613   8.379
  820POPC   C3B12969  25.596  41.789   7.990
  820POPC   C4B12970  25.624  41.469   7.681
  821POPC   NC312971  18.719  38.590   9.582
  821POPC   PO412972  19.441  38.397   9.499
  821POPC   GL112973  19.086  38.475   9.221
  821POPC   GL212974  19.024  38.170   9.005
  821POPC   C1A12975  18.980  38.626   8.786
  821POPC   D2A12976  19.075  38.305   8.495
  821POPC   C3A12977  19.288  38.367   8.147
  821POPC   C4A12978  19.102  38.286   7.762
  821POPC   C1B12979  19.427  38.411   8.847
  821POPC   C2B12980  19.502  38.707   8.554
  821POPC   C3B12981  19.590  38.786   8.141
  821POPC   C4B12982  19.488  38.619   7.746
  822POPC   NC312983  23.343  28.913   9.353
  822POPC   PO412984  23.950  29.330   9.435
  822POPC   GL112985  23.668  29.208   9.112
  822POPC   GL212986  23.375  29.392   9.053
  822POPC   C1A12987  23.618  28.993   8.701
  822POPC   D2A12988  23.650  28.897   8.244
  822POPC   C3A12989  23.885  29.187   7.989
  822POPC   C4A12990  24.038  29.142   7.612
  822POPC   C1B12991  23.185  29.374   8.675
  822POPC   C2B12992  23.066  29.333   8.238
  822POPC   C3B12993  23.273  29.202   7.835
  822POPC   C4B12994  23.499  29.212   7.393
  823POPC   NC312995  18.918  13.843   9.613
  823POPC   PO412996  18.963  13.168   9.501
  823POPC   GL112997  19.053  13.481   9.179
  823POPC   GL212998  19.045  13.865   9.123
  823POPC   C1A12999  18.984  13.382   8.788
  823POPC   D2A13000  19.147  13.372   8.407
  823POPC   C3A13001  18.870  13.255   8.087
  823POPC   C4A13002  18.936  13.507   7.736
  823POPC   C1B13003  18.697  13.800   8.838
  823POPC   C2B13004  18.712  13.653   8.425
  823POPC   C3B13005  19.013  13.833   8.137
  823POPC   C4B13006  18.959  14.011   7.728
  824POPC   NC313007   1.691  27.186   9.255
  824POPC   PO413008   2.244  27.299   9.585
  824POPC   GL113009   2.099  27.525   9.212
  824POPC   GL213010   2.043  27.899   9.243
  824POPC   C1A13011   2.179  27.461   8.777
  824POPC   D2A13012   2.010  27.609   8.401
  824POPC   C3A13013   2.187  27.537   8.030
  824POPC   C4A13014   2.046  27.629   7.639
  824POPC   C1B13015   1.770  28.088   8.876
  824POPC   C2B13016   1.655  27.995   8.434
  824POPC   C3B13017   1.763  27.882   8.010
  824POPC   C4B13018   1.783  28.066   7.587
  825POPC   NC313019  20.736  17.688   9.442
  825POPC   PO413020  20.416  17.047   9.350
  825POPC   GL113021  20.687  17.268   9.108
  825POPC   GL213022  20.717  17.639   8.948
  825POPC   C1A13023  20.860  17.185   8.740
  825POPC   D2A13024  20.938  17.128   8.332
  825POPC   C3A13025  20.812  17.472   8.066
  825POPC   C4A13026  20.577  17.303   7.723
  825POPC   C1B13027  20.413  17.419   8.696
  825POPC   C2B13028  20.367  17.313   8.261
  825POPC   C3B13029  20.293  17.631   7.949
  825POPC   C4B13030  20.214  17.908   7.587
  826POPC   NC313031  41.658  35.880   9.461
  826POPC   PO413032  41.048  36.181   9.576
  826POPC   GL113033  41.239  36.007   9.201
  826POPC   GL213034  41.467  36.245   9.120
  826POPC   C1A13035  41.413  35.837   8.792
  826POPC   D2A13036  41.464  36.036   8.367
  826POPC   C3A13037  41.456  35.780   7.976
  826POPC   C4A13038  41.594  35.850   7.557
  826POPC   C1B13039  41.287  36.354   8.725
  826POPC   C2B13040  41.247  36.527   8.304
  826POPC   C3B13041  41.348  36.305   7.920
  826POPC   C4B13042  41.537  36.356   7.501
  827POPC   NC313043  25.331  41.077   9.403
  827POPC   PO413044  25.670  40.460   9.289
  827POPC   GL113045  25.340  40.724   9.045
  827POPC   GL213046  25.459  41.085   8.935
  827POPC   C1A13047  25.272  40.741   8.614
  827POPC   D2A13048  25.003  40.793   8.324
  827POPC   C3A13049  25.138  40.672   7.952
  827POPC   C4A13050  25.252  41.041   7.703
  827POPC   C1B13051  25.581  41.153   8.578
  827POPC   C2B13052  25.392  41.111   8.234
  827POPC   C3B13053  25.593  40.831   8.059
  827POPC   C4B13054  25.632  40.654   7.690
  828POPC   NC313055  15.043  25.734   9.552
  828POPC   PO413056  15.381  26.318   9.449
  828POPC   GL113057  15.009  26.279   9.212
  828POPC   GL213058  14.991  25.922   9.079
  828POPC   C1A13059  15.128  26.310   8.786
  828POPC   D2A13060  15.131  26.055   8.419
  828POPC   C3A13061  15.371  26.163   8.066
  828POPC   C4A13062  15.133  26.090   7.705
  828POPC   C1B13063  15.324  25.762   8.787
  828POPC   C2B13064  15.267  25.535   8.393
  828POPC   C3B13065  15.211  25.665   7.974
  828POPC   C4B13066  15.496  25.765   7.609
  829POPC   NC313067  29.207   1.389   9.611
  829POPC   PO413068  28.979   2.148   9.485
  829POPC   GL113069  29.007   1.984   9.126
  829POPC   GL213070  29.317   1.891   9.165
  829POPC   C1A13071  28.911   1.812   8.763
  829POPC   D2A13072  28.968   2.075   8.417
  829POPC   C3A13073  28.909   1.850   8.044
  829POPC   C4A13074  29.074   1.798   7.670
  829POPC   C1B13075  29.368   2.095   8.778
  829POPC   C2B13076  29.509   2.220   8.390
  829POPC   C3B13077  29.385   2.152   7.975
  829POPC   C4B13078  29.564   1.974   7.615
  830POPC   NC313079  32.649  12.421   9.547
  830POPC   PO413080  31.919  12.493   9.632
  830POPC   GL113081  32.188  12.249   9.312
  830POPC   GL213082  32.189  11.862   9.321
  830POPC   C1A13083  32.279  12.165   8.873
  830POPC   D2A13084  32.380  12.321   8.449
  830POPC   C3A13085  32.119  12.259   8.068
  830POPC   C4A13086  32.242  12.148   7.647
  830POPC   C1B13087  32.224  11.665   8.914
  830POPC   C2B13088  32.305  11.795   8.486
  830POPC   C3B13089  32.304  11.778   8.038
  830POPC   C4B13090  32.160  11.633   7.648
  831POPC   NC313091   5.590  26.484   9.346
  831POPC   PO413092   5.003  26.129   9.553
  831POPC   GL113093   5.097  25.982   9.123
  831POPC   GL213094   5.416  26.079   9.055
  831POPC   C1A13095   5.164  25.914   8.648
  831POPC   D2A13096   5.015  25.922   8.222
  831POPC   C3A13097   5.280  25.846   7.891
  831POPC   C4A13098   4.883  26.013   7.707
  831POPC   C1B13099   5.387  26.374   8.700
  831POPC   C2B13100   5.414  26.252   8.256
  831POPC   C3B13101   5.224  26.364   7.840
  831POPC   C4B13102   5.229  26.153   7.373
  832POPC   NC313103  31.144  22.603   9.492
  832POPC   PO413104  31.377  21.988   9.543
  832POPC   GL113105  31.174  22.070   9.199
  832POPC   GL213106  31.479  22.154   9.049
  832POPC   C1A13107  31.073  21.963   8.776
  832POPC   D2A13108  31.113  22.163   8.382
  832POPC   C3A13109  31.153  22.075   7.930
  832POPC   C4A13110  31.143  22.438   7.600
  832POPC   C1B13111  31.763  22.178   8.699
  832POPC   C2B13112  31.637  22.178   8.276
  832POPC   C3B13113  31.637  22.247   7.852
  832POPC   C4B13114  32.030  22.256   7.686
  833POPC   NC313115  27.532  41.882   9.464
  833POPC   PO413116  27.272  42.557   9.389
  833POPC   GL113117  27.508  42.277   9.096
  833POPC   GL213118  27.605  42.558   8.927
  833POPC   C1A13119  27.361  42.170   8.684
  833POPC   D2A13120  27.292  42.293   8.263
  833POPC   C3A13121  27.697  42.198   8.148
  833POPC   C4A13122  27.855  41.954   7.851
  833POPC   C1B13123  27.434  42.706   8.551
  833POPC   C2B13124  27.505  42.906   8.163
  833POPC   C3B13125  27.587  42.582   7.845
  833POPC   C4B13126  27.287  42.281   7.725
  834POPC   NC313127  27.865  40.743   9.311
  834POPC   PO413128  27.206  40.900   9.380
  834POPC   GL113129  27.420  40.792   9.052
  834POPC   GL213130  27.675  41.037   8.957
  834POPC   C1A13131  27.557  40.572   8.713
  834POPC   D2A13132  27.366  40.720   8.366
  834POPC   C3A13133  27.423  40.502   8.004
  834POPC   C4A13134  27.607  40.452   7.644
  834POPC   C1B13135  27.687  41.326   8.624
  834POPC   C2B13136  27.358  41.257   8.323
  834POPC   C3B13137  27.282  41.010   7.951
  834POPC   C4B13138  27.694  40.940   7.894
  835POPC   NC313139  20.660  21.822   9.521
  835POPC   PO413140  20.966  22.403   9.518
  835POPC   GL113141  20.746  22.176   9.173
  835POPC   GL213142  20.936  21.921   9.087
  835POPC   C1A13143  20.512  22.010   8.800
  835POPC   D2A13144  20.342  21.960   8.361
  835POPC   C3A13145  20.449  22.181   7.964
  835POPC   C4A13146  20.551  21.949   7.593
  835POPC   C1B13147  21.014  22.098   8.712
  835POPC   C2B13148  20.849  22.218   8.319
  835POPC   C3B13149  21.100  22.103   7.966
  835POPC   C4B13150  21.067  22.004   7.543
  836POPC   NC313151  13.850  19.710   9.238
  836POPC   PO413152  13.456  20.118   9.493
  836POPC   GL113153  13.392  19.961   9.119
  836POPC   GL213154  13.406  19.670   8.983
  836POPC   C1A13155  13.528  20.088   8.688
  836POPC   D2A13156  13.323  20.266   8.313
  836POPC   C3A13157  13.583  20.114   7.943
  836POPC   C4A13158  13.553  19.976   7.518
  836POPC   C1B13159  13.477  19.456   8.653
  836POPC   C2B13160  13.732  19.614   8.315
  836POPC   C3B13161  13.614  19.599   7.886
  836POPC   C4B13162  13.715  19.466   7.493
  837POPC   NC313163  27.381   6.961   9.407
  837POPC   PO413164  27.474   6.267   9.502
  837POPC   GL113165  27.631   6.544   9.154
  837POPC   GL213166  27.849   6.852   9.130
  837POPC   C1A13167  27.873   6.490   8.759
  837POPC   D2A13168  27.918   6.777   8.397
  837POPC   C3A13169  27.830   6.570   8.010
  837POPC   C4A13170  27.427   6.592   7.841
  837POPC   C1B13171  27.542   6.873   8.767
  837POPC   C2B13172  27.396   6.893   8.343
  837POPC   C3B13173  27.641   7.056   8.006
  837POPC   C4B13174  27.559   7.017   7.575
  838POPC   NC313175   1.555   9.740   9.355
  838POPC   PO413176   0.873   9.806   9.357
  838POPC   GL113177   1.140   9.627   9.048
  838POPC   GL213178   1.483   9.423   8.982
  838POPC   C1A13179   1.031   9.705   8.651
  838POPC   D2A13180   1.262   9.933   8.328
  838POPC   C3A13181   1.148   9.899   7.892
  838POPC   C4A13182   1.344  10.021   7.476
  838POPC   C1B13183   1.449   9.447   8.549
  838POPC   C2B13184   1.346   9.453   8.121
  838POPC   C3B13185   1.431   9.466   7.709
  838POPC   C4B13186   1.499   9.582   7.290
  839POPC   NC313187  42.588  27.939   9.458
  839POPC   PO413188  43.049  27.451   9.502
  839POPC   GL113189  43.021  27.284   9.118
  839POPC   GL213190  42.663  27.161   9.187
  839POPC   C1A13191  43.120  27.493   8.700
  839POPC   D2A13192  43.344  27.793   8.430
  839POPC   C3A13193  43.114  27.904   8.070
  839POPC   C4A13194  43.152  27.659   7.648
  839POPC   C1B13195  42.722  27.158   8.742
  839POPC   C2B13196  42.730  27.341   8.364
  839POPC   C3B13197  43.050  27.399   8.080
  839POPC   C4B13198  42.930  27.199   7.672
  840POPC   NC313199  40.009  43.485   9.442
  840POPC   PO413200  40.332  42.883   9.434
  840POPC   GL113201  40.228  42.973   9.037
  840POPC   GL213202  39.904  42.974   9.103
  840POPC   C1A13203  40.018  42.894   8.633
  840POPC   D2A13204  39.951  42.903   8.240
  840POPC   C3A13205  40.146  43.214   8.129
  840POPC   C4A13206  40.371  43.250   7.770
  840POPC   C1B13207  39.751  43.309   8.814
  840POPC   C2B13208  39.631  43.322   8.370
  840POPC   C3B13209  39.561  43.185   7.985
  840POPC   C4B13210  39.870  43.030   7.737
  841POPC   NC313211   9.561  26.758   9.574
  841POPC   PO413212   9.733  26.099   9.486
  841POPC   GL113213   9.820  26.516   9.166
  841POPC   GL213214  10.010  26.841   9.095
  841POPC   C1A13215   9.644  26.734   8.738
  841POPC   D2A13216   9.405  26.945   8.324
  841POPC   C3A13217   9.599  26.848   7.923
  841POPC   C4A13218   9.590  26.413   7.763
  841POPC   C1B13219  10.021  27.089   8.740
  841POPC   C2B13220   9.919  26.939   8.343
  841POPC   C3B13221  10.100  26.877   7.951
  841POPC   C4B13222  10.267  27.194   7.741
  842POPC   NC313223   5.106   2.092   9.452
  842POPC   PO413224   4.981   1.342   9.515
  842POPC   GL113225   5.042   1.661   9.181
  842POPC   GL213226   4.757   1.843   9.044
  842POPC   C1A13227   5.222   1.950   8.842
  842POPC   D2A13228   4.899   2.153   8.572
  842POPC   C3A13229   5.039   2.119   8.153
  842POPC   C4A13230   5.072   2.220   7.721
  842POPC   C1B13231   4.869   1.640   8.655
  842POPC   C2B13232   5.084   1.620   8.268
  842POPC   C3B13233   4.912   1.738   7.868
  842POPC   C4B13234   4.540   1.602   7.789
  843POPC   NC313235   1.312  24.822   9.441
  843POPC   PO413236   1.150  24.136   9.492
  843POPC   GL113237   1.146  24.430   9.133
  843POPC   GL213238   1.487  24.513   9.069
  843POPC   C1A13239   1.001  24.561   8.717
  843POPC   D2A13240   1.248  24.731   8.391
  843POPC   C3A13241   1.102  24.610   7.978
  843POPC   C4A13242   1.283  24.448   7.579
  843POPC   C1B13243   1.508  24.295   8.665
  843POPC   C2B13244   1.441  24.263   8.219
  843POPC   C3B13245   1.670  24.452   7.889
  843POPC   C4B13246   1.776  24.473   7.448
  844POPC   NC313247  37.118   9.730   9.620
  844POPC   PO413248  36.591  10.154   9.583
  844POPC   GL113249  36.726   9.778   9.258
  844POPC   GL213250  36.901   9.410   9.276
  844POPC   C1A13251  36.986   9.749   8.860
  844POPC   D2A13252  37.102   9.981   8.465
  844POPC   C3A13253  36.969   9.822   8.070
  844POPC   C4A13254  37.103   9.906   7.673
  844POPC   C1B13255  36.718   9.296   8.870
  844POPC   C2B13256  36.727   9.449   8.481
  844POPC   C3B13257  36.827   9.320   8.092
  844POPC   C4B13258  37.022   9.421   7.704
  845POPC   NC313259  42.144  30.453   9.491
  845POPC   PO413260  42.493  30.999   9.289
  845POPC   GL113261  42.174  30.811   9.136
  845POPC   GL213262  42.362  30.510   9.054
  845POPC   C1A13263  42.117  30.824   8.722
  845POPC   D2A13264  42.398  31.024   8.424
  845POPC   C3A13265  42.164  31.063   8.058
  845POPC   C4A13266  42.334  30.915   7.709
  845POPC   C1B13267  42.581  30.260   8.803
  845POPC   C2B13268  42.657  30.381   8.411
  845POPC   C3B13269  42.376  30.569   8.120
  845POPC   C4B13270  42.575  30.469   7.752
  846POPC   NC313271  19.096   1.833   9.725
  846POPC   PO413272  19.041   1.267   9.407
  846POPC   GL113273  19.123   1.242   9.041
  846POPC   GL213274  19.459   1.428   9.043
  846POPC   C1A13275  19.153   1.242   8.641
  846POPC   D2A13276  19.296   1.488   8.371
  846POPC   C3A13277  19.134   1.382   7.999
  846POPC   C4A13278  19.037   1.411   7.597
  846POPC   C1B13279  19.577   1.073   8.841
  846POPC   C2B13280  19.536   0.902   8.457
  846POPC   C3B13281  19.584   1.148   8.105
  846POPC   C4B13282  19.478   1.185   7.667
  847POPC   NC313283  44.709  24.133   9.709
  847POPC   PO413284  44.428  24.629   9.372
  847POPC   GL113285  44.732  24.526   9.055
  847POPC   GL213286  44.647  24.224   9.035
  847POPC   C1A13287  44.960  24.395   8.683
  847POPC   D2A13288  44.795  24.558   8.325
  847POPC   C3A13289   0.042  24.498   8.005
  847POPC   C4A13290  44.868  24.539   7.605
  847POPC   C1B13291  44.414  24.443   8.671
  847POPC   C2B13292  44.333  24.294   8.264
  847POPC   C3B13293  44.495  24.438   7.905
  847POPC   C4B13294  44.369  24.582   7.483
  848POPC   NC313295  34.006  33.064   9.535
  848POPC   PO413296  33.537  32.530   9.793
  848POPC   GL113297  33.604  32.867   9.335
  848POPC   GL213298  33.937  32.760   9.146
  848POPC   C1A13299  33.584  33.002   8.855
  848POPC   D2A13300  33.575  33.256   8.460
  848POPC   C3A13301  33.543  33.040   8.050
  848POPC   C4A13302  33.646  32.955   7.601
  848POPC   C1B13303  34.085  33.081   8.779
  848POPC   C2B13304  34.027  33.042   8.297
  848POPC   C3B13305  34.112  33.046   7.835
  848POPC   C4B13306  34.105  32.740   7.486
  849POPC   NC313307  43.750  12.407   9.536
  849POPC   PO413308  44.249  12.916   9.468
  849POPC   GL113309  44.092  12.658   9.099
  849POPC   GL213310  43.721  12.685   9.068
  849POPC   C1A13311  43.983  12.643   8.642
  849POPC   D2A13312  43.814  12.826   8.263
  849POPC   C3A13313  44.058  12.924   7.910
  849POPC   C4A13314  44.267  12.779   7.565
  849POPC   C1B13315  43.711  13.060   8.749
  849POPC   C2B13316  43.521  13.223   8.332
  849POPC   C3B13317  43.577  13.136   7.863
  849POPC   C4B13318  43.420  13.163   7.409
  850POPC   NC313319  25.014  42.424   9.832
  850POPC   PO413320  25.390  41.964   9.491
  850POPC   GL113321  25.251  42.280   9.138
  850POPC   GL213322  25.225  42.008   8.971
  850POPC   C1A13323  25.161  42.384   8.646
  850POPC   D2A13324  25.377  42.458   8.235
  850POPC   C3A13325  25.182  42.445   7.826
  850POPC   C4A13326  24.919  42.688   7.549
  850POPC   C1B13327  25.029  41.858   8.649
  850POPC   C2B13328  25.150  42.008   8.267
  850POPC   C3B13329  25.095  41.964   7.884
  850POPC   C4B13330  25.042  42.078   7.489
  851POPC   NC313331   3.813  44.902   9.460
  851POPC   PO413332   3.312  44.461   9.491
  851POPC   GL113333   3.643  44.487   9.196
  851POPC   GL213334   3.567  44.825   9.024
  851POPC   C1A13335   3.775  44.443   8.765
  851POPC   D2A13336   3.570  44.593   8.388
  851POPC   C3A13337   3.570  44.374   7.985
  851POPC   C4A13338   3.568  44.508   7.545
  851POPC   C1B13339   3.210  44.889   8.733
  851POPC   C2B13340   3.191  44.972   8.285
  851POPC   C3B13341   3.497  44.887   7.959
  851POPC   C4B13342   3.877  44.893   7.685
  852POPC   NC313343  18.064  14.580   9.408
  852POPC   PO413344  18.576  14.087   9.418
  852POPC   GL113345  18.371  14.305   9.114
  852POPC   GL213346  18.508  14.595   8.938
  852POPC   C1A13347  18.316  14.148   8.737
  852POPC   D2A13348  18.428  14.072   8.362
  852POPC   C3A13349  18.276  14.378   8.104
  852POPC   C4A13350  18.274  14.309   7.694
  852POPC   C1B13351  18.069  14.606   8.738
  852POPC   C2B13352  17.843  14.697   8.327
  852POPC   C3B13353  17.868  14.711   7.862
  852POPC   C4B13354  17.909  14.578   7.436
  853POPC   NC313355   5.644  28.880   9.470
  853POPC   PO413356   6.177  29.339   9.461
  853POPC   GL113357   5.785  29.312   9.148
  853POPC   GL213358   5.522  29.041   9.022
  853POPC   C1A13359   5.795  29.305   8.679
  853POPC   D2A13360   6.122  29.424   8.369
  853POPC   C3A13361   6.146  29.205   7.967
  853POPC   C4A13362   6.008  29.200   7.520
  853POPC   C1B13363   5.667  28.798   8.660
  853POPC   C2B13364   5.785  28.897   8.231
  853POPC   C3B13365   5.628  28.996   7.802
  853POPC   C4B13366   5.581  29.009   7.298
  854POPC   NC313367  34.455  24.834   9.389
  854POPC   PO413368  34.889  24.319   9.636
  854POPC   GL113369  34.729  24.320   9.216
  854POPC   GL213370  34.386  24.359   9.162
  854POPC   C1A13371  34.753  24.519   8.797
  854POPC   D2A13372  34.797  24.299   8.397
  854POPC   C3A13373  34.868  24.498   8.022
  854POPC   C4A13374  34.613  24.292   7.727
  854POPC   C1B13375  34.234  24.480   8.745
  854POPC   C2B13376  34.391  24.598   8.333
  854POPC   C3B13377  34.407  24.774   7.917
  854POPC   C4B13378  34.498  24.724   7.473
  855POPC   NC313379  10.498  39.106   9.553
  855POPC   PO413380  10.140  39.706   9.401
  855POPC   GL113381  10.293  39.390   9.136
  855POPC   GL213382  10.629  39.372   9.131
  855POPC   C1A13383  10.373  39.216   8.719
  855POPC   D2A13384  10.378  39.392   8.315
  855POPC   C3A13385  10.308  39.135   7.973
  855POPC   C4A13386  10.511  39.058   7.589
  855POPC   C1B13387  10.923  39.250   8.871
  855POPC   C2B13388  10.849  39.269   8.458
  855POPC   C3B13389  10.822  39.193   8.028
  855POPC   C4B13390  11.027  39.000   7.701
  856POPC   NC313391  21.164   9.379   9.531
  856POPC   PO413392  21.663   8.940   9.466
  856POPC   GL113393  21.487   8.973   9.091
  856POPC   GL213394  21.140   9.045   9.091
  856POPC   C1A13395  21.404   8.829   8.687
  856POPC   D2A13396  21.326   9.062   8.341
  856POPC   C3A13397  21.484   8.905   7.982
  856POPC   C4A13398  21.471   8.573   7.687
  856POPC   C1B13399  21.050   9.324   8.749
  856POPC   C2B13400  21.084   9.529   8.336
  856POPC   C3B13401  21.100   9.292   7.934
  856POPC   C4B13402  21.087   8.911   7.676
  857POPC   NC313403  43.495   3.029   9.491
  857POPC   PO413404  44.019   2.578   9.638
  857POPC   GL113405  43.904   2.765   9.219
  857POPC   GL213406  44.080   2.526   9.059
  857POPC   C1A13407  43.789   3.006   8.830
  857POPC   D2A13408  43.682   2.914   8.372
  857POPC   C3A13409  43.814   3.082   8.001
  857POPC   C4A13410  43.693   2.855   7.651
  857POPC   C1B13411  44.048   2.613   8.627
  857POPC   C2B13412  44.167   2.780   8.235
  857POPC   C3B13413  44.314   2.609   7.862
  857POPC   C4B13414  44.035   2.342   7.717
  858POPC   NC313415   7.190   7.846   9.500
  858POPC   PO413416   7.664   8.335   9.447
  858POPC   GL113417   7.529   8.187   9.125
  858POPC   GL213418   7.588   7.850   9.142
  858POPC   C1A13419   7.623   8.323   8.720
  858POPC   D2A13420   7.404   8.333   8.369
  858POPC   C3A13421   7.517   8.107   8.030
  858POPC   C4A13422   7.363   8.092   7.655
  858POPC   C1B13423   7.311   7.920   8.767
  858POPC   C2B13424   7.237   7.845   8.350
  858POPC   C3B13425   7.035   7.847   7.941
  858POPC   C4B13426   6.999   7.669   7.515
  859POPC   NC313427   0.716  24.419   9.418
  859POPC   PO413428  44.996  24.402   9.457
  859POPC   GL113429   0.263  24.417   9.106
  859POPC   GL213430   0.422  24.672   9.103
  859POPC   C1A13431   0.498  24.268   8.744
  859POPC   D2A13432   0.305  24.175   8.340
  859POPC   C3A13433   0.531  24.260   7.987
  859POPC   C4A13434   0.313  24.324   7.615
  859POPC   C1B13435   0.365  24.776   8.689
  859POPC   C2B13436   0.594  24.625   8.340
  859POPC   C3B13437   0.583  24.764   7.905
  859POPC   C4B13438   0.226  24.887   7.690
  860POPC   NC313439  22.431  32.351   9.561
  860POPC   PO413440  21.882  32.344   9.264
  860POPC   GL113441  22.258  32.166   9.114
  860POPC   GL213442  22.479  32.464   9.074
  860POPC   C1A13443  22.133  31.981   8.754
  860POPC   D2A13444  22.206  32.102   8.357
  860POPC   C3A13445  21.910  32.055   8.064
  860POPC   C4A13446  22.114  31.965   7.703
  860POPC   C1B13447  22.250  32.490   8.702
  860POPC   C2B13448  22.065  32.635   8.314
  860POPC   C3B13449  22.215  32.439   7.948
  860POPC   C4B13450  22.494  32.504   7.620
  861POPC   NC313451   0.247   5.212   9.521
  861POPC   PO413452   0.385   4.616   9.756
  861POPC   GL113453   0.439   4.796   9.307
  861POPC   GL213454   0.705   5.070   9.252
  861POPC   C1A13455   0.401   4.969   8.853
  861POPC   D2A13456   0.392   4.758   8.464
  861POPC   C3A13457   0.404   5.019   8.123
  861POPC   C4A13458   0.449   5.070   7.710
  861POPC   C1B13459   0.909   4.924   8.826
  861POPC   C2B13460   0.883   4.704   8.385
  861POPC   C3B13461   0.776   4.721   7.936
  861POPC   C4B13462   0.779   4.795   7.462
  862POPC   NC313463  36.918  44.360   9.265
  862POPC   PO413464  36.988   0.009   9.491
  862POPC   GL113465  36.911  44.842   9.048
  862POPC   GL213466  36.584  44.716   9.069
  862POPC   C1A13467  36.761  44.902   8.592
  862POPC   D2A13468  36.731  44.893   8.113
  862POPC   C3A13469  37.083  44.718   7.900
  862POPC   C4A13470  37.514  44.924   7.852
  862POPC   C1B13471  36.581  44.406   8.709
  862POPC   C2B13472  36.673  44.197   8.324
  862POPC   C3B13473  36.607  44.393   7.936
  862POPC   C4B13474  36.652  44.682   7.627
  863POPC   NC313475   9.209  31.071   9.271
  863POPC   PO413476   9.758  31.475   9.546
  863POPC   GL113477   9.542  31.440   9.160
  863POPC   GL213478   9.395  31.761   9.104
  863POPC   C1A13479   9.717  31.254   8.752
  863POPC   D2A13480   9.951  31.115   8.363
  863POPC   C3A13481   9.919  31.413   8.053
  863POPC   C4A13482   9.680  31.465   7.739
  863POPC   C1B13483   9.444  31.694   8.707
  863POPC   C2B13484   9.514  31.535   8.347
  863POPC   C3B13485   9.409  31.790   8.002
  863POPC   C4B13486   9.467  31.869   7.532
  864POPC   NC313487  18.814  32.053   9.206
  864POPC   PO413488  18.351  32.394   9.603
  864POPC   GL113489  18.394  32.367   9.199
  864POPC   GL213490  18.259  32.036   9.241
  864POPC   C1A13491  18.300  32.325   8.768
  864POPC   D2A13492  18.170  32.170   8.369
  864POPC   C3A13493  18.390  32.336   7.998
  864POPC   C4A13494  18.279  32.300   7.582
  864POPC   C1B13495  18.231  31.833   8.895
  864POPC   C2B13496  18.517  31.761   8.588
  864POPC   C3B13497  18.459  31.782   8.135
  864POPC   C4B13498  18.520  31.809   7.697
  865POPC   NC313499  24.772   5.017   9.479
  865POPC   PO413500  25.273   5.361   9.410
  865POPC   GL113501  25.101   5.202   9.085
  865POPC   GL213502  25.420   4.995   9.094
  865POPC   C1A13503  25.218   5.208   8.667
  865POPC   D2A13504  25.087   5.391   8.325
  865POPC   C3A13505  25.357   5.336   8.022
  865POPC   C4A13506  25.083   5.121   7.786
  865POPC   C1B13507  25.458   4.752   8.749
  865POPC   C2B13508  25.680   4.667   8.392
  865POPC   C3B13509  25.411   4.839   8.100
  865POPC   C4B13510  25.444   4.790   7.649
  866POPC   NC313511  41.137   7.812   9.375
  866POPC   PO413512  41.522   8.347   9.520
  866POPC   GL113513  41.519   8.119   9.154
  866POPC   GL213514  41.187   8.229   9.088
  866POPC   C1A13515  41.736   8.180   8.759
  866POPC   D2A13516  41.934   8.328   8.370
  866POPC   C3A13517  41.835   8.232   7.924
  866POPC   C4A13518  41.618   8.505   7.617
  866POPC   C1B13519  41.276   7.923   8.733
  866POPC   C2B13520  41.478   8.004   8.331
  866POPC   C3B13521  41.345   8.198   7.958
  866POPC   C4B13522  41.194   7.884   7.738
  867POPC   NC313523   3.281  26.774   9.474
  867POPC   PO413524   3.847  27.125   9.467
  867POPC   GL113525   3.691  26.897   9.120
  867POPC   GL213526   3.394  26.796   8.979
  867POPC   C1A13527   3.857  26.692   8.755
  867POPC   D2A13528   3.794  26.776   8.315
  867POPC   C3A13529   3.462  26.669   8.018
  867POPC   C4A13530   3.542  26.713   7.611
  867POPC   C1B13531   3.525  27.108   8.679
  867POPC   C2B13532   3.399  27.107   8.286
  867POPC   C3B13533   3.563  27.165   7.891
  867POPC   C4B13534   3.510  27.220   7.448
  868POPC   NC313535  14.579  23.638   9.611
  868POPC   PO413536  13.938  23.871   9.551
  868POPC   GL113537  14.128  23.822   9.137
  868POPC   GL213538  14.342  23.597   9.166
  868POPC   C1A13539  14.288  23.865   8.706
  868POPC   D2A13540  14.229  24.039   8.282
  868POPC   C3A13541  14.385  23.721   8.014
  868POPC   C4A13542  14.203  23.460   7.716
  868POPC   C1B13543  14.616  23.469   8.875
  868POPC   C2B13544  14.656  23.559   8.449
  868POPC   C3B13545  14.850  23.382   8.101
  868POPC   C4B13546  14.662  23.237   7.748
  869POPC   NC313547   1.015   1.746   9.487
  869POPC   PO413548   1.497   2.102   9.220
  869POPC   GL113549   1.187   1.859   9.033
  869POPC   GL213550   0.959   2.094   9.064
  869POPC   C1A13551   0.984   1.585   8.769
  869POPC   D2A13552   1.151   1.493   8.404
  869POPC   C3A13553   1.203   1.836   8.129
  869POPC   C4A13554   1.251   1.695   7.751
  869POPC   C1B13555   0.789   2.329   8.723
  869POPC   C2B13556   0.897   2.340   8.286
  869POPC   C3B13557   0.831   2.153   7.877
  869POPC   C4B13558   1.102   2.173   7.538
  870POPC   NC313559  23.167  17.935   9.331
  870POPC   PO413560  22.813  17.450   9.775
  870POPC   GL113561  22.713  17.657   9.338
  870POPC   GL213562  22.691  17.312   9.220
  870POPC   C1A13563  22.756  17.688   8.844
  870POPC   D2A13564  22.608  17.838   8.428
  870POPC   C3A13565  22.845  17.636   8.128
  870POPC   C4A13566  22.939  17.531   7.742
  870POPC   C1B13567  22.640  17.110   8.837
  870POPC   C2B13568  22.633  17.304   8.449
  870POPC   C3B13569  22.644  17.141   8.002
  870POPC   C4B13570  22.816  17.066   7.608
  871POPC   NC313571   9.471   8.063   9.654
  871POPC   PO413572   9.942   8.515   9.535
  871POPC   GL113573   9.696   8.310   9.251
  871POPC   GL213574   9.614   7.928   9.193
  871POPC   C1A13575   9.789   8.252   8.848
  871POPC   D2A13576   9.566   8.309   8.491
  871POPC   C3A13577   9.759   8.315   8.110
  871POPC   C4A13578   9.613   8.507   7.757
  871POPC   C1B13579   9.597   7.776   8.786
  871POPC   C2B13580   9.719   7.539   8.448
  871POPC   C3B13581   9.692   7.804   8.107
  871POPC   C4B13582   9.455   8.030   7.790
  872POPC   NC313583  30.345  18.825   9.302
  872POPC   PO413584  31.049  18.836   9.404
  872POPC   GL113585  30.801  19.113   9.123
  872POPC   GL213586  31.087  19.211   8.943
  872POPC   C1A13587  30.596  19.175   8.712
  872POPC   D2A13588  30.412  19.006   8.309
  872POPC   C3A13589  30.567  19.175   7.910
  872POPC   C4A13590  30.667  19.149   7.494
  872POPC   C1B13591  31.003  18.885   8.656
  872POPC   C2B13592  30.930  19.006   8.214
  872POPC   C3B13593  31.048  18.935   7.774
  872POPC   C4B13594  31.128  18.973   7.291
  873POPC   NC313595  18.503  44.441   9.630
  873POPC   PO413596  18.327   0.086   9.579
  873POPC   GL113597  18.243  44.822   9.215
  873POPC   GL213598  17.974  44.595   9.173
  873POPC   C1A13599  18.104  44.844   8.758
  873POPC   D2A13600  18.266  44.944   8.332
  873POPC   C3A13601  18.050  44.847   7.951
  873POPC   C4A13602  18.254  44.582   7.672
  873POPC   C1B13603  17.912  44.359   8.787
  873POPC   C2B13604  17.916  44.526   8.352
  873POPC   C3B13605  17.929  44.297   7.959
  873POPC   C4B13606  18.032  44.135   7.564
  874POPC   NC313607  37.735  40.111   9.769
  874POPC   PO413608  37.641  39.627   9.299
  874POPC   GL113609  37.752  40.059   9.126
  874POPC   GL213610  37.503  39.960   8.860
  874POPC   C1A13611  37.759  40.363   8.724
  874POPC   D2A13612  37.759  40.196   8.307
  874POPC   C3A13613  37.416  40.255   8.051
  874POPC   C4A13614  37.570  40.416   7.666
  874POPC   C1B13615  37.863  39.858   8.663
  874POPC   C2B13616  37.949  39.520   8.392
  874POPC   C3B13617  38.027  39.639   7.998
  874POPC   C4B13618  37.828  40.010   7.819
  875POPC   NC313619  17.752  35.486   9.431
  875POPC   PO413620  17.287  35.708   9.845
  875POPC   GL113621  17.259  35.390   9.351
  875POPC   GL213622  17.485  35.534   9.006
  875POPC   C1A13623  17.253  35.096   8.912
  875POPC   D2A13624  17.558  35.052   8.511
  875POPC   C3A13625  17.505  35.109   8.045
  875POPC   C4A13626  17.163  35.344   7.838
  875POPC   C1B13627  17.806  35.474   8.648
  875POPC   C2B13628  17.888  35.500   8.171
  875POPC   C3B13629  17.630  35.612   7.802
  875POPC   C4B13630  17.749  35.646   7.366
  876POPC   NC313631   0.056  27.288   9.539
  876POPC   PO413632   0.670  26.856   9.468
  876POPC   GL113633   0.720  26.902   9.062
  876POPC   GL213634   0.709  27.237   8.860
  876POPC   C1A13635   0.605  26.757   8.693
  876POPC   D2A13636   0.617  27.011   8.342
  876POPC   C3A13637   0.533  26.783   8.003
  876POPC   C4A13638   0.790  26.540   7.749
  876POPC   C1B13639   0.275  27.110   8.875
  876POPC   C2B13640   0.135  26.922   8.509
  876POPC   C3B13641   0.120  27.094   8.084
  876POPC   C4B13642   0.071  26.812   7.739
  877POPC   NC313643  14.058  25.861   9.435
  877POPC   PO413644  14.689  26.051   9.575
  877POPC   GL113645  14.494  25.931   9.202
  877POPC   GL213646  14.270  26.212   9.134
  877POPC   C1A13647  14.310  25.880   8.769
  877POPC   D2A13648  14.359  26.167   8.425
  877POPC   C3A13649  14.455  25.966   8.046
  877POPC   C4A13650  14.556  25.880   7.635
  877POPC   C1B13651  14.620  26.283   8.866
  877POPC   C2B13652  14.759  26.486   8.490
  877POPC   C3B13653  14.879  26.358   8.090
  877POPC   C4B13654  14.715  26.357   7.696
  878POPC   NC313655  28.134  33.120   9.613
  878POPC   PO413656  28.609  32.751   9.463
  878POPC   GL113657  28.535  32.947   9.055
  878POPC   GL213658  28.451  33.306   9.162
  878POPC   C1A13659  28.336  32.823   8.643
  878POPC   D2A13660  27.977  32.927   8.352
  878POPC   C3A13661  28.198  33.079   8.016
  878POPC   C4A13662  28.489  32.793   7.802
  878POPC   C1B13663  28.637  33.388   8.760
  878POPC   C2B13664  28.570  33.209   8.350
  878POPC   C3B13665  28.663  33.331   7.921
  878POPC   C4B13666  28.609  33.291   7.489
  879POPC   NC313667   1.857  27.015   9.785
  879POPC   PO413668   1.711  26.467   9.431
  879POPC   GL113669   2.012  26.621   9.134
  879POPC   GL213670   2.172  26.960   9.173
  879POPC   C1A13671   2.308  26.566   8.797
  879POPC   D2A13672   2.423  26.647   8.353
  879POPC   C3A13673   2.180  26.882   8.014
  879POPC   C4A13674   1.789  26.790   7.771
  879POPC   C1B13675   2.002  26.966   8.724
  879POPC   C2B13676   1.855  27.127   8.335
  879POPC   C3B13677   1.757  27.299   7.924
  879POPC   C4B13678   1.830  27.205   7.458
  880POPC   NC313679  20.983  39.666   9.691
  880POPC   PO413680  21.453  40.133   9.501
  880POPC   GL113681  21.220  40.003   9.164
  880POPC   GL213682  21.050  40.301   8.976
  880POPC   C1A13683  21.361  39.773   8.830
  880POPC   D2A13684  21.544  40.072   8.578
  880POPC   C3A13685  21.443  39.988   8.154
  880POPC   C4A13686  21.579  39.799   7.750
  880POPC   C1B13687  21.039  40.132   8.570
  880POPC   C2B13688  20.919  40.152   8.151
  880POPC   C3B13689  21.188  40.327   7.843
  880POPC   C4B13690  21.640  40.291   7.788
  881POPC   NC313691  41.287  10.577   9.455
  881POPC   PO413692  40.628  10.359   9.486
  881POPC   GL113693  40.889  10.440   9.149
  881POPC   GL213694  40.906  10.781   9.156
  881POPC   C1A13695  41.060  10.498   8.736
  881POPC   D2A13696  41.200  10.532   8.310
  881POPC   C3A13697  40.972  10.196   8.090
  881POPC   C4A13698  40.771  10.190   7.682
  881POPC   C1B13699  40.762  10.917   8.746
  881POPC   C2B13700  40.693  10.680   8.374
  881POPC   C3B13701  40.765  10.680   7.930
  881POPC   C4B13702  40.439  10.586   7.615
  882POPC   NC313703  28.120   3.235   9.377
  882POPC   PO413704  28.351   2.579   9.441
  882POPC   GL113705  28.249   2.802   9.093
  882POPC   GL213706  28.517   2.990   9.086
  882POPC   C1A13707  28.287   2.933   8.648
  882POPC   D2A13708  28.420   2.939   8.246
  882POPC   C3A13709  28.078   2.734   8.008
  882POPC   C4A13710  28.001   2.589   7.615
  882POPC   C1B13711  28.706   2.676   8.817
  882POPC   C2B13712  28.636   2.485   8.416
  882POPC   C3B13713  28.619   2.545   7.961
  882POPC   C4B13714  28.458   2.904   7.737
  883POPC   NC313715   5.483  32.589   9.285
  883POPC   PO413716   5.728  33.165   9.551
  883POPC   GL113717   5.850  33.029   9.176
  883POPC   GL213718   6.052  33.340   9.123
  883POPC   C1A13719   5.909  32.796   8.785
  883POPC   D2A13720   5.875  32.618   8.394
  883POPC   C3A13721   5.981  32.888   8.106
  883POPC   C4A13722   5.984  33.046   7.711
  883POPC   C1B13723   5.792  33.351   8.790
  883POPC   C2B13724   5.798  33.498   8.410
  883POPC   C3B13725   5.673  33.317   8.047
  883POPC   C4B13726   5.687  33.575   7.715
  884POPC   NC313727  18.180  21.707   9.581
  884POPC   PO413728  17.742  22.223   9.707
  884POPC   GL113729  18.044  22.159   9.328
  884POPC   GL213730  18.021  21.875   9.129
  884POPC   C1A13731  18.187  22.281   8.896
  884POPC   D2A13732  18.305  22.276   8.462
  884POPC   C3A13733  18.103  22.203   8.112
  884POPC   C4A13734  18.070  22.320   7.706
  884POPC   C1B13735  18.231  21.790   8.766
  884POPC   C2B13736  18.145  21.743   8.380
  884POPC   C3B13737  18.451  21.820   8.130
  884POPC   C4B13738  18.478  21.808   7.731
  885POPC   NC313739   8.950  19.917   9.701
  885POPC   PO413740   8.940  20.578   9.489
  885POPC   GL113741   8.832  20.592   9.071
  885POPC   GL213742   8.912  20.916   9.015
  885POPC   C1A13743   9.039  20.485   8.682
  885POPC   D2A13744   9.137  20.130   8.399
  885POPC   C3A13745   9.265  20.377   8.026
  885POPC   C4A13746   8.951  20.564   7.779
  885POPC   C1B13747   8.994  21.025   8.618
  885POPC   C2B13748   8.842  20.907   8.199
  885POPC   C3B13749   9.020  21.075   7.839
  885POPC   C4B13750   9.227  20.900   7.494
  886POPC   NC313751  42.135  23.625   9.603
  886POPC   PO413752  42.761  23.571   9.508
  886POPC   GL113753  42.473  23.727   9.205
  886POPC   GL213754  42.104  23.775   9.123
  886POPC   C1A13755  42.580  23.565   8.815
  886POPC   D2A13756  42.268  23.653   8.543
  886POPC   C3A13757  42.155  23.410   8.213
  886POPC   C4A13758  42.280  23.379   7.812
  886POPC   C1B13759  42.010  24.035   8.789
  886POPC   C2B13760  42.236  24.164   8.460
  886POPC   C3B13761  42.309  23.918   8.085
  886POPC   C4B13762  42.130  23.841   7.720
  887POPC   NC313763  36.424  29.077   9.393
  887POPC   PO413764  35.819  29.369   9.473
  887POPC   GL113765  35.923  29.151   9.123
  887POPC   GL213766  35.914  29.501   8.961
  887POPC   C1A13767  36.228  29.072   8.781
  887POPC   D2A13768  36.326  29.454   8.591
  887POPC   C3A13769  36.244  29.498   8.130
  887POPC   C4A13770  36.159  29.242   7.752
  887POPC   C1B13771  35.780  29.255   8.628
  887POPC   C2B13772  36.056  29.058   8.300
  887POPC   C3B13773  35.995  28.797   7.943
  887POPC   C4B13774  35.695  28.908   7.655
  888POPC   NC313775  42.990  25.018   9.507
  888POPC   PO413776  43.562  25.412   9.573
  888POPC   GL113777  43.341  25.587   9.205
  888POPC   GL213778  42.987  25.428   9.143
  888POPC   C1A13779  43.346  25.403   8.782
  888POPC   D2A13780  43.110  25.307   8.435
  888POPC   C3A13781  43.294  25.258   8.078
  888POPC   C4A13782  43.289  25.564   7.782
  888POPC   C1B13783  42.993  25.036   8.854
  888POPC   C2B13784  42.750  24.952   8.460
  888POPC   C3B13785  42.781  25.078   8.026
  888POPC   C4B13786  42.675  24.979   7.590
  889POPC   NC313787   3.759  28.349   9.899
  889POPC   PO413788   3.456  28.868   9.528
  889POPC   GL113789   3.615  28.536   9.227
  889POPC   GL213790   3.339  28.321   9.045
  889POPC   C1A13791   3.684  28.592   8.801
  889POPC   D2A13792   3.413  28.524   8.481
  889POPC   C3A13793   3.632  28.502   8.121
  889POPC   C4A13794   3.556  28.587   7.692
  889POPC   C1B13795   3.173  28.115   8.677
  889POPC   C2B13796   3.314  28.033   8.245
  889POPC   C3B13797   3.528  28.090   7.854
  889POPC   C4B13798   3.235  28.083   7.533
  890POPC   NC313799  25.881  26.107   9.521
  890POPC   PO413800  26.457  26.187   9.162
  890POPC   GL113801  26.077  26.025   9.023
  890POPC   GL213802  25.799  26.265   9.047
  890POPC   C1A13803  26.013  26.131   8.576
  890POPC   D2A13804  26.250  26.273   8.203
  890POPC   C3A13805  26.125  25.993   7.895
  890POPC   C4A13806  26.133  25.886   7.480
  890POPC   C1B13807  25.901  26.601   8.760
  890POPC   C2B13808  25.872  26.601   8.326
  890POPC   C3B13809  25.729  26.304   8.050
  890POPC   C4B13810  25.782  26.261   7.635
  891POPC   NC313811  37.928  17.155   9.756
  891POPC   PO413812  37.836  17.733   9.431
  891POPC   GL113813  37.724  17.519   9.083
  891POPC   GL213814  37.915  17.248   9.219
  891POPC   C1A13815  37.605  17.642   8.676
  891POPC   D2A13816  37.639  17.783   8.222
  891POPC   C3A13817  37.492  17.508   7.868
  891POPC   C4A13818  37.671  17.442   7.444
  891POPC   C1B13819  38.056  17.239   8.792
  891POPC   C2B13820  37.962  17.075   8.406
  891POPC   C3B13821  38.176  17.105   8.034
  891POPC   C4B13822  37.858  17.090   7.771
  892POPC   NC313823   7.454   2.933   9.487
  892POPC   PO413824   7.875   2.439   9.255
  892POPC   GL113825   7.644   2.724   9.030
  892POPC   GL213826   7.302   2.772   9.037
  892POPC   C1A13827   7.562   2.946   8.642
  892POPC   D2A13828   7.426   2.827   8.263
  892POPC   C3A13829   7.533   3.056   7.929
  892POPC   C4A13830   7.512   2.684   7.704
  892POPC   C1B13831   7.086   2.718   8.661
  892POPC   C2B13832   6.880   2.701   8.285
  892POPC   C3B13833   7.039   2.901   7.905
  892POPC   C4B13834   7.203   3.070   7.512
  893POPC   NC313835   7.013  18.553   9.422
  893POPC   PO413836   7.613  18.402   9.797
  893POPC   GL113837   7.375  18.221   9.339
  893POPC   GL213838   7.483  17.848   9.247
  893POPC   C1A13839   7.328  18.384   8.841
  893POPC   D2A13840   7.355  18.532   8.387
  893POPC   C3A13841   7.214  18.370   7.973
  893POPC   C4A13842   7.276  18.421   7.519
  893POPC   C1B13843   7.301  17.871   8.840
  893POPC   C2B13844   7.571  18.068   8.533
  893POPC   C3B13845   7.646  18.120   8.120
  893POPC   C4B13846   7.515  18.003   7.698
  894POPC   NC313847  13.203  21.405   9.422
  894POPC   PO413848  12.608  21.277   9.639
  894POPC   GL113849  12.785  21.143   9.259
  894POPC   GL213850  12.808  21.505   9.109
  894POPC   C1A13851  12.692  21.110   8.838
  894POPC   D2A13852  12.533  21.407   8.557
  894POPC   C3A13853  12.714  21.344   8.166
  894POPC   C4A13854  12.915  21.355   7.771
  894POPC   C1B13855  13.127  21.417   8.766
  894POPC   C2B13856  13.314  21.539   8.367
  894POPC   C3B13857  13.171  21.749   8.013
  894POPC   C4B13858  13.265  21.687   7.613
  895POPC   NC313859  29.555   8.234   9.496
  895POPC   PO413860  30.107   7.849   9.473
  895POPC   GL113861  30.139   7.991   9.078
  895POPC   GL213862  29.781   8.062   9.081
  895POPC   C1A13863  30.064   8.188   8.661
  895POPC   D2A13864  30.098   8.384   8.247
  895POPC   C3A13865  30.024   8.201   7.825
  895POPC   C4A13866  29.813   8.464   7.513
  895POPC   C1B13867  29.615   7.931   8.718
  895POPC   C2B13868  29.696   8.038   8.315
  895POPC   C3B13869  29.592   7.858   7.940
  895POPC   C4B13870  29.809   7.783   7.588
  896POPC   NC313871   3.524  16.024   9.581
  896POPC   PO413872   4.020  15.613   9.480
  896POPC   GL113873   3.792  15.911   9.137
  896POPC   GL213874   3.430  16.056   9.086
  896POPC   C1A13875   3.719  15.984   8.671
  896POPC   D2A13876   3.539  15.780   8.288
  896POPC   C3A13877   3.630  15.922   7.857
  896POPC   C4A13878   3.750  16.072   7.433
  896POPC   C1B13879   3.207  16.047   8.678
  896POPC   C2B13880   3.273  16.232   8.268
  896POPC   C3B13881   3.235  16.255   7.823
  896POPC   C4B13882   3.239  15.931   7.479
  897POPC   NC313883  27.944  38.202   9.515
  897POPC   PO413884  27.493  38.773   9.524
  897POPC   GL113885  27.583  38.464   9.208
  897POPC   GL213886  27.923  38.507   9.113
  897POPC   C1A13887  27.527  38.595   8.775
  897POPC   D2A13888  27.188  38.569   8.472
  897POPC   C3A13889  27.400  38.539   8.069
  897POPC   C4A13890  27.552  38.544   7.681
  897POPC   C1B13891  27.830  38.182   8.792
  897POPC   C2B13892  27.643  38.227   8.396
  897POPC   C3B13893  27.813  38.191   7.962
  897POPC   C4B13894  28.076  38.511   7.731
  898POPC   NC313895  16.463  29.477   9.310
  898POPC   PO413896  16.528  29.000   9.827
  898POPC   GL113897  16.696  28.932   9.314
  898POPC   GL213898  16.484  28.825   9.028
  898POPC   C1A13899  16.969  29.054   8.920
  898POPC   D2A13900  17.097  28.903   8.475
  898POPC   C3A13901  17.052  29.147   8.097
  898POPC   C4A13902  16.848  29.025   7.740
  898POPC   C1B13903  16.490  29.159   8.742
  898POPC   C2B13904  16.623  29.153   8.364
  898POPC   C3B13905  16.492  29.272   8.000
  898POPC   C4B13906  16.313  29.059   7.678
  899POPC   NC313907  16.102  36.392   9.424
  899POPC   PO413908  16.366  35.803   9.466
  899POPC   GL113909  16.052  35.896   9.181
  899POPC   GL213910  15.729  35.785   9.250
  899POPC   C1A13911  16.037  36.052   8.779
  899POPC   D2A13912  16.223  35.894   8.420
  899POPC   C3A13913  16.153  36.128   8.088
  899POPC   C4A13914  16.129  36.029   7.678
  899POPC   C1B13915  15.627  35.749   8.807
  899POPC   C2B13916  15.598  35.961   8.380
  899POPC   C3B13917  15.666  36.066   7.934
  899POPC   C4B13918  15.767  36.403   7.642
  900POPC   NC313919  15.064   5.529   9.529
  900POPC   PO413920  14.798   6.162   9.558
  900POPC   GL113921  14.910   5.988   9.146
  900POPC   GL213922  15.183   5.771   9.089
  900POPC   C1A13923  15.072   6.123   8.743
  900POPC   D2A13924  15.432   6.144   8.485
  900POPC   C3A13925  15.259   6.029   8.116
  900POPC   C4A13926  15.133   6.009   7.690
  900POPC   C1B13927  15.190   5.603   8.667
  900POPC   C2B13928  15.130   5.510   8.213
  900POPC   C3B13929  15.392   5.613   7.855
  900POPC   C4B13930  15.416   5.646   7.410
  901POPC   NC313931  24.361  10.895   9.611
  901POPC   PO413932  24.659  10.266   9.524
  901POPC   GL113933  24.386  10.452   9.236
  901POPC   GL213934  24.528  10.179   9.040
  901POPC   C1A13935  24.377  10.592   8.782
  901POPC   D2A13936  24.642  10.707   8.415
  901POPC   C3A13937  24.481  10.602   7.982
  901POPC   C4A13938  24.101  10.565   7.735
  901POPC   C1B13939  24.742  10.200   8.641
  901POPC   C2B13940  24.877  10.297   8.206
  901POPC   C3B13941  24.823  10.056   7.833
  901POPC   C4B13942  24.518   9.945   7.526
  902POPC   NC313943  10.752  28.728   9.601
  902POPC   PO413944  10.277  29.203   9.542
  902POPC   GL113945  10.431  29.062   9.175
  902POPC   GL213946  10.743  28.962   9.160
  902POPC   C1A13947  10.383  28.855   8.778
  902POPC   D2A13948  10.471  28.982   8.362
  902POPC   C3A13949  10.270  28.820   8.011
  902POPC   C4A13950  10.449  29.093   7.727
  902POPC   C1B13951  10.784  29.217   8.799
  902POPC   C2B13952  10.947  29.138   8.407
  902POPC   C3B13953  10.892  29.327   8.025
  902POPC   C4B13954  10.953  29.078   7.686
  903POPC   NC313955  34.617   4.379   9.489
  903POPC   PO413956  34.064   4.035   9.265
  903POPC   GL113957  34.343   4.391   9.059
  903POPC   GL213958  34.626   4.666   9.066
  903POPC   C1A13959  34.376   4.530   8.632
  903POPC   D2A13960  34.482   4.229   8.288
  903POPC   C3A13961  34.343   4.359   7.883
  903POPC   C4A13962  34.338   4.684   7.591
  903POPC   C1B13963  34.869   4.429   8.724
  903POPC   C2B13964  34.819   4.597   8.287
  903POPC   C3B13965  34.795   4.554   7.804
  903POPC   C4B13966  34.801   4.702   7.363
  904POPC   NC313967  14.739  17.788   9.454
  904POPC   PO413968  14.053  17.589   9.502
  904POPC   GL113969  14.368  17.454   9.156
  904POPC   GL213970  14.620  17.671   8.979
  904POPC   C1A13971  14.432  17.276   8.721
  904POPC   D2A13972  14.619  17.474   8.338
  904POPC   C3A13973  14.477  17.349   7.901
  904POPC   C4A13974  14.517  17.584   7.495
  904POPC   C1B13975  14.267  17.776   8.701
  904POPC   C2B13976  14.241  17.847   8.265
  904POPC   C3B13977  14.590  17.843   7.955
  904POPC   C4B13978  14.633  18.093   7.597
  905POPC   NC313979  27.600  11.769   9.298
  905POPC   PO413980  27.710  12.327   9.612
  905POPC   GL113981  27.759  12.253   9.168
  905POPC   GL213982  28.046  12.036   9.223
  905POPC   C1A13983  27.753  12.019   8.723
  905POPC   D2A13984  27.607  11.884   8.315
  905POPC   C3A13985  27.501  12.105   7.906
  905POPC   C4A13986  27.355  12.016   7.467
  905POPC   C1B13987  28.159  12.287   8.845
  905POPC   C2B13988  28.125  12.212   8.391
  905POPC   C3B13989  27.988  12.304   7.937
  905POPC   C4B13990  27.906  12.091   7.514
  906POPC   NC313991  24.827  19.679   9.689
  906POPC   PO413992  25.472  19.857   9.370
  906POPC   GL113993  25.267  19.724   9.052
  906POPC   GL213994  25.200  20.072   8.978
  906POPC   C1A13995  25.421  19.697   8.647
  906POPC   D2A13996  25.505  19.488   8.272
  906POPC   C3A13997  25.359  19.795   7.991
  906POPC   C4A13998  25.330  19.579   7.684
  906POPC   C1B13999  24.942  20.057   8.635
  906POPC   C2B14000  25.040  20.115   8.261
  906POPC   C3B14001  24.892  20.106   7.888
  906POPC   C4B14002  25.017  19.967   7.480
  907POPC   NC314003  37.214   0.395   9.663
  907POPC   PO414004  37.845   0.465   9.543
  907POPC   GL114005  37.721   0.254   9.159
  907POPC   GL214006  37.787   0.584   9.020
  907POPC   C1A14007  37.790   0.208   8.680
  907POPC   D2A14008  37.882   0.543   8.385
  907POPC   C3A14009  37.868   0.468   7.956
  907POPC   C4A14010  37.761   0.380   7.558
  907POPC   C1B14011  37.464   0.653   8.713
  907POPC   C2B14012  37.257   0.675   8.292
  907POPC   C3B14013  37.406   0.636   7.887
  907POPC   C4B14014  37.625   0.911   7.671
  908POPC   NC314015  44.216   3.023   9.520
  908POPC   PO414016  43.740   3.532   9.531
  908POPC   GL114017  43.892   3.405   9.179
  908POPC   GL214018  44.189   3.262   9.074
  908POPC   C1A14019  43.714   3.528   8.815
  908POPC   D2A14020  43.851   3.384   8.436
  908POPC   C3A14021  43.721   3.581   8.092
  908POPC   C4A14022  43.696   3.465   7.671
  908POPC   C1B14023  44.205   3.586   8.750
  908POPC   C2B14024  44.236   3.712   8.304
  908POPC   C3B14025  44.160   3.532   7.879
  908POPC   C4B14026  44.126   3.595   7.414
  909POPC   NC314027  24.135  43.593   9.425
  909POPC   PO414028  23.428  43.481   9.446
  909POPC   GL114029  23.687  43.629   9.123
  909POPC   GL214030  23.799  43.952   9.244
  909POPC   C1A14031  23.628  43.868   8.749
  909POPC   D2A14032  23.503  44.078   8.364
  909POPC   C3A14033  23.590  43.882   7.975
  909POPC   C4A14034  23.427  43.599   7.712
  909POPC   C1B14035  24.078  44.057   8.899
  909POPC   C2B14036  24.010  44.049   8.450
  909POPC   C3B14037  24.093  43.893   8.069
  909POPC   C4B14038  24.039  44.068   7.676
  910POPC   NC314039  40.180  22.153   9.337
  910POPC   PO414040  39.553  22.423   9.399
  910POPC   GL114041  39.733  22.220   9.077
  910POPC   GL214042  39.565  22.439   8.881
  910POPC   C1A14043  39.842  22.082   8.664
  910POPC   D2A14044  39.727  22.217   8.236
  910POPC   C3A14045  39.851  21.993   7.907
  910POPC   C4A14046  40.195  21.733   7.894
  910POPC   C1B14047  39.807  22.613   8.557
  910POPC   C2B14048  39.754  22.712   8.115
  910POPC   C3B14049  39.902  22.482   7.753
  910POPC   C4B14050  39.873  22.552   7.297
  911POPC   NC314051  25.853  41.879   9.432
  911POPC   PO414052  26.395  42.095   9.253
  911POPC   GL114053  26.064  42.298   9.008
  911POPC   GL214054  25.727  42.135   9.017
  911POPC   C1A14055  26.215  42.495   8.617
  911POPC   D2A14056  26.300  42.301   8.221
  911POPC   C3A14057  26.269  42.501   7.822
  911POPC   C4A14058  25.982  42.796   7.625
  911POPC   C1B14059  25.605  42.027   8.616
  911POPC   C2B14060  25.806  42.178   8.266
  911POPC   C3B14061  25.738  42.372   7.877
  911POPC   C4B14062  25.526  42.156   7.593
  912POPC   NC314063   4.607  25.839   9.475
  912POPC   PO414064   4.031  26.153   9.320
  912POPC   GL114065   4.409  26.261   9.125
  912POPC   GL214066   4.598  25.963   8.985
  912POPC   C1A14067   4.353  26.317   8.698
  912POPC   D2A14068   4.534  26.136   8.383
  912POPC   C3A14069   4.228  26.201   8.062
  912POPC   C4A14070   4.342  26.212   7.651
  912POPC   C1B14071   4.267  25.768   8.763
  912POPC   C2B14072   4.196  25.753   8.325
  912POPC   C3B14073   4.519  25.796   7.989
  912POPC   C4B14074   4.522  25.697   7.548
  913POPC   NC314075  25.220  40.459   9.466
  913POPC   PO414076  25.185  39.701   9.486
  913POPC   GL114077  25.109  39.983   9.180
  913POPC   GL214078  25.430  40.047   9.125
  913POPC   C1A14079  24.973  39.877   8.768
  913POPC   D2A14080  25.046  39.579   8.446
  913POPC   C3A14081  24.856  39.669   8.046
  913POPC   C4A14082  25.002  40.008   7.806
  913POPC   C1B14083  25.310  40.259   8.776
  913POPC   C2B14084  25.273  40.110   8.377
  913POPC   C3B14085  25.446  40.233   7.987
  913POPC   C4B14086  25.567  39.855   7.821
  914POPC   NC314087   8.113  18.425   9.795
  914POPC   PO414088   7.846  18.225   9.248
  914POPC   GL114089   7.991  18.340   8.920
  914POPC   GL214090   8.346  18.471   8.976
  914POPC   C1A14091   7.793  18.602   8.638
  914POPC   D2A14092   7.867  18.721   8.238
  914POPC   C3A14093   8.109  18.403   8.034
  914POPC   C4A14094   8.023  18.047   7.793
  914POPC   C1B14095   8.263  18.401   8.517
  914POPC   C2B14096   8.267  17.990   8.284
  914POPC   C3B14097   8.527  17.956   7.912
  914POPC   C4B14098   8.583  18.399   7.812
  915POPC   NC314099   6.131  31.984   9.341
  915POPC   PO414100   5.967  31.303   9.443
  915POPC   GL114101   6.027  31.531   9.127
  915POPC   GL214102   5.723  31.734   9.164
  915POPC   C1A14103   6.198  31.466   8.747
  915POPC   D2A14104   5.938  31.465   8.412
  915POPC   C3A14105   6.019  31.532   8.011
  915POPC   C4A14106   5.801  31.343   7.687
  915POPC   C1B14107   5.855  31.864   8.755
  915POPC   C2B14108   5.880  32.008   8.361
  915POPC   C3B14109   5.645  31.876   8.029
  915POPC   C4B14110   5.768  31.856   7.616
  916POPC   NC314111   6.469  29.327   9.815
  916POPC   PO414112   6.923  28.952   9.809
  916POPC   GL114113   6.643  29.185   9.357
  916POPC   GL214114   6.439  29.011   9.143
  916POPC   C1A14115   6.763  29.332   8.899
  916POPC   D2A14116   6.636  29.356   8.451
  916POPC   C3A14117   6.912  29.230   8.127
  916POPC   C4A14118   6.803  29.258   7.711
  916POPC   C1B14119   6.277  29.114   8.761
  916POPC   C2B14120   6.305  28.904   8.375
  916POPC   C3B14121   6.583  28.833   8.034
  916POPC   C4B14122   6.427  28.929   7.650
  917POPC   NC314123  32.077  18.637   9.509
  917POPC   PO414124  32.578  19.075   9.453
  917POPC   GL114125  32.349  18.865   9.136
  917POPC   GL214126  32.019  19.005   9.082
  917POPC   C1A14127  32.337  18.944   8.697
  917POPC   D2A14128  32.225  19.059   8.291
  917POPC   C3A14129  32.410  19.346   8.009
  917POPC   C4A14130  32.428  19.096   7.683
  917POPC   C1B14131  31.920  19.254   8.701
  917POPC   C2B14132  31.752  19.222   8.269
  917POPC   C3B14133  31.939  19.175   7.809
  917POPC   C4B14134  31.861  19.334   7.342
  918POPC   NC314135  41.143  24.711   9.377
  918POPC   PO414136  40.566  24.260   9.483
  918POPC   GL114137  40.660  24.282   9.093
  918POPC   GL214138  40.993  24.361   9.007
  918POPC   C1A14139  40.522  24.548   8.791
  918POPC   D2A14140  40.242  24.761   8.518
  918POPC   C3A14141  40.455  24.723   8.133
  918POPC   C4A14142  40.675  24.626   7.800
  918POPC   C1B14143  41.051  24.652   8.665
  918POPC   C2B14144  40.978  24.782   8.214
  918POPC   C3B14145  41.128  24.842   7.773
  918POPC   C4B14146  41.157  24.732   7.304
  919POPC   NC314147  27.905  31.735   9.416
  919POPC   PO414148  27.404  31.259   9.474
  919POPC   GL114149  27.532  31.441   9.103
  919POPC   GL214150  27.883  31.376   9.071
  919POPC   C1A14151  27.358  31.685   8.746
  919POPC   D2A14152  27.159  31.612   8.359
  919POPC   C3A14153  27.281  31.785   7.946
  919POPC   C4A14154  27.380  31.737   7.462
  919POPC   C1B14155  27.760  31.367   8.655
  919POPC   C2B14156  27.664  31.532   8.281
  919POPC   C3B14157  27.627  31.414   7.886
  919POPC   C4B14158  27.857  31.609   7.592
  920POPC   NC314159  38.450   4.352   9.581
  920POPC   PO414160  38.876   4.780   9.408
  920POPC   GL114161  38.665   4.409   9.126
  920POPC   GL214162  38.343   4.163   9.124
  920POPC   C1A14163  38.551   4.298   8.683
  920POPC   D2A14164  38.465   4.593   8.377
  920POPC   C3A14165  38.392   4.452   7.966
  920POPC   C4A14166  38.655   4.169   7.754
  920POPC   C1B14167  38.105   4.008   8.753
  920POPC   C2B14168  38.071   4.219   8.340
  920POPC   C3B14169  37.951   4.152   7.900
  920POPC   C4B14170  38.031   4.125   7.430
  921POPC   NC314171  29.493  33.997   9.491
  921POPC   PO414172  28.904  33.588   9.436
  921POPC   GL114173  29.004  33.916   9.125
  921POPC   GL214174  29.302  33.822   9.025
  921POPC   C1A14175  28.931  33.868   8.661
  921POPC   D2A14176  29.134  33.927   8.251
  921POPC   C3A14177  28.908  33.819   7.865
  921POPC   C4A14178  28.879  33.898   7.408
  921POPC   C1B14179  29.153  33.451   8.740
  921POPC   C2B14180  29.023  33.432   8.315
  921POPC   C3B14181  29.176  33.376   7.898
  921POPC   C4B14182  29.080  33.445   7.467
  922POPC   NC314183   6.238  32.200   9.813
  922POPC   PO414184   5.614  32.176   9.452
  922POPC   GL114185   5.806  32.269   9.063
  922POPC   GL214186   6.095  32.474   9.157
  922POPC   C1A14187   5.598  32.316   8.674
  922POPC   D2A14188   5.473  32.315   8.243
  922POPC   C3A14189   5.815  32.370   7.966
  922POPC   C4A14190   6.190  32.543   7.792
  922POPC   C1B14191   6.182  32.338   8.713
  922POPC   C2B14192   6.293  32.307   8.258
  922POPC   C3B14193   6.171  32.022   7.922
  922POPC   C4B14194   6.215  32.012   7.487
  923POPC   NC314195  13.769   6.256   9.269
  923POPC   PO414196  13.316   6.642   9.371
  923POPC   GL114197  13.538   6.743   9.040
  923POPC   GL214198  13.458   6.435   8.875
  923POPC   C1A14199  13.901   6.682   8.768
  923POPC   D2A14200  13.894   6.408   8.428
  923POPC   C3A14201  13.651   6.652   8.176
  923POPC   C4A14202  13.713   6.913   7.855
  923POPC   C1B14203  13.180   6.204   8.598
  923POPC   C2B14204  13.062   6.172   8.159
  923POPC   C3B14205  13.063   6.415   7.844
  923POPC   C4B14206  13.479   6.489   7.716
  924POPC   NC314207   8.012  27.333   9.688
  924POPC   PO414208   8.502  27.777   9.687
  924POPC   GL114209   8.411  27.580   9.243
  924POPC   GL214210   8.054  27.573   9.233
  924POPC   C1A14211   8.399  27.563   8.776
  924POPC   D2A14212   8.374  27.796   8.349
  924POPC   C3A14213   8.249  27.573   7.946
  924POPC   C4A14214   8.539  27.265   7.713
  924POPC   C1B14215   7.787  27.615   8.876
  924POPC   C2B14216   7.883  27.567   8.456
  924POPC   C3B14217   7.870  27.251   8.175
  924POPC   C4B14218   7.849  27.234   7.726
  925POPC   NC314219  39.358  29.648   9.299
  925POPC   PO414220  38.902  30.051   9.463
  925POPC   GL114221  38.916  29.792   9.080
  925POPC   GL214222  38.869  29.426   9.199
  925POPC   C1A14223  38.988  29.877   8.618
  925POPC   D2A14224  39.113  30.259   8.386
  925POPC   C3A14225  39.324  30.069   8.053
  925POPC   C4A14226  39.165  29.872   7.718
  925POPC   C1B14227  38.622  29.444   8.845
  925POPC   C2B14228  38.655  29.532   8.410
  925POPC   C3B14229  38.939  29.556   8.082
  925POPC   C4B14230  38.752  29.584   7.675
  926POPC   NC314231   8.721  41.706   9.578
  926POPC   PO414232   9.254  41.333   9.494
  926POPC   GL114233   9.153  41.521   9.126
  926POPC   GL214234   8.829  41.694   9.085
  926POPC   C1A14235   9.175  41.626   8.710
  926POPC   D2A14236   9.022  41.839   8.367
  926POPC   C3A14237   9.218  41.642   8.008
  926POPC   C4A14238   9.112  41.521   7.604
  926POPC   C1B14239   8.543  41.659   8.741
  926POPC   C2B14240   8.482  41.701   8.292
  926POPC   C3B14241   8.728  41.771   7.938
  926POPC   C4B14242   8.679  41.792   7.515
  927POPC   NC314243   1.183  23.233   9.681
  927POPC   PO414244   1.412  22.671   9.491
  927POPC   GL114245   1.177  22.889   9.140
  927POPC   GL214246   1.250  23.217   9.168
  927POPC   C1A14247   1.074  22.863   8.688
  927POPC   D2A14248   1.158  22.617   8.281
  927POPC   C3A14249   1.135  22.783   7.858
  927POPC   C4A14250   1.273  22.748   7.425
  927POPC   C1B14251   1.487  23.155   8.784
  927POPC   C2B14252   1.298  23.252   8.407
  927POPC   C3B14253   1.426  23.158   8.015
  927POPC   C4B14254   1.234  23.216   7.619
  928POPC   NC314255  42.150  32.262   9.654
  928POPC   PO414256  42.722  32.469   9.530
  928POPC   GL114257  42.555  32.237   9.185
  928POPC   GL214258  42.235  32.415   9.169
  928POPC   C1A14259  42.318  32.041   8.832
  928POPC   D2A14260  42.105  31.950   8.414
  928POPC   C3A14261  42.155  32.180   8.003
  928POPC   C4A14262  42.450  32.100   7.667
  928POPC   C1B14263  42.472  32.595   8.812
  928POPC   C2B14264  42.612  32.629   8.378
  928POPC   C3B14265  42.516  32.574   7.933
  928POPC   C4B14266  42.111  32.671   7.788
  929POPC   NC314267  39.067  13.022   9.278
  929POPC   PO414268  39.545  12.531   9.521
  929POPC   GL114269  39.489  12.778   9.138
  929POPC   GL214270  39.558  13.153   9.120
  929POPC   C1A14271  39.410  12.765   8.728
  929POPC   D2A14272  39.537  12.487   8.444
  929POPC   C3A14273  39.516  12.641   8.051
  929POPC   C4A14274  39.199  12.837   7.849
  929POPC   C1B14275  39.357  13.293   8.747
  929POPC   C2B14276  39.230  13.138   8.350
  929POPC   C3B14277  39.487  13.225   8.015
  929POPC   C4B14278  39.430  13.206   7.588
  930POPC   NC314279   6.332  11.836   9.559
  930POPC   PO414280   5.744  12.060   9.717
  930POPC   GL114281   5.876  11.882   9.306
  930POPC   GL214282   5.596  11.789   9.166
  930POPC   C1A14283   6.009  11.938   8.841
  930POPC   D2A14284   6.173  12.098   8.415
  930POPC   C3A14285   5.959  12.118   8.024
  930POPC   C4A14286   6.064  12.242   7.581
  930POPC   C1B14287   5.496  12.014   8.807
  930POPC   C2B14288   5.403  12.149   8.392
  930POPC   C3B14289   5.397  11.945   8.018
  930POPC   C4B14290   5.644  11.987   7.649
  931POPC   NC314291  18.315  20.937   9.597
  931POPC   PO414292  18.709  20.390   9.588
  931POPC   GL114293  18.544  20.504   9.185
  931POPC   GL214294  18.475  20.864   9.116
  931POPC   C1A14295  18.176  20.499   8.910
  931POPC   D2A14296  18.078  20.580   8.486
  931POPC   C3A14297  18.338  20.425   8.165
  931POPC   C4A14298  18.352  20.404   7.725
  931POPC   C1B14299  18.637  20.998   8.722
  931POPC   C2B14300  18.592  20.867   8.292
  931POPC   C3B14301  18.364  20.893   7.918
  931POPC   C4B14302  18.076  20.992   7.625
  932POPC   NC314303  35.476  28.205   9.444
  932POPC   PO414304  35.041  28.742   9.438
  932POPC   GL114305  35.133  28.491   9.135
  932POPC   GL214306  35.466  28.600   9.087
  932POPC   C1A14307  35.103  28.517   8.708
  932POPC   D2A14308  35.175  28.333   8.314
  932POPC   C3A14309  35.044  28.557   7.938
  932POPC   C4A14310  35.293  28.519   7.571
  932POPC   C1B14311  35.785  28.764   8.819
  932POPC   C2B14312  35.793  28.639   8.411
  932POPC   C3B14313  35.536  28.611   8.056
  932POPC   C4B14314  35.719  28.341   7.774
  933POPC   NC314315  27.999  35.999   9.418
  933POPC   PO414316  27.287  36.297   9.489
  933POPC   GL114317  27.267  36.167   9.103
  933POPC   GL214318  27.457  35.846   9.116
  933POPC   C1A14319  27.454  36.168   8.704
  933POPC   D2A14320  27.689  36.302   8.358
  933POPC   C3A14321  27.400  36.171   8.045
  933POPC   C4A14322  27.292  36.154   7.621
  933POPC   C1B14323  27.768  35.725   8.762
  933POPC   C2B14324  27.899  35.815   8.313
  933POPC   C3B14325  27.836  36.016   7.877
  933POPC   C4B14326  27.704  35.765   7.439
  934POPC   NC314327  12.269  32.291   9.535
  934POPC   PO414328  12.947  32.252   9.528
  934POPC   GL114329  12.729  32.174   9.195
  934POPC   GL214330  12.569  32.480   9.143
  934POPC   C1A14331  12.785  32.180   8.751
  934POPC   D2A14332  12.613  32.027   8.367
  934POPC   C3A14333  12.801  32.077   7.955
  934POPC   C4A14334  12.872  32.104   7.497
  934POPC   C1B14335  12.728  32.683   8.762
  934POPC   C2B14336  12.867  32.606   8.319
  934POPC   C3B14337  12.814  32.586   7.850
  934POPC   C4B14338  12.996  32.578   7.412
  935POPC   NC314339  19.393  29.873   9.440
  935POPC   PO414340  18.711  30.096   9.560
  935POPC   GL114341  18.980  30.052   9.166
  935POPC   GL214342  19.035  29.674   9.125
  935POPC   C1A14343  19.078  30.058   8.705
  935POPC   D2A14344  18.874  30.033   8.305
  935POPC   C3A14345  19.023  29.881   7.947
  935POPC   C4A14346  18.950  29.460   7.923
  935POPC   C1B14347  19.303  29.607   8.768
  935POPC   C2B14348  19.524  29.881   8.461
  935POPC   C3B14349  19.523  29.878   8.009
  935POPC   C4B14350  19.552  29.822   7.538
  936POPC   NC314351  16.206   7.642   9.511
  936POPC   PO414352  15.756   7.181   9.398
  936POPC   GL114353  16.109   7.295   9.140
  936POPC   GL214354  15.923   7.571   9.076
  936POPC   C1A14355  16.313   7.540   8.773
  936POPC   D2A14356  16.099   7.634   8.355
  936POPC   C3A14357  15.825   7.274   8.190
  936POPC   C4A14358  15.824   7.111   7.768
  936POPC   C1B14359  15.715   7.429   8.689
  936POPC   C2B14360  15.558   7.674   8.312
  936POPC   C3B14361  15.598   7.624   7.864
  936POPC   C4B14362  15.607   7.887   7.518
  937POPC   NC314363   8.112  19.588   9.453
  937POPC   PO414364   7.972  20.328   9.496
  937POPC   GL114365   8.003  20.000   9.110
  937POPC   GL214366   7.902  19.607   8.974
  937POPC   C1A14367   8.172  19.962   8.688
  937POPC   D2A14368   8.010  20.083   8.289
  937POPC   C3A14369   8.259  19.986   7.934
  937POPC   C4A14370   8.552  19.755   7.708
  937POPC   C1B14371   8.227  19.448   8.703
  937POPC   C2B14372   8.413  19.553   8.305
  937POPC   C3B14373   8.261  19.406   7.919
  937POPC   C4B14374   7.950  19.619   7.697
  938POPC   NC314375  29.102  41.859   9.598
  938POPC   PO414376  29.737  41.737   9.464
  938POPC   GL114377  29.384  41.675   9.163
  938POPC   GL214378  29.080  41.428   9.139
  938POPC   C1A14379  29.118  41.886   8.863
  938POPC   D2A14380  29.173  41.980   8.425
  938POPC   C3A14381  28.915  41.767   8.148
  938POPC   C4A14382  29.101  41.571   7.799
  938POPC   C1B14383  29.258  41.417   8.717
  938POPC   C2B14384  29.227  41.375   8.275
  938POPC   C3B14385  29.516  41.302   7.898
  938POPC   C4B14386  29.383  41.298   7.483
  939POPC   NC314387  12.539  26.538   9.431
  939POPC   PO414388  13.072  26.907   9.523
  939POPC   GL114389  12.922  26.750   9.156
  939POPC   GL214390  13.226  26.567   9.062
  939POPC   C1A14391  12.642  26.780   8.796
  939POPC   D2A14392  12.704  27.035   8.450
  939POPC   C3A14393  12.549  26.864   8.115
  939POPC   C4A14394  12.607  26.843   7.702
  939POPC   C1B14395  13.155  26.825   8.716
  939POPC   C2B14396  13.273  26.964   8.343
  939POPC   C3B14397  13.048  26.902   7.976
  939POPC   C4B14398  13.121  26.946   7.547
  940POPC   NC314399  27.594  33.595   9.505
  940POPC   PO414400  27.375  34.137   9.276
  940POPC   GL114401  27.350  33.736   9.067
  940POPC   GL214402  27.702  33.667   9.017
  940POPC   C1A14403  27.325  33.614   8.649
  940POPC   D2A14404  27.393  33.885   8.287
  940POPC   C3A14405  27.551  33.784   7.905
  940POPC   C4A14406  27.575  33.986   7.487
  940POPC   C1B14407  27.735  33.958   8.685
  940POPC   C2B14408  27.906  34.035   8.265
  940POPC   C3B14409  27.983  34.043   7.824
  940POPC   C4B14410  27.942  33.653   7.584
  941POPC   NC314411  20.996   1.132   9.368
  941POPC   PO414412  21.596   1.515   9.492
  941POPC   GL114413  21.382   1.436   9.118
  941POPC   GL214414  21.461   1.067   9.130
  941POPC   C1A14415  21.161   1.228   8.743
  941POPC   D2A14416  21.203   1.030   8.324
  941POPC   C3A14417  21.255   1.434   8.106
  941POPC   C4A14418  21.209   1.725   7.800
  941POPC   C1B14419  21.555   0.851   8.714
  941POPC   C2B14420  21.669   0.797   8.285
  941POPC   C3B14421  21.524   0.931   7.889
  941POPC   C4B14422  21.134   1.105   7.752
  942POPC   NC314423  42.911  31.959   9.546
  942POPC   PO414424  43.223  31.304   9.542
  942POPC   GL114425  43.259  31.401   9.153
  942POPC   GL214426  43.208  31.719   9.191
  942POPC   C1A14427  43.390  31.510   8.747
  942POPC   D2A14428  43.468  31.678   8.328
  942POPC   C3A14429  43.336  31.386   8.046
  942POPC   C4A14430  43.094  31.302   7.747
  942POPC   C1B14431  42.885  31.827   8.894
  942POPC   C2B14432  42.993  31.734   8.500
  942POPC   C3B14433  42.992  31.743   8.080
  942POPC   C4B14434  42.740  31.694   7.736
  943POPC   NC314435   2.971  10.352   9.499
  943POPC   PO414436   2.301  10.630   9.453
  943POPC   GL114437   2.671  10.635   9.195
  943POPC   GL214438   2.936  10.875   9.330
  943POPC   C1A14439   2.736  10.435   8.784
  943POPC   D2A14440   2.860  10.228   8.382
  943POPC   C3A14441   2.729  10.472   8.021
  943POPC   C4A14442   2.670  10.720   7.653
  943POPC   C1B14443   3.036  10.872   8.878
  943POPC   C2B14444   3.001  10.758   8.424
  943POPC   C3B14445   2.891  10.968   8.031
  943POPC   C4B14446   3.133  10.877   7.672
  944POPC   NC314447  44.477  16.740   9.411
  944POPC   PO414448  44.803  17.351   9.613
  944POPC   GL114449  44.827  17.055   9.231
  944POPC   GL214450  44.530  17.022   8.972
  944POPC   C1A14451  44.986  16.922   8.796
  944POPC   D2A14452   0.201  16.959   8.372
  944POPC   C3A14453  44.956  16.841   8.002
  944POPC   C4A14454  44.899  17.068   7.588
  944POPC   C1B14455  44.301  16.670   8.769
  944POPC   C2B14456  44.352  16.507   8.347
  944POPC   C3B14457  44.443  16.646   7.911
  944POPC   C4B14458  44.413  16.919   7.508
  945POPC   NC314459  38.830   6.861   9.446
  945POPC   PO414460  38.402   6.338   9.439
  945POPC   GL114461  38.329   6.544   9.036
  945POPC   GL214462  38.503   6.861   9.034
  945POPC   C1A14463  38.520   6.498   8.635
  945POPC   D2A14464  38.542   6.532   8.198
  945POPC   C3A14465  38.227   6.291   7.981
  945POPC   C4A14466  38.161   6.367   7.577
  945POPC   C1B14467  38.247   6.949   8.672
  945POPC   C2B14468  38.213   7.091   8.247
  945POPC   C3B14469  38.485   6.979   7.920
  945POPC   C4B14470  38.858   6.786   7.769
  946POPC   NC314471  43.324  27.088   9.535
  946POPC   PO414472  42.769  26.669   9.696
  946POPC   GL114473  42.974  26.733   9.261
  946POPC   GL214474  43.363  26.713   9.216
  946POPC   C1A14475  43.062  26.741   8.802
  946POPC   D2A14476  43.158  27.024   8.454
  946POPC   C3A14477  42.891  26.915   8.122
  946POPC   C4A14478  42.969  26.632   7.825
  946POPC   C1B14479  43.556  26.870   8.838
  946POPC   C2B14480  43.582  26.711   8.441
  946POPC   C3B14481  43.390  26.658   8.102
  946POPC   C4B14482  43.349  27.033   7.902
  947POPC   NC314483  40.151  21.127   9.434
  947POPC   PO414484  39.843  21.733   9.466
  947POPC   GL114485  39.772  21.486   9.129
  947POPC   GL214486  39.730  21.135   9.115
  947POPC   C1A14487  39.744  21.571   8.718
  947POPC   D2A14488  39.926  21.686   8.345
  947POPC   C3A14489  39.727  21.510   8.039
  947POPC   C4A14490  39.745  21.600   7.581
  947POPC   C1B14491  40.091  21.212   8.824
  947POPC   C2B14492  40.196  21.198   8.434
  947POPC   C3B14493  40.333  21.253   8.054
  947POPC   C4B14494  40.088  21.266   7.768
  948POPC   NC314495  38.356  22.764   9.716
  948POPC   PO414496  38.773  23.250   9.414
  948POPC   GL114497  38.505  23.129   9.041
  948POPC   GL214498  38.313  22.859   9.082
  948POPC   C1A14499  38.644  22.922   8.664
  948POPC   D2A14500  38.812  23.047   8.287
  948POPC   C3A14501  38.493  23.218   8.028
  948POPC   C4A14502  38.544  23.157   7.597
  948POPC   C1B14503  38.186  22.699   8.687
  948POPC   C2B14504  38.348  22.769   8.265
  948POPC   C3B14505  38.478  22.678   7.832
  948POPC   C4B14506  38.159  22.587   7.491
  949POPC   NC314507   8.981   2.886   9.592
  949POPC   PO414508   8.628   2.329   9.505
  949POPC   GL114509   8.887   2.577   9.155
  949POPC   GL214510   9.216   2.821   9.120
  949POPC   C1A14511   8.934   2.727   8.714
  949POPC   D2A14512   9.076   2.905   8.324
  949POPC   C3A14513   8.725   3.029   8.107
  949POPC   C4A14514   8.753   2.885   7.700
  949POPC   C1B14515   9.403   2.536   8.780
  949POPC   C2B14516   9.203   2.404   8.367
  949POPC   C3B14517   9.054   2.504   7.942
  949POPC   C4B14518   9.230   2.408   7.541
  950POPC   NC314519  12.295   2.892   9.506
  950POPC   PO414520  11.818   2.419   9.396
  950POPC   GL114521  12.013   2.755   9.085
  950POPC   GL214522  12.200   3.110   9.061
  950POPC   C1A14523  11.922   2.841   8.652
  950POPC   D2A14524  11.666   2.655   8.308
  950POPC   C3A14525  11.987   2.517   7.988
  950POPC   C4A14526  12.387   2.751   7.868
  950POPC   C1B14527  12.431   2.916   8.783
  950POPC   C2B14528  12.372   3.029   8.387
  950POPC   C3B14529  12.030   3.007   8.161
  950POPC   C4B14530  12.055   3.153   7.819
  951POPC   NC314531  17.893   1.503   9.593
  951POPC   PO414532  17.283   1.282   9.494
  951POPC   GL114533  17.380   1.050   9.077
  951POPC   GL214534  17.758   1.008   9.111
  951POPC   C1A14535  17.396   0.886   8.649
  951POPC   D2A14536  17.571   1.041   8.292
  951POPC   C3A14537  17.402   0.979   7.907
  951POPC   C4A14538  17.336   1.214   7.511
  951POPC   C1B14539  17.654   1.396   8.846
  951POPC   C2B14540  17.729   1.517   8.421
  951POPC   C3B14541  17.561   1.482   8.007
  951POPC   C4B14542  17.780   1.476   7.634
  952POPC   NC314543  22.577  39.934   9.604
  952POPC   PO414544  23.151  40.180   9.455
  952POPC   GL114545  22.905  39.949   9.189
  952POPC   GL214546  22.560  40.082   9.126
  952POPC   C1A14547  22.893  39.899   8.762
  952POPC   D2A14548  22.982  40.195   8.428
  952POPC   C3A14549  23.134  39.923   8.120
  952POPC   C4A14550  23.003  39.990   7.712
  952POPC   C1B14551  22.551  40.279   8.739
  952POPC   C2B14552  22.481  40.266   8.300
  952POPC   C3B14553  22.609  40.254   7.861
  952POPC   C4B14554  22.641  40.274   7.366
  953POPC   NC314555  18.562   6.373   9.446
  953POPC   PO414556  18.242   6.977   9.513
  953POPC   GL114557  18.253   6.779   9.131
  953POPC   GL214558  18.285   6.412   9.033
  953POPC   C1A14559  18.122   6.876   8.735
  953POPC   D2A14560  18.230   6.621   8.416
  953POPC   C3A14561  18.257   6.770   8.005
  953POPC   C4A14562  17.944   6.774   7.669
  953POPC   C1B14563  18.502   6.221   8.673
  953POPC   C2B14564  18.637   6.293   8.242
  953POPC   C3B14565  18.572   6.393   7.816
  953POPC   C4B14566  18.360   6.550   7.464
  954POPC   NC314567  32.960  21.094   9.799
  954POPC   PO414568  33.267  21.624   9.713
  954POPC   GL114569  33.098  21.504   9.264
  954POPC   GL214570  32.924  21.136   9.189
  954POPC   C1A14571  32.889  21.487   8.818
  954POPC   D2A14572  32.921  21.400   8.348
  954POPC   C3A14573  32.803  21.687   7.990
  954POPC   C4A14574  32.959  21.649   7.558
  954POPC   C1B14575  32.713  20.983   8.823
  954POPC   C2B14576  32.516  21.045   8.418
  954POPC   C3B14577  32.651  20.932   8.030
  954POPC   C4B14578  32.905  21.212   7.826
  955POPC   NC314579  11.844  13.144   9.513
  955POPC   PO414580  11.929  12.480   9.512
  955POPC   GL114581  12.075  12.705   9.130
  955POPC   GL214582  12.039  13.076   9.060
  955POPC   C1A14583  12.229  12.777   8.699
  955POPC   D2A14584  11.998  12.636   8.344
  955POPC   C3A14585  12.181  12.727   7.990
  955POPC   C4A14586  11.982  13.029   7.785
  955POPC   C1B14587  12.158  13.338   8.701
  955POPC   C2B14588  12.420  13.412   8.378
  955POPC   C3B14589  12.450  13.177   8.015
  955POPC   C4B14590  12.504  12.997   7.635
  956POPC   NC314591  26.161  30.345   9.517
  956POPC   PO414592  25.876  31.000   9.537
  956POPC   GL114593  26.116  30.841   9.217
  956POPC   GL214594  25.951  30.530   9.096
  956POPC   C1A14595  26.097  30.981   8.805
  956POPC   D2A14596  25.927  30.836   8.410
  956POPC   C3A14597  26.129  30.842   7.983
  956POPC   C4A14598  25.953  30.865   7.569
  956POPC   C1B14599  26.314  30.526   8.801
  956POPC   C2B14600  26.243  30.449   8.358
  956POPC   C3B14601  25.913  30.404   8.081
  956POPC   C4B14602  26.029  30.376   7.678
  957POPC   NC314603   5.518  22.649   9.328
  957POPC   PO414604   6.098  22.905   9.568
  957POPC   GL114605   5.892  22.938   9.166
  957POPC   GL214606   5.983  22.572   9.131
  957POPC   C1A14607   5.744  23.142   8.767
  957POPC   D2A14608   5.790  22.957   8.361
  957POPC   C3A14609   5.811  23.171   8.001
  957POPC   C4A14610   5.741  23.091   7.625
  957POPC   C1B14611   5.701  22.602   8.730
  957POPC   C2B14612   5.457  22.546   8.365
  957POPC   C3B14613   5.560  22.690   7.975
  957POPC   C4B14614   5.967  22.688   7.848
  958POPC   NC314615  14.170  30.230   9.396
  958POPC   PO414616  13.532  29.936   9.559
  958POPC   GL114617  13.706  30.006   9.196
  958POPC   GL214618  13.838  29.711   9.028
  958POPC   C1A14619  13.528  30.027   8.807
  958POPC   D2A14620  13.674  29.821   8.465
  958POPC   C3A14621  13.453  29.806   8.115
  958POPC   C4A14622  13.354  30.052   7.754
  958POPC   C1B14623  14.048  30.007   8.780
  958POPC   C2B14624  14.202  29.857   8.440
  958POPC   C3B14625  14.005  29.740   8.057
  958POPC   C4B14626  13.856  29.945   7.726
  959POPC   NC314627  29.299  26.239   9.789
  959POPC   PO414628  28.736  26.039   9.710
  959POPC   GL114629  29.078  26.005   9.372
  959POPC   GL214630  29.197  26.333   9.273
  959POPC   C1A14631  29.217  25.976   8.897
  959POPC   D2A14632  29.102  26.068   8.435
  959POPC   C3A14633  29.190  25.794   8.066
  959POPC   C4A14634  29.190  25.866   7.621
  959POPC   C1B14635  29.129  26.505   8.822
  959POPC   C2B14636  29.265  26.548   8.366
  959POPC   C3B14637  29.150  26.361   7.945
  959POPC   C4B14638  29.390  26.319   7.530
  960POPC   NC314639   5.103  34.123   9.846
  960POPC   PO414640   4.844  33.629   9.499
  960POPC   GL114641   5.060  33.668   9.111
  960POPC   GL214642   4.841  33.514   8.918
  960POPC   C1A14643   5.096  33.945   8.706
  960POPC   D2A14644   5.236  34.243   8.360
  960POPC   C3A14645   5.187  34.089   7.919
  960POPC   C4A14646   5.370  33.959   7.505
  960POPC   C1B14647   5.262  33.460   8.693
  960POPC   C2B14648   5.293  33.615   8.279
  960POPC   C3B14649   4.965  33.612   7.977
  960POPC   C4B14650   4.554  33.433   8.037
  961POPC   NC314651  38.318  24.229   9.544
  961POPC   PO414652  38.747  24.707   9.465
  961POPC   GL114653  38.738  24.365   9.191
  961POPC   GL214654  38.376  24.390   9.055
  961POPC   C1A14655  38.766  24.265   8.754
  961POPC   D2A14656  38.490  24.500   8.465
  961POPC   C3A14657  38.418  24.393   8.055
  961POPC   C4A14658  38.691  24.166   7.850
  961POPC   C1B14659  38.146  24.700   8.777
  961POPC   C2B14660  38.218  24.905   8.351
  961POPC   C3B14661  38.211  24.847   7.882
  961POPC   C4B14662  38.169  24.579   7.515
  962POPC   NC314663  41.737  13.720   9.500
  962POPC   PO414664  41.058  13.633   9.425
  962POPC   GL114665  41.327  13.551   9.066
  962POPC   GL214666  41.657  13.514   9.050
  962POPC   C1A14667  41.311  13.488   8.661
  962POPC   D2A14668  41.474  13.688   8.338
  962POPC   C3A14669  41.558  13.575   7.950
  962POPC   C4A14670  41.255  13.377   7.678
  962POPC   C1B14671  41.846  13.601   8.657
  962POPC   C2B14672  41.905  13.963   8.318
  962POPC   C3B14673  41.944  13.983   7.849
  962POPC   C4B14674  41.933  13.864   7.393
  963POPC   NC314675  28.266  32.122   9.661
  963POPC   PO414676  28.795  32.032   9.311
  963POPC   GL114677  28.449  32.212   9.149
  963POPC   GL214678  28.120  32.106   9.163
  963POPC   C1A14679  28.369  32.087   8.729
  963POPC   D2A14680  28.556  32.292   8.404
  963POPC   C3A14681  28.438  32.081   8.066
  963POPC   C4A14682  28.450  32.267   7.693
  963POPC   C1B14683  28.055  32.450   8.891
  963POPC   C2B14684  28.012  32.373   8.438
  963POPC   C3B14685  28.071  32.463   8.008
  963POPC   C4B14686  27.858  32.757   7.790
  964POPC   NC314687  11.923  31.632   9.315
  964POPC   PO414688  11.804  32.356   9.462
  964POPC   GL114689  12.052  32.380   9.093
  964POPC   GL214690  12.239  32.034   9.089
  964POPC   C1A14691  12.291  32.385   8.728
  964POPC   D2A14692  12.135  32.234   8.361
  964POPC   C3A14693  12.357  32.340   8.022
  964POPC   C4A14694  12.181  32.558   7.702
  964POPC   C1B14695  11.926  31.988   8.765
  964POPC   C2B14696  11.736  31.876   8.366
  964POPC   C3B14697  11.911  31.943   7.995
  964POPC   C4B14698  11.829  32.181   7.674
  965POPC   NC314699  43.322  41.115   9.473
  965POPC   PO414700  43.004  40.496   9.459
  965POPC   GL114701  43.247  40.601   9.092
  965POPC   GL214702  43.277  40.921   8.999
  965POPC   C1A14703  43.292  40.496   8.663
  965POPC   D2A14704  43.131  40.561   8.214
  965POPC   C3A14705  43.437  40.553   7.863
  965POPC   C4A14706  43.388  40.932   7.562
  965POPC   C1B14707  42.942  40.924   8.665
  965POPC   C2B14708  42.771  40.981   8.213
  965POPC   C3B14709  42.933  40.918   7.783
  965POPC   C4B14710  42.969  41.186   7.374
  966POPC   NC314711  29.573  37.921   9.422
  966POPC   PO414712  29.033  37.562   9.552
  966POPC   GL114713  29.167  37.751   9.176
  966POPC   GL214714  29.429  37.467   9.185
  966POPC   C1A14715  29.059  37.804   8.712
  966POPC   D2A14716  29.290  37.813   8.292
  966POPC   C3A14717  29.080  37.977   7.905
  966POPC   C4A14718  28.837  38.064   7.553
  966POPC   C1B14719  29.091  37.345   8.898
  966POPC   C2B14720  29.070  37.364   8.443
  966POPC   C3B14721  29.081  37.451   8.005
  966POPC   C4B14722  29.338  37.329   7.688
  967POPC   NC314723  40.227  27.019   9.469
  967POPC   PO414724  39.728  26.688   9.518
  967POPC   GL114725  40.001  26.671   9.145
  967POPC   GL214726  40.225  26.364   9.079
  967POPC   C1A14727  39.893  26.927   8.789
  967POPC   D2A14728  39.742  26.917   8.373
  967POPC   C3A14729  39.907  27.079   7.952
  967POPC   C4A14730  39.825  26.919   7.531
  967POPC   C1B14731  40.209  26.520   8.665
  967POPC   C2B14732  40.020  26.479   8.246
  967POPC   C3B14733  40.145  26.631   7.858
  967POPC   C4B14734  40.475  26.995   7.903
  968POPC   NC314735  42.696  11.164   9.505
  968POPC   PO414736  42.518  11.821   9.721
  968POPC   GL114737  42.564  11.636   9.293
  968POPC   GL214738  42.254  11.645   9.098
  968POPC   C1A14739  42.662  11.435   8.870
  968POPC   D2A14740  42.503  11.502   8.433
  968POPC   C3A14741  42.509  11.181   8.085
  968POPC   C4A14742  42.475  11.253   7.645
  968POPC   C1B14743  42.152  11.305   8.795
  968POPC   C2B14744  42.001  11.327   8.380
  968POPC   C3B14745  42.149  11.584   8.041
  968POPC   C4B14746  42.060  11.513   7.632
  969POPC   NC314747  24.157  21.482   9.436
  969POPC   PO414748  24.744  21.172   9.564
  969POPC   GL114749  24.616  21.379   9.188
  969POPC   GL214750  24.683  21.704   9.068
  969POPC   C1A14751  24.474  21.289   8.780
  969POPC   D2A14752  24.379  21.470   8.389
  969POPC   C3A14753  24.623  21.402   8.031
  969POPC   C4A14754  24.568  21.150   7.618
  969POPC   C1B14755  24.306  21.795   8.789
  969POPC   C2B14756  24.154  21.935   8.359
  969POPC   C3B14757  24.230  21.737   7.960
  969POPC   C4B14758  24.484  21.647   7.615
  970POPC   NC314759  31.930   7.211   9.447
  970POPC   PO414760  32.343   7.708   9.506
  970POPC   GL114761  32.341   7.464   9.170
  970POPC   GL214762  32.019   7.601   9.068
  970POPC   C1A14763  32.401   7.489   8.741
  970POPC   D2A14764  32.214   7.685   8.399
  970POPC   C3A14765  32.219   7.471   8.023
  970POPC   C4A14766  32.486   7.147   7.894
  970POPC   C1B14767  31.889   7.895   8.746
  970POPC   C2B14768  31.874   8.084   8.321
  970POPC   C3B14769  31.835   7.821   7.961
  970POPC   C4B14770  32.133   7.724   7.597
  971POPC   NC314771   6.962  11.560   9.548
  971POPC   PO414772   6.718  12.225   9.560
  971POPC   GL114773   6.539  12.071   9.154
  971POPC   GL214774   6.686  11.762   9.165
  971POPC   C1A14775   6.530  11.907   8.715
  971POPC   D2A14776   6.622  11.799   8.282
  971POPC   C3A14777   6.459  12.023   7.892
  971POPC   C4A14778   6.546  12.418   7.628
  971POPC   C1B14779   7.026  11.722   8.830
  971POPC   C2B14780   7.153  11.765   8.370
  971POPC   C3B14781   6.977  11.642   7.940
  971POPC   C4B14782   6.875  11.732   7.474
  972POPC   NC314783  24.701  27.473   9.705
  972POPC   PO414784  24.171  27.918   9.590
  972POPC   GL114785  24.253  27.752   9.145
  972POPC   GL214786  24.559  27.549   9.188
  972POPC   C1A14787  24.498  27.847   8.746
  972POPC   D2A14788  24.613  27.661   8.330
  972POPC   C3A14789  24.500  27.879   7.963
  972POPC   C4A14790  24.553  27.701   7.549
  972POPC   C1B14791  24.422  27.349   8.772
  972POPC   C2B14792  24.257  27.294   8.326
  972POPC   C3B14793  24.449  27.349   7.909
  972POPC   C4B14794  24.332  27.249   7.459
  973POPC   NC314795   3.763   0.679   9.498
  973POPC   PO414796   3.387   0.180   9.364
  973POPC   GL114797   3.692   0.397   9.067
  973POPC   GL214798   3.467   0.642   9.059
  973POPC   C1A14799   3.710   0.682   8.639
  973POPC   D2A14800   3.611   0.519   8.235
  973POPC   C3A14801   3.667   0.726   7.847
  973POPC   C4A14802   3.855   0.393   7.554
  973POPC   C1B14803   3.247   0.440   8.717
  973POPC   C2B14804   3.106   0.512   8.298
  973POPC   C3B14805   3.225   0.352   7.889
  973POPC   C4B14806   3.013   0.350   7.490
  974POPC   NC314807  41.445   1.117   9.492
  974POPC   PO414808  41.884   0.850   9.010
  974POPC   GL114809  41.439   0.953   9.011
  974POPC   GL214810  41.439   1.337   9.039
  974POPC   C1A14811  41.208   1.098   8.645
  974POPC   D2A14812  41.483   1.273   8.332
  974POPC   C3A14813  41.494   1.080   7.935
  974POPC   C4A14814  41.881   1.053   7.731
  974POPC   C1B14815  41.183   1.595   8.762
  974POPC   C2B14816  41.077   1.609   8.331
  974POPC   C3B14817  41.338   1.606   7.944
  974POPC   C4B14818  41.541   1.441   7.575
  975POPC   NC314819  36.439  28.320   9.393
  975POPC   PO414820  35.771  28.576   9.485
  975POPC   GL114821  35.973  28.426   9.176
  975POPC   GL214822  36.197  28.692   9.136
  975POPC   C1A14823  36.034  28.300   8.780
  975POPC   D2A14824  36.284  28.119   8.493
  975POPC   C3A14825  36.162  28.337   8.120
  975POPC   C4A14826  36.218  28.373   7.694
  975POPC   C1B14827  36.467  28.601   8.792
  975POPC   C2B14828  36.388  28.688   8.396
  975POPC   C3B14829  36.490  28.733   7.970
  975POPC   C4B14830  36.317  28.815   7.501
  976POPC   NC314831  42.828  26.248   9.462
  976POPC   PO414832  43.524  26.255   9.385
  976POPC   GL114833  43.218  26.254   9.048
  976POPC   GL214834  43.010  25.966   9.050
  976POPC   C1A14835  43.255  26.273   8.593
  976POPC   D2A14836  43.573  26.196   8.276
  976POPC   C3A14837  43.436  26.155   7.836
  976POPC   C4A14838  43.190  26.353   7.462
  976POPC   C1B14839  43.012  25.771   8.643
  976POPC   C2B14840  42.991  25.748   8.170
  976POPC   C3B14841  42.953  25.960   7.748
  976POPC   C4B14842  42.752  25.903   7.348
  977POPC   NC314843  27.892  40.794   9.850
  977POPC   PO414844  28.461  40.753   9.485
  977POPC   GL114845  28.396  40.931   9.105
  977POPC   GL214846  28.245  40.646   8.996
  977POPC   C1A14847  28.575  40.872   8.690
  977POPC   D2A14848  28.405  40.817   8.304
  977POPC   C3A14849  28.630  40.793   7.938
  977POPC   C4A14850  28.530  40.452   7.680
  977POPC   C1B14851  28.021  40.813   8.649
  977POPC   C2B14852  27.858  40.604   8.275
  977POPC   C3B14853  28.111  40.642   7.925
  977POPC   C4B14854  28.195  41.111   7.923
  978POPC   NC314855  38.787  28.251   9.798
  978POPC   PO414856  38.193  28.456   9.609
  978POPC   GL114857  38.271  28.293   9.178
  978POPC   GL214858  38.555  28.528   9.066
  978POPC   C1A14859  38.323  28.214   8.711
  978POPC   D2A14860  38.289  28.433   8.289
  978POPC   C3A14861  38.283  28.207   7.854
  978POPC   C4A14862  38.214  28.423   7.461
  978POPC   C1B14863  38.814  28.304   8.741
  978POPC   C2B14864  38.671  28.103   8.353
  978POPC   C3B14865  38.743  28.332   8.003
  978POPC   C4B14866  38.951  28.385   7.646
  979POPC   NC314867  32.649  35.162   9.438
  979POPC   PO414868  32.358  34.490   9.411
  979POPC   GL114869  32.276  34.634   9.059
  979POPC   GL214870  32.289  34.968   9.145
  979POPC   C1A14871  32.121  34.714   8.679
  979POPC   D2A14872  32.055  34.405   8.408
  979POPC   C3A14873  32.300  34.336   8.066
  979POPC   C4A14874  32.303  34.695   7.837
  979POPC   C1B14875  31.881  35.051   8.980
  979POPC   C2B14876  31.803  35.091   8.519
  979POPC   C3B14877  31.848  34.827   8.143
  979POPC   C4B14878  31.902  34.981   7.718
  980POPC   NC314879   4.135   6.455   9.516
  980POPC   PO414880   4.742   6.515   9.483
  980POPC   GL114881   4.423   6.662   9.108
  980POPC   GL214882   4.157   6.918   9.184
  980POPC   C1A14883   4.355   6.752   8.627
  980POPC   D2A14884   4.511   6.816   8.183
  980POPC   C3A14885   4.462   6.464   7.893
  980POPC   C4A14886   4.145   6.342   7.589
  980POPC   C1B14887   3.892   6.884   8.804
  980POPC   C2B14888   3.908   6.945   8.377
  980POPC   C3B14889   4.045   6.759   7.998
  980POPC   C4B14890   4.243   6.867   7.613
  981POPC   NC314891  12.378  23.957   9.626
  981POPC   PO414892  11.931  23.498   9.618
  981POPC   GL114893  11.989  23.603   9.182
  981POPC   GL214894  12.164  23.917   9.140
  981POPC   C1A14895  12.184  23.535   8.778
  981POPC   D2A14896  12.213  23.325   8.386
  981POPC   C3A14897  11.946  23.484   8.060
  981POPC   C4A14898  12.271  23.551   7.807
  981POPC   C1B14899  12.341  24.018   8.716
  981POPC   C2B14900  12.173  23.877   8.323
  981POPC   C3B14901  12.163  24.032   7.909
  981POPC   C4B14902  12.289  23.967   7.477
  982POPC   NC314903   9.296  15.700   9.491
  982POPC   PO414904   8.563  15.998   9.418
  982POPC   GL114905   8.770  15.940   9.052
  982POPC   GL214906   9.055  15.790   9.072
  982POPC   C1A14907   8.994  16.111   8.707
  982POPC   D2A14908   9.297  16.132   8.368
  982POPC   C3A14909   9.175  16.182   7.958
  982POPC   C4A14910   9.117  16.088   7.557
  982POPC   C1B14911   8.851  15.619   8.681
  982POPC   C2B14912   8.771  15.828   8.300
  982POPC   C3B14913   8.965  15.721   7.937
  982POPC   C4B14914   8.925  15.611   7.521
  983POPC   NC314915  32.488  38.733   9.585
  983POPC   PO414916  32.540  39.425   9.424
  983POPC   GL114917  32.862  39.431   9.057
  983POPC   GL214918  33.259  39.417   9.139
  983POPC   C1A14919  33.037  39.149   8.746
  983POPC   D2A14920  33.166  39.269   8.345
  983POPC   C3A14921  32.929  39.440   7.989
  983POPC   C4A14922  33.065  39.128   7.709
  983POPC   C1B14923  33.435  39.499   8.746
  983POPC   C2B14924  33.580  39.595   8.340
  983POPC   C3B14925  33.451  39.417   7.959
  983POPC   C4B14926  33.454  39.399   7.548
  984POPC   NC314927  19.294  12.789   9.428
  984POPC   PO414928  18.742  12.471   9.330
  984POPC   GL114929  18.872  12.829   9.023
  984POPC   GL214930  19.202  12.948   8.966
  984POPC   C1A14931  18.893  12.935   8.559
  984POPC   D2A14932  18.844  12.707   8.207
  984POPC   C3A14933  19.038  12.671   7.811
  984POPC   C4A14934  18.882  13.024   7.597
  984POPC   C1B14935  19.407  12.882   8.579
  984POPC   C2B14936  19.295  12.960   8.175
  984POPC   C3B14937  19.346  13.079   7.791
  984POPC   C4B14938  19.573  12.679   7.748
  985POPC   NC314939  30.082  21.829   9.270
  985POPC   PO414940  29.904  21.198   9.459
  985POPC   GL114941  29.766  21.370   9.105
  985POPC   GL214942  29.600  21.717   9.140
  985POPC   C1A14943  29.821  21.136   8.701
  985POPC   D2A14944  30.077  20.907   8.369
  985POPC   C3A14945  30.021  21.075   7.927
  985POPC   C4A14946  29.676  21.299   7.670
  985POPC   C1B14947  29.772  21.703   8.700
  985POPC   C2B14948  29.761  21.470   8.312
  985POPC   C3B14949  29.923  21.618   7.948
  985POPC   C4B14950  29.784  21.908   7.667
  986POPC   NC314951  37.196  28.971   9.459
  986POPC   PO414952  36.736  29.426   9.394
  986POPC   GL114953  37.050  29.346   9.083
  986POPC   GL214954  37.337  29.132   9.006
  986POPC   C1A14955  36.927  29.199   8.676
  986POPC   D2A14956  36.627  29.144   8.351
  986POPC   C3A14957  36.709  29.340   8.000
  986POPC   C4A14958  36.668  29.115   7.707
  986POPC   C1B14959  37.092  28.744   8.844
  986POPC   C2B14960  36.907  28.721   8.450
  986POPC   C3B14961  37.059  28.973   8.098
  986POPC   C4B14962  37.144  28.959   7.645
  987POPC   NC314963  24.097  42.107   9.589
  987POPC   PO414964  23.617  42.499   9.436
  987POPC   GL114965  23.606  42.254   9.118
  987POPC   GL214966  23.763  41.963   9.241
  987POPC   C1A14967  23.757  42.335   8.726
  987POPC   D2A14968  23.789  42.246   8.334
  987POPC   C3A14969  23.783  42.515   8.067
  987POPC   C4A14970  23.764  42.272   7.764
  987POPC   C1B14971  24.032  41.932   8.898
  987POPC   C2B14972  24.212  42.114   8.545
  987POPC   C3B14973  24.192  42.097   8.058
  987POPC   C4B14974  24.235  42.203   7.576
  988POPC   NC314975   9.872  14.288   9.730
  988POPC   PO414976   9.497  14.827   9.469
  988POPC   GL114977   9.710  14.593   9.136
  988POPC   GL214978   9.848  14.272   9.186
  988POPC   C1A14979   9.641  14.522   8.693
  988POPC   D2A14980   9.494  14.601   8.270
  988POPC   C3A14981   9.859  14.640   8.004
  988POPC   C4A14982   9.940  14.815   7.611
  988POPC   C1B14983  10.073  14.256   8.784
  988POPC   C2B14984  10.201  13.953   8.460
  988POPC   C3B14985  10.263  14.110   8.050
  988POPC   C4B14986   9.974  14.222   7.736
  989POPC   NC314987   6.242  38.215   9.565
  989POPC   PO414988   5.816  38.737   9.497
  989POPC   GL114989   5.881  38.517   9.104
  989POPC   GL214990   6.048  38.195   9.086
  989POPC   C1A14991   5.923  38.486   8.661
  989POPC   D2A14992   5.913  38.687   8.309
  989POPC   C3A14993   6.084  38.459   8.003
  989POPC   C4A14994   5.787  38.539   7.730
  989POPC   C1B14995   5.734  38.034   8.781
  989POPC   C2B14996   5.842  38.008   8.355
  989POPC   C3B14997   5.714  38.077   7.942
  989POPC   C4B14998   5.940  38.079   7.564
  990POPC   NC314999   5.658  17.043   9.813
  990POPC   PO415000   5.760  17.768   9.825
  990POPC   GL115001   5.990  17.815   9.378
  990POPC   GL215002   5.850  17.499   9.209
  990POPC   C1A15003   6.068  17.825   8.880
  990POPC   D2A15004   6.162  17.580   8.460
  990POPC   C3A15005   5.800  17.537   8.200
  990POPC   C4A15006   5.807  17.751   7.824
  990POPC   C1B15007   5.856  17.305   8.768
  990POPC   C2B15008   5.960  17.074   8.355
  990POPC   C3B15009   5.996  16.976   7.891
  990POPC   C4B15010   5.929  17.229   7.496
  991POPC   NC315011   5.478  23.551   9.470
  991POPC   PO415012   4.828  23.856   9.642
  991POPC   GL115013   4.895  23.680   9.217
  991POPC   GL215014   5.147  23.454   9.082
  991POPC   C1A15015   4.890  23.785   8.779
  991POPC   D2A15016   4.793  23.593   8.389
  991POPC   C3A15017   4.785  23.875   8.046
  991POPC   C4A15018   5.061  23.613   7.849
  991POPC   C1B15019   5.437  23.613   8.766
  991POPC   C2B15020   5.375  23.770   8.356
  991POPC   C3B15021   5.552  23.642   7.983
  991POPC   C4B15022   5.516  23.519   7.571
  992POPC   NC315023  13.772   9.920   9.562
  992POPC   PO415024  13.271  10.430   9.341
  992POPC   GL115025  13.406  10.019   9.174
  992POPC   GL215026  13.570   9.665   9.184
  992POPC   C1A15027  13.529   9.916   8.735
  992POPC   D2A15028  13.838   9.969   8.412
  992POPC   C3A15029  13.634   9.866   8.028
  992POPC   C4A15030  13.234   9.969   7.876
  992POPC   C1B15031  13.840   9.519   8.849
  992POPC   C2B15032  13.835   9.437   8.444
  992POPC   C3B15033  14.036   9.571   8.118
  992POPC   C4B15034  13.865   9.523   7.692
  993POPC   NC315035  20.418  42.144   9.422
  993POPC   PO415036  20.811  41.639   9.617
  993POPC   GL115037  20.778  41.797   9.173
  993POPC   GL215038  20.450  41.741   9.101
  993POPC   C1A15039  20.735  41.912   8.730
  993POPC   D2A15040  20.772  41.628   8.389
  993POPC   C3A15041  20.851  41.813   7.979
  993POPC   C4A15042  20.847  41.510   7.682
  993POPC   C1B15043  20.466  41.427   8.765
  993POPC   C2B15044  20.345  41.297   8.359
  993POPC   C3B15045  20.427  41.541   7.999
  993POPC   C4B15046  20.353  41.658   7.570
  994POPC   NC315047  43.187  23.396   9.477
  994POPC   PO415048  43.016  22.759   9.730
  994POPC   GL115049  42.933  22.846   9.274
  994POPC   GL215050  43.220  22.678   9.149
  994POPC   C1A15051  42.900  23.101   8.873
  994POPC   D2A15052  43.167  23.129   8.483
  994POPC   C3A15053  42.987  23.120   8.078
  994POPC   C4A15054  43.141  23.028   7.660
  994POPC   C1B15055  42.966  22.605   8.770
  994POPC   C2B15056  42.830  22.708   8.367
  994POPC   C3B15057  42.976  22.619   7.954
  994POPC   C4B15058  42.846  22.585   7.531
  995POPC   NC315059  28.509  44.254   9.542
  995POPC   PO415060  28.126  43.773   9.616
  995POPC   GL115061  28.379  43.722   9.233
  995POPC   GL215062  28.497  44.020   9.083
  995POPC   C1A15063  28.422  43.636   8.771
  995POPC   D2A15064  28.413  43.812   8.377
  995POPC   C3A15065  28.614  43.752   8.012
  995POPC   C4A15066  28.364  43.893   7.705
  995POPC   C1B15067  28.383  44.216   8.686
  995POPC   C2B15068  28.175  44.244   8.262
  995POPC   C3B15069  28.090  44.277   7.838
  995POPC   C4B15070  28.119  44.229   7.390
  996POPC   NC315071  37.350   4.098   9.557
  996POPC   PO415072  37.976   4.358   9.506
  996POPC   GL115073  37.622   4.331   9.178
  996POPC   GL215074  37.451   4.002   9.082
  996POPC   C1A15075  37.702   4.348   8.732
  996POPC   D2A15076  37.769   4.642   8.403
  996POPC   C3A15077  37.570   4.510   8.020
  996POPC   C4A15078  37.725   4.516   7.601
  996POPC   C1B15079  37.551   3.869   8.691
  996POPC   C2B15080  37.441   4.083   8.355
  996POPC   C3B15081  37.465   3.942   7.968
  996POPC   C4B15082  37.554   4.032   7.586
  997POPC   NC315083  38.704  21.342   9.505
  997POPC   PO415084  38.091  21.528   9.436
  997POPC   GL115085  38.394  21.392   9.074
  997POPC   GL215086  38.810  21.370   9.030
  997POPC   C1A15087  38.439  21.475   8.645
  997POPC   D2A15088  38.571  21.563   8.255
  997POPC   C3A15089  38.272  21.715   8.003
  997POPC   C4A15090  38.311  21.347   7.776
  997POPC   C1B15091  38.667  21.040   8.795
  997POPC   C2B15092  38.542  21.030   8.384
  997POPC   C3B15093  38.790  21.149   8.039
  997POPC   C4B15094  38.826  21.429   7.714
  998POPC   NC315095  14.659  34.598   9.675
  998POPC   PO415096  14.142  34.964   9.509
  998POPC   GL115097  14.232  34.817   9.104
  998POPC   GL215098  14.543  34.648   9.185
  998POPC   C1A15099  14.240  34.612   8.733
  998POPC   D2A15100  14.383  34.712   8.352
  998POPC   C3A15101  14.132  34.761   7.996
  998POPC   C4A15102  14.286  34.484   7.718
  998POPC   C1B15103  14.769  34.591   8.832
  998POPC   C2B15104  14.879  34.325   8.470
  998POPC   C3B15105  14.683  34.355   8.069
  998POPC   C4B15106  14.827  34.477   7.683
  999POPC   NC315107  44.472   6.544   9.417
  999POPC   PO415108  44.840   7.175   9.448
  999POPC   GL115109  44.819   6.819   9.147
  999POPC   GL215110  44.945   6.472   9.197
  999POPC   C1A15111  44.622   6.667   8.753
  999POPC   D2A15112  44.350   6.791   8.390
  999POPC   C3A15113  44.593   6.697   8.012
  999POPC   C4A15114  44.502   6.641   7.566
  999POPC   C1B15115   0.089   6.424   8.773
  999POPC   C2B15116  44.982   6.585   8.362
  999POPC   C3B15117  44.998   6.393   7.960
  999POPC   C4B15118  44.763   6.198   7.589
 1000POPC   NC315119  39.193   3.682   9.575
 1000POPC   PO415120  39.612   3.143   9.477
 1000POPC   GL115121  39.429   3.427   9.175
 1000POPC   GL215122  39.476   3.812   9.167
 1000POPC   C1A15123  39.452   3.519   8.741
 1000POPC   D2A15124  39.387   3.294   8.390
 1000POPC   C3A15125  39.232   3.458   8.032
 1000POPC   C4A15126  39.480   3.722   7.769
 1000POPC   C1B15127  39.115   3.893   8.877
 1000POPC   C2B15128  38.992   3.747   8.443
 1000POPC   C3B15129  39.042   3.925   8.012
 1000POPC   C4B15130  38.995   3.852   7.553
 1001POPC   NC315131  12.181  21.437   9.651
 1001POPC   PO415132  11.659  21.186   9.335
 1001POPC   GL115133  11.975  21.458   9.172
 1001POPC   GL215134  12.304  21.307   9.166
 1001POPC   C1A15135  12.000  21.568   8.755
 1001POPC   D2A15136  11.828  21.306   8.426
 1001POPC   C3A15137  12.160  21.274   8.126
 1001POPC   C4A15138  12.381  21.604   7.869
 1001POPC   C1B15139  12.174  21.100   8.785
 1001POPC   C2B15140  12.424  20.869   8.494
 1001POPC   C3B15141  12.502  20.841   8.089
 1001POPC   C4B15142  12.470  21.116   7.745
 1002POPC   NC315143  11.682  23.119   9.646
 1002POPC   PO415144  11.298  22.693   9.675
 1002POPC   GL115145  11.413  22.630   9.208
 1002POPC   GL215146  11.078  22.623   9.061
 1002POPC   C1A15147  11.591  22.761   8.762
 1002POPC   D2A15148  11.403  22.773   8.288
 1002POPC   C3A15149  11.539  23.099   7.946
 1002POPC   C4A15150  11.455  23.196   7.487
 1002POPC   C1B15151  11.224  22.440   8.695
 1002POPC   C2B15152  11.077  22.369   8.306
 1002POPC   C3B15153  11.036  22.584   7.921
 1002POPC   C4B15154  11.263  22.741   7.563
 1003POPC   NC315155  38.104  39.643   9.425
 1003POPC   PO415156  38.176  40.231   9.835
 1003POPC   GL115157  38.238  40.151   9.367
 1003POPC   GL215158  38.524  39.927   9.220
 1003POPC   C1A15159  38.213  40.179   8.905
 1003POPC   D2A15160  38.430  40.176   8.510
 1003POPC   C3A15161  38.246  40.161   8.109
 1003POPC   C4A15162  38.328  39.960   7.734
 1003POPC   C1B15163  38.757  39.968   8.846
 1003POPC   C2B15164  38.942  40.046   8.450
 1003POPC   C3B15165  38.758  40.028   8.053
 1003POPC   C4B15166  38.801  39.810   7.677
 1004POPC   NC315167  27.058   4.127   9.496
 1004POPC   PO415168  26.595   4.567   9.553
 1004POPC   GL115169  26.722   4.326   9.181
 1004POPC   GL215170  26.615   3.969   9.250
 1004POPC   C1A15171  26.932   4.388   8.779
 1004POPC   D2A15172  27.131   4.362   8.369
 1004POPC   C3A15173  26.845   4.511   8.014
 1004POPC   C4A15174  26.976   4.623   7.584
 1004POPC   C1B15175  26.562   4.026   8.804
 1004POPC   C2B15176  26.663   4.147   8.387
 1004POPC   C3B15177  26.797   3.987   7.990
 1004POPC   C4B15178  26.743   4.173   7.559
 1005POPC   NC315179  41.011  20.878   9.411
 1005POPC   PO415180  40.654  20.288   9.564
 1005POPC   GL115181  40.703  20.518   9.179
 1005POPC   GL215182  41.056  20.388   9.239
 1005POPC   C1A15183  40.555  20.767   8.763
 1005POPC   D2A15184  40.631  20.917   8.300
 1005POPC   C3A15185  40.419  20.703   7.917
 1005POPC   C4A15186  40.470  20.253   7.780
 1005POPC   C1B15187  41.057  20.555   8.805
 1005POPC   C2B15188  41.138  20.454   8.361
 1005POPC   C3B15189  40.926  20.506   7.953
 1005POPC   C4B15190  40.934  20.239   7.575
 1006POPC   NC315191  11.712  37.012   9.641
 1006POPC   PO415192  12.220  36.531   9.501
 1006POPC   GL115193  11.965  36.822   9.243
 1006POPC   GL215194  12.161  37.114   9.218
 1006POPC   C1A15195  11.829  37.107   8.865
 1006POPC   D2A15196  11.992  37.012   8.454
 1006POPC   C3A15197  11.757  36.932   8.093
 1006POPC   C4A15198  11.881  36.805   7.708
 1006POPC   C1B15199  12.270  36.759   8.862
 1006POPC   C2B15200  12.357  36.584   8.468
 1006POPC   C3B15201  12.249  36.741   8.072
 1006POPC   C4B15202  12.400  36.670   7.657
 1007POPC   NC315203  22.128  23.604   9.528
 1007POPC   PO415204  22.781  23.804   9.517
 1007POPC   GL115205  22.909  23.610   9.166
 1007POPC   GL215206  22.525  23.526   9.158
 1007POPC   C1A15207  23.173  23.673   8.793
 1007POPC   D2A15208  23.161  23.605   8.368
 1007POPC   C3A15209  23.166  23.872   8.018
 1007POPC   C4A15210  23.064  23.755   7.599
 1007POPC   C1B15211  22.674  23.461   8.748
 1007POPC   C2B15212  22.658  23.674   8.399
 1007POPC   C3B15213  22.733  23.634   7.981
 1007POPC   C4B15214  22.523  23.739   7.584
 1008POPC   NC315215   1.806  18.521   9.395
 1008POPC   PO415216   2.062  17.967   9.633
 1008POPC   GL115217   1.932  18.072   9.194
 1008POPC   GL215218   2.149  18.340   9.070
 1008POPC   C1A15219   1.777  18.199   8.762
 1008POPC   D2A15220   1.972  18.127   8.355
 1008POPC   C3A15221   1.882  18.269   7.942
 1008POPC   C4A15222   1.806  18.180   7.497
 1008POPC   C1B15223   2.167  18.532   8.690
 1008POPC   C2B15224   2.361  18.437   8.333
 1008POPC   C3B15225   2.363  18.628   7.967
 1008POPC   C4B15226   2.198  18.498   7.604
 1009POPC   NC315227   0.654  12.952   9.221
 1009POPC   PO415228   0.632  12.414   9.616
 1009POPC   GL115229   0.376  12.530   9.137
 1009POPC   GL215230   0.206  12.843   9.026
 1009POPC   C1A15231   0.175  12.450   8.704
 1009POPC   D2A15232   0.109  12.618   8.272
 1009POPC   C3A15233   0.482  12.738   8.091
 1009POPC   C4A15234   0.567  12.711   7.669
 1009POPC   C1B15235   0.415  12.902   8.605
 1009POPC   C2B15236   0.446  13.203   8.270
 1009POPC   C3B15237   0.628  13.212   7.865
 1009POPC   C4B15238   0.457  13.310   7.474
 1010POPC   NC315239  42.940   0.823   9.250
 1010POPC   PO415240  43.247   0.326   9.633
 1010POPC   GL115241  43.213   0.385   9.173
 1010POPC   GL215242  42.993   0.156   9.088
 1010POPC   C1A15243  43.031   0.499   8.717
 1010POPC   D2A15244  42.945   0.817   8.418
 1010POPC   C3A15245  42.927   0.617   8.016
 1010POPC   C4A15246  43.270   0.599   7.798
 1010POPC   C1B15247  43.246   0.037   8.742
 1010POPC   C2B15248  43.176   0.085   8.287
 1010POPC   C3B15249  43.126   0.111   7.835
 1010POPC   C4B15250  43.044   0.022   7.368
 1011POPC   NC315251  14.251  33.516   9.611
 1011POPC   PO415252  14.478  34.191   9.484
 1011POPC   GL115253  14.235  33.870   9.226
 1011POPC   GL215254  14.438  33.568   9.152
 1011POPC   C1A15255  14.196  33.877   8.776
 1011POPC   D2A15256  14.358  34.166   8.456
 1011POPC   C3A15257  14.307  33.981   8.028
 1011POPC   C4A15258  14.550  34.032   7.646
 1011POPC   C1B15259  14.662  33.630   8.798
 1011POPC   C2B15260  14.578  33.716   8.410
 1011POPC   C3B15261  14.838  33.859   8.123
 1011POPC   C4B15262  14.779  33.613   7.793
 1012POPC   NC315263  19.755  17.503   9.386
 1012POPC   PO415264  20.344  17.730   9.688
 1012POPC   GL115265  20.240  17.539   9.178
 1012POPC   GL215266  20.033  17.210   9.069
 1012POPC   C1A15267  19.936  17.576   8.721
 1012POPC   D2A15268  19.694  17.731   8.317
 1012POPC   C3A15269  19.816  17.685   7.839
 1012POPC   C4A15270  20.065  17.389   7.532
 1012POPC   C1B15271  19.626  17.154   8.831
 1012POPC   C2B15272  19.503  17.227   8.418
 1012POPC   C3B15273  19.636  17.251   7.996
 1012POPC   C4B15274  19.543  17.372   7.545
 1013POPC   NC315275   0.037  23.992   9.232
 1013POPC   PO415276  44.888  23.343   9.428
 1013POPC   GL115277  44.894  23.534   9.072
 1013POPC   GL215278  44.578  23.705   9.068
 1013POPC   C1A15279  44.901  23.669   8.662
 1013POPC   D2A15280  44.600  23.566   8.348
 1013POPC   C3A15281  44.712  23.350   7.996
 1013POPC   C4A15282  44.988  23.464   7.682
 1013POPC   C1B15283  44.471  23.939   8.661
 1013POPC   C2B15284  44.789  24.044   8.300
 1013POPC   C3B15285  44.796  24.024   7.833
 1013POPC   C4B15286  44.409  24.063   7.580
 1014POPC   NC315287  13.349  16.803   9.537
 1014POPC   PO415288  13.948  16.604   9.370
 1014POPC   GL115289  13.583  16.608   9.121
 1014POPC   GL215290  13.636  16.960   9.110
 1014POPC   C1A15291  13.603  16.600   8.684
 1014POPC   D2A15292  13.872  16.766   8.364
 1014POPC   C3A15293  13.655  16.653   7.997
 1014POPC   C4A15294  13.854  16.425   7.698
 1014POPC   C1B15295  13.474  17.112   8.719
 1014POPC   C2B15296  13.479  17.075   8.246
 1014POPC   C3B15297  13.492  17.199   7.836
 1014POPC   C4B15298  13.684  16.908   7.556
 1015POPC   NC315299  35.755   0.214   9.365
 1015POPC   PO415300  35.433   0.798   9.565
 1015POPC   GL115301  35.255   0.538   9.204
 1015POPC   GL215302  35.239   0.184   9.275
 1015POPC   C1A15303  35.295   0.594   8.725
 1015POPC   D2A15304  35.510   0.450   8.342
 1015POPC   C3A15305  35.309   0.545   7.949
 1015POPC   C4A15306  35.622   0.486   7.633
 1015POPC   C1B15307  35.048   0.176   8.874
 1015POPC   C2B15308  35.050   0.195   8.430
 1015POPC   C3B15309  35.030   0.078   7.992
 1015POPC   C4B15310  34.933   0.329   7.642
 1016POPC   NC315311  29.360  26.910   9.457
 1016POPC   PO415312  28.771  26.891   9.636
 1016POPC   GL115313  28.909  26.750   9.251
 1016POPC   GL215314  28.698  26.494   9.172
 1016POPC   C1A15315  29.001  27.011   8.892
 1016POPC   D2A15316  28.965  26.953   8.480
 1016POPC   C3A15317  29.042  26.925   8.041
 1016POPC   C4A15318  29.280  26.801   7.688
 1016POPC   C1B15319  28.625  26.647   8.777
 1016POPC   C2B15320  28.765  26.480   8.413
 1016POPC   C3B15321  28.642  26.518   8.040
 1016POPC   C4B15322  28.782  26.639   7.686
 1017POPC   NC315323  38.031   5.737   9.466
 1017POPC   PO415324  38.647   5.564   9.476
 1017POPC   GL115325  38.439   5.764   9.167
 1017POPC   GL215326  38.582   6.038   9.060
 1017POPC   C1A15327  38.136   5.884   8.836
 1017POPC   D2A15328  38.205   6.095   8.452
 1017POPC   C3A15329  38.294   5.786   8.098
 1017POPC   C4A15330  38.520   5.405   7.921
 1017POPC   C1B15331  38.640   5.844   8.692
 1017POPC   C2B15332  38.708   6.050   8.330
 1017POPC   C3B15333  38.792   5.866   7.955
 1017POPC   C4B15334  38.560   5.801   7.595
 1018POPC   NC315335  11.880  44.251   9.738
 1018POPC   PO415336  12.187  43.688   9.815
 1018POPC   GL115337  12.165  43.801   9.360
 1018POPC   GL215338  12.368  44.102   9.253
 1018POPC   C1A15339  11.928  43.732   8.971
 1018POPC   D2A15340  11.923  43.653   8.530
 1018POPC   C3A15341  11.915  43.764   8.085
 1018POPC   C4A15342  11.956  43.959   7.662
 1018POPC   C1B15343  12.243  44.102   8.803
 1018POPC   C2B15344  12.092  44.173   8.377
 1018POPC   C3B15345  12.298  44.128   7.997
 1018POPC   C4B15346  12.304  44.329   7.611
 1019POPC   NC315347   9.916   3.161   9.814
 1019POPC   PO415348   9.451   2.734   9.553
 1019POPC   GL115349   9.783   2.730   9.135
 1019POPC   GL215350  10.064   3.056   9.142
 1019POPC   C1A15351   9.829   2.870   8.731
 1019POPC   D2A15352   9.993   2.725   8.371
 1019POPC   C3A15353   9.568   2.750   8.190
 1019POPC   C4A15354   9.528   2.754   7.762
 1019POPC   C1B15355  10.288   3.083   8.728
 1019POPC   C2B15356  10.174   3.265   8.336
 1019POPC   C3B15357   9.905   3.103   8.026
 1019POPC   C4B15358   9.449   3.217   7.975
 1020POPC   NC315359  25.140  13.136   9.865
 1020POPC   PO415360  25.391  12.619   9.534
 1020POPC   GL115361  25.168  12.775   9.207
 1020POPC   GL215362  25.455  12.855   9.045
 1020POPC   C1A15363  25.001  12.837   8.779
 1020POPC   D2A15364  25.227  12.814   8.391
 1020POPC   C3A15365  25.167  12.923   7.954
 1020POPC   C4A15366  24.865  12.734   7.674
 1020POPC   C1B15367  25.652  12.959   8.690
 1020POPC   C2B15368  25.575  13.182   8.309
 1020POPC   C3B15369  25.767  13.244   7.933
 1020POPC   C4B15370  25.523  13.091   7.605
 1021POPC   NC315371  34.808  42.227   9.533
 1021POPC   PO415372  34.387  42.574   9.162
 1021POPC   GL115373  34.596  42.169   9.049
 1021POPC   GL215374  34.389  41.862   9.150
 1021POPC   C1A15375  34.686  42.184   8.604
 1021POPC   D2A15376  34.666  42.553   8.317
 1021POPC   C3A15377  34.797  42.450   7.917
 1021POPC   C4A15378  34.948  42.046   7.856
 1021POPC   C1B15379  34.180  42.047   8.764
 1021POPC   C2B15380  34.220  42.302   8.394
 1021POPC   C3B15381  34.299  42.236   7.958
 1021POPC   C4B15382  34.017  42.375   7.621
 1022POPC   NC315383   6.045  27.183   9.897
 1022POPC   PO415384   5.579  27.652   9.540
 1022POPC   GL115385   5.799  27.717   9.132
 1022POPC   GL215386   5.554  27.483   9.046
 1022POPC   C1A15387   5.832  27.631   8.653
 1022POPC   D2A15388   6.012  27.445   8.264
 1022POPC   C3A15389   6.002  27.710   7.908
 1022POPC   C4A15390   6.249  27.919   7.621
 1022POPC   C1B15391   5.353  27.778   8.822
 1022POPC   C2B15392   5.315  27.714   8.413
 1022POPC   C3B15393   5.551  27.849   8.109
 1022POPC   C4B15394   5.505  27.842   7.700
 1023POPC   NC315395  39.587  36.999   9.830
 1023POPC   PO415396  40.186  37.080   9.482
 1023POPC   GL115397  40.127  37.054   9.061
 1023POPC   GL215398  40.218  37.419   9.079
 1023POPC   C1A15399  39.903  36.805   8.787
 1023POPC   D2A15400  39.880  36.537   8.472
 1023POPC   C3A15401  39.799  36.764   8.110
 1023POPC   C4A15402  39.968  36.823   7.721
 1023POPC   C1B15403  40.298  37.297   8.667
 1023POPC   C2B15404  40.167  37.009   8.397
 1023POPC   C3B15405  40.195  37.162   8.018
 1023POPC   C4B15406  40.407  37.388   7.713
 1024POPC   NC315407  34.803  11.016   9.527
 1024POPC   PO415408  34.233  11.317   9.443
 1024POPC   GL115409  34.411  11.476   9.095
 1024POPC   GL215410  34.667  11.287   9.053
 1024POPC   C1A15411  34.569  11.676   8.737
 1024POPC   D2A15412  34.529  11.400   8.410
 1024POPC   C3A15413  34.456  11.475   7.986
 1024POPC   C4A15414  34.542  11.184   7.612
 1024POPC   C1B15415  34.971  11.366   8.730
 1024POPC   C2B15416  35.012  11.554   8.360
 1024POPC   C3B15417  34.940  11.368   7.970
 1024POPC   C4B15418  34.796  11.612   7.617
 1025POPC   NC315419  18.321   3.226   9.417
 1025POPC   PO415420  18.438   2.610   9.526
 1025POPC   GL115421  18.425   2.767   9.153
 1025POPC   GL215422  18.058   2.838   9.179
 1025POPC   C1A15423  18.539   2.638   8.764
 1025POPC   D2A15424  18.307   2.660   8.379
 1025POPC   C3A15425  18.472   2.697   7.958
 1025POPC   C4A15426  18.227   2.706   7.570
 1025POPC   C1B15427  18.146   2.994   8.760
 1025POPC   C2B15428  18.249   3.179   8.341
 1025POPC   C3B15429  18.125   3.091   7.900
 1025POPC   C4B15430  17.986   3.119   7.418
 1026POPC   NC315431  41.763  21.158   9.593
 1026POPC   PO415432  41.369  21.601   9.412
 1026POPC   GL115433  41.691  21.493   9.127
 1026POPC   GL215434  41.658  21.145   9.099
 1026POPC   C1A15435  41.881  21.565   8.690
 1026POPC   D2A15436  41.769  21.642   8.235
 1026POPC   C3A15437  41.575  21.323   7.941
 1026POPC   C4A15438  41.292  21.149   7.596
 1026POPC   C1B15439  41.949  21.053   8.776
 1026POPC   C2B15440  42.019  21.209   8.338
 1026POPC   C3B15441  41.942  20.938   8.008
 1026POPC   C4B15442  41.738  20.909   7.659
 1027POPC   NC315443  38.959   1.025   9.585
 1027POPC   PO415444  39.363   1.567   9.598
 1027POPC   GL115445  39.273   1.286   9.250
 1027POPC   GL215446  38.964   1.480   9.236
 1027POPC   C1A15447  39.144   1.025   8.871
 1027POPC   D2A15448  39.039   1.068   8.429
 1027POPC   C3A15449  39.330   1.116   8.075
 1027POPC   C4A15450  39.540   1.350   7.742
 1027POPC   C1B15451  38.777   1.432   8.841
 1027POPC   C2B15452  38.624   1.336   8.440
 1027POPC   C3B15453  38.834   1.329   8.022
 1027POPC   C4B15454  38.980   1.526   7.639
 1028POPC   NC315455   7.440   2.283   9.234
 1028POPC   PO415456   7.851   1.937   9.594
 1028POPC   GL115457   7.580   1.804   9.186
 1028POPC   GL215458   7.213   1.845   9.162
 1028POPC   C1A15459   7.545   1.941   8.703
 1028POPC   D2A15460   7.809   1.831   8.304
 1028POPC   C3A15461   7.541   1.825   7.933
 1028POPC   C4A15462   7.286   2.142   7.697
 1028POPC   C1B15463   7.127   1.661   8.794
 1028POPC   C2B15464   7.002   1.687   8.350
 1028POPC   C3B15465   7.018   1.749   7.910
 1028POPC   C4B15466   7.016   1.780   7.459
 1029POPC   NC315467  10.021   8.103   9.728
 1029POPC   PO415468  10.702   7.867   9.560
 1029POPC   GL115469  10.490   8.101   9.255
 1029POPC   GL215470  10.147   8.019   9.242
 1029POPC   C1A15471  10.452   8.236   8.837
 1029POPC   D2A15472  10.546   8.099   8.426
 1029POPC   C3A15473  10.375   8.388   8.159
 1029POPC   C4A15474  10.491   8.319   7.767
 1029POPC   C1B15475  10.101   7.851   8.858
 1029POPC   C2B15476  10.025   8.028   8.456
 1029POPC   C3B15477  10.165   7.958   8.046
 1029POPC   C4B15478  10.009   8.164   7.699
 1030POPC   NC315479  18.167  12.150   9.507
 1030POPC   PO415480  18.675  11.670   9.443
 1030POPC   GL115481  18.529  11.989   9.118
 1030POPC   GL215482  18.196  12.112   9.008
 1030POPC   C1A15483  18.625  12.167   8.708
 1030POPC   D2A15484  18.607  12.280   8.273
 1030POPC   C3A15485  18.338  12.064   7.994
 1030POPC   C4A15486  18.375  12.009   7.564
 1030POPC   C1B15487  18.223  11.801   8.697
 1030POPC   C2B15488  18.184  11.577   8.336
 1030POPC   C3B15489  17.899  11.768   8.039
 1030POPC   C4B15490  17.790  11.624   7.624
 1031POPC   NC315491  17.972  19.352   9.509
 1031POPC   PO415492  17.262  19.085   9.461
 1031POPC   GL115493  17.498  19.306   9.156
 1031POPC   GL215494  17.793  19.163   9.076
 1031POPC   C1A15495  17.412  19.207   8.727
 1031POPC   D2A15496  17.318  18.828   8.572
 1031POPC   C3A15497  17.335  18.812   8.134
 1031POPC   C4A15498  17.428  18.919   7.737
 1031POPC   C1B15499  17.949  18.894   8.769
 1031POPC   C2B15500  17.810  18.859   8.387
 1031POPC   C3B15501  17.753  19.148   8.065
 1031POPC   C4B15502  17.851  19.208   7.635
 1032POPC   NC315503  11.769  20.418   9.441
 1032POPC   PO415504  12.026  20.999   9.734
 1032POPC   GL115505  12.040  20.854   9.256
 1032POPC   GL215506  12.371  20.751   9.077
 1032POPC   C1A15507  11.833  20.724   8.866
 1032POPC   D2A15508  11.922  20.798   8.433
 1032POPC   C3A15509  12.023  20.627   8.036
 1032POPC   C4A15510  11.888  20.957   7.751
 1032POPC   C1B15511  12.235  20.448   8.742
 1032POPC   C2B15512  12.402  20.382   8.346
 1032POPC   C3B15513  12.350  20.222   7.968
 1032POPC   C4B15514  12.213  20.370   7.597
 1033POPC   NC315515  12.614  43.751   9.651
 1033POPC   PO415516  13.007  44.295   9.604
 1033POPC   GL115517  12.862  43.987   9.233
 1033POPC   GL215518  12.639  43.654   9.163
 1033POPC   C1A15519  12.760  43.957   8.784
 1033POPC   D2A15520  12.946  43.941   8.416
 1033POPC   C3A15521  12.787  43.881   8.014
 1033POPC   C4A15522  12.897  43.565   7.699
 1033POPC   C1B15523  12.396  43.599   8.780
 1033POPC   C2B15524  12.409  43.779   8.374
 1033POPC   C3B15525  12.385  43.586   7.951
 1033POPC   C4B15526  12.454  43.816   7.613
 1034POPC   NC315527  39.599   6.629   9.332
 1034POPC   PO415528  39.057   6.471   9.579
 1034POPC   GL115529  39.135   6.553   9.147
 1034POPC   GL215530  38.828   6.467   9.109
 1034POPC   C1A15531  39.377   6.686   8.751
 1034POPC   D2A15532  39.656   6.903   8.473
 1034POPC   C3A15533  39.361   6.903   8.137
 1034POPC   C4A15534  39.359   6.606   7.818
 1034POPC   C1B15535  38.962   6.260   8.757
 1034POPC   C2B15536  39.045   6.482   8.406
 1034POPC   C3B15537  38.996   6.348   8.031
 1034POPC   C4B15538  38.673   6.303   7.734
 1035POPC   NC315539  36.892  14.844   9.377
 1035POPC   PO415540  37.099  15.480   9.482
 1035POPC   GL115541  36.984  15.302   9.129
 1035POPC   GL215542  37.169  14.997   8.976
 1035POPC   C1A15543  36.679  15.220   8.871
 1035POPC   D2A15544  36.913  15.149   8.525
 1035POPC   C3A15545  36.765  15.185   8.129
 1035POPC   C4A15546  36.704  15.010   7.758
 1035POPC   C1B15547  37.405  15.045   8.580
 1035POPC   C2B15548  37.252  14.955   8.142
 1035POPC   C3B15549  37.203  14.869   7.698
 1035POPC   C4B15550  37.193  14.682   7.255
 1036POPC   NC315551  30.189  34.680   9.696
 1036POPC   PO415552  30.794  34.658   9.491
 1036POPC   GL115553  30.502  34.599   9.140
 1036POPC   GL215554  30.768  34.557   8.993
 1036POPC   C1A15555  30.446  34.528   8.638
 1036POPC   D2A15556  30.669  34.341   8.346
 1036POPC   C3A15557  30.683  34.500   7.943
 1036POPC   C4A15558  30.577  34.799   7.657
 1036POPC   C1B15559  30.966  34.700   8.646
 1036POPC   C2B15560  30.766  34.875   8.307
 1036POPC   C3B15561  30.900  35.058   7.955
 1036POPC   C4B15562  31.085  34.727   7.714
 1037POPC   NC315563  13.729  42.337   9.519
 1037POPC   PO415564  14.086  42.866   9.335
 1037POPC   GL115565  13.857  42.584   9.026
 1037POPC   GL215566  13.508  42.430   9.060
 1037POPC   C1A15567  13.753  42.491   8.595
 1037POPC   D2A15568  13.743  42.076   8.397
 1037POPC   C3A15569  13.527  42.189   8.056
 1037POPC   C4A15570  13.622  42.594   7.861
 1037POPC   C1B15571  13.335  42.165   8.725
 1037POPC   C2B15572  13.004  42.196   8.407
 1037POPC   C3B15573  13.045  42.055   7.959
 1037POPC   C4B15574  13.224  42.299   7.619
 1038POPC   NC315575  24.789  19.854   9.217
 1038POPC   PO415576  24.354  19.533   9.628
 1038POPC   GL115577  24.304  19.705   9.149
 1038POPC   GL215578  24.514  19.551   8.893
 1038POPC   C1A15579  24.302  19.973   8.746
 1038POPC   D2A15580  24.521  20.042   8.333
 1038POPC   C3A15581  24.338  19.904   7.943
 1038POPC   C4A15582  24.288  19.662   7.616
 1038POPC   C1B15583  24.924  19.548   8.692
 1038POPC   C2B15584  25.013  19.606   8.330
 1038POPC   C3B15585  24.753  19.646   8.059
 1038POPC   C4B15586  24.805  19.570   7.691
 1039POPC   NC315587  38.204  42.305   9.705
 1039POPC   PO415588  38.488  42.841   9.613
 1039POPC   GL115589  38.486  42.517   9.231
 1039POPC   GL215590  38.208  42.277   9.205
 1039POPC   C1A15591  38.618  42.375   8.781
 1039POPC   D2A15592  38.680  42.072   8.432
 1039POPC   C3A15593  38.407  42.224   8.095
 1039POPC   C4A15594  38.464  42.455   7.696
 1039POPC   C1B15595  38.110  42.501   8.848
 1039POPC   C2B15596  38.238  42.588   8.434
 1039POPC   C3B15597  38.120  42.633   8.006
 1039POPC   C4B15598  38.076  42.808   7.597
 1040POPC   NC315599  28.988  28.100   9.992
 1040POPC   PO415600  29.278  28.285   9.432
 1040POPC   GL115601  29.233  28.361   9.065
 1040POPC   GL215602  29.402  28.710   9.107
 1040POPC   C1A15603  28.892  28.339   8.797
 1040POPC   D2A15604  28.680  28.402   8.432
 1040POPC   C3A15605  28.739  28.243   8.034
 1040POPC   C4A15606  28.754  28.471   7.656
 1040POPC   C1B15607  29.240  28.705   8.712
 1040POPC   C2B15608  29.202  28.450   8.376
 1040POPC   C3B15609  29.128  28.602   7.984
 1040POPC   C4B15610  29.211  28.286   7.696
 1041POPC   NC315611  26.326  32.059   9.467
 1041POPC   PO415612  26.938  32.545   9.603
 1041POPC   GL115613  26.707  32.341   9.285
 1041POPC   GL215614  26.902  32.030   9.199
 1041POPC   C1A15615  26.542  32.276   8.872
 1041POPC   D2A15616  26.739  32.432   8.534
 1041POPC   C3A15617  26.608  32.283   8.166
 1041POPC   C4A15618  26.537  32.207   7.762
 1041POPC   C1B15619  27.096  32.156   8.792
 1041POPC   C2B15620  27.079  32.122   8.321
 1041POPC   C3B15621  27.047  32.249   7.885
 1041POPC   C4B15622  26.936  31.952   7.568
 1042POPC   NC315623  15.023  11.788   9.490
 1042POPC   PO415624  15.568  12.069   9.376
 1042POPC   GL115625  15.252  12.016   9.044
 1042POPC   GL215626  14.866  12.038   9.056
 1042POPC   C1A15627  15.367  11.935   8.616
 1042POPC   D2A15628  15.499  12.241   8.303
 1042POPC   C3A15629  15.455  12.070   7.913
 1042POPC   C4A15630  15.291  11.786   7.633
 1042POPC   C1B15631  14.857  11.953   8.606
 1042POPC   C2B15632  15.013  11.928   8.169
 1042POPC   C3B15633  14.864  12.060   7.744
 1042POPC   C4B15634  14.818  12.114   7.265
 1043POPC   NC315635   9.571  38.706   9.658
 1043POPC   PO415636   9.882  38.095   9.559
 1043POPC   GL115637   9.871  38.476   9.242
 1043POPC   GL215638   9.586  38.751   9.161
 1043POPC   C1A15639   9.985  38.693   8.821
 1043POPC   D2A15640  10.070  38.922   8.408
 1043POPC   C3A15641   9.941  38.755   7.996
 1043POPC   C4A15642   9.646  38.696   7.604
 1043POPC   C1B15643   9.513  38.442   8.863
 1043POPC   C2B15644   9.624  38.533   8.473
 1043POPC   C3B15645   9.493  38.534   8.072
 1043POPC   C4B15646   9.590  38.206   7.799
 1044POPC   NC315647  42.062  44.445   9.445
 1044POPC   PO415648  41.625   0.054   9.557
 1044POPC   GL115649  41.734  44.790   9.211
 1044POPC   GL215650  41.538  44.477   9.214
 1044POPC   C1A15651  41.750  44.714   8.764
 1044POPC   D2A15652  41.649  44.986   8.392
 1044POPC   C3A15653  41.630  44.773   8.022
 1044POPC   C4A15654  41.862  44.724   7.655
 1044POPC   C1B15655  41.192  44.496   8.894
 1044POPC   C2B15656  41.340  44.574   8.476
 1044POPC   C3B15657  41.309  44.388   8.070
 1044POPC   C4B15658  41.448  44.445   7.658
 1045POPC   NC315659  17.189  42.282   9.315
 1045POPC   PO415660  17.733  42.707   9.419
 1045POPC   GL115661  17.665  42.360   9.095
 1045POPC   GL215662  17.737  42.007   9.232
 1045POPC   C1A15663  17.483  42.411   8.665
 1045POPC   D2A15664  17.152  42.495   8.325
 1045POPC   C3A15665  17.361  42.406   7.932
 1045POPC   C4A15666  17.772  42.369   7.799
 1045POPC   C1B15667  17.590  41.916   8.815
 1045POPC   C2B15668  17.563  41.754   8.397
 1045POPC   C3B15669  17.671  41.876   7.982
 1045POPC   C4B15670  17.347  41.957   7.683
 1046POPC   NC315671  44.297   1.283   9.395
 1046POPC   PO415672  44.977   1.270   9.514
 1046POPC   GL115673  44.752   1.442   9.199
 1046POPC   GL215674  44.681   1.111   9.107
 1046POPC   C1A15675  44.572   1.476   8.780
 1046POPC   D2A15676  44.673   1.377   8.369
 1046POPC   C3A15677  44.413   1.347   7.948
 1046POPC   C4A15678  44.624   1.485   7.567
 1046POPC   C1B15679  44.745   0.946   8.709
 1046POPC   C2B15680  44.590   0.876   8.320
 1046POPC   C3B15681  44.816   1.061   8.016
 1046POPC   C4B15682  44.846   1.048   7.628
 1047POPC   NC315683  29.849  29.202   9.524
 1047POPC   PO415684  30.035  28.541   9.606
 1047POPC   GL115685  29.899  28.810   9.193
 1047POPC   GL215686  30.070  29.143   9.084
 1047POPC   C1A15687  29.754  28.897   8.743
 1047POPC   D2A15688  29.915  29.081   8.348
 1047POPC   C3A15689  29.798  28.942   7.945
 1047POPC   C4A15690  29.748  29.113   7.543
 1047POPC   C1B15691  30.031  29.444   8.738
 1047POPC   C2B15692  30.088  29.573   8.314
 1047POPC   C3B15693  29.927  29.432   7.922
 1047POPC   C4B15694  29.866  29.613   7.505
 1048POPC   NC315695  36.985  37.458   9.481
 1048POPC   PO415696  36.393  37.825   9.509
 1048POPC   GL115697  36.554  37.749   9.085
 1048POPC   GL215698  36.885  37.715   9.077
 1048POPC   C1A15699  36.588  37.475   8.700
 1048POPC   D2A15700  36.802  37.298   8.315
 1048POPC   C3A15701  36.665  37.431   7.910
 1048POPC   C4A15702  36.760  37.673   7.564
 1048POPC   C1B15703  37.022  37.905   8.770
 1048POPC   C2B15704  36.756  37.895   8.450
 1048POPC   C3B15705  36.861  37.867   8.063
 1048POPC   C4B15706  37.171  38.026   7.792
 1049POPC   NC315707  44.722  39.449   9.471
 1049POPC   PO415708  44.626  38.796   9.572
 1049POPC   GL115709  44.836  39.021   9.161
 1049POPC   GL215710   0.003  39.380   9.079
 1049POPC   C1A15711  44.772  39.119   8.680
 1049POPC   D2A15712  44.428  39.342   8.460
 1049POPC   C3A15713  44.448  39.379   7.990
 1049POPC   C4A15714  44.446  39.016   7.663
 1049POPC   C1B15715   0.036  39.602   8.711
 1049POPC   C2B15716   0.068  39.421   8.337
 1049POPC   C3B15717  44.990  39.529   7.946
 1049POPC   C4B15718  44.827  39.350   7.610
 1050POPC   NC315719  32.510  14.736   9.828
 1050POPC   PO415720  32.135  14.277   9.484
 1050POPC   GL115721  32.061  14.367   9.086
 1050POPC   GL215722  32.334  14.592   9.098
 1050POPC   C1A15723  32.052  14.491   8.680
 1050POPC   D2A15724  32.325  14.262   8.432
 1050POPC   C3A15725  32.238  14.281   8.043
 1050POPC   C4A15726  32.019  14.479   7.765
 1050POPC   C1B15727  32.525  14.678   8.696
 1050POPC   C2B15728  32.280  14.776   8.312
 1050POPC   C3B15729  32.405  14.797   7.902
 1050POPC   C4B15730  32.524  14.472   7.636
 1051POPC   NC315731  19.205  37.989   9.445
 1051POPC   PO415732  18.982  37.343   9.395
 1051POPC   GL115733  18.986  37.652   9.098
 1051POPC   GL215734  19.345  37.640   9.092
 1051POPC   C1A15735  19.010  37.650   8.646
 1051POPC   D2A15736  19.132  37.388   8.290
 1051POPC   C3A15737  18.887  37.481   7.920
 1051POPC   C4A15738  18.823  37.865   7.701
 1051POPC   C1B15739  19.426  37.922   8.755
 1051POPC   C2B15740  19.351  37.893   8.325
 1051POPC   C3B15741  19.283  37.815   7.909
 1051POPC   C4B15742  19.288  37.878   7.453
 1052POPC   NC315743  17.399  21.100   9.726
 1052POPC   PO415744  17.871  21.437   9.344
 1052POPC   GL115745  17.764  21.468   8.957
 1052POPC   GL215746  17.449  21.671   9.019
 1052POPC   C1A15747  17.710  21.114   8.639
 1052POPC   D2A15748  17.687  20.825   8.293
 1052POPC   C3A15749  17.498  20.957   7.938
 1052POPC   C4A15750  17.606  21.201   7.589
 1052POPC   C1B15751  17.480  21.605   8.585
 1052POPC   C2B15752  17.730  21.465   8.281
 1052POPC   C3B15753  17.532  21.507   7.962
 1052POPC   C4B15754  17.192  21.515   7.703
 1053POPC   NC315755   7.105  31.873   9.536
 1053POPC   PO415756   7.399  32.497   9.411
 1053POPC   GL115757   7.337  32.206   9.135
 1053POPC   GL215758   7.011  32.108   9.119
 1053POPC   C1A15759   7.576  32.165   8.778
 1053POPC   D2A15760   7.690  32.463   8.485
 1053POPC   C3A15761   7.671  32.288   8.096
 1053POPC   C4A15762   7.499  32.233   7.691
 1053POPC   C1B15763   7.109  31.944   8.745
 1053POPC   C2B15764   7.172  32.319   8.480
 1053POPC   C3B15765   7.148  32.320   8.057
 1053POPC   C4B15766   7.143  31.897   7.841
 1054POPC   NC315767  20.848  20.245   9.404
 1054POPC   PO415768  20.331  19.643   9.464
 1054POPC   GL115769  20.546  19.760   9.126
 1054POPC   GL215770  20.422  20.086   9.076
 1054POPC   C1A15771  20.425  19.695   8.702
 1054POPC   D2A15772  20.598  19.512   8.336
 1054POPC   C3A15773  20.580  19.755   7.994
 1054POPC   C4A15774  20.497  19.695   7.598
 1054POPC   C1B15775  20.772  20.085   8.776
 1054POPC   C2B15776  20.858  19.961   8.373
 1054POPC   C3B15777  21.179  19.893   8.045
 1054POPC   C4B15778  21.002  19.775   7.652
 1055POPC   NC315779   0.079  40.640   9.539
 1055POPC   PO415780   0.639  41.001   9.526
 1055POPC   GL115781   0.387  40.912   9.198
 1055POPC   GL215782   0.502  40.578   9.189
 1055POPC   C1A15783   0.471  41.061   8.793
 1055POPC   D2A15784   0.590  40.896   8.413
 1055POPC   C3A15785   0.406  40.940   8.077
 1055POPC   C4A15786   0.176  41.018   7.756
 1055POPC   C1B15787   0.308  40.573   8.784
 1055POPC   C2B15788   0.128  40.619   8.367
 1055POPC   C3B15789   0.181  40.504   7.932
 1055POPC   C4B15790   0.493  40.640   7.649
 1056POPC   NC315791  26.743  11.268   9.608
 1056POPC   PO415792  27.318  11.417   9.330
 1056POPC   GL115793  26.985  11.186   9.171
 1056POPC   GL215794  26.800  11.451   9.115
 1056POPC   C1A15795  26.876  11.087   8.755
 1056POPC   D2A15796  26.797  11.331   8.395
 1056POPC   C3A15797  27.039  11.189   8.063
 1056POPC   C4A15798  26.988  10.969   7.724
 1056POPC   C1B15799  26.535  11.615   8.779
 1056POPC   C2B15800  26.331  11.622   8.388
 1056POPC   C3B15801  26.502  11.532   8.010
 1056POPC   C4B15802  26.812  11.462   7.713
 1057POPC   NC315803  19.845  24.843   9.520
 1057POPC   PO415804  19.383  24.341   9.525
 1057POPC   GL115805  19.615  24.407   9.113
 1057POPC   GL215806  19.916  24.606   9.072
 1057POPC   C1A15807  19.826  24.213   8.769
 1057POPC   D2A15808  19.932  24.126   8.360
 1057POPC   C3A15809  19.663  24.303   8.073
 1057POPC   C4A15810  19.860  24.397   7.707
 1057POPC   C1B15811  20.117  24.606   8.649
 1057POPC   C2B15812  19.989  24.682   8.214
 1057POPC   C3B15813  20.184  24.775   7.767
 1057POPC   C4B15814  20.163  24.553   7.327
 1058POPC   NC315815  11.863  36.190   9.441
 1058POPC   PO415816  12.348  35.778   9.471
 1058POPC   GL115817  12.184  35.941   9.103
 1058POPC   GL215818  12.250  36.280   9.070
 1058POPC   C1A15819  12.278  35.944   8.682
 1058POPC   D2A15820  12.118  36.142   8.324
 1058POPC   C3A15821  12.342  36.227   7.981
 1058POPC   C4A15822  12.174  35.862   7.801
 1058POPC   C1B15823  11.935  36.356   8.783
 1058POPC   C2B15824  11.835  36.539   8.413
 1058POPC   C3B15825  11.756  36.408   8.043
 1058POPC   C4B15826  11.930  36.292   7.667
 1059POPC   NC315827  12.763  16.150   9.604
 1059POPC   PO415828  12.812  15.464   9.549
 1059POPC   GL115829  12.896  15.774   9.283
 1059POPC   GL215830  13.090  15.563   9.100
 1059POPC   C1A15831  12.773  16.109   8.957
 1059POPC   D2A15832  12.494  16.210   8.608
 1059POPC   C3A15833  12.600  15.992   8.228
 1059POPC   C4A15834  12.724  16.129   7.827
 1059POPC   C1B15835  12.713  15.605   8.844
 1059POPC   C2B15836  12.698  15.492   8.434
 1059POPC   C3B15837  12.605  15.484   8.016
 1059POPC   C4B15838  12.705  15.572   7.595
 1060POPC   NC315839  36.045   2.506   9.665
 1060POPC   PO415840  35.795   3.094   9.586
 1060POPC   GL115841  36.070   2.983   9.217
 1060POPC   GL215842  36.162   2.647   9.108
 1060POPC   C1A15843  36.070   3.059   8.766
 1060POPC   D2A15844  35.993   2.867   8.380
 1060POPC   C3A15845  36.146   3.057   7.996
 1060POPC   C4A15846  36.233   2.789   7.617
 1060POPC   C1B15847  35.842   2.545   8.788
 1060POPC   C2B15848  35.576   2.566   8.425
 1060POPC   C3B15849  35.676   2.507   8.010
 1060POPC   C4B15850  36.039   2.346   7.775
 1061POPC   NC315851   3.166  33.017   9.523
 1061POPC   PO415852   2.518  33.179   9.579
 1061POPC   GL115853   2.698  33.093   9.166
 1061POPC   GL215854   2.889  32.798   9.125
 1061POPC   C1A15855   2.712  33.229   8.735
 1061POPC   D2A15856   2.493  33.361   8.347
 1061POPC   C3A15857   2.724  33.093   8.048
 1061POPC   C4A15858   3.066  33.038   7.762
 1061POPC   C1B15859   2.947  32.609   8.703
 1061POPC   C2B15860   2.957  32.675   8.260
 1061POPC   C3B15861   3.125  32.536   7.905
 1061POPC   C4B15862   3.068  32.523   7.477
 1062POPC   NC315863   1.079   8.667   9.570
 1062POPC   PO415864   1.329   9.301   9.449
 1062POPC   GL115865   1.409   8.931   9.216
 1062POPC   GL215866   1.082   8.842   9.094
 1062POPC   C1A15867   1.550   8.878   8.804
 1062POPC   D2A15868   1.299   8.892   8.463
 1062POPC   C3A15869   1.462   8.934   8.091
 1062POPC   C4A15870   1.364   8.736   7.728
 1062POPC   C1B15871   1.080   9.181   8.813
 1062POPC   C2B15872   0.972   9.261   8.395
 1062POPC   C3B15873   0.962   8.999   8.061
 1062POPC   C4B15874   1.066   9.132   7.665
 1063POPC   NC315875  40.329  44.135   9.425
 1063POPC   PO415876  39.700  43.831   9.446
 1063POPC   GL115877  39.964  43.924   9.150
 1063POPC   GL215878  39.903  44.235   9.057
 1063POPC   C1A15879  39.967  43.817   8.751
 1063POPC   D2A15880  39.853  43.775   8.355
 1063POPC   C3A15881  40.222  43.715   8.120
 1063POPC   C4A15882  39.974  43.566   7.797
 1063POPC   C1B15883  40.087  44.324   8.670
 1063POPC   C2B15884  39.891  44.260   8.281
 1063POPC   C3B15885  39.982  44.078   7.879
 1063POPC   C4B15886  40.310  44.232   7.635
 1064POPC   NC315887  11.433  26.933   9.666
 1064POPC   PO415888  10.844  27.119   9.413
 1064POPC   GL115889  11.244  27.001   9.200
 1064POPC   GL215890  11.572  26.792   9.193
 1064POPC   C1A15891  11.311  27.034   8.779
 1064POPC   D2A15892  11.100  26.752   8.503
 1064POPC   C3A15893  11.140  26.751   8.046
 1064POPC   C4A15894  11.075  27.037   7.724
 1064POPC   C1B15895  11.569  26.567   8.769
 1064POPC   C2B15896  11.718  26.492   8.322
 1064POPC   C3B15897  11.529  26.471   7.863
 1064POPC   C4B15898  11.431  26.276   7.437
 1065POPC   NC315899   5.781  41.506   9.565
 1065POPC   PO415900   6.437  41.605   9.432
 1065POPC   GL115901   6.054  41.480   9.134
 1065POPC   GL215902   5.704  41.663   9.099
 1065POPC   C1A15903   5.886  41.287   8.781
 1065POPC   D2A15904   6.089  41.409   8.429
 1065POPC   C3A15905   5.945  41.589   8.047
 1065POPC   C4A15906   5.940  41.444   7.684
 1065POPC   C1B15907   5.814  41.790   8.701
 1065POPC   C2B15908   5.838  41.999   8.325
 1065POPC   C3B15909   5.523  41.900   8.032
 1065POPC   C4B15910   5.532  41.774   7.583
 1066POPC   NC315911   8.392  10.586   9.483
 1066POPC   PO415912   7.970  10.077   9.558
 1066POPC   GL115913   8.234  10.192   9.190
 1066POPC   GL215914   8.128  10.539   9.048
 1066POPC   C1A15915   8.456  10.256   8.784
 1066POPC   D2A15916   8.220  10.376   8.420
 1066POPC   C3A15917   8.395  10.243   8.050
 1066POPC   C4A15918   8.365  10.450   7.671
 1066POPC   C1B15919   8.147  10.830   8.660
 1066POPC   C2B15920   8.114  10.826   8.198
 1066POPC   C3B15921   7.935  10.791   7.802
 1066POPC   C4B15922   7.927  10.876   7.379
 1067POPC   NC315923  26.791  15.564   9.556
 1067POPC   PO415924  26.926  14.841   9.536
 1067POPC   GL115925  26.882  15.204   9.208
 1067POPC   GL215926  26.535  15.407   9.160
 1067POPC   C1A15927  26.839  15.266   8.773
 1067POPC   D2A15928  26.812  15.076   8.372
 1067POPC   C3A15929  27.106  15.071   8.023
 1067POPC   C4A15930  26.788  14.924   7.748
 1067POPC   C1B15931  26.403  15.587   8.768
 1067POPC   C2B15932  26.657  15.597   8.413
 1067POPC   C3B15933  26.732  15.445   8.019
 1067POPC   C4B15934  26.746  15.425   7.600
 1068POPC   NC315935   0.644  15.354   9.333
 1068POPC   PO415936   0.071  15.025   9.413
 1068POPC   GL115937   0.218  15.176   9.076
 1068POPC   GL215938   0.222  15.524   9.124
 1068POPC   C1A15939   0.257  15.068   8.676
 1068POPC   D2A15940   0.554  15.127   8.350
 1068POPC   C3A15941   0.500  14.997   7.921
 1068POPC   C4A15942   0.775  15.239   7.705
 1068POPC   C1B15943   0.428  15.550   8.730
 1068POPC   C2B15944   0.202  15.504   8.367
 1068POPC   C3B15945   0.419  15.487   7.999
 1068POPC   C4B15946   0.362  15.504   7.562
 1069POPC   NC315947  30.678   3.492   9.474
 1069POPC   PO415948  31.206   3.169   9.204
 1069POPC   GL115949  30.860   3.406   9.005
 1069POPC   GL215950  30.483   3.308   9.048
 1069POPC   C1A15951  30.916   3.728   8.710
 1069POPC   D2A15952  31.145   3.749   8.326
 1069POPC   C3A15953  30.999   3.556   7.999
 1069POPC   C4A15954  30.673   3.635   7.770
 1069POPC   C1B15955  30.452   3.500   8.671
 1069POPC   C2B15956  30.569   3.664   8.308
 1069POPC   C3B15957  30.303   3.441   8.030
 1069POPC   C4B15958  30.196   3.574   7.640
 1070POPC   NC315959  28.802  35.550   9.342
 1070POPC   PO415960  29.445  35.313   9.411
 1070POPC   GL115961  29.261  35.599   9.097
 1070POPC   GL215962  29.536  35.785   8.933
 1070POPC   C1A15963  29.075  35.543   8.702
 1070POPC   D2A15964  29.129  35.700   8.273
 1070POPC   C3A15965  28.895  35.538   7.916
 1070POPC   C4A15966  28.932  35.190   7.629
 1070POPC   C1B15967  29.638  35.441   8.780
 1070POPC   C2B15968  29.474  35.327   8.437
 1070POPC   C3B15969  29.575  35.512   8.094
 1070POPC   C4B15970  29.403  35.353   7.759
 1071POPC   NC315971   0.060  37.851   9.247
 1071POPC   PO415972   0.607  37.521   9.534
 1071POPC   GL115973   0.716  37.716   9.162
 1071POPC   GL215974   0.412  37.562   9.033
 1071POPC   C1A15975   0.687  37.821   8.715
 1071POPC   D2A15976   0.607  37.792   8.292
 1071POPC   C3A15977   0.712  37.461   8.060
 1071POPC   C4A15978   0.518  37.464   7.694
 1071POPC   C1B15979   0.219  37.616   8.603
 1071POPC   C2B15980   0.173  37.539   8.150
 1071POPC   C3B15981   0.016  37.504   7.725
 1071POPC   C4B15982   0.066  37.272   7.333
 1072POPC   NC315983   5.554  38.270   9.427
 1072POPC   PO415984   5.153  38.766   9.649
 1072POPC   GL115985   5.128  38.635   9.234
 1072POPC   GL215986   5.431  38.771   9.148
 1072POPC   C1A15987   4.932  38.457   8.849
 1072POPC   D2A15988   4.674  38.411   8.503
 1072POPC   C3A15989   4.816  38.664   8.168
 1072POPC   C4A15990   4.869  38.499   7.764
 1072POPC   C1B15991   5.442  38.479   8.812
 1072POPC   C2B15992   5.460  38.358   8.379
 1072POPC   C3B15993   5.328  38.576   8.020
 1072POPC   C4B15994   5.331  38.651   7.583
 1073POPC   NC315995  25.489  24.637   9.575
 1073POPC   PO415996  25.575  23.954   9.471
 1073POPC   GL115997  25.406  24.135   9.086
 1073POPC   GL215998  25.344  24.501   9.104
 1073POPC   C1A15999  25.559  24.297   8.692
 1073POPC   D2A16000  25.515  24.426   8.287
 1073POPC   C3A16001  25.485  24.186   7.961
 1073POPC   C4A16002  25.243  24.249   7.613
 1073POPC   C1B16003  25.240  24.723   8.697
 1073POPC   C2B16004  25.253  24.848   8.260
 1073POPC   C3B16005  25.343  24.727   7.877
 1073POPC   C4B16006  25.275  24.963   7.534
 1074POPC   NC316007   4.969  35.862   9.462
 1074POPC   PO416008   4.749  36.539   9.320
 1074POPC   GL116009   4.832  36.162   9.029
 1074POPC   GL216010   5.148  35.945   9.002
 1074POPC   C1A16011   4.949  36.217   8.576
 1074POPC   D2A16012   5.045  35.964   8.208
 1074POPC   C3A16013   4.997  36.127   7.804
 1074POPC   C4A16014   5.260  36.394   7.564
 1074POPC   C1B16015   5.362  35.911   8.628
 1074POPC   C2B16016   5.530  35.828   8.235
 1074POPC   C3B16017   5.499  36.041   7.846
 1074POPC   C4B16018   5.307  35.914   7.414
 1075POPC   NC316019  17.331  43.164   9.534
 1075POPC   PO416020  17.903  43.487   9.485
 1075POPC   GL116021  17.686  43.203   9.169
 1075POPC   GL216022  17.545  43.425   8.986
 1075POPC   C1A16023  17.438  42.950   8.838
 1075POPC   D2A16024  17.263  43.017   8.419
 1075POPC   C3A16025  17.636  43.042   8.186
 1075POPC   C4A16026  17.826  42.883   7.851
 1075POPC   C1B16027  17.573  43.419   8.568
 1075POPC   C2B16028  17.432  43.503   8.166
 1075POPC   C3B16029  17.491  43.307   7.759
 1075POPC   C4B16030  17.433  43.473   7.326
 1076POPC   NC316031  28.512  12.526   9.385
 1076POPC   PO416032  28.013  12.914   9.443
 1076POPC   GL116033  28.001  12.746   9.031
 1076POPC   GL216034  28.335  12.894   8.982
 1076POPC   C1A16035  28.026  12.746   8.555
 1076POPC   D2A16036  28.233  13.024   8.303
 1076POPC   C3A16037  28.261  12.956   7.878
 1076POPC   C4A16038  28.512  13.286   7.731
 1076POPC   C1B16039  28.504  12.616   8.667
 1076POPC   C2B16040  28.503  12.528   8.228
 1076POPC   C3B16041  28.721  12.725   7.889
 1076POPC   C4B16042  28.601  12.829   7.470
 1077POPC   NC316043   4.220  34.522   9.624
 1077POPC   PO416044   4.788  34.514   9.325
 1077POPC   GL116045   4.402  34.352   9.163
 1077POPC   GL216046   4.226  34.673   9.136
 1077POPC   C1A16047   4.319  34.351   8.728
 1077POPC   D2A16048   4.455  34.692   8.469
 1077POPC   C3A16049   4.310  34.671   8.058
 1077POPC   C4A16050   4.171  34.351   7.763
 1077POPC   C1B16051   4.138  34.946   8.784
 1077POPC   C2B16052   3.877  34.936   8.417
 1077POPC   C3B16053   3.961  35.082   8.003
 1077POPC   C4B16054   4.209  34.951   7.640
 1078POPC   NC316055  39.822  31.791   9.544
 1078POPC   PO416056  40.230  31.192   9.567
 1078POPC   GL116057  40.115  31.467   9.211
 1078POPC   GL216058  39.807  31.521   9.115
 1078POPC   C1A16059  40.163  31.718   8.795
 1078POPC   D2A16060  40.095  31.867   8.370
 1078POPC   C3A16061  40.209  31.590   8.044
 1078POPC   C4A16062  39.941  31.289   7.833
 1078POPC   C1B16063  39.847  31.312   8.726
 1078POPC   C2B16064  39.765  31.459   8.316
 1078POPC   C3B16065  39.726  31.733   7.949
 1078POPC   C4B16066  39.600  31.598   7.500
 1079POPC   NC316067  10.957  44.532   9.473
 1079POPC   PO416068  10.458   0.012   9.357
 1079POPC   GL116069  10.503  44.597   9.231
 1079POPC   GL216070  10.192  44.458   9.305
 1079POPC   C1A16071  10.720  44.457   8.860
 1079POPC   D2A16072  10.906  44.597   8.505
 1079POPC   C3A16073  10.708  44.503   8.135
 1079POPC   C4A16074  10.652  44.636   7.748
 1079POPC   C1B16075  10.222  44.352   8.876
 1079POPC   C2B16076  10.350  44.317   8.446
 1079POPC   C3B16077  10.172  44.471   8.046
 1079POPC   C4B16078  10.181  44.505   7.591
 1080POPC   NC316079  35.628  33.070   9.519
 1080POPC   PO416080  36.275  33.183   9.616
 1080POPC   GL116081  36.113  33.054   9.198
 1080POPC   GL216082  36.216  32.706   9.142
 1080POPC   C1A16083  36.072  33.180   8.738
 1080POPC   D2A16084  35.901  33.337   8.309
 1080POPC   C3A16085  36.089  33.398   7.896
 1080POPC   C4A16086  36.302  33.138   7.575
 1080POPC   C1B16087  35.912  32.686   8.786
 1080POPC   C2B16088  35.812  32.842   8.361
 1080POPC   C3B16089  36.045  32.893   7.987
 1080POPC   C4B16090  36.036  32.693   7.607
 1081POPC   NC316091  44.441  39.996   9.524
 1081POPC   PO416092  44.505  39.522   9.079
 1081POPC   GL116093  44.582  39.973   9.020
 1081POPC   GL216094  44.501  40.314   9.150
 1081POPC   C1A16095  44.403  40.030   8.636
 1081POPC   D2A16096  44.663  39.785   8.336
 1081POPC   C3A16097  44.705  39.945   7.937
 1081POPC   C4A16098  44.480  39.739   7.595
 1081POPC   C1B16099  44.706  40.431   8.776
 1081POPC   C2B16100  44.752  40.291   8.363
 1081POPC   C3B16101  44.677  40.474   8.006
 1081POPC   C4B16102  44.775  40.333   7.599
 1082POPC   NC316103  32.662   5.988   9.697
 1082POPC   PO416104  33.186   5.667   9.437
 1082POPC   GL116105  33.101   5.926   9.088
 1082POPC   GL216106  32.911   5.703   8.842
 1082POPC   C1A16107  33.273   6.072   8.736
 1082POPC   D2A16108  33.385   5.844   8.385
 1082POPC   C3A16109  33.223   6.056   8.037
 1082POPC   C4A16110  33.451   6.137   7.701
 1082POPC   C1B16111  33.277   5.489   8.790
 1082POPC   C2B16112  33.133   5.377   8.433
 1082POPC   C3B16113  33.003   5.596   8.107
 1082POPC   C4B16114  33.304   5.614   7.780
 1083POPC   NC316115  20.550  28.681   9.477
 1083POPC   PO416116  21.027  29.117   9.470
 1083POPC   GL116117  20.704  29.150   9.141
 1083POPC   GL216118  20.702  28.828   9.009
 1083POPC   C1A16119  20.787  29.218   8.670
 1083POPC   D2A16120  20.731  29.092   8.248
 1083POPC   C3A16121  20.463  29.216   7.866
 1083POPC   C4A16122  20.681  29.094   7.475
 1083POPC   C1B16123  20.353  28.945   8.724
 1083POPC   C2B16124  20.279  28.859   8.283
 1083POPC   C3B16125  20.519  28.726   7.917
 1083POPC   C4B16126  20.359  28.624   7.536
 1084POPC   NC316127   0.289  14.668   9.588
 1084POPC   PO416128   0.453  14.110   9.281
 1084POPC   GL116129   0.530  14.349   8.985
 1084POPC   GL216130   0.456  14.698   9.089
 1084POPC   C1A16131   0.427  14.281   8.586
 1084POPC   D2A16132   0.464  14.108   8.208
 1084POPC   C3A16133   0.437  14.266   7.842
 1084POPC   C4A16134   0.628  14.244   7.490
 1084POPC   C1B16135   0.642  14.741   8.681
 1084POPC   C2B16136   0.558  14.623   8.249
 1084POPC   C3B16137   0.828  14.573   7.929
 1084POPC   C4B16138   0.774  14.745   7.580
 1085POPC   NC316139   8.632  44.054   9.386
 1085POPC   PO416140   8.773  44.686   9.562
 1085POPC   GL116141   8.832  44.480   9.156
 1085POPC   GL216142   9.050  44.173   9.076
 1085POPC   C1A16143   9.040  44.627   8.774
 1085POPC   D2A16144   8.953  44.961   8.497
 1085POPC   C3A16145   8.914  44.959   8.072
 1085POPC   C4A16146   8.955  44.812   7.656
 1085POPC   C1B16147   8.747  44.218   8.730
 1085POPC   C2B16148   8.778  44.479   8.344
 1085POPC   C3B16149   8.877  44.378   7.946
 1085POPC   C4B16150   8.693  44.242   7.591
 1086POPC   NC316151  27.269  14.740   9.860
 1086POPC   PO416152  27.828  14.637   9.505
 1086POPC   GL116153  27.748  14.506   9.113
 1086POPC   GL216154  27.483  14.265   9.094
 1086POPC   C1A16155  27.895  14.423   8.732
 1086POPC   D2A16156  27.886  14.517   8.329
 1086POPC   C3A16157  28.043  14.210   8.093
 1086POPC   C4A16158  27.920  14.144   7.676
 1086POPC   C1B16159  27.365  14.377   8.730
 1086POPC   C2B16160  27.376  14.492   8.335
 1086POPC   C3B16161  27.507  14.293   7.957
 1086POPC   C4B16162  27.360  14.215   7.527
 1087POPC   NC316163   8.354   9.728   9.483
 1087POPC   PO416164   7.934   9.270   9.215
 1087POPC   GL116165   8.090   9.603   9.072
 1087POPC   GL216166   7.846   9.822   9.146
 1087POPC   C1A16167   8.410   9.721   8.810
 1087POPC   D2A16168   8.341   9.887   8.420
 1087POPC   C3A16169   8.526   9.736   8.053
 1087POPC   C4A16170   8.392   9.495   7.727
 1087POPC   C1B16171   7.978  10.019   8.790
 1087POPC   C2B16172   7.826  10.015   8.399
 1087POPC   C3B16173   7.967   9.810   8.045
 1087POPC   C4B16174   8.163   9.957   7.677
 1088POPC   NC316175  30.882  20.660   9.746
 1088POPC   PO416176  30.423  20.344   9.435
 1088POPC   GL116177  30.771  20.549   9.239
 1088POPC   GL216178  30.672  20.877   9.179
 1088POPC   C1A16179  30.871  20.493   8.822
 1088POPC   D2A16180  30.698  20.676   8.450
 1088POPC   C3A16181  30.787  20.479   8.085
 1088POPC   C4A16182  30.865  20.655   7.695
 1088POPC   C1B16183  30.865  21.002   8.817
 1088POPC   C2B16184  31.169  20.847   8.539
 1088POPC   C3B16185  31.139  20.846   8.098
 1088POPC   C4B16186  31.020  21.122   7.721
 1089POPC   NC316187  43.137  42.784   9.357
 1089POPC   PO416188  42.799  42.109   9.485
 1089POPC   GL116189  43.111  42.215   9.200
 1089POPC   GL216190  43.106  41.896   9.092
 1089POPC   C1A16191  43.190  42.383   8.769
 1089POPC   D2A16192  43.391  42.675   8.446
 1089POPC   C3A16193  43.295  42.535   8.025
 1089POPC   C4A16194  42.940  42.487   7.791
 1089POPC   C1B16195  43.125  41.857   8.679
 1089POPC   C2B16196  43.306  42.090   8.334
 1089POPC   C3B16197  43.582  42.121   7.994
 1089POPC   C4B16198  43.496  42.241   7.564
 1090POPC   NC316199  12.659   7.580   9.309
 1090POPC   PO416200  12.841   7.026   9.723
 1090POPC   GL116201  13.012   7.226   9.220
 1090POPC   GL216202  13.247   7.455   9.109
 1090POPC   C1A16203  12.972   7.208   8.730
 1090POPC   D2A16204  12.936   7.389   8.264
 1090POPC   C3A16205  12.736   7.160   7.875
 1090POPC   C4A16206  12.692   7.127   7.395
 1090POPC   C1B16207  13.219   7.671   8.691
 1090POPC   C2B16208  13.435   7.763   8.348
 1090POPC   C3B16209  13.191   7.754   8.007
 1090POPC   C4B16210  12.948   7.584   7.679
 1091POPC   NC316211  12.540  36.925   9.481
 1091POPC   PO416212  12.989  36.482   9.314
 1091POPC   GL116213  12.945  36.889   9.113
 1091POPC   GL216214  12.652  37.061   9.008
 1091POPC   C1A16215  13.075  37.030   8.712
 1091POPC   D2A16216  12.823  36.975   8.365
 1091POPC   C3A16217  13.069  36.931   7.999
 1091POPC   C4A16218  12.893  36.816   7.602
 1091POPC   C1B16219  12.342  37.246   8.745
 1091POPC   C2B16220  12.401  37.269   8.299
 1091POPC   C3B16221  12.601  37.107   7.897
 1091POPC   C4B16222  12.605  37.320   7.464
 1092POPC   NC316223  38.167  10.788   9.323
 1092POPC   PO416224  38.817  10.546   9.498
 1092POPC   GL116225  38.547  10.510   9.141
 1092POPC   GL216226  38.657  10.893   9.137
 1092POPC   C1A16227  38.428  10.304   8.721
 1092POPC   D2A16228  38.729  10.140   8.378
 1092POPC   C3A16229  38.731  10.323   7.931
 1092POPC   C4A16230  38.647  10.279   7.464
 1092POPC   C1B16231  38.532  10.831   8.728
 1092POPC   C2B16232  38.530  10.653   8.327
 1092POPC   C3B16233  38.260  10.712   7.989
 1092POPC   C4B16234  38.336  10.657   7.576
 1093POPC   NC316235  23.444  42.924   9.373
 1093POPC   PO416236  24.077  43.170   9.278
 1093POPC   GL116237  23.762  43.122   9.021
 1093POPC   GL216238  23.798  42.766   9.020
 1093POPC   C1A16239  23.582  43.349   8.684
 1093POPC   D2A16240  23.761  43.581   8.351
 1093POPC   C3A16241  23.741  43.331   8.008
 1093POPC   C4A16242  23.661  43.167   7.601
 1093POPC   C1B16243  23.507  42.818   8.686
 1093POPC   C2B16244  23.545  42.928   8.251
 1093POPC   C3B16245  23.410  42.783   7.820
 1093POPC   C4B16246  23.390  42.792   7.346
 1094POPC   NC316247  37.333  13.931   9.401
 1094POPC   PO416248  36.722  13.787   9.500
 1094POPC   GL116249  36.775  13.661   9.065
 1094POPC   GL216250  37.121  13.621   9.036
 1094POPC   C1A16251  36.554  13.696   8.651
 1094POPC   D2A16252  36.319  13.509   8.269
 1094POPC   C3A16253  36.626  13.579   7.950
 1094POPC   C4A16254  36.654  14.025   7.804
 1094POPC   C1B16255  37.133  13.496   8.609
 1094POPC   C2B16256  37.219  13.772   8.270
 1094POPC   C3B16257  37.149  13.963   7.911
 1094POPC   C4B16258  37.050  13.649   7.660
 1095POPC   NC316259  16.487  23.905   9.921
 1095POPC   PO416260  16.775  24.409   9.554
 1095POPC   GL116261  16.849  24.545   9.142
 1095POPC   GL216262  16.507  24.482   9.098
 1095POPC   C1A16263  16.819  24.356   8.722
 1095POPC   D2A16264  16.673  24.393   8.293
 1095POPC   C3A16265  17.002  24.274   7.998
 1095POPC   C4A16266  17.093  24.472   7.586
 1095POPC   C1B16267  16.452  24.849   8.843
 1095POPC   C2B16268  16.338  24.934   8.422
 1095POPC   C3B16269  16.296  24.653   8.053
 1095POPC   C4B16270  16.603  24.532   7.764
 1096POPC   NC316271   4.215  40.214   9.443
 1096POPC   PO416272   4.472  39.622   9.438
 1096POPC   GL116273   4.261  39.822   9.106
 1096POPC   GL216274   4.526  40.066   9.060
 1096POPC   C1A16275   4.225  39.845   8.660
 1096POPC   D2A16276   4.351  39.710   8.255
 1096POPC   C3A16277   4.256  39.989   7.887
 1096POPC   C4A16278   3.975  39.870   7.525
 1096POPC   C1B16279   4.772  40.240   8.742
 1096POPC   C2B16280   4.677  40.126   8.341
 1096POPC   C3B16281   4.715  40.301   7.951
 1096POPC   C4B16282   4.600  40.161   7.552
 1097POPC   NC316283  30.528  37.461   9.708
 1097POPC   PO416284  30.753  38.002   9.485
 1097POPC   GL116285  30.485  37.786   9.206
 1097POPC   GL216286  30.673  37.465   9.193
 1097POPC   C1A16287  30.490  37.841   8.751
 1097POPC   D2A16288  30.829  37.787   8.404
 1097POPC   C3A16289  30.833  38.025   8.007
 1097POPC   C4A16290  30.520  37.985   7.704
 1097POPC   C1B16291  30.606  37.331   8.745
 1097POPC   C2B16292  30.723  37.239   8.295
 1097POPC   C3B16293  30.806  37.496   7.917
 1097POPC   C4B16294  30.941  37.426   7.487
 1098POPC   NC316295  17.474  20.220   9.514
 1098POPC   PO416296  17.944  19.813   9.530
 1098POPC   GL116297  17.735  19.765   9.143
 1098POPC   GL216298  17.517  20.067   9.011
 1098POPC   C1A16299  17.737  19.596   8.734
 1098POPC   D2A16300  17.512  19.773   8.390
 1098POPC   C3A16301  17.413  19.526   8.028
 1098POPC   C4A16302  17.749  19.678   7.772
 1098POPC   C1B16303  17.223  20.183   8.661
 1098POPC   C2B16304  17.188  20.137   8.198
 1098POPC   C3B16305  17.303  19.965   7.781
 1098POPC   C4B16306  17.028  19.973   7.359
 1099POPC   NC316307  15.045   0.095   9.397
 1099POPC   PO416308  15.316  44.540   9.704
 1099POPC   GL116309  15.363  44.636   9.206
 1099POPC   GL216310  15.471  44.955   9.116
 1099POPC   C1A16311  15.187  44.608   8.755
 1099POPC   D2A16312  14.885  44.495   8.461
 1099POPC   C3A16313  15.019  44.656   8.068
 1099POPC   C4A16314  15.116  44.440   7.743
 1099POPC   C1B16315  15.676  44.702   8.768
 1099POPC   C2B16316  15.475  44.761   8.351
 1099POPC   C3B16317  15.504  44.772   7.899
 1099POPC   C4B16318  15.565  44.556   7.493
 1100POPC   NC316319  35.194   1.044   9.268
 1100POPC   PO416320  35.578   1.569   9.452
 1100POPC   GL116321  35.467   1.389   9.045
 1100POPC   GL216322  35.141   1.410   8.934
 1100POPC   C1A16323  35.521   1.079   8.696
 1100POPC   D2A16324  35.337   0.954   8.289
 1100POPC   C3A16325  35.580   0.996   7.890
 1100POPC   C4A16326  35.472   0.931   7.443
 1100POPC   C1B16327  35.004   1.069   8.675
 1100POPC   C2B16328  34.804   0.921   8.380
 1100POPC   C3B16329  34.925   0.990   7.967
 1100POPC   C4B16330  35.169   1.272   7.716
 1101POPC   NC316331  15.230  26.753   9.492
 1101POPC   PO416332  15.694  27.265   9.386
 1101POPC   GL116333  15.414  27.026   9.087
 1101POPC   GL216334  15.058  27.095   9.082
 1101POPC   C1A16335  15.491  26.679   8.796
 1101POPC   D2A16336  15.316  26.579   8.394
 1101POPC   C3A16337  15.432  26.807   8.068
 1101POPC   C4A16338  15.247  26.602   7.776
 1101POPC   C1B16339  15.051  26.916   8.690
 1101POPC   C2B16340  14.831  26.960   8.331
 1101POPC   C3B16341  14.812  26.849   7.944
 1101POPC   C4B16342  15.117  27.113   7.787
 1102POPC   NC316343   0.725  17.851   9.948
 1102POPC   PO416344   0.589  17.315   9.534
 1102POPC   GL116345   0.323  17.356   9.185
 1102POPC   GL216346   0.335  17.716   9.113
 1102POPC   C1A16347   0.309  17.307   8.733
 1102POPC   D2A16348   0.336  17.546   8.340
 1102POPC   C3A16349   0.181  17.323   7.988
 1102POPC   C4A16350   0.368  17.235   7.610
 1102POPC   C1B16351   0.665  17.651   8.789
 1102POPC   C2B16352   0.825  17.367   8.483
 1102POPC   C3B16353   0.700  17.286   8.051
 1102POPC   C4B16354   0.620  17.666   7.808
 1103POPC   NC316355  25.506  33.303   9.289
 1103POPC   PO416356  24.944  32.997   9.539
 1103POPC   GL116357  25.060  32.872   9.090
 1103POPC   GL216358  25.307  33.012   8.933
 1103POPC   C1A16359  24.897  32.911   8.624
 1103POPC   D2A16360  25.186  32.895   8.241
 1103POPC   C3A16361  25.122  33.227   7.943
 1103POPC   C4A16362  24.919  33.243   7.534
 1103POPC   C1B16363  25.294  33.238   8.578
 1103POPC   C2B16364  25.588  33.310   8.267
 1103POPC   C3B16365  25.604  33.091   7.900
 1103POPC   C4B16366  25.416  33.250   7.517
 1104POPC   NC316367  33.458  31.143   9.476
 1104POPC   PO416368  32.832  31.076   9.340
 1104POPC   GL116369  33.104  31.394   9.166
 1104POPC   GL216370  32.910  31.708   9.054
 1104POPC   C1A16371  33.276  31.244   8.791
 1104POPC   D2A16372  32.971  31.169   8.481
 1104POPC   C3A16373  32.948  31.386   8.085
 1104POPC   C4A16374  32.926  31.229   7.657
 1104POPC   C1B16375  33.265  31.746   8.741
 1104POPC   C2B16376  33.271  31.859   8.312
 1104POPC   C3B16377  33.349  31.690   7.907
 1104POPC   C4B16378  32.961  31.731   7.702
 1105POPC   NC316379  39.858  39.585   9.410
 1105POPC   PO416380  40.222  38.979   9.455
 1105POPC   GL116381  40.053  39.012   9.070
 1105POPC   GL216382  39.721  39.158   9.102
 1105POPC   C1A16383  40.010  39.109   8.644
 1105POPC   D2A16384  40.163  39.354   8.324
 1105POPC   C3A16385  39.920  39.160   8.002
 1105POPC   C4A16386  39.854  39.178   7.563
 1105POPC   C1B16387  39.631  39.422   8.727
 1105POPC   C2B16388  39.705  39.582   8.284
 1105POPC   C3B16389  39.651  39.572   7.811
 1105POPC   C4B16390  39.688  39.601   7.287
 1106POPC   NC316391  26.975  21.698   9.518
 1106POPC   PO416392  26.547  21.223   9.788
 1106POPC   GL116393  26.717  21.273   9.338
 1106POPC   GL216394  27.080  21.244   9.247
 1106POPC   C1A16395  26.697  21.224   8.882
 1106POPC   D2A16396  27.013  21.193   8.546
 1106POPC   C3A16397  26.827  21.160   8.151
 1106POPC   C4A16398  27.077  21.349   7.824
 1106POPC   C1B16399  27.070  21.572   8.906
 1106POPC   C2B16400  26.792  21.664   8.575
 1106POPC   C3B16401  26.763  21.674   8.133
 1106POPC   C4B16402  26.946  21.823   7.739
 1107POPC   NC316403  13.454  44.220   9.606
 1107POPC   PO416404  13.734  43.558   9.567
 1107POPC   GL116405  13.731  43.887   9.234
 1107POPC   GL216406  13.373  43.950   9.183
 1107POPC   C1A16407  13.790  43.866   8.762
 1107POPC   D2A16408  13.798  43.541   8.413
 1107POPC   C3A16409  13.751  43.724   7.988
 1107POPC   C4A16410  13.868  43.949   7.611
 1107POPC   C1B16411  13.285  43.756   8.790
 1107POPC   C2B16412  13.438  43.897   8.366
 1107POPC   C3B16413  13.230  44.131   8.028
 1107POPC   C4B16414  13.376  44.081   7.632
 1108POPC   NC316415  44.756  29.103   9.661
 1108POPC   PO416416  44.822  29.761   9.636
 1108POPC   GL116417  44.860  29.303   9.233
 1108POPC   GL216418  44.621  28.984   9.178
 1108POPC   C1A16419  44.989  29.009   8.863
 1108POPC   D2A16420  44.724  28.776   8.573
 1108POPC   C3A16421  44.811  28.807   8.120
 1108POPC   C4A16422  44.620  28.902   7.707
 1108POPC   C1B16423  44.542  29.244   8.802
 1108POPC   C2B16424  44.377  29.402   8.413
 1108POPC   C3B16425  44.439  29.244   8.039
 1108POPC   C4B16426  44.539  29.458   7.651
 1109POPC   NC316427  24.607  22.327   9.568
 1109POPC   PO416428  25.209  22.057   9.538
 1109POPC   GL116429  25.341  22.209   9.148
 1109POPC   GL216430  25.587  22.488   9.217
 1109POPC   C1A16431  25.192  22.400   8.755
 1109POPC   D2A16432  25.066  22.512   8.317
 1109POPC   C3A16433  25.252  22.279   7.978
 1109POPC   C4A16434  25.345  21.890   7.747
 1109POPC   C1B16435  25.743  22.321   8.817
 1109POPC   C2B16436  25.576  22.285   8.401
 1109POPC   C3B16437  25.734  22.139   7.991
 1109POPC   C4B16438  25.731  22.348   7.619
 1110POPC   NC316439  10.651   1.310   9.437
 1110POPC   PO416440  10.153   1.000   9.381
 1110POPC   GL116441  10.324   1.185   9.048
 1110POPC   GL216442  10.669   1.256   8.925
 1110POPC   C1A16443  10.223   1.333   8.661
 1110POPC   D2A16444  10.403   1.078   8.370
 1110POPC   C3A16445  10.289   1.132   7.961
 1110POPC   C4A16446  10.659   1.166   7.737
 1110POPC   C1B16447  10.675   1.579   8.588
 1110POPC   C2B16448  10.613   1.510   8.150
 1110POPC   C3B16449  10.729   1.671   7.745
 1110POPC   C4B16450  10.728   1.450   7.299
 1111POPC   NC316451  23.534   3.107   9.695
 1111POPC   PO416452  23.829   2.557   9.529
 1111POPC   GL116453  23.713   2.611   9.122
 1111POPC   GL216454  23.671   2.980   9.198
 1111POPC   C1A16455  23.661   2.510   8.682
 1111POPC   D2A16456  23.640   2.774   8.305
 1111POPC   C3A16457  23.724   2.617   7.894
 1111POPC   C4A16458  23.639   2.583   7.416
 1111POPC   C1B16459  23.835   3.004   8.770
 1111POPC   C2B16460  23.754   3.266   8.394
 1111POPC   C3B16461  23.830   3.149   7.963
 1111POPC   C4B16462  23.578   3.025   7.652
 1112POPC   NC316463  35.635  25.635   9.472
 1112POPC   PO416464  35.324  26.240   9.404
 1112POPC   GL116465  35.238  25.960   9.090
 1112POPC   GL216466  35.586  25.880   9.044
 1112POPC   C1A16467  35.205  25.723   8.722
 1112POPC   D2A16468  35.092  25.734   8.291
 1112POPC   C3A16469  35.037  26.090   8.021
 1112POPC   C4A16470  35.277  26.282   7.679
 1112POPC   C1B16471  35.566  26.073   8.672
 1112POPC   C2B16472  35.481  26.133   8.262
 1112POPC   C3B16473  35.499  25.903   7.939
 1112POPC   C4B16474  35.818  25.982   7.713
 1113POPC   NC316475  11.389  12.369   9.425
 1113POPC   PO416476  11.342  13.023   9.560
 1113POPC   GL116477  11.574  12.814   9.226
 1113POPC   GL216478  11.272  12.809   9.043
 1113POPC   C1A16479  11.702  12.779   8.784
 1113POPC   D2A16480  11.408  12.902   8.477
 1113POPC   C3A16481  11.541  12.799   8.068
 1113POPC   C4A16482  11.262  12.653   7.767
 1113POPC   C1B16483  11.047  13.113   8.776
 1113POPC   C2B16484  10.898  13.083   8.357
 1113POPC   C3B16485  11.109  13.134   7.983
 1113POPC   C4B16486  11.035  13.094   7.549
 1114POPC   NC316487   1.829  15.528   9.369
 1114POPC   PO416488   2.380  15.593   9.728
 1114POPC   GL116489   2.296  15.365   9.246
 1114POPC   GL216490   2.031  15.071   9.163
 1114POPC   C1A16491   2.081  15.404   8.775
 1114POPC   D2A16492   1.970  15.124   8.430
 1114POPC   C3A16493   2.144  15.223   8.054
 1114POPC   C4A16494   2.044  15.480   7.725
 1114POPC   C1B16495   1.665  15.103   8.832
 1114POPC   C2B16496   1.481  15.287   8.445
 1114POPC   C3B16497   1.634  15.260   8.009
 1114POPC   C4B16498   1.670  14.947   7.697
 1115POPC   NC316499  43.691  31.333   9.559
 1115POPC   PO416500  44.027  31.914   9.475
 1115POPC   GL116501  43.751  31.656   9.133
 1115POPC   GL216502  43.751  31.273   9.073
 1115POPC   C1A16503  43.866  31.681   8.673
 1115POPC   D2A16504  44.206  31.746   8.349
 1115POPC   C3A16505  44.132  31.559   7.943
 1115POPC   C4A16506  43.713  31.614   7.836
 1115POPC   C1B16507  43.826  31.149   8.683
 1115POPC   C2B16508  43.802  31.290   8.254
 1115POPC   C3B16509  43.826  31.121   7.837
 1115POPC   C4B16510  44.258  31.112   7.648
 1116POPC   NC316511  32.019  40.367   9.535
 1116POPC   PO416512  32.161  39.779   9.809
 1116POPC   GL116513  32.272  39.992   9.270
 1116POPC   GL216514  32.313  40.306   9.086
 1116POPC   C1A16515  32.172  39.881   8.817
 1116POPC   D2A16516  32.130  39.952   8.362
 1116POPC   C3A16517  32.454  39.825   8.048
 1116POPC   C4A16518  32.296  39.724   7.624
 1116POPC   C1B16519  32.512  40.260   8.668
 1116POPC   C2B16520  32.401  40.379   8.223
 1116POPC   C3B16521  32.369  40.247   7.782
 1116POPC   C4B16522  32.651  40.375   7.474
 1117POPC   NC316523  16.603  13.975   9.520
 1117POPC   PO416524  17.059  13.594   9.558
 1117POPC   GL116525  16.810  13.642   9.171
 1117POPC   GL216526  16.627  13.953   9.016
 1117POPC   C1A16527  16.768  13.391   8.799
 1117POPC   D2A16528  16.952  13.412   8.384
 1117POPC   C3A16529  16.664  13.430   8.036
 1117POPC   C4A16530  16.625  13.520   7.577
 1117POPC   C1B16531  16.646  13.824   8.565
 1117POPC   C2B16532  16.351  13.837   8.210
 1117POPC   C3B16533  16.515  13.966   7.829
 1117POPC   C4B16534  16.938  14.094   7.664
 1118POPC   NC316535  35.359   2.980   9.522
 1118POPC   PO416536  35.069   2.420   9.583
 1118POPC   GL116537  35.282   2.574   9.219
 1118POPC   GL216538  35.660   2.646   9.260
 1118POPC   C1A16539  35.180   2.684   8.826
 1118POPC   D2A16540  35.065   2.528   8.442
 1118POPC   C3A16541  35.124   2.829   8.154
 1118POPC   C4A16542  35.281   2.756   7.770
 1118POPC   C1B16543  35.595   2.971   8.929
 1118POPC   C2B16544  35.428   3.040   8.523
 1118POPC   C3B16545  35.594   3.033   8.104
 1118POPC   C4B16546  35.752   2.913   7.711
 1119POPC   NC316547  13.570   3.932   9.442
 1119POPC   PO416548  13.646   3.198   9.493
 1119POPC   GL116549  13.530   3.485   9.188
 1119POPC   GL216550  13.886   3.549   9.114
 1119POPC   C1A16551  13.499   3.635   8.757
 1119POPC   D2A16552  13.304   3.500   8.372
 1119POPC   C3A16553  13.480   3.596   8.002
 1119POPC   C4A16554  13.370   3.378   7.627
 1119POPC   C1B16555  14.029   3.750   8.703
 1119POPC   C2B16556  13.883   3.768   8.302
 1119POPC   C3B16557  13.967   3.808   7.885
 1119POPC   C4B16558  13.656   3.801   7.571
 1120POPC   NC316559   3.084   4.350   9.705
 1120POPC   PO416560   2.515   3.994   9.589
 1120POPC   GL116561   2.621   4.391   9.280
 1120POPC   GL216562   2.953   4.419   9.134
 1120POPC   C1A16563   2.578   4.400   8.790
 1120POPC   D2A16564   2.832   4.526   8.410
 1120POPC   C3A16565   2.550   4.480   8.063
 1120POPC   C4A16566   2.621   4.284   7.672
 1120POPC   C1B16567   3.034   4.164   8.743
 1120POPC   C2B16568   3.075   4.060   8.323
 1120POPC   C3B16569   3.046   4.292   7.968
 1120POPC   C4B16570   3.162   4.128   7.564
 1121POPC   NC316571   2.333  21.393   9.541
 1121POPC   PO416572   1.740  21.219   9.629
 1121POPC   GL116573   1.911  21.302   9.215
 1121POPC   GL216574   1.865  21.664   9.200
 1121POPC   C1A16575   1.780  21.370   8.770
 1121POPC   D2A16576   1.967  21.225   8.391
 1121POPC   C3A16577   1.911  21.370   7.991
 1121POPC   C4A16578   1.989  21.063   7.675
 1121POPC   C1B16579   2.019  21.826   8.789
 1121POPC   C2B16580   1.939  21.751   8.366
 1121POPC   C3B16581   2.164  21.811   7.988
 1121POPC   C4B16582   2.262  21.610   7.634
 1122POPC   NC316583   3.314  41.830   9.373
 1122POPC   PO416584   3.523  42.400   9.652
 1122POPC   GL116585   3.565  42.466   9.225
 1122POPC   GL216586   3.201  42.485   9.216
 1122POPC   C1A16587   3.724  42.344   8.801
 1122POPC   D2A16588   3.896  42.465   8.385
 1122POPC   C3A16589   3.682  42.390   7.972
 1122POPC   C4A16590   3.510  42.041   7.686
 1122POPC   C1B16591   3.266  42.646   8.815
 1122POPC   C2B16592   3.401  42.642   8.395
 1122POPC   C3B16593   3.202  42.591   8.008
 1122POPC   C4B16594   3.341  42.563   7.578
 1123POPC   NC316595   9.659  27.718   9.363
 1123POPC   PO416596   9.888  27.086   9.529
 1123POPC   GL116597   9.945  27.351   9.169
 1123POPC   GL216598   9.587  27.263   9.132
 1123POPC   C1A16599   9.870  27.582   8.757
 1123POPC   D2A16600  10.039  27.445   8.365
 1123POPC   C3A16601   9.818  27.323   8.006
 1123POPC   C4A16602   9.873  27.610   7.724
 1123POPC   C1B16603   9.507  27.228   8.732
 1123POPC   C2B16604   9.481  27.458   8.376
 1123POPC   C3B16605   9.477  27.750   8.049
 1123POPC   C4B16606   9.376  27.771   7.642
 1124POPC   NC316607  20.721   7.965   9.520
 1124POPC   PO416608  20.247   8.416   9.513
 1124POPC   GL116609  20.628   8.418   9.230
 1124POPC   GL216610  20.824   8.123   9.052
 1124POPC   C1A16611  20.483   8.438   8.828
 1124POPC   D2A16612  20.551   8.555   8.421
 1124POPC   C3A16613  20.590   8.222   8.167
 1124POPC   C4A16614  20.527   8.378   7.799
 1124POPC   C1B16615  20.692   8.007   8.629
 1124POPC   C2B16616  20.836   7.769   8.245
 1124POPC   C3B16617  20.918   8.003   7.843
 1124POPC   C4B16618  20.934   7.968   7.373
 1125POPC   NC316619  15.082  14.960   9.467
 1125POPC   PO416620  15.456  15.527   9.504
 1125POPC   GL116621  15.166  15.349   9.124
 1125POPC   GL216622  15.065  14.969   8.976
 1125POPC   C1A16623  15.166  15.329   8.666
 1125POPC   D2A16624  15.439  15.037   8.462
 1125POPC   C3A16625  15.487  15.203   8.065
 1125POPC   C4A16626  15.223  15.510   7.857
 1125POPC   C1B16627  14.903  14.894   8.562
 1125POPC   C2B16628  15.027  14.950   8.118
 1125POPC   C3B16629  14.914  15.133   7.710
 1125POPC   C4B16630  14.993  14.923   7.301
 1126POPC   NC316631  39.508  37.938   9.496
 1126POPC   PO416632  38.821  37.872   9.516
 1126POPC   GL116633  38.984  37.660   9.138
 1126POPC   GL216634  39.269  37.856   9.040
 1126POPC   C1A16635  39.030  37.530   8.688
 1126POPC   D2A16636  38.881  37.787   8.324
 1126POPC   C3A16637  39.075  37.819   7.907
 1126POPC   C4A16638  39.323  37.441   7.776
 1126POPC   C1B16639  39.504  37.740   8.668
 1126POPC   C2B16640  39.439  37.686   8.239
 1126POPC   C3B16641  39.573  37.865   7.867
 1126POPC   C4B16642  39.361  38.045   7.486
 1127POPC   NC316643  22.769  10.821   9.384
 1127POPC   PO416644  23.026  10.182   9.580
 1127POPC   GL116645  23.050  10.422   9.211
 1127POPC   GL216646  22.779  10.250   9.062
 1127POPC   C1A16647  23.053  10.622   8.782
 1127POPC   D2A16648  23.014  10.497   8.322
 1127POPC   C3A16649  23.129  10.749   7.916
 1127POPC   C4A16650  23.101  10.920   7.413
 1127POPC   C1B16651  22.528  10.499   8.738
 1127POPC   C2B16652  22.503  10.590   8.296
 1127POPC   C3B16653  22.684  10.438   7.917
 1127POPC   C4B16654  22.682  10.766   7.669
 1128POPC   NC316655   0.909   7.694   9.419
 1128POPC   PO416656   1.557   7.735   9.436
 1128POPC   GL116657   1.320   7.431   9.191
 1128POPC   GL216658   1.438   7.576   8.917
 1128POPC   C1A16659   1.025   7.319   8.808
 1128POPC   D2A16660   1.176   7.444   8.371
 1128POPC   C3A16661   1.050   7.249   7.969
 1128POPC   C4A16662   1.223   7.270   7.519
 1128POPC   C1B16663   1.511   7.202   8.676
 1128POPC   C2B16664   1.555   6.981   8.303
 1128POPC   C3B16665   1.559   7.161   7.911
 1128POPC   C4B16666   1.730   7.070   7.507
 1129POPC   NC316667  29.491  17.319   9.646
 1129POPC   PO416668  28.855  17.646   9.608
 1129POPC   GL116669  29.137  17.709   9.219
 1129POPC   GL216670  28.871  17.920   9.106
 1129POPC   C1A16671  29.368  17.706   8.797
 1129POPC   D2A16672  29.260  17.357   8.504
 1129POPC   C3A16673  29.398  17.315   8.060
 1129POPC   C4A16674  29.329  17.618   7.741
 1129POPC   C1B16675  28.893  17.788   8.665
 1129POPC   C2B16676  29.158  17.829   8.285
 1129POPC   C3B16677  28.940  17.911   7.895
 1129POPC   C4B16678  28.705  17.602   7.688
 1130POPC   NC316679  39.082  42.751   9.527
 1130POPC   PO416680  39.652  43.150   9.494
 1130POPC   GL116681  39.396  43.020   9.104
 1130POPC   GL216682  39.211  43.305   8.928
 1130POPC   C1A16683  39.412  42.951   8.639
 1130POPC   D2A16684  39.117  43.115   8.346
 1130POPC   C3A16685  39.068  42.875   7.973
 1130POPC   C4A16686  39.343  42.876   7.610
 1130POPC   C1B16687  38.902  43.523   8.646
 1130POPC   C2B16688  38.644  43.584   8.332
 1130POPC   C3B16689  38.778  43.327   8.012
 1130POPC   C4B16690  39.126  43.344   7.762
 1131POPC   NC316691  43.857  27.686   9.477
 1131POPC   PO416692  44.491  27.670   9.638
 1131POPC   GL116693  44.240  27.385   9.319
 1131POPC   GL216694  44.250  27.685   9.139
 1131POPC   C1A16695  43.965  27.352   8.872
 1131POPC   D2A16696  43.856  27.614   8.457
 1131POPC   C3A16697  43.628  27.558   8.054
 1131POPC   C4A16698  43.554  27.945   7.824
 1131POPC   C1B16699  44.141  27.909   8.782
 1131POPC   C2B16700  44.311  27.930   8.383
 1131POPC   C3B16701  44.076  27.864   8.014
 1131POPC   C4B16702  43.966  27.676   7.636
 1132POPC   NC316703  32.167  13.026   9.518
 1132POPC   PO416704  32.679  13.113   9.105
 1132POPC   GL116705  32.358  12.794   9.099
 1132POPC   GL216706  32.117  13.060   9.019
 1132POPC   C1A16707  32.028  12.610   8.805
 1132POPC   D2A16708  31.995  12.688   8.344
 1132POPC   C3A16709  32.382  12.710   8.097
 1132POPC   C4A16710  32.281  12.645   7.682
 1132POPC   C1B16711  32.255  13.045   8.604
 1132POPC   C2B16712  32.314  13.216   8.206
 1132POPC   C3B16713  32.123  13.097   7.837
 1132POPC   C4B16714  32.008  13.333   7.525
 1133POPC   NC316715  17.075   1.701   9.491
 1133POPC   PO416716  17.731   2.032   9.622
 1133POPC   GL116717  17.659   2.144   9.181
 1133POPC   GL216718  17.301   2.023   9.077
 1133POPC   C1A16719  17.719   1.967   8.775
 1133POPC   D2A16720  17.399   1.919   8.488
 1133POPC   C3A16721  17.634   1.974   8.150
 1133POPC   C4A16722  17.596   1.935   7.722
 1133POPC   C1B16723  17.093   2.264   8.731
 1133POPC   C2B16724  16.951   2.205   8.344
 1133POPC   C3B16725  17.152   2.051   8.005
 1133POPC   C4B16726  17.140   2.125   7.557
 1134POPC   NC316727  25.697   6.824   9.441
 1134POPC   PO416728  25.160   6.354   9.447
 1134POPC   GL116729  25.310   6.658   9.159
 1134POPC   GL216730  25.642   6.493   9.041
 1134POPC   C1A16731  25.342   6.795   8.730
 1134POPC   D2A16732  25.110   6.769   8.334
 1134POPC   C3A16733  25.373   6.928   7.988
 1134POPC   C4A16734  25.455   6.858   7.548
 1134POPC   C1B16735  25.281   6.273   8.824
 1134POPC   C2B16736  25.131   6.223   8.431
 1134POPC   C3B16737  25.076   6.308   8.026
 1134POPC   C4B16738  25.026   6.636   7.749
 1135POPC   NC316739  21.250   8.724   9.503
 1135POPC   PO416740  21.178   8.066   9.414
 1135POPC   GL116741  21.371   8.211   9.064
 1135POPC   GL216742  21.240   8.512   9.056
 1135POPC   C1A16743  21.458   8.284   8.635
 1135POPC   D2A16744  21.519   8.467   8.244
 1135POPC   C3A16745  21.413   8.156   7.963
 1135POPC   C4A16746  21.733   8.031   7.718
 1135POPC   C1B16747  20.992   8.461   8.729
 1135POPC   C2B16748  21.049   8.624   8.358
 1135POPC   C3B16749  21.029   8.499   7.974
 1135POPC   C4B16750  20.970   8.429   7.555
 1136POPC   NC316751   6.862  41.788   9.484
 1136POPC   PO416752   7.023  41.183   9.505
 1136POPC   GL116753   6.860  41.394   9.135
 1136POPC   GL216754   6.527  41.345   8.986
 1136POPC   C1A16755   6.926  41.443   8.693
 1136POPC   D2A16756   6.698  41.331   8.320
 1136POPC   C3A16757   6.763  41.470   7.907
 1136POPC   C4A16758   6.891  41.314   7.498
 1136POPC   C1B16759   6.466  41.670   8.644
 1136POPC   C2B16760   6.405  41.739   8.201
 1136POPC   C3B16761   6.359  41.744   7.752
 1136POPC   C4B16762   6.492  41.660   7.345
 1137POPC   NC316763  38.125   3.574   9.439
 1137POPC   PO416764  37.460   3.616   9.445
 1137POPC   GL116765  37.562   3.479   9.047
 1137POPC   GL216766  37.219   3.338   9.034
 1137POPC   C1A16767  37.861   3.478   8.655
 1137POPC   D2A16768  37.882   3.755   8.255
 1137POPC   C3A16769  37.833   3.594   7.797
 1137POPC   C4A16770  37.804   3.216   7.472
 1137POPC   C1B16771  37.305   3.395   8.620
 1137POPC   C2B16772  37.418   3.521   8.251
 1137POPC   C3B16773  37.488   3.235   7.922
 1137POPC   C4B16774  37.431   2.910   7.615
 1138POPC   NC316775  12.054  16.467   9.531
 1138POPC   PO416776  12.433  16.959   9.447
 1138POPC   GL116777  12.315  16.684   9.114
 1138POPC   GL216778  11.961  16.514   9.036
 1138POPC   C1A16779  12.279  16.687   8.686
 1138POPC   D2A16780  12.043  16.453   8.476
 1138POPC   C3A16781  11.898  16.629   8.115
 1138POPC   C4A16782  12.193  16.746   7.810
 1138POPC   C1B16783  11.848  16.918   8.855
 1138POPC   C2B16784  11.725  17.047   8.445
 1138POPC   C3B16785  11.804  17.119   7.999
 1138POPC   C4B16786  11.705  16.844   7.661
 1139POPC   NC316787  37.195  44.552   9.695
 1139POPC   PO416788  37.832  44.466   9.543
 1139POPC   GL116789  37.755  44.721   9.200
 1139POPC   GL216790  37.402  44.787   9.220
 1139POPC   C1A16791  37.867  44.697   8.789
 1139POPC   D2A16792  37.686  44.730   8.386
 1139POPC   C3A16793  37.933   0.011   8.141
 1139POPC   C4A16794  38.001  44.928   7.681
 1139POPC   C1B16795  37.370  44.541   8.812
 1139POPC   C2B16796  37.206  44.478   8.380
 1139POPC   C3B16797  37.477  44.419   8.012
 1139POPC   C4B16798  37.428  44.514   7.569
 1140POPC   NC316799  42.139  24.806   9.408
 1140POPC   PO416800  42.218  24.089   9.545
 1140POPC   GL116801  42.344  24.270   9.162
 1140POPC   GL216802  42.018  24.379   9.149
 1140POPC   C1A16803  42.481  24.542   8.785
 1140POPC   D2A16804  42.612  24.488   8.334
 1140POPC   C3A16805  42.421  24.667   7.966
 1140POPC   C4A16806  42.431  24.271   7.734
 1140POPC   C1B16807  41.978  24.545   8.762
 1140POPC   C2B16808  42.054  24.638   8.357
 1140POPC   C3B16809  42.021  24.348   8.030
 1140POPC   C4B16810  41.991  24.563   7.649
 1141POPC   NC316811  35.773  15.891   9.383
 1141POPC   PO416812  36.376  15.552   9.438
 1141POPC   GL116813  36.263  15.876   9.122
 1141POPC   GL216814  35.918  15.998   8.924
 1141POPC   C1A16815  36.348  15.935   8.698
 1141POPC   D2A16816  36.062  15.804   8.410
 1141POPC   C3A16817  36.228  15.807   8.020
 1141POPC   C4A16818  36.500  16.021   7.745
 1141POPC   C1B16819  36.009  16.305   8.582
 1141POPC   C2B16820  35.955  16.250   8.150
 1141POPC   C3B16821  36.026  16.191   7.735
 1141POPC   C4B16822  36.205  16.374   7.376
 1142POPC   NC316823  42.936  44.205   9.412
 1142POPC   PO416824  43.254  43.616   9.587
 1142POPC   GL116825  43.253  43.828   9.205
 1142POPC   GL216826  42.915  43.716   9.166
 1142POPC   C1A16827  43.098  44.012   8.786
 1142POPC   D2A16828  43.295  44.186   8.407
 1142POPC   C3A16829  43.221  44.044   7.992
 1142POPC   C4A16830  42.994  44.216   7.665
 1142POPC   C1B16831  42.766  43.572   8.767
 1142POPC   C2B16832  42.708  43.770   8.384
 1142POPC   C3B16833  42.731  43.840   7.960
 1142POPC   C4B16834  42.785  43.554   7.629
 1143POPC   NC316835   1.652   5.672   9.335
 1143POPC   PO416836   2.209   6.042   9.490
 1143POPC   GL116837   2.032   5.925   9.116
 1143POPC   GL216838   2.140   5.552   9.109
 1143POPC   C1A16839   2.005   5.832   8.697
 1143POPC   D2A16840   2.332   5.737   8.444
 1143POPC   C3A16841   2.194   5.798   8.037
 1143POPC   C4A16842   1.750   5.904   7.937
 1143POPC   C1B16843   1.866   5.342   8.796
 1143POPC   C2B16844   1.619   5.398   8.424
 1143POPC   C3B16845   1.826   5.402   8.027
 1143POPC   C4B16846   2.080   5.470   7.666
 1144POPC   NC316847  32.804   7.695   9.475
 1144POPC   PO416848  33.018   7.087   9.414
 1144POPC   GL116849  32.970   7.392   9.100
 1144POPC   GL216850  33.258   7.588   9.149
 1144POPC   C1A16851  32.915   7.569   8.691
 1144POPC   D2A16852  32.696   7.378   8.333
 1144POPC   C3A16853  32.964   7.113   8.085
 1144POPC   C4A16854  32.941   7.302   7.714
 1144POPC   C1B16855  33.374   7.278   8.808
 1144POPC   C2B16856  33.373   7.311   8.381
 1144POPC   C3B16857  33.186   7.603   8.102
 1144POPC   C4B16858  33.339   7.640   7.704
 1145POPC   NC316859  29.586  40.381   9.529
 1145POPC   PO416860  28.984  39.930   9.537
 1145POPC   GL116861  29.233  39.931   9.179
 1145POPC   GL216862  29.207  40.293   9.176
 1145POPC   C1A16863  29.072  39.819   8.744
 1145POPC   D2A16864  28.839  40.075   8.416
 1145POPC   C3A16865  28.975  40.037   7.973
 1145POPC   C4A16866  29.244  39.725   7.741
 1145POPC   C1B16867  29.403  40.204   8.777
 1145POPC   C2B16868  29.329  40.312   8.347
 1145POPC   C3B16869  29.490  40.107   7.975
 1145POPC   C4B16870  29.418  40.302   7.591
 1146POPC   NC316871  35.037   5.034   9.489
 1146POPC   PO416872  34.328   4.780   9.498
 1146POPC   GL116873  34.387   5.125   9.217
 1146POPC   GL216874  34.732   5.239   9.135
 1146POPC   C1A16875  34.429   5.085   8.771
 1146POPC   D2A16876  34.611   5.154   8.389
 1146POPC   C3A16877  34.498   4.961   8.014
 1146POPC   C4A16878  34.251   5.193   7.702
 1146POPC   C1B16879  34.959   5.412   8.768
 1146POPC   C2B16880  34.957   5.543   8.365
 1146POPC   C3B16881  34.824   5.379   7.979
 1146POPC   C4B16882  34.774   5.136   7.617
 1147POPC   NC316883  20.156   5.839   9.363
 1147POPC   PO416884  19.596   5.522   9.374
 1147POPC   GL116885  19.725   5.827   9.085
 1147POPC   GL216886  19.685   6.183   9.209
 1147POPC   C1A16887  19.999   5.773   8.724
 1147POPC   D2A16888  19.864   5.729   8.312
 1147POPC   C3A16889  20.114   5.753   7.977
 1147POPC   C4A16890  19.980   5.615   7.569
 1147POPC   C1B16891  19.886   6.261   8.812
 1147POPC   C2B16892  19.662   6.211   8.430
 1147POPC   C3B16893  19.816   6.175   8.018
 1147POPC   C4B16894  19.607   5.823   7.842
 1148POPC   NC316895  11.436  29.456   9.554
 1148POPC   PO416896  11.223  28.823   9.703
 1148POPC   GL116897  11.241  29.032   9.293
 1148POPC   GL216898  11.044  29.361   9.239
 1148POPC   C1A16899  11.210  28.895   8.857
 1148POPC   D2A16900  11.440  29.017   8.483
 1148POPC   C3A16901  11.321  28.900   8.071
 1148POPC   C4A16902  11.449  29.003   7.631
 1148POPC   C1B16903  11.301  29.408   8.877
 1148POPC   C2B16904  11.237  29.536   8.468
 1148POPC   C3B16905  11.426  29.401   8.109
 1148POPC   C4B16906  11.304  29.481   7.721
 1149POPC   NC316907  26.180  18.476   9.472
 1149POPC   PO416908  25.676  18.100   9.188
 1149POPC   GL116909  26.020  18.317   9.029
 1149POPC   GL216910  25.887  18.641   9.059
 1149POPC   C1A16911  26.308  18.307   8.711
 1149POPC   D2A16912  26.109  18.068   8.361
 1149POPC   C3A16913  25.980  18.258   7.977
 1149POPC   C4A16914  26.309  18.470   7.770
 1149POPC   C1B16915  25.851  18.510   8.578
 1149POPC   C2B16916  25.576  18.510   8.199
 1149POPC   C3B16917  25.562  18.491   7.739
 1149POPC   C4B16918  25.634  18.543   7.265
 1150POPC   NC316919  19.532   6.612   9.482
 1150POPC   PO416920  20.130   6.298   9.432
 1150POPC   GL116921  20.040   6.627   9.148
 1150POPC   GL216922  19.727   6.806   9.078
 1150POPC   C1A16923  20.114   6.746   8.733
 1150POPC   D2A16924  19.976   6.585   8.382
 1150POPC   C3A16925  20.015   6.686   7.993
 1150POPC   C4A16926  20.202   6.469   7.663
 1150POPC   C1B16927  19.544   6.622   8.757
 1150POPC   C2B16928  19.497   6.774   8.367
 1150POPC   C3B16929  19.522   6.584   8.023
 1150POPC   C4B16930  19.696   6.568   7.618
 1151POPC   NC316931  18.432  19.943   9.590
 1151POPC   PO416932  18.416  19.323   9.637
 1151POPC   GL116933  18.349  19.636   9.208
 1151POPC   GL216934  18.206  20.018   9.149
 1151POPC   C1A16935  18.451  19.804   8.774
 1151POPC   D2A16936  18.512  19.663   8.356
 1151POPC   C3A16937  18.461  19.943   8.008
 1151POPC   C4A16938  18.381  19.897   7.578
 1151POPC   C1B16939  17.976  20.044   8.761
 1151POPC   C2B16940  18.028  19.872   8.354
 1151POPC   C3B16941  17.961  20.107   7.993
 1151POPC   C4B16942  17.943  20.115   7.574
 1152POPC   NC316943  40.689  15.019   9.550
 1152POPC   PO416944  41.374  15.325   9.643
 1152POPC   GL116945  41.098  15.097   9.266
 1152POPC   GL216946  40.841  15.332   9.176
 1152POPC   C1A16947  40.871  14.860   8.871
 1152POPC   D2A16948  40.670  15.060   8.469
 1152POPC   C3A16949  40.566  15.004   8.006
 1152POPC   C4A16950  40.678  15.212   7.600
 1152POPC   C1B16951  41.074  15.309   8.803
 1152POPC   C2B16952  41.097  15.413   8.387
 1152POPC   C3B16953  40.948  15.425   7.984
 1152POPC   C4B16954  40.928  15.676   7.616
 1153POPC   NC316955  38.994  34.763   9.457
 1153POPC   PO416956  39.341  34.287   9.597
 1153POPC   GL116957  39.144  34.362   9.160
 1153POPC   GL216958  39.213  34.707   9.011
 1153POPC   C1A16959  39.027  34.357   8.698
 1153POPC   D2A16960  39.181  34.294   8.272
 1153POPC   C3A16961  39.078  34.656   8.010
 1153POPC   C4A16962  38.760  34.640   7.697
 1153POPC   C1B16963  39.561  34.859   8.777
 1153POPC   C2B16964  39.530  35.047   8.412
 1153POPC   C3B16965  39.651  34.931   8.038
 1153POPC   C4B16966  39.489  34.710   7.705
 1154POPC   NC316967   3.955  37.964   9.595
 1154POPC   PO416968   4.361  37.458   9.383
 1154POPC   GL116969   4.318  37.722   9.073
 1154POPC   GL216970   4.411  38.028   9.239
 1154POPC   C1A16971   4.418  37.609   8.657
 1154POPC   D2A16972   4.265  37.505   8.280
 1154POPC   C3A16973   4.215  37.777   8.016
 1154POPC   C4A16974   4.246  37.690   7.625
 1154POPC   C1B16975   4.305  38.184   8.818
 1154POPC   C2B16976   4.263  38.141   8.371
 1154POPC   C3B16977   4.510  38.197   7.988
 1154POPC   C4B16978   4.721  37.952   7.646
 1155POPC   NC316979  18.863  24.086   9.272
 1155POPC   PO416980  19.184  23.575   9.530
 1155POPC   GL116981  19.072  23.662   9.067
 1155POPC   GL216982  19.360  23.527   8.940
 1155POPC   C1A16983  18.943  23.898   8.665
 1155POPC   D2A16984  18.721  24.149   8.365
 1155POPC   C3A16985  18.986  24.175   8.002
 1155POPC   C4A16986  18.965  23.982   7.566
 1155POPC   C1B16987  19.262  23.521   8.532
 1155POPC   C2B16988  18.888  23.536   8.328
 1155POPC   C3B16989  18.931  23.680   7.978
 1155POPC   C4B16990  18.957  23.466   7.629
 1156POPC   NC316991   3.721   1.519   9.245
 1156POPC   PO416992   3.366   0.966   9.468
 1156POPC   GL116993   3.438   1.141   9.110
 1156POPC   GL216994   3.795   1.032   9.095
 1156POPC   C1A16995   3.408   1.120   8.685
 1156POPC   D2A16996   3.491   1.017   8.272
 1156POPC   C3A16997   3.302   1.243   7.939
 1156POPC   C4A16998   3.313   1.137   7.455
 1156POPC   C1B16999   3.924   1.189   8.705
 1156POPC   C2B17000   4.004   1.320   8.303
 1156POPC   C3B17001   3.797   1.294   7.934
 1156POPC   C4B17002   3.608   1.520   7.592
 1157POPC   NC317003  12.971  14.142   9.644
 1157POPC   PO417004  12.437  14.302   9.298
 1157POPC   GL117005  12.811  14.174   9.139
 1157POPC   GL217006  13.069  14.427   9.178
 1157POPC   C1A17007  12.949  14.140   8.718
 1157POPC   D2A17008  13.223  14.104   8.341
 1157POPC   C3A17009  13.030  14.294   8.034
 1157POPC   C4A17010  12.735  14.127   7.770
 1157POPC   C1B17011  12.798  14.669   8.883
 1157POPC   C2B17012  12.844  14.577   8.458
 1157POPC   C3B17013  12.825  14.755   8.043
 1157POPC   C4B17014  12.938  14.615   7.637
 1158POPC   NC317015  32.696   2.993   9.241
 1158POPC   PO417016  33.314   2.921   9.515
 1158POPC   GL117017  33.209   2.946   9.098
 1158POPC   GL217018  33.164   2.582   9.040
 1158POPC   C1A17019  33.182   2.882   8.645
 1158POPC   D2A17020  33.278   2.804   8.223
 1158POPC   C3A17021  33.116   2.996   7.880
 1158POPC   C4A17022  33.281   2.658   7.656
 1158POPC   C1B17023  32.801   2.569   8.732
 1158POPC   C2B17024  32.775   2.767   8.336
 1158POPC   C3B17025  32.857   2.580   7.935
 1158POPC   C4B17026  32.759   2.723   7.529
 1159POPC   NC317027   3.739  12.672   9.509
 1159POPC   PO417028   3.097  12.341   9.492
 1159POPC   GL117029   3.261  12.628   9.140
 1159POPC   GL217030   3.594  12.833   9.070
 1159POPC   C1A17031   3.268  12.766   8.699
 1159POPC   D2A17032   3.126  13.049   8.335
 1159POPC   C3A17033   3.261  12.883   7.919
 1159POPC   C4A17034   3.570  12.814   7.647
 1159POPC   C1B17035   3.756  12.830   8.671
 1159POPC   C2B17036   3.604  12.844   8.274
 1159POPC   C3B17037   3.666  13.191   7.961
 1159POPC   C4B17038   3.886  13.222   7.540
 1160POPC   NC317039   0.206   1.687   9.498
 1160POPC   PO417040   0.701   2.177   9.492
 1160POPC   GL117041   0.461   2.007   9.189
 1160POPC   GL217042   0.617   1.709   9.109
 1160POPC   C1A17043   0.310   2.157   8.821
 1160POPC   D2A17044   0.367   2.308   8.405
 1160POPC   C3A17045   0.353   2.055   8.048
 1160POPC   C4A17046   0.247   2.296   7.693
 1160POPC   C1B17047   0.485   1.716   8.680
 1160POPC   C2B17048   0.728   1.829   8.333
 1160POPC   C3B17049   0.744   1.639   7.931
 1160POPC   C4B17050   0.463   1.773   7.622
 1161POPC   NC317051  23.129   0.710   9.582
 1161POPC   PO417052  22.770   0.183   9.618
 1161POPC   GL117053  22.676   0.391   9.200
 1161POPC   GL217054  22.831   0.724   9.129
 1161POPC   C1A17055  22.568   0.402   8.749
 1161POPC   D2A17056  22.753   0.505   8.326
 1161POPC   C3A17057  22.788   0.219   7.989
 1161POPC   C4A17058  22.917   0.357   7.556
 1161POPC   C1B17059  23.062   0.604   8.733
 1161POPC   C2B17060  23.244   0.684   8.294
 1161POPC   C3B17061  23.267   0.672   7.806
 1161POPC   C4B17062  23.170   0.804   7.364
 1162POPC   NC317063  38.798  30.505   9.491
 1162POPC   PO417064  39.353  30.861   9.379
 1162POPC   GL117065  39.082  30.705   9.115
 1162POPC   GL217066  39.215  30.371   9.162
 1162POPC   C1A17067  39.134  30.753   8.685
 1162POPC   D2A17068  39.479  30.922   8.416
 1162POPC   C3A17069  39.343  30.765   8.029
 1162POPC   C4A17070  39.448  30.459   7.745
 1162POPC   C1B17071  38.886  30.305   8.865
 1162POPC   C2B17072  38.614  30.463   8.592
 1162POPC   C3B17073  38.658  30.506   8.162
 1162POPC   C4B17074  38.948  30.447   7.819
 1163POPC   NC317075   1.629  12.865   9.427
 1163POPC   PO417076   2.268  13.115   9.495
 1163POPC   GL117077   2.026  13.045   9.160
 1163POPC   GL217078   2.032  12.659   9.176
 1163POPC   C1A17079   2.105  12.940   8.763
 1163POPC   D2A17080   2.037  12.757   8.430
 1163POPC   C3A17081   2.119  12.936   8.060
 1163POPC   C4A17082   1.880  13.139   7.794
 1163POPC   C1B17083   1.845  12.443   8.823
 1163POPC   C2B17084   1.967  12.265   8.436
 1163POPC   C3B17085   1.975  12.395   8.057
 1163POPC   C4B17086   1.906  12.609   7.689
 1164POPC   NC317087  28.416  26.603   9.574
 1164POPC   PO417088  28.163  27.218   9.438
 1164POPC   GL117089  28.315  26.901   9.154
 1164POPC   GL217090  28.595  27.128   9.169
 1164POPC   C1A17091  28.137  26.820   8.727
 1164POPC   D2A17092  27.988  26.964   8.325
 1164POPC   C3A17093  28.174  26.710   8.010
 1164POPC   C4A17094  28.296  26.786   7.611
 1164POPC   C1B17095  28.518  27.155   8.731
 1164POPC   C2B17096  28.496  26.967   8.316
 1164POPC   C3B17097  28.572  27.121   7.898
 1164POPC   C4B17098  28.709  27.102   7.463
 1165POPC   NC317099  22.715  24.264   9.585
 1165POPC   PO417100  23.182  24.720   9.548
 1165POPC   GL117101  23.217  24.466   9.150
 1165POPC   GL217102  23.139  24.095   9.124
 1165POPC   C1A17103  23.023  24.506   8.721
 1165POPC   D2A17104  22.807  24.657   8.337
 1165POPC   C3A17105  23.015  24.551   7.954
 1165POPC   C4A17106  22.979  24.566   7.515
 1165POPC   C1B17107  22.829  24.033   8.747
 1165POPC   C2B17108  22.791  24.142   8.278
 1165POPC   C3B17109  22.734  24.141   7.831
 1165POPC   C4B17110  22.484  24.434   7.514
 1166POPC   NC317111  30.019   9.113   9.372
 1166POPC   PO417112  29.579   8.695   9.538
 1166POPC   GL117113  29.562   8.944   9.154
 1166POPC   GL217114  29.570   9.305   9.187
 1166POPC   C1A17115  29.804   8.918   8.783
 1166POPC   D2A17116  30.155   8.837   8.503
 1166POPC   C3A17117  30.129   9.039   8.121
 1166POPC   C4A17118  29.963   8.878   7.769
 1166POPC   C1B17119  29.469   9.307   8.770
 1166POPC   C2B17120  29.718   9.244   8.401
 1166POPC   C3B17121  29.608   9.150   8.024
 1166POPC   C4B17122  29.641   9.304   7.623
 1167POPC   NC317123  23.794  38.094   9.448
 1167POPC   PO417124  23.404  37.512   9.425
 1167POPC   GL117125  23.683  37.655   9.145
 1167POPC   GL217126  23.474  37.928   9.096
 1167POPC   C1A17127  23.916  37.548   8.787
 1167POPC   D2A17128  23.913  37.312   8.415
 1167POPC   C3A17129  23.992  37.592   8.061
 1167POPC   C4A17130  23.923  37.466   7.631
 1167POPC   C1B17131  23.760  38.046   8.788
 1167POPC   C2B17132  23.700  37.943   8.375
 1167POPC   C3B17133  23.639  38.055   7.972
 1167POPC   C4B17134  23.517  37.779   7.720
 1168POPC   NC317135  24.305  19.068   9.702
 1168POPC   PO417136  24.761  19.387   9.315
 1168POPC   GL117137  24.412  19.164   9.200
 1168POPC   GL217138  24.247  18.868   9.217
 1168POPC   C1A17139  24.530  19.048   8.789
 1168POPC   D2A17140  24.557  19.328   8.428
 1168POPC   C3A17141  24.287  19.415   8.121
 1168POPC   C4A17142  24.462  19.228   7.798
 1168POPC   C1B17143  24.208  18.668   8.835
 1168POPC   C2B17144  24.247  18.885   8.407
 1168POPC   C3B17145  24.529  18.800   8.048
 1168POPC   C4B17146  24.680  18.798   7.607
 1169POPC   NC317147  22.467  29.386   9.448
 1169POPC   PO417148  22.009  28.952   9.564
 1169POPC   GL117149  22.025  29.275   9.182
 1169POPC   GL217150  21.806  29.605   9.183
 1169POPC   C1A17151  22.277  29.264   8.769
 1169POPC   D2A17152  22.303  28.905   8.455
 1169POPC   C3A17153  22.261  28.983   8.005
 1169POPC   C4A17154  22.300  28.645   7.694
 1169POPC   C1B17155  21.778  29.446   8.740
 1169POPC   C2B17156  21.987  29.314   8.348
 1169POPC   C3B17157  22.145  29.488   7.987
 1169POPC   C4B17158  22.028  29.588   7.577
 1170POPC   NC317159  27.094  30.935   9.347
 1170POPC   PO417160  26.528  30.631   9.475
 1170POPC   GL117161  26.635  30.767   9.127
 1170POPC   GL217162  26.609  31.102   9.222
 1170POPC   C1A17163  26.855  30.692   8.766
 1170POPC   D2A17164  27.040  30.579   8.409
 1170POPC   C3A17165  26.817  30.665   8.037
 1170POPC   C4A17166  27.090  30.810   7.734
 1170POPC   C1B17167  26.580  31.142   8.790
 1170POPC   C2B17168  26.470  30.891   8.444
 1170POPC   C3B17169  26.533  31.111   8.085
 1170POPC   C4B17170  26.682  31.136   7.716
 1171POPC   NC317171  14.378  40.768   9.676
 1171POPC   PO417172  14.182  40.173   9.635
 1171POPC   GL117173  14.176  40.470   9.276
 1171POPC   GL217174  13.862  40.463   9.131
 1171POPC   C1A17175  14.418  40.641   8.910
 1171POPC   D2A17176  14.422  40.933   8.551
 1171POPC   C3A17177  14.564  40.818   8.149
 1171POPC   C4A17178  14.521  41.048   7.791
 1171POPC   C1B17179  14.049  40.279   8.757
 1171POPC   C2B17180  14.232  40.457   8.377
 1171POPC   C3B17181  14.412  40.353   7.967
 1171POPC   C4B17182  14.687  40.545   7.639
 1172POPC   NC317183  27.766  17.040   9.369
 1172POPC   PO417184  28.443  16.736   9.549
 1172POPC   GL117185  28.534  16.614   9.186
 1172POPC   GL217186  28.856  16.737   9.104
 1172POPC   C1A17187  28.296  16.558   8.864
 1172POPC   D2A17188  28.400  16.317   8.566
 1172POPC   C3A17189  28.225  16.589   8.239
 1172POPC   C4A17190  28.196  16.554   7.787
 1172POPC   C1B17191  28.744  16.745   8.668
 1172POPC   C2B17192  28.759  16.524   8.286
 1172POPC   C3B17193  28.669  16.671   7.905
 1172POPC   C4B17194  28.691  17.115   7.831
 1173POPC   NC317195  33.651  21.823   9.892
 1173POPC   PO417196  33.678  21.342   9.381
 1173POPC   GL117197  33.599  21.440   9.021
 1173POPC   GL217198  33.338  21.252   8.891
 1173POPC   C1A17199  33.794  21.439   8.656
 1173POPC   D2A17200  33.999  21.224   8.345
 1173POPC   C3A17201  33.805  21.360   7.993
 1173POPC   C4A17202  33.883  21.202   7.608
 1173POPC   C1B17203  33.336  21.686   8.680
 1173POPC   C2B17204  33.512  21.721   8.289
 1173POPC   C3B17205  33.321  21.544   7.924
 1173POPC   C4B17206  33.457  21.452   7.492
 1174POPC   NC317207  31.774   1.673   9.540
 1174POPC   PO417208  31.278   1.249   9.402
 1174POPC   GL117209  31.575   1.097   9.101
 1174POPC   GL217210  31.889   1.276   9.207
 1174POPC   C1A17211  31.565   1.007   8.652
 1174POPC   D2A17212  31.305   1.156   8.320
 1174POPC   C3A17213  31.297   0.898   7.923
 1174POPC   C4A17214  31.267   0.894   7.429
 1174POPC   C1B17215  31.848   1.432   8.793
 1174POPC   C2B17216  31.754   1.424   8.355
 1174POPC   C3B17217  31.725   1.143   8.035
 1174POPC   C4B17218  31.624   1.192   7.592
 1175POPC   NC317219  14.412  30.985   9.450
 1175POPC   PO417220  14.622  30.354   9.552
 1175POPC   GL117221  14.674  30.586   9.197
 1175POPC   GL217222  14.364  30.596   9.090
 1175POPC   C1A17223  14.775  30.637   8.771
 1175POPC   D2A17224  14.619  30.499   8.381
 1175POPC   C3A17225  14.792  30.335   8.047
 1175POPC   C4A17226  14.626  30.273   7.635
 1175POPC   C1B17227  14.237  30.615   8.693
 1175POPC   C2B17228  14.225  30.858   8.317
 1175POPC   C3B17229  14.381  30.679   7.953
 1175POPC   C4B17230  14.140  30.360   7.762
 1176POPC   NC317231   3.640   1.630   9.782
 1176POPC   PO417232   3.733   2.206   9.397
 1176POPC   GL117233   3.764   2.122   8.968
 1176POPC   GL217234   3.461   1.935   9.039
 1176POPC   C1A17235   3.567   2.028   8.538
 1176POPC   D2A17236   3.141   1.911   8.335
 1176POPC   C3A17237   3.151   2.228   8.010
 1176POPC   C4A17238   3.580   2.325   7.856
 1176POPC   C1B17239   3.326   1.624   8.754
 1176POPC   C2B17240   3.544   1.529   8.380
 1176POPC   C3B17241   3.556   1.783   8.029
 1176POPC   C4B17242   3.183   1.742   7.826
 1177POPC   NC317243  20.357  23.327   9.391
 1177POPC   PO417244  20.912  23.783   9.440
 1177POPC   GL117245  20.651  23.669   9.128
 1177POPC   GL217246  20.331  23.845   9.144
 1177POPC   C1A17247  20.686  23.506   8.715
 1177POPC   D2A17248  20.825  23.637   8.292
 1177POPC   C3A17249  20.735  23.518   7.894
 1177POPC   C4A17250  20.319  23.556   7.662
 1177POPC   C1B17251  20.528  24.007   8.754
 1177POPC   C2B17252  20.665  24.123   8.343
 1177POPC   C3B17253  20.495  23.942   7.948
 1177POPC   C4B17254  20.678  23.883   7.511
 1178POPC   NC317255  27.092   6.424   9.695
 1178POPC   PO417256  26.879   6.942   9.338
 1178POPC   GL117257  26.776   6.566   9.163
 1178POPC   GL217258  27.119   6.460   9.185
 1178POPC   C1A17259  26.634   6.608   8.743
 1178POPC   D2A17260  26.801   6.793   8.351
 1178POPC   C3A17261  26.655   6.701   7.922
 1178POPC   C4A17262  27.044   6.912   7.791
 1178POPC   C1B17263  27.136   6.583   8.765
 1178POPC   C2B17264  27.018   6.338   8.437
 1178POPC   C3B17265  27.024   6.376   8.029
 1178POPC   C4B17266  26.984   6.428   7.602
 1179POPC   NC317267  17.775   4.040   9.375
 1179POPC   PO417268  18.449   4.252   9.607
 1179POPC   GL117269  18.434   4.256   9.183
 1179POPC   GL217270  18.544   4.615   9.169
 1179POPC   C1A17271  18.222   4.051   8.812
 1179POPC   D2A17272  18.033   4.207   8.399
 1179POPC   C3A17273  18.243   4.068   8.016
 1179POPC   C4A17274  18.123   4.119   7.598
 1179POPC   C1B17275  18.314   4.546   8.765
 1179POPC   C2B17276  18.452   4.513   8.341
 1179POPC   C3B17277  18.260   4.596   7.943
 1179POPC   C4B17278  18.295   4.616   7.465
 1180POPC   NC317279  10.185  28.230   9.557
 1180POPC   PO417280  10.895  28.274   9.530
 1180POPC   GL117281  10.575  28.210   9.221
 1180POPC   GL217282  10.419  28.545   9.206
 1180POPC   C1A17283  10.403  28.231   8.795
 1180POPC   D2A17284  10.514  28.486   8.431
 1180POPC   C3A17285  10.449  28.319   8.024
 1180POPC   C4A17286  10.132  28.415   7.728
 1180POPC   C1B17287  10.797  28.551   8.882
 1180POPC   C2B17288  11.003  28.622   8.459
 1180POPC   C3B17289  10.806  28.742   8.055
 1180POPC   C4B17290  10.640  28.632   7.631
 1181POPC   NC317291  35.346  36.990   9.560
 1181POPC   PO417292  35.262  36.290   9.460
 1181POPC   GL117293  35.216  36.643   9.142
 1181POPC   GL217294  35.482  36.889   9.090
 1181POPC   C1A17295  35.124  36.893   8.720
 1181POPC   D2A17296  35.214  37.112   8.287
 1181POPC   C3A17297  35.153  36.828   7.957
 1181POPC   C4A17298  35.021  36.395   8.011
 1181POPC   C1B17299  35.611  37.053   8.694
 1181POPC   C2B17300  35.742  37.165   8.253
 1181POPC   C3B17301  35.592  37.186   7.781
 1181POPC   C4B17302  35.747  37.181   7.292
 1182POPC   NC317303   6.232  42.396   9.500
 1182POPC   PO417304   5.636  42.170   9.627
 1182POPC   GL117305   5.835  42.168   9.188
 1182POPC   GL217306   6.132  41.971   9.230
 1182POPC   C1A17307   5.733  42.313   8.732
 1182POPC   D2A17308   5.430  42.317   8.349
 1182POPC   C3A17309   5.646  42.420   7.957
 1182POPC   C4A17310   6.032  42.570   7.737
 1182POPC   C1B17311   6.222  42.108   8.810
 1182POPC   C2B17312   6.198  42.381   8.453
 1182POPC   C3B17313   6.238  42.210   8.052
 1182POPC   C4B17314   5.950  42.035   7.787
 1183POPC   NC317315  19.161  19.414   9.493
 1183POPC   PO417316  19.226  18.807   9.360
 1183POPC   GL117317  19.001  19.043   9.056
 1183POPC   GL217318  18.771  19.285   9.189
 1183POPC   C1A17319  18.967  18.933   8.611
 1183POPC   D2A17320  19.169  18.676   8.309
 1183POPC   C3A17321  19.133  18.851   7.892
 1183POPC   C4A17322  18.947  18.759   7.478
 1183POPC   C1B17323  18.740  19.382   8.769
 1183POPC   C2B17324  18.916  19.368   8.367
 1183POPC   C3B17325  18.682  19.107   8.128
 1183POPC   C4B17326  18.793  19.201   7.745
 1184POPC   NC317327  28.617  15.549   9.541
 1184POPC   PO417328  29.170  16.050   9.519
 1184POPC   GL117329  29.003  15.889   9.157
 1184POPC   GL217330  28.833  16.204   9.120
 1184POPC   C1A17331  29.183  15.822   8.732
 1184POPC   D2A17332  29.481  15.949   8.408
 1184POPC   C3A17333  29.363  15.816   8.042
 1184POPC   C4A17334  29.149  15.831   7.703
 1184POPC   C1B17335  28.966  16.283   8.708
 1184POPC   C2B17336  28.927  16.035   8.318
 1184POPC   C3B17337  28.942  16.232   7.915
 1184POPC   C4B17338  29.067  16.357   7.510
 1185POPC   NC317339   9.080   6.440   9.486
 1185POPC   PO417340   8.534   6.916   9.408
 1185POPC   GL117341   8.932   6.890   9.213
 1185POPC   GL217342   8.839   6.550   9.061
 1185POPC   C1A17343   9.094   6.934   8.804
 1185POPC   D2A17344   8.770   6.717   8.559
 1185POPC   C3A17345   8.825   6.688   8.124
 1185POPC   C4A17346   8.811   6.545   7.711
 1185POPC   C1B17347   9.236   6.446   8.839
 1185POPC   C2B17348   9.246   6.560   8.407
 1185POPC   C3B17349   9.236   6.400   7.967
 1185POPC   C4B17350   9.249   6.484   7.469
 1186POPC   NC317351  25.748   2.730   9.414
 1186POPC   PO417352  26.418   2.972   9.416
 1186POPC   GL117353  26.158   2.878   9.087
 1186POPC   GL217354  25.926   3.082   9.093
 1186POPC   C1A17355  26.185   3.057   8.632
 1186POPC   D2A17356  26.236   3.029   8.161
 1186POPC   C3A17357  26.049   2.638   8.015
 1186POPC   C4A17358  26.184   2.355   7.681
 1186POPC   C1B17359  25.689   3.141   8.740
 1186POPC   C2B17360  25.740   2.970   8.341
 1186POPC   C3B17361  25.637   3.037   7.931
 1186POPC   C4B17362  26.000   3.066   7.685
 1187POPC   NC317363   6.729  39.822   9.487
 1187POPC   PO417364   6.094  40.116   9.595
 1187POPC   GL117365   6.325  40.066   9.251
 1187POPC   GL217366   6.316  39.706   9.230
 1187POPC   C1A17367   6.597  40.158   8.889
 1187POPC   D2A17368   6.783  40.403   8.532
 1187POPC   C3A17369   6.780  40.159   8.133
 1187POPC   C4A17370   6.616  39.996   7.699
 1187POPC   C1B17371   6.556  39.603   8.851
 1187POPC   C2B17372   6.738  39.751   8.480
 1187POPC   C3B17373   6.841  39.663   8.065
 1187POPC   C4B17374   6.936  39.592   7.669
 1188POPC   NC317375  41.193  14.158   9.616
 1188POPC   PO417376  40.615  13.805   9.710
 1188POPC   GL117377  40.733  13.945   9.240
 1188POPC   GL217378  40.420  13.889   9.181
 1188POPC   C1A17379  40.951  13.850   8.831
 1188POPC   D2A17380  40.870  13.597   8.466
 1188POPC   C3A17381  41.047  13.792   8.100
 1188POPC   C4A17382  40.951  13.770   7.701
 1188POPC   C1B17383  40.457  13.660   8.806
 1188POPC   C2B17384  40.375  13.751   8.395
 1188POPC   C3B17385  40.542  13.658   8.013
 1188POPC   C4B17386  40.426  13.884   7.658
 1189POPC   NC317387  23.497  21.852   9.631
 1189POPC   PO417388  23.602  22.449   9.420
 1189POPC   GL117389  23.819  22.168   9.094
 1189POPC   GL217390  23.815  21.787   9.118
 1189POPC   C1A17391  23.843  22.218   8.644
 1189POPC   D2A17392  24.042  22.522   8.334
 1189POPC   C3A17393  23.863  22.515   7.950
 1189POPC   C4A17394  23.493  22.262   7.956
 1189POPC   C1B17395  23.808  21.696   8.665
 1189POPC   C2B17396  23.643  21.862   8.258
 1189POPC   C3B17397  23.785  21.894   7.800
 1189POPC   C4B17398  24.031  21.827   7.413
 1190POPC   NC317399  25.602  20.195   9.635
 1190POPC   PO417400  26.154  20.579   9.486
 1190POPC   GL117401  25.860  20.678   9.161
 1190POPC   GL217402  25.610  20.391   9.133
 1190POPC   C1A17403  26.024  20.774   8.750
 1190POPC   D2A17404  26.030  20.576   8.345
 1190POPC   C3A17405  26.095  20.883   8.006
 1190POPC   C4A17406  25.921  21.171   7.702
 1190POPC   C1B17407  26.000  20.239   8.881
 1190POPC   C2B17408  26.160  20.075   8.461
 1190POPC   C3B17409  26.195  20.206   8.024
 1190POPC   C4B17410  25.839  20.421   7.876
 1191POPC   NC317411  27.187  31.707   9.524
 1191POPC   PO417412  26.561  31.630   9.457
 1191POPC   GL117413  26.686  31.583   9.084
 1191POPC   GL217414  27.005  31.450   9.131
 1191POPC   C1A17415  26.784  31.738   8.717
 1191POPC   D2A17416  26.656  31.523   8.382
 1191POPC   C3A17417  26.735  31.764   8.026
 1191POPC   C4A17418  26.552  31.636   7.644
 1191POPC   C1B17419  27.077  31.258   8.760
 1191POPC   C2B17420  26.928  31.085   8.412
 1191POPC   C3B17421  27.048  31.226   8.050
 1191POPC   C4B17422  27.163  31.327   7.677
 1192POPC   NC317423  20.811   3.515   9.534
 1192POPC   PO417424  20.232   3.145   9.382
 1192POPC   GL117425  20.619   3.217   9.132
 1192POPC   GL217426  20.737   3.571   9.044
 1192POPC   C1A17427  20.475   3.322   8.714
 1192POPC   D2A17428  20.248   3.248   8.351
 1192POPC   C3A17429  20.461   3.314   7.953
 1192POPC   C4A17430  20.610   3.439   7.531
 1192POPC   C1B17431  20.536   3.831   8.729
 1192POPC   C2B17432  20.518   3.698   8.299
 1192POPC   C3B17433  20.596   3.830   7.879
 1192POPC   C4B17434  20.677   3.928   7.437
 1193POPC   NC317435  29.050  42.857   9.562
 1193POPC   PO417436  29.570  43.210   9.519
 1193POPC   GL117437  29.273  43.059   9.153
 1193POPC   GL217438  28.904  43.169   9.154
 1193POPC   C1A17439  29.121  42.947   8.713
 1193POPC   D2A17440  29.126  43.180   8.331
 1193POPC   C3A17441  29.325  43.092   7.946
 1193POPC   C4A17442  29.207  43.077   7.530
 1193POPC   C1B17443  28.819  43.346   8.741
 1193POPC   C2B17444  28.626  43.346   8.349
 1193POPC   C3B17445  28.760  43.224   7.975
 1193POPC   C4B17446  29.047  43.495   7.814
 1194POPC   NC317447   8.997  10.402   9.549
 1194POPC   PO417448   9.143  10.934   9.750
 1194POPC   GL117449   9.105  10.718   9.196
 1194POPC   GL217450   8.749  10.522   9.117
 1194POPC   C1A17451   9.112  10.476   8.782
 1194POPC   D2A17452   8.892  10.292   8.391
 1194POPC   C3A17453   9.124  10.269   7.951
 1194POPC   C4A17454   9.169  10.427   7.499
 1194POPC   C1B17455   8.750  10.830   8.768
 1194POPC   C2B17456   8.591  10.764   8.383
 1194POPC   C3B17457   8.738  10.618   7.998
 1194POPC   C4B17458   8.776  10.735   7.592
 1195POPC   NC317459   7.068  12.514   9.541
 1195POPC   PO417460   7.704  12.522   9.569
 1195POPC   GL117461   7.699  12.666   9.153
 1195POPC   GL217462   7.687  13.015   9.131
 1195POPC   C1A17463   7.490  12.592   8.755
 1195POPC   D2A17464   7.389  12.767   8.329
 1195POPC   C3A17465   7.494  12.598   7.920
 1195POPC   C4A17466   7.196  12.531   7.590
 1195POPC   C1B17467   7.613  13.087   8.676
 1195POPC   C2B17468   7.770  13.101   8.225
 1195POPC   C3B17469   7.528  13.157   7.841
 1195POPC   C4B17470   7.400  13.423   7.482
 1196POPC   NC317471   9.433  30.367   9.292
 1196POPC   PO417472   9.855  30.002   9.680
 1196POPC   GL117473   9.874  29.986   9.182
 1196POPC   GL217474   9.592  30.058   8.934
 1196POPC   C1A17475   9.878  29.670   8.821
 1196POPC   D2A17476   9.965  29.751   8.392
 1196POPC   C3A17477   9.762  29.641   8.009
 1196POPC   C4A17478   9.550  29.876   7.714
 1196POPC   C1B17479   9.389  29.755   8.629
 1196POPC   C2B17480   9.325  29.873   8.187
 1196POPC   C3B17481   9.226  30.253   7.899
 1196POPC   C4B17482   9.237  30.536   7.519
 1197POPC   NC317483  27.282  10.049   9.466
 1197POPC   PO417484  27.337   9.452   9.223
 1197POPC   GL117485  27.502   9.779   9.036
 1197POPC   GL217486  27.788   9.848   9.261
 1197POPC   C1A17487  27.606   9.724   8.585
 1197POPC   D2A17488  27.415   9.937   8.256
 1197POPC   C3A17489  27.272   9.702   7.913
 1197POPC   C4A17490  27.458   9.345   7.832
 1197POPC   C1B17491  27.932   9.987   8.865
 1197POPC   C2B17492  27.951  10.120   8.456
 1197POPC   C3B17493  27.910   9.980   8.082
 1197POPC   C4B17494  27.931   9.760   7.752
 1198POPC   NC317495   4.581  37.043   9.360
 1198POPC   PO417496   4.011  36.722   9.460
 1198POPC   GL117497   4.206  36.814   9.090
 1198POPC   GL217498   4.255  37.169   8.971
 1198POPC   C1A17499   4.050  36.764   8.706
 1198POPC   D2A17500   4.103  37.077   8.454
 1198POPC   C3A17501   4.379  36.972   8.105
 1198POPC   C4A17502   4.219  36.654   7.793
 1198POPC   C1B17503   4.581  37.108   8.663
 1198POPC   C2B17504   4.738  37.332   8.313
 1198POPC   C3B17505   4.601  37.405   7.880
 1198POPC   C4B17506   4.435  37.094   7.578
 1199POPC   NC317507  20.036  21.650   9.615
 1199POPC   PO417508  19.722  21.042   9.433
 1199POPC   GL117509  19.929  21.303   9.117
 1199POPC   GL217510  20.090  21.647   9.120
 1199POPC   C1A17511  19.702  21.476   8.758
 1199POPC   D2A17512  19.517  21.320   8.385
 1199POPC   C3A17513  19.595  21.553   8.041
 1199POPC   C4A17514  19.641  21.325   7.693
 1199POPC   C1B17515  20.201  21.598   8.707
 1199POPC   C2B17516  20.069  21.433   8.308
 1199POPC   C3B17517  20.081  21.540   7.860
 1199POPC   C4B17518  20.045  21.875   7.622
 1200POPC   NC317519  28.657  36.358   9.362
 1200POPC   PO417520  28.372  35.713   9.450
 1200POPC   GL117521  28.392  35.986   9.077
 1200POPC   GL217522  28.682  36.119   8.879
 1200POPC   C1A17523  28.138  36.144   8.721
 1200POPC   D2A17524  28.234  36.205   8.284
 1200POPC   C3A17525  28.426  35.930   7.986
 1200POPC   C4A17526  28.581  36.159   7.627
 1200POPC   C1B17527  28.522  36.515   8.690
 1200POPC   C2B17528  28.114  36.656   8.501
 1200POPC   C3B17529  28.002  36.598   8.060
 1200POPC   C4B17530  28.153  36.421   7.679
 1201POPC   NC317531  29.655  20.836   9.294
 1201POPC   PO417532  29.602  20.127   9.410
 1201POPC   GL117533  29.932  20.384   9.155
 1201POPC   GL217534  30.157  20.727   9.191
 1201POPC   C1A17535  29.866  20.456   8.724
 1201POPC   D2A17536  29.761  20.250   8.344
 1201POPC   C3A17537  29.840  20.586   8.046
 1201POPC   C4A17538  29.627  20.798   7.733
 1201POPC   C1B17539  30.356  20.540   8.809
 1201POPC   C2B17540  30.271  20.414   8.355
 1201POPC   C3B17541  30.327  20.576   7.924
 1201POPC   C4B17542  30.092  20.666   7.578
 1202POPC   NC317543  31.730  31.034   9.522
 1202POPC   PO417544  31.405  30.547   9.774
 1202POPC   GL117545  31.363  30.688   9.318
 1202POPC   GL217546  31.635  30.612   9.135
 1202POPC   C1A17547  31.425  31.025   8.937
 1202POPC   D2A17548  31.517  31.108   8.515
 1202POPC   C3A17549  31.335  30.887   8.166
 1202POPC   C4A17550  31.505  30.899   7.745
 1202POPC   C1B17551  31.312  30.579   8.771
 1202POPC   C2B17552  31.225  30.409   8.370
 1202POPC   C3B17553  31.351  30.422   7.934
 1202POPC   C4B17554  31.552  30.455   7.507
 1203POPC   NC317555  11.485  32.065   9.641
 1203POPC   PO417556  10.959  32.471   9.512
 1203POPC   GL117557  11.311  32.331   9.229
 1203POPC   GL217558  11.514  32.604   9.097
 1203POPC   C1A17559  11.416  32.185   8.796
 1203POPC   D2A17560  11.231  31.985   8.412
 1203POPC   C3A17561  11.405  32.165   8.023
 1203POPC   C4A17562  11.300  32.088   7.585
 1203POPC   C1B17563  11.133  32.635   8.844
 1203POPC   C2B17564  11.090  32.517   8.397
 1203POPC   C3B17565  11.016  32.496   7.941
 1203POPC   C4B17566  11.107  32.563   7.483
 1204POPC   NC317567  16.557  37.056   9.633
 1204POPC   PO417568  17.096  37.187   9.397
 1204POPC   GL117569  16.792  37.088   9.056
 1204POPC   GL217570  16.681  36.739   8.987
 1204POPC   C1A17571  16.792  37.045   8.582
 1204POPC   D2A17572  16.522  36.878   8.236
 1204POPC   C3A17573  16.753  36.882   7.863
 1204POPC   C4A17574  17.106  37.132   7.771
 1204POPC   C1B17575  16.969  36.573   8.688
 1204POPC   C2B17576  16.950  36.603   8.248
 1204POPC   C3B17577  17.071  36.471   7.841
 1204POPC   C4B17578  17.024  36.676   7.473
 1205POPC   NC317579  36.942   4.909   9.647
 1205POPC   PO417580  36.850   5.531   9.483
 1205POPC   GL117581  37.037   5.210   9.218
 1205POPC   GL217582  37.188   5.495   9.041
 1205POPC   C1A17583  36.986   4.935   8.837
 1205POPC   D2A17584  36.857   5.047   8.427
 1205POPC   C3A17585  36.848   4.809   8.025
 1205POPC   C4A17586  36.876   5.157   7.720
 1205POPC   C1B17587  36.761   5.415   8.835
 1205POPC   C2B17588  36.419   5.264   8.548
 1205POPC   C3B17589  36.456   5.138   8.112
 1205POPC   C4B17590  36.448   5.418   7.739
 1206POPC   NC317591   8.102   3.286   9.508
 1206POPC   PO417592   8.507   3.837   9.453
 1206POPC   GL117593   8.310   3.645   9.101
 1206POPC   GL217594   8.419   3.311   9.111
 1206POPC   C1A17595   8.449   3.634   8.663
 1206POPC   D2A17596   8.580   3.538   8.227
 1206POPC   C3A17597   8.298   3.764   7.958
 1206POPC   C4A17598   8.336   3.980   7.549
 1206POPC   C1B17599   8.107   3.250   8.782
 1206POPC   C2B17600   8.089   3.427   8.359
 1206POPC   C3B17601   7.974   3.364   7.936
 1206POPC   C4B17602   8.134   3.514   7.517
 1207POPC   NC317603   8.845  39.326   9.977
 1207POPC   PO417604   9.152  39.726   9.553
 1207POPC   GL117605   9.199  39.352   9.316
 1207POPC   GL217606   8.870  39.334   9.173
 1207POPC   C1A17607   9.296  39.246   8.887
 1207POPC   D2A17608   9.163  39.290   8.472
 1207POPC   C3A17609   9.111  39.351   8.053
 1207POPC   C4A17610   8.946  39.250   7.677
 1207POPC   C1B17611   8.785  39.089   8.776
 1207POPC   C2B17612   8.685  39.211   8.346
 1207POPC   C3B17613   8.658  38.981   7.989
 1207POPC   C4B17614   8.617  38.848   7.589
 1208POPC   NC317615  31.581   4.711   9.568
 1208POPC   PO417616  31.345   5.367   9.523
 1208POPC   GL117617  31.616   5.150   9.242
 1208POPC   GL217618  31.393   4.890   9.112
 1208POPC   C1A17619  31.800   5.032   8.827
 1208POPC   D2A17620  31.567   4.895   8.449
 1208POPC   C3A17621  31.755   4.969   8.043
 1208POPC   C4A17622  31.860   5.413   7.887
 1208POPC   C1B17623  31.340   5.245   8.828
 1208POPC   C2B17624  31.448   5.425   8.462
 1208POPC   C3B17625  31.383   5.323   8.055
 1208POPC   C4B17626  31.353   5.025   7.718
 1209POPC   NC317627  17.375   2.349   9.563
 1209POPC   PO417628  17.170   3.008   9.651
 1209POPC   GL117629  17.439   2.824   9.297
 1209POPC   GL217630  17.314   2.546   9.113
 1209POPC   C1A17631  17.617   2.951   8.891
 1209POPC   D2A17632  17.765   2.827   8.471
 1209POPC   C3A17633  17.553   2.885   8.096
 1209POPC   C4A17634  17.744   2.811   7.727
 1209POPC   C1B17635  17.541   2.455   8.754
 1209POPC   C2B17636  17.423   2.419   8.322
 1209POPC   C3B17637  17.514   2.400   7.887
 1209POPC   C4B17638  17.339   2.595   7.528
 1210POPC   NC317639  35.490  28.979   9.469
 1210POPC   PO417640  35.134  29.563   9.485
 1210POPC   GL117641  35.126  29.213   9.196
 1210POPC   GL217642  35.430  29.345   9.086
 1210POPC   C1A17643  35.303  28.972   8.785
 1210POPC   D2A17644  35.159  28.867   8.352
 1210POPC   C3A17645  35.050  29.165   8.022
 1210POPC   C4A17646  35.202  29.013   7.649
 1210POPC   C1B17647  35.093  29.417   8.746
 1210POPC   C2B17648  35.330  29.348   8.395
 1210POPC   C3B17649  35.707  29.397   8.143
 1210POPC   C4B17650  35.744  29.548   7.755
 1211POPC   NC317651   5.862  33.617   9.496
 1211POPC   PO417652   5.512  34.137   9.641
 1211POPC   GL117653   5.757  34.052   9.239
 1211POPC   GL217654   6.134  33.949   9.196
 1211POPC   C1A17655   5.687  33.856   8.841
 1211POPC   D2A17656   5.868  34.006   8.478
 1211POPC   C3A17657   5.645  33.950   8.130
 1211POPC   C4A17658   5.775  34.087   7.776
 1211POPC   C1B17659   6.189  33.727   8.805
 1211POPC   C2B17660   6.300  33.759   8.395
 1211POPC   C3B17661   6.097  33.724   8.019
 1211POPC   C4B17662   6.219  33.856   7.631
 1212POPC   NC317663  18.276   5.466   9.627
 1212POPC   PO417664  18.142   6.113   9.490
 1212POPC   GL117665  18.181   5.905   9.135
 1212POPC   GL217666  18.530   5.949   9.144
 1212POPC   C1A17667  18.063   5.943   8.687
 1212POPC   D2A17668  18.150   6.144   8.293
 1212POPC   C3A17669  18.349   5.955   7.934
 1212POPC   C4A17670  18.126   5.899   7.556
 1212POPC   C1B17671  18.507   5.714   8.791
 1212POPC   C2B17672  18.493   5.769   8.399
 1212POPC   C3B17673  18.665   5.591   8.064
 1212POPC   C4B17674  18.565   5.594   7.635
 1213POPC   NC317675   4.038  35.600   9.620
 1213POPC   PO417676   4.260  34.998   9.558
 1213POPC   GL117677   4.451  35.145   9.179
 1213POPC   GL217678   4.242  35.403   9.187
 1213POPC   C1A17679   4.577  35.229   8.734
 1213POPC   D2A17680   4.339  35.175   8.340
 1213POPC   C3A17681   4.542  35.192   7.934
 1213POPC   C4A17682   4.497  35.326   7.488
 1213POPC   C1B17683   4.144  35.496   8.791
 1213POPC   C2B17684   4.281  35.665   8.424
 1213POPC   C3B17685   4.185  35.562   7.983
 1213POPC   C4B17686   3.988  35.413   7.591
 1214POPC   NC317687   6.890  21.012   9.522
 1214POPC   PO417688   7.047  20.300   9.538
 1214POPC   GL117689   6.797  20.370   9.149
 1214POPC   GL217690   6.683  20.706   9.122
 1214POPC   C1A17691   6.660  20.336   8.739
 1214POPC   D2A17692   6.531  20.177   8.356
 1214POPC   C3A17693   6.633  20.374   7.979
 1214POPC   C4A17694   6.276  20.615   7.831
 1214POPC   C1B17695   6.651  20.856   8.691
 1214POPC   C2B17696   6.867  21.011   8.317
 1214POPC   C3B17697   6.748  20.873   7.903
 1214POPC   C4B17698   6.649  21.123   7.540
 1215POPC   NC317699  37.773  18.429   9.378
 1215POPC   PO417700  37.215  18.103   9.511
 1215POPC   GL117701  37.554  18.047   9.120
 1215POPC   GL217702  37.957  18.073   9.070
 1215POPC   C1A17703  37.595  18.162   8.702
 1215POPC   D2A17704  37.355  18.203   8.355
 1215POPC   C3A17705  37.611  18.277   8.024
 1215POPC   C4A17706  37.910  18.511   7.780
 1215POPC   C1B17707  38.083  18.365   8.714
 1215POPC   C2B17708  38.098  18.394   8.263
 1215POPC   C3B17709  38.055  18.059   7.985
 1215POPC   C4B17710  37.757  17.947   7.651
 1216POPC   NC317711  24.991  26.515   9.726
 1216POPC   PO417712  25.034  27.161   9.642
 1216POPC   GL117713  25.295  26.888   9.381
 1216POPC   GL217714  25.311  27.122   9.105
 1216POPC   C1A17715  25.424  26.645   8.989
 1216POPC   D2A17716  25.470  26.829   8.568
 1216POPC   C3A17717  25.356  26.650   8.163
 1216POPC   C4A17718  25.499  26.674   7.742
 1216POPC   C1B17719  25.050  27.173   8.718
 1216POPC   C2B17720  24.989  27.252   8.245
 1216POPC   C3B17721  25.189  27.059   7.865
 1216POPC   C4B17722  25.023  26.699   7.557
 1217POPC   NC317723  33.765  24.926   9.490
 1217POPC   PO417724  33.557  25.545   9.575
 1217POPC   GL117725  33.743  25.347   9.160
 1217POPC   GL217726  33.962  25.581   9.015
 1217POPC   C1A17727  33.603  25.245   8.690
 1217POPC   D2A17728  33.569  25.098   8.216
 1217POPC   C3A17729  33.942  25.111   7.903
 1217POPC   C4A17730  34.031  24.857   7.567
 1217POPC   C1B17731  34.085  25.457   8.623
 1217POPC   C2B17732  33.879  25.494   8.240
 1217POPC   C3B17733  33.652  25.516   7.822
 1217POPC   C4B17734  33.859  25.522   7.419
 1218POPC   NC317735  42.481  21.847   9.487
 1218POPC   PO417736  42.185  22.482   9.505
 1218POPC   GL117737  42.087  22.398   9.120
 1218POPC   GL217738  42.419  22.220   9.120
 1218POPC   C1A17739  42.125  22.291   8.707
 1218POPC   D2A17740  42.069  22.035   8.359
 1218POPC   C3A17741  42.098  22.206   7.960
 1218POPC   C4A17742  42.147  22.081   7.559
 1218POPC   C1B17743  42.731  22.156   8.820
 1218POPC   C2B17744  42.572  22.206   8.424
 1218POPC   C3B17745  42.581  22.014   8.060
 1218POPC   C4B17746  42.651  22.151   7.693
 1219POPC   NC317747  18.596  35.920   9.421
 1219POPC   PO417748  18.094  36.166   9.728
 1219POPC   GL117749  18.179  36.129   9.218
 1219POPC   GL217750  17.900  35.875   9.085
 1219POPC   C1A17751  18.494  36.154   8.817
 1219POPC   D2A17752  18.593  36.051   8.381
 1219POPC   C3A17753  18.408  36.269   8.019
 1219POPC   C4A17754  18.304  36.652   7.802
 1219POPC   C1B17755  18.118  35.858   8.692
 1219POPC   C2B17756  18.075  35.968   8.259
 1219POPC   C3B17757  18.026  35.992   7.783
 1219POPC   C4B17758  18.204  35.860   7.360
 1220POPC   NC317759  43.378  22.424   9.616
 1220POPC   PO417760  42.944  21.831   9.505
 1220POPC   GL117761  43.227  21.884   9.163
 1220POPC   GL217762  43.442  22.187   9.161
 1220POPC   C1A17763  43.215  21.972   8.724
 1220POPC   D2A17764  43.079  22.246   8.384
 1220POPC   C3A17765  43.084  22.098   7.965
 1220POPC   C4A17766  42.992  21.779   7.675
 1220POPC   C1B17767  43.445  22.421   8.775
 1220POPC   C2B17768  43.362  22.666   8.392
 1220POPC   C3B17769  43.446  22.443   8.021
 1220POPC   C4B17770  43.340  22.463   7.597
 1221POPC   NC317771  34.987  22.960   9.337
 1221POPC   PO417772  35.618  23.050   9.371
 1221POPC   GL117773  35.433  23.014   9.048
 1221POPC   GL217774  35.328  22.752   9.027
 1221POPC   C1A17775  35.253  23.129   8.682
 1221POPC   D2A17776  35.319  23.434   8.416
 1221POPC   C3A17777  35.357  23.188   8.052
 1221POPC   C4A17778  35.232  23.330   7.676
 1221POPC   C1B17779  34.950  22.694   8.765
 1221POPC   C2B17780  35.065  22.788   8.353
 1221POPC   C3B17781  35.154  22.648   7.970
 1221POPC   C4B17782  35.207  22.845   7.585
 1222POPC   NC317783  44.373  23.261   9.387
 1222POPC   PO417784  44.727  22.652   9.469
 1222POPC   GL117785  44.716  22.975   9.123
 1222POPC   GL217786  44.999  22.867   8.875
 1222POPC   C1A17787  44.657  23.223   8.754
 1222POPC   D2A17788  44.934  23.149   8.410
 1222POPC   C3A17789  44.751  22.826   8.167
 1222POPC   C4A17790  44.581  22.896   7.768
 1222POPC   C1B17791  44.570  22.698   8.740
 1222POPC   C2B17792  44.290  22.638   8.404
 1222POPC   C3B17793  44.342  22.504   7.976
 1222POPC   C4B17794  44.316  22.454   7.499
 1223POPC   NC317795   0.672  10.185   9.504
 1223POPC   PO417796   0.427  10.804   9.493
 1223POPC   GL117797   0.464  10.509   9.175
 1223POPC   GL217798   0.170  10.256   9.176
 1223POPC   C1A17799   0.657  10.562   8.769
 1223POPC   D2A17800   0.741  10.714   8.365
 1223POPC   C3A17801   0.427  10.799   8.065
 1223POPC   C4A17802   0.608  10.628   7.719
 1223POPC   C1B17803   0.119  10.580   8.835
 1223POPC   C2B17804   0.128  10.552   8.418
 1223POPC   C3B17805  44.918  10.535   8.045
 1223POPC   C4B17806   0.109  10.630   7.651
 1224POPC   NC317807  41.432  15.582  10.034
 1224POPC   PO417808  41.399  16.015   9.475
 1224POPC   GL117809  41.529  16.031   9.070
 1224POPC   GL217810  41.152  16.058   8.986
 1224POPC   C1A17811  41.825  15.961   8.721
 1224POPC   D2A17812  41.779  16.042   8.285
 1224POPC   C3A17813  41.826  15.962   7.858
 1224POPC   C4A17814  41.733  15.924   7.407
 1224POPC   C1B17815  41.316  16.201   8.619
 1224POPC   C2B17816  41.296  15.941   8.276
 1224POPC   C3B17817  41.326  15.843   7.868
 1224POPC   C4B17818  41.229  16.119   7.525
 1225POPC   NC317819   9.367  43.381   9.478
 1225POPC   PO417820   8.881  42.939   9.679
 1225POPC   GL117821   9.052  43.123   9.217
 1225POPC   GL217822   9.303  42.991   9.036
 1225POPC   C1A17823   8.931  43.208   8.759
 1225POPC   D2A17824   9.110  43.016   8.386
 1225POPC   C3A17825   8.812  43.076   8.041
 1225POPC   C4A17826   8.831  43.334   7.664
 1225POPC   C1B17827   9.398  43.364   8.705
 1225POPC   C2B17828   9.254  43.499   8.261
 1225POPC   C3B17829   9.282  43.231   7.882
 1225POPC   C4B17830   9.268  43.232   7.396
 1226POPC   NC317831  19.666  28.912   9.489
 1226POPC   PO417832  20.125  29.440   9.748
 1226POPC   GL117833  19.914  29.360   9.290
 1226POPC   GL217834  19.971  29.019   9.082
 1226POPC   C1A17835  19.756  29.393   8.836
 1226POPC   D2A17836  19.955  29.201   8.486
 1226POPC   C3A17837  19.931  29.168   8.029
 1226POPC   C4A17838  20.044  29.010   7.614
 1226POPC   C1B17839  19.751  28.797   8.720
 1226POPC   C2B17840  19.596  28.863   8.260
 1226POPC   C3B17841  19.596  28.794   7.811
 1226POPC   C4B17842  19.793  28.562   7.458
 1227POPC   NC317843  15.170  22.935   9.644
 1227POPC   PO417844  15.027  22.652   9.104
 1227POPC   GL117845  15.017  23.104   9.052
 1227POPC   GL217846  15.338  23.189   9.184
 1227POPC   C1A17847  14.983  23.180   8.608
 1227POPC   D2A17848  14.967  22.774   8.380
 1227POPC   C3A17849  14.775  22.781   7.973
 1227POPC   C4A17850  14.933  22.860   7.566
 1227POPC   C1B17851  15.486  23.293   8.774
 1227POPC   C2B17852  15.450  22.989   8.427
 1227POPC   C3B17853  15.281  22.946   8.016
 1227POPC   C4B17854  15.199  23.280   7.742
 1228POPC   NC317855   2.630  31.105   9.457
 1228POPC   PO417856   2.905  31.762   9.264
 1228POPC   GL117857   2.615  31.484   9.096
 1228POPC   GL217858   2.853  31.239   8.968
 1228POPC   C1A17859   2.438  31.372   8.709
 1228POPC   D2A17860   2.732  31.289   8.389
 1228POPC   C3A17861   2.657  31.519   8.040
 1228POPC   C4A17862   2.722  31.166   7.827
 1228POPC   C1B17863   3.012  31.595   8.653
 1228POPC   C2B17864   3.142  31.611   8.197
 1228POPC   C3B17865   3.112  31.527   7.727
 1228POPC   C4B17866   3.102  31.638   7.250
 1229POPC   NC317867   3.975  24.263   9.491
 1229POPC   PO417868   4.460  24.745   9.661
 1229POPC   GL117869   4.522  24.688   9.168
 1229POPC   GL217870   4.187  24.633   9.072
 1229POPC   C1A17871   4.541  24.373   8.772
 1229POPC   D2A17872   4.270  24.342   8.426
 1229POPC   C3A17873   4.528  24.336   8.066
 1229POPC   C4A17874   4.441  24.133   7.685
 1229POPC   C1B17875   4.321  24.805   8.666
 1229POPC   C2B17876   4.096  24.866   8.317
 1229POPC   C3B17877   4.057  24.578   8.012
 1229POPC   C4B17878   4.334  24.626   7.702
 1230POPC   NC317879   0.613  36.234   9.393
 1230POPC   PO417880   0.345  35.588   9.500
 1230POPC   GL117881   0.246  35.911   9.190
 1230POPC   GL217882  44.928  36.095   9.192
 1230POPC   C1A17883   0.401  36.034   8.809
 1230POPC   D2A17884   0.584  35.863   8.463
 1230POPC   C3A17885   0.658  36.143   8.153
 1230POPC   C4A17886   0.595  36.053   7.765
 1230POPC   C1B17887  44.933  36.244   8.761
 1230POPC   C2B17888   0.214  36.253   8.395
 1230POPC   C3B17889   0.160  36.289   7.990
 1230POPC   C4B17890   0.002  36.548   7.687
 1231POPC   NC317891  31.080  21.614   9.526
 1231POPC   PO417892  31.741  21.335   9.497
 1231POPC   GL117893  31.408  21.324   9.242
 1231POPC   GL217894  31.450  21.639   9.158
 1231POPC   C1A17895  31.361  21.241   8.820
 1231POPC   D2A17896  31.543  21.198   8.425
 1231POPC   C3A17897  31.347  21.310   8.061
 1231POPC   C4A17898  31.478  21.332   7.675
 1231POPC   C1B17899  31.544  21.717   8.756
 1231POPC   C2B17900  31.382  21.717   8.362
 1231POPC   C3B17901  31.571  21.754   7.960
 1231POPC   C4B17902  31.561  21.830   7.523
 1232POPC   NC317903   1.347  29.595   9.539
 1232POPC   PO417904   0.955  30.071   9.361
 1232POPC   GL117905   1.226  29.875   9.098
 1232POPC   GL217906   1.563  29.984   9.086
 1232POPC   C1A17907   1.256  29.776   8.685
 1232POPC   D2A17908   1.485  29.899   8.336
 1232POPC   C3A17909   1.327  29.750   7.958
 1232POPC   C4A17910   0.977  29.883   7.723
 1232POPC   C1B17911   1.491  30.263   8.710
 1232POPC   C2B17912   1.590  30.432   8.276
 1232POPC   C3B17913   1.430  30.272   7.877
 1232POPC   C4B17914   1.531  29.976   7.539
 1233POPC   NC317915  35.184   1.984   9.556
 1233POPC   PO417916  35.899   2.064   9.623
 1233POPC   GL117917  35.558   2.145   9.277
 1233POPC   GL217918  35.555   1.887   9.086
 1233POPC   C1A17919  35.411   2.249   8.803
 1233POPC   D2A17920  35.367   2.105   8.354
 1233POPC   C3A17921  35.173   2.285   8.007
 1233POPC   C4A17922  35.397   2.241   7.667
 1233POPC   C1B17923  35.416   1.743   8.700
 1233POPC   C2B17924  35.227   1.485   8.414
 1233POPC   C3B17925  35.339   1.638   8.032
 1233POPC   C4B17926  35.405   1.706   7.590
 1234POPC   NC317927  21.027  40.385   9.485
 1234POPC   PO417928  21.496  40.914   9.538
 1234POPC   GL117929  21.305  40.721   9.167
 1234POPC   GL217930  21.526  40.425   9.087
 1234POPC   C1A17931  21.094  40.778   8.746
 1234POPC   D2A17932  21.085  40.600   8.328
 1234POPC   C3A17933  21.066  40.831   7.904
 1234POPC   C4A17934  21.070  40.629   7.447
 1234POPC   C1B17935  21.547  40.566   8.711
 1234POPC   C2B17936  21.516  40.846   8.413
 1234POPC   C3B17937  21.528  40.680   8.076
 1234POPC   C4B17938  21.500  40.767   7.683
 1235POPC   NC317939  20.083   0.272   9.560
 1235POPC   PO417940  19.436   0.415   9.517
 1235POPC   GL117941  19.670   0.251   9.169
 1235POPC   GL217942  19.992   0.216   9.058
 1235POPC   C1A17943  19.597   0.292   8.754
 1235POPC   D2A17944  19.800   0.448   8.428
 1235POPC   C3A17945  19.610   0.315   8.059
 1235POPC   C4A17946  19.944   0.330   7.778
 1235POPC   C1B17947  20.168   0.052   8.661
 1235POPC   C2B17948  20.285   0.165   8.242
 1235POPC   C3B17949  20.351  44.981   7.836
 1235POPC   C4B17950  20.075  44.951   7.495
 1236POPC   NC317951  13.400  32.359   9.510
 1236POPC   PO417952  13.998  32.349   9.341
 1236POPC   GL117953  13.658  32.155   9.088
 1236POPC   GL217954  13.327  32.397   9.015
 1236POPC   C1A17955  13.812  32.006   8.664
 1236POPC   D2A17956  13.888  31.904   8.204
 1236POPC   C3A17957  13.535  31.946   7.893
 1236POPC   C4A17958  13.260  32.317   7.792
 1236POPC   C1B17959  13.704  32.544   8.773
 1236POPC   C2B17960  13.922  32.450   8.403
 1236POPC   C3B17961  13.785  32.389   7.997
 1236POPC   C4B17962  13.899  32.333   7.594
 1237POPC   NC317963  29.035   4.616   9.508
 1237POPC   PO417964  28.888   4.029   9.514
 1237POPC   GL117965  29.180   4.133   9.172
 1237POPC   GL217966  29.333   4.450   9.135
 1237POPC   C1A17967  29.080   4.240   8.740
 1237POPC   D2A17968  28.794   4.142   8.398
 1237POPC   C3A17969  29.006   4.050   8.010
 1237POPC   C4A17970  29.177   4.261   7.668
 1237POPC   C1B17971  29.515   4.505   8.751
 1237POPC   C2B17972  29.333   4.581   8.347
 1237POPC   C3B17973  29.477   4.600   7.913
 1237POPC   C4B17974  29.431   4.617   7.435
 1238POPC   NC317975  20.719  34.175   9.359
 1238POPC   PO417976  20.547  33.549   9.530
 1238POPC   GL117977  20.923  33.627   9.192
 1238POPC   GL217978  21.003  33.960   9.025
 1238POPC   C1A17979  20.891  33.574   8.715
 1238POPC   D2A17980  20.525  33.636   8.448
 1238POPC   C3A17981  20.527  33.669   7.994
 1238POPC   C4A17982  20.416  34.006   7.702
 1238POPC   C1B17983  20.796  34.096   8.671
 1238POPC   C2B17984  20.980  33.934   8.323
 1238POPC   C3B17985  20.854  34.079   7.950
 1238POPC   C4B17986  20.843  34.261   7.560
 1239POPC   NC317987  16.842   9.036   9.637
 1239POPC   PO417988  16.407   8.788   9.187
 1239POPC   GL117989  16.734   9.019   9.115
 1239POPC   GL217990  16.927   8.773   9.210
 1239POPC   C1A17991  16.705   9.211   8.732
 1239POPC   D2A17992  16.880   9.304   8.352
 1239POPC   C3A17993  16.609   9.131   8.056
 1239POPC   C4A17994  16.720   8.985   7.670
 1239POPC   C1B17995  16.918   8.639   8.793
 1239POPC   C2B17996  16.834   8.802   8.418
 1239POPC   C3B17997  16.767   8.608   8.047
 1239POPC   C4B17998  16.856   8.493   7.652
 1240POPC   NC317999  20.522  11.399   9.553
 1240POPC   PO418000  21.096  11.511   9.331
 1240POPC   GL118001  20.769  11.240   9.089
 1240POPC   GL218002  20.361  11.174   9.139
 1240POPC   C1A18003  20.552  11.313   8.694
 1240POPC   D2A18004  20.645  11.250   8.305
 1240POPC   C3A18005  20.573  11.482   7.971
 1240POPC   C4A18006  20.919  11.444   7.729
 1240POPC   C1B18007  20.180  11.010   8.785
 1240POPC   C2B18008  20.294  10.893   8.352
 1240POPC   C3B18009  20.270  11.079   7.921
 1240POPC   C4B18010  20.486  11.232   7.506
 1241POPC   NC318011   8.344   6.482   9.479
 1241POPC   PO418012   7.771   6.758   9.568
 1241POPC   GL118013   8.033   6.786   9.151
 1241POPC   GL218014   7.841   7.001   8.946
 1241POPC   C1A18015   8.060   6.607   8.680
 1241POPC   D2A18016   7.810   6.465   8.272
 1241POPC   C3A18017   8.033   6.506   7.859
 1241POPC   C4A18018   8.362   6.407   7.527
 1241POPC   C1B18019   8.236   7.077   8.658
 1241POPC   C2B18020   8.417   7.031   8.233
 1241POPC   C3B18021   8.410   6.850   7.822
 1241POPC   C4B18022   8.286   6.898   7.370
 1242POPC   NC318023  33.823   1.907   9.662
 1242POPC   PO418024  34.070   2.458   9.527
 1242POPC   GL118025  33.691   2.245   9.251
 1242POPC   GL218026  33.676   1.851   9.166
 1242POPC   C1A18027  33.642   2.185   8.777
 1242POPC   D2A18028  33.897   1.946   8.479
 1242POPC   C3A18029  33.877   1.919   8.028
 1242POPC   C4A18030  34.120   2.093   7.662
 1242POPC   C1B18031  33.465   1.702   8.770
 1242POPC   C2B18032  33.408   1.882   8.352
 1242POPC   C3B18033  33.400   1.715   7.932
 1242POPC   C4B18034  33.664   1.816   7.566
 1243POPC   NC318035  36.208   7.149   9.533
 1243POPC   PO418036  35.725   7.628   9.556
 1243POPC   GL118037  35.990   7.463   9.201
 1243POPC   GL218038  36.304   7.460   9.121
 1243POPC   C1A18039  35.951   7.489   8.742
 1243POPC   D2A18040  36.007   7.811   8.405
 1243POPC   C3A18041  35.981   7.578   8.051
 1243POPC   C4A18042  36.101   7.441   7.689
 1243POPC   C1B18043  36.424   7.293   8.713
 1243POPC   C2B18044  36.375   7.464   8.367
 1243POPC   C3B18045  36.460   7.314   8.019
 1243POPC   C4B18046  36.543   7.172   7.661
 1244POPC   NC318047  23.771  35.294   9.751
 1244POPC   PO418048  23.488  35.703   9.308
 1244POPC   GL118049  23.749  35.396   9.066
 1244POPC   GL218050  24.077  35.285   9.177
 1244POPC   C1A18051  23.644  35.236   8.676
 1244POPC   D2A18052  23.689  35.484   8.329
 1244POPC   C3A18053  23.575  35.310   7.971
 1244POPC   C4A18054  23.633  35.481   7.619
 1244POPC   C1B18055  24.119  35.400   8.714
 1244POPC   C2B18056  24.132  35.239   8.284
 1244POPC   C3B18057  24.062  35.213   7.820
 1244POPC   C4B18058  24.174  35.153   7.375
 1245POPC   NC318059  21.032   7.103   9.402
 1245POPC   PO418060  20.613   7.550   9.674
 1245POPC   GL118061  20.560   7.674   9.156
 1245POPC   GL218062  20.330   7.984   9.139
 1245POPC   C1A18063  20.755   7.524   8.752
 1245POPC   D2A18064  20.769   7.161   8.495
 1245POPC   C3A18065  20.745   7.256   8.047
 1245POPC   C4A18066  20.786   7.540   7.705
 1245POPC   C1B18067  20.242   7.738   8.759
 1245POPC   C2B18068  20.385   7.520   8.386
 1245POPC   C3B18069  20.366   7.674   7.992
 1245POPC   C4B18070  20.136   7.546   7.647
 1246POPC   NC318071  15.489  10.307   9.353
 1246POPC   PO418072  14.924  10.434   9.719
 1246POPC   GL118073  15.025  10.663   9.250
 1246POPC   GL218074  15.376  10.807   9.220
 1246POPC   C1A18075  15.191  10.558   8.787
 1246POPC   D2A18076  15.267  10.209   8.488
 1246POPC   C3A18077  15.238  10.308   8.047
 1246POPC   C4A18078  14.917  10.380   7.713
 1246POPC   C1B18079  15.202  11.054   8.880
 1246POPC   C2B18080  14.987  10.948   8.474
 1246POPC   C3B18081  15.066  10.975   8.018
 1246POPC   C4B18082  15.305  10.723   7.701
 1247POPC   NC318083  23.376   5.316   9.380
 1247POPC   PO418084  24.019   5.133   9.579
 1247POPC   GL118085  23.899   5.256   9.151
 1247POPC   GL218086  23.653   5.009   9.054
 1247POPC   C1A18087  23.742   5.324   8.682
 1247POPC   D2A18088  23.564   5.442   8.240
 1247POPC   C3A18089  23.608   5.163   7.885
 1247POPC   C4A18090  23.905   5.325   7.619
 1247POPC   C1B18091  23.976   4.843   8.821
 1247POPC   C2B18092  24.000   4.941   8.414
 1247POPC   C3B18093  24.131   5.086   8.035
 1247POPC   C4B18094  24.045   4.833   7.711
 1248POPC   NC318095   8.959   3.868   9.404
 1248POPC   PO418096   9.208   3.292   9.525
 1248POPC   GL118097   8.980   3.293   9.148
 1248POPC   GL218098   8.826   3.599   9.004
 1248POPC   C1A18099   9.093   3.231   8.723
 1248POPC   D2A18100   9.109   3.436   8.306
 1248POPC   C3A18101   8.970   3.382   7.866
 1248POPC   C4A18102   8.674   3.628   7.670
 1248POPC   C1B18103   9.167   3.758   8.769
 1248POPC   C2B18104   9.251   3.923   8.376
 1248POPC   C3B18105   8.949   3.869   8.050
 1248POPC   C4B18106   9.163   3.809   7.666
 1249POPC   NC318107   4.129  16.790   9.622
 1249POPC   PO418108   4.734  16.649   9.465
 1249POPC   GL118109   4.388  16.871   9.192
 1249POPC   GL218110   4.121  17.139   9.233
 1249POPC   C1A18111   4.083  16.817   8.827
 1249POPC   D2A18112   4.190  16.965   8.393
 1249POPC   C3A18113   4.232  16.721   7.997
 1249POPC   C4A18114   4.566  16.637   7.694
 1249POPC   C1B18115   4.349  17.255   8.833
 1249POPC   C2B18116   4.631  17.265   8.476
 1249POPC   C3B18117   4.613  17.072   8.066
 1249POPC   C4B18118   4.383  17.142   7.712
 1250POPC   NC318119  22.294  43.913   9.437
 1250POPC   PO418120  21.642  44.001   9.406
 1250POPC   GL118121  21.946  44.072   9.061
 1250POPC   GL218122  22.159  43.764   8.949
 1250POPC   C1A18123  21.919  44.135   8.616
 1250POPC   D2A18124  21.817  43.763   8.408
 1250POPC   C3A18125  21.939  43.644   8.009
 1250POPC   C4A18126  22.124  43.931   7.739
 1250POPC   C1B18127  22.383  43.921   8.562
 1250POPC   C2B18128  22.475  43.829   8.126
 1250POPC   C3B18129  22.394  43.504   7.816
 1250POPC   C4B18130  22.165  43.499   7.424
 1251POPC   NC318131  36.553   4.291   9.487
 1251POPC   PO418132  37.221   4.564   9.553
 1251POPC   GL118133  37.060   4.394   9.219
 1251POPC   GL218134  36.807   4.636   9.226
 1251POPC   C1A18135  37.174   4.344   8.791
 1251POPC   D2A18136  36.928   4.240   8.440
 1251POPC   C3A18137  37.087   4.319   8.045
 1251POPC   C4A18138  37.043   4.039   7.701
 1251POPC   C1B18139  36.671   4.492   8.836
 1251POPC   C2B18140  36.572   4.613   8.430
 1251POPC   C3B18141  36.465   4.471   8.056
 1251POPC   C4B18142  36.716   4.407   7.713
 1252POPC   NC318143  44.394  17.619   9.590
 1252POPC   PO418144  43.690  17.641   9.601
 1252POPC   GL118145  43.762  17.642   9.165
 1252POPC   GL218146  44.018  17.425   9.091
 1252POPC   C1A18147  43.673  17.530   8.719
 1252POPC   D2A18148  43.661  17.330   8.309
 1252POPC   C3A18149  43.799  17.478   7.879
 1252POPC   C4A18150  43.699  17.604   7.395
 1252POPC   C1B18151  44.082  17.182   8.736
 1252POPC   C2B18152  44.263  17.184   8.334
 1252POPC   C3B18153  44.132  17.081   7.926
 1252POPC   C4B18154  44.003  17.206   7.501
 1253POPC   NC318155  26.723  28.465   9.588
 1253POPC   PO418156  26.304  28.984   9.378
 1253POPC   GL118157  26.633  28.743   9.116
 1253POPC   GL218158  26.820  28.411   9.113
 1253POPC   C1A18159  26.786  28.660   8.676
 1253POPC   D2A18160  26.862  28.768   8.266
 1253POPC   C3A18161  26.832  28.473   7.927
 1253POPC   C4A18162  27.212  28.192   7.937
 1253POPC   C1B18163  26.983  28.205   8.788
 1253POPC   C2B18164  26.913  28.168   8.372
 1253POPC   C3B18165  26.640  28.006   8.065
 1253POPC   C4B18166  26.658  28.050   7.649
 1254POPC   NC318167   0.187  17.078   9.610
 1254POPC   PO418168   0.647  16.560   9.547
 1254POPC   GL118169   0.481  16.835   9.238
 1254POPC   GL218170   0.173  16.678   9.238
 1254POPC   C1A18171   0.488  16.774   8.782
 1254POPC   D2A18172   0.721  16.884   8.394
 1254POPC   C3A18173   0.530  16.793   7.990
 1254POPC   C4A18174   0.280  16.731   7.628
 1254POPC   C1B18175   0.099  16.425   8.871
 1254POPC   C2B18176   0.033  16.472   8.429
 1254POPC   C3B18177   0.208  16.383   8.006
 1254POPC   C4B18178   0.138  16.237   7.613
 1255POPC   NC318179   8.683   7.350   9.368
 1255POPC   PO418180   9.171   7.748   9.464
 1255POPC   GL118181   9.160   7.572   9.035
 1255POPC   GL218182   8.830   7.380   8.893
 1255POPC   C1A18183   9.238   7.426   8.615
 1255POPC   D2A18184   8.925   7.176   8.388
 1255POPC   C3A18185   8.866   7.168   7.964
 1255POPC   C4A18186   9.206   6.896   7.800
 1255POPC   C1B18187   8.839   7.789   8.663
 1255POPC   C2B18188   8.791   7.885   8.192
 1255POPC   C3B18189   8.925   7.649   7.810
 1255POPC   C4B18190   8.763   7.570   7.386
 1256POPC   NC318191   2.616   5.846   9.535
 1256POPC   PO418192   3.182   5.551   9.499
 1256POPC   GL118193   2.951   5.759   9.111
 1256POPC   GL218194   2.570   5.872   9.027
 1256POPC   C1A18195   2.941   5.815   8.644
 1256POPC   D2A18196   2.809   5.511   8.323
 1256POPC   C3A18197   2.853   5.614   7.928
 1256POPC   C4A18198   2.571   5.566   7.632
 1256POPC   C1B18199   2.566   6.154   8.655
 1256POPC   C2B18200   2.673   6.034   8.242
 1256POPC   C3B18201   2.593   6.066   7.845
 1256POPC   C4B18202   2.894   6.314   7.691
 1257POPC   NC318203  39.997  35.976   9.572
 1257POPC   PO418204  39.855  36.687   9.579
 1257POPC   GL118205  39.939  36.488   9.185
 1257POPC   GL218206  39.788  36.159   9.134
 1257POPC   C1A18207  40.219  36.393   8.844
 1257POPC   D2A18208  40.294  36.223   8.422
 1257POPC   C3A18209  39.985  36.249   8.069
 1257POPC   C4A18210  40.014  36.113   7.651
 1257POPC   C1B18211  39.953  35.948   8.747
 1257POPC   C2B18212  39.904  35.799   8.301
 1257POPC   C3B18213  39.628  35.915   7.932
 1257POPC   C4B18214  39.557  35.833   7.479
 1258POPC   NC318215  17.632  12.652   9.536
 1258POPC   PO418216  17.188  13.081   9.272
 1258POPC   GL118217  17.352  12.707   9.119
 1258POPC   GL218218  17.658  12.932   9.121
 1258POPC   C1A18219  17.490  12.499   8.763
 1258POPC   D2A18220  17.717  12.663   8.451
 1258POPC   C3A18221  17.447  12.624   8.094
 1258POPC   C4A18222  17.554  12.550   7.702
 1258POPC   C1B18223  17.491  13.036   8.722
 1258POPC   C2B18224  17.355  13.072   8.341
 1258POPC   C3B18225  17.481  13.224   7.980
 1258POPC   C4B18226  17.226  12.978   7.728
 1259POPC   NC318227  19.946  36.663   9.333
 1259POPC   PO418228  19.798  36.010   9.455
 1259POPC   GL118229  19.795  36.206   9.092
 1259POPC   GL218230  19.504  36.405   9.150
 1259POPC   C1A18231  19.882  36.044   8.679
 1259POPC   D2A18232  20.217  36.006   8.363
 1259POPC   C3A18233  20.082  36.209   8.003
 1259POPC   C4A18234  19.730  36.084   7.791
 1259POPC   C1B18235  19.416  36.291   8.745
 1259POPC   C2B18236  19.641  36.407   8.361
 1259POPC   C3B18237  19.478  36.500   7.963
 1259POPC   C4B18238  19.404  36.407   7.537
 1260POPC   NC318239   0.115   4.256   9.749
 1260POPC   PO418240  44.470   4.223   9.458
 1260POPC   GL118241  44.392   4.218   9.049
 1260POPC   GL218242  44.727   4.239   8.941
 1260POPC   C1A18243  44.345   4.283   8.613
 1260POPC   D2A18244  44.549   4.147   8.256
 1260POPC   C3A18245  44.555   4.476   7.945
 1260POPC   C4A18246  44.571   4.361   7.525
 1260POPC   C1B18247   0.055   4.147   8.661
 1260POPC   C2B18248   0.032   3.936   8.272
 1260POPC   C3B18249  44.887   4.088   7.870
 1260POPC   C4B18250   0.054   4.182   7.471
 1261POPC   NC318251   8.034  43.007   9.534
 1261POPC   PO418252   8.615  42.934   9.239
 1261POPC   GL118253   8.305  43.173   9.011
 1261POPC   GL218254   7.942  43.106   9.038
 1261POPC   C1A18255   8.262  43.046   8.612
 1261POPC   D2A18256   7.908  43.021   8.354
 1261POPC   C3A18257   8.128  43.273   8.104
 1261POPC   C4A18258   8.374  43.216   7.811
 1261POPC   C1B18259   7.948  42.702   8.837
 1261POPC   C2B18260   8.149  42.567   8.496
 1261POPC   C3B18261   8.335  42.771   8.155
 1261POPC   C4B18262   8.173  42.765   7.766
 1262POPC   NC318263   5.339  17.983   9.932
 1262POPC   PO418264   5.683  18.282   9.437
 1262POPC   GL118265   5.947  18.301   9.100
 1262POPC   GL218266   5.700  18.495   8.968
 1262POPC   C1A18267   6.041  18.318   8.642
 1262POPC   D2A18268   5.934  18.021   8.348
 1262POPC   C3A18269   5.957  18.212   7.991
 1262POPC   C4A18270   6.334  18.417   7.895
 1262POPC   C1B18271   5.523  18.276   8.669
 1262POPC   C2B18272   5.603  18.410   8.272
 1262POPC   C3B18273   5.414  18.299   7.894
 1262POPC   C4B18274   5.544  18.096   7.534
 1263POPC   NC318275  10.221  19.797   9.406
 1263POPC   PO418276  10.873  19.569   9.425
 1263POPC   GL118277  10.736  19.865   9.024
 1263POPC   GL218278  10.402  19.782   8.906
 1263POPC   C1A18279  10.840  20.275   8.760
 1263POPC   D2A18280  11.054  20.367   8.362
 1263POPC   C3A18281  10.953  20.014   8.148
 1263POPC   C4A18282  10.624  19.901   7.883
 1263POPC   C1B18283  10.391  19.432   8.582
 1263POPC   C2B18284  10.345  19.506   8.128
 1263POPC   C3B18285  10.298  19.586   7.669
 1263POPC   C4B18286  10.215  19.629   7.217
 1264POPC   NC318287  39.389  16.536   9.471
 1264POPC   PO418288  39.370  17.274   9.513
 1264POPC   GL118289  39.356  16.958   9.181
 1264POPC   GL218290  39.026  16.829   9.206
 1264POPC   C1A18291  39.302  16.703   8.783
 1264POPC   D2A18292  39.232  16.495   8.397
 1264POPC   C3A18293  39.446  16.577   8.018
 1264POPC   C4A18294  39.506  16.751   7.614
 1264POPC   C1B18295  38.885  16.987   8.812
 1264POPC   C2B18296  39.000  16.983   8.359
 1264POPC   C3B18297  39.090  16.942   7.901
 1264POPC   C4B18298  39.013  16.695   7.502
 1265POPC   NC318299   7.222  39.179   9.425
 1265POPC   PO418300   7.903  39.095   9.450
 1265POPC   GL118301   7.614  39.023   9.132
 1265POPC   GL218302   7.530  39.366   9.061
 1265POPC   C1A18303   7.348  38.945   8.773
 1265POPC   D2A18304   7.321  39.191   8.381
 1265POPC   C3A18305   7.674  39.083   8.165
 1265POPC   C4A18306   7.724  38.998   7.769
 1265POPC   C1B18307   7.189  39.495   8.781
 1265POPC   C2B18308   7.243  39.727   8.388
 1265POPC   C3B18309   7.362  39.682   8.004
 1265POPC   C4B18310   7.328  39.319   7.844
 1266POPC   NC318311   9.562  11.844   9.480
 1266POPC   PO418312  10.006  12.302   9.541
 1266POPC   GL118313   9.909  12.092   9.134
 1266POPC   GL218314   9.622  11.900   8.994
 1266POPC   C1A18315   9.919  12.155   8.693
 1266POPC   D2A18316   9.615  12.040   8.433
 1266POPC   C3A18317   9.632  12.352   8.137
 1266POPC   C4A18318   9.765  12.179   7.771
 1266POPC   C1B18319   9.830  11.649   8.754
 1266POPC   C2B18320   9.998  11.690   8.420
 1266POPC   C3B18321   9.773  11.737   8.051
 1266POPC   C4B18322   9.718  11.619   7.660
 1267POPC   NC318323  27.732  14.163   9.507
 1267POPC   PO418324  27.708  13.542   9.755
 1267POPC   GL118325  27.666  13.706   9.285
 1267POPC   GL218326  27.505  13.555   9.018
 1267POPC   C1A18327  27.779  13.933   8.853
 1267POPC   D2A18328  27.613  14.037   8.433
 1267POPC   C3A18329  27.731  13.807   8.083
 1267POPC   C4A18330  27.589  13.782   7.684
 1267POPC   C1B18331  27.257  13.378   8.685
 1267POPC   C2B18332  27.215  13.574   8.316
 1267POPC   C3B18333  27.382  13.439   7.980
 1267POPC   C4B18334  27.332  13.079   7.889
 1268POPC   NC318335  16.046   3.614   9.612
 1268POPC   PO418336  15.553   3.234   9.407
 1268POPC   GL118337  15.837   3.524   9.129
 1268POPC   GL218338  16.189   3.712   9.145
 1268POPC   C1A18339  15.911   3.654   8.688
 1268POPC   D2A18340  15.959   3.576   8.231
 1268POPC   C3A18341  15.816   3.717   7.822
 1268POPC   C4A18342  15.645   3.827   7.415
 1268POPC   C1B18343  16.300   3.343   8.930
 1268POPC   C2B18344  16.304   3.301   8.514
 1268POPC   C3B18345  16.353   3.280   8.086
 1268POPC   C4B18346  16.149   2.959   7.885
 1269POPC   NC318347  25.415  38.306   9.418
 1269POPC   PO418348  24.875  38.742   9.534
 1269POPC   GL118349  25.105  38.730   9.169
 1269POPC   GL218350  25.493  38.746   9.125
 1269POPC   C1A18351  25.164  38.484   8.798
 1269POPC   D2A18352  25.343  38.599   8.414
 1269POPC   C3A18353  25.237  38.346   8.052
 1269POPC   C4A18354  25.169  38.550   7.665
 1269POPC   C1B18355  25.708  38.469   8.802
 1269POPC   C2B18356  25.682  38.206   8.441
 1269POPC   C3B18357  25.723  38.454   8.073
 1269POPC   C4B18358  25.625  38.326   7.665
 1270POPC   NC318359   6.096   1.835   9.539
 1270POPC   PO418360   5.411   1.762   9.581
 1270POPC   GL118361   5.728   1.751   9.173
 1270POPC   GL218362   5.970   2.066   9.115
 1270POPC   C1A18363   5.797   1.819   8.702
 1270POPC   D2A18364   5.473   1.970   8.396
 1270POPC   C3A18365   5.547   2.105   7.981
 1270POPC   C4A18366   5.704   1.949   7.581
 1270POPC   C1B18367   6.193   2.171   8.736
 1270POPC   C2B18368   5.998   2.094   8.316
 1270POPC   C3B18369   6.074   1.944   7.927
 1270POPC   C4B18370   6.199   2.169   7.560
 1271POPC   NC318371  21.198  38.954   9.413
 1271POPC   PO418372  21.831  38.644   9.408
 1271POPC   GL118373  21.630  38.971   9.093
 1271POPC   GL218374  21.440  39.313   9.156
 1271POPC   C1A18375  21.613  39.123   8.668
 1271POPC   D2A18376  21.458  38.866   8.327
 1271POPC   C3A18377  21.426  39.094   7.955
 1271POPC   C4A18378  21.118  39.163   7.641
 1271POPC   C1B18379  21.136  39.271   8.806
 1271POPC   C2B18380  21.193  39.308   8.349
 1271POPC   C3B18381  21.129  39.580   7.972
 1271POPC   C4B18382  21.172  39.650   7.518
 1272POPC   NC318383  41.368  33.971   9.321
 1272POPC   PO418384  41.926  33.737   9.538
 1272POPC   GL118385  41.764  33.683   9.124
 1272POPC   GL218386  41.818  34.025   9.015
 1272POPC   C1A18387  41.546  33.727   8.703
 1272POPC   D2A18388  41.506  34.006   8.320
 1272POPC   C3A18389  41.429  33.812   7.930
 1272POPC   C4A18390  41.626  33.441   7.798
 1272POPC   C1B18391  41.955  34.018   8.577
 1272POPC   C2B18392  41.997  34.030   8.119
 1272POPC   C3B18393  41.878  33.889   7.738
 1272POPC   C4B18394  41.542  34.018   7.432
 1273POPC   NC318395  23.108  22.471   9.331
 1273POPC   PO418396  23.031  21.746   9.602
 1273POPC   GL118397  23.004  21.945   9.249
 1273POPC   GL218398  23.331  22.018   9.168
 1273POPC   C1A18399  22.912  22.074   8.838
 1273POPC   D2A18400  22.837  22.113   8.423
 1273POPC   C3A18401  23.014  22.409   8.112
 1273POPC   C4A18402  23.104  22.360   7.673
 1273POPC   C1B18403  23.318  21.765   8.793
 1273POPC   C2B18404  23.146  21.631   8.392
 1273POPC   C3B18405  23.095  21.898   8.036
 1273POPC   C4B18406  23.171  21.829   7.612
 1274POPC   NC318407  20.263  10.729   9.397
 1274POPC   PO418408  19.573  10.691   9.427
 1274POPC   GL118409  19.824  10.792   9.078
 1274POPC   GL218410  19.976  10.487   9.036
 1274POPC   C1A18411  19.816  10.739   8.605
 1274POPC   D2A18412  19.968  10.524   8.259
 1274POPC   C3A18413  19.677  10.445   7.952
 1274POPC   C4A18414  19.581  10.595   7.583
 1274POPC   C1B18415  20.299  10.514   8.739
 1274POPC   C2B18416  20.484  10.405   8.369
 1274POPC   C3B18417  20.394  10.508   7.968
 1274POPC   C4B18418  20.070  10.674   7.707
 1275POPC   NC318419  29.902  44.790   9.568
 1275POPC   PO418420  29.857  44.167   9.528
 1275POPC   GL118421  29.791  44.520   9.140
 1275POPC   GL218422  30.080  44.738   9.040
 1275POPC   C1A18423  29.669  44.789   8.723
 1275POPC   D2A18424  29.537  44.726   8.278
 1275POPC   C3A18425  29.838  44.718   7.941
 1275POPC   C4A18426  30.146  44.957   7.728
 1275POPC   C1B18427  30.180  44.729   8.561
 1275POPC   C2B18428  30.306  44.621   8.103
 1275POPC   C3B18429  30.115  44.296   7.785
 1275POPC   C4B18430  29.879  43.966   7.515
 1276POPC   NC318431  40.676  39.009   9.394
 1276POPC   PO418432  41.095  39.444   9.633
 1276POPC   GL118433  40.869  39.447   9.202
 1276POPC   GL218434  40.491  39.385   9.117
 1276POPC   C1A18435  40.872  39.376   8.749
 1276POPC   D2A18436  40.781  39.197   8.354
 1276POPC   C3A18437  40.753  39.444   7.995
 1276POPC   C4A18438  40.781  39.233   7.603
 1276POPC   C1B18439  40.493  39.022   8.777
 1276POPC   C2B18440  40.388  38.874   8.359
 1276POPC   C3B18441  40.414  39.075   7.969
 1276POPC   C4B18442  40.306  39.409   7.723
 1277POPC   NC318443  33.273   9.352   9.519
 1277POPC   PO418444  32.675   9.572   9.493
 1277POPC   GL118445  33.030   9.655   9.169
 1277POPC   GL218446  33.189  10.002   9.131
 1277POPC   C1A18447  33.072   9.464   8.733
 1277POPC   D2A18448  33.042   9.600   8.284
 1277POPC   C3A18449  33.036   9.391   7.895
 1277POPC   C4A18450  32.914   9.625   7.492
 1277POPC   C1B18451  33.191   9.981   8.676
 1277POPC   C2B18452  32.929  10.082   8.317
 1277POPC   C3B18453  32.948   9.971   7.888
 1277POPC   C4B18454  33.215  10.076   7.547
 1278POPC   NC318455  21.122  15.260   9.743
 1278POPC   PO418456  20.467  15.496   9.634
 1278POPC   GL118457  20.501  15.290   9.198
 1278POPC   GL218458  20.222  15.409   9.051
 1278POPC   C1A18459  20.398  15.052   8.775
 1278POPC   D2A18460  20.254  15.105   8.351
 1278POPC   C3A18461  20.555  14.919   8.015
 1278POPC   C4A18462  20.893  14.906   7.690
 1278POPC   C1B18463  20.333  15.623   8.656
 1278POPC   C2B18464  20.482  15.649   8.233
 1278POPC   C3B18465  20.692  15.398   7.927
 1278POPC   C4B18466  20.524  15.218   7.553
 1279POPC   NC318467  37.091  24.565   9.549
 1279POPC   PO418468  36.453  24.644   9.301
 1279POPC   GL118469  36.770  24.452   9.137
 1279POPC   GL218470  36.955  24.747   9.093
 1279POPC   C1A18471  36.751  24.358   8.712
 1279POPC   D2A18472  36.990  24.440   8.343
 1279POPC   C3A18473  36.757  24.480   7.959
 1279POPC   C4A18474  36.951  24.430   7.579
 1279POPC   C1B18475  36.702  24.924   8.764
 1279POPC   C2B18476  36.950  24.972   8.405
 1279POPC   C3B18477  37.087  24.874   7.984
 1279POPC   C4B18478  36.863  24.935   7.594
 1280POPC   NC318479  24.714  11.531   9.352
 1280POPC   PO418480  24.129  11.338   9.559
 1280POPC   GL118481  24.257  11.293   9.152
 1280POPC   GL218482  24.414  10.978   9.121
 1280POPC   C1A18483  24.339  11.476   8.759
 1280POPC   D2A18484  24.423  11.694   8.361
 1280POPC   C3A18485  24.316  11.551   7.984
 1280POPC   C4A18486  24.639  11.372   7.731
 1280POPC   C1B18487  24.688  11.066   8.811
 1280POPC   C2B18488  24.756  11.326   8.517
 1280POPC   C3B18489  24.576  11.171   8.192
 1280POPC   C4B18490  24.832  10.956   7.965
 1281POPC   NC318491  17.311  33.040   9.511
 1281POPC   PO418492  17.851  32.759   9.319
 1281POPC   GL118493  17.551  32.891   9.041
 1281POPC   GL218494  17.558  33.254   9.125
 1281POPC   C1A18495  17.604  32.823   8.595
 1281POPC   D2A18496  17.698  33.090   8.270
 1281POPC   C3A18497  17.585  32.888   7.925
 1281POPC   C4A18498  17.701  32.792   7.555
 1281POPC   C1B18499  17.512  33.311   8.715
 1281POPC   C2B18500  17.188  33.411   8.425
 1281POPC   C3B18501  17.266  33.303   8.030
 1281POPC   C4B18502  17.648  33.404   7.833
 1282POPC   NC318503  25.079  15.451   9.497
 1282POPC   PO418504  25.461  14.845   9.682
 1282POPC   GL118505  25.411  15.109   9.275
 1282POPC   GL218506  25.540  15.454   9.259
 1282POPC   C1A18507  25.344  15.139   8.805
 1282POPC   D2A18508  25.586  15.056   8.390
 1282POPC   C3A18509  25.393  14.913   7.976
 1282POPC   C4A18510  24.984  15.113   7.881
 1282POPC   C1B18511  25.500  15.650   8.863
 1282POPC   C2B18512  25.356  15.563   8.449
 1282POPC   C3B18513  25.432  15.419   8.027
 1282POPC   C4B18514  25.390  15.324   7.590
 1283POPC   NC318515  37.262  43.591   9.510
 1283POPC   PO418516  36.876  44.215   9.699
 1283POPC   GL118517  36.794  43.915   9.161
 1283POPC   GL218518  36.962  43.658   9.111
 1283POPC   C1A18519  36.975  44.002   8.711
 1283POPC   D2A18520  37.205  43.972   8.279
 1283POPC   C3A18521  37.052  44.150   7.914
 1283POPC   C4A18522  36.740  43.970   7.684
 1283POPC   C1B18523  37.160  43.466   8.767
 1283POPC   C2B18524  37.281  43.467   8.336
 1283POPC   C3B18525  37.022  43.570   7.986
 1283POPC   C4B18526  36.931  43.413   7.595
 1284POPC   NC318527   1.061  26.590   9.354
 1284POPC   PO418528   1.310  27.187   9.519
 1284POPC   GL118529   1.233  27.010   9.103
 1284POPC   GL218530   1.474  26.735   9.051
 1284POPC   C1A18531   1.095  26.894   8.699
 1284POPC   D2A18532   1.200  27.068   8.309
 1284POPC   C3A18533   1.006  27.048   7.923
 1284POPC   C4A18534   1.361  27.147   7.656
 1284POPC   C1B18535   1.443  26.502   8.654
 1284POPC   C2B18536   1.303  26.479   8.213
 1284POPC   C3B18537   1.277  26.647   7.789
 1284POPC   C4B18538   1.125  26.477   7.373
 1285POPC   NC318539   2.523  23.922   9.432
 1285POPC   PO418540   3.051  23.594   9.527
 1285POPC   GL118541   2.821  23.658   9.121
 1285POPC   GL218542   2.489  23.504   9.061
 1285POPC   C1A18543   2.659  23.944   8.786
 1285POPC   D2A18544   2.755  23.916   8.366
 1285POPC   C3A18545   2.885  23.579   8.146
 1285POPC   C4A18546   3.100  23.590   7.743
 1285POPC   C1B18547   2.591  23.462   8.643
 1285POPC   C2B18548   2.283  23.683   8.405
 1285POPC   C3B18549   2.378  23.821   8.002
 1285POPC   C4B18550   2.609  23.603   7.707
 1286POPC   NC318551   0.234  31.739   9.486
 1286POPC   PO418552   0.756  31.274   9.433
 1286POPC   GL118553   0.544  31.498   9.116
 1286POPC   GL218554   0.192  31.429   9.080
 1286POPC   C1A18555   0.464  31.420   8.658
 1286POPC   D2A18556   0.686  31.583   8.322
 1286POPC   C3A18557   0.545  31.467   7.921
 1286POPC   C4A18558   0.303  31.153   7.725
 1286POPC   C1B18559   0.035  31.669   8.744
 1286POPC   C2B18560   0.138  31.736   8.354
 1286POPC   C3B18561   0.041  31.476   8.038
 1286POPC   C4B18562   0.116  31.628   7.655
 1287POPC   NC318563  43.446  10.934   9.509
 1287POPC   PO418564  43.101  11.500   9.438
 1287POPC   GL118565  43.134  11.204   9.149
 1287POPC   GL218566  43.497  11.212   9.078
 1287POPC   C1A18567  43.154  11.335   8.715
 1287POPC   D2A18568  43.266  11.559   8.364
 1287POPC   C3A18569  42.917  11.509   8.090
 1287POPC   C4A18570  42.953  11.295   7.739
 1287POPC   C1B18571  43.323  10.867   8.811
 1287POPC   C2B18572  42.971  10.876   8.510
 1287POPC   C3B18573  42.993  10.937   8.107
 1287POPC   C4B18574  43.329  10.953   7.822
 1288POPC   NC318575   1.649  16.936   9.494
 1288POPC   PO418576   2.198  16.553   9.514
 1288POPC   GL118577   2.081  16.841   9.193
 1288POPC   GL218578   1.765  16.675   9.081
 1288POPC   C1A18579   2.059  16.898   8.745
 1288POPC   D2A18580   1.930  16.677   8.387
 1288POPC   C3A18581   2.154  16.772   8.036
 1288POPC   C4A18582   1.966  17.044   7.808
 1288POPC   C1B18583   1.727  16.364   8.758
 1288POPC   C2B18584   1.727  16.191   8.355
 1288POPC   C3B18585   1.778  16.400   7.966
 1288POPC   C4B18586   1.527  16.339   7.627
 1289POPC   NC318587  18.213  38.116   9.439
 1289POPC   PO418588  18.270  38.651   9.695
 1289POPC   GL118589  18.289  38.603   9.248
 1289POPC   GL218590  18.585  38.482   9.096
 1289POPC   C1A18591  18.147  38.445   8.829
 1289POPC   D2A18592  18.164  38.196   8.438
 1289POPC   C3A18593  18.107  38.399   8.036
 1289POPC   C4A18594  17.866  38.579   7.691
 1289POPC   C1B18595  18.607  38.248   8.702
 1289POPC   C2B18596  18.642  38.175   8.243
 1289POPC   C3B18597  18.598  38.388   7.863
 1289POPC   C4B18598  18.530  38.206   7.469
 1290POPC   NC318599  12.035  14.089   9.245
 1290POPC   PO418600  12.181  13.444   9.421
 1290POPC   GL118601  11.975  13.599   9.091
 1290POPC   GL218602  12.315  13.732   9.013
 1290POPC   C1A18603  11.858  13.790   8.687
 1290POPC   D2A18604  11.738  13.672   8.280
 1290POPC   C3A18605  12.055  13.505   7.990
 1290POPC   C4A18606  12.240  13.426   7.587
 1290POPC   C1B18607  12.384  13.982   8.662
 1290POPC   C2B18608  12.225  13.885   8.273
 1290POPC   C3B18609  12.222  13.982   7.842
 1290POPC   C4B18610  12.480  13.842   7.454
 1291POPC   NC318611  36.340  16.728   9.378
 1291POPC   PO418612  35.747  16.339   9.439
 1291POPC   GL118613  35.934  16.512   9.071
 1291POPC   GL218614  36.298  16.379   8.997
 1291POPC   C1A18615  35.760  16.890   8.858
 1291POPC   D2A18616  35.819  17.101   8.453
 1291POPC   C3A18617  35.954  16.766   8.163
 1291POPC   C4A18618  35.978  16.709   7.705
 1291POPC   C1B18619  36.251  16.763   8.717
 1291POPC   C2B18620  36.347  17.067   8.380
 1291POPC   C3B18621  36.378  16.982   7.941
 1291POPC   C4B18622  36.418  16.515   7.875
 1292POPC   NC318623  44.665  26.389   9.768
 1292POPC   PO418624  44.719  27.044   9.756
 1292POPC   GL118625  44.805  26.975   9.238
 1292POPC   GL218626   0.090  26.700   9.126
 1292POPC   C1A18627  44.701  26.871   8.785
 1292POPC   D2A18628  44.683  27.096   8.386
 1292POPC   C3A18629  44.620  26.911   7.998
 1292POPC   C4A18630  44.256  26.985   7.759
 1292POPC   C1B18631  44.961  26.438   8.741
 1292POPC   C2B18632  44.674  26.547   8.390
 1292POPC   C3B18633  44.378  26.472   8.056
 1292POPC   C4B18634  44.552  26.352   7.731
 1293POPC   NC318635  41.199  18.926   9.451
 1293POPC   PO418636  41.815  19.094   9.474
 1293POPC   GL118637  41.613  18.883   9.113
 1293POPC   GL218638  41.438  19.224   9.103
 1293POPC   C1A18639  41.548  18.805   8.631
 1293POPC   D2A18640  41.507  19.145   8.280
 1293POPC   C3A18641  41.749  19.255   7.956
 1293POPC   C4A18642  41.681  18.889   7.776
 1293POPC   C1B18643  41.267  19.227   8.719
 1293POPC   C2B18644  41.097  18.903   8.413
 1293POPC   C3B18645  41.163  18.943   7.936
 1293POPC   C4B18646  41.085  19.062   7.478
 1294POPC   NC318647  31.472  11.115   9.347
 1294POPC   PO418648  31.487  10.664   9.845
 1294POPC   GL118649  31.414  10.440   9.380
 1294POPC   GL218650  31.549  10.648   9.097
 1294POPC   C1A18651  31.248  10.289   8.929
 1294POPC   D2A18652  31.340  10.377   8.479
 1294POPC   C3A18653  31.523  10.552   8.093
 1294POPC   C4A18654  31.428  10.511   7.627
 1294POPC   C1B18655  31.802  10.805   8.731
 1294POPC   C2B18656  31.912  10.892   8.292
 1294POPC   C3B18657  31.945  10.756   7.848
 1294POPC   C4B18658  31.869  10.655   7.402
 1295POPC   NC318659  13.387  20.572   9.449
 1295POPC   PO418660  13.922  21.002   9.505
 1295POPC   GL118661  13.735  20.712   9.074
 1295POPC   GL218662  13.706  20.366   9.091
 1295POPC   C1A18663  13.560  20.670   8.646
 1295POPC   D2A18664  13.536  20.812   8.205
 1295POPC   C3A18665  13.333  20.548   7.885
 1295POPC   C4A18666  13.135  20.218   7.657
 1295POPC   C1B18667  13.968  20.367   8.730
 1295POPC   C2B18668  13.824  20.363   8.324
 1295POPC   C3B18669  13.903  20.521   7.930
 1295POPC   C4B18670  13.903  20.388   7.523
 1296POPC   NC318671   3.354   3.431   9.418
 1296POPC   PO418672   3.326   4.077   9.422
 1296POPC   GL118673   3.528   3.803   9.140
 1296POPC   GL218674   3.198   3.712   8.998
 1296POPC   C1A18675   3.640   3.524   8.757
 1296POPC   D2A18676   3.772   3.319   8.346
 1296POPC   C3A18677   3.742   3.560   7.956
 1296POPC   C4A18678   3.682   3.424   7.529
 1296POPC   C1B18679   3.177   3.330   8.778
 1296POPC   C2B18680   3.282   3.347   8.349
 1296POPC   C3B18681   3.200   3.618   8.017
 1296POPC   C4B18682   3.219   3.610   7.614
 1297POPC   NC318683  35.976   5.101   9.601
 1297POPC   PO418684  36.515   4.713   9.704
 1297POPC   GL118685  36.299   4.852   9.269
 1297POPC   GL218686  36.527   5.017   9.046
 1297POPC   C1A18687  36.074   5.220   8.946
 1297POPC   D2A18688  35.899   5.234   8.488
 1297POPC   C3A18689  35.989   5.281   8.016
 1297POPC   C4A18690  36.036   5.160   7.582
 1297POPC   C1B18691  36.235   4.789   8.757
 1297POPC   C2B18692  36.079   4.780   8.322
 1297POPC   C3B18693  36.077   4.757   7.888
 1297POPC   C4B18694  36.451   4.843   7.691
 1298POPC   NC318695   4.783  34.940   9.521
 1298POPC   PO418696   5.163  35.441   9.522
 1298POPC   GL118697   4.953  35.316   9.180
 1298POPC   GL218698   4.755  35.572   9.094
 1298POPC   C1A18699   5.112  35.294   8.770
 1298POPC   D2A18700   5.506  35.375   8.537
 1298POPC   C3A18701   5.426  35.351   8.094
 1298POPC   C4A18702   5.181  35.626   7.833
 1298POPC   C1B18703   4.791  35.720   8.674
 1298POPC   C2B18704   4.751  35.546   8.262
 1298POPC   C3B18705   4.673  35.715   7.853
 1298POPC   C4B18706   4.859  35.675   7.428
 1299POPC   NC318707  20.856  43.658   9.402
 1299POPC   PO418708  20.448  44.167   9.612
 1299POPC   GL118709  20.519  43.982   9.215
 1299POPC   GL218710  20.279  44.113   9.008
 1299POPC   C1A18711  20.621  43.794   8.764
 1299POPC   D2A18712  20.467  43.803   8.284
 1299POPC   C3A18713  20.688  43.865   7.847
 1299POPC   C4A18714  20.853  43.949   7.408
 1299POPC   C1B18715  20.650  44.302   8.860
 1299POPC   C2B18716  20.904  44.344   8.521
 1299POPC   C3B18717  20.949  44.224   8.111
 1299POPC   C4B18718  20.961  44.376   7.704
 1300POPC   NC318719   5.756  39.811   9.717
 1300POPC   PO418720   5.394  40.401   9.451
 1300POPC   GL118721   5.617  40.152   9.159
 1300POPC   GL218722   5.829  39.850   9.198
 1300POPC   C1A18723   5.651  40.023   8.765
 1300POPC   D2A18724   5.856  40.123   8.412
 1300POPC   C3A18725   5.739  39.900   8.102
 1300POPC   C4A18726   5.606  40.008   7.759
 1300POPC   C1B18727   6.137  39.926   8.812
 1300POPC   C2B18728   6.354  40.076   8.435
 1300POPC   C3B18729   6.223  40.117   8.012
 1300POPC   C4B18730   6.096  39.787   7.726
 1301POPC   NC318731  30.624   4.424   9.532
 1301POPC   PO418732  30.477   3.851   9.259
 1301POPC   GL118733  30.514   4.218   9.038
 1301POPC   GL218734  30.527   4.604   9.066
 1301POPC   C1A18735  30.586   4.134   8.647
 1301POPC   D2A18736  30.895   4.171   8.393
 1301POPC   C3A18737  30.847   4.072   7.992
 1301POPC   C4A18738  31.035   4.372   7.735
 1301POPC   C1B18739  30.541   4.674   8.627
 1301POPC   C2B18740  30.426   4.427   8.278
 1301POPC   C3B18741  30.519   4.461   7.863
 1301POPC   C4B18742  30.357   4.702   7.537
 1302POPC   NC318743  36.246  44.849   9.592
 1302POPC   PO418744  36.414  44.267   9.325
 1302POPC   GL118745  36.133  44.476   9.009
 1302POPC   GL218746  36.079  44.808   9.117
 1302POPC   C1A18747  36.047  44.470   8.578
 1302POPC   D2A18748  36.343  44.678   8.347
 1302POPC   C3A18749  36.259  44.776   7.950
 1302POPC   C4A18750  36.154  44.488   7.690
 1302POPC   C1B18751  36.039  44.967   8.740
 1302POPC   C2B18752  35.925  44.975   8.314
 1302POPC   C3B18753  35.794  44.616   8.066
 1302POPC   C4B18754  35.732  44.731   7.641
 1303POPC   NC318755  13.736  28.580   9.647
 1303POPC   PO418756  13.450  28.400   9.045
 1303POPC   GL118757  13.859  28.531   9.024
 1303POPC   GL218758  13.939  28.247   9.233
 1303POPC   C1A18759  13.926  28.541   8.564
 1303POPC   D2A18760  13.552  28.387   8.283
 1303POPC   C3A18761  13.538  28.487   7.845
 1303POPC   C4A18762  13.922  28.565   7.649
 1303POPC   C1B18763  14.096  28.094   8.799
 1303POPC   C2B18764  13.996  28.088   8.334
 1303POPC   C3B18765  13.834  28.053   7.909
 1303POPC   C4B18766  13.408  27.996   7.785
 1304POPC   NC318767  18.229  10.463   9.471
 1304POPC   PO418768  18.369  11.085   9.354
 1304POPC   GL118769  18.338  10.791   9.035
 1304POPC   GL218770  18.334  10.401   8.996
 1304POPC   C1A18771  18.472  10.691   8.617
 1304POPC   D2A18772  18.580  10.335   8.377
 1304POPC   C3A18773  18.547  10.546   8.015
 1304POPC   C4A18774  18.351  10.898   7.857
 1304POPC   C1B18775  17.979  10.589   8.750
 1304POPC   C2B18776  18.090  10.539   8.324
 1304POPC   C3B18777  17.932  10.678   7.982
 1304POPC   C4B18778  18.152  10.464   7.686
 1305POPC   NC318779  16.782  27.911   9.474
 1305POPC   PO418780  16.436  27.399   9.643
 1305POPC   GL118781  16.611  27.468   9.217
 1305POPC   GL218782  16.960  27.536   9.187
 1305POPC   C1A18783  16.578  27.695   8.804
 1305POPC   D2A18784  16.648  27.890   8.384
 1305POPC   C3A18785  16.475  27.751   7.966
 1305POPC   C4A18786  16.583  27.955   7.558
 1305POPC   C1B18787  17.100  27.656   8.790
 1305POPC   C2B18788  16.971  27.460   8.452
 1305POPC   C3B18789  16.922  27.560   8.081
 1305POPC   C4B18790  16.993  27.672   7.682
 1306POPC   NC318791   4.158   2.402   9.414
 1306POPC   PO418792   4.413   2.968   9.580
 1306POPC   GL118793   4.539   2.696   9.218
 1306POPC   GL218794   4.524   2.965   9.085
 1306POPC   C1A18795   4.418   2.498   8.787
 1306POPC   D2A18796   4.058   2.291   8.541
 1306POPC   C3A18797   4.090   2.354   8.082
 1306POPC   C4A18798   4.300   2.710   7.901
 1306POPC   C1B18799   4.450   3.007   8.740
 1306POPC   C2B18800   4.480   2.846   8.380
 1306POPC   C3B18801   4.642   3.050   8.056
 1306POPC   C4B18802   4.584   3.133   7.662
 1307POPC   NC318803  28.595  42.440   9.419
 1307POPC   PO418804  27.944  42.144   9.425
 1307POPC   GL118805  28.079  42.402   9.084
 1307POPC   GL218806  28.428  42.305   8.955
 1307POPC   C1A18807  28.007  42.321   8.652
 1307POPC   D2A18808  28.359  42.424   8.389
 1307POPC   C3A18809  28.304  42.148   8.057
 1307POPC   C4A18810  28.077  42.419   7.805
 1307POPC   C1B18811  28.714  42.124   8.618
 1307POPC   C2B18812  28.832  42.299   8.192
 1307POPC   C3B18813  28.679  42.329   7.759
 1307POPC   C4B18814  28.731  42.161   7.310
 1308POPC   NC318815  24.249   7.482   9.520
 1308POPC   PO418816  24.818   7.841   9.447
 1308POPC   GL118817  24.614   7.708   9.119
 1308POPC   GL218818  24.513   7.386   9.078
 1308POPC   C1A18819  24.752   7.654   8.722
 1308POPC   D2A18820  24.694   7.399   8.369
 1308POPC   C3A18821  24.577   7.610   8.021
 1308POPC   C4A18822  24.649   7.525   7.601
 1308POPC   C1B18823  24.260   7.446   8.686
 1308POPC   C2B18824  24.184   7.293   8.253
 1308POPC   C3B18825  24.478   7.085   7.980
 1308POPC   C4B18826  24.667   6.969   7.607
 1309POPC   NC318827   9.616   3.117   9.380
 1309POPC   PO418828   9.693   3.694   9.693
 1309POPC   GL118829   9.843   3.555   9.270
 1309POPC   GL218830   9.523   3.523   9.066
 1309POPC   C1A18831  10.011   3.514   8.847
 1309POPC   D2A18832  10.111   3.783   8.470
 1309POPC   C3A18833   9.875   3.667   8.109
 1309POPC   C4A18834   9.811   3.473   7.717
 1309POPC   C1B18835   9.667   3.924   8.809
 1309POPC   C2B18836   9.724   4.142   8.381
 1309POPC   C3B18837   9.557   4.056   7.958
 1309POPC   C4B18838   9.645   3.926   7.550
 1310POPC   NC318839  27.077  40.463   9.450
 1310POPC   PO418840  26.481  40.864   9.383
 1310POPC   GL118841  26.535  40.636   9.039
 1310POPC   GL218842  26.882  40.718   9.041
 1310POPC   C1A18843  26.607  40.752   8.622
 1310POPC   D2A18844  26.892  40.883   8.330
 1310POPC   C3A18845  26.702  41.067   8.029
 1310POPC   C4A18846  26.859  41.058   7.646
 1310POPC   C1B18847  27.040  40.473   8.725
 1310POPC   C2B18848  26.854  40.366   8.333
 1310POPC   C3B18849  26.923  40.319   7.912
 1310POPC   C4B18850  27.086  40.602   7.639
 1311POPC   NC318851  12.104  31.421   9.791
 1311POPC   PO418852  11.623  31.272   9.317
 1311POPC   GL118853  11.902  31.223   9.000
 1311POPC   GL218854  12.247  31.267   9.179
 1311POPC   C1A18855  11.858  31.358   8.548
 1311POPC   D2A18856  11.857  31.446   8.077
 1311POPC   C3A18857  11.945  31.190   7.706
 1311POPC   C4A18858  12.246  31.193   7.325
 1311POPC   C1B18859  12.294  31.504   8.792
 1311POPC   C2B18860  12.216  31.715   8.406
 1311POPC   C3B18861  12.386  31.712   7.998
 1311POPC   C4B18862  12.440  31.334   7.774
 1312POPC   NC318863  25.567  20.973   9.487
 1312POPC   PO418864  25.182  20.440   9.654
 1312POPC   GL118865  25.082  20.508   9.222
 1312POPC   GL218866  25.259  20.795   9.127
 1312POPC   C1A18867  25.019  20.555   8.755
 1312POPC   D2A18868  25.177  20.774   8.379
 1312POPC   C3A18869  25.183  20.533   8.023
 1312POPC   C4A18870  25.361  20.255   7.725
 1312POPC   C1B18871  25.518  20.763   8.754
 1312POPC   C2B18872  25.673  20.958   8.347
 1312POPC   C3B18873  25.578  20.853   7.907
 1312POPC   C4B18874  25.224  20.838   7.631
 1313POPC   NC318875  17.046  16.117   9.561
 1313POPC   PO418876  16.449  15.877   9.748
 1313POPC   GL118877  16.508  15.893   9.252
 1313POPC   GL218878  16.821  15.977   9.131
 1313POPC   C1A18879  16.456  15.975   8.791
 1313POPC   D2A18880  16.750  15.975   8.450
 1313POPC   C3A18881  16.647  15.822   8.062
 1313POPC   C4A18882  16.588  16.140   7.753
 1313POPC   C1B18883  16.886  16.306   8.806
 1313POPC   C2B18884  17.139  16.303   8.417
 1313POPC   C3B18885  17.017  16.190   8.029
 1313POPC   C4B18886  17.100  15.805   7.789
 1314POPC   NC318887  33.783   2.862   9.501
 1314POPC   PO418888  34.370   3.084   9.319
 1314POPC   GL118889  34.021   2.993   9.049
 1314POPC   GL218890  33.712   2.742   9.022
 1314POPC   C1A18891  34.039   3.019   8.628
 1314POPC   D2A18892  34.014   2.748   8.281
 1314POPC   C3A18893  33.716   2.850   7.967
 1314POPC   C4A18894  33.987   3.160   7.827
 1314POPC   C1B18895  33.622   2.656   8.585
 1314POPC   C2B18896  33.657   2.367   8.221
 1314POPC   C3B18897  33.697   2.358   7.768
 1314POPC   C4B18898  33.520   2.284   7.358
 1315POPC   NC318899   7.361  43.002   9.615
 1315POPC   PO418900   7.813  43.419   9.560
 1315POPC   GL118901   7.521  43.320   9.233
 1315POPC   GL218902   7.205  43.126   9.150
 1315POPC   C1A18903   7.501  43.392   8.809
 1315POPC   D2A18904   7.429  43.158   8.475
 1315POPC   C3A18905   7.385  43.324   8.070
 1315POPC   C4A18906   7.177  43.213   7.731
 1315POPC   C1B18907   7.460  42.844   8.921
 1315POPC   C2B18908   7.530  42.648   8.510
 1315POPC   C3B18909   7.449  42.785   8.095
 1315POPC   C4B18910   7.715  43.003   7.819
 1316POPC   NC318911  26.671  12.259   9.495
 1316POPC   PO418912  27.013  11.623   9.748
 1316POPC   GL118913  27.067  11.881   9.305
 1316POPC   GL218914  26.772  11.965   9.087
 1316POPC   C1A18915  27.221  12.178   8.912
 1316POPC   D2A18916  27.162  12.452   8.511
 1316POPC   C3A18917  27.014  12.229   8.121
 1316POPC   C4A18918  26.918  11.955   7.767
 1316POPC   C1B18919  26.672  12.324   8.821
 1316POPC   C2B18920  26.606  12.373   8.388
 1316POPC   C3B18921  26.463  12.053   8.070
 1316POPC   C4B18922  26.409  11.859   7.647
 1317POPC   NC318923  26.563  22.292   9.420
 1317POPC   PO418924  27.196  22.105   9.581
 1317POPC   GL118925  26.994  22.105   9.177
 1317POPC   GL218926  27.177  22.387   9.091
 1317POPC   C1A18927  26.741  22.144   8.785
 1317POPC   D2A18928  26.482  22.045   8.414
 1317POPC   C3A18929  26.626  22.150   7.992
 1317POPC   C4A18930  26.588  22.164   7.538
 1317POPC   C1B18931  27.253  22.257   8.691
 1317POPC   C2B18932  27.038  22.074   8.346
 1317POPC   C3B18933  27.150  22.213   7.950
 1317POPC   C4B18934  27.031  22.388   7.590
 1318POPC   NC318935  30.058  19.374   9.664
 1318POPC   PO418936  29.908  18.744   9.496
 1318POPC   GL118937  29.924  19.058   9.140
 1318POPC   GL218938  29.625  19.119   8.982
 1318POPC   C1A18939  30.071  19.194   8.706
 1318POPC   D2A18940  29.894  19.060   8.303
 1318POPC   C3A18941  30.088  18.952   7.907
 1318POPC   C4A18942  29.964  19.098   7.507
 1318POPC   C1B18943  29.639  19.495   8.709
 1318POPC   C2B18944  29.730  19.551   8.275
 1318POPC   C3B18945  29.632  19.243   7.890
 1318POPC   C4B18946  29.308  19.260   7.550
 1319POPC   NC318947  31.037  35.768   9.845
 1319POPC   PO418948  30.666  36.294   9.710
 1319POPC   GL118949  30.769  36.237   9.224
 1319POPC   GL218950  30.783  35.891   9.069
 1319POPC   C1A18951  30.645  36.237   8.764
 1319POPC   D2A18952  30.584  36.392   8.386
 1319POPC   C3A18953  30.650  36.148   8.037
 1319POPC   C4A18954  30.591  36.333   7.641
 1319POPC   C1B18955  30.969  35.794   8.664
 1319POPC   C2B18956  31.086  35.867   8.225
 1319POPC   C3B18957  31.140  35.603   7.854
 1319POPC   C4B18958  31.072  35.639   7.420
 1320POPC   NC318959  28.813   2.632   9.468
 1320POPC   PO418960  29.426   2.794   9.416
 1320POPC   GL118961  29.186   2.659   9.086
 1320POPC   GL218962  29.018   2.982   9.137
 1320POPC   C1A18963  29.177   2.568   8.637
 1320POPC   D2A18964  29.087   2.520   8.187
 1320POPC   C3A18965  29.300   2.639   7.817
 1320POPC   C4A18966  29.161   2.292   7.523
 1320POPC   C1B18967  28.913   3.162   8.753
 1320POPC   C2B18968  29.038   3.002   8.357
 1320POPC   C3B18969  28.918   2.964   7.929
 1320POPC   C4B18970  28.909   2.753   7.517
 1321POPC   NC318971   4.625  42.685   9.405
 1321POPC   PO418972   3.999  42.845   9.512
 1321POPC   GL118973   4.066  43.027   9.129
 1321POPC   GL218974   4.414  43.041   9.089
 1321POPC   C1A18975   4.080  43.234   8.739
 1321POPC   D2A18976   4.404  43.244   8.470
 1321POPC   C3A18977   4.339  43.318   8.069
 1321POPC   C4A18978   4.079  43.019   7.905
 1321POPC   C1B18979   4.689  42.881   8.747
 1321POPC   C2B18980   4.872  43.039   8.359
 1321POPC   C3B18981   4.676  42.940   7.961
 1321POPC   C4B18982   4.656  42.946   7.505
 1322POPC   NC318983   1.630  22.267   9.442
 1322POPC   PO418984   2.236  21.897   9.500
 1322POPC   GL118985   2.090  22.163   9.162
 1322POPC   GL218986   2.193  22.515   9.170
 1322POPC   C1A18987   1.892  22.321   8.760
 1322POPC   D2A18988   1.619  22.342   8.393
 1322POPC   C3A18989   1.766  22.153   8.004
 1322POPC   C4A18990   1.912  22.007   7.592
 1322POPC   C1B18991   2.392  22.351   8.772
 1322POPC   C2B18992   2.264  22.145   8.362
 1322POPC   C3B18993   2.262  22.306   7.895
 1322POPC   C4B18994   2.171  22.569   7.503
 1323POPC   NC318995  21.685   7.851   9.281
 1323POPC   PO418996  21.572   7.147   9.422
 1323POPC   GL118997  21.365   7.389   9.113
 1323POPC   GL218998  21.065   7.602   9.199
 1323POPC   C1A18999  21.227   7.208   8.739
 1323POPC   D2A19000  21.246   7.313   8.314
 1323POPC   C3A19001  21.507   7.134   8.000
 1323POPC   C4A19002  21.216   7.242   7.707
 1323POPC   C1B19003  21.171   7.812   8.797
 1323POPC   C2B19004  21.338   7.820   8.392
 1323POPC   C3B19005  21.541   7.653   8.024
 1323POPC   C4B19006  21.309   7.738   7.660
 1324POPC   NC319007  22.744   2.555   9.429
 1324POPC   PO419008  23.077   3.190   9.585
 1324POPC   GL119009  22.965   2.977   9.193
 1324POPC   GL219010  23.208   2.690   9.235
 1324POPC   C1A19011  22.762   2.822   8.758
 1324POPC   D2A19012  22.668   2.564   8.363
 1324POPC   C3A19013  22.723   2.788   7.954
 1324POPC   C4A19014  22.475   2.674   7.586
 1324POPC   C1B19015  23.325   2.903   8.851
 1324POPC   C2B19016  23.196   2.986   8.470
 1324POPC   C3B19017  23.222   2.965   8.046
 1324POPC   C4B19018  23.215   2.672   7.704
 1325POPC   NC319019   2.478   2.949   9.434
 1325POPC   PO419020   1.794   2.668   9.407
 1325POPC   GL119021   2.033   2.870   9.099
 1325POPC   GL219022   2.321   2.594   9.119
 1325POPC   C1A19023   1.866   3.001   8.677
 1325POPC   D2A19024   1.972   3.202   8.285
 1325POPC   C3A19025   1.759   3.142   7.916
 1325POPC   C4A19026   1.529   2.836   7.665
 1325POPC   C1B19027   2.122   2.524   8.735
 1325POPC   C2B19028   2.081   2.668   8.328
 1325POPC   C3B19029   1.903   2.646   7.952
 1325POPC   C4B19030   2.070   2.465   7.612
 1326POPC   NC319031  10.842   6.706   9.485
 1326POPC   PO419032  10.281   6.368   9.309
 1326POPC   GL119033  10.538   6.704   9.055
 1326POPC   GL219034  10.880   6.922   9.037
 1326POPC   C1A19035  10.580   6.643   8.609
 1326POPC   D2A19036  10.347   6.690   8.230
 1326POPC   C3A19037  10.412   6.643   7.824
 1326POPC   C4A19038  10.210   6.264   7.773
 1326POPC   C1B19039  11.043   6.828   8.609
 1326POPC   C2B19040  10.891   6.717   8.191
 1326POPC   C3B19041  10.884   6.767   7.725
 1326POPC   C4B19042  10.980   6.706   7.269
 1327POPC   NC319043  21.872  41.262   9.469
 1327POPC   PO419044  22.375  41.644   9.720
 1327POPC   GL119045  22.311  41.434   9.268
 1327POPC   GL219046  22.573  41.180   9.128
 1327POPC   C1A19047  22.176  41.339   8.832
 1327POPC   D2A19048  21.942  41.316   8.426
 1327POPC   C3A19049  22.031  41.651   8.167
 1327POPC   C4A19050  22.015  41.567   7.727
 1327POPC   C1B19051  22.693  41.402   8.736
 1327POPC   C2B19052  22.517  41.487   8.323
 1327POPC   C3B19053  22.303  41.248   8.024
 1327POPC   C4B19054  22.372  41.137   7.655
 1328POPC   NC319055  29.013  14.863   9.598
 1328POPC   PO419056  29.085  15.520   9.582
 1328POPC   GL119057  29.097  15.231   9.228
 1328POPC   GL219058  29.307  14.912   9.186
 1328POPC   C1A19059  29.127  15.276   8.788
 1328POPC   D2A19060  29.255  15.442   8.386
 1328POPC   C3A19061  29.113  15.208   8.044
 1328POPC   C4A19062  29.008  15.347   7.627
 1328POPC   C1B19063  29.448  14.857   8.775
 1328POPC   C2B19064  29.487  14.988   8.364
 1328POPC   C3B19065  29.398  14.773   7.987
 1328POPC   C4B19066  29.124  14.851   7.668
 1329POPC   NC319067  16.800  11.427   9.485
 1329POPC   PO419068  16.797  10.713   9.444
 1329POPC   GL119069  16.615  11.032   9.143
 1329POPC   GL219070  16.519  11.385   9.041
 1329POPC   C1A19071  16.578  10.980   8.722
 1329POPC   D2A19072  16.424  11.143   8.384
 1329POPC   C3A19073  16.708  11.310   8.119
 1329POPC   C4A19074  16.548  11.441   7.737
 1329POPC   C1B19075  16.913  11.392   8.801
 1329POPC   C2B19076  17.055  11.603   8.443
 1329POPC   C3B19077  17.025  11.783   8.074
 1329POPC   C4B19078  17.040  11.501   7.769
 1330POPC   NC319079  38.079  31.367   9.525
 1330POPC   PO419080  38.566  31.862   9.474
 1330POPC   GL119081  38.493  31.506   9.179
 1330POPC   GL219082  38.813  31.556   9.101
 1330POPC   C1A19083  38.526  31.367   8.700
 1330POPC   D2A19084  38.312  31.509   8.278
 1330POPC   C3A19085  38.336  31.502   7.811
 1330POPC   C4A19086  38.330  31.197   7.491
 1330POPC   C1B19087  38.979  31.711   8.742
 1330POPC   C2B19088  38.791  31.695   8.344
 1330POPC   C3B19089  38.824  31.496   7.939
 1330POPC   C4B19090  38.769  31.506   7.495
 1331POPC   NC319091  39.602   9.579   9.448
 1331POPC   PO419092  40.257   9.544   9.560
 1331POPC   GL119093  40.101   9.802   9.250
 1331POPC   GL219094  39.953   9.557   9.065
 1331POPC   C1A19095  40.239   9.962   8.846
 1331POPC   D2A19096  40.197   9.906   8.387
 1331POPC   C3A19097  40.091   9.518   8.167
 1331POPC   C4A19098  40.104   9.516   7.722
 1331POPC   C1B19099  39.746   9.770   8.736
 1331POPC   C2B19100  39.606   9.585   8.363
 1331POPC   C3B19101  39.613   9.697   7.934
 1331POPC   C4B19102  39.645   9.612   7.496
 1332POPC   NC319103  24.595  25.891   9.783
 1332POPC   PO419104  25.234  26.129   9.579
 1332POPC   GL119105  25.370  25.971   9.152
 1332POPC   GL219106  25.642  25.748   9.190
 1332POPC   C1A19107  25.222  25.753   8.744
 1332POPC   D2A19108  25.148  25.588   8.296
 1332POPC   C3A19109  25.011  25.864   7.968
 1332POPC   C4A19110  25.235  26.240   7.779
 1332POPC   C1B19111  25.729  25.729   8.755
 1332POPC   C2B19112  25.552  25.925   8.373
 1332POPC   C3B19113  25.523  25.831   7.939
 1332POPC   C4B19114  25.813  25.604   7.783
 1333POPC   NC319115  10.712   9.717   9.478
 1333POPC   PO419116  10.198  10.008   9.593
 1333POPC   GL119117  10.401  10.009   9.199
 1333POPC   GL219118  10.227   9.753   9.000
 1333POPC   C1A19119  10.582  10.069   8.805
 1333POPC   D2A19120  10.453  10.367   8.490
 1333POPC   C3A19121  10.369  10.065   8.167
 1333POPC   C4A19122  10.663   9.919   7.861
 1333POPC   C1B19123  10.508   9.548   8.708
 1333POPC   C2B19124  10.499   9.404   8.278
 1333POPC   C3B19125  10.805   9.441   7.956
 1333POPC   C4B19126  11.238   9.319   7.825
 1334POPC   NC319127   2.472   3.597   9.859
 1334POPC   PO419128   1.987   3.437   9.517
 1334POPC   GL119129   2.025   3.404   9.105
 1334POPC   GL219130   1.708   3.365   9.017
 1334POPC   C1A19131   2.200   3.372   8.711
 1334POPC   D2A19132   2.391   3.558   8.361
 1334POPC   C3A19133   2.158   3.597   8.011
 1334POPC   C4A19134   2.065   3.454   7.650
 1334POPC   C1B19135   1.689   3.569   8.616
 1334POPC   C2B19136   1.691   3.625   8.182
 1334POPC   C3B19137   1.589   3.620   7.772
 1334POPC   C4B19138   1.641   3.345   7.413
 1335POPC   NC319139   3.097   2.980   9.826
 1335POPC   PO419140   2.773   2.476   9.473
 1335POPC   GL119141   2.872   2.646   9.112
 1335POPC   GL219142   2.819   2.985   9.059
 1335POPC   C1A19143   3.045   2.673   8.722
 1335POPC   D2A19144   2.939   2.979   8.458
 1335POPC   C3A19145   2.864   2.811   8.045
 1335POPC   C4A19146   2.830   2.997   7.653
 1335POPC   C1B19147   2.489   2.918   8.743
 1335POPC   C2B19148   2.447   3.033   8.303
 1335POPC   C3B19149   2.334   2.927   7.869
 1335POPC   C4B19150   2.456   2.740   7.438
 1336POPC   NC319151  43.080  41.876   9.772
 1336POPC   PO419152  42.876  41.247   9.462
 1336POPC   GL119153  43.083  41.383   9.102
 1336POPC   GL219154  42.809  41.412   8.910
 1336POPC   C1A19155  43.328  41.343   8.708
 1336POPC   D2A19156  43.349  41.559   8.318
 1336POPC   C3A19157  43.285  41.344   7.922
 1336POPC   C4A19158  43.510  41.415   7.527
 1336POPC   C1B19159  42.864  41.426   8.483
 1336POPC   C2B19160  42.895  41.772   8.223
 1336POPC   C3B19161  42.957  41.987   7.899
 1336POPC   C4B19162  43.279  41.813   7.696
 1337POPC   NC319163  12.389  12.361   9.402
 1337POPC   PO419164  12.048  11.851   9.671
 1337POPC   GL119165  12.009  12.078   9.211
 1337POPC   GL219166  11.750  11.972   8.994
 1337POPC   C1A19167  12.008  12.320   8.758
 1337POPC   D2A19168  12.015  12.092   8.321
 1337POPC   C3A19169  11.985  12.273   7.875
 1337POPC   C4A19170  11.709  12.484   7.554
 1337POPC   C1B19171  12.172  11.844   8.782
 1337POPC   C2B19172  12.293  11.571   8.472
 1337POPC   C3B19173  12.423  11.636   8.077
 1337POPC   C4B19174  12.207  11.817   7.768
 1338POPC   NC319175  19.117  34.398   9.528
 1338POPC   PO419176  19.003  33.720   9.540
 1338POPC   GL119177  18.950  33.687   9.112
 1338POPC   GL219178  19.305  33.640   9.033
 1338POPC   C1A19179  18.984  33.944   8.718
 1338POPC   D2A19180  19.171  34.017   8.307
 1338POPC   C3A19181  18.921  33.961   7.942
 1338POPC   C4A19182  18.626  33.636   7.828
 1338POPC   C1B19183  19.103  33.419   8.687
 1338POPC   C2B19184  18.931  33.560   8.285
 1338POPC   C3B19185  19.115  33.501   7.876
 1338POPC   C4B19186  19.328  33.349   7.525
 1339POPC   NC319187   1.044  31.611   9.588
 1339POPC   PO419188   1.672  31.673   9.387
 1339POPC   GL119189   1.425  31.519   9.079
 1339POPC   GL219190   1.180  31.344   9.175
 1339POPC   C1A19191   1.434  31.428   8.635
 1339POPC   D2A19192   1.189  31.673   8.339
 1339POPC   C3A19193   1.406  31.667   7.951
 1339POPC   C4A19194   1.564  31.251   7.835
 1339POPC   C1B19195   0.955  31.438   8.783
 1339POPC   C2B19196   1.027  31.187   8.383
 1339POPC   C3B19197   1.042  31.316   7.960
 1339POPC   C4B19198   0.944  31.696   7.693
 1340POPC   NC319199  23.488  29.470   9.531
 1340POPC   PO419200  23.534  30.111   9.512
 1340POPC   GL119201  23.524  29.891   9.115
 1340POPC   GL219202  23.839  29.707   9.093
 1340POPC   C1A19203  23.601  29.955   8.660
 1340POPC   D2A19204  23.836  30.110   8.295
 1340POPC   C3A19205  23.725  30.060   7.852
 1340POPC   C4A19206  23.916  30.178   7.491
 1340POPC   C1B19207  23.768  29.477   8.721
 1340POPC   C2B19208  23.564  29.393   8.347
 1340POPC   C3B19209  23.579  29.596   7.971
 1340POPC   C4B19210  23.788  29.598   7.541
 1341POPC   NC319211  22.014   9.268   9.366
 1341POPC   PO419212  22.396   8.811   9.728
 1341POPC   GL119213  22.430   8.938   9.292
 1341POPC   GL219214  22.125   8.814   9.192
 1341POPC   C1A19215  22.423   9.106   8.835
 1341POPC   D2A19216  22.246   9.207   8.422
 1341POPC   C3A19217  22.458   9.092   8.040
 1341POPC   C4A19218  22.409   8.720   7.786
 1341POPC   C1B19219  21.911   9.013   8.797
 1341POPC   C2B19220  21.850   8.823   8.410
 1341POPC   C3B19221  21.984   8.919   8.012
 1341POPC   C4B19222  21.993   9.024   7.584
 1342POPC   NC319223  20.205  31.332   9.557
 1342POPC   PO419224  20.890  31.146   9.513
 1342POPC   GL119225  20.584  31.383   9.181
 1342POPC   GL219226  20.224  31.578   9.117
 1342POPC   C1A19227  20.720  31.537   8.785
 1342POPC   D2A19228  20.831  31.430   8.361
 1342POPC   C3A19229  20.610  31.666   8.041
 1342POPC   C4A19230  20.743  31.591   7.619
 1342POPC   C1B19231  20.231  31.292   8.784
 1342POPC   C2B19232  20.357  31.187   8.342
 1342POPC   C3B19233  20.579  31.166   7.960
 1342POPC   C4B19234  20.439  31.174   7.529
 1343POPC   NC319235  26.274  27.933   9.474
 1343POPC   PO419236  25.893  27.383   9.485
 1343POPC   GL119237  26.176  27.394   9.120
 1343POPC   GL219238  26.501  27.518   9.232
 1343POPC   C1A19239  26.081  27.512   8.708
 1343POPC   D2A19240  25.768  27.720   8.429
 1343POPC   C3A19241  25.874  27.826   8.008
 1343POPC   C4A19242  25.809  27.640   7.630
 1343POPC   C1B19243  26.566  27.749   8.830
 1343POPC   C2B19244  26.360  27.838   8.445
 1343POPC   C3B19245  26.282  27.574   8.110
 1343POPC   C4B19246  26.389  27.628   7.705
 1344POPC   NC319247   0.279   7.085   9.532
 1344POPC   PO419248   0.581   6.421   9.454
 1344POPC   GL119249   0.493   6.524   9.060
 1344POPC   GL219250   0.341   6.801   9.116
 1344POPC   C1A19251   0.588   6.748   8.653
 1344POPC   D2A19252   0.669   6.780   8.196
 1344POPC   C3A19253   0.496   6.602   7.848
 1344POPC   C4A19254   0.689   6.483   7.420
 1344POPC   C1B19255   0.111   6.929   8.742
 1344POPC   C2B19256   0.241   7.041   8.340
 1344POPC   C3B19257   0.075   6.912   7.948
 1344POPC   C4B19258  44.990   6.722   7.554
 1345POPC   NC319259  41.762  35.181   9.542
 1345POPC   PO419260  41.262  35.606   9.556
 1345POPC   GL119261  41.385  35.487   9.184
 1345POPC   GL219262  41.047  35.567   9.061
 1345POPC   C1A19263  41.521  35.321   8.804
 1345POPC   D2A19264  41.554  35.510   8.404
 1345POPC   C3A19265  41.578  35.238   8.061
 1345POPC   C4A19266  41.599  35.337   7.658
 1345POPC   C1B19267  41.066  35.448   8.653
 1345POPC   C2B19268  41.084  35.283   8.252
 1345POPC   C3B19269  41.117  35.423   7.847
 1345POPC   C4B19270  41.136  35.285   7.454
 1346POPC   NC319271  39.280  20.762   9.612
 1346POPC   PO419272  38.965  20.178   9.664
 1346POPC   GL119273  39.055  20.484   9.254
 1346POPC   GL219274  39.388  20.651   9.142
 1346POPC   C1A19275  38.985  20.638   8.815
 1346POPC   D2A19276  39.051  20.903   8.449
 1346POPC   C3A19277  39.066  20.721   8.052
 1346POPC   C4A19278  39.093  20.887   7.658
 1346POPC   C1B19279  39.513  20.674   8.718
 1346POPC   C2B19280  39.527  20.762   8.299
 1346POPC   C3B19281  39.523  20.639   7.870
 1346POPC   C4B19282  39.265  20.393   7.618
 1347POPC   NC319283  23.552  41.332   9.460
 1347POPC   PO419284  24.167  41.666   9.499
 1347POPC   GL119285  24.093  41.415   9.127
 1347POPC   GL219286  23.735  41.496   9.022
 1347POPC   C1A19287  24.103  41.466   8.685
 1347POPC   D2A19288  23.895  41.740   8.435
 1347POPC   C3A19289  23.984  41.574   8.074
 1347POPC   C4A19290  24.164  41.719   7.708
 1347POPC   C1B19291  23.526  41.858   8.803
 1347POPC   C2B19292  23.392  41.957   8.404
 1347POPC   C3B19293  23.571  41.867   8.020
 1347POPC   C4B19294  23.644  41.573   7.683
 1348POPC   NC319295  24.934  41.965   9.374
 1348POPC   PO419296  24.631  42.546   9.599
 1348POPC   GL119297  24.459  42.481   9.181
 1348POPC   GL219298  24.116  42.376   9.141
 1348POPC   C1A19299  24.646  42.329   8.817
 1348POPC   D2A19300  24.695  42.161   8.427
 1348POPC   C3A19301  24.822  42.437   8.174
 1348POPC   C4A19302  24.679  42.320   7.794
 1348POPC   C1B19303  24.202  42.590   8.735
 1348POPC   C2B19304  24.333  42.534   8.304
 1348POPC   C3B19305  24.247  42.583   7.881
 1348POPC   C4B19306  24.358  42.695   7.443
 1349POPC   NC319307  30.099   5.272   9.459
 1349POPC   PO419308  29.467   4.841   9.447
 1349POPC   GL119309  29.768   4.762   9.109
 1349POPC   GL219310  30.100   4.913   9.085
 1349POPC   C1A19311  29.849   4.875   8.661
 1349POPC   D2A19312  29.681   4.947   8.288
 1349POPC   C3A19313  29.938   4.893   7.950
 1349POPC   C4A19314  29.646   5.007   7.668
 1349POPC   C1B19315  30.113   5.294   8.774
 1349POPC   C2B19316  30.114   5.218   8.317
 1349POPC   C3B19317  29.987   5.385   7.881
 1349POPC   C4B19318  30.145   5.600   7.537
 1350POPC   NC319319  25.554  14.495   9.394
 1350POPC   PO419320  26.198  14.510   9.440
 1350POPC   GL119321  25.969  14.459   9.081
 1350POPC   GL219322  25.823  14.814   9.080
 1350POPC   C1A19323  25.966  14.184   8.698
 1350POPC   D2A19324  25.807  14.309   8.299
 1350POPC   C3A19325  25.928  14.176   7.897
 1350POPC   C4A19326  25.715  14.305   7.518
 1350POPC   C1B19327  25.948  14.717   8.645
 1350POPC   C2B19328  25.992  14.804   8.214
 1350POPC   C3B19329  26.041  14.663   7.814
 1350POPC   C4B19330  26.346  14.789   7.533
 1351POPC   NC319331   7.397  40.976   9.718
 1351POPC   PO419332   7.463  41.696   9.523
 1351POPC   GL119333   7.387  41.477   9.113
 1351POPC   GL219334   7.676  41.282   8.979
 1351POPC   C1A19335   7.339  41.714   8.711
 1351POPC   D2A19336   7.046  41.796   8.325
 1351POPC   C3A19337   7.217  41.714   7.910
 1351POPC   C4A19338   7.437  41.922   7.596
 1351POPC   C1B19339   7.583  41.273   8.573
 1351POPC   C2B19340   7.245  41.331   8.294
 1351POPC   C3B19341   7.194  41.179   7.897
 1351POPC   C4B19342   7.542  40.980   7.722
 1352POPC   NC319343  31.795  38.531   9.783
 1352POPC   PO419344  32.374  38.265   9.562
 1352POPC   GL119345  32.144  38.275   9.228
 1352POPC   GL219346  32.038  38.598   9.336
 1352POPC   C1A19347  32.290  38.180   8.806
 1352POPC   D2A19348  32.464  38.491   8.491
 1352POPC   C3A19349  32.552  38.471   8.049
 1352POPC   C4A19350  32.397  38.295   7.695
 1352POPC   C1B19351  32.150  38.682   8.914
 1352POPC   C2B19352  32.024  38.795   8.513
 1352POPC   C3B19353  32.092  38.725   8.113
 1352POPC   C4B19354  32.194  38.747   7.708
 1353POPC   NC319355  11.241  41.866   9.429
 1353POPC   PO419356  11.175  42.571   9.319
 1353POPC   GL119357  11.403  42.257   9.094
 1353POPC   GL219358  11.772  42.246   9.043
 1353POPC   C1A19359  11.219  42.280   8.702
 1353POPC   D2A19360  11.038  42.500   8.363
 1353POPC   C3A19361  11.090  42.255   8.004
 1353POPC   C4A19362  10.897  42.197   7.617
 1353POPC   C1B19363  11.710  42.464   8.666
 1353POPC   C2B19364  11.531  42.383   8.279
 1353POPC   C3B19365  11.537  42.463   7.860
 1353POPC   C4B19366  11.794  42.260   7.602
 1354POPC   NC319367  30.126  36.589   9.477
 1354POPC   PO419368  29.763  37.168   9.455
 1354POPC   GL119369  29.934  36.965   9.088
 1354POPC   GL219370  29.889  36.646   9.041
 1354POPC   C1A19371  29.937  37.193   8.699
 1354POPC   D2A19372  30.224  37.297   8.390
 1354POPC   C3A19373  30.127  37.120   8.019
 1354POPC   C4A19374  29.822  37.182   7.721
 1354POPC   C1B19375  29.790  36.706   8.631
 1354POPC   C2B19376  29.721  36.521   8.275
 1354POPC   C3B19377  29.825  36.681   7.919
 1354POPC   C4B19378  30.149  36.751   7.671
 1355POPC   NC319379  37.034   3.418   9.503
 1355POPC   PO419380  36.918   4.093   9.716
 1355POPC   GL119381  36.957   3.888   9.252
 1355POPC   GL219382  36.751   3.600   9.097
 1355POPC   C1A19383  37.056   3.830   8.779
 1355POPC   D2A19384  36.867   3.723   8.368
 1355POPC   C3A19385  37.003   3.627   7.955
 1355POPC   C4A19386  36.909   3.580   7.466
 1355POPC   C1B19387  36.800   3.333   8.690
 1355POPC   C2B19388  36.982   3.194   8.249
 1355POPC   C3B19389  37.014   3.180   7.754
 1355POPC   C4B19390  37.094   3.120   7.279
 1356POPC   NC319391  32.538   9.027   9.555
 1356POPC   PO419392  31.889   9.275   9.433
 1356POPC   GL119393  32.176   9.072   9.144
 1356POPC   GL219394  32.476   8.830   9.085
 1356POPC   C1A19395  32.092   9.000   8.744
 1356POPC   D2A19396  32.122   9.189   8.393
 1356POPC   C3A19397  32.131   8.931   8.084
 1356POPC   C4A19398  32.179   8.923   7.686
 1356POPC   C1B19399  32.372   8.574   8.743
 1356POPC   C2B19400  32.258   8.500   8.349
 1356POPC   C3B19401  32.498   8.575   7.985
 1356POPC   C4B19402  32.629   8.697   7.593
 1357POPC   NC319403   6.827   9.395   9.679
 1357POPC   PO419404   6.388   9.821   9.419
 1357POPC   GL119405   6.546   9.642   9.043
 1357POPC   GL219406   6.892   9.595   9.140
 1357POPC   C1A19407   6.470   9.756   8.596
 1357POPC   D2A19408   6.471  10.099   8.326
 1357POPC   C3A19409   6.417  10.049   7.916
 1357POPC   C4A19410   6.654   9.743   7.718
 1357POPC   C1B19411   6.954   9.607   8.679
 1357POPC   C2B19412   6.845   9.596   8.226
 1357POPC   C3B19413   7.135   9.654   7.864
 1357POPC   C4B19414   7.106   9.952   7.516
 1358POPC   NC319415   7.864  43.862   9.704
 1358POPC   PO419416   7.362  44.239   9.320
 1358POPC   GL119417   7.437  43.830   9.106
 1358POPC   GL219418   7.132  43.633   9.093
 1358POPC   C1A19419   7.680  43.857   8.699
 1358POPC   D2A19420   7.776  44.158   8.425
 1358POPC   C3A19421   7.782  44.016   8.010
 1358POPC   C4A19422   7.921  44.003   7.631
 1358POPC   C1B19423   7.188  43.845   8.672
 1358POPC   C2B19424   7.328  43.868   8.240
 1358POPC   C3B19425   7.207  44.116   7.875
 1358POPC   C4B19426   7.086  44.113   7.432
 1359POPC   NC319427  25.083   8.233   9.454
 1359POPC   PO419428  25.729   8.087   9.386
 1359POPC   GL119429  25.382   8.053   9.069
 1359POPC   GL219430  25.006   8.032   8.997
 1359POPC   C1A19431  25.357   8.206   8.666
 1359POPC   D2A19432  25.568   8.074   8.336
 1359POPC   C3A19433  25.336   8.160   8.010
 1359POPC   C4A19434  25.515   8.049   7.626
 1359POPC   C1B19435  24.824   8.334   8.713
 1359POPC   C2B19436  24.909   8.306   8.276
 1359POPC   C3B19437  24.837   8.064   7.921
 1359POPC   C4B19438  25.041   8.305   7.630
 1360POPC   NC319439  31.598  32.650   9.590
 1360POPC   PO419440  31.662  33.345   9.551
 1360POPC   GL119441  31.411  33.199   9.185
 1360POPC   GL219442  31.049  33.259   9.183
 1360POPC   C1A19443  31.543  32.975   8.799
 1360POPC   D2A19444  31.775  33.078   8.422
 1360POPC   C3A19445  31.490  33.072   8.084
 1360POPC   C4A19446  31.438  32.807   7.718
 1360POPC   C1B19447  31.033  32.874   8.917
 1360POPC   C2B19448  31.130  32.899   8.481
 1360POPC   C3B19449  31.025  32.889   8.048
 1360POPC   C4B19450  31.114  33.184   7.736
 1361POPC   NC319451  29.442  15.631   9.301
 1361POPC   PO419452  29.893  15.945   9.720
 1361POPC   GL119453  29.895  15.914   9.271
 1361POPC   GL219454  30.006  15.580   9.257
 1361POPC   C1A19455  29.769  15.929   8.823
 1361POPC   D2A19456  30.048  15.932   8.444
 1361POPC   C3A19457  29.877  15.900   8.022
 1361POPC   C4A19458  29.696  15.704   7.651
 1361POPC   C1B19459  30.109  15.565   8.843
 1361POPC   C2B19460  30.236  15.369   8.492
 1361POPC   C3B19461  30.183  15.472   8.070
 1361POPC   C4B19462  30.036  15.318   7.675
 1362POPC   NC319463  30.436   2.392   9.521
 1362POPC   PO419464  30.761   2.795   9.866
 1362POPC   GL119465  30.577   2.845   9.309
 1362POPC   GL219466  30.505   2.557   9.061
 1362POPC   C1A19467  30.731   2.943   8.812
 1362POPC   D2A19468  30.872   3.258   8.436
 1362POPC   C3A19469  30.710   3.127   7.980
 1362POPC   C4A19470  30.634   2.748   7.704
 1362POPC   C1B19471  30.792   2.406   8.757
 1362POPC   C2B19472  30.817   2.214   8.372
 1362POPC   C3B19473  30.924   2.417   8.019
 1362POPC   C4B19474  30.950   2.306   7.611
 1363POPC   NC319475  21.357  31.082   9.496
 1363POPC   PO419476  21.680  30.533   9.506
 1363POPC   GL119477  21.510  30.487   9.113
 1363POPC   GL219478  21.296  30.745   9.116
 1363POPC   C1A19479  21.564  30.373   8.706
 1363POPC   D2A19480  21.724  30.543   8.385
 1363POPC   C3A19481  21.491  30.727   8.088
 1363POPC   C4A19482  21.668  30.533   7.727
 1363POPC   C1B19483  21.122  30.653   8.724
 1363POPC   C2B19484  21.053  30.409   8.336
 1363POPC   C3B19485  21.041  30.518   7.911
 1363POPC   C4B19486  21.084  30.609   7.485
 1364POPC   NC319487  42.675   5.225   9.478
 1364POPC   PO419488  43.281   4.945   9.513
 1364POPC   GL119489  42.998   4.911   9.164
 1364POPC   GL219490  42.950   5.239   9.053
 1364POPC   C1A19491  43.199   4.884   8.768
 1364POPC   D2A19492  43.100   5.061   8.381
 1364POPC   C3A19493  43.315   4.868   8.050
 1364POPC   C4A19494  42.937   4.640   7.938
 1364POPC   C1B19495  42.723   5.283   8.659
 1364POPC   C2B19496  42.673   5.319   8.219
 1364POPC   C3B19497  42.912   5.161   7.890
 1364POPC   C4B19498  43.283   5.279   7.733
 1365POPC   NC319499  22.499   7.438   9.809
 1365POPC   PO419500  23.031   7.500   9.444
 1365POPC   GL119501  22.898   7.541   9.078
 1365POPC   GL219502  23.088   7.262   8.979
 1365POPC   C1A19503  22.738   7.776   8.758
 1365POPC   D2A19504  22.844   7.812   8.349
 1365POPC   C3A19505  23.088   7.532   8.095
 1365POPC   C4A19506  22.956   7.651   7.720
 1365POPC   C1B19507  23.028   7.368   8.575
 1365POPC   C2B19508  22.710   7.223   8.277
 1365POPC   C3B19509  22.745   7.180   7.860
 1365POPC   C4B19510  23.165   7.175   7.716
 1366POPC   NC319511  16.542  19.542   9.150
 1366POPC   PO419512  16.749  20.001   9.584
 1366POPC   GL119513  16.912  19.921   9.169
 1366POPC   GL219514  17.212  19.739   9.267
 1366POPC   C1A19515  16.771  19.952   8.726
 1366POPC   D2A19516  16.700  20.120   8.322
 1366POPC   C3A19517  16.479  19.868   8.039
 1366POPC   C4A19518  16.552  19.905   7.600
 1366POPC   C1B19519  17.212  19.681   8.800
 1366POPC   C2B19520  17.016  19.687   8.358
 1366POPC   C3B19521  16.916  19.651   7.909
 1366POPC   C4B19522  16.538  19.430   7.753
 1367POPC   NC319523  42.891  29.132   9.390
 1367POPC   PO419524  43.586  28.924   9.495
 1367POPC   GL119525  43.275  28.939   9.109
 1367POPC   GL219526  43.156  29.269   8.979
 1367POPC   C1A19527  43.039  28.915   8.652
 1367POPC   D2A19528  42.781  28.856   8.260
 1367POPC   C3A19529  43.005  29.040   7.911
 1367POPC   C4A19530  43.199  28.952   7.492
 1367POPC   C1B19531  42.815  29.397   8.712
 1367POPC   C2B19532  42.725  29.375   8.272
 1367POPC   C3B19533  42.693  29.460   7.872
 1367POPC   C4B19534  43.012  29.454   7.570
 1368POPC   NC319535  39.773  29.367   9.904
 1368POPC   PO419536  39.282  29.197   9.410
 1368POPC   GL119537  39.323  29.248   9.003
 1368POPC   GL219538  39.621  29.438   8.898
 1368POPC   C1A19539  39.094  29.382   8.684
 1368POPC   D2A19540  39.000  29.129   8.367
 1368POPC   C3A19541  39.304  29.186   8.062
 1368POPC   C4A19542  39.194  29.327   7.695
 1368POPC   C1B19543  39.500  29.107   8.563
 1368POPC   C2B19544  39.446  28.768   8.313
 1368POPC   C3B19545  39.658  28.831   7.966
 1368POPC   C4B19546  39.670  29.149   7.670
 1369POPC   NC319547  30.740  27.627   9.455
 1369POPC   PO419548  30.438  27.014   9.353
 1369POPC   GL119549  30.623  27.369   9.020
 1369POPC   GL219550  30.555  27.746   9.014
 1369POPC   C1A19551  30.685  27.576   8.565
 1369POPC   D2A19552  30.830  27.558   8.139
 1369POPC   C3A19553  30.521  27.566   7.823
 1369POPC   C4A19554  30.477  27.350   7.442
 1369POPC   C1B19555  30.922  27.958   8.808
 1369POPC   C2B19556  31.036  27.969   8.357
 1369POPC   C3B19557  30.940  28.009   7.875
 1369POPC   C4B19558  30.769  27.871   7.422
 1370POPC   NC319559  12.260  10.597   9.619
 1370POPC   PO419560  11.726  10.255   9.555
 1370POPC   GL119561  11.977  10.350   9.201
 1370POPC   GL219562  12.310  10.194   9.266
 1370POPC   C1A19563  11.899  10.595   8.799
 1370POPC   D2A19564  12.110  10.557   8.397
 1370POPC   C3A19565  11.997  10.712   8.009
 1370POPC   C4A19566  11.549  10.669   7.953
 1370POPC   C1B19567  12.305  10.263   8.801
 1370POPC   C2B19568  12.389  10.147   8.367
 1370POPC   C3B19569  12.287  10.287   7.972
 1370POPC   C4B19570  12.404  10.233   7.565
 1371POPC   NC319571  36.569  43.903   9.590
 1371POPC   PO419572  35.983  43.784   9.561
 1371POPC   GL119573  36.271  43.790   9.192
 1371POPC   GL219574  36.481  43.495   9.210
 1371POPC   C1A19575  36.446  43.913   8.777
 1371POPC   D2A19576  36.173  43.926   8.439
 1371POPC   C3A19577  36.170  44.216   8.134
 1371POPC   C4A19578  36.236  44.009   7.766
 1371POPC   C1B19579  36.640  43.434   8.792
 1371POPC   C2B19580  36.754  43.652   8.428
 1371POPC   C3B19581  36.532  43.755   8.086
 1371POPC   C4B19582  36.439  43.550   7.672
 1372POPC   NC319583  16.277  28.682   9.560
 1372POPC   PO419584  16.916  28.411   9.607
 1372POPC   GL119585  16.829  28.431   9.195
 1372POPC   GL219586  16.497  28.353   9.210
 1372POPC   C1A19587  16.831  28.556   8.755
 1372POPC   D2A19588  16.846  28.407   8.318
 1372POPC   C3A19589  17.065  28.643   7.990
 1372POPC   C4A19590  17.090  28.656   7.490
 1372POPC   C1B19591  16.329  28.415   8.789
 1372POPC   C2B19592  16.383  28.682   8.433
 1372POPC   C3B19593  16.530  28.715   8.012
 1372POPC   C4B19594  16.299  28.532   7.665
 1373POPC   NC319595  20.919  32.719   9.599
 1373POPC   PO419596  21.396  33.125   9.656
 1373POPC   GL119597  21.236  33.024   9.226
 1373POPC   GL219598  21.557  33.029   9.051
 1373POPC   C1A19599  21.120  32.794   8.809
 1373POPC   D2A19600  20.906  32.863   8.422
 1373POPC   C3A19601  21.103  32.781   8.013
 1373POPC   C4A19602  21.388  32.896   7.714
 1373POPC   C1B19603  21.303  33.261   8.737
 1373POPC   C2B19604  21.269  33.194   8.292
 1373POPC   C3B19605  21.373  33.367   7.893
 1373POPC   C4B19606  21.741  33.240   7.640
 1374POPC   NC319607   0.888  27.254   9.851
 1374POPC   PO419608   1.006  27.762   9.422
 1374POPC   GL119609   1.269  27.565   9.118
 1374POPC   GL219610   1.571  27.708   9.185
 1374POPC   C1A19611   1.157  27.420   8.699
 1374POPC   D2A19612   0.837  27.466   8.361
 1374POPC   C3A19613   0.739  27.474   7.920
 1374POPC   C4A19614   0.975  27.468   7.533
 1374POPC   C1B19615   1.657  27.589   8.759
 1374POPC   C2B19616   1.504  27.507   8.344
 1374POPC   C3B19617   1.257  27.517   8.001
 1374POPC   C4B19618   1.451  27.658   7.645
 1375POPC   NC319619  25.560   3.650   9.567
 1375POPC   PO419620  24.894   3.663   9.625
 1375POPC   GL119621  25.165   3.548   9.243
 1375POPC   GL219622  25.285   3.868   9.179
 1375POPC   C1A19623  25.312   3.484   8.789
 1375POPC   D2A19624  25.472   3.413   8.365
 1375POPC   C3A19625  25.259   3.402   8.011
 1375POPC   C4A19626  25.188   3.181   7.674
 1375POPC   C1B19627  25.007   3.879   8.818
 1375POPC   C2B19628  25.168   3.849   8.412
 1375POPC   C3B19629  25.447   3.856   8.092
 1375POPC   C4B19630  25.303   3.787   7.667
 1376POPC   NC319631  34.056   8.690   9.540
 1376POPC   PO419632  33.458   8.932   9.413
 1376POPC   GL119633  33.760   8.766   9.113
 1376POPC   GL219634  34.062   8.526   9.064
 1376POPC   C1A19635  33.632   8.747   8.687
 1376POPC   D2A19636  33.496   8.802   8.254
 1376POPC   C3A19637  33.659   9.158   8.016
 1376POPC   C4A19638  33.856   9.033   7.643
 1376POPC   C1B19639  34.133   8.831   8.749
 1376POPC   C2B19640  34.004   8.932   8.341
 1376POPC   C3B19641  34.040   8.684   7.959
 1376POPC   C4B19642  33.930   8.550   7.504
 1377POPC   NC319643  34.159  31.379   9.422
 1377POPC   PO419644  33.579  31.580   9.648
 1377POPC   GL119645  33.772  31.744   9.270
 1377POPC   GL219646  33.621  31.472   9.094
 1377POPC   C1A19647  33.967  31.746   8.836
 1377POPC   D2A19648  33.728  31.668   8.411
 1377POPC   C3A19649  33.866  31.467   8.024
 1377POPC   C4A19650  33.749  31.489   7.608
 1377POPC   C1B19651  33.811  31.280   8.728
 1377POPC   C2B19652  33.784  31.096   8.373
 1377POPC   C3B19653  33.432  31.170   8.117
 1377POPC   C4B19654  33.420  31.112   7.686
 1378POPC   NC319655  21.130  34.661   9.443
 1378POPC   PO419656  20.473  34.564   9.381
 1378POPC   GL119657  20.710  34.745   9.052
 1378POPC   GL219658  20.942  34.481   9.005
 1378POPC   C1A19659  20.683  34.725   8.593
 1378POPC   D2A19660  20.508  34.441   8.289
 1378POPC   C3A19661  20.567  34.596   7.878
 1378POPC   C4A19662  20.505  34.609   7.426
 1378POPC   C1B19663  21.157  34.784   8.763
 1378POPC   C2B19664  21.258  34.924   8.379
 1378POPC   C3B19665  21.036  34.936   7.994
 1378POPC   C4B19666  20.953  34.778   7.589
 1379POPC   NC319667  14.310  35.396   9.543
 1379POPC   PO419668  14.902  34.978   9.576
 1379POPC   GL119669  14.605  35.157   9.183
 1379POPC   GL219670  14.239  35.327   9.062
 1379POPC   C1A19671  14.508  35.055   8.734
 1379POPC   D2A19672  14.607  35.268   8.358
 1379POPC   C3A19673  14.321  35.237   8.054
 1379POPC   C4A19674  14.271  35.189   7.642
 1379POPC   C1B19675  14.114  35.541   8.682
 1379POPC   C2B19676  14.030  35.623   8.255
 1379POPC   C3B19677  13.974  35.706   7.818
 1379POPC   C4B19678  14.239  35.661   7.461
 1380POPC   NC319679  10.254   5.515   9.777
 1380POPC   PO419680  10.799   5.510   9.441
 1380POPC   GL119681  10.481   5.285   9.188
 1380POPC   GL219682  10.606   4.969   9.023
 1380POPC   C1A19683  10.285   5.271   8.770
 1380POPC   D2A19684  10.282   5.046   8.360
 1380POPC   C3A19685  10.352   5.301   8.004
 1380POPC   C4A19686  10.395   5.094   7.626
 1380POPC   C1B19687  10.806   5.271   8.792
 1380POPC   C2B19688  10.701   5.341   8.409
 1380POPC   C3B19689  10.871   5.234   8.035
 1380POPC   C4B19690  10.771   5.428   7.661
 1381POPC   NC319691  17.828  30.157   9.776
 1381POPC   PO419692  17.157  30.390   9.566
 1381POPC   GL119693  17.254  30.691   9.202
 1381POPC   GL219694  17.401  30.427   9.044
 1381POPC   C1A19695  17.465  30.848   8.771
 1381POPC   D2A19696  17.673  30.738   8.353
 1381POPC   C3A19697  17.492  30.955   7.994
 1381POPC   C4A19698  17.528  30.937   7.536
 1381POPC   C1B19699  17.616  30.346   8.677
 1381POPC   C2B19700  17.528  30.160   8.267
 1381POPC   C3B19701  17.805  30.150   7.930
 1381POPC   C4B19702  17.580  30.488   7.758
 1382POPC   NC319703  32.479  30.990   9.611
 1382POPC   PO419704  32.593  30.347   9.645
 1382POPC   GL119705  32.350  30.496   9.222
 1382POPC   GL219706  32.489  30.796   9.061
 1382POPC   C1A19707  32.014  30.498   8.825
 1382POPC   D2A19708  31.721  30.647   8.451
 1382POPC   C3A19709  31.844  30.587   8.006
 1382POPC   C4A19710  32.246  30.684   7.829
 1382POPC   C1B19711  32.214  30.958   8.711
 1382POPC   C2B19712  32.158  31.013   8.260
 1382POPC   C3B19713  32.503  31.099   7.946
 1382POPC   C4B19714  32.709  30.785   7.648
 1383POPC   NC319715   3.821  29.902   9.543
 1383POPC   PO419716   3.382  30.407   9.693
 1383POPC   GL119717   3.344  30.081   9.304
 1383POPC   GL219718   3.268  29.684   9.297
 1383POPC   C1A19719   3.576  29.886   8.929
 1383POPC   D2A19720   3.685  29.647   8.559
 1383POPC   C3A19721   3.728  29.854   8.179
 1383POPC   C4A19722   3.632  29.971   7.739
 1383POPC   C1B19723   3.289  29.491   8.840
 1383POPC   C2B19724   3.232  29.487   8.401
 1383POPC   C3B19725   3.505  29.418   8.032
 1383POPC   C4B19726   3.398  29.524   7.623
 1384POPC   NC319727   0.641  41.464   9.530
 1384POPC   PO419728   0.100  41.937   9.417
 1384POPC   GL119729   0.333  41.694   9.126
 1384POPC   GL219730   0.677  41.793   9.117
 1384POPC   C1A19731   0.323  41.544   8.705
 1384POPC   D2A19732   0.155  41.260   8.408
 1384POPC   C3A19733   0.284  41.431   8.033
 1384POPC   C4A19734   0.386  41.441   7.601
 1384POPC   C1B19735   0.838  41.504   8.801
 1384POPC   C2B19736   0.708  41.429   8.352
 1384POPC   C3B19737   0.763  41.599   7.927
 1384POPC   C4B19738   0.658  41.882   7.562
 1385POPC   NC319739  39.097  39.746   9.494
 1385POPC   PO419740  38.937  40.468   9.521
 1385POPC   GL119741  39.064  40.284   9.102
 1385POPC   GL219742  39.204  39.982   9.083
 1385POPC   C1A19743  39.403  40.266   8.743
 1385POPC   D2A19744  39.465  40.073   8.346
 1385POPC   C3A19745  39.236  40.359   8.094
 1385POPC   C4A19746  39.065  40.245   7.716
 1385POPC   C1B19747  39.265  39.765   8.734
 1385POPC   C2B19748  39.206  39.600   8.352
 1385POPC   C3B19749  39.211  39.790   7.977
 1385POPC   C4B19750  39.281  39.780   7.529
 1386POPC   NC319751  38.195   0.715   9.715
 1386POPC   PO419752  38.494   0.213   9.485
 1386POPC   GL119753  38.241   0.368   9.178
 1386POPC   GL219754  38.169   0.062   8.995
 1386POPC   C1A19755  38.248   0.503   8.754
 1386POPC   D2A19756  38.332   0.250   8.392
 1386POPC   C3A19757  38.369   0.485   8.021
 1386POPC   C4A19758  38.201   0.665   7.629
 1386POPC   C1B19759  38.607   0.107   8.824
 1386POPC   C2B19760  38.846   0.085   8.422
 1386POPC   C3B19761  38.786   0.174   7.960
 1386POPC   C4B19762  38.428   0.202   7.610
 1387POPC   NC319763  33.616  24.213   9.357
 1387POPC   PO419764  34.096  24.589   9.508
 1387POPC   GL119765  33.905  24.596   9.122
 1387POPC   GL219766  34.041  24.907   9.031
 1387POPC   C1A19767  33.679  24.507   8.744
 1387POPC   D2A19768  33.453  24.526   8.352
 1387POPC   C3A19769  33.548  24.331   7.982
 1387POPC   C4A19770  33.687  24.507   7.600
 1387POPC   C1B19771  33.953  24.902   8.596
 1387POPC   C2B19772  33.910  24.694   8.197
 1387POPC   C3B19773  34.080  24.386   7.915
 1387POPC   C4B19774  34.174  24.318   7.474
 1388POPC   NC319775  10.014  28.896   9.789
 1388POPC   PO419776   9.729  28.364   9.552
 1388POPC   GL119777   9.668  28.254   9.161
 1388POPC   GL219778   9.492  28.549   9.069
 1388POPC   C1A19779   9.872  28.113   8.794
 1388POPC   D2A19780  10.042  28.295   8.424
 1388POPC   C3A19781   9.968  28.031   8.089
 1388POPC   C4A19782   9.755  28.091   7.729
 1388POPC   C1B19783   9.905  28.626   8.842
 1388POPC   C2B19784   9.959  28.833   8.457
 1388POPC   C3B19785   9.771  28.618   8.115
 1388POPC   C4B19786   9.755  28.763   7.735
 1389POPC   NC319787  27.672  36.524   9.394
 1389POPC   PO419788  27.396  37.125   9.525
 1389POPC   GL119789  27.534  36.946   9.140
 1389POPC   GL219790  27.414  37.242   9.035
 1389POPC   C1A19791  27.642  36.671   8.762
 1389POPC   D2A19792  27.654  36.843   8.354
 1389POPC   C3A19793  27.520  36.644   7.972
 1389POPC   C4A19794  27.744  36.769   7.646
 1389POPC   C1B19795  27.342  37.401   8.695
 1389POPC   C2B19796  27.334  37.259   8.305
 1389POPC   C3B19797  27.528  37.148   7.951
 1389POPC   C4B19798  27.305  37.049   7.595
 1390POPC   NC319799  20.431   4.460   9.513
 1390POPC   PO419800  20.809   3.953   9.723
 1390POPC   GL119801  20.695   4.036   9.228
 1390POPC   GL219802  20.486   4.247   9.041
 1390POPC   C1A19803  20.936   4.143   8.803
 1390POPC   D2A19804  20.848   4.104   8.338
 1390POPC   C3A19805  20.705   4.448   8.084
 1390POPC   C4A19806  20.442   4.310   7.730
 1390POPC   C1B19807  20.540   4.459   8.644
 1390POPC   C2B19808  20.252   4.557   8.314
 1390POPC   C3B19809  20.269   4.750   7.930
 1390POPC   C4B19810  20.015   4.610   7.584
 1391POPC   NC319811  42.229  15.279   9.511
 1391POPC   PO419812  42.558  14.727   9.655
 1391POPC   GL119813  42.558  14.967   9.235
 1391POPC   GL219814  42.585  15.350   9.144
 1391POPC   C1A19815  42.306  14.984   8.829
 1391POPC   D2A19816  42.346  15.201   8.431
 1391POPC   C3A19817  42.285  15.014   8.048
 1391POPC   C4A19818  42.407  14.854   7.671
 1391POPC   C1B19819  42.267  15.519   8.832
 1391POPC   C2B19820  42.171  15.694   8.416
 1391POPC   C3B19821  42.043  15.503   8.034
 1391POPC   C4B19822  42.162  15.306   7.637
 1392POPC   NC319823  35.698  39.885   9.625
 1392POPC   PO419824  35.084  39.791   9.738
 1392POPC   GL119825  35.302  39.811   9.297
 1392POPC   GL219826  35.557  40.061   9.155
 1392POPC   C1A19827  35.246  39.848   8.838
 1392POPC   D2A19828  35.433  39.754   8.445
 1392POPC   C3A19829  35.268  39.898   8.048
 1392POPC   C4A19830  35.434  40.059   7.669
 1392POPC   C1B19831  35.415  40.341   8.819
 1392POPC   C2B19832  35.305  40.278   8.398
 1392POPC   C3B19833  35.251  40.407   7.982
 1392POPC   C4B19834  34.932  40.176   7.720
 1393POPC   NC319835  41.012  39.932   9.581
 1393POPC   PO419836  40.298  39.809   9.436
 1393POPC   GL119837  40.658  39.940   9.143
 1393POPC   GL219838  41.076  39.906   9.097
 1393POPC   C1A19839  40.603  40.120   8.726
 1393POPC   D2A19840  40.873  40.152   8.348
 1393POPC   C3A19841  40.746  40.130   7.943
 1393POPC   C4A19842  40.724  40.318   7.522
 1393POPC   C1B19843  41.043  39.844   8.704
 1393POPC   C2B19844  41.081  39.635   8.344
 1393POPC   C3B19845  41.200  39.738   7.961
 1393POPC   C4B19846  40.912  39.761   7.643
 1394POPC   NC319847  38.922  39.067   9.406
 1394POPC   PO419848  39.416  39.396   9.458
 1394POPC   GL119849  39.221  39.384   9.072
 1394POPC   GL219850  38.925  39.531   9.035
 1394POPC   C1A19851  39.185  39.170   8.659
 1394POPC   D2A19852  39.523  39.062   8.343
 1394POPC   C3A19853  39.429  39.035   7.881
 1394POPC   C4A19854  39.353  39.285   7.497
 1394POPC   C1B19855  38.780  39.483   8.638
 1394POPC   C2B19856  38.823  39.290   8.248
 1394POPC   C3B19857  38.974  39.322   7.834
 1394POPC   C4B19858  38.875  39.404   7.389
 1395POPC   NC319859  12.903   4.042   9.531
 1395POPC   PO419860  12.687   4.704   9.417
 1395POPC   GL119861  12.992   4.491   9.154
 1395POPC   GL219862  12.987   4.119   9.037
 1395POPC   C1A19863  13.173   4.525   8.762
 1395POPC   D2A19864  12.996   4.214   8.503
 1395POPC   C3A19865  13.061   4.301   8.065
 1395POPC   C4A19866  12.805   4.286   7.707
 1395POPC   C1B19867  12.575   4.122   8.801
 1395POPC   C2B19868  12.478   4.262   8.362
 1395POPC   C3B19869  12.456   4.015   8.007
 1395POPC   C4B19870  12.648   3.782   7.713
 1396POPC   NC319871  27.319   7.643   9.571
 1396POPC   PO419872  27.785   7.202   9.672
 1396POPC   GL119873  27.753   7.345   9.236
 1396POPC   GL219874  27.498   7.504   9.118
 1396POPC   C1A19875  27.778   7.315   8.749
 1396POPC   D2A19876  27.522   7.418   8.383
 1396POPC   C3A19877  27.661   7.634   8.019
 1396POPC   C4A19878  27.926   7.427   7.742
 1396POPC   C1B19879  27.230   7.289   8.789
 1396POPC   C2B19880  27.024   7.287   8.359
 1396POPC   C3B19881  27.235   7.357   7.930
 1396POPC   C4B19882  27.460   7.504   7.549
 1397POPC   NC319883  12.423  28.943   9.515
 1397POPC   PO419884  11.804  29.183   9.463
 1397POPC   GL119885  12.020  29.182   9.085
 1397POPC   GL219886  12.383  29.249   9.104
 1397POPC   C1A19887  11.828  29.268   8.690
 1397POPC   D2A19888  11.918  29.302   8.255
 1397POPC   C3A19889  12.260  29.073   8.079
 1397POPC   C4A19890  12.314  29.114   7.635
 1397POPC   C1B19891  12.285  29.499   8.742
 1397POPC   C2B19892  12.400  29.521   8.310
 1397POPC   C3B19893  12.250  29.547   7.889
 1397POPC   C4B19894  12.161  29.543   7.401
 1398POPC   NC319895  29.094  13.151   9.419
 1398POPC   PO419896  29.414  13.713   9.563
 1398POPC   GL119897  29.329  13.563   9.163
 1398POPC   GL219898  29.534  13.251   9.181
 1398POPC   C1A19899  29.103  13.736   8.775
 1398POPC   D2A19900  28.742  13.712   8.463
 1398POPC   C3A19901  28.883  13.567   8.050
 1398POPC   C4A19902  29.177  13.819   7.822
 1398POPC   C1B19903  29.408  13.298   8.730
 1398POPC   C2B19904  29.391  13.465   8.301
 1398POPC   C3B19905  29.461  13.373   7.867
 1398POPC   C4B19906  29.454  13.058   7.548
 1399POPC   NC319907  34.844  10.074   9.417
 1399POPC   PO419908  34.357   9.594   9.428
 1399POPC   GL119909  34.648   9.710   9.129
 1399POPC   GL219910  34.443  10.018   9.071
 1399POPC   C1A19911  34.766   9.555   8.745
 1399POPC   D2A19912  34.461   9.736   8.495
 1399POPC   C3A19913  34.423   9.636   8.085
 1399POPC   C4A19914  34.264   9.918   7.769
 1399POPC   C1B19915  34.783  10.068   8.786
 1399POPC   C2B19916  34.836  10.137   8.400
 1399POPC   C3B19917  34.581  10.135   8.106
 1399POPC   C4B19918  34.779   9.900   7.801
 1400POPC   NC319919  41.824  17.040   9.543
 1400POPC   PO419920  41.748  17.759   9.391
 1400POPC   GL119921  41.613  17.445   9.083
 1400POPC   GL219922  41.255  17.393   9.073
 1400POPC   C1A19923  41.625  17.540   8.676
 1400POPC   D2A19924  41.918  17.479   8.384
 1400POPC   C3A19925  41.842  17.598   7.980
 1400POPC   C4A19926  41.539  17.745   7.718
 1400POPC   C1B19927  41.158  17.319   8.628
 1400POPC   C2B19928  41.388  17.421   8.230
 1400POPC   C3B19929  41.481  17.254   7.831
 1400POPC   C4B19930  41.219  17.170   7.500
 1401POPC   NC319931  32.144  33.346   9.482
 1401POPC   PO419932  31.961  32.694   9.311
 1401POPC   GL119933  32.245  32.996   9.115
 1401POPC   GL219934  31.918  33.206   9.059
 1401POPC   C1A19935  32.544  32.980   8.731
 1401POPC   D2A19936  32.320  32.938   8.311
 1401POPC   C3A19937  32.464  33.042   7.896
 1401POPC   C4A19938  32.673  33.172   7.554
 1401POPC   C1B19939  32.141  33.284   8.708
 1401POPC   C2B19940  32.148  33.447   8.325
 1401POPC   C3B19941  32.023  33.234   7.987
 1401POPC   C4B19942  31.901  32.789   7.978
 1402POPC   NC319943  12.323  40.085   9.363
 1402POPC   PO419944  11.855  39.702   9.527
 1402POPC   GL119945  12.017  39.756   9.132
 1402POPC   GL219946  11.892  40.097   9.080
 1402POPC   C1A19947  12.194  39.885   8.728
 1402POPC   D2A19948  11.952  39.785   8.354
 1402POPC   C3A19949  12.096  39.969   7.988
 1402POPC   C4A19950  12.223  40.100   7.589
 1402POPC   C1B19951  11.756  40.219   8.664
 1402POPC   C2B19952  11.666  40.348   8.224
 1402POPC   C3B19953  11.739  40.292   7.772
 1402POPC   C4B19954  11.740  39.952   7.552
 1403POPC   NC319955  30.897  14.982   9.341
 1403POPC   PO419956  30.750  15.619   9.476
 1403POPC   GL119957  30.871  15.451   9.101
 1403POPC   GL219958  30.568  15.278   9.064
 1403POPC   C1A19959  30.969  15.282   8.695
 1403POPC   D2A19960  30.715  15.314   8.334
 1403POPC   C3A19961  30.863  15.249   7.932
 1403POPC   C4A19962  30.579  15.353   7.594
 1403POPC   C1B19963  30.499  14.985   8.723
 1403POPC   C2B19964  30.445  14.867   8.305
 1403POPC   C3B19965  30.378  15.016   7.910
 1403POPC   C4B19966  30.487  14.879   7.496
 1404POPC   NC319967  33.849  17.597   9.838
 1404POPC   PO419968  33.417  17.355   9.320
 1404POPC   GL119969  33.698  17.594   9.096
 1404POPC   GL219970  33.486  17.659   8.841
 1404POPC   C1A19971  33.962  17.795   8.751
 1404POPC   D2A19972  33.794  17.688   8.341
 1404POPC   C3A19973  33.954  17.853   7.970
 1404POPC   C4A19974  33.815  17.802   7.560
 1404POPC   C1B19975  33.782  17.297   8.701
 1404POPC   C2B19976  34.084  17.215   8.378
 1404POPC   C3B19977  33.971  17.320   7.974
 1404POPC   C4B19978  33.585  17.424   7.834
 1405POPC   NC319979  12.076  19.729   9.463
 1405POPC   PO419980  12.241  20.376   9.408
 1405POPC   GL119981  12.248  20.048   9.084
 1405POPC   GL219982  11.904  20.052   9.075
 1405POPC   C1A19983  12.137  19.672   8.806
 1405POPC   D2A19984  12.291  19.424   8.442
 1405POPC   C3A19985  12.209  19.688   8.057
 1405POPC   C4A19986  12.227  19.830   7.621
 1405POPC   C1B19987  11.799  20.134   8.693
 1405POPC   C2B19988  11.993  20.074   8.329
 1405POPC   C3B19989  11.868  20.070   7.919
 1405POPC   C4B19990  11.707  19.891   7.540
 1406POPC   NC319991   1.855  36.869   9.613
 1406POPC   PO419992   2.474  37.064   9.483
 1406POPC   GL119993   2.180  36.995   9.125
 1406POPC   GL219994   1.879  36.788   9.122
 1406POPC   C1A19995   2.172  36.707   8.738
 1406POPC   D2A19996   1.965  36.566   8.366
 1406POPC   C3A19997   2.135  36.775   7.998
 1406POPC   C4A19998   2.097  37.005   7.571
 1406POPC   C1B19999   1.719  36.978   8.748
 1406POPC   C2B20000   1.890  37.072   8.349
 1406POPC   C3B20001   1.775  37.172   7.943
 1406POPC   C4B20002   1.598  37.167   7.535
 1407POPC   NC320003  21.341   4.693   9.856
 1407POPC   PO420004  21.511   5.298   9.556
 1407POPC   GL120005  21.523   5.334   9.091
 1407POPC   GL220006  21.152   5.304   9.099
 1407POPC   C1A20007  21.619   5.196   8.623
 1407POPC   D2A20008  21.505   4.846   8.331
 1407POPC   C3A20009  21.402   4.865   7.871
 1407POPC   C4A20010  21.192   4.779   7.472
 1407POPC   C1B20011  21.179   4.994   8.760
 1407POPC   C2B20012  21.032   5.059   8.328
 1407POPC   C3B20013  21.118   5.338   7.961
 1407POPC   C4B20014  21.531   5.352   7.799
 1408POPC   NC320015   6.355  36.810   9.687
 1408POPC   PO420016   5.662  36.922   9.457
 1408POPC   GL120017   5.764  37.163   9.116
 1408POPC   GL220018   6.105  37.096   9.090
 1408POPC   C1A20019   5.628  36.978   8.725
 1408POPC   D2A20020   5.427  36.854   8.331
 1408POPC   C3A20021   5.568  37.094   7.986
 1408POPC   C4A20022   5.843  37.109   7.645
 1408POPC   C1B20023   6.047  36.693   8.798
 1408POPC   C2B20024   5.898  36.638   8.400
 1408POPC   C3B20025   6.021  36.853   8.061
 1408POPC   C4B20026   6.184  36.739   7.674
 1409POPC   NC320027  38.937   0.057   9.426
 1409POPC   PO420028  39.308   0.725   9.471
 1409POPC   GL120029  39.132   0.492   9.141
 1409POPC   GL220030  38.766   0.495   9.153
 1409POPC   C1A20031  39.319   0.476   8.742
 1409POPC   D2A20032  39.473   0.805   8.490
 1409POPC   C3A20033  39.487   0.623   8.093
 1409POPC   C4A20034  39.270   0.332   7.832
 1409POPC   C1B20035  38.812   0.574   8.711
 1409POPC   C2B20036  39.021   0.572   8.314
 1409POPC   C3B20037  38.982   0.778   7.934
 1409POPC   C4B20038  38.754   0.580   7.657
 1410POPC   NC320039  34.940  19.683   9.613
 1410POPC   PO420040  34.256  19.510   9.444
 1410POPC   GL120041  34.567  19.778   9.233
 1410POPC   GL220042  34.797  19.531   9.145
 1410POPC   C1A20043  34.548  19.940   8.806
 1410POPC   D2A20044  34.315  19.710   8.484
 1410POPC   C3A20045  34.384  19.739   8.049
 1410POPC   C4A20046  34.656  20.040   7.865
 1410POPC   C1B20047  34.734  19.483   8.736
 1410POPC   C2B20048  34.828  19.732   8.391
 1410POPC   C3B20049  34.884  19.611   7.997
 1410POPC   C4B20050  34.759  19.597   7.577
 1411POPC   NC320051  35.928  44.199   9.368
 1411POPC   PO420052  35.326  43.877   9.443
 1411POPC   GL120053  35.464  43.597   9.125
 1411POPC   GL220054  35.749  43.765   9.116
 1411POPC   C1A20055  35.286  43.586   8.739
 1411POPC   D2A20056  35.286  43.891   8.416
 1411POPC   C3A20057  35.270  43.691   8.023
 1411POPC   C4A20058  35.316  43.886   7.684
 1411POPC   C1B20059  35.740  43.825   8.715
 1411POPC   C2B20060  35.726  43.671   8.323
 1411POPC   C3B20061  35.690  44.019   8.042
 1411POPC   C4B20062  35.715  44.223   7.643
 1412POPC   NC320063  19.312   3.228   9.281
 1412POPC   PO420064  18.763   3.552   9.604
 1412POPC   GL120065  18.953   3.607   9.160
 1412POPC   GL220066  19.046   3.389   8.886
 1412POPC   C1A20067  19.112   3.876   8.789
 1412POPC   D2A20068  19.295   3.647   8.436
 1412POPC   C3A20069  19.096   3.594   8.048
 1412POPC   C4A20070  18.944   3.584   7.655
 1412POPC   C1B20071  19.265   3.141   8.592
 1412POPC   C2B20072  19.369   3.163   8.163
 1412POPC   C3B20073  19.276   3.175   7.732
 1412POPC   C4B20074  19.413   2.990   7.352
 1413POPC   NC320075  23.385  33.589   9.298
 1413POPC   PO420076  23.822  33.973   9.730
 1413POPC   GL120077  23.835  33.886   9.286
 1413POPC   GL220078  23.681  34.162   9.111
 1413POPC   C1A20079  23.870  33.737   8.846
 1413POPC   D2A20080  23.598  33.522   8.515
 1413POPC   C3A20081  23.760  33.545   8.083
 1413POPC   C4A20082  24.051  33.712   7.757
 1413POPC   C1B20083  23.455  34.039   8.739
 1413POPC   C2B20084  23.344  33.933   8.321
 1413POPC   C3B20085  23.296  33.730   7.936
 1413POPC   C4B20086  23.286  33.948   7.537
 1414POPC   NC320087  21.712  34.145   9.472
 1414POPC   PO420088  21.541  34.892   9.470
 1414POPC   GL120089  21.504  34.714   9.091
 1414POPC   GL220090  21.455  34.381   9.049
 1414POPC   C1A20091  21.667  34.670   8.667
 1414POPC   D2A20092  21.542  34.492   8.278
 1414POPC   C3A20093  21.708  34.615   7.927
 1414POPC   C4A20094  21.462  34.806   7.632
 1414POPC   C1B20095  21.264  34.295   8.662
 1414POPC   C2B20096  21.033  34.454   8.295
 1414POPC   C3B20097  21.201  34.448   7.870
 1414POPC   C4B20098  21.256  34.452   7.347
 1415POPC   NC320099  11.641  42.735   9.259
 1415POPC   PO420100  11.306  43.322   9.516
 1415POPC   GL120101  11.232  43.356   9.107
 1415POPC   GL220102  11.313  43.042   9.065
 1415POPC   C1A20103  11.035  43.314   8.720
 1415POPC   D2A20104  10.983  43.196   8.305
 1415POPC   C3A20105  11.268  43.323   8.014
 1415POPC   C4A20106  11.204  43.192   7.594
 1415POPC   C1B20107  11.294  42.820   8.700
 1415POPC   C2B20108  11.412  42.878   8.307
 1415POPC   C3B20109  11.155  42.821   7.973
 1415POPC   C4B20110  11.151  42.647   7.603
 1416POPC   NC320111  35.150  44.705   9.739
 1416POPC   PO420112  35.783  44.763   9.524
 1416POPC   GL120113  35.375  44.692   9.245
 1416POPC   GL220114  35.574  44.852   9.032
 1416POPC   C1A20115  35.169  44.662   8.766
 1416POPC   D2A20116  35.329  44.417   8.359
 1416POPC   C3A20117  35.303  44.580   7.906
 1416POPC   C4A20118  35.222  44.354   7.507
 1416POPC   C1B20119  35.519   0.069   8.688
 1416POPC   C2B20120  35.428  44.910   8.302
 1416POPC   C3B20121  35.538   0.079   7.942
 1416POPC   C4B20122  35.331   0.042   7.548
 1417POPC   NC320123  24.992   5.717   9.398
 1417POPC   PO420124  25.688   5.753   9.501
 1417POPC   GL120125  25.446   5.817   9.104
 1417POPC   GL220126  25.518   5.502   8.999
 1417POPC   C1A20127  25.195   5.765   8.686
 1417POPC   D2A20128  25.344   5.814   8.226
 1417POPC   C3A20129  25.035   5.813   7.879
 1417POPC   C4A20130  25.120   5.962   7.413
 1417POPC   C1B20131  25.649   5.584   8.631
 1417POPC   C2B20132  25.842   5.664   8.273
 1417POPC   C3B20133  25.741   5.641   7.868
 1417POPC   C4B20134  25.410   5.602   7.594
 1418POPC   NC320135  15.616   4.499   9.433
 1418POPC   PO420136  14.932   4.399   9.342
 1418POPC   GL120137  15.233   4.639   9.104
 1418POPC   GL220138  15.390   4.341   9.008
 1418POPC   C1A20139  15.128   4.653   8.702
 1418POPC   D2A20140  15.310   4.377   8.436
 1418POPC   C3A20141  15.156   4.475   8.041
 1418POPC   C4A20142  15.280   4.655   7.655
 1418POPC   C1B20143  15.190   4.004   8.807
 1418POPC   C2B20144  15.474   3.879   8.517
 1418POPC   C3B20145  15.632   4.073   8.159
 1418POPC   C4B20146  15.403   4.101   7.786
 1419POPC   NC320147   3.000  39.007   9.496
 1419POPC   PO420148   2.844  39.597   9.493
 1419POPC   GL120149   2.993  39.377   9.128
 1419POPC   GL220150   2.659  39.219   9.142
 1419POPC   C1A20151   2.937  39.196   8.704
 1419POPC   D2A20152   3.107  39.005   8.315
 1419POPC   C3A20153   2.889  39.161   7.953
 1419POPC   C4A20154   3.005  39.117   7.528
 1419POPC   C1B20155   2.468  39.002   8.791
 1419POPC   C2B20156   2.603  38.884   8.375
 1419POPC   C3B20157   2.417  38.885   7.979
 1419POPC   C4B20158   2.495  39.082   7.624
 1420POPC   NC320159  37.894  20.028   9.568
 1420POPC   PO420160  37.273  19.763   9.553
 1420POPC   GL120161  37.562  19.886   9.206
 1420POPC   GL220162  37.888  19.700   9.150
 1420POPC   C1A20163  37.552  19.825   8.770
 1420POPC   D2A20164  37.361  19.663   8.420
 1420POPC   C3A20165  37.526  19.873   8.060
 1420POPC   C4A20166  37.540  19.846   7.626
 1420POPC   C1B20167  38.052  19.900   8.754
 1420POPC   C2B20168  37.893  20.074   8.365
 1420POPC   C3B20169  38.021  20.035   7.931
 1420POPC   C4B20170  37.934  20.085   7.484
 1421POPC   NC320171  25.883  28.677   9.673
 1421POPC   PO420172  25.746  29.248   9.300
 1421POPC   GL120173  26.068  29.296   9.031
 1421POPC   GL220174  26.254  29.563   9.148
 1421POPC   C1A20175  26.126  29.129   8.618
 1421POPC   D2A20176  26.039  28.715   8.444
 1421POPC   C3A20177  25.795  28.807   8.105
 1421POPC   C4A20178  25.895  29.104   7.765
 1421POPC   C1B20179  26.385  29.564   8.743
 1421POPC   C2B20180  26.329  29.618   8.343
 1421POPC   C3B20181  26.193  29.374   8.052
 1421POPC   C4B20182  26.359  29.258   7.645
 1422POPC   NC320183  21.007  21.182   9.388
 1422POPC   PO420184  20.451  21.418   9.670
 1422POPC   GL120185  20.449  21.272   9.225
 1422POPC   GL220186  20.684  21.488   9.122
 1422POPC   C1A20187  20.525  21.211   8.731
 1422POPC   D2A20188  20.739  21.290   8.332
 1422POPC   C3A20189  20.494  21.271   7.966
 1422POPC   C4A20190  20.423  21.327   7.508
 1422POPC   C1B20191  20.910  21.562   8.737
 1422POPC   C2B20192  21.037  21.735   8.339
 1422POPC   C3B20193  20.801  21.686   7.956
 1422POPC   C4B20194  20.868  21.548   7.521
 1423POPC   NC320195   3.680  18.507   9.481
 1423POPC   PO420196   3.097  18.189   9.231
 1423POPC   GL120197   3.384  18.462   9.062
 1423POPC   GL220198   3.687  18.250   9.051
 1423POPC   C1A20199   3.529  18.582   8.669
 1423POPC   D2A20200   3.712  18.427   8.325
 1423POPC   C3A20201   3.512  18.380   7.952
 1423POPC   C4A20202   3.568  18.432   7.533
 1423POPC   C1B20203   3.492  18.063   8.707
 1423POPC   C2B20204   3.285  18.126   8.323
 1423POPC   C3B20205   3.350  17.880   7.921
 1423POPC   C4B20206   3.360  17.883   7.466
 1424POPC   NC320207  43.046  32.785   9.666
 1424POPC   PO420208  43.353  32.163   9.610
 1424POPC   GL120209  43.219  32.215   9.200
 1424POPC   GL220210  43.103  32.538   9.207
 1424POPC   C1A20211  43.330  32.038   8.762
 1424POPC   D2A20212  43.182  32.194   8.339
 1424POPC   C3A20213  43.416  32.074   7.968
 1424POPC   C4A20214  43.270  31.797   7.655
 1424POPC   C1B20215  42.940  32.374   8.804
 1424POPC   C2B20216  42.688  32.144   8.525
 1424POPC   C3B20217  42.657  32.114   8.126
 1424POPC   C4B20218  42.951  32.210   7.807
 1425POPC   NC320219  39.724  11.393   9.891
 1425POPC   PO420220  39.295  11.032   9.614
 1425POPC   GL120221  39.203  11.016   9.179
 1425POPC   GL220222  39.131  11.362   9.216
 1425POPC   C1A20223  39.381  11.217   8.771
 1425POPC   D2A20224  39.596  11.505   8.488
 1425POPC   C3A20225  39.447  11.525   8.057
 1425POPC   C4A20226  39.302  11.321   7.690
 1425POPC   C1B20227  38.870  11.271   8.857
 1425POPC   C2B20228  38.756  11.172   8.417
 1425POPC   C3B20229  38.898  11.324   8.038
 1425POPC   C4B20230  38.786  11.359   7.633
 1426POPC   NC320231  31.715  20.173   9.565
 1426POPC   PO420232  31.214  19.745   9.327
 1426POPC   GL120233  31.430  19.974   9.043
 1426POPC   GL220234  31.701  20.191   9.074
 1426POPC   C1A20235  31.487  19.993   8.624
 1426POPC   D2A20236  31.608  19.743   8.343
 1426POPC   C3A20237  31.426  19.795   7.986
 1426POPC   C4A20238  31.577  19.607   7.660
 1426POPC   C1B20239  31.973  20.331   8.799
 1426POPC   C2B20240  31.866  20.243   8.397
 1426POPC   C3B20241  31.973  20.126   8.028
 1426POPC   C4B20242  31.835  20.103   7.635
 1427POPC   NC320243   5.759  24.310   9.400
 1427POPC   PO420244   6.153  24.808   9.544
 1427POPC   GL120245   5.984  24.785   9.132
 1427POPC   GL220246   6.140  24.489   9.090
 1427POPC   C1A20247   5.687  24.655   8.777
 1427POPC   D2A20248   5.776  24.607   8.337
 1427POPC   C3A20249   5.636  24.475   7.947
 1427POPC   C4A20250   5.490  24.704   7.588
 1427POPC   C1B20251   6.185  24.615   8.653
 1427POPC   C2B20252   6.246  24.458   8.245
 1427POPC   C3B20253   6.154  24.603   7.845
 1427POPC   C4B20254   5.930  24.411   7.524
 1428POPC   NC320255  31.854  39.439   9.870
 1428POPC   PO420256  31.270  39.502   9.466
 1428POPC   GL120257  31.465  39.313   9.144
 1428POPC   GL220258  31.691  39.047   9.297
 1428POPC   C1A20259  31.244  39.212   8.764
 1428POPC   D2A20260  30.986  39.339   8.438
 1428POPC   C3A20261  31.252  39.316   8.066
 1428POPC   C4A20262  31.324  38.865   7.950
 1428POPC   C1B20263  31.698  38.978   8.847
 1428POPC   C2B20264  31.558  39.007   8.395
 1428POPC   C3B20265  31.756  39.113   8.003
 1428POPC   C4B20266  31.738  39.480   7.728
 1429POPC   NC320267   8.327  13.526   9.294
 1429POPC   PO420268   8.948  13.629   9.595
 1429POPC   GL120269   9.086  13.550   9.191
 1429POPC   GL220270   8.780  13.553   9.059
 1429POPC   C1A20271   9.263  13.610   8.786
 1429POPC   D2A20272   9.172  13.735   8.364
 1429POPC   C3A20273   9.163  13.441   8.021
 1429POPC   C4A20274   9.133  13.463   7.535
 1429POPC   C1B20275   8.832  13.907   8.748
 1429POPC   C2B20276   8.719  13.984   8.334
 1429POPC   C3B20277   8.859  13.832   7.946
 1429POPC   C4B20278   9.081  13.973   7.639
 1430POPC   NC320279  25.199  33.341   9.709
 1430POPC   PO420280  25.486  33.804   9.302
 1430POPC   GL120281  25.181  33.624   9.076
 1430POPC   GL220282  25.492  33.568   8.862
 1430POPC   C1A20283  24.983  33.633   8.702
 1430POPC   D2A20284  25.137  33.615   8.276
 1430POPC   C3A20285  25.130  34.000   8.067
 1430POPC   C4A20286  25.037  34.233   7.704
 1430POPC   C1B20287  25.434  33.892   8.591
 1430POPC   C2B20288  25.603  33.837   8.202
 1430POPC   C3B20289  25.466  33.625   7.865
 1430POPC   C4B20290  25.103  33.705   7.624
 1431POPC   NC320291  35.857  20.038   9.682
 1431POPC   PO420292  36.444  19.912   9.793
 1431POPC   GL120293  36.180  19.816   9.350
 1431POPC   GL220294  35.905  20.028   9.168
 1431POPC   C1A20295  36.245  19.800   8.873
 1431POPC   D2A20296  36.181  20.105   8.533
 1431POPC   C3A20297  36.167  20.010   8.097
 1431POPC   C4A20298  36.072  19.671   7.840
 1431POPC   C1B20299  35.743  19.885   8.765
 1431POPC   C2B20300  35.760  19.771   8.328
 1431POPC   C3B20301  35.662  20.001   7.948
 1431POPC   C4B20302  35.848  20.034   7.510
 1432POPC   NC320303  17.495  37.375   9.494
 1432POPC   PO420304  18.046  37.693   9.439
 1432POPC   GL120305  17.681  37.671   9.109
 1432POPC   GL220306  17.331  37.500   9.026
 1432POPC   C1A20307  17.657  37.672   8.663
 1432POPC   D2A20308  17.966  37.729   8.380
 1432POPC   C3A20309  17.740  37.725   8.016
 1432POPC   C4A20310  17.541  37.774   7.610
 1432POPC   C1B20311  17.207  37.371   8.587
 1432POPC   C2B20312  17.241  37.593   8.195
 1432POPC   C3B20313  17.067  37.660   7.794
 1432POPC   C4B20314  17.109  37.561   7.349
 1433POPC   NC320315  39.620  21.363   9.628
 1433POPC   PO420316  39.057  21.670   9.552
 1433POPC   GL120317  39.277  21.505   9.255
 1433POPC   GL220318  39.255  21.173   9.299
 1433POPC   C1A20319  39.243  21.582   8.841
 1433POPC   D2A20320  38.961  21.410   8.537
 1433POPC   C3A20321  39.078  21.574   8.159
 1433POPC   C4A20322  39.296  21.611   7.784
 1433POPC   C1B20323  39.262  21.089   8.874
 1433POPC   C2B20324  39.437  21.249   8.464
 1433POPC   C3B20325  39.333  21.157   8.042
 1433POPC   C4B20326  39.595  21.136   7.721
 1434POPC   NC320327   6.900  37.482   9.393
 1434POPC   PO420328   7.367  38.008   9.343
 1434POPC   GL120329   7.329  37.620   9.112
 1434POPC   GL220330   7.677  37.627   9.078
 1434POPC   C1A20331   7.325  37.517   8.665
 1434POPC   D2A20332   7.566  37.659   8.293
 1434POPC   C3A20333   7.316  37.623   7.904
 1434POPC   C4A20334   7.366  37.483   7.471
 1434POPC   C1B20335   7.615  37.961   8.747
 1434POPC   C2B20336   7.783  38.136   8.365
 1434POPC   C3B20337   7.563  38.074   7.961
 1434POPC   C4B20338   7.667  37.880   7.578
 1435POPC   NC320339   0.230  11.236   9.469
 1435POPC   PO420340   0.513  11.798   9.484
 1435POPC   GL120341   0.662  11.541   9.146
 1435POPC   GL220342   0.331  11.456   9.037
 1435POPC   C1A20343   0.671  11.111   8.931
 1435POPC   D2A20344   0.408  11.042   8.566
 1435POPC   C3A20345   0.669  11.239   8.242
 1435POPC   C4A20346   0.754  11.138   7.815
 1435POPC   C1B20347   0.442  11.568   8.652
 1435POPC   C2B20348   0.215  11.492   8.286
 1435POPC   C3B20349   0.261  11.299   7.895
 1435POPC   C4B20350   0.070  11.409   7.508
 1436POPC   NC320351   7.807  42.110   9.545
 1436POPC   PO420352   7.483  42.636   9.864
 1436POPC   GL120353   7.427  42.497   9.395
 1436POPC   GL220354   7.138  42.237   9.355
 1436POPC   C1A20355   7.512  42.319   8.942
 1436POPC   D2A20356   7.291  42.191   8.544
 1436POPC   C3A20357   7.424  42.158   8.107
 1436POPC   C4A20358   7.510  42.402   7.748
 1436POPC   C1B20359   7.019  42.547   9.036
 1436POPC   C2B20360   6.924  42.540   8.601
 1436POPC   C3B20361   7.019  42.452   8.180
 1436POPC   C4B20362   6.996  42.699   7.849
 1437POPC   NC320363  44.435   8.170   9.511
 1437POPC   PO420364  44.106   8.713   9.277
 1437POPC   GL120365  44.429   8.518   9.059
 1437POPC   GL220366  44.500   8.167   9.005
 1437POPC   C1A20367  44.431   8.553   8.616
 1437POPC   D2A20368  44.741   8.666   8.330
 1437POPC   C3A20369  44.755   8.352   8.075
 1437POPC   C4A20370  44.786   8.323   7.635
 1437POPC   C1B20371  44.622   8.064   8.601
 1437POPC   C2B20372  44.350   8.052   8.272
 1437POPC   C3B20373  44.318   8.196   7.855
 1437POPC   C4B20374  44.445   7.997   7.481
 1438POPC   NC320375  30.609  32.790   9.550
 1438POPC   PO420376  30.757  33.508   9.572
 1438POPC   GL120377  30.543  33.228   9.200
 1438POPC   GL220378  30.483  32.892   9.089
 1438POPC   C1A20379  30.675  33.171   8.715
 1438POPC   D2A20380  30.827  33.296   8.291
 1438POPC   C3A20381  30.587  33.167   7.909
 1438POPC   C4A20382  30.338  33.004   7.546
 1438POPC   C1B20383  30.515  32.690   8.737
 1438POPC   C2B20384  30.676  32.682   8.349
 1438POPC   C3B20385  30.518  32.648   7.948
 1438POPC   C4B20386  30.436  32.518   7.544
 1439POPC   NC320387  31.019   2.877   9.502
 1439POPC   PO420388  31.700   2.828   9.534
 1439POPC   GL120389  31.502   2.760   9.128
 1439POPC   GL220390  31.584   2.993   8.892
 1439POPC   C1A20391  31.311   2.465   8.821
 1439POPC   D2A20392  31.336   2.237   8.411
 1439POPC   C3A20393  31.463   2.499   8.099
 1439POPC   C4A20394  31.302   2.642   7.749
 1439POPC   C1B20395  31.255   2.925   8.593
 1439POPC   C2B20396  31.146   2.896   8.176
 1439POPC   C3B20397  31.196   3.122   7.805
 1439POPC   C4B20398  30.984   2.959   7.424
 1440POPC   NC320399  42.758  33.849   9.467
 1440POPC   PO420400  43.446  33.812   9.643
 1440POPC   GL120401  43.212  33.933   9.239
 1440POPC   GL220402  42.887  34.078   9.050
 1440POPC   C1A20403  43.284  33.845   8.801
 1440POPC   D2A20404  43.138  33.836   8.389
 1440POPC   C3A20405  43.216  33.813   7.977
 1440POPC   C4A20406  42.946  33.958   7.660
 1440POPC   C1B20407  42.785  33.726   8.725
 1440POPC   C2B20408  42.756  33.475   8.312
 1440POPC   C3B20409  42.734  33.499   7.836
 1440POPC   C4B20410  42.658  33.284   7.434
 1441POPC   NC320411  17.948   8.108   9.180
 1441POPC   PO420412  18.393   8.581   9.446
 1441POPC   GL120413  18.440   8.274   9.081
 1441POPC   GL220414  18.452   7.884   9.079
 1441POPC   C1A20415  18.346   8.126   8.648
 1441POPC   D2A20416  17.985   8.151   8.380
 1441POPC   C3A20417  18.130   8.323   8.006
 1441POPC   C4A20418  18.203   8.159   7.646
 1441POPC   C1B20419  18.686   7.725   8.752
 1441POPC   C2B20420  18.791   7.905   8.345
 1441POPC   C3B20421  18.610   7.979   7.931
 1441POPC   C4B20422  18.479   7.756   7.564
 1442POPC   NC320423  19.353  20.019   9.215
 1442POPC   PO420424  18.824  19.717   9.455
 1442POPC   GL120425  18.899  19.779   9.060
 1442POPC   GL220426  19.175  19.569   9.016
 1442POPC   C1A20427  18.975  19.827   8.623
 1442POPC   D2A20428  19.175  19.950   8.270
 1442POPC   C3A20429  18.973  19.873   7.903
 1442POPC   C4A20430  18.806  20.156   7.636
 1442POPC   C1B20431  19.329  19.376   8.675
 1442POPC   C2B20432  19.411  19.492   8.234
 1442POPC   C3B20433  19.236  19.443   7.815
 1442POPC   C4B20434  19.271  19.717   7.440
 1443POPC   NC320435  32.454  17.838   9.457
 1443POPC   PO420436  31.845  18.246   9.539
 1443POPC   GL120437  32.108  18.166   9.216
 1443POPC   GL220438  32.414  18.342   9.234
 1443POPC   C1A20439  32.096  18.102   8.787
 1443POPC   D2A20440  31.951  18.090   8.362
 1443POPC   C3A20441  32.287  18.116   8.047
 1443POPC   C4A20442  32.214  18.204   7.629
 1443POPC   C1B20443  32.487  18.467   8.822
 1443POPC   C2B20444  32.318  18.483   8.411
 1443POPC   C3B20445  32.357  18.642   7.977
 1443POPC   C4B20446  32.476  18.618   7.522
 1444POPC   NC320447  26.102  13.641   9.557
 1444POPC   PO420448  26.247  13.053   9.254
 1444POPC   GL120449  26.326  13.455   9.069
 1444POPC   GL220450  25.982  13.588   9.072
 1444POPC   C1A20451  26.244  13.631   8.633
 1444POPC   D2A20452  26.241  13.934   8.277
 1444POPC   C3A20453  26.164  13.723   7.868
 1444POPC   C4A20454  26.305  13.502   7.503
 1444POPC   C1B20455  25.737  13.498   8.710
 1444POPC   C2B20456  25.828  13.636   8.280
 1444POPC   C3B20457  25.635  13.750   7.883
 1444POPC   C4B20458  25.765  13.543   7.502
 1445POPC   NC320459  40.196  40.261   9.519
 1445POPC   PO420460  39.549  39.972   9.446
 1445POPC   GL120461  39.761  40.078   9.098
 1445POPC   GL220462  40.149  40.060   9.027
 1445POPC   C1A20463  39.798  39.896   8.705
 1445POPC   D2A20464  40.099  39.988   8.404
 1445POPC   C3A20465  39.891  39.999   8.040
 1445POPC   C4A20466  39.568  40.105   7.794
 1445POPC   C1B20467  40.298  39.692   8.773
 1445POPC   C2B20468  40.556  39.687   8.404
 1445POPC   C3B20469  40.371  39.816   7.996
 1445POPC   C4B20470  40.276  40.230   7.761
 1446POPC   NC320471   1.407  39.749   9.460
 1446POPC   PO420472   0.810  40.163   9.509
 1446POPC   GL120473   1.071  40.034   9.192
 1446POPC   GL220474   1.367  40.253   9.228
 1446POPC   C1A20475   1.214  39.917   8.803
 1446POPC   D2A20476   1.160  40.179   8.469
 1446POPC   C3A20477   1.255  40.000   8.081
 1446POPC   C4A20478   1.105  40.018   7.659
 1446POPC   C1B20479   1.583  40.286   8.821
 1446POPC   C2B20480   1.656  40.060   8.440
 1446POPC   C3B20481   1.768  40.162   8.055
 1446POPC   C4B20482   1.614  40.116   7.681
 1447POPC   NC320483  11.294  13.477   9.641
 1447POPC   PO420484  11.747  13.828   9.495
 1447POPC   GL120485  11.461  13.688   9.186
 1447POPC   GL220486  11.485  13.327   9.169
 1447POPC   C1A20487  11.212  13.612   8.818
 1447POPC   D2A20488  11.290  13.416   8.417
 1447POPC   C3A20489  11.183  13.659   8.076
 1447POPC   C4A20490  11.239  13.548   7.668
 1447POPC   C1B20491  11.654  13.297   8.766
 1447POPC   C2B20492  11.815  13.167   8.344
 1447POPC   C3B20493  11.586  13.298   7.965
 1447POPC   C4B20494  11.731  13.457   7.575
 1448POPC   NC320495  39.058   1.952   9.566
 1448POPC   PO420496  39.568   2.458   9.503
 1448POPC   GL120497  39.344   2.172   9.207
 1448POPC   GL220498  39.372   1.816   9.165
 1448POPC   C1A20499  39.288   2.116   8.769
 1448POPC   D2A20500  39.483   1.899   8.457
 1448POPC   C3A20501  39.368   2.116   8.121
 1448POPC   C4A20502  39.196   2.306   7.746
 1448POPC   C1B20503  39.257   1.578   8.810
 1448POPC   C2B20504  39.054   1.607   8.416
 1448POPC   C3B20505  39.271   1.619   8.067
 1448POPC   C4B20506  39.369   1.835   7.704
 1449POPC   NC320507  44.902  17.734   9.392
 1449POPC   PO420508  44.352  17.203   9.402
 1449POPC   GL120509  44.526  17.524   9.099
 1449POPC   GL220510  44.870  17.467   8.965
 1449POPC   C1A20511  44.511  17.553   8.642
 1449POPC   D2A20512  44.832  17.375   8.379
 1449POPC   C3A20513  44.645  17.249   7.984
 1449POPC   C4A20514  44.428  17.435   7.643
 1449POPC   C1B20515   0.036  17.762   8.699
 1449POPC   C2B20516  44.965  17.949   8.327
 1449POPC   C3B20517   0.089  17.838   7.910
 1449POPC   C4B20518  44.920  17.563   7.608
 1450POPC   NC320519  16.561   0.272   9.482
 1450POPC   PO420520  16.982   0.793   9.401
 1450POPC   GL120521  16.711   0.598   9.133
 1450POPC   GL220522  16.959   0.280   9.140
 1450POPC   C1A20523  16.491   0.512   8.734
 1450POPC   D2A20524  16.189   0.303   8.432
 1450POPC   C3A20525  16.384   0.388   8.045
 1450POPC   C4A20526  16.333   0.643   7.674
 1450POPC   C1B20527  17.050   0.527   8.788
 1450POPC   C2B20528  17.109   0.466   8.405
 1450POPC   C3B20529  17.089   0.612   8.043
 1450POPC   C4B20530  16.831   0.417   7.794
 1451POPC   NC320531  31.974   8.009   9.421
 1451POPC   PO420532  32.210   8.699   9.498
 1451POPC   GL120533  32.308   8.341   9.209
 1451POPC   GL220534  32.015   8.319   9.004
 1451POPC   C1A20535  32.397   8.004   8.882
 1451POPC   D2A20536  32.543   8.067   8.462
 1451POPC   C3A20537  32.315   8.058   8.054
 1451POPC   C4A20538  32.448   8.178   7.669
 1451POPC   C1B20539  31.812   8.575   8.696
 1451POPC   C2B20540  31.745   8.613   8.253
 1451POPC   C3B20541  31.992   8.472   7.905
 1451POPC   C4B20542  31.922   8.179   7.632
 1452POPC   NC320543  34.581  28.570   9.451
 1452POPC   PO420544  34.788  27.859   9.648
 1452POPC   GL120545  34.762  28.110   9.219
 1452POPC   GL220546  34.451  28.245   9.064
 1452POPC   C1A20547  34.790  28.138   8.726
 1452POPC   D2A20548  34.667  28.339   8.319
 1452POPC   C3A20549  34.706  28.144   7.908
 1452POPC   C4A20550  34.780  28.390   7.535
 1452POPC   C1B20551  34.454  28.570   8.734
 1452POPC   C2B20552  34.236  28.650   8.314
 1452POPC   C3B20553  34.364  28.555   7.858
 1452POPC   C4B20554  34.400  28.700   7.402
 1453POPC   NC320555  12.702  10.953   9.332
 1453POPC   PO420556  12.960  11.469   9.520
 1453POPC   GL120557  12.707  11.434   9.161
 1453POPC   GL220558  12.965  11.516   8.998
 1453POPC   C1A20559  12.586  11.258   8.763
 1453POPC   D2A20560  12.746  11.348   8.367
 1453POPC   C3A20561  12.664  11.147   8.008
 1453POPC   C4A20562  13.048  11.143   7.810
 1453POPC   C1B20563  12.725  11.748   8.685
 1453POPC   C2B20564  12.846  11.848   8.255
 1453POPC   C3B20565  12.998  11.653   7.852
 1453POPC   C4B20566  13.046  11.461   7.403
 1454POPC   NC320567  19.788   8.325   9.545
 1454POPC   PO420568  19.907   7.752   9.355
 1454POPC   GL120569  19.658   8.079   9.111
 1454POPC   GL220570  19.481   8.452   9.171
 1454POPC   C1A20571  19.951   8.304   8.860
 1454POPC   D2A20572  20.182   8.184   8.493
 1454POPC   C3A20573  20.093   8.336   8.084
 1454POPC   C4A20574  19.983   8.025   7.759
 1454POPC   C1B20575  19.335   8.362   8.814
 1454POPC   C2B20576  19.580   8.139   8.525
 1454POPC   C3B20577  19.614   8.171   8.097
 1454POPC   C4B20578  19.412   8.377   7.737
 1455POPC   NC320579  27.796  21.866   9.595
 1455POPC   PO420580  27.909  22.409   9.204
 1455POPC   GL120581  27.710  22.166   8.983
 1455POPC   GL220582  27.488  21.966   9.159
 1455POPC   C1A20583  27.785  22.181   8.565
 1455POPC   D2A20584  27.538  22.100   8.254
 1455POPC   C3A20585  27.668  22.209   7.856
 1455POPC   C4A20586  27.762  22.395   7.464
 1455POPC   C1B20587  27.480  21.790   8.725
 1455POPC   C2B20588  27.307  21.616   8.324
 1455POPC   C3B20589  27.420  21.738   7.892
 1455POPC   C4B20590  27.359  21.708   7.420
 1456POPC   NC320591  27.538  22.400   9.458
 1456POPC   PO420592  27.511  23.047   9.471
 1456POPC   GL120593  27.749  22.949   9.108
 1456POPC   GL220594  27.572  22.690   8.970
 1456POPC   C1A20595  27.721  23.102   8.671
 1456POPC   D2A20596  27.474  23.158   8.283
 1456POPC   C3A20597  27.779  23.072   7.951
 1456POPC   C4A20598  27.816  22.896   7.542
 1456POPC   C1B20599  27.333  22.778   8.626
 1456POPC   C2B20600  27.249  22.594   8.263
 1456POPC   C3B20601  27.406  22.676   7.844
 1456POPC   C4B20602  27.349  22.758   7.413
 1457POPC   NC320603  19.552  23.305   9.362
 1457POPC   PO420604  20.081  22.857   9.412
 1457POPC   GL120605  19.820  22.947   9.074
 1457POPC   GL220606  19.819  23.277   8.912
 1457POPC   C1A20607  19.857  22.744   8.684
 1457POPC   D2A20608  20.069  22.923   8.339
 1457POPC   C3A20609  20.105  22.740   7.939
 1457POPC   C4A20610  20.076  23.098   7.653
 1457POPC   C1B20611  19.451  23.061   8.732
 1457POPC   C2B20612  19.518  22.889   8.320
 1457POPC   C3B20613  19.687  23.018   7.965
 1457POPC   C4B20614  19.671  22.806   7.586
 1458POPC   NC320615  11.203  10.776   9.492
 1458POPC   PO420616  10.892  10.183   9.511
 1458POPC   GL120617  11.162  10.329   9.180
 1458POPC   GL220618  11.490  10.514   9.165
 1458POPC   C1A20619  11.342  10.244   8.765
 1458POPC   D2A20620  11.536  10.459   8.436
 1458POPC   C3A20621  11.247  10.311   8.135
 1458POPC   C4A20622  11.070  10.222   7.740
 1458POPC   C1B20623  11.257  10.743   8.836
 1458POPC   C2B20624  11.281  10.903   8.412
 1458POPC   C3B20625  11.040  10.954   8.076
 1458POPC   C4B20626  11.030  10.748   7.714
 1459POPC   NC320627  16.586  25.819   9.564
 1459POPC   PO420628  17.167  26.099   9.636
 1459POPC   GL120629  16.850  26.250   9.254
 1459POPC   GL220630  16.772  25.967   9.118
 1459POPC   C1A20631  16.667  26.343   8.785
 1459POPC   D2A20632  16.738  26.470   8.329
 1459POPC   C3A20633  16.612  26.256   7.972
 1459POPC   C4A20634  16.808  26.047   7.693
 1459POPC   C1B20635  16.503  25.852   8.810
 1459POPC   C2B20636  16.551  25.975   8.400
 1459POPC   C3B20637  16.337  25.829   8.035
 1459POPC   C4B20638  16.412  25.725   7.642
 1460POPC   NC320639  30.495  29.676   9.500
 1460POPC   PO420640  30.979  30.076   9.700
 1460POPC   GL120641  30.869  29.958   9.246
 1460POPC   GL220642  30.514  30.030   9.114
 1460POPC   C1A20643  30.821  29.741   8.810
 1460POPC   D2A20644  30.999  29.940   8.472
 1460POPC   C3A20645  30.878  29.851   8.054
 1460POPC   C4A20646  30.686  30.023   7.652
 1460POPC   C1B20647  30.358  29.883   8.689
 1460POPC   C2B20648  30.438  29.973   8.275
 1460POPC   C3B20649  30.319  29.796   7.908
 1460POPC   C4B20650  30.356  29.468   7.663
 1461POPC   NC320651  39.996  33.507   9.721
 1461POPC   PO420652  40.211  32.944   9.322
 1461POPC   GL120653  40.152  33.015   8.953
 1461POPC   GL220654  39.792  32.890   8.942
 1461POPC   C1A20655  40.252  32.780   8.640
 1461POPC   D2A20656  39.897  32.717   8.468
 1461POPC   C3A20657  39.969  33.010   8.125
 1461POPC   C4A20658  40.313  33.032   7.808
 1461POPC   C1B20659  39.834  33.208   8.609
 1461POPC   C2B20660  39.645  33.465   8.309
 1461POPC   C3B20661  39.429  33.311   7.969
 1461POPC   C4B20662  39.622  32.946   7.769
 1462POPC   NC320663   3.131  26.131   9.428
 1462POPC   PO420664   2.525  25.887   9.393
 1462POPC   GL120665   2.740  26.066   9.082
 1462POPC   GL220666   3.001  25.800   9.036
 1462POPC   C1A20667   2.588  26.157   8.688
 1462POPC   D2A20668   2.263  26.077   8.404
 1462POPC   C3A20669   2.488  26.209   8.051
 1462POPC   C4A20670   2.595  26.065   7.665
 1462POPC   C1B20671   2.660  25.645   8.743
 1462POPC   C2B20672   2.695  25.784   8.316
 1462POPC   C3B20673   2.968  25.979   8.005
 1462POPC   C4B20674   3.234  26.258   7.740
 1463POPC   NC320675  38.649  37.426   9.490
 1463POPC   PO420676  38.075  37.886   9.434
 1463POPC   GL120677  38.433  37.774   9.172
 1463POPC   GL220678  38.232  37.510   9.089
 1463POPC   C1A20679  38.530  37.683   8.715
 1463POPC   D2A20680  38.362  37.618   8.279
 1463POPC   C3A20681  38.549  37.923   7.959
 1463POPC   C4A20682  38.629  37.850   7.528
 1463POPC   C1B20683  38.072  37.309   8.726
 1463POPC   C2B20684  38.139  37.127   8.309
 1463POPC   C3B20685  38.043  37.326   7.942
 1463POPC   C4B20686  38.315  37.524   7.763
 1464POPC   NC320687  39.177  22.946   9.439
 1464POPC   PO420688  38.548  22.515   9.388
 1464POPC   GL120689  38.830  22.747   9.112
 1464POPC   GL220690  39.003  23.064   8.983
 1464POPC   C1A20691  39.062  22.582   8.772
 1464POPC   D2A20692  39.306  22.443   8.424
 1464POPC   C3A20693  39.225  22.742   8.128
 1464POPC   C4A20694  39.338  22.860   7.767
 1464POPC   C1B20695  38.987  23.384   8.650
 1464POPC   C2B20696  39.154  23.449   8.214
 1464POPC   C3B20697  39.009  23.233   7.822
 1464POPC   C4B20698  38.980  23.048   7.360
 1465POPC   NC320699   1.633  31.164   9.423
 1465POPC   PO420700   2.271  31.489   9.492
 1465POPC   GL120701   2.052  31.436   9.077
 1465POPC   GL220702   1.794  31.200   8.945
 1465POPC   C1A20703   1.936  31.590   8.662
 1465POPC   D2A20704   1.805  31.416   8.257
 1465POPC   C3A20705   1.922  31.720   7.921
 1465POPC   C4A20706   2.348  31.868   7.801
 1465POPC   C1B20707   2.039  31.043   8.616
 1465POPC   C2B20708   2.278  31.146   8.253
 1465POPC   C3B20709   2.213  31.308   7.860
 1465POPC   C4B20710   1.953  31.128   7.553
 1466POPC   NC320711  25.140   4.358  10.136
 1466POPC   PO420712  24.788   4.647   9.766
 1466POPC   GL120713  24.979   4.451   9.348
 1466POPC   GL220714  24.986   4.706   9.140
 1466POPC   C1A20715  25.244   4.322   8.929
 1466POPC   D2A20716  25.245   4.381   8.446
 1466POPC   C3A20717  25.439   4.347   8.025
 1466POPC   C4A20718  25.446   4.277   7.580
 1466POPC   C1B20719  24.903   4.675   8.726
 1466POPC   C2B20720  24.944   4.813   8.303
 1466POPC   C3B20721  25.011   4.600   7.895
 1466POPC   C4B20722  25.027   4.576   7.448
 1467POPC   NC320723  17.655  21.830   9.478
 1467POPC   PO420724  17.482  22.491   9.350
 1467POPC   GL120725  17.590  22.166   9.090
 1467POPC   GL220726  17.316  22.178   8.886
 1467POPC   C1A20727  17.778  22.025   8.681
 1467POPC   D2A20728  17.654  21.981   8.243
 1467POPC   C3A20729  17.620  22.343   7.947
 1467POPC   C4A20730  17.359  22.496   7.628
 1467POPC   C1B20731  17.068  21.900   8.624
 1467POPC   C2B20732  17.173  21.777   8.202
 1467POPC   C3B20733  17.327  21.969   7.814
 1467POPC   C4B20734  17.172  21.927   7.379
 1468POPC   NC320735  16.576  33.353   9.386
 1468POPC   PO420736  16.918  32.861   9.664
 1468POPC   GL120737  16.743  32.899   9.209
 1468POPC   GL220738  17.037  33.045   9.067
 1468POPC   C1A20739  16.632  33.120   8.772
 1468POPC   D2A20740  16.783  33.132   8.322
 1468POPC   C3A20741  16.644  32.775   8.103
 1468POPC   C4A20742  16.557  32.806   7.689
 1468POPC   C1B20743  17.123  32.963   8.670
 1468POPC   C2B20744  17.209  32.820   8.261
 1468POPC   C3B20745  17.074  32.867   7.859
 1468POPC   C4B20746  16.856  33.217   7.734
 1469POPC   NC320747   0.320  32.513   9.403
 1469POPC   PO420748   0.676  31.929   9.535
 1469POPC   GL120749   0.516  32.063   9.193
 1469POPC   GL220750   0.735  32.320   9.110
 1469POPC   C1A20751   0.471  31.909   8.801
 1469POPC   D2A20752   0.522  32.069   8.399
 1469POPC   C3A20753   0.677  31.997   8.007
 1469POPC   C4A20754   0.494  31.965   7.612
 1469POPC   C1B20755   0.453  32.420   8.784
 1469POPC   C2B20756   0.347  32.524   8.361
 1469POPC   C3B20757   0.225  32.340   7.967
 1469POPC   C4B20758   0.067  32.572   7.604
 1470POPC   NC320759   8.833   8.855   9.575
 1470POPC   PO420760   9.416   9.279   9.633
 1470POPC   GL120761   9.213   9.037   9.258
 1470POPC   GL220762   9.367   8.732   9.094
 1470POPC   C1A20763   8.875   9.018   8.924
 1470POPC   D2A20764   8.705   9.216   8.515
 1470POPC   C3A20765   8.793   9.011   8.089
 1470POPC   C4A20766   8.936   9.076   7.651
 1470POPC   C1B20767   9.343   9.005   8.721
 1470POPC   C2B20768   9.455   9.284   8.383
 1470POPC   C3B20769   9.309   9.083   8.018
 1470POPC   C4B20770   9.161   8.672   7.885
 1471POPC   NC320771  40.730  32.950   9.333
 1471POPC   PO420772  40.446  33.456   9.654
 1471POPC   GL120773  40.440  33.395   9.184
 1471POPC   GL220774  40.789  33.421   9.149
 1471POPC   C1A20775  40.597  33.161   8.755
 1471POPC   D2A20776  40.929  33.097   8.442
 1471POPC   C3A20777  40.745  32.918   8.093
 1471POPC   C4A20778  40.907  32.731   7.741
 1471POPC   C1B20779  40.698  33.642   8.782
 1471POPC   C2B20780  40.562  33.751   8.419
 1471POPC   C3B20781  40.725  33.483   8.143
 1471POPC   C4B20782  40.731  33.311   7.758
 1472POPC   NC320783  17.796   6.926   9.357
 1472POPC   PO420784  17.286   6.625   9.556
 1472POPC   GL120785  17.481   6.549   9.162
 1472POPC   GL220786  17.810   6.423   9.258
 1472POPC   C1A20787  17.446   6.739   8.723
 1472POPC   D2A20788  17.270   6.675   8.296
 1472POPC   C3A20789  17.452   6.823   7.899
 1472POPC   C4A20790  17.558   6.457   7.656
 1472POPC   C1B20791  17.848   6.423   8.814
 1472POPC   C2B20792  17.687   6.340   8.446
 1472POPC   C3B20793  17.800   6.517   8.110
 1472POPC   C4B20794  18.031   6.315   7.825
 1473POPC   NC320795  35.135  20.391   9.411
 1473POPC   PO420796  35.423  19.806   9.629
 1473POPC   GL120797  35.293  19.740   9.235
 1473POPC   GL220798  35.612  19.594   9.157
 1473POPC   C1A20799  35.074  19.897   8.874
 1473POPC   D2A20800  35.300  19.977   8.487
 1473POPC   C3A20801  35.104  20.109   8.121
 1473POPC   C4A20802  35.168  19.924   7.731
 1473POPC   C1B20803  35.700  19.376   8.757
 1473POPC   C2B20804  35.613  19.275   8.332
 1473POPC   C3B20805  35.418  19.515   7.995
 1473POPC   C4B20806  35.580  19.628   7.600
 1474POPC   NC320807  15.369   7.907   9.473
 1474POPC   PO420808  15.080   8.481   9.383
 1474POPC   GL120809  15.125   8.161   9.099
 1474POPC   GL220810  15.483   8.239   9.065
 1474POPC   C1A20811  15.164   8.218   8.662
 1474POPC   D2A20812  15.198   8.033   8.279
 1474POPC   C3A20813  14.926   8.079   7.981
 1474POPC   C4A20814  15.015   8.213   7.584
 1474POPC   C1B20815  15.514   8.579   8.709
 1474POPC   C2B20816  15.386   8.595   8.240
 1474POPC   C3B20817  15.499   8.649   7.785
 1474POPC   C4B20818  15.468   8.372   7.376
 1475POPC   NC320819  32.443   2.025   9.346
 1475POPC   PO420820  31.785   2.111   9.393
 1475POPC   GL120821  31.980   1.859   9.067
 1475POPC   GL220822  32.161   2.158   8.936
 1475POPC   C1A20823  32.217   1.747   8.660
 1475POPC   D2A20824  32.228   2.027   8.296
 1475POPC   C3A20825  32.179   1.828   7.926
 1475POPC   C4A20826  31.919   1.550   7.773
 1475POPC   C1B20827  32.572   2.114   8.701
 1475POPC   C2B20828  32.653   2.276   8.283
 1475POPC   C3B20829  32.452   2.275   7.858
 1475POPC   C4B20830  32.485   2.243   7.392
 1476POPC   NC320831  31.565  36.215   9.840
 1476POPC   PO420832  31.131  35.790   9.396
 1476POPC   GL120833  31.385  35.857   8.977
 1476POPC   GL220834  31.749  35.952   9.133
 1476POPC   C1A20835  31.315  36.172   8.635
 1476POPC   D2A20836  31.456  36.404   8.277
 1476POPC   C3A20837  31.433  36.117   7.918
 1476POPC   C4A20838  31.057  36.105   7.718
 1476POPC   C1B20839  31.817  36.175   8.773
 1476POPC   C2B20840  31.742  35.997   8.399
 1476POPC   C3B20841  31.919  36.068   8.024
 1476POPC   C4B20842  31.815  35.907   7.604
 1477POPC   NC320843  35.665  36.506   9.440
 1477POPC   PO420844  35.413  35.894   9.783
 1477POPC   GL120845  35.249  35.807   9.280
 1477POPC   GL220846  35.293  36.132   9.005
 1477POPC   C1A20847  35.208  35.689   8.817
 1477POPC   D2A20848  35.242  35.959   8.447
 1477POPC   C3A20849  35.531  35.750   8.147
 1477POPC   C4A20850  35.432  35.654   7.718
 1477POPC   C1B20851  35.492  36.491   8.748
 1477POPC   C2B20852  35.516  36.698   8.340
 1477POPC   C3B20853  35.582  36.537   7.943
 1477POPC   C4B20854  35.443  36.149   7.828
 1478POPC   NC320855   1.817  14.438   9.411
 1478POPC   PO420856   2.431  14.667   9.354
 1478POPC   GL120857   2.160  14.578   8.987
 1478POPC   GL220858   1.773  14.632   8.967
 1478POPC   C1A20859   2.036  14.601   8.543
 1478POPC   D2A20860   1.789  14.283   8.324
 1478POPC   C3A20861   2.061  14.085   8.004
 1478POPC   C4A20862   2.311  14.431   7.781
 1478POPC   C1B20863   1.486  14.600   8.630
 1478POPC   C2B20864   1.599  14.812   8.267
 1478POPC   C3B20865   1.954  14.705   8.030
 1478POPC   C4B20866   1.813  14.404   7.702
 1479POPC   NC320867  35.784  20.955   9.446
 1479POPC   PO420868  36.038  20.410   9.473
 1479POPC   GL120869  35.996  20.614   9.107
 1479POPC   GL220870  36.254  20.871   9.072
 1479POPC   C1A20871  36.059  20.562   8.707
 1479POPC   D2A20872  36.358  20.590   8.390
 1479POPC   C3A20873  36.041  20.506   8.136
 1479POPC   C4A20874  35.876  20.450   7.764
 1479POPC   C1B20875  36.183  21.038   8.634
 1479POPC   C2B20876  36.181  21.044   8.181
 1479POPC   C3B20877  36.323  20.795   7.843
 1479POPC   C4B20878  36.436  20.375   7.844
 1480POPC   NC320879  38.099  44.969   9.496
 1480POPC   PO420880  38.735  44.644   9.547
 1480POPC   GL120881  38.508  44.748   9.213
 1480POPC   GL220882  38.237  44.498   9.237
 1480POPC   C1A20883  38.402  44.641   8.788
 1480POPC   D2A20884  38.581  44.326   8.533
 1480POPC   C3A20885  38.590  44.513   8.167
 1480POPC   C4A20886  38.503  44.772   7.846
 1480POPC   C1B20887  38.103  44.231   8.858
 1480POPC   C2B20888  38.101  44.409   8.433
 1480POPC   C3B20889  38.068  44.546   8.038
 1480POPC   C4B20890  38.206  44.402   7.693
 1481POPC   NC320891   5.332  12.005   9.547
 1481POPC   PO420892   4.878  12.395   9.345
 1481POPC   GL120893   4.982  11.991   9.136
 1481POPC   GL220894   4.738  11.677   9.048
 1481POPC   C1A20895   4.992  11.986   8.707
 1481POPC   D2A20896   4.884  12.014   8.305
 1481POPC   C3A20897   5.045  12.305   8.022
 1481POPC   C4A20898   5.221  12.245   7.622
 1481POPC   C1B20899   4.611  11.632   8.599
 1481POPC   C2B20900   4.657  11.612   8.125
 1481POPC   C3B20901   4.929  11.813   7.814
 1481POPC   C4B20902   4.998  11.868   7.369
 1482POPC   NC320903  18.171  23.383   9.759
 1482POPC   PO420904  18.496  23.884   9.450
 1482POPC   GL120905  18.274  23.539   9.200
 1482POPC   GL220906  18.622  23.432   9.174
 1482POPC   C1A20907  18.019  23.552   8.756
 1482POPC   D2A20908  17.890  23.848   8.404
 1482POPC   C3A20909  17.994  23.672   8.010
 1482POPC   C4A20910  18.109  23.589   7.579
 1482POPC   C1B20911  18.534  23.656   8.784
 1482POPC   C2B20912  18.366  23.601   8.374
 1482POPC   C3B20913  18.465  23.515   7.947
 1482POPC   C4B20914  18.502  23.962   7.822
 1483POPC   NC320915  35.260   6.970   9.761
 1483POPC   PO420916  35.362   6.303   9.616
 1483POPC   GL120917  35.406   6.535   9.203
 1483POPC   GL220918  35.255   6.867   9.195
 1483POPC   C1A20919  35.267   6.552   8.769
 1483POPC   D2A20920  35.477   6.381   8.415
 1483POPC   C3A20921  35.494   6.674   8.095
 1483POPC   C4A20922  35.392   6.629   7.698
 1483POPC   C1B20923  35.029   7.032   8.818
 1483POPC   C2B20924  34.877   7.104   8.380
 1483POPC   C3B20925  34.998   6.879   7.999
 1483POPC   C4B20926  35.111   7.056   7.604
 1484POPC   NC320927  22.746  16.166   9.636
 1484POPC   PO420928  23.271  15.879   9.627
 1484POPC   GL120929  23.097  16.123   9.224
 1484POPC   GL220930  22.712  16.122   9.143
 1484POPC   C1A20931  23.049  16.145   8.765
 1484POPC   D2A20932  22.984  15.834   8.429
 1484POPC   C3A20933  23.143  15.916   8.026
 1484POPC   C4A20934  23.202  16.263   7.794
 1484POPC   C1B20935  22.438  16.159   8.790
 1484POPC   C2B20936  22.570  16.145   8.370
 1484POPC   C3B20937  22.711  16.192   7.956
 1484POPC   C4B20938  22.840  15.932   7.601
 1485POPC   NC320939  14.799  10.873   9.665
 1485POPC   PO420940  15.264  11.376   9.558
 1485POPC   GL120941  15.460  11.555   9.211
 1485POPC   GL220942  15.140  11.531   9.059
 1485POPC   C1A20943  15.548  11.464   8.777
 1485POPC   D2A20944  15.349  11.293   8.421
 1485POPC   C3A20945  15.339  11.499   8.060
 1485POPC   C4A20946  15.577  11.389   7.717
 1485POPC   C1B20947  14.958  11.461   8.681
 1485POPC   C2B20948  14.837  11.407   8.255
 1485POPC   C3B20949  14.875  11.521   7.818
 1485POPC   C4B20950  14.907  11.605   7.365
 1486POPC   NC320951  43.006  14.839   9.543
 1486POPC   PO420952  43.069  15.425   9.393
 1486POPC   GL120953  43.072  15.145   9.105
 1486POPC   GL220954  43.433  15.153   9.081
 1486POPC   C1A20955  42.798  15.067   8.780
 1486POPC   D2A20956  42.852  15.014   8.371
 1486POPC   C3A20957  42.736  14.754   8.074
 1486POPC   C4A20958  42.825  15.099   7.789
 1486POPC   C1B20959  43.511  15.258   8.657
 1486POPC   C2B20960  43.306  15.216   8.263
 1486POPC   C3B20961  43.124  15.483   7.946
 1486POPC   C4B20962  43.080  15.422   7.491
 1487POPC   NC320963  25.055  35.711   9.498
 1487POPC   PO420964  25.435  36.181   9.750
 1487POPC   GL120965  25.291  36.111   9.293
 1487POPC   GL220966  25.045  36.365   9.251
 1487POPC   C1A20967  25.349  35.912   8.861
 1487POPC   D2A20968  25.452  36.121   8.478
 1487POPC   C3A20969  25.569  35.951   8.079
 1487POPC   C4A20970  25.272  35.928   7.741
 1487POPC   C1B20971  25.248  36.445   8.850
 1487POPC   C2B20972  25.275  36.599   8.418
 1487POPC   C3B20973  25.268  36.387   8.046
 1487POPC   C4B20974  25.134  36.618   7.708
 1488POPC   NC320975  21.615  30.095   9.428
 1488POPC   PO420976  21.301  29.595   9.292
 1488POPC   GL120977  21.183  29.998   9.167
 1488POPC   GL220978  21.447  29.965   8.963
 1488POPC   C1A20979  21.003  30.149   8.781
 1488POPC   D2A20980  20.901  29.898   8.416
 1488POPC   C3A20981  21.154  29.909   8.054
 1488POPC   C4A20982  21.470  30.209   8.063
 1488POPC   C1B20983  21.413  29.912   8.530
 1488POPC   C2B20984  21.593  29.634   8.255
 1488POPC   C3B20985  21.641  29.769   7.861
 1488POPC   C4B20986  21.451  29.666   7.494
 1489POPC   NC320987  28.148  28.433   9.624
 1489POPC   PO420988  28.772  28.410   9.746
 1489POPC   GL120989  28.544  28.352   9.278
 1489POPC   GL220990  28.253  28.592   9.170
 1489POPC   C1A20991  28.397  28.200   8.822
 1489POPC   D2A20992  28.339  28.000   8.396
 1489POPC   C3A20993  28.197  28.227   8.027
 1489POPC   C4A20994  28.405  28.098   7.648
 1489POPC   C1B20995  28.397  28.696   8.782
 1489POPC   C2B20996  28.250  28.642   8.381
 1489POPC   C3B20997  28.492  28.687   8.026
 1489POPC   C4B20998  28.343  28.775   7.612
 1490POPC   NC320999  38.588  41.371   9.491
 1490POPC   PO421000  38.118  41.839   9.608
 1490POPC   GL121001  38.384  41.750   9.195
 1490POPC   GL221002  38.631  41.992   9.104
 1490POPC   C1A21003  38.544  41.589   8.743
 1490POPC   D2A21004  38.848  41.509   8.397
 1490POPC   C3A21005  38.755  41.329   7.983
 1490POPC   C4A21006  38.442  41.402   7.657
 1490POPC   C1B21007  38.255  42.005   8.771
 1490POPC   C2B21008  38.215  41.763   8.393
 1490POPC   C3B21009  38.449  41.734   8.033
 1490POPC   C4B21010  38.346  41.975   7.625
 1491POPC   NC321011   4.413  12.388   9.460
 1491POPC   PO421012   4.516  11.710   9.505
 1491POPC   GL121013   4.265  11.955   9.188
 1491POPC   GL221014   4.508  12.137   9.042
 1491POPC   C1A21015   4.107  12.088   8.761
 1491POPC   D2A21016   4.300  11.971   8.351
 1491POPC   C3A21017   4.037  12.079   7.994
 1491POPC   C4A21018   3.917  12.188   7.593
 1491POPC   C1B21019   4.583  12.284   8.658
 1491POPC   C2B21020   4.540  12.418   8.244
 1491POPC   C3B21021   4.558  12.143   7.917
 1491POPC   C4B21022   4.741  12.269   7.538
 1492POPC   NC321023  14.599  10.284   9.406
 1492POPC   PO421024  14.376  10.924   9.473
 1492POPC   GL121025  14.428  10.633   9.078
 1492POPC   GL221026  14.214  10.286   9.099
 1492POPC   C1A21027  14.667  10.586   8.682
 1492POPC   D2A21028  14.796  10.504   8.247
 1492POPC   C3A21029  14.467  10.479   7.928
 1492POPC   C4A21030  14.473  10.593   7.459
 1492POPC   C1B21031  14.224  10.321   8.662
 1492POPC   C2B21032  14.208  10.653   8.349
 1492POPC   C3B21033  13.931  10.581   7.994
 1492POPC   C4B21034  14.015  10.342   7.600
 1493POPC   NC321035  11.850  27.783   9.738
 1493POPC   PO421036  12.346  27.483   9.424
 1493POPC   GL121037  12.147  27.773   9.135
 1493POPC   GL221038  11.802  27.847   9.164
 1493POPC   C1A21039  12.189  27.856   8.691
 1493POPC   D2A21040  12.455  28.020   8.353
 1493POPC   C3A21041  12.237  27.728   8.061
 1493POPC   C4A21042  11.903  27.500   7.818
 1493POPC   C1B21043  11.696  28.037   8.735
 1493POPC   C2B21044  11.723  27.913   8.277
 1493POPC   C3B21045  11.494  27.820   7.891
 1493POPC   C4B21046  11.582  27.785   7.404
 1494POPC   NC321047  39.475   2.828   9.785
 1494POPC   PO421048  40.122   2.852   9.645
 1494POPC   GL121049  39.948   2.850   9.199
 1494POPC   GL221050  39.911   3.179   9.083
 1494POPC   C1A21051  40.101   2.705   8.778
 1494POPC   D2A21052  40.262   2.777   8.359
 1494POPC   C3A21053  40.123   2.495   8.060
 1494POPC   C4A21054  40.316   2.573   7.694
 1494POPC   C1B21055  39.662   3.021   8.762
 1494POPC   C2B21056  39.830   3.058   8.366
 1494POPC   C3B21057  39.886   2.928   7.970
 1494POPC   C4B21058  40.011   3.036   7.571
 1495POPC   NC321059  37.644  24.160   9.303
 1495POPC   PO421060  37.747  24.703   9.452
 1495POPC   GL121061  37.466  24.628   9.122
 1495POPC   GL221062  37.601  24.879   8.897
 1495POPC   C1A21063  37.249  24.360   8.822
 1495POPC   D2A21064  37.392  24.118   8.461
 1495POPC   C3A21065  37.464  24.355   8.112
 1495POPC   C4A21066  37.415  24.148   7.737
 1495POPC   C1B21067  37.700  24.512   8.617
 1495POPC   C2B21068  37.988  24.298   8.326
 1495POPC   C3B21069  37.944  24.301   7.887
 1495POPC   C4B21070  37.679  24.608   7.693
 1496POPC   NC321071  29.190  17.968   9.650
 1496POPC   PO421072  28.983  18.584   9.480
 1496POPC   GL121073  29.161  18.346   9.157
 1496POPC   GL221074  29.449  18.119   9.206
 1496POPC   C1A21075  28.983  18.290   8.744
 1496POPC   D2A21076  28.811  18.213   8.328
 1496POPC   C3A21077  28.983  18.410   7.932
 1496POPC   C4A21078  28.867  18.328   7.491
 1496POPC   C1B21079  29.489  18.220   8.772
 1496POPC   C2B21080  29.346  18.318   8.354
 1496POPC   C3B21081  29.447  18.138   7.963
 1496POPC   C4B21082  29.346  18.217   7.564
 1497POPC   NC321083  42.805   2.728   9.699
 1497POPC   PO421084  43.446   2.592   9.367
 1497POPC   GL121085  43.330   2.781   9.053
 1497POPC   GL221086  43.000   2.905   9.071
 1497POPC   C1A21087  43.400   2.647   8.669
 1497POPC   D2A21088  43.198   2.634   8.287
 1497POPC   C3A21089  43.387   2.544   7.923
 1497POPC   C4A21090  43.212   2.689   7.524
 1497POPC   C1B21091  42.881   2.641   8.686
 1497POPC   C2B21092  42.710   2.471   8.268
 1497POPC   C3B21093  42.815   2.565   7.835
 1497POPC   C4B21094  42.755   2.605   7.355
 1498POPC   NC321095   6.056  10.160   9.515
 1498POPC   PO421096   5.775  10.734   9.812
 1498POPC   GL121097   5.823  10.714   9.317
 1498POPC   GL221098   5.479  10.811   9.220
 1498POPC   C1A21099   6.053  10.653   8.893
 1498POPC   D2A21100   6.038  10.313   8.577
 1498POPC   C3A21101   6.086  10.389   8.140
 1498POPC   C4A21102   5.802  10.300   7.801
 1498POPC   C1B21103   5.637  10.944   8.796
 1498POPC   C2B21104   5.812  10.752   8.429
 1498POPC   C3B21105   5.752  10.761   7.996
 1498POPC   C4B21106   5.904  10.754   7.549
 1499POPC   NC321107  21.627  38.210   9.519
 1499POPC   PO421108  21.010  38.525   9.508
 1499POPC   GL121109  21.104  38.332   9.140
 1499POPC   GL221110  21.422  38.476   9.127
 1499POPC   C1A21111  21.237  38.207   8.723
 1499POPC   D2A21112  21.483  38.276   8.355
 1499POPC   C3A21113  21.260  38.341   7.996
 1499POPC   C4A21114  21.321  38.168   7.586
 1499POPC   C1B21115  21.604  38.606   8.748
 1499POPC   C2B21116  21.904  38.568   8.418
 1499POPC   C3B21117  21.783  38.678   7.986
 1499POPC   C4B21118  21.422  38.681   7.672
 1500POPC   NC321119  32.536  20.243   9.491
 1500POPC   PO421120  31.938  20.649   9.497
 1500POPC   GL121121  32.166  20.691   9.163
 1500POPC   GL221122  32.510  20.762   9.236
 1500POPC   C1A21123  32.190  20.926   8.816
 1500POPC   D2A21124  32.131  20.698   8.463
 1500POPC   C3A21125  32.117  20.860   8.079
 1500POPC   C4A21126  31.987  20.576   7.744
 1500POPC   C1B21127  32.482  20.508   8.810
 1500POPC   C2B21128  32.621  20.554   8.388
 1500POPC   C3B21129  32.399  20.444   8.038
 1500POPC   C4B21130  32.340  20.219   7.665
 1501POPC   NC321131   4.131  19.959   9.415
 1501POPC   PO421132   4.431  19.377   9.532
 1501POPC   GL121133   4.471  19.663   9.167
 1501POPC   GL221134   4.676  19.954   9.178
 1501POPC   C1A21135   4.309  19.862   8.776
 1501POPC   D2A21136   4.055  19.661   8.471
 1501POPC   C3A21137   4.169  19.739   8.039
 1501POPC   C4A21138   4.015  19.545   7.651
 1501POPC   C1B21139   4.678  20.215   8.810
 1501POPC   C2B21140   4.596  20.237   8.376
 1501POPC   C3B21141   4.624  20.097   7.968
 1501POPC   C4B21142   4.435  19.921   7.643
 1502POPC   NC321143  41.294   7.133   9.634
 1502POPC   PO421144  41.591   7.669   9.430
 1502POPC   GL121145  41.523   7.382   9.125
 1502POPC   GL221146  41.670   7.654   8.928
 1502POPC   C1A21147  41.268   7.278   8.786
 1502POPC   D2A21148  41.236   7.515   8.398
 1502POPC   C3A21149  41.277   7.314   7.940
 1502POPC   C4A21150  41.117   7.006   7.634
 1502POPC   C1B21151  41.760   7.390   8.607
 1502POPC   C2B21152  41.692   7.426   8.203
 1502POPC   C3B21153  41.672   7.670   7.845
 1502POPC   C4B21154  41.869   7.566   7.458
 1503POPC   NC321155   3.180   5.138   9.284
 1503POPC   PO421156   2.606   4.988   9.665
 1503POPC   GL121157   2.703   4.948   9.250
 1503POPC   GL221158   2.644   5.320   9.174
 1503POPC   C1A21159   2.677   4.880   8.816
 1503POPC   D2A21160   2.440   4.845   8.429
 1503POPC   C3A21161   2.708   4.974   8.096
 1503POPC   C4A21162   2.835   4.747   7.740
 1503POPC   C1B21163   2.866   5.339   8.786
 1503POPC   C2B21164   3.041   5.045   8.473
 1503POPC   C3B21165   3.205   4.923   8.075
 1503POPC   C4B21166   3.100   5.175   7.751
 1504POPC   NC321167  18.633  18.933   9.529
 1504POPC   PO421168  17.954  18.817   9.439
 1504POPC   GL121169  18.275  18.842   9.168
 1504POPC   GL221170  18.296  19.139   9.168
 1504POPC   C1A21171  18.474  18.898   8.754
 1504POPC   D2A21172  18.317  18.764   8.351
 1504POPC   C3A21173  18.206  18.932   7.968
 1504POPC   C4A21174  18.474  18.839   7.675
 1504POPC   C1B21175  18.202  19.352   8.803
 1504POPC   C2B21176  18.164  19.269   8.378
 1504POPC   C3B21177  18.193  19.471   7.974
 1504POPC   C4B21178  18.336  19.375   7.564
 1505POPC   NC321179  15.635  18.196   9.623
 1505POPC   PO421180  16.161  18.557   9.478
 1505POPC   GL121181  15.885  18.398   9.199
 1505POPC   GL221182  15.863  18.047   9.193
 1505POPC   C1A21183  15.733  18.363   8.803
 1505POPC   D2A21184  15.745  18.164   8.441
 1505POPC   C3A21185  15.756  18.390   8.068
 1505POPC   C4A21186  15.972  18.352   7.694
 1505POPC   C1B21187  16.120  17.931   8.846
 1505POPC   C2B21188  16.193  17.885   8.435
 1505POPC   C3B21189  15.987  17.932   8.047
 1505POPC   C4B21190  16.118  17.846   7.660
 1506POPC   NC321191  39.655  25.569   9.484
 1506POPC   PO421192  40.050  24.978   9.601
 1506POPC   GL121193  40.044  25.063   9.148
 1506POPC   GL221194  39.988  25.415   9.089
 1506POPC   C1A21195  39.860  25.046   8.725
 1506POPC   D2A21196  39.694  25.128   8.319
 1506POPC   C3A21197  39.947  25.098   7.915
 1506POPC   C4A21198  39.848  25.083   7.447
 1506POPC   C1B21199  40.128  25.499   8.653
 1506POPC   C2B21200  40.059  25.482   8.217
 1506POPC   C3B21201  39.999  25.672   7.828
 1506POPC   C4B21202  40.056  25.559   7.395
 1507POPC   NC321203  13.195  12.548   9.450
 1507POPC   PO421204  12.541  12.786   9.306
 1507POPC   GL121205  12.821  12.554   9.093
 1507POPC   GL221206  13.014  12.864   9.081
 1507POPC   C1A21207  12.847  12.625   8.672
 1507POPC   D2A21208  12.644  12.904   8.408
 1507POPC   C3A21209  12.685  12.715   8.032
 1507POPC   C4A21210  12.979  12.661   7.719
 1507POPC   C1B21211  13.176  13.029   8.695
 1507POPC   C2B21212  13.148  12.849   8.281
 1507POPC   C3B21213  13.015  13.108   7.956
 1507POPC   C4B21214  13.265  13.383   7.676
 1508POPC   NC321215   2.993   1.287   9.432
 1508POPC   PO421216   2.661   0.760   9.360
 1508POPC   GL121217   2.629   1.107   9.052
 1508POPC   GL221218   2.973   1.265   8.938
 1508POPC   C1A21219   2.602   1.273   8.615
 1508POPC   D2A21220   2.996   1.408   8.421
 1508POPC   C3A21221   2.834   1.471   8.045
 1508POPC   C4A21222   2.889   1.298   7.669
 1508POPC   C1B21223   2.951   0.890   8.674
 1508POPC   C2B21224   2.868   0.956   8.237
 1508POPC   C3B21225   2.542   1.064   7.966
 1508POPC   C4B21226   2.518   0.948   7.526
 1509POPC   NC321227  15.900  20.842   9.592
 1509POPC   PO421228  15.965  20.201   9.599
 1509POPC   GL121229  15.958  20.481   9.215
 1509POPC   GL221230  16.184  20.786   9.168
 1509POPC   C1A21231  16.070  20.468   8.778
 1509POPC   D2A21232  15.852  20.664   8.453
 1509POPC   C3A21233  15.928  20.544   8.059
 1509POPC   C4A21234  15.682  20.652   7.699
 1509POPC   C1B21235  15.884  20.959   8.888
 1509POPC   C2B21236  15.880  21.169   8.481
 1509POPC   C3B21237  15.910  21.062   8.068
 1509POPC   C4B21238  16.095  20.928   7.706
 1510POPC   NC321239   0.767   0.169   9.717
 1510POPC   PO421240   0.704   0.765   9.322
 1510POPC   GL121241   0.577   0.443   9.081
 1510POPC   GL221242   0.283   0.252   9.149
 1510POPC   C1A21243   0.619   0.540   8.676
 1510POPC   D2A21244   0.544   0.786   8.374
 1510POPC   C3A21245   0.631   0.502   8.021
 1510POPC   C4A21246   0.667   0.448   7.549
 1510POPC   C1B21247   0.068   0.055   8.801
 1510POPC   C2B21248   0.255   0.180   8.408
 1510POPC   C3B21249   0.178   0.262   8.010
 1510POPC   C4B21250   0.272   0.114   7.653
 1511POPC   NC321251  39.724  12.962   9.564
 1511POPC   PO421252  40.362  13.097   9.635
 1511POPC   GL121253  40.166  12.884   9.235
 1511POPC   GL221254  39.951  12.582   9.214
 1511POPC   C1A21255  39.914  12.928   8.833
 1511POPC   D2A21256  39.726  13.041   8.440
 1511POPC   C3A21257  39.961  12.994   8.065
 1511POPC   C4A21258  39.798  12.873   7.678
 1511POPC   C1B21259  39.918  12.411   8.807
 1511POPC   C2B21260  40.017  12.599   8.437
 1511POPC   C3B21261  40.008  12.486   8.020
 1511POPC   C4B21262  40.275  12.672   7.729
 1512POPC   NC321263   9.046   0.062   9.485
 1512POPC   PO421264   8.493   0.294   9.493
 1512POPC   GL121265   8.796   0.385   9.158
 1512POPC   GL221266   8.980   0.091   8.993
 1512POPC   C1A21267   8.770   0.699   8.804
 1512POPC   D2A21268   8.999   0.758   8.408
 1512POPC   C3A21269   8.861   0.665   7.969
 1512POPC   C4A21270   9.045   0.688   7.546
 1512POPC   C1B21271   9.170   0.371   8.704
 1512POPC   C2B21272   9.255   0.320   8.251
 1512POPC   C3B21273   9.217   0.266   7.790
 1512POPC   C4B21274   9.141   0.234   7.315
 1513POPC   NC321275   3.870   8.639   9.462
 1513POPC   PO421276   4.305   9.096   9.634
 1513POPC   GL121277   4.412   9.161   9.199
 1513POPC   GL221278   4.358   8.833   9.173
 1513POPC   C1A21279   4.428   9.367   8.811
 1513POPC   D2A21280   4.436   9.158   8.434
 1513POPC   C3A21281   4.259   9.301   8.074
 1513POPC   C4A21282   4.306   9.164   7.677
 1513POPC   C1B21283   4.688   8.879   8.844
 1513POPC   C2B21284   4.693   8.720   8.414
 1513POPC   C3B21285   4.533   8.831   8.000
 1513POPC   C4B21286   4.495   8.695   7.588
 1514POPC   NC321287  31.076  15.962   9.451
 1514POPC   PO421288  31.740  15.723   9.574
 1514POPC   GL121289  31.734  15.847   9.147
 1514POPC   GL221290  31.408  16.020   9.066
 1514POPC   C1A21291  31.764  15.931   8.716
 1514POPC   D2A21292  31.494  15.895   8.362
 1514POPC   C3A21293  31.602  16.179   8.063
 1514POPC   C4A21294  31.737  16.057   7.685
 1514POPC   C1B21295  31.032  15.914   8.807
 1514POPC   C2B21296  31.009  15.745   8.412
 1514POPC   C3B21297  30.981  16.026   8.061
 1514POPC   C4B21298  31.214  16.038   7.676
 1515POPC   NC321299  43.752  14.558   9.191
 1515POPC   PO421300  43.279  14.483   9.707
 1515POPC   GL121301  43.145  14.394   9.301
 1515POPC   GL221302  43.269  14.673   9.132
 1515POPC   C1A21303  43.008  14.333   8.886
 1515POPC   D2A21304  43.065  14.091   8.538
 1515POPC   C3A21305  42.875  14.133   8.158
 1515POPC   C4A21306  43.166  14.233   7.828
 1515POPC   C1B21307  43.222  14.811   8.707
 1515POPC   C2B21308  43.232  14.654   8.290
 1515POPC   C3B21309  43.220  14.743   7.861
 1515POPC   C4B21310  42.863  14.620   7.595
 1516POPC   NC321311  21.618   4.895   9.358
 1516POPC   PO421312  22.048   5.370   9.298
 1516POPC   GL121313  22.001   5.174   8.976
 1516POPC   GL221314  22.090   4.843   9.105
 1516POPC   C1A21315  22.210   5.286   8.606
 1516POPC   D2A21316  22.522   5.228   8.286
 1516POPC   C3A21317  22.260   5.335   7.938
 1516POPC   C4A21318  21.991   5.133   7.682
 1516POPC   C1B21319  21.939   4.791   8.662
 1516POPC   C2B21320  21.992   4.980   8.251
 1516POPC   C3B21321  21.887   4.706   7.916
 1516POPC   C4B21322  21.871   4.650   7.454
 1517POPC   NC321323  18.565  11.295   9.714
 1517POPC   PO421324  17.950  11.612   9.623
 1517POPC   GL121325  18.052  11.619   9.167
 1517POPC   GL221326  18.374  11.497   9.064
 1517POPC   C1A21327  17.966  11.339   8.793
 1517POPC   D2A21328  17.992  11.031   8.442
 1517POPC   C3A21329  17.974  11.217   8.026
 1517POPC   C4A21330  18.025  11.156   7.593
 1517POPC   C1B21331  18.451  11.202   8.703
 1517POPC   C2B21332  18.479  11.101   8.300
 1517POPC   C3B21333  18.539  11.343   7.982
 1517POPC   C4B21334  18.290  11.572   7.783
 1518POPC   NC321335  19.486  33.774   9.526
 1518POPC   PO421336  19.934  33.370   9.737
 1518POPC   GL121337  19.938  33.764   9.323
 1518POPC   GL221338  19.952  33.583   8.968
 1518POPC   C1A21339  19.713  34.016   8.950
 1518POPC   D2A21340  19.617  33.914   8.507
 1518POPC   C3A21341  19.705  34.108   8.102
 1518POPC   C4A21342  19.902  34.019   7.701
 1518POPC   C1B21343  19.634  33.442   8.686
 1518POPC   C2B21344  19.451  33.415   8.280
 1518POPC   C3B21345  19.630  33.589   7.900
 1518POPC   C4B21346  19.731  33.613   7.451
 1519POPC   NC321347  11.116  43.754   9.435
 1519POPC   PO421348  11.474  44.339   9.522
 1519POPC   GL121349  11.555  44.026   9.206
 1519POPC   GL221350  11.869  44.194   9.194
 1519POPC   C1A21351  11.432  43.771   8.802
 1519POPC   D2A21352  11.198  43.685   8.381
 1519POPC   C3A21353  11.359  43.827   7.956
 1519POPC   C4A21354  11.639  43.547   7.689
 1519POPC   C1B21355  11.741  44.241   8.769
 1519POPC   C2B21356  11.595  44.040   8.392
 1519POPC   C3B21357  11.698  44.239   8.018
 1519POPC   C4B21358  11.497  44.240   7.642
 1520POPC   NC321359  15.670  21.491   9.524
 1520POPC   PO421360  16.276  21.102   9.567
 1520POPC   GL121361  16.080  21.329   9.227
 1520POPC   GL221362  16.207  21.670   9.250
 1520POPC   C1A21363  15.823  21.478   8.871
 1520POPC   D2A21364  15.474  21.468   8.538
 1520POPC   C3A21365  15.642  21.509   8.111
 1520POPC   C4A21366  15.879  21.506   7.714
 1520POPC   C1B21367  16.152  21.856   8.846
 1520POPC   C2B21368  16.068  21.719   8.413
 1520POPC   C3B21369  16.305  21.833   8.020
 1520POPC   C4B21370  16.316  21.797   7.550
 1521POPC   NC321371  36.411  39.074   9.375
 1521POPC   PO421372  36.014  39.578   9.544
 1521POPC   GL121373  36.096  39.399   9.120
 1521POPC   GL221374  36.021  39.031   9.036
 1521POPC   C1A21375  36.234  39.439   8.693
 1521POPC   D2A21376  36.473  39.384   8.318
 1521POPC   C3A21377  36.307  39.530   7.949
 1521POPC   C4A21378  36.305  39.431   7.535
 1521POPC   C1B21379  36.021  38.991   8.587
 1521POPC   C2B21380  36.120  39.060   8.144
 1521POPC   C3B21381  36.140  38.980   7.730
 1521POPC   C4B21382  36.021  39.075   7.312
 1522POPC   NC321383  23.474  23.646   9.385
 1522POPC   PO421384  24.133  23.511   9.583
 1522POPC   GL121385  23.958  23.582   9.148
 1522POPC   GL221386  24.059  23.913   8.968
 1522POPC   C1A21387  23.690  23.648   8.762
 1522POPC   D2A21388  23.687  23.850   8.384
 1522POPC   C3A21389  23.583  23.592   8.081
 1522POPC   C4A21390  23.558  23.630   7.691
 1522POPC   C1B21391  24.009  24.163   8.644
 1522POPC   C2B21392  24.095  24.131   8.226
 1522POPC   C3B21393  23.885  23.989   7.889
 1522POPC   C4B21394  23.933  23.882   7.477
 1523POPC   NC321395  13.521   5.359   9.636
 1523POPC   PO421396  13.902   5.834   9.428
 1523POPC   GL121397  13.648   5.791   9.099
 1523POPC   GL221398  13.490   5.466   9.138
 1523POPC   C1A21399  13.658   5.989   8.699
 1523POPC   D2A21400  13.478   5.891   8.353
 1523POPC   C3A21401  13.578   6.144   8.078
 1523POPC   C4A21402  13.781   6.024   7.752
 1523POPC   C1B21403  13.700   5.475   8.720
 1523POPC   C2B21404  13.773   5.353   8.348
 1523POPC   C3B21405  13.716   5.601   8.010
 1523POPC   C4B21406  13.555   5.545   7.628
 1524POPC   NC321407  38.332  35.715   9.522
 1524POPC   PO421408  38.513  36.358   9.391
 1524POPC   GL121409  38.280  36.067   9.136
 1524POPC   GL221410  38.569  35.849   9.103
 1524POPC   C1A21411  38.055  36.164   8.726
 1524POPC   D2A21412  37.976  36.303   8.307
 1524POPC   C3A21413  38.246  36.069   8.032
 1524POPC   C4A21414  38.336  36.240   7.638
 1524POPC   C1B21415  38.593  36.112   8.746
 1524POPC   C2B21416  38.667  36.113   8.335
 1524POPC   C3B21417  38.743  36.174   7.936
 1524POPC   C4B21418  38.699  35.851   7.643
 1525POPC   NC321419  43.957  36.746   9.670
 1525POPC   PO421420  43.379  36.783   9.702
 1525POPC   GL121421  43.687  36.905   9.267
 1525POPC   GL221422  44.008  37.088   9.281
 1525POPC   C1A21423  43.695  37.072   8.809
 1525POPC   D2A21424  43.870  37.047   8.381
 1525POPC   C3A21425  43.824  36.803   7.968
 1525POPC   C4A21426  43.804  36.881   7.521
 1525POPC   C1B21427  44.236  37.065   8.879
 1525POPC   C2B21428  44.359  37.211   8.475
 1525POPC   C3B21429  44.281  37.009   8.088
 1525POPC   C4B21430  44.245  37.049   7.696
 1526POPC   NC321431   9.340  28.633   9.570
 1526POPC   PO421432   8.731  28.419   9.511
 1526POPC   GL121433   8.943  28.428   9.153
 1526POPC   GL221434   9.159  28.140   9.175
 1526POPC   C1A21435   8.809  28.359   8.738
 1526POPC   D2A21436   8.941  28.212   8.335
 1526POPC   C3A21437   8.654  28.325   7.989
 1526POPC   C4A21438   8.910  28.489   7.658
 1526POPC   C1B21439   9.301  28.189   8.763
 1526POPC   C2B21440   9.527  28.135   8.396
 1526POPC   C3B21441   9.371  28.272   8.029
 1526POPC   C4B21442   9.391  28.402   7.639
 1527POPC   NC321443   9.075   5.690   9.542
 1527POPC   PO421444   8.681   6.177   9.535
 1527POPC   GL121445   8.945   6.034   9.164
 1527POPC   GL221446   8.894   5.672   9.072
 1527POPC   C1A21447   8.882   6.111   8.721
 1527POPC   D2A21448   9.052   6.068   8.321
 1527POPC   C3A21449   8.867   6.052   7.896
 1527POPC   C4A21450   8.958   5.734   7.582
 1527POPC   C1B21451   8.634   5.675   8.708
 1527POPC   C2B21452   8.561   5.867   8.299
 1527POPC   C3B21453   8.556   5.652   7.898
 1527POPC   C4B21454   8.473   5.798   7.454
 1528POPC   NC321455  31.774  12.039   9.579
 1528POPC   PO421456  31.219  12.371   9.520
 1528POPC   GL121457  31.432  12.147   9.180
 1528POPC   GL221458  31.765  12.029   9.066
 1528POPC   C1A21459  31.389  12.270   8.756
 1528POPC   D2A21460  31.446  12.130   8.341
 1528POPC   C3A21461  31.112  12.150   8.042
 1528POPC   C4A21462  31.293  12.155   7.647
 1528POPC   C1B21463  31.776  11.797   8.674
 1528POPC   C2B21464  31.840  11.806   8.234
 1528POPC   C3B21465  31.777  11.951   7.822
 1528POPC   C4B21466  31.569  11.734   7.519
 1529POPC   NC321467  32.796  37.097   9.334
 1529POPC   PO421468  33.318  37.421   9.436
 1529POPC   GL121469  33.381  37.135   9.082
 1529POPC   GL221470  33.336  36.781   9.209
 1529POPC   C1A21471  33.167  36.938   8.733
 1529POPC   D2A21472  32.953  36.867   8.358
 1529POPC   C3A21473  32.816  37.252   8.174
 1529POPC   C4A21474  32.679  37.293   7.750
 1529POPC   C1B21475  33.576  36.626   8.851
 1529POPC   C2B21476  33.620  36.757   8.420
 1529POPC   C3B21477  33.411  36.724   8.038
 1529POPC   C4B21478  33.090  36.948   7.858
 1530POPC   NC321479  28.649  33.970   9.500
 1530POPC   PO421480  27.992  33.983   9.538
 1530POPC   GL121481  28.187  33.749   9.198
 1530POPC   GL221482  28.493  33.880   9.027
 1530POPC   C1A21483  28.148  33.615   8.756
 1530POPC   D2A21484  28.403  33.719   8.403
 1530POPC   C3A21485  28.240  33.614   8.001
 1530POPC   C4A21486  28.442  33.744   7.618
 1530POPC   C1B21487  28.691  34.264   8.830
 1530POPC   C2B21488  28.692  34.181   8.368
 1530POPC   C3B21489  28.476  34.073   8.016
 1530POPC   C4B21490  28.401  34.265   7.641
 1531POPC   NC321491  34.420  44.916   9.500
 1531POPC   PO421492  34.824  44.397   9.709
 1531POPC   GL121493  34.720  44.532   9.295
 1531POPC   GL221494  34.822  44.838   9.152
 1531POPC   C1A21495  34.602  44.431   8.864
 1531POPC   D2A21496  34.489  44.539   8.436
 1531POPC   C3A21497  34.867  44.635   8.211
 1531POPC   C4A21498  34.809  44.657   7.772
 1531POPC   C1B21499  34.629  44.941   8.709
 1531POPC   C2B21500  34.570   0.040   8.249
 1531POPC   C3B21501  34.496   0.154   7.834
 1531POPC   C4B21502  34.514  44.932   7.446
 1532POPC   NC321503  32.257   5.487  10.036
 1532POPC   PO421504  31.927   5.013   9.623
 1532POPC   GL121505  32.176   5.076   9.217
 1532POPC   GL221506  32.259   5.433   9.268
 1532POPC   C1A21507  32.317   4.957   8.759
 1532POPC   D2A21508  32.173   5.186   8.362
 1532POPC   C3A21509  32.256   5.024   7.943
 1532POPC   C4A21510  32.546   4.900   7.645
 1532POPC   C1B21511  32.383   5.454   8.820
 1532POPC   C2B21512  32.623   5.477   8.451
 1532POPC   C3B21513  32.483   5.515   8.035
 1532POPC   C4B21514  32.302   5.441   7.628
 1533POPC   NC321515   5.663  25.013   9.462
 1533POPC   PO421516   6.249  25.455   9.566
 1533POPC   GL121517   6.000  25.337   9.204
 1533POPC   GL221518   5.803  25.637   9.149
 1533POPC   C1A21519   5.724  25.206   8.835
 1533POPC   D2A21520   5.653  25.117   8.395
 1533POPC   C3A21521   5.986  25.021   8.105
 1533POPC   C4A21522   6.139  25.262   7.775
 1533POPC   C1B21523   6.034  25.628   8.773
 1533POPC   C2B21524   6.065  25.447   8.398
 1533POPC   C3B21525   5.769  25.505   8.074
 1533POPC   C4B21526   5.832  25.672   7.686
 1534POPC   NC321527  10.982  11.311   9.874
 1534POPC   PO421528  10.491  11.651   9.535
 1534POPC   GL121529  10.565  11.530   9.104
 1534POPC   GL221530  10.636  11.193   9.061
 1534POPC   C1A21531  10.645  11.497   8.656
 1534POPC   D2A21532  10.753  11.360   8.279
 1534POPC   C3A21533  10.749  11.741   8.045
 1534POPC   C4A21534  10.570  11.586   7.700
 1534POPC   C1B21535  10.627  10.946   8.677
 1534POPC   C2B21536  10.545  10.857   8.236
 1534POPC   C3B21537  10.523  11.018   7.810
 1534POPC   C4B21538  10.254  10.865   7.457
 1535POPC   NC321539  12.508   6.705   9.721
 1535POPC   PO421540  11.958   6.467   9.483
 1535POPC   GL121541  12.128   6.776   9.186
 1535POPC   GL221542  11.801   6.894   9.153
 1535POPC   C1A21543  12.069   7.000   8.730
 1535POPC   D2A21544  11.899   6.958   8.272
 1535POPC   C3A21545  12.185   6.727   7.965
 1535POPC   C4A21546  12.386   6.303   7.909
 1535POPC   C1B21547  11.910   6.520   8.815
 1535POPC   C2B21548  11.908   6.429   8.377
 1535POPC   C3B21549  11.727   6.487   7.982
 1535POPC   C4B21550  11.744   6.817   7.685
 1536POPC   NC321551  28.084  16.393   9.482
 1536POPC   PO421552  28.101  15.698   9.607
 1536POPC   GL121553  28.259  15.743   9.170
 1536POPC   GL221554  28.333  16.094   9.096
 1536POPC   C1A21555  28.165  15.789   8.715
 1536POPC   D2A21556  28.413  15.851   8.328
 1536POPC   C3A21557  28.417  16.163   8.052
 1536POPC   C4A21558  28.144  16.050   7.731
 1536POPC   C1B21559  28.647  15.881   8.790
 1536POPC   C2B21560  28.775  15.553   8.499
 1536POPC   C3B21561  28.778  15.598   8.036
 1536POPC   C4B21562  28.644  15.874   7.698
 1537POPC   NC321563  24.332  14.797   9.612
 1537POPC   PO421564  24.622  15.346   9.469
 1537POPC   GL121565  24.857  15.138   9.131
 1537POPC   GL221566  24.656  14.842   9.160
 1537POPC   C1A21567  24.755  15.088   8.688
 1537POPC   D2A21568  24.425  15.162   8.390
 1537POPC   C3A21569  24.538  15.420   8.036
 1537POPC   C4A21570  24.490  15.218   7.643
 1537POPC   C1B21571  24.522  14.613   8.785
 1537POPC   C2B21572  24.592  14.652   8.354
 1537POPC   C3B21573  24.543  14.844   7.975
 1537POPC   C4B21574  24.309  14.721   7.610
 1538POPC   NC321575  11.937  27.325   9.296
 1538POPC   PO421576  12.099  26.692   9.442
 1538POPC   GL121577  12.086  26.864   9.089
 1538POPC   GL221578  12.391  27.040   9.143
 1538POPC   C1A21579  12.083  26.728   8.680
 1538POPC   D2A21580  12.348  26.495   8.432
 1538POPC   C3A21581  12.156  26.478   8.017
 1538POPC   C4A21582  11.961  26.655   7.662
 1538POPC   C1B21583  12.274  27.196   8.740
 1538POPC   C2B21584  12.179  27.148   8.319
 1538POPC   C3B21585  12.161  27.069   7.888
 1538POPC   C4B21586  12.365  27.285   7.577
 1539POPC   NC321587  21.895   1.113   9.465
 1539POPC   PO421588  22.391   1.569   9.504
 1539POPC   GL121589  22.235   1.377   9.158
 1539POPC   GL221590  21.937   1.535   9.130
 1539POPC   C1A21591  22.265   1.114   8.795
 1539POPC   D2A21592  22.039   1.114   8.427
 1539POPC   C3A21593  22.232   1.134   8.060
 1539POPC   C4A21594  22.095   1.273   7.686
 1539POPC   C1B21595  21.793   1.295   8.829
 1539POPC   C2B21596  21.590   1.330   8.470
 1539POPC   C3B21597  21.752   1.363   8.059
 1539POPC   C4B21598  21.667   1.574   7.673
 1540POPC   NC321599  37.359  13.038   9.410
 1540POPC   PO421600  37.866  12.553   9.367
 1540POPC   GL121601  37.849  12.781   8.986
 1540POPC   GL221602  37.482  12.726   9.018
 1540POPC   C1A21603  37.945  13.088   8.624
 1540POPC   D2A21604  37.621  13.338   8.375
 1540POPC   C3A21605  37.554  13.145   7.975
 1540POPC   C4A21606  37.849  13.074   7.641
 1540POPC   C1B21607  37.483  12.877   8.609
 1540POPC   C2B21608  37.771  12.731   8.276
 1540POPC   C3B21609  37.672  12.638   7.866
 1540POPC   C4B21610  37.255  12.689   7.783
 1541POPC   NC321611  10.126  43.245   9.379
 1541POPC   PO421612   9.583  42.921   9.489
 1541POPC   GL121613   9.802  42.990   9.112
 1541POPC   GL221614   9.700  43.316   9.098
 1541POPC   C1A21615   9.697  42.914   8.682
 1541POPC   D2A21616   9.645  43.165   8.302
 1541POPC   C3A21617   9.749  42.991   7.904
 1541POPC   C4A21618   9.469  42.826   7.610
 1541POPC   C1B21619   9.948  43.356   8.757
 1541POPC   C2B21620  10.133  43.335   8.401
 1541POPC   C3B21621  10.021  43.411   8.037
 1541POPC   C4B21622  10.136  43.279   7.655
 1542POPC   NC321623  18.809  32.363   9.692
 1542POPC   PO421624  19.220  31.929   9.396
 1542POPC   GL121625  19.228  32.361   9.168
 1542POPC   GL221626  18.922  32.524   9.062
 1542POPC   C1A21627  19.331  32.512   8.732
 1542POPC   D2A21628  19.117  32.491   8.312
 1542POPC   C3A21629  18.975  32.604   7.934
 1542POPC   C4A21630  19.238  32.414   7.640
 1542POPC   C1B21631  18.812  32.397   8.691
 1542POPC   C2B21632  18.694  32.184   8.374
 1542POPC   C3B21633  18.853  32.091   7.991
 1542POPC   C4B21634  18.770  32.256   7.604
 1543POPC   NC321635  12.517  11.564   9.614
 1543POPC   PO421636  12.893  12.162   9.457
 1543POPC   GL121637  12.905  12.020   9.079
 1543POPC   GL221638  12.545  11.915   9.139
 1543POPC   C1A21639  13.039  12.143   8.656
 1543POPC   D2A21640  12.964  12.356   8.255
 1543POPC   C3A21641  13.006  12.153   7.844
 1543POPC   C4A21642  13.219  11.924   7.470
 1543POPC   C1B21643  12.530  12.228   8.795
 1543POPC   C2B21644  12.453  12.386   8.409
 1543POPC   C3B21645  12.490  12.188   8.034
 1543POPC   C4B21646  12.560  12.381   7.671
 1544POPC   NC321647  42.835   6.894   9.291
 1544POPC   PO421648  42.614   6.353   9.579
 1544POPC   GL121649  42.802   6.340   9.140
 1544POPC   GL221650  43.146   6.502   9.113
 1544POPC   C1A21651  42.921   6.403   8.688
 1544POPC   D2A21652  42.916   6.676   8.386
 1544POPC   C3A21653  43.189   6.650   8.103
 1544POPC   C4A21654  42.900   6.557   7.796
 1544POPC   C1B21655  43.257   6.819   8.756
 1544POPC   C2B21656  43.202   7.113   8.386
 1544POPC   C3B21657  43.403   7.070   7.946
 1544POPC   C4B21658  43.326   6.759   7.606
 1545POPC   NC321659   5.759   2.569   9.579
 1545POPC   PO421660   6.183   2.996   9.410
 1545POPC   GL121661   6.054   2.604   9.145
 1545POPC   GL221662   5.685   2.492   9.096
 1545POPC   C1A21663   6.015   2.724   8.735
 1545POPC   D2A21664   6.192   3.019   8.424
 1545POPC   C3A21665   6.006   2.944   8.033
 1545POPC   C4A21666   5.628   2.882   7.803
 1545POPC   C1B21667   5.708   2.322   8.701
 1545POPC   C2B21668   5.760   2.551   8.306
 1545POPC   C3B21669   5.909   2.445   7.921
 1545POPC   C4B21670   5.734   2.449   7.521
 1546POPC   NC321671  17.974  15.331   9.438
 1546POPC   PO421672  18.489  14.830   9.395
 1546POPC   GL121673  18.190  14.988   9.108
 1546POPC   GL221674  18.377  15.279   9.109
 1546POPC   C1A21675  18.069  15.188   8.716
 1546POPC   D2A21676  18.079  15.387   8.306
 1546POPC   C3A21677  18.266  15.091   8.012
 1546POPC   C4A21678  18.233  14.955   7.608
 1546POPC   C1B21679  18.470  15.543   8.771
 1546POPC   C2B21680  18.424  15.771   8.377
 1546POPC   C3B21681  18.321  15.664   7.936
 1546POPC   C4B21682  18.561  15.396   7.689
 1547POPC   NC321683  37.258  40.143   9.238
 1547POPC   PO421684  36.993  39.735   9.662
 1547POPC   GL121685  36.865  39.873   9.187
 1547POPC   GL221686  36.710  40.212   9.187
 1547POPC   C1A21687  37.011  39.689   8.774
 1547POPC   D2A21688  36.808  39.754   8.379
 1547POPC   C3A21689  37.061  39.881   8.061
 1547POPC   C4A21690  37.184  39.697   7.680
 1547POPC   C1B21691  36.805  40.162   8.729
 1547POPC   C2B21692  36.645  40.248   8.304
 1547POPC   C3B21693  36.815  40.300   7.918
 1547POPC   C4B21694  37.108  40.196   7.631
 1548POPC   NC321695   2.345  35.985   9.535
 1548POPC   PO421696   1.779  36.414   9.469
 1548POPC   GL121697   1.946  36.139   9.107
 1548POPC   GL221698   2.261  35.917   9.043
 1548POPC   C1A21699   1.904  36.101   8.643
 1548POPC   D2A21700   1.544  36.278   8.354
 1548POPC   C3A21701   1.651  36.247   7.951
 1548POPC   C4A21702   1.842  35.901   7.761
 1548POPC   C1B21703   2.409  36.260   8.793
 1548POPC   C2B21704   2.434  36.331   8.345
 1548POPC   C3B21705   2.192  36.249   7.987
 1548POPC   C4B21706   2.151  36.471   7.606
 1549POPC   NC321707  11.856   8.209   9.372
 1549POPC   PO421708  12.274   7.802   9.447
 1549POPC   GL121709  12.298   8.043   9.095
 1549POPC   GL221710  12.420   8.363   9.234
 1549POPC   C1A21711  12.065   8.059   8.708
 1549POPC   D2A21712  12.188   8.213   8.313
 1549POPC   C3A21713  11.948   8.101   7.985
 1549POPC   C4A21714  11.891   7.714   7.761
 1549POPC   C1B21715  12.269   8.523   8.842
 1549POPC   C2B21716  12.356   8.680   8.426
 1549POPC   C3B21717  12.562   8.498   8.073
 1549POPC   C4B21718  12.406   8.506   7.651
 1550POPC   NC321719  42.153  14.385   9.457
 1550POPC   PO421720  42.818  14.079   9.540
 1550POPC   GL121721  42.598  14.110   9.128
 1550POPC   GL221722  42.513  14.468   9.084
 1550POPC   C1A21723  42.577  14.204   8.653
 1550POPC   D2A21724  42.337  14.273   8.271
 1550POPC   C3A21725  42.511  14.326   7.850
 1550POPC   C4A21726  42.327  14.153   7.505
 1550POPC   C1B21727  42.139  14.477   8.758
 1550POPC   C2B21728  41.907  14.553   8.342
 1550POPC   C3B21729  42.034  14.551   7.878
 1550POPC   C4B21730  41.985  14.739   7.427
 1551POPC   NC321731  34.790  40.624   9.379
 1551POPC   PO421732  34.295  40.999   9.344
 1551POPC   GL121733  34.561  40.884   9.011
 1551POPC   GL221734  34.948  40.904   8.979
 1551POPC   C1A21735  34.467  40.697   8.670
 1551POPC   D2A21736  34.593  40.820   8.301
 1551POPC   C3A21737  34.346  40.610   7.992
 1551POPC   C4A21738  34.285  40.768   7.610
 1551POPC   C1B21739  34.946  40.532   8.672
 1551POPC   C2B21740  34.804  40.367   8.237
 1551POPC   C3B21741  34.827  40.658   7.857
 1551POPC   C4B21742  34.750  40.926   7.536
 1552POPC   NC321743  29.805  16.608   9.605
 1552POPC   PO421744  29.626  17.108   9.268
 1552POPC   GL121745  29.840  16.803   9.082
 1552POPC   GL221746  29.842  16.438   9.129
 1552POPC   C1A21747  29.862  16.799   8.680
 1552POPC   D2A21748  29.951  16.953   8.287
 1552POPC   C3A21749  29.697  16.841   7.964
 1552POPC   C4A21750  30.058  16.825   7.694
 1552POPC   C1B21751  30.050  16.346   8.746
 1552POPC   C2B21752  29.839  16.400   8.332
 1552POPC   C3B21753  29.985  16.391   7.925
 1552POPC   C4B21754  29.942  16.165   7.557
 1553POPC   NC321755  18.994   4.874   9.575
 1553POPC   PO421756  19.359   5.283   9.834
 1553POPC   GL121757  19.215   5.201   9.280
 1553POPC   GL221758  18.845   5.070   9.114
 1553POPC   C1A21759  19.240   5.082   8.799
 1553POPC   D2A21760  19.395   4.937   8.380
 1553POPC   C3A21761  19.228   5.002   7.964
 1553POPC   C4A21762  18.889   5.216   7.804
 1553POPC   C1B21763  18.797   4.796   8.764
 1553POPC   C2B21764  18.917   4.764   8.363
 1553POPC   C3B21765  18.776   4.701   7.980
 1553POPC   C4B21766  18.841   4.775   7.580
 1554POPC   NC321767  35.649  24.255   9.957
 1554POPC   PO421768  35.460  24.251   9.351
 1554POPC   GL121769  35.220  24.396   9.081
 1554POPC   GL221770  35.447  24.616   8.962
 1554POPC   C1A21771  35.171  24.210   8.717
 1554POPC   D2A21772  35.261  23.959   8.393
 1554POPC   C3A21773  35.346  24.205   8.053
 1554POPC   C4A21774  35.176  24.293   7.647
 1554POPC   C1B21775  35.645  24.426   8.589
 1554POPC   C2B21776  35.608  24.629   8.193
 1554POPC   C3B21777  35.515  24.615   7.779
 1554POPC   C4B21778  35.640  24.507   7.384
 1555POPC   NC321779  32.750  36.157   9.440
 1555POPC   PO421780  33.448  35.956   9.482
 1555POPC   GL121781  33.146  35.908   9.164
 1555POPC   GL221782  33.166  36.272   9.163
 1555POPC   C1A21783  32.858  35.979   8.809
 1555POPC   D2A21784  32.742  36.218   8.452
 1555POPC   C3A21785  32.883  35.978   8.126
 1555POPC   C4A21786  32.785  36.025   7.728
 1555POPC   C1B21787  33.086  36.441   8.791
 1555POPC   C2B21788  33.208  36.415   8.386
 1555POPC   C3B21789  32.970  36.459   8.009
 1555POPC   C4B21790  33.171  36.476   7.626
 1556POPC   NC321791  20.034  44.283   9.418
 1556POPC   PO421792  19.776  44.906   9.562
 1556POPC   GL121793  19.866  44.732   9.198
 1556POPC   GL221794  19.596  44.498   9.212
 1556POPC   C1A21795  19.715  44.806   8.799
 1556POPC   D2A21796  19.756  44.941   8.370
 1556POPC   C3A21797  20.053  44.686   8.147
 1556POPC   C4A21798  19.984  44.476   7.762
 1556POPC   C1B21799  19.482  44.350   8.812
 1556POPC   C2B21800  19.680  44.445   8.424
 1556POPC   C3B21801  19.574  44.312   8.020
 1556POPC   C4B21802  19.350  44.351   7.653
 1557POPC   NC321803  22.825  44.732   9.652
 1557POPC   PO421804  23.320  44.381   9.384
 1557POPC   GL121805  22.950  44.555   9.125
 1557POPC   GL221806  22.713  44.865   9.180
 1557POPC   C1A21807  22.984  44.538   8.663
 1557POPC   D2A21808  23.162  44.430   8.249
 1557POPC   C3A21809  23.184  44.582   7.832
 1557POPC   C4A21810  23.433  44.500   7.458
 1557POPC   C1B21811  22.598  44.870   8.755
 1557POPC   C2B21812  22.580  44.613   8.370
 1557POPC   C3B21813  22.512  44.726   7.959
 1557POPC   C4B21814  22.619  44.939   7.596
 1558POPC   NC321815  37.506   1.799   9.494
 1558POPC   PO421816  37.954   2.398   9.406
 1558POPC   GL121817  37.940   2.178   9.035
 1558POPC   GL221818  37.600   2.059   9.082
 1558POPC   C1A21819  37.728   2.262   8.658
 1558POPC   D2A21820  37.595   2.050   8.340
 1558POPC   C3A21821  37.758   2.110   7.932
 1558POPC   C4A21822  37.811   2.350   7.586
 1558POPC   C1B21823  37.344   1.870   8.766
 1558POPC   C2B21824  37.352   1.598   8.408
 1558POPC   C3B21825  37.356   1.759   8.000
 1558POPC   C4B21826  37.396   1.893   7.592
 1559POPC   NC321827  34.615  27.830  10.086
 1559POPC   PO421828  34.642  27.353   9.450
 1559POPC   GL121829  34.398  27.371   9.128
 1559POPC   GL221830  34.428  27.724   9.084
 1559POPC   C1A21831  34.220  27.396   8.729
 1559POPC   D2A21832  34.471  27.315   8.379
 1559POPC   C3A21833  34.319  27.563   8.050
 1559POPC   C4A21834  34.337  27.325   7.696
 1559POPC   C1B21835  34.662  27.654   8.725
 1559POPC   C2B21836  34.706  27.802   8.329
 1559POPC   C3B21837  34.808  27.586   7.984
 1559POPC   C4B21838  35.086  27.580   7.717
 1560POPC   NC321839  37.830  41.434   9.687
 1560POPC   PO421840  37.411  41.769   9.297
 1560POPC   GL121841  37.633  41.509   9.075
 1560POPC   GL221842  37.945  41.494   9.188
 1560POPC   C1A21843  37.777  41.704   8.697
 1560POPC   D2A21844  37.712  41.654   8.294
 1560POPC   C3A21845  37.471  41.911   8.063
 1560POPC   C4A21846  37.535  41.917   7.631
 1560POPC   C1B21847  38.114  41.335   8.812
 1560POPC   C2B21848  38.277  41.242   8.393
 1560POPC   C3B21849  38.064  41.354   8.005
 1560POPC   C4B21850  37.955  41.781   7.869
 1561POPC   NC321851  14.930  13.269   9.387
 1561POPC   PO421852  15.208  12.651   9.573
 1561POPC   GL121853  15.108  12.816   9.209
 1561POPC   GL221854  15.106  12.508   9.049
 1561POPC   C1A21855  15.155  12.950   8.791
 1561POPC   D2A21856  15.020  13.006   8.382
 1561POPC   C3A21857  15.294  12.936   8.064
 1561POPC   C4A21858  15.150  12.965   7.668
 1561POPC   C1B21859  14.852  12.478   8.693
 1561POPC   C2B21860  15.012  12.502   8.315
 1561POPC   C3B21861  14.862  12.644   7.958
 1561POPC   C4B21862  15.177  12.464   7.760
 1562POPC   NC321863  13.518  27.013   9.473
 1562POPC   PO421864  13.921  26.408   9.485
 1562POPC   GL121865  13.740  26.662   9.108
 1562POPC   GL221866  13.555  26.980   8.990
 1562POPC   C1A21867  13.639  26.619   8.647
 1562POPC   D2A21868  13.610  26.615   8.174
 1562POPC   C3A21869  13.879  26.683   7.837
 1562POPC   C4A21870  13.567  26.702   7.484
 1562POPC   C1B21871  13.706  27.164   8.633
 1562POPC   C2B21872  13.789  27.091   8.215
 1562POPC   C3B21873  13.547  27.070   7.836
 1562POPC   C4B21874  13.579  27.198   7.380
 1563POPC   NC321875   0.818  14.468   9.400
 1563POPC   PO421876   1.453  14.856   9.439
 1563POPC   GL121877   1.269  14.613   9.113
 1563POPC   GL221878   1.361  14.296   9.197
 1563POPC   C1A21879   1.018  14.417   8.784
 1563POPC   D2A21880   0.932  14.321   8.381
 1563POPC   C3A21881   1.266  14.451   8.162
 1563POPC   C4A21882   1.330  14.555   7.773
 1563POPC   C1B21883   1.403  14.069   8.805
 1563POPC   C2B21884   1.335  13.997   8.369
 1563POPC   C3B21885   1.522  14.073   7.948
 1563POPC   C4B21886   1.419  14.137   7.499
 1564POPC   NC321887   0.902  30.490   9.535
 1564POPC   PO421888   1.481  30.837   9.730
 1564POPC   GL121889   1.185  30.833   9.302
 1564POPC   GL221890   1.277  30.441   9.190
 1564POPC   C1A21891   1.187  30.979   8.832
 1564POPC   D2A21892   1.530  30.923   8.525
 1564POPC   C3A21893   1.360  30.888   8.119
 1564POPC   C4A21894   1.216  30.853   7.717
 1564POPC   C1B21895   1.006  30.507   8.853
 1564POPC   C2B21896   1.126  30.592   8.460
 1564POPC   C3B21897   1.010  30.520   8.044
 1564POPC   C4B21898   0.953  30.390   7.629
 1565POPC   NC321899  10.716   3.734   9.635
 1565POPC   PO421900  10.246   3.341   9.551
 1565POPC   GL121901  10.479   3.431   9.160
 1565POPC   GL221902  10.660   3.779   9.140
 1565POPC   C1A21903  10.505   3.548   8.723
 1565POPC   D2A21904  10.629   3.790   8.408
 1565POPC   C3A21905  10.527   3.622   8.035
 1565POPC   C4A21906  10.256   3.711   7.699
 1565POPC   C1B21907  10.827   4.049   8.806
 1565POPC   C2B21908  11.038   4.107   8.421
 1565POPC   C3B21909  10.922   3.959   8.005
 1565POPC   C4B21910  10.772   3.770   7.603
 1566POPC   NC321911  18.297  29.905   9.566
 1566POPC   PO421912  17.737  30.234   9.337
 1566POPC   GL121913  18.084  30.065   9.126
 1566POPC   GL221914  18.457  30.116   9.109
 1566POPC   C1A21915  18.163  29.904   8.722
 1566POPC   D2A21916  18.378  29.902   8.318
 1566POPC   C3A21917  18.194  29.807   7.925
 1566POPC   C4A21918  18.207  29.417   7.717
 1566POPC   C1B21919  18.589  30.226   8.683
 1566POPC   C2B21920  18.522  30.389   8.253
 1566POPC   C3B21921  18.566  30.155   7.876
 1566POPC   C4B21922  18.624  29.820   7.605
 1567POPC   NC321923  18.560  12.928   9.427
 1567POPC   PO421924  18.078  12.568   9.703
 1567POPC   GL121925  18.200  12.600   9.220
 1567POPC   GL221926  17.956  12.565   8.945
 1567POPC   C1A21927  18.422  12.664   8.779
 1567POPC   D2A21928  18.247  12.799   8.383
 1567POPC   C3A21929  18.424  12.860   7.988
 1567POPC   C4A21930  18.556  12.498   7.767
 1567POPC   C1B21931  18.006  13.008   8.775
 1567POPC   C2B21932  17.868  13.172   8.380
 1567POPC   C3B21933  17.892  12.901   8.030
 1567POPC   C4B21934  18.056  12.634   7.698
 1568POPC   NC321935   3.832  32.618   9.656
 1568POPC   PO421936   3.260  32.220   9.544
 1568POPC   GL121937   3.485  32.227   9.156
 1568POPC   GL221938   3.812  32.361   9.215
 1568POPC   C1A21939   3.616  32.238   8.732
 1568POPC   D2A21940   3.423  32.491   8.437
 1568POPC   C3A21941   3.613  32.411   8.042
 1568POPC   C4A21942   3.504  32.313   7.623
 1568POPC   C1B21943   3.850  32.650   8.874
 1568POPC   C2B21944   3.959  32.577   8.429
 1568POPC   C3B21945   4.114  32.552   7.990
 1568POPC   C4B21946   3.941  32.561   7.571
 1569POPC   NC321947  15.809  26.376   9.595
 1569POPC   PO421948  16.173  25.844   9.752
 1569POPC   GL121949  16.161  25.850   9.286
 1569POPC   GL221950  16.314  26.176   9.185
 1569POPC   C1A21951  15.968  25.756   8.880
 1569POPC   D2A21952  16.043  25.839   8.445
 1569POPC   C3A21953  15.802  25.810   8.046
 1569POPC   C4A21954  15.951  25.505   7.739
 1569POPC   C1B21955  16.150  26.248   8.752
 1569POPC   C2B21956  15.773  26.323   8.479
 1569POPC   C3B21957  15.812  26.446   8.053
 1569POPC   C4B21958  16.107  26.219   7.799
 1570POPC   NC321959  12.423  20.801   9.585
 1570POPC   PO421960  12.977  20.391   9.608
 1570POPC   GL121961  12.934  20.344   9.165
 1570POPC   GL221962  13.219  20.416   8.971
 1570POPC   C1A21963  12.748  20.377   8.750
 1570POPC   D2A21964  12.898  20.570   8.382
 1570POPC   C3A21965  12.818  20.424   7.989
 1570POPC   C4A21966  12.651  20.640   7.643
 1570POPC   C1B21967  13.092  20.809   8.803
 1570POPC   C2B21968  13.085  21.050   8.417
 1570POPC   C3B21969  13.007  20.920   8.002
 1570POPC   C4B21970  13.130  20.909   7.573
 1571POPC   NC321971   9.992  42.605   9.566
 1571POPC   PO421972   9.403  42.211   9.449
 1571POPC   GL121973   9.400  42.287   9.070
 1571POPC   GL221974   9.591  42.544   9.101
 1571POPC   C1A21975   9.414  42.065   8.701
 1571POPC   D2A21976   9.543  41.814   8.366
 1571POPC   C3A21977   9.651  42.119   8.097
 1571POPC   C4A21978   9.468  42.346   7.791
 1571POPC   C1B21979   9.791  42.401   8.714
 1571POPC   C2B21980  10.056  42.277   8.372
 1571POPC   C3B21981  10.161  42.432   7.977
 1571POPC   C4B21982   9.899  42.563   7.647
 1572POPC   NC321983  35.424  11.427   9.537
 1572POPC   PO421984  34.723  11.512   9.505
 1572POPC   GL121985  35.055  11.612   9.199
 1572POPC   GL221986  35.152  11.252   9.168
 1572POPC   C1A21987  35.406  11.617   8.868
 1572POPC   D2A21988  35.526  11.400   8.476
 1572POPC   C3A21989  35.424  11.512   8.046
 1572POPC   C4A21990  35.268  11.419   7.588
 1572POPC   C1B21991  35.430  11.064   8.863
 1572POPC   C2B21992  35.616  10.875   8.486
 1572POPC   C3B21993  35.687  11.064   8.078
 1572POPC   C4B21994  35.632  10.977   7.650
 1573POPC   NC321995  11.451  34.809   9.691
 1573POPC   PO421996  12.091  34.989   9.607
 1573POPC   GL121997  12.199  35.054   9.152
 1573POPC   GL221998  12.306  34.734   9.099
 1573POPC   C1A21999  12.222  35.368   8.762
 1573POPC   D2A22000  12.127  35.596   8.323
 1573POPC   C3A22001  12.050  35.378   7.912
 1573POPC   C4A22002  11.751  35.335   7.541
 1573POPC   C1B22003  12.405  34.852   8.706
 1573POPC   C2B22004  12.276  35.060   8.331
 1573POPC   C3B22005  12.159  34.874   7.948
 1573POPC   C4B22006  12.168  35.038   7.547
 1574POPC   NC322007   3.507   8.075   9.499
 1574POPC   PO422008   2.889   8.181   9.224
 1574POPC   GL122009   3.307   8.227   9.045
 1574POPC   GL222010   3.491   7.889   9.015
 1574POPC   C1A22011   3.412   8.405   8.639
 1574POPC   D2A22012   3.379   8.254   8.215
 1574POPC   C3A22013   3.566   8.497   7.866
 1574POPC   C4A22014   4.002   8.521   7.727
 1574POPC   C1B22015   3.817   8.139   8.789
 1574POPC   C2B22016   3.855   8.304   8.357
 1574POPC   C3B22017   3.840   8.073   7.943
 1574POPC   C4B22018   3.828   7.660   7.717
 1575POPC   NC322019  38.792   5.147   9.736
 1575POPC   PO422020  39.461   5.098   9.406
 1575POPC   GL122021  39.443   5.059   9.057
 1575POPC   GL222022  39.198   4.822   9.027
 1575POPC   C1A22023  39.374   5.254   8.695
 1575POPC   D2A22024  39.110   5.346   8.367
 1575POPC   C3A22025  39.354   5.196   8.053
 1575POPC   C4A22026  39.417   5.199   7.618
 1575POPC   C1B22027  39.431   4.725   8.677
 1575POPC   C2B22028  39.234   4.760   8.312
 1575POPC   C3B22029  39.381   4.714   7.931
 1575POPC   C4B22030  39.771   4.920   7.854
 1576POPC   NC322031  13.316  30.439   9.559
 1576POPC   PO422032  13.989  30.734   9.409
 1576POPC   GL122033  13.600  30.622   9.140
 1576POPC   GL222034  13.858  30.446   8.981
 1576POPC   C1A22035  13.468  30.497   8.655
 1576POPC   D2A22036  13.492  30.314   8.209
 1576POPC   C3A22037  13.576  30.524   7.814
 1576POPC   C4A22038  13.405  30.936   7.703
 1576POPC   C1B22039  13.796  30.862   8.736
 1576POPC   C2B22040  13.655  30.880   8.298
 1576POPC   C3B22041  13.875  30.930   7.890
 1576POPC   C4B22042  13.792  31.101   7.425
 1577POPC   NC322043  29.591  23.615   9.492
 1577POPC   PO422044  28.918  23.615   9.477
 1577POPC   GL122045  29.049  23.406   9.067
 1577POPC   GL222046  29.424  23.322   9.094
 1577POPC   C1A22047  28.935  23.418   8.610
 1577POPC   D2A22048  28.913  23.711   8.253
 1577POPC   C3A22049  29.027  23.606   7.820
 1577POPC   C4A22050  28.962  23.690   7.338
 1577POPC   C1B22051  29.390  23.662   8.780
 1577POPC   C2B22052  29.434  23.780   8.357
 1577POPC   C3B22053  29.592  23.706   7.938
 1577POPC   C4B22054  29.432  23.791   7.548
 1578POPC   NC322055   9.716  19.378   9.843
 1578POPC   PO422056   9.404  19.923   9.585
 1578POPC   GL122057   9.624  19.921   9.239
 1578POPC   GL222058   9.773  19.596   9.240
 1578POPC   C1A22059   9.532  19.891   8.824
 1578POPC   D2A22060   9.465  19.683   8.452
 1578POPC   C3A22061   9.578  19.992   8.157
 1578POPC   C4A22062   9.444  19.993   7.762
 1578POPC   C1B22063   9.935  19.537   8.827
 1578POPC   C2B22064   9.969  19.715   8.411
 1578POPC   C3B22065   9.880  19.649   7.961
 1578POPC   C4B22066   9.868  19.830   7.544
 1579POPC   NC322067  30.191  10.718   9.480
 1579POPC   PO422068  29.494  10.479   9.563
 1579POPC   GL122069  29.767  10.518   9.206
 1579POPC   GL222070  29.689  10.292   8.932
 1579POPC   C1A22071  29.870  10.765   8.834
 1579POPC   D2A22072  29.833  10.515   8.450
 1579POPC   C3A22073  29.985  10.604   8.049
 1579POPC   C4A22074  29.694  10.550   7.741
 1579POPC   C1B22075  30.148  10.334   8.819
 1579POPC   C2B22076  30.305  10.329   8.365
 1579POPC   C3B22077  30.266  10.187   7.927
 1579POPC   C4B22078  30.136  10.425   7.570
 1580POPC   NC322079  15.065  33.251   9.569
 1580POPC   PO422080  15.496  32.764   9.588
 1580POPC   GL122081  15.184  32.814   9.258
 1580POPC   GL222082  14.857  32.964   9.182
 1580POPC   C1A22083  15.186  32.866   8.811
 1580POPC   D2A22084  15.311  33.047   8.428
 1580POPC   C3A22085  15.207  32.865   8.033
 1580POPC   C4A22086  15.254  33.023   7.636
 1580POPC   C1B22087  14.677  33.114   8.785
 1580POPC   C2B22088  14.568  33.168   8.350
 1580POPC   C3B22089  14.797  33.141   7.956
 1580POPC   C4B22090  14.818  33.237   7.466
 1581POPC   NC322091  36.990  21.096   9.486
 1581POPC   PO422092  36.682  21.617   9.380
 1581POPC   GL122093  36.752  21.297   9.083
 1581POPC   GL222094  36.449  21.353   8.931
 1581POPC   C1A22095  37.118  21.150   8.827
 1581POPC   D2A22096  37.340  21.404   8.506
 1581POPC   C3A22097  37.209  21.311   8.065
 1581POPC   C4A22098  37.017  21.470   7.672
 1581POPC   C1B22099  36.768  21.434   8.601
 1581POPC   C2B22100  36.731  21.504   8.157
 1581POPC   C3B22101  36.647  21.792   7.878
 1581POPC   C4B22102  36.507  21.670   7.507
 1582POPC   NC322103  26.272  25.034   9.541
 1582POPC   PO422104  26.063  25.687   9.468
 1582POPC   GL122105  26.167  25.459   9.096
 1582POPC   GL222106  26.089  25.106   9.075
 1582POPC   C1A22107  26.238  25.626   8.697
 1582POPC   D2A22108  26.012  25.684   8.309
 1582POPC   C3A22109  26.073  25.311   8.088
 1582POPC   C4A22110  26.304  25.452   7.747
 1582POPC   C1B22111  25.709  24.867   8.951
 1582POPC   C2B22112  25.703  24.847   8.508
 1582POPC   C3B22113  25.780  24.878   8.065
 1582POPC   C4B22114  25.799  25.083   7.657
 1583POPC   NC322115   9.003  16.114   9.487
 1583POPC   PO422116   8.962  16.774   9.555
 1583POPC   GL122117   9.116  16.504   9.173
 1583POPC   GL222118   8.774  16.439   9.179
 1583POPC   C1A22119   9.268  16.567   8.739
 1583POPC   D2A22120   9.052  16.837   8.435
 1583POPC   C3A22121   9.215  16.668   8.080
 1583POPC   C4A22122   9.141  16.620   7.643
 1583POPC   C1B22123   8.756  16.539   8.760
 1583POPC   C2B22124   8.843  16.372   8.313
 1583POPC   C3B22125   8.727  16.452   7.903
 1583POPC   C4B22126   8.698  16.451   7.447
 1584POPC   NC322127  32.540   1.035   9.450
 1584POPC   PO422128  32.244   1.613   9.441
 1584POPC   GL122129  32.357   1.464   9.068
 1584POPC   GL222130  32.691   1.343   9.064
 1584POPC   C1A22131  32.266   1.088   8.850
 1584POPC   D2A22132  32.078   1.048   8.474
 1584POPC   C3A22133  32.211   1.289   8.126
 1584POPC   C4A22134  32.114   1.058   7.727
 1584POPC   C1B22135  32.582   1.395   8.597
 1584POPC   C2B22136  32.604   1.022   8.355
 1584POPC   C3B22137  32.588   0.998   7.919
 1584POPC   C4B22138  32.490   1.399   7.706
 1585POPC   NC322139   4.019  39.468   9.433
 1585POPC   PO422140   3.479  38.967   9.436
 1585POPC   GL122141   3.556  39.196   9.104
 1585POPC   GL222142   3.536  39.517   9.204
 1585POPC   C1A22143   3.432  39.288   8.703
 1585POPC   D2A22144   3.584  39.190   8.313
 1585POPC   C3A22145   3.373  39.341   7.962
 1585POPC   C4A22146   3.481  39.010   7.692
 1585POPC   C1B22147   3.789  39.626   8.832
 1585POPC   C2B22148   3.700  39.680   8.411
 1585POPC   C3B22149   3.873  39.647   8.018
 1585POPC   C4B22150   3.787  39.413   7.684
 1586POPC   NC322151  12.332  23.336   9.457
 1586POPC   PO422152  11.961  22.736   9.529
 1586POPC   GL122153  12.021  23.000   9.212
 1586POPC   GL222154  12.359  22.896   9.189
 1586POPC   C1A22155  12.065  23.020   8.771
 1586POPC   D2A22156  11.868  22.951   8.362
 1586POPC   C3A22157  12.076  23.003   7.980
 1586POPC   C4A22158  11.949  23.193   7.598
 1586POPC   C1B22159  12.487  22.730   8.801
 1586POPC   C2B22160  12.387  22.820   8.383
 1586POPC   C3B22161  12.487  22.692   7.989
 1586POPC   C4B22162  12.233  22.641   7.649
 1587POPC   NC322163  22.854   1.592   9.777
 1587POPC   PO422164  23.034   2.167   9.386
 1587POPC   GL122165  22.949   2.128   8.976
 1587POPC   GL222166  23.157   1.855   8.983
 1587POPC   C1A22167  22.734   1.881   8.653
 1587POPC   D2A22168  22.852   1.735   8.269
 1587POPC   C3A22169  22.729   1.918   7.861
 1587POPC   C4A22170  22.826   2.341   7.715
 1587POPC   C1B22171  23.151   1.584   8.681
 1587POPC   C2B22172  23.356   1.649   8.314
 1587POPC   C3B22173  23.223   1.712   7.921
 1587POPC   C4B22174  23.206   2.032   7.607
 1588POPC   NC322175  35.326  15.102   9.417
 1588POPC   PO422176  35.004  15.618   9.310
 1588POPC   GL122177  35.387  15.513   9.076
 1588POPC   GL222178  35.359  15.168   8.912
 1588POPC   C1A22179  35.684  15.536   8.736
 1588POPC   D2A22180  35.634  15.236   8.416
 1588POPC   C3A22181  35.701  15.435   8.029
 1588POPC   C4A22182  35.377  15.461   7.759
 1588POPC   C1B22183  34.924  14.956   8.835
 1588POPC   C2B22184  34.742  14.816   8.438
 1588POPC   C3B22185  34.977  14.814   8.053
 1588POPC   C4B22186  35.322  14.932   7.769
 1589POPC   NC322187  36.450  32.765   9.811
 1589POPC   PO422188  37.031  32.731   9.501
 1589POPC   GL122189  36.996  33.050   9.203
 1589POPC   GL222190  36.634  33.039   9.217
 1589POPC   C1A22191  37.015  33.207   8.774
 1589POPC   D2A22192  37.016  32.949   8.396
 1589POPC   C3A22193  37.191  33.113   8.023
 1589POPC   C4A22194  36.939  33.290   7.720
 1589POPC   C1B22195  36.554  32.962   8.786
 1589POPC   C2B22196  36.372  32.966   8.382
 1589POPC   C3B22197  36.576  32.992   7.980
 1589POPC   C4B22198  36.550  32.704   7.621
 1590POPC   NC322199  12.470  14.720   9.525
 1590POPC   PO422200  13.145  14.829   9.493
 1590POPC   GL122201  12.921  15.072   9.193
 1590POPC   GL222202  12.598  15.133   9.221
 1590POPC   C1A22203  13.013  15.187   8.782
 1590POPC   D2A22204  13.007  15.071   8.393
 1590POPC   C3A22205  13.133  15.384   8.116
 1590POPC   C4A22206  12.960  15.190   7.788
 1590POPC   C1B22207  12.503  15.132   8.805
 1590POPC   C2B22208  12.505  14.951   8.425
 1590POPC   C3B22209  12.363  14.996   8.020
 1590POPC   C4B22210  12.452  15.120   7.644
 1591POPC   NC322211   0.013  33.416   9.416
 1591POPC   PO422212  44.435  33.155   9.557
 1591POPC   GL122213  44.447  33.020   9.140
 1591POPC   GL222214  44.796  33.088   9.086
 1591POPC   C1A22215  44.506  32.918   8.687
 1591POPC   D2A22216  44.512  32.871   8.244
 1591POPC   C3A22217  44.448  33.043   7.849
 1591POPC   C4A22218  44.500  32.793   7.506
 1591POPC   C1B22219  45.000  32.807   8.794
 1591POPC   C2B22220   0.077  32.947   8.363
 1591POPC   C3B22221  44.939  32.938   7.935
 1591POPC   C4B22222  44.888  33.102   7.511
 1592POPC   NC322223  37.874   7.313   9.409
 1592POPC   PO422224  38.138   7.958   9.492
 1592POPC   GL122225  37.846   7.786   9.169
 1592POPC   GL222226  37.503   7.657   9.284
 1592POPC   C1A22227  37.827   7.558   8.775
 1592POPC   D2A22228  37.874   7.711   8.344
 1592POPC   C3A22229  37.832   7.450   7.993
 1592POPC   C4A22230  37.988   7.091   7.786
 1592POPC   C1B22231  37.327   7.613   8.869
 1592POPC   C2B22232  37.417   7.439   8.457
 1592POPC   C3B22233  37.315   7.454   8.024
 1592POPC   C4B22234  37.412   7.792   7.729
 1593POPC   NC322235  44.187  38.970   9.569
 1593POPC   PO422236  44.300  39.578   9.649
 1593POPC   GL122237  44.094  39.313   9.239
 1593POPC   GL222238  43.825  39.397   9.045
 1593POPC   C1A22239  44.123  39.055   8.823
 1593POPC   D2A22240  43.920  39.198   8.426
 1593POPC   C3A22241  44.063  39.013   8.029
 1593POPC   C4A22242  43.940  39.116   7.604
 1593POPC   C1B22243  43.616  39.010   8.860
 1593POPC   C2B22244  43.460  38.953   8.460
 1593POPC   C3B22245  43.552  39.060   8.035
 1593POPC   C4B22246  43.568  38.748   7.757
 1594POPC   NC322247  29.851  18.245   9.527
 1594POPC   PO422248  30.346  18.385   9.184
 1594POPC   GL122249  29.930  18.366   9.050
 1594POPC   GL222250  29.628  18.601   9.096
 1594POPC   C1A22251  29.979  18.222   8.661
 1594POPC   D2A22252  29.776  18.050   8.355
 1594POPC   C3A22253  30.033  18.145   8.055
 1594POPC   C4A22254  30.168  18.451   7.805
 1594POPC   C1B22255  29.869  18.729   8.719
 1594POPC   C2B22256  30.097  18.590   8.338
 1594POPC   C3B22257  29.751  18.566   8.063
 1594POPC   C4B22258  29.731  18.639   7.612
 1595POPC   NC322259  10.336   7.562   9.633
 1595POPC   PO422260  10.825   7.179   9.529
 1595POPC   GL122261  10.512   7.250   9.207
 1595POPC   GL222262  10.481   7.595   9.151
 1595POPC   C1A22263  10.593   7.211   8.767
 1595POPC   D2A22264  10.471   7.136   8.395
 1595POPC   C3A22265  10.700   7.151   8.044
 1595POPC   C4A22266  10.461   7.226   7.710
 1595POPC   C1B22267  10.595   7.720   8.777
 1595POPC   C2B22268  10.752   7.600   8.391
 1595POPC   C3B22269  10.551   7.633   8.027
 1595POPC   C4B22270  10.507   7.816   7.650
 1596POPC   NC322271  36.761   2.386   9.657
 1596POPC   PO422272  37.130   2.954   9.521
 1596POPC   GL122273  36.993   2.794   9.147
 1596POPC   GL222274  36.648   2.717   9.253
 1596POPC   C1A22275  37.079   2.883   8.712
 1596POPC   D2A22276  36.928   2.678   8.352
 1596POPC   C3A22277  37.126   2.747   7.992
 1596POPC   C4A22278  36.951   2.707   7.573
 1596POPC   C1B22279  36.556   2.900   8.845
 1596POPC   C2B22280  36.514   2.977   8.392
 1596POPC   C3B22281  36.629   2.904   7.935
 1596POPC   C4B22282  36.614   3.063   7.462
 1597POPC   NC322283   7.921   7.187   9.476
 1597POPC   PO422284   8.404   7.734   9.401
 1597POPC   GL122285   8.037   7.581   9.171
 1597POPC   GL222286   8.243   7.293   9.104
 1597POPC   C1A22287   7.861   7.465   8.760
 1597POPC   D2A22288   8.052   7.439   8.360
 1597POPC   C3A22289   7.980   7.255   7.968
 1597POPC   C4A22290   7.905   7.491   7.584
 1597POPC   C1B22291   8.364   7.576   8.767
 1597POPC   C2B22292   8.546   7.493   8.389
 1597POPC   C3B22293   8.419   7.565   7.984
 1597POPC   C4B22294   8.402   7.317   7.642
 1598POPC   NC322295  43.746   8.089   9.665
 1598POPC   PO422296  44.207   8.455   9.796
 1598POPC   GL122297  44.023   8.231   9.276
 1598POPC   GL222298  43.712   8.347   9.213
 1598POPC   C1A22299  44.056   8.240   8.794
 1598POPC   D2A22300  43.924   8.364   8.367
 1598POPC   C3A22301  43.864   8.007   8.078
 1598POPC   C4A22302  43.969   7.881   7.657
 1598POPC   C1B22303  43.554   8.345   8.807
 1598POPC   C2B22304  43.422   8.542   8.423
 1598POPC   C3B22305  43.562   8.580   8.016
 1598POPC   C4B22306  43.857   8.403   7.736
 1599POPC   NC322307  14.067   0.655   9.469
 1599POPC   PO422308  14.651   0.339   9.495
 1599POPC   GL122309  14.512   0.197   9.121
 1599POPC   GL222310  14.379   0.530   9.052
 1599POPC   C1A22311  14.645   0.240   8.684
 1599POPC   D2A22312  14.761   0.443   8.270
 1599POPC   C3A22313  14.496   0.373   7.883
 1599POPC   C4A22314  14.529   0.196   7.440
 1599POPC   C1B22315  14.453   0.720   8.636
 1599POPC   C2B22316  14.714   0.962   8.349
 1599POPC   C3B22317  14.705   0.897   7.941
 1599POPC   C4B22318  14.970   0.559   7.797
 1600POPC   NC322319   8.446  15.567   9.213
 1600POPC   PO422320   8.001  16.033   9.577
 1600POPC   GL122321   8.138  16.000   9.144
 1600POPC   GL222322   8.362  16.225   8.997
 1600POPC   C1A22323   7.982  16.032   8.729
 1600POPC   D2A22324   7.920  15.808   8.370
 1600POPC   C3A22325   7.851  15.956   7.977
 1600POPC   C4A22326   7.961  15.772   7.590
 1600POPC   C1B22327   8.462  16.149   8.594
 1600POPC   C2B22328   8.191  16.236   8.257
 1600POPC   C3B22329   8.277  16.191   7.839
 1600POPC   C4B22330   8.635  16.006   7.650
 1601POPC   NC322331  16.159   4.489   9.861
 1601POPC   PO422332  15.751   3.993   9.577
 1601POPC   GL122333  15.786   4.048   9.154
 1601POPC   GL222334  16.042   4.311   9.156
 1601POPC   C1A22335  15.831   4.177   8.724
 1601POPC   D2A22336  16.210   4.209   8.468
 1601POPC   C3A22337  16.137   4.055   8.062
 1601POPC   C4A22338  15.888   4.211   7.677
 1601POPC   C1B22339  16.144   4.618   8.824
 1601POPC   C2B22340  16.329   4.736   8.435
 1601POPC   C3B22341  16.200   4.575   8.057
 1601POPC   C4B22342  16.147   4.641   7.647
 1602POPC   NC322343  11.523  17.849   9.564
 1602POPC   PO422344  11.652  17.190   9.433
 1602POPC   GL122345  11.384  17.388   9.111
 1602POPC   GL222346  11.200  17.693   9.189
 1602POPC   C1A22347  11.372  17.387   8.663
 1602POPC   D2A22348  11.501  17.464   8.253
 1602POPC   C3A22349  11.322  17.261   7.923
 1602POPC   C4A22350  11.418  17.216   7.479
 1602POPC   C1B22351  10.980  17.699   8.812
 1602POPC   C2B22352  11.144  17.814   8.421
 1602POPC   C3B22353  11.066  17.692   7.999
 1602POPC   C4B22354  11.132  17.661   7.560
 1603POPC   NC322355  33.621  13.691   9.518
 1603POPC   PO422356  34.260  13.302   9.506
 1603POPC   GL122357  33.933  13.305   9.206
 1603POPC   GL222358  33.887  13.669   9.105
 1603POPC   C1A22359  33.638  13.315   8.876
 1603POPC   D2A22360  33.610  13.621   8.551
 1603POPC   C3A22361  33.623  13.509   8.120
 1603POPC   C4A22362  33.830  13.590   7.792
 1603POPC   C1B22363  34.002  13.862   8.757
 1603POPC   C2B22364  34.007  14.058   8.393
 1603POPC   C3B22365  33.787  14.031   8.042
 1603POPC   C4B22366  33.988  14.064   7.629
 1604POPC   NC322367  44.043  35.076   9.513
 1604POPC   PO422368  43.452  35.331   9.501
 1604POPC   GL122369  43.634  35.275   9.106
 1604POPC   GL222370  43.978  35.425   9.120
 1604POPC   C1A22371  43.714  35.464   8.695
 1604POPC   D2A22372  44.099  35.549   8.504
 1604POPC   C3A22373  43.959  35.489   8.101
 1604POPC   C4A22374  43.762  35.757   7.776
 1604POPC   C1B22375  44.062  35.089   8.828
 1604POPC   C2B22376  43.890  35.037   8.428
 1604POPC   C3B22377  44.012  34.997   8.011
 1604POPC   C4B22378  43.900  35.259   7.653
 1605POPC   NC322379  21.576   0.335   9.552
 1605POPC   PO422380  21.123   0.695   9.309
 1605POPC   GL122381  21.501   0.542   9.109
 1605POPC   GL222382  21.357   0.221   9.109
 1605POPC   C1A22383  21.676   0.333   8.732
 1605POPC   D2A22384  21.918   0.355   8.340
 1605POPC   C3A22385  21.699   0.418   7.929
 1605POPC   C4A22386  21.631   0.618   7.488
 1605POPC   C1B22387  21.185   0.448   8.734
 1605POPC   C2B22388  21.317   0.394   8.372
 1605POPC   C3B22389  21.204   0.568   8.062
 1605POPC   C4B22390  21.243   0.392   7.701
 1606POPC   NC322391   1.530  32.844   9.330
 1606POPC   PO422392   0.819  32.771   9.424
 1606POPC   GL122393   1.062  33.070   9.198
 1606POPC   GL222394   0.826  33.186   8.977
 1606POPC   C1A22395   1.341  33.213   8.842
 1606POPC   D2A22396   1.474  32.857   8.569
 1606POPC   C3A22397   1.258  32.739   8.187
 1606POPC   C4A22398   1.444  32.939   7.831
 1606POPC   C1B22399   0.985  32.901   8.695
 1606POPC   C2B22400   1.116  33.198   8.378
 1606POPC   C3B22401   1.027  33.213   7.966
 1606POPC   C4B22402   0.920  32.872   7.745
 1607POPC   NC322403  12.181   6.057   9.460
 1607POPC   PO422404  11.670   5.516   9.594
 1607POPC   GL122405  11.954   5.703   9.190
 1607POPC   GL222406  12.240   5.904   8.986
 1607POPC   C1A22407  11.968   5.571   8.728
 1607POPC   D2A22408  12.109   5.950   8.449
 1607POPC   C3A22409  11.986   5.986   8.019
 1607POPC   C4A22410  11.816   5.670   7.754
 1607POPC   C1B22411  12.446   5.644   8.656
 1607POPC   C2B22412  12.314   5.462   8.274
 1607POPC   C3B22413  12.313   5.570   7.852
 1607POPC   C4B22414  12.285   5.913   7.579
 1608POPC   NC322415  22.804  23.274   9.538
 1608POPC   PO422416  22.643  22.583   9.333
 1608POPC   GL122417  22.845  22.956   9.114
 1608POPC   GL222418  23.205  22.909   9.045
 1608POPC   C1A22419  22.899  23.020   8.646
 1608POPC   D2A22420  22.824  23.194   8.236
 1608POPC   C3A22421  22.894  22.884   7.912
 1608POPC   C4A22422  23.093  22.886   7.528
 1608POPC   C1B22423  23.372  23.194   8.713
 1608POPC   C2B22424  23.355  23.155   8.255
 1608POPC   C3B22425  23.192  23.321   7.869
 1608POPC   C4B22426  23.251  23.349   7.374
 1609POPC   NC322427  34.928   0.679   9.684
 1609POPC   PO422428  34.882   0.056   9.614
 1609POPC   GL122429  34.746   0.363   9.306
 1609POPC   GL222430  34.484   0.239   9.088
 1609POPC   C1A22431  34.798   0.620   8.928
 1609POPC   D2A22432  34.642   0.447   8.554
 1609POPC   C3A22433  34.773   0.507   8.108
 1609POPC   C4A22434  34.570   0.680   7.738
 1609POPC   C1B22435  34.223   0.524   8.852
 1609POPC   C2B22436  34.231   0.698   8.463
 1609POPC   C3B22437  34.258   0.526   8.112
 1609POPC   C4B22438  34.056   0.579   7.749
 1610POPC   NC322439  24.123  22.507   9.335
 1610POPC   PO422440  24.427  21.889   9.488
 1610POPC   GL122441  24.436  22.159   9.118
 1610POPC   GL222442  24.791  22.265   9.087
 1610POPC   C1A22443  24.349  22.313   8.702
 1610POPC   D2A22444  24.543  22.429   8.294
 1610POPC   C3A22445  24.325  22.245   7.939
 1610POPC   C4A22446  24.428  22.136   7.507
 1610POPC   C1B22447  24.778  22.050   8.681
 1610POPC   C2B22448  24.645  21.925   8.247
 1610POPC   C3B22449  24.810  22.015   7.832
 1610POPC   C4B22450  24.874  21.950   7.387
 1611POPC   NC322451  39.414  40.428   9.423
 1611POPC   PO422452  39.709  40.907   9.061
 1611POPC   GL122453  39.327  40.717   8.986
 1611POPC   GL222454  39.074  40.830   9.199
 1611POPC   C1A22455  39.199  40.705   8.561
 1611POPC   D2A22456  39.320  41.026   8.320
 1611POPC   C3A22457  39.522  40.871   7.985
 1611POPC   C4A22458  39.488  40.593   7.648
 1611POPC   C1B22459  38.845  41.007   8.855
 1611POPC   C2B22460  38.794  40.992   8.402
 1611POPC   C3B22461  38.975  40.848   7.990
 1611POPC   C4B22462  38.762  40.946   7.632
 1612POPC   NC322463  43.888  17.187   9.517
 1612POPC   PO422464  44.051  16.531   9.470
 1612POPC   GL122465  43.904  16.592   9.119
 1612POPC   GL222466  43.788  16.925   9.097
 1612POPC   C1A22467  43.791  16.573   8.721
 1612POPC   D2A22468  43.863  16.838   8.394
 1612POPC   C3A22469  43.921  16.571   8.069
 1612POPC   C4A22470  43.975  16.653   7.698
 1612POPC   C1B22471  43.503  17.015   8.750
 1612POPC   C2B22472  43.336  16.929   8.332
 1612POPC   C3B22473  43.602  16.971   7.949
 1612POPC   C4B22474  43.594  16.940   7.520
 1613POPC   NC322475   0.152  38.705   9.583
 1613POPC   PO422476   0.360  39.380   9.578
 1613POPC   GL122477   0.362  39.060   9.204
 1613POPC   GL222478   0.681  39.118   9.015
 1613POPC   C1A22479   0.283  39.142   8.734
 1613POPC   D2A22480   0.589  39.315   8.457
 1613POPC   C3A22481   0.510  39.540   8.092
 1613POPC   C4A22482   0.415  39.296   7.775
 1613POPC   C1B22483   1.023  39.156   8.683
 1613POPC   C2B22484   1.177  38.898   8.335
 1613POPC   C3B22485   0.904  38.732   8.030
 1613POPC   C4B22486   0.692  38.852   7.666
 1614POPC   NC322487  13.731  16.172   9.353
 1614POPC   PO422488  13.655  15.547   9.557
 1614POPC   GL122489  13.553  15.747   9.157
 1614POPC   GL222490  13.294  16.047   9.099
 1614POPC   C1A22491  13.654  15.950   8.750
 1614POPC   D2A22492  13.559  16.113   8.382
 1614POPC   C3A22493  13.561  15.724   8.184
 1614POPC   C4A22494  13.513  15.871   7.804
 1614POPC   C1B22495  13.141  15.885   8.658
 1614POPC   C2B22496  13.102  15.942   8.178
 1614POPC   C3B22497  13.232  16.281   7.880
 1614POPC   C4B22498  13.444  16.263   7.457
 1615POPC   NC322499  23.817   4.723   9.442
 1615POPC   PO422500  23.401   4.135   9.556
 1615POPC   GL122501  23.562   4.373   9.168
 1615POPC   GL222502  23.955   4.356   9.059
 1615POPC   C1A22503  23.596   4.520   8.750
 1615POPC   D2A22504  23.932   4.385   8.464
 1615POPC   C3A22505  23.839   4.447   8.022
 1615POPC   C4A22506  23.507   4.467   7.696
 1615POPC   C1B22507  23.726   4.007   8.814
 1615POPC   C2B22508  23.745   3.796   8.409
 1615POPC   C3B22509  23.647   3.954   7.990
 1615POPC   C4B22510  23.880   4.076   7.634
 1616POPC   NC322511  41.335  25.374   9.582
 1616POPC   PO422512  41.827  25.735   9.458
 1616POPC   GL122513  41.688  25.363   9.183
 1616POPC   GL222514  41.374  25.146   9.126
 1616POPC   C1A22515  41.588  25.424   8.749
 1616POPC   D2A22516  41.750  25.412   8.350
 1616POPC   C3A22517  41.490  25.608   8.074
 1616POPC   C4A22518  41.543  25.535   7.691
 1616POPC   C1B22519  41.164  25.145   8.731
 1616POPC   C2B22520  41.231  25.230   8.304
 1616POPC   C3B22521  41.534  25.101   7.960
 1616POPC   C4B22522  41.593  24.875   7.548
 1617POPC   NC322523  28.763  37.963   9.465
 1617POPC   PO422524  28.212  37.470   9.365
 1617POPC   GL122525  28.379  37.798   9.123
 1617POPC   GL222526  28.686  37.588   9.129
 1617POPC   C1A22527  28.321  37.944   8.690
 1617POPC   D2A22528  28.051  37.893   8.325
 1617POPC   C3A22529  28.197  37.613   8.033
 1617POPC   C4A22530  28.548  37.730   7.789
 1617POPC   C1B22531  28.614  37.471   8.721
 1617POPC   C2B22532  28.626  37.570   8.301
 1617POPC   C3B22533  28.608  37.268   7.965
 1617POPC   C4B22534  28.823  37.380   7.544
 1618POPC   NC322535  38.639   3.208   9.659
 1618POPC   PO422536  38.470   3.875   9.533
 1618POPC   GL122537  38.578   3.486   9.241
 1618POPC   GL222538  38.902   3.454   9.085
 1618POPC   C1A22539  38.423   3.292   8.844
 1618POPC   D2A22540  38.571   3.342   8.415
 1618POPC   C3A22541  38.227   3.387   8.118
 1618POPC   C4A22542  38.254   3.276   7.696
 1618POPC   C1B22543  38.616   3.778   8.832
 1618POPC   C2B22544  38.476   3.861   8.413
 1618POPC   C3B22545  38.583   3.733   8.024
 1618POPC   C4B22546  38.299   3.809   7.746
 1619POPC   NC322547  44.222  40.680   9.468
 1619POPC   PO422548  44.830  41.033   9.481
 1619POPC   GL122549  44.862  40.790   9.122
 1619POPC   GL222550  44.520  40.810   9.070
 1619POPC   C1A22551  44.921  40.906   8.737
 1619POPC   D2A22552  44.632  40.815   8.433
 1619POPC   C3A22553  44.791  41.006   8.088
 1619POPC   C4A22554  44.700  40.895   7.669
 1619POPC   C1B22555  44.284  41.034   8.790
 1619POPC   C2B22556  44.115  40.909   8.418
 1619POPC   C3B22557  44.303  40.851   8.019
 1619POPC   C4B22558  44.303  40.592   7.698
 1620POPC   NC322559  11.361   2.409   9.320
 1620POPC   PO422560  11.065   3.070   9.444
 1620POPC   GL122561  11.163   2.848   9.089
 1620POPC   GL222562  10.987   2.555   8.960
 1620POPC   C1A22563  11.318   2.913   8.697
 1620POPC   D2A22564  11.160   3.082   8.319
 1620POPC   C3A22565  10.902   2.853   8.064
 1620POPC   C4A22566  11.077   2.813   7.693
 1620POPC   C1B22567  11.203   2.406   8.629
 1620POPC   C2B22568  11.149   2.413   8.199
 1620POPC   C3B22569  11.438   2.491   7.865
 1620POPC   C4B22570  11.426   2.598   7.359
 1621POPC   NC322571  20.748  20.976   9.812
 1621POPC   PO422572  20.402  20.439   9.473
 1621POPC   GL122573  20.580  20.562   9.057
 1621POPC   GL222574  20.392  20.809   8.987
 1621POPC   C1A22575  20.835  20.789   8.714
 1621POPC   D2A22576  21.044  20.877   8.313
 1621POPC   C3A22577  20.805  20.666   8.007
 1621POPC   C4A22578  20.811  20.211   7.895
 1621POPC   C1B22579  20.275  20.510   8.652
 1621POPC   C2B22580  20.403  20.281   8.255
 1621POPC   C3B22581  20.360  20.410   7.817
 1621POPC   C4B22582  20.380  20.845   7.727
 1622POPC   NC322583  28.963  16.478   9.532
 1622POPC   PO422584  29.449  16.858   9.774
 1622POPC   GL122585  29.368  16.683   9.296
 1622POPC   GL222586  29.323  16.361   9.141
 1622POPC   C1A22587  29.283  16.797   8.833
 1622POPC   D2A22588  29.436  16.886   8.426
 1622POPC   C3A22589  29.099  16.900   8.163
 1622POPC   C4A22590  29.172  16.759   7.783
 1622POPC   C1B22591  29.489  16.359   8.716
 1622POPC   C2B22592  29.296  16.410   8.287
 1622POPC   C3B22593  29.465  16.316   7.875
 1622POPC   C4B22594  29.628  16.568   7.532
 1623POPC   NC322595   1.648  37.700   9.648
 1623POPC   PO422596   2.283  37.855   9.439
 1623POPC   GL122597   1.938  37.721   9.222
 1623POPC   GL222598   1.729  38.035   9.277
 1623POPC   C1A22599   1.937  37.447   8.851
 1623POPC   D2A22600   2.196  37.457   8.476
 1623POPC   C3A22601   1.986  37.602   8.100
 1623POPC   C4A22602   2.004  37.978   7.839
 1623POPC   C1B22603   1.656  37.891   8.850
 1623POPC   C2B22604   1.831  37.903   8.480
 1623POPC   C3B22605   1.577  37.901   8.140
 1623POPC   C4B22606   1.407  38.115   7.780
 1624POPC   NC322607  40.918  22.623   9.403
 1624POPC   PO422608  40.617  22.032   9.217
 1624POPC   GL122609  40.964  22.246   9.069
 1624POPC   GL222610  40.667  22.488   8.980
 1624POPC   C1A22611  41.084  22.487   8.714
 1624POPC   D2A22612  40.843  22.532   8.312
 1624POPC   C3A22613  40.846  22.137   8.049
 1624POPC   C4A22614  41.067  22.044   7.653
 1624POPC   C1B22615  40.307  22.339   8.709
 1624POPC   C2B22616  40.227  22.130   8.321
 1624POPC   C3B22617  40.347  22.225   7.920
 1624POPC   C4B22618  40.580  21.941   7.648
 1625POPC   NC322619  25.421  27.398   9.532
 1625POPC   PO422620  24.936  27.858   9.561
 1625POPC   GL122621  25.085  27.622   9.195
 1625POPC   GL222622  24.911  27.899   9.041
 1625POPC   C1A22623  25.436  27.541   8.846
 1625POPC   D2A22624  25.462  27.316   8.442
 1625POPC   C3A22625  25.480  27.494   8.020
 1625POPC   C4A22626  25.398  27.931   7.856
 1625POPC   C1B22627  24.980  27.681   8.681
 1625POPC   C2B22628  25.138  27.738   8.289
 1625POPC   C3B22629  24.963  27.655   7.882
 1625POPC   C4B22630  24.976  27.986   7.550
 1626POPC   NC322631  21.459  43.562   9.454
 1626POPC   PO422632  21.008  44.041   9.595
 1626POPC   GL122633  21.200  43.929   9.151
 1626POPC   GL222634  21.182  43.563   9.020
 1626POPC   C1A22635  21.480  43.912   8.782
 1626POPC   D2A22636  21.360  44.042   8.381
 1626POPC   C3A22637  21.585  44.020   7.994
 1626POPC   C4A22638  21.230  43.955   7.745
 1626POPC   C1B22639  21.093  43.628   8.591
 1626POPC   C2B22640  21.376  43.529   8.257
 1626POPC   C3B22641  21.406  43.508   7.824
 1626POPC   C4B22642  21.200  43.553   7.413
 1627POPC   NC322643  30.024   1.482   9.492
 1627POPC   PO422644  30.086   0.798   9.316
 1627POPC   GL122645  29.910   1.158   9.130
 1627POPC   GL222646  29.569   1.224   9.229
 1627POPC   C1A22647  29.994   1.232   8.732
 1627POPC   D2A22648  29.977   0.921   8.423
 1627POPC   C3A22649  29.966   1.064   8.028
 1627POPC   C4A22650  29.926   1.396   7.695
 1627POPC   C1B22651  29.511   1.039   8.824
 1627POPC   C2B22652  29.575   1.259   8.428
 1627POPC   C3B22653  29.484   1.150   8.031
 1627POPC   C4B22654  29.489   1.005   7.650
 1628POPC   NC322655  39.157  23.887   9.565
 1628POPC   PO422656  39.521  23.316   9.448
 1628POPC   GL122657  39.436  23.701   9.193
 1628POPC   GL222658  39.141  23.522   9.160
 1628POPC   C1A22659  39.208  23.861   8.811
 1628POPC   D2A22660  39.001  23.919   8.435
 1628POPC   C3A22661  39.282  24.072   8.125
 1628POPC   C4A22662  39.126  23.955   7.748
 1628POPC   C1B22663  39.468  23.409   8.803
 1628POPC   C2B22664  39.718  23.553   8.470
 1628POPC   C3B22665  39.613  23.692   8.069
 1628POPC   C4B22666  39.523  23.683   7.642
 1629POPC   NC322667  10.009  44.959   9.493
 1629POPC   PO422668   9.830  44.316   9.636
 1629POPC   GL122669   9.690  44.590   9.292
 1629POPC   GL222670   9.318  44.602   9.260
 1629POPC   C1A22671   9.871  44.746   8.888
 1629POPC   D2A22672  10.118  44.776   8.506
 1629POPC   C3A22673   9.823  44.829   8.164
 1629POPC   C4A22674   9.741  44.688   7.766
 1629POPC   C1B22675   9.469  44.404   8.871
 1629POPC   C2B22676   9.479  44.601   8.477
 1629POPC   C3B22677   9.316  44.625   8.056
 1629POPC   C4B22678   9.320  44.437   7.637
 1630POPC   NC322679   6.869  27.625   9.477
 1630POPC   PO422680   6.148  27.544   9.629
 1630POPC   GL122681   6.311  27.516   9.192
 1630POPC   GL222682   6.504  27.835   9.152
 1630POPC   C1A22683   6.337  27.557   8.712
 1630POPC   D2A22684   6.411  27.832   8.326
 1630POPC   C3A22685   6.526  27.590   7.951
 1630POPC   C4A22686   6.697  27.169   7.816
 1630POPC   C1B22687   6.828  27.673   8.855
 1630POPC   C2B22688   6.847  27.578   8.460
 1630POPC   C3B22689   7.015  27.396   8.130
 1630POPC   C4B22690   7.054  27.537   7.744
 1631POPC   NC322691   4.569   1.542   9.423
 1631POPC   PO422692   4.591   2.204   9.372
 1631POPC   GL122693   4.294   2.072   9.047
 1631POPC   GL222694   4.187   1.733   9.087
 1631POPC   C1A22695   4.423   1.949   8.650
 1631POPC   D2A22696   4.571   1.805   8.269
 1631POPC   C3A22697   4.559   2.105   7.967
 1631POPC   C4A22698   4.429   2.279   7.632
 1631POPC   C1B22699   3.957   1.723   8.683
 1631POPC   C2B22700   4.024   1.843   8.267
 1631POPC   C3B22701   4.049   1.759   7.832
 1631POPC   C4B22702   4.231   1.866   7.431
 1632POPC   NC322703  32.920   9.949   9.613
 1632POPC   PO422704  33.016  10.482   9.259
 1632POPC   GL122705  33.262  10.513   8.978
 1632POPC   GL222706  33.548  10.714   9.049
 1632POPC   C1A22707  33.052  10.489   8.618
 1632POPC   D2A22708  32.681  10.526   8.401
 1632POPC   C3A22709  32.874  10.497   8.003
 1632POPC   C4A22710  33.082  10.596   7.618
 1632POPC   C1B22711  33.365  10.915   8.698
 1632POPC   C2B22712  33.188  10.871   8.299
 1632POPC   C3B22713  33.394  10.866   7.916
 1632POPC   C4B22714  33.369  11.149   7.616
 1633POPC   NC322715  28.188  20.327   9.537
 1633POPC   PO422716  28.302  20.991   9.412
 1633POPC   GL122717  28.446  20.742   9.149
 1633POPC   GL222718  28.139  20.605   9.117
 1633POPC   C1A22719  28.486  20.686   8.726
 1633POPC   D2A22720  28.453  20.953   8.372
 1633POPC   C3A22721  28.304  20.717   8.009
 1633POPC   C4A22722  28.372  20.597   7.581
 1633POPC   C1B22723  28.030  20.894   8.812
 1633POPC   C2B22724  27.993  20.711   8.426
 1633POPC   C3B22725  27.789  20.748   8.024
 1633POPC   C4B22726  27.859  20.453   7.681
 1634POPC   NC322727  11.085  27.836   9.413
 1634POPC   PO422728  11.610  27.394   9.617
 1634POPC   GL122729  11.413  27.497   9.175
 1634POPC   GL222730  11.032  27.465   9.073
 1634POPC   C1A22731  11.358  27.631   8.710
 1634POPC   D2A22732  11.159  27.609   8.271
 1634POPC   C3A22733  11.400  27.323   8.000
 1634POPC   C4A22734  11.483  27.324   7.555
 1634POPC   C1B22735  10.867  27.788   8.750
 1634POPC   C2B22736  10.733  28.027   8.364
 1634POPC   C3B22737  10.781  27.889   7.922
 1634POPC   C4B22738  11.075  27.612   7.704
 1635POPC   NC322739  22.806  32.953   9.621
 1635POPC   PO422740  22.887  33.647   9.600
 1635POPC   GL122741  22.937  33.326   9.189
 1635POPC   GL222742  22.934  32.939   9.140
 1635POPC   C1A22743  23.043  33.246   8.734
 1635POPC   D2A22744  22.989  32.941   8.374
 1635POPC   C3A22745  23.018  33.051   7.919
 1635POPC   C4A22746  22.947  32.729   7.612
 1635POPC   C1B22747  22.582  33.003   8.890
 1635POPC   C2B22748  22.471  32.916   8.493
 1635POPC   C3B22749  22.553  32.830   8.074
 1635POPC   C4B22750  22.535  32.998   7.723
 1636POPC   NC322751   8.955  12.606   9.708
 1636POPC   PO422752   9.088  11.906   9.524
 1636POPC   GL122753   9.182  12.071   9.167
 1636POPC   GL222754   9.431  12.301   9.261
 1636POPC   C1A22755   9.158  11.913   8.751
 1636POPC   D2A22756   8.926  11.772   8.399
 1636POPC   C3A22757   8.763  12.020   8.040
 1636POPC   C4A22758   8.806  11.893   7.603
 1636POPC   C1B22759   9.417  12.349   8.779
 1636POPC   C2B22760   9.163  12.261   8.354
 1636POPC   C3B22761   9.234  12.152   7.892
 1636POPC   C4B22762   9.105  12.314   7.485
 1637POPC   NC322763   0.552  21.041   9.709
 1637POPC   PO422764   0.288  21.674   9.575
 1637POPC   GL122765   0.382  21.482   9.179
 1637POPC   GL222766   0.455  21.142   9.199
 1637POPC   C1A22767   0.238  21.375   8.737
 1637POPC   D2A22768   0.112  21.529   8.310
 1637POPC   C3A22769   0.306  21.403   7.897
 1637POPC   C4A22770   0.594  21.617   7.587
 1637POPC   C1B22771   0.734  21.286   8.849
 1637POPC   C2B22772   0.754  21.134   8.439
 1637POPC   C3B22773   0.947  21.067   8.049
 1637POPC   C4B22774   0.680  21.105   7.714
 1638POPC   NC322775   7.667   9.474   9.514
 1638POPC   PO422776   7.112   9.756   9.671
 1638POPC   GL122777   7.342   9.814   9.253
 1638POPC   GL222778   7.437   9.506   9.047
 1638POPC   C1A22779   7.420   9.943   8.793
 1638POPC   D2A22780   7.380   9.738   8.372
 1638POPC   C3A22781   7.432  10.048   8.067
 1638POPC   C4A22782   7.589   9.986   7.691
 1638POPC   C1B22783   7.742   9.557   8.685
 1638POPC   C2B22784   7.739   9.350   8.302
 1638POPC   C3B22785   7.603   9.466   7.917
 1638POPC   C4B22786   7.890   9.529   7.612
 1639POPC   NC322787  33.157  11.663   9.427
 1639POPC   PO422788  33.145  12.350   9.529
 1639POPC   GL122789  33.015  12.130   9.176
 1639POPC   GL222790  32.690  11.983   9.240
 1639POPC   C1A22791  33.191  12.070   8.765
 1639POPC   D2A22792  33.352  12.291   8.405
 1639POPC   C3A22793  33.159  12.222   8.014
 1639POPC   C4A22794  33.107  11.860   7.856
 1639POPC   C1B22795  32.718  11.874   8.802
 1639POPC   C2B22796  32.823  12.049   8.389
 1639POPC   C3B22797  32.651  12.159   7.983
 1639POPC   C4B22798  32.645  11.839   7.668
 1640POPC   NC322799  26.263   3.440   9.494
 1640POPC   PO422800  25.562   3.214   9.420
 1640POPC   GL122801  25.706   3.550   9.099
 1640POPC   GL222802  26.053   3.575   9.064
 1640POPC   C1A22803  25.776   3.686   8.657
 1640POPC   D2A22804  25.976   3.435   8.324
 1640POPC   C3A22805  25.807   3.522   7.929
 1640POPC   C4A22806  25.816   3.932   7.749
 1640POPC   C1B22807  26.280   3.627   8.695
 1640POPC   C2B22808  26.218   3.894   8.317
 1640POPC   C3B22809  26.312   3.726   7.922
 1640POPC   C4B22810  26.144   3.537   7.534
 1641POPC   NC322811  38.309   2.611   9.635
 1641POPC   PO422812  38.765   2.972   9.297
 1641POPC   GL122813  38.576   2.804   9.010
 1641POPC   GL222814  38.260   2.808   9.104
 1641POPC   C1A22815  38.588   2.834   8.606
 1641POPC   D2A22816  38.494   2.590   8.287
 1641POPC   C3A22817  38.463   2.934   8.032
 1641POPC   C4A22818  38.733   3.259   7.909
 1641POPC   C1B22819  38.106   2.630   8.689
 1641POPC   C2B22820  38.015   2.409   8.281
 1641POPC   C3B22821  38.170   2.493   7.889
 1641POPC   C4B22822  38.542   2.583   7.694
 1642POPC   NC322823   7.870  32.336   9.530
 1642POPC   PO422824   8.539  32.181   9.654
 1642POPC   GL122825   8.326  32.299   9.276
 1642POPC   GL222826   8.494  32.035   9.148
 1642POPC   C1A22827   8.078  32.244   8.876
 1642POPC   D2A22828   8.103  32.127   8.432
 1642POPC   C3A22829   8.165  32.258   8.004
 1642POPC   C4A22830   8.039  31.977   7.649
 1642POPC   C1B22831   8.460  31.894   8.757
 1642POPC   C2B22832   8.625  32.077   8.408
 1642POPC   C3B22833   8.662  32.235   8.024
 1642POPC   C4B22834   8.540  32.062   7.665
 1643POPC   NC322835  26.760  23.941   9.362
 1643POPC   PO422836  27.277  23.619   9.649
 1643POPC   GL122837  27.057  23.515   9.150
 1643POPC   GL222838  27.168  23.732   8.836
 1643POPC   C1A22839  26.685  23.599   8.837
 1643POPC   D2A22840  26.752  23.977   8.622
 1643POPC   C3A22841  26.720  23.965   8.189
 1643POPC   C4A22842  26.756  23.941   7.781
 1643POPC   C1B22843  27.127  23.355   8.653
 1643POPC   C2B22844  26.833  23.473   8.336
 1643POPC   C3B22845  26.948  23.499   7.911
 1643POPC   C4B22846  27.017  23.557   7.470
 1644POPC   NC322847  32.947  29.530   9.438
 1644POPC   PO422848  33.107  28.951   9.745
 1644POPC   GL122849  33.060  29.080   9.229
 1644POPC   GL222850  33.360  29.297   9.125
 1644POPC   C1A22851  32.745  29.195   8.863
 1644POPC   D2A22852  32.703  29.469   8.477
 1644POPC   C3A22853  32.840  29.309   8.083
 1644POPC   C4A22854  33.000  28.983   7.787
 1644POPC   C1B22855  33.231  29.142   8.684
 1644POPC   C2B22856  33.334  29.128   8.232
 1644POPC   C3B22857  33.292  29.378   7.852
 1644POPC   C4B22858  33.135  29.291   7.402
 1645POPC   NC322859  35.001  34.724   9.341
 1645POPC   PO422860  35.530  34.312   9.419
 1645POPC   GL122861  35.279  34.390   9.097
 1645POPC   GL222862  35.404  34.770   9.029
 1645POPC   C1A22863  35.213  34.423   8.685
 1645POPC   D2A22864  35.390  34.751   8.435
 1645POPC   C3A22865  35.321  34.615   8.006
 1645POPC   C4A22866  35.223  34.741   7.586
 1645POPC   C1B22867  35.690  34.501   8.795
 1645POPC   C2B22868  35.680  34.341   8.385
 1645POPC   C3B22869  35.783  34.332   7.958
 1645POPC   C4B22870  35.532  34.350   7.600
 1646POPC   NC322871  30.501  12.327   9.393
 1646POPC   PO422872  29.882  12.355   9.546
 1646POPC   GL122873  29.947  12.245   9.116
 1646POPC   GL222874  30.158  12.065   9.073
 1646POPC   C1A22875  29.861  12.258   8.680
 1646POPC   D2A22876  29.908  12.523   8.302
 1646POPC   C3A22877  30.082  12.338   7.986
 1646POPC   C4A22878  29.802  12.074   7.785
 1646POPC   C1B22879  30.170  11.820   8.727
 1646POPC   C2B22880  30.147  11.988   8.339
 1646POPC   C3B22881  30.302  11.880   7.959
 1646POPC   C4B22882  30.257  12.009   7.533
 1647POPC   NC322883   8.652  18.968   9.600
 1647POPC   PO422884   9.166  19.052   9.155
 1647POPC   GL122885   8.902  18.811   8.978
 1647POPC   GL222886   8.602  18.914   9.089
 1647POPC   C1A22887   9.022  18.825   8.564
 1647POPC   D2A22888   9.217  19.198   8.399
 1647POPC   C3A22889   9.243  19.097   7.999
 1647POPC   C4A22890   9.130  19.122   7.598
 1647POPC   C1B22891   8.696  19.213   8.711
 1647POPC   C2B22892   8.721  19.129   8.263
 1647POPC   C3B22893   8.777  19.344   7.893
 1647POPC   C4B22894   8.731  19.353   7.411
 1648POPC   NC322895  36.210  15.116   9.497
 1648POPC   PO422896  35.602  15.481   9.525
 1648POPC   GL122897  35.922  15.440   9.178
 1648POPC   GL222898  35.862  15.102   9.066
 1648POPC   C1A22899  36.196  15.434   8.780
 1648POPC   D2A22900  36.124  15.309   8.333
 1648POPC   C3A22901  36.193  15.323   7.888
 1648POPC   C4A22902  35.974  15.604   7.614
 1648POPC   C1B22903  36.241  14.898   8.875
 1648POPC   C2B22904  36.437  14.970   8.517
 1648POPC   C3B22905  36.346  14.903   8.121
 1648POPC   C4B22906  36.227  14.832   7.709
 1649POPC   NC322907  24.649  37.577   9.412
 1649POPC   PO422908  24.262  38.107   9.482
 1649POPC   GL122909  24.283  37.824   9.102
 1649POPC   GL222910  24.395  37.482   8.974
 1649POPC   C1A22911  24.621  37.904   8.794
 1649POPC   D2A22912  24.698  38.101   8.399
 1649POPC   C3A22913  24.540  37.803   8.108
 1649POPC   C4A22914  24.395  37.648   7.736
 1649POPC   C1B22915  24.391  37.496   8.523
 1649POPC   C2B22916  24.520  37.238   8.171
 1649POPC   C3B22917  24.748  37.293   7.780
 1649POPC   C4B22918  24.642  37.368   7.350
 1650POPC   NC322919   2.893   3.953   9.330
 1650POPC   PO422920   2.776   3.293   9.644
 1650POPC   GL122921   2.753   3.463   9.232
 1650POPC   GL222922   2.469   3.675   9.161
 1650POPC   C1A22923   2.692   3.400   8.786
 1650POPC   D2A22924   2.878   3.610   8.449
 1650POPC   C3A22925   2.812   3.332   8.109
 1650POPC   C4A22926   2.554   3.374   7.811
 1650POPC   C1B22927   2.577   3.890   8.767
 1650POPC   C2B22928   2.578   4.056   8.371
 1650POPC   C3B22929   2.706   3.859   7.983
 1650POPC   C4B22930   2.457   3.812   7.604
 1651POPC   NC322931   5.263   1.448   9.888
 1651POPC   PO422932   5.035   0.836   9.599
 1651POPC   GL122933   5.145   1.064   9.114
 1651POPC   GL222934   5.399   1.344   9.036
 1651POPC   C1A22935   5.059   1.176   8.674
 1651POPC   D2A22936   5.062   1.037   8.275
 1651POPC   C3A22937   4.993   1.257   7.906
 1651POPC   C4A22938   5.059   1.335   7.449
 1651POPC   C1B22939   5.436   1.493   8.619
 1651POPC   C2B22940   5.665   1.542   8.216
 1651POPC   C3B22941   5.406   1.635   7.850
 1651POPC   C4B22942   5.226   1.811   7.465
 1652POPC   NC322943  12.165   2.159   9.555
 1652POPC   PO422944  11.726   1.754   9.511
 1652POPC   GL122945  11.961   1.923   9.136
 1652POPC   GL222946  12.156   2.242   9.053
 1652POPC   C1A22947  11.812   2.010   8.715
 1652POPC   D2A22948  11.559   2.128   8.366
 1652POPC   C3A22949  11.734   2.009   8.020
 1652POPC   C4A22950  12.064   1.966   7.770
 1652POPC   C1B22951  12.174   2.374   8.630
 1652POPC   C2B22952  12.225   2.122   8.274
 1652POPC   C3B22953  12.453   2.250   7.926
 1652POPC   C4B22954  12.310   2.351   7.472
 1653POPC   NC322955  27.903  27.539   9.250
 1653POPC   PO422956  28.412  27.825   9.629
 1653POPC   GL122957  28.331  27.849   9.198
 1653POPC   GL222958  28.062  28.082   9.181
 1653POPC   C1A22959  28.513  27.696   8.793
 1653POPC   D2A22960  28.592  27.505   8.379
 1653POPC   C3A22961  28.591  27.733   8.017
 1653POPC   C4A22962  28.538  27.577   7.614
 1653POPC   C1B22963  27.984  27.896   8.752
 1653POPC   C2B22964  28.103  27.487   8.530
 1653POPC   C3B22965  28.161  27.399   8.085
 1653POPC   C4B22966  28.099  27.741   7.818
 1654POPC   NC322967  19.780  14.213   9.521
 1654POPC   PO422968  20.109  14.738   9.321
 1654POPC   GL122969  19.797  14.531   9.100
 1654POPC   GL222970  19.962  14.232   9.051
 1654POPC   C1A22971  19.612  14.605   8.706
 1654POPC   D2A22972  19.862  14.701   8.353
 1654POPC   C3A22973  19.723  14.585   7.964
 1654POPC   C4A22974  20.039  14.408   7.729
 1654POPC   C1B22975  19.737  14.110   8.688
 1654POPC   C2B22976  19.601  14.234   8.297
 1654POPC   C3B22977  19.718  14.023   7.885
 1654POPC   C4B22978  19.916  13.953   7.434
 1655POPC   NC322979  41.913   7.253   9.434
 1655POPC   PO422980  42.350   7.820   9.484
 1655POPC   GL122981  42.340   7.588   9.090
 1655POPC   GL222982  42.102   7.344   8.989
 1655POPC   C1A22983  42.453   7.461   8.659
 1655POPC   D2A22984  42.206   7.397   8.323
 1655POPC   C3A22985  42.419   7.380   7.967
 1655POPC   C4A22986  42.358   7.499   7.555
 1655POPC   C1B22987  42.152   7.022   8.679
 1655POPC   C2B22988  41.921   6.974   8.292
 1655POPC   C3B22989  41.973   7.170   7.876
 1655POPC   C4B22990  42.077   7.082   7.461
 1656POPC   NC322991  42.909  18.788   9.439
 1656POPC   PO422992  43.403  19.228   9.207
 1656POPC   GL122993  43.231  18.876   9.035
 1656POPC   GL222994  42.921  19.059   9.017
 1656POPC   C1A22995  43.193  18.874   8.602
 1656POPC   D2A22996  43.496  19.004   8.319
 1656POPC   C3A22997  43.403  19.169   7.921
 1656POPC   C4A22998  43.089  18.917   7.785
 1656POPC   C1B22999  42.853  19.280   8.656
 1656POPC   C2B23000  42.973  19.194   8.240
 1656POPC   C3B23001  42.706  19.251   7.914
 1656POPC   C4B23002  42.861  19.268   7.511
 1657POPC   NC323003  25.618   6.181   9.446
 1657POPC   PO423004  26.152   5.530   9.401
 1657POPC   GL123005  26.005   5.668   9.061
 1657POPC   GL223006  25.938   6.032   9.088
 1657POPC   C1A23007  26.155   5.514   8.670
 1657POPC   D2A23008  26.379   5.736   8.383
 1657POPC   C3A23009  26.237   5.743   7.985
 1657POPC   C4A23010  26.032   6.036   7.770
 1657POPC   C1B23011  25.957   5.984   8.664
 1657POPC   C2B23012  26.048   6.144   8.289
 1657POPC   C3B23013  25.673   6.231   8.107
 1657POPC   C4B23014  25.463   6.077   7.783
 1658POPC   NC323015  30.318  40.200   9.667
 1658POPC   PO423016  29.864  39.714   9.468
 1658POPC   GL123017  29.765  40.077   9.161
 1658POPC   GL223018  29.786  39.879   8.919
 1658POPC   C1A23019  29.891  40.326   8.725
 1658POPC   D2A23020  29.806  40.152   8.381
 1658POPC   C3A23021  30.066  40.285   8.104
 1658POPC   C4A23022  29.939  40.185   7.703
 1658POPC   C1B23023  30.129  39.835   8.607
 1658POPC   C2B23024  30.121  39.778   8.173
 1658POPC   C3B23025  30.298  39.823   7.785
 1658POPC   C4B23026  30.160  39.863   7.365
 1659POPC   NC323027   9.412  20.383   9.537
 1659POPC   PO423028   9.858  20.818   9.647
 1659POPC   GL123029   9.710  20.703   9.231
 1659POPC   GL223030   9.346  20.684   9.149
 1659POPC   C1A23031   9.750  20.381   8.929
 1659POPC   D2A23032   9.574  20.334   8.538
 1659POPC   C3A23033   9.769  20.536   8.210
 1659POPC   C4A23034   9.814  20.391   7.809
 1659POPC   C1B23035   9.446  20.791   8.742
 1659POPC   C2B23036   9.320  20.772   8.324
 1659POPC   C3B23037   9.503  20.858   7.933
 1659POPC   C4B23038   9.937  21.038   7.881
 1660POPC   NC323039   2.714   7.805   9.452
 1660POPC   PO423040   2.866   7.176   9.423
 1660POPC   GL123041   3.027   7.171   9.068
 1660POPC   GL223042   3.002   7.558   9.050
 1660POPC   C1A23043   2.872   7.077   8.682
 1660POPC   D2A23044   2.805   7.407   8.401
 1660POPC   C3A23045   2.765   7.201   8.032
 1660POPC   C4A23046   2.942   7.295   7.656
 1660POPC   C1B23047   2.580   7.507   8.861
 1660POPC   C2B23048   2.328   7.611   8.494
 1660POPC   C3B23049   2.399   7.557   8.072
 1660POPC   C4B23050   2.518   7.554   7.652
 1661POPC   NC323051  37.476  12.320   9.418
 1661POPC   PO423052  37.802  11.822   9.576
 1661POPC   GL123053  37.820  11.944   9.134
 1661POPC   GL223054  37.729  12.260   8.976
 1661POPC   C1A23055  37.674  11.850   8.696
 1661POPC   D2A23056  37.430  11.922   8.337
 1661POPC   C3A23057  37.712  12.178   8.119
 1661POPC   C4A23058  37.745  11.957   7.745
 1661POPC   C1B23059  37.476  12.355   8.629
 1661POPC   C2B23060  37.259  12.402   8.230
 1661POPC   C3B23061  37.308  12.200   7.831
 1661POPC   C4B23062  37.569  12.329   7.462
 1662POPC   NC323063   0.221  20.228   9.336
 1662POPC   PO423064   0.588  20.567   9.833
 1662POPC   GL123065   0.530  20.649   9.334
 1662POPC   GL223066   0.756  20.465   9.063
 1662POPC   C1A23067   0.364  20.734   8.884
 1662POPC   D2A23068   0.267  20.914   8.475
 1662POPC   C3A23069   0.473  20.819   8.106
 1662POPC   C4A23070   0.380  20.689   7.716
 1662POPC   C1B23071   0.539  20.220   8.735
 1662POPC   C2B23072   0.317  20.371   8.369
 1662POPC   C3B23073   0.278  20.257   7.960
 1662POPC   C4B23074   0.597  20.169   7.666
 1663POPC   NC323075  18.293  28.656   9.544
 1663POPC   PO423076  18.639  28.100   9.522
 1663POPC   GL123077  18.349  28.255   9.209
 1663POPC   GL223078  18.638  28.229   9.016
 1663POPC   C1A23079  18.171  28.435   8.806
 1663POPC   D2A23080  18.125  28.647   8.386
 1663POPC   C3A23081  18.197  28.448   7.981
 1663POPC   C4A23082  17.889  28.164   7.735
 1663POPC   C1B23083  18.675  28.401   8.624
 1663POPC   C2B23084  18.599  28.254   8.248
 1663POPC   C3B23085  18.727  28.222   7.858
 1663POPC   C4B23086  18.651  28.620   7.677
 1664POPC   NC323087  18.178  13.847   9.329
 1664POPC   PO423088  17.970  13.239   9.406
 1664POPC   GL123089  18.201  13.402   9.063
 1664POPC   GL223090  18.561  13.346   9.105
 1664POPC   C1A23091  18.222  13.641   8.680
 1664POPC   D2A23092  17.958  13.677   8.347
 1664POPC   C3A23093  18.137  13.856   8.013
 1664POPC   C4A23094  18.554  13.815   7.940
 1664POPC   C1B23095  18.485  13.205   8.672
 1664POPC   C2B23096  18.349  13.326   8.248
 1664POPC   C3B23097  18.423  13.342   7.800
 1664POPC   C4B23098  18.596  13.380   7.369
 1665POPC   NC323099  38.690  14.390   9.643
 1665POPC   PO423100  38.149  14.233   9.263
 1665POPC   GL123101  38.406  14.402   8.998
 1665POPC   GL223102  38.698  14.169   9.056
 1665POPC   C1A23103  38.191  14.387   8.621
 1665POPC   D2A23104  38.196  14.067   8.345
 1665POPC   C3A23105  38.170  14.306   7.990
 1665POPC   C4A23106  38.261  14.658   7.757
 1665POPC   C1B23107  38.663  14.178   8.592
 1665POPC   C2B23108  38.547  14.506   8.289
 1665POPC   C3B23109  38.743  14.528   7.933
 1665POPC   C4B23110  38.836  14.183   7.687
 1666POPC   NC323111  19.508  18.450   9.478
 1666POPC   PO423112  19.931  17.920   9.293
 1666POPC   GL123113  20.086  18.148   9.005
 1666POPC   GL223114  19.892  18.421   9.103
 1666POPC   C1A23115  20.018  18.090   8.573
 1666POPC   D2A23116  20.064  18.069   8.139
 1666POPC   C3A23117  19.696  18.153   7.947
 1666POPC   C4A23118  19.774  18.217   7.545
 1666POPC   C1B23119  19.583  18.304   8.797
 1666POPC   C2B23120  19.623  18.449   8.386
 1666POPC   C3B23121  19.588  18.634   7.990
 1666POPC   C4B23122  19.918  18.692   7.701
 1667POPC   NC323123  18.289  32.838   9.456
 1667POPC   PO423124  18.084  33.448   9.611
 1667POPC   GL123125  18.061  33.221   9.199
 1667POPC   GL223126  18.417  33.187   9.091
 1667POPC   C1A23127  18.017  33.069   8.762
 1667POPC   D2A23128  18.093  32.698   8.472
 1667POPC   C3A23129  18.083  32.743   8.024
 1667POPC   C4A23130  18.043  33.095   7.796
 1667POPC   C1B23131  18.503  32.806   8.815
 1667POPC   C2B23132  18.600  32.712   8.360
 1667POPC   C3B23133  18.578  32.945   7.989
 1667POPC   C4B23134  18.546  32.728   7.631
 1668POPC   NC323135   7.992  39.549   9.454
 1668POPC   PO423136   8.515  39.147   9.679
 1668POPC   GL123137   8.371  39.236   9.203
 1668POPC   GL223138   8.048  39.274   9.021
 1668POPC   C1A23139   8.416  39.418   8.742
 1668POPC   D2A23140   8.157  39.259   8.409
 1668POPC   C3A23141   8.319  39.385   8.013
 1668POPC   C4A23142   8.242  39.196   7.618
 1668POPC   C1B23143   7.896  39.566   8.750
 1668POPC   C2B23144   7.737  39.562   8.335
 1668POPC   C3B23145   7.838  39.481   7.890
 1668POPC   C4B23146   7.806  39.387   7.435
 1669POPC   NC323147  33.684  18.613   9.575
 1669POPC   PO423148  33.580  17.937   9.650
 1669POPC   GL123149  33.722  18.082   9.213
 1669POPC   GL223150  33.884  18.410   9.136
 1669POPC   C1A23151  33.597  18.158   8.765
 1669POPC   D2A23152  33.477  18.495   8.486
 1669POPC   C3A23153  33.514  18.393   8.056
 1669POPC   C4A23154  33.751  18.281   7.681
 1669POPC   C1B23155  34.075  18.312   8.747
 1669POPC   C2B23156  33.922  18.214   8.344
 1669POPC   C3B23157  34.125  18.420   8.006
 1669POPC   C4B23158  34.175  18.590   7.606
 1670POPC   NC323159  25.240  34.195   9.309
 1670POPC   PO423160  24.965  34.799   9.478
 1670POPC   GL123161  25.171  34.789   9.069
 1670POPC   GL223162  25.537  34.725   9.013
 1670POPC   C1A23163  25.238  34.730   8.618
 1670POPC   D2A23164  25.553  34.831   8.334
 1670POPC   C3A23165  25.323  34.695   7.980
 1670POPC   C4A23166  25.298  34.625   7.533
 1670POPC   C1B23167  25.581  34.364   8.746
 1670POPC   C2B23168  25.581  34.327   8.296
 1670POPC   C3B23169  25.546  34.244   7.847
 1670POPC   C4B23170  25.634  34.249   7.393
 1671POPC   NC323171   9.420  38.058   9.417
 1671POPC   PO423172   8.979  37.595   9.654
 1671POPC   GL123173   8.983  37.795   9.246
 1671POPC   GL223174   8.746  38.072   9.157
 1671POPC   C1A23175   8.941  37.640   8.823
 1671POPC   D2A23176   9.173  37.592   8.451
 1671POPC   C3A23177   9.024  37.344   8.151
 1671POPC   C4A23178   9.040  37.366   7.755
 1671POPC   C1B23179   8.593  37.981   8.733
 1671POPC   C2B23180   8.807  37.964   8.320
 1671POPC   C3B23181   9.118  37.845   7.983
 1671POPC   C4B23182   9.001  37.890   7.539
 1672POPC   NC323183  27.261  30.016   9.487
 1672POPC   PO423184  27.754  29.640   9.537
 1672POPC   GL123185  27.483  29.674   9.168
 1672POPC   GL223186  27.605  30.027   9.089
 1672POPC   C1A23187  27.421  29.745   8.716
 1672POPC   D2A23188  27.712  30.030   8.476
 1672POPC   C3A23189  27.592  29.954   8.052
 1672POPC   C4A23190  27.714  29.999   7.641
 1672POPC   C1B23191  27.326  30.240   8.780
 1672POPC   C2B23192  27.207  30.108   8.358
 1672POPC   C3B23193  27.276  30.371   7.995
 1672POPC   C4B23194  27.280  30.235   7.591
 1673POPC   NC323195  13.634  24.329   9.727
 1673POPC   PO423196  14.077  24.740   9.448
 1673POPC   GL123197  13.792  24.702   9.116
 1673POPC   GL223198  13.512  24.454   9.164
 1673POPC   C1A23199  13.745  24.608   8.700
 1673POPC   D2A23200  13.840  24.412   8.310
 1673POPC   C3A23201  13.799  24.661   7.941
 1673POPC   C4A23202  13.925  24.379   7.615
 1673POPC   C1B23203  13.331  24.327   8.788
 1673POPC   C2B23204  13.356  24.262   8.343
 1673POPC   C3B23205  13.475  24.275   7.885
 1673POPC   C4B23206  13.448  24.507   7.504
 1674POPC   NC323207  39.508   7.988   9.792
 1674POPC   PO423208  38.920   8.144   9.750
 1674POPC   GL123209  39.216   8.194   9.339
 1674POPC   GL223210  38.965   8.353   9.168
 1674POPC   C1A23211  39.437   8.134   8.889
 1674POPC   D2A23212  39.626   8.039   8.456
 1674POPC   C3A23213  39.419   8.266   8.084
 1674POPC   C4A23214  39.307   8.146   7.678
 1674POPC   C1B23215  38.954   8.275   8.757
 1674POPC   C2B23216  38.916   8.451   8.343
 1674POPC   C3B23217  38.877   8.208   7.987
 1674POPC   C4B23218  38.844   8.357   7.583
 1675POPC   NC323219   2.705   1.996   9.539
 1675POPC   PO423220   3.308   1.631   9.463
 1675POPC   GL123221   2.995   1.752   9.167
 1675POPC   GL223222   2.970   2.124   9.104
 1675POPC   C1A23223   2.821   1.766   8.753
 1675POPC   D2A23224   2.568   1.753   8.380
 1675POPC   C3A23225   2.691   1.967   7.988
 1675POPC   C4A23226   2.756   1.871   7.546
 1675POPC   C1B23227   2.638   2.297   8.804
 1675POPC   C2B23228   2.588   2.536   8.411
 1675POPC   C3B23229   2.488   2.454   7.969
 1675POPC   C4B23230   2.796   2.389   7.646
 1676POPC   NC323231  10.369  16.998   9.720
 1676POPC   PO423232  10.259  17.616   9.561
 1676POPC   GL123233  10.559  17.553   9.183
 1676POPC   GL223234  10.856  17.313   9.239
 1676POPC   C1A23235  10.493  17.433   8.746
 1676POPC   D2A23236  10.264  17.595   8.396
 1676POPC   C3A23237  10.430  17.479   8.028
 1676POPC   C4A23238  10.649  17.615   7.699
 1676POPC   C1B23239  10.931  17.173   8.797
 1676POPC   C2B23240  10.864  17.367   8.365
 1676POPC   C3B23241  10.827  17.181   7.928
 1676POPC   C4B23242  10.924  17.196   7.493
 1677POPC   NC323243  40.946  21.714   9.279
 1677POPC   PO423244  40.597  21.084   9.351
 1677POPC   GL123245  40.555  21.415   9.047
 1677POPC   GL223246  40.281  21.610   9.200
 1677POPC   C1A23247  40.830  21.555   8.665
 1677POPC   D2A23248  41.152  21.584   8.311
 1677POPC   C3A23249  41.085  21.198   8.082
 1677POPC   C4A23250  40.756  21.085   7.817
 1677POPC   C1B23251  40.241  21.722   8.759
 1677POPC   C2B23252  40.436  21.661   8.360
 1677POPC   C3B23253  40.708  21.611   8.028
 1677POPC   C4B23254  40.988  21.547   7.717
 1678POPC   NC323255  35.577  29.741   9.384
 1678POPC   PO423256  35.226  30.300   9.316
 1678POPC   GL123257  35.379  30.101   9.034
 1678POPC   GL223258  35.186  29.814   9.054
 1678POPC   C1A23259  35.224  30.142   8.629
 1678POPC   D2A23260  34.969  30.245   8.288
 1678POPC   C3A23261  35.114  30.150   7.905
 1678POPC   C4A23262  35.548  30.085   7.837
 1678POPC   C1B23263  35.494  29.715   8.723
 1678POPC   C2B23264  35.471  29.838   8.298
 1678POPC   C3B23265  35.287  29.641   7.973
 1678POPC   C4B23266  35.246  29.735   7.605
 1679POPC   NC323267  24.700   6.488   9.461
 1679POPC   PO423268  24.530   7.113   9.614
 1679POPC   GL123269  24.700   6.939   9.222
 1679POPC   GL223270  24.414   6.734   9.095
 1679POPC   C1A23271  24.853   6.710   8.841
 1679POPC   D2A23272  24.683   6.447   8.507
 1679POPC   C3A23273  24.647   6.602   8.099
 1679POPC   C4A23274  24.355   6.566   7.783
 1679POPC   C1B23275  24.175   6.750   8.697
 1679POPC   C2B23276  24.090   6.745   8.237
 1679POPC   C3B23277  23.995   6.949   7.837
 1679POPC   C4B23278  24.129   6.806   7.413
 1680POPC   NC323279  24.866   9.592   9.472
 1680POPC   PO423280  25.476   9.674   9.660
 1680POPC   GL123281  25.331   9.801   9.275
 1680POPC   GL223282  25.280   9.489   9.137
 1680POPC   C1A23283  25.465   9.890   8.850
 1680POPC   D2A23284  25.236  10.020   8.468
 1680POPC   C3A23285  25.358   9.862   8.056
 1680POPC   C4A23286  25.288   9.963   7.618
 1680POPC   C1B23287  25.009   9.605   8.793
 1680POPC   C2B23288  25.055   9.551   8.353
 1680POPC   C3B23289  24.958   9.574   7.912
 1680POPC   C4B23290  24.934   9.685   7.421
 1681POPC   NC323291  40.943  40.925   9.478
 1681POPC   PO423292  40.662  40.323   9.568
 1681POPC   GL123293  40.565  40.506   9.153
 1681POPC   GL223294  40.580  40.897   9.143
 1681POPC   C1A23295  40.801  40.621   8.756
 1681POPC   D2A23296  41.112  40.612   8.403
 1681POPC   C3A23297  40.903  40.606   7.999
 1681POPC   C4A23298  40.542  40.719   7.758
 1681POPC   C1B23299  40.539  41.103   8.753
 1681POPC   C2B23300  40.772  41.009   8.402
 1681POPC   C3B23301  40.858  41.182   8.048
 1681POPC   C4B23302  40.927  41.084   7.634
 1682POPC   NC323303  11.525   6.656   9.546
 1682POPC   PO423304  10.995   6.443   9.141
 1682POPC   GL123305  11.338   6.672   9.078
 1682POPC   GL223306  11.551   6.374   9.128
 1682POPC   C1A23307  11.543   6.882   8.726
 1682POPC   D2A23308  11.413   7.096   8.379
 1682POPC   C3A23309  11.336   6.893   7.999
 1682POPC   C4A23310  11.265   7.079   7.630
 1682POPC   C1B23311  11.430   6.385   8.688
 1682POPC   C2B23312  11.362   6.517   8.338
 1682POPC   C3B23313  11.211   6.375   7.966
 1682POPC   C4B23314  11.329   6.535   7.587
 1683POPC   NC323315   4.077  25.096   9.884
 1683POPC   PO423316   3.523  25.375   9.519
 1683POPC   GL123317   3.750  25.261   9.177
 1683POPC   GL223318   3.481  25.455   9.019
 1683POPC   C1A23319   3.730  25.025   8.790
 1683POPC   D2A23320   3.477  25.114   8.450
 1683POPC   C3A23321   3.645  24.940   8.075
 1683POPC   C4A23322   3.394  25.063   7.757
 1683POPC   C1B23323   3.796  25.547   8.736
 1683POPC   C2B23324   3.907  25.335   8.370
 1683POPC   C3B23325   3.791  25.428   7.942
 1683POPC   C4B23326   4.055  25.749   7.763
 1684POPC   NC323327  35.487   5.680   9.207
 1684POPC   PO423328  35.499   5.159   9.581
 1684POPC   GL123329  35.439   5.075   9.137
 1684POPC   GL223330  35.143   4.926   9.022
 1684POPC   C1A23331  35.436   5.252   8.721
 1684POPC   D2A23332  35.461   5.430   8.321
 1684POPC   C3A23333  35.516   5.121   8.048
 1684POPC   C4A23334  35.548   5.333   7.701
 1684POPC   C1B23335  34.934   4.918   8.705
 1684POPC   C2B23336  35.108   5.053   8.375
 1684POPC   C3B23337  35.047   4.943   8.011
 1684POPC   C4B23338  35.223   4.823   7.700
 1685POPC   NC323339  42.939  36.641   9.714
 1685POPC   PO423340  43.209  37.021   9.269
 1685POPC   GL123341  42.938  36.908   9.014
 1685POPC   GL223342  43.078  36.611   8.949
 1685POPC   C1A23343  43.107  37.026   8.628
 1685POPC   D2A23344  43.376  37.227   8.385
 1685POPC   C3A23345  43.125  37.082   8.051
 1685POPC   C4A23346  43.362  36.984   7.757
 1685POPC   C1B23347  43.444  36.624   8.691
 1685POPC   C2B23348  43.441  36.736   8.292
 1685POPC   C3B23349  43.270  36.545   7.956
 1685POPC   C4B23350  43.317  36.491   7.527
 1686POPC   NC323351  40.559   0.653   9.513
 1686POPC   PO423352  40.954   0.097   9.555
 1686POPC   GL123353  40.858   0.360   9.218
 1686POPC   GL223354  40.538   0.207   9.103
 1686POPC   C1A23355  40.893   0.345   8.778
 1686POPC   D2A23356  40.703   0.237   8.385
 1686POPC   C3A23357  40.865   0.422   8.035
 1686POPC   C4A23358  40.995   0.304   7.671
 1686POPC   C1B23359  40.355   0.414   8.719
 1686POPC   C2B23360  40.197   0.214   8.329
 1686POPC   C3B23361  40.383   0.183   7.930
 1686POPC   C4B23362  40.498   0.533   7.667
 1687POPC   NC323363  15.837  43.573   9.409
 1687POPC   PO423364  16.019  42.927   9.613
 1687POPC   GL123365  16.024  43.081   9.184
 1687POPC   GL223366  15.752  42.980   8.929
 1687POPC   C1A23367  16.090  43.350   8.814
 1687POPC   D2A23368  15.887  43.334   8.415
 1687POPC   C3A23369  16.091  43.362   8.013
 1687POPC   C4A23370  15.811  43.139   7.765
 1687POPC   C1B23371  16.135  42.817   8.761
 1687POPC   C2B23372  16.292  42.691   8.410
 1687POPC   C3B23373  16.110  42.817   8.058
 1687POPC   C4B23374  16.132  42.756   7.651
 1688POPC   NC323375  22.938  17.891   9.822
 1688POPC   PO423376  23.063  18.399   9.400
 1688POPC   GL123377  23.031  18.325   8.999
 1688POPC   GL223378  22.755  18.141   9.060
 1688POPC   C1A23379  22.989  18.144   8.584
 1688POPC   D2A23380  23.229  17.963   8.250
 1688POPC   C3A23381  23.005  18.036   7.853
 1688POPC   C4A23382  23.029  18.283   7.467
 1688POPC   C1B23383  22.608  18.453   8.737
 1688POPC   C2B23384  22.687  18.495   8.277
 1688POPC   C3B23385  22.684  18.506   7.800
 1688POPC   C4B23386  22.693  18.632   7.341
 1689POPC   NC323387  15.376   9.576   9.414
 1689POPC   PO423388  15.035  10.161   9.289
 1689POPC   GL123389  15.070   9.812   9.089
 1689POPC   GL223390  15.414   9.901   9.026
 1689POPC   C1A23391  15.042   9.755   8.666
 1689POPC   D2A23392  15.264   9.542   8.378
 1689POPC   C3A23393  15.215   9.678   8.018
 1689POPC   C4A23394  15.452   9.533   7.686
 1689POPC   C1B23395  15.598   9.834   8.656
 1689POPC   C2B23396  15.679   9.954   8.268
 1689POPC   C3B23397  15.627   9.989   7.864
 1689POPC   C4B23398  15.262  10.008   7.640
 1690POPC   NC323399  14.619   6.728   9.502
 1690POPC   PO423400  14.038   6.457   9.570
 1690POPC   GL123401  14.232   6.512   9.167
 1690POPC   GL223402  14.568   6.371   9.152
 1690POPC   C1A23403  14.408   6.732   8.796
 1690POPC   D2A23404  14.380   6.880   8.369
 1690POPC   C3A23405  14.180   6.773   8.027
 1690POPC   C4A23406  14.021   6.426   7.898
 1690POPC   C1B23407  14.549   6.226   8.750
 1690POPC   C2B23408  14.383   6.259   8.353
 1690POPC   C3B23409  14.546   6.353   7.974
 1690POPC   C4B23410  14.687   6.741   7.865
 1691POPC   NC323411   7.981   8.859   9.421
 1691POPC   PO423412   8.560   9.271   9.514
 1691POPC   GL123413   8.410   9.177   9.064
 1691POPC   GL223414   8.328   8.808   9.035
 1691POPC   C1A23415   8.181   9.206   8.627
 1691POPC   D2A23416   8.038   8.929   8.264
 1691POPC   C3A23417   8.001   9.064   7.863
 1691POPC   C4A23418   8.416   9.002   7.722
 1691POPC   C1B23419   7.992   8.698   8.711
 1691POPC   C2B23420   7.927   8.414   8.317
 1691POPC   C3B23421   7.751   8.545   7.917
 1691POPC   C4B23422   7.896   8.684   7.479
 1692POPC   NC323423   7.691  10.473   9.554
 1692POPC   PO423424   7.054  10.467   9.466
 1692POPC   GL123425   7.302  10.306   9.146
 1692POPC   GL223426   7.662  10.311   9.083
 1692POPC   C1A23427   7.289  10.454   8.737
 1692POPC   D2A23428   7.273  10.767   8.473
 1692POPC   C3A23429   7.212  10.529   8.111
 1692POPC   C4A23430   7.474  10.509   7.723
 1692POPC   C1B23431   7.783  10.467   8.678
 1692POPC   C2B23432   7.706  10.512   8.267
 1692POPC   C3B23433   7.898  10.312   7.942
 1692POPC   C4B23434   7.909  10.374   7.480
 1693POPC   NC323435  27.758  18.637   9.269
 1693POPC   PO423436  27.530  19.080   9.698
 1693POPC   GL123437  27.503  19.088   9.229
 1693POPC   GL223438  27.802  19.116   9.060
 1693POPC   C1A23439  27.426  19.094   8.758
 1693POPC   D2A23440  27.365  18.965   8.355
 1693POPC   C3A23441  27.345  19.305   8.115
 1693POPC   C4A23442  27.269  19.355   7.680
 1693POPC   C1B23443  27.935  19.271   8.683
 1693POPC   C2B23444  27.836  19.374   8.276
 1693POPC   C3B23445  27.763  19.361   7.827
 1693POPC   C4B23446  27.821  19.052   7.480
 1694POPC   NC323447  27.721  34.386   9.472
 1694POPC   PO423448  27.001  34.758   9.471
 1694POPC   GL123449  27.248  34.824   9.144
 1694POPC   GL223450  27.590  34.798   9.190
 1694POPC   C1A23451  27.332  34.620   8.779
 1694POPC   D2A23452  27.461  34.361   8.477
 1694POPC   C3A23453  27.271  34.478   8.114
 1694POPC   C4A23454  27.230  34.214   7.774
 1694POPC   C1B23455  27.829  34.646   8.821
 1694POPC   C2B23456  27.825  34.714   8.406
 1694POPC   C3B23457  27.757  34.489   8.039
 1694POPC   C4B23458  27.586  34.767   7.744
 1695POPC   NC323459  29.033   3.605   9.404
 1695POPC   PO423460  29.576   3.948   9.473
 1695POPC   GL123461  29.480   3.694   9.149
 1695POPC   GL223462  29.425   3.312   9.179
 1695POPC   C1A23463  29.211   3.699   8.779
 1695POPC   D2A23464  29.120   3.509   8.398
 1695POPC   C3A23465  29.354   3.686   8.100
 1695POPC   C4A23466  29.387   3.786   7.654
 1695POPC   C1B23467  29.428   3.071   8.776
 1695POPC   C2B23468  29.540   3.222   8.364
 1695POPC   C3B23469  29.371   3.193   7.990
 1695POPC   C4B23470  29.027   3.446   7.805
 1696POPC   NC323471  15.735  31.967   9.571
 1696POPC   PO423472  15.883  31.311   9.483
 1696POPC   GL123473  15.875  31.624   9.186
 1696POPC   GL223474  15.652  31.402   9.037
 1696POPC   C1A23475  16.112  31.602   8.797
 1696POPC   D2A23476  16.091  31.411   8.379
 1696POPC   C3A23477  16.102  31.733   8.048
 1696POPC   C4A23478  16.223  31.808   7.636
 1696POPC   C1B23479  15.611  31.631   8.708
 1696POPC   C2B23480  15.577  31.538   8.316
 1696POPC   C3B23481  15.716  31.434   7.938
 1696POPC   C4B23482  15.739  31.645   7.569
 1697POPC   NC323483   8.221  14.633   9.492
 1697POPC   PO423484   8.518  13.946   9.352
 1697POPC   GL123485   8.487  14.237   9.078
 1697POPC   GL223486   8.153  14.389   9.041
 1697POPC   C1A23487   8.380  14.161   8.665
 1697POPC   D2A23488   8.081  14.394   8.455
 1697POPC   C3A23489   8.148  14.483   8.037
 1697POPC   C4A23490   8.248  14.345   7.609
 1697POPC   C1B23491   8.294  14.743   8.762
 1697POPC   C2B23492   8.291  14.935   8.334
 1697POPC   C3B23493   8.543  14.833   7.976
 1697POPC   C4B23494   8.599  14.726   7.556
 1698POPC   NC323495   2.560  11.801   9.413
 1698POPC   PO423496   2.437  12.387   9.453
 1698POPC   GL123497   2.703  12.232   9.146
 1698POPC   GL223498   2.972  11.958   9.167
 1698POPC   C1A23499   2.818  12.271   8.747
 1698POPC   D2A23500   2.759  12.111   8.360
 1698POPC   C3A23501   2.466  12.069   8.050
 1698POPC   C4A23502   2.688  12.219   7.685
 1698POPC   C1B23503   3.186  11.920   8.778
 1698POPC   C2B23504   3.112  11.772   8.369
 1698POPC   C3B23505   3.001  11.891   7.927
 1698POPC   C4B23506   3.004  11.854   7.461
 1699POPC   NC323507  31.435   2.408   9.482
 1699POPC   PO423508  31.376   1.811   9.760
 1699POPC   GL123509  31.363   1.892   9.255
 1699POPC   GL223510  31.482   1.609   9.116
 1699POPC   C1A23511  31.531   2.005   8.819
 1699POPC   D2A23512  31.775   1.907   8.484
 1699POPC   C3A23513  31.701   2.021   8.047
 1699POPC   C4A23514  31.295   2.066   7.875
 1699POPC   C1B23515  31.344   1.521   8.701
 1699POPC   C2B23516  31.334   1.718   8.294
 1699POPC   C3B23517  31.390   1.552   7.893
 1699POPC   C4B23518  31.329   1.730   7.479
 1700POPC   NC323519  35.158  39.373   9.574
 1700POPC   PO423520  35.206  38.758   9.468
 1700POPC   GL123521  35.261  39.104   9.163
 1700POPC   GL223522  35.567  39.320   9.199
 1700POPC   C1A23523  35.178  39.340   8.813
 1700POPC   D2A23524  35.288  39.253   8.405
 1700POPC   C3A23525  35.310  39.398   8.004
 1700POPC   C4A23526  35.186  39.232   7.604
 1700POPC   C1B23527  35.697  39.378   8.756
 1700POPC   C2B23528  35.783  39.401   8.306
 1700POPC   C3B23529  35.788  39.324   7.850
 1700POPC   C4B23530  35.673  39.416   7.428
 1701POPC   NC323531  10.004  15.934   9.567
 1701POPC   PO423532   9.447  16.202   9.465
 1701POPC   GL123533   9.629  15.953   9.194
 1701POPC   GL223534   9.449  16.118   8.942
 1701POPC   C1A23535   9.911  15.879   8.881
 1701POPC   D2A23536   9.786  15.915   8.438
 1701POPC   C3A23537   9.982  16.122   8.101
 1701POPC   C4A23538   9.741  16.239   7.736
 1701POPC   C1B23539   9.351  15.757   8.685
 1701POPC   C2B23540   9.355  15.578   8.304
 1701POPC   C3B23541   9.511  15.786   7.960
 1701POPC   C4B23542   9.409  15.663   7.570
 1702POPC   NC323543  11.862  30.634   9.327
 1702POPC   PO423544  11.207  30.641   9.541
 1702POPC   GL123545  11.312  30.551   9.149
 1702POPC   GL223546  11.342  30.894   9.087
 1702POPC   C1A23547  11.156  30.548   8.730
 1702POPC   D2A23548  11.287  30.592   8.317
 1702POPC   C3A23549  11.011  30.376   8.053
 1702POPC   C4A23550  11.012  30.460   7.637
 1702POPC   C1B23551  11.458  31.010   8.674
 1702POPC   C2B23552  11.617  31.003   8.247
 1702POPC   C3B23553  11.438  31.148   7.861
 1702POPC   C4B23554  11.258  31.216   7.428
 1703POPC   NC323555  14.656  22.077   9.618
 1703POPC   PO423556  14.141  22.503   9.489
 1703POPC   GL123557  14.406  22.232   9.201
 1703POPC   GL223558  14.572  21.884   9.165
 1703POPC   C1A23559  14.541  22.240   8.803
 1703POPC   D2A23560  14.511  22.578   8.516
 1703POPC   C3A23561  14.351  22.520   8.114
 1703POPC   C4A23562  14.494  22.379   7.729
 1703POPC   C1B23563  14.578  21.656   8.794
 1703POPC   C2B23564  14.419  21.764   8.427
 1703POPC   C3B23565  14.427  21.998   8.082
 1703POPC   C4B23566  14.573  21.876   7.699
 1704POPC   NC323567  32.349  17.064   9.554
 1704POPC   PO423568  32.043  17.661   9.402
 1704POPC   GL123569  32.092  17.543   9.040
 1704POPC   GL223570  32.401  17.359   9.137
 1704POPC   C1A23571  31.970  17.615   8.622
 1704POPC   D2A23572  32.257  17.646   8.272
 1704POPC   C3A23573  32.206  17.564   7.824
 1704POPC   C4A23574  31.995  17.339   7.491
 1704POPC   C1B23575  32.490  17.455   8.717
 1704POPC   C2B23576  32.467  17.169   8.366
 1704POPC   C3B23577  32.663  17.099   7.992
 1704POPC   C4B23578  32.664  17.372   7.684
 1705POPC   NC323579  13.336  37.530   9.503
 1705POPC   PO423580  13.044  38.054   9.370
 1705POPC   GL123581  13.419  37.829   9.097
 1705POPC   GL223582  13.687  37.543   9.140
 1705POPC   C1A23583  13.491  37.566   8.690
 1705POPC   D2A23584  13.507  37.770   8.323
 1705POPC   C3A23585  13.512  37.568   7.949
 1705POPC   C4A23586  13.428  37.896   7.648
 1705POPC   C1B23587  13.983  37.467   8.801
 1705POPC   C2B23588  13.962  37.563   8.374
 1705POPC   C3B23589  14.015  37.758   7.978
 1705POPC   C4B23590  13.884  37.660   7.560
 1706POPC   NC323591  31.509  12.670   9.777
 1706POPC   PO423592  31.733  13.190   9.420
 1706POPC   GL123593  31.634  12.942   9.088
 1706POPC   GL223594  31.360  13.146   8.982
 1706POPC   C1A23595  31.732  13.020   8.658
 1706POPC   D2A23596  31.410  13.203   8.422
 1706POPC   C3A23597  31.347  13.017   8.059
 1706POPC   C4A23598  31.590  13.019   7.707
 1706POPC   C1B23599  31.277  12.799   8.710
 1706POPC   C2B23600  31.485  12.641   8.378
 1706POPC   C3B23601  31.496  12.517   7.958
 1706POPC   C4B23602  31.794  12.435   7.642
 1707POPC   NC323603  10.911  38.208   9.403
 1707POPC   PO423604  11.501  38.368   9.630
 1707POPC   GL123605  11.358  38.374   9.197
 1707POPC   GL223606  11.089  38.624   9.123
 1707POPC   C1A23607  11.272  38.264   8.760
 1707POPC   D2A23608  11.429  38.482   8.388
 1707POPC   C3A23609  11.519  38.382   7.969
 1707POPC   C4A23610  11.719  38.368   7.560
 1707POPC   C1B23611  11.236  38.839   8.755
 1707POPC   C2B23612  11.086  38.854   8.341
 1707POPC   C3B23613  11.020  38.589   8.002
 1707POPC   C4B23614  11.211  38.518   7.584
 1708POPC   NC323615   6.246  38.984   9.531
 1708POPC   PO423616   5.862  39.392   9.977
 1708POPC   GL123617   5.941  39.397   9.437
 1708POPC   GL223618   5.798  39.147   9.207
 1708POPC   C1A23619   6.058  39.423   8.908
 1708POPC   D2A23620   5.899  39.602   8.493
 1708POPC   C3A23621   5.870  39.404   8.067
 1708POPC   C4A23622   5.654  39.496   7.684
 1708POPC   C1B23623   5.783  38.979   8.783
 1708POPC   C2B23624   5.597  39.083   8.374
 1708POPC   C3B23625   5.581  39.011   7.896
 1708POPC   C4B23626   5.887  38.990   7.507
 1709POPC   NC323627  27.075  16.249   9.211
 1709POPC   PO423628  27.662  16.572   9.421
 1709POPC   GL123629  27.777  16.636   9.045
 1709POPC   GL223630  27.527  16.385   8.980
 1709POPC   C1A23631  27.850  16.666   8.616
 1709POPC   D2A23632  27.678  16.919   8.314
 1709POPC   C3A23633  27.818  16.815   7.948
 1709POPC   C4A23634  27.815  16.779   7.502
 1709POPC   C1B23635  27.906  16.206   8.832
 1709POPC   C2B23636  27.954  16.158   8.433
 1709POPC   C3B23637  27.844  16.273   8.077
 1709POPC   C4B23638  27.682  16.305   7.696
 1710POPC   NC323639  22.234   8.363   9.731
 1710POPC   PO423640  22.155   7.940   9.246
 1710POPC   GL123641  22.019   8.280   8.987
 1710POPC   GL223642  21.774   8.547   8.951
 1710POPC   C1A23643  21.959   8.302   8.538
 1710POPC   D2A23644  21.785   8.026   8.299
 1710POPC   C3A23645  22.059   7.879   8.084
 1710POPC   C4A23646  22.231   8.038   7.705
 1710POPC   C1B23647  22.237   8.657   8.735
 1710POPC   C2B23648  22.349   8.639   8.322
 1710POPC   C3B23649  22.072   8.410   8.045
 1710POPC   C4B23650  21.965   8.513   7.645
 1711POPC   NC323651  33.768  37.328   9.378
 1711POPC   PO423652  33.926  36.730   9.602
 1711POPC   GL123653  33.905  36.861   9.167
 1711POPC   GL223654  34.192  36.742   8.978
 1711POPC   C1A23655  33.900  37.064   8.739
 1711POPC   D2A23656  34.162  36.966   8.371
 1711POPC   C3A23657  33.913  36.884   8.008
 1711POPC   C4A23658  33.598  37.062   7.720
 1711POPC   C1B23659  34.051  36.533   8.632
 1711POPC   C2B23660  34.132  36.377   8.229
 1711POPC   C3B23661  33.792  36.384   7.962
 1711POPC   C4B23662  33.697  36.579   7.589
 1712POPC   NC323663   2.828  20.733   9.620
 1712POPC   PO423664   2.735  20.138   9.305
 1712POPC   GL123665   2.654  20.579   9.152
 1712POPC   GL223666   2.859  20.883   9.127
 1712POPC   C1A23667   2.468  20.612   8.785
 1712POPC   D2A23668   2.666  20.391   8.475
 1712POPC   C3A23669   2.603  20.481   8.075
 1712POPC   C4A23670   2.921  20.479   7.786
 1712POPC   C1B23671   2.911  20.856   8.660
 1712POPC   C2B23672   3.006  20.768   8.219
 1712POPC   C3B23673   2.837  20.963   7.819
 1712POPC   C4B23674   2.951  20.786   7.406
 1713POPC   NC323675  20.397   2.708   9.373
 1713POPC   PO423676  20.992   2.996   9.498
 1713POPC   GL123677  20.884   2.740   9.147
 1713POPC   GL223678  21.121   2.469   9.089
 1713POPC   C1A23679  20.703   2.858   8.742
 1713POPC   D2A23680  20.750   3.119   8.352
 1713POPC   C3A23681  20.815   2.957   7.962
 1713POPC   C4A23682  20.567   2.934   7.598
 1713POPC   C1B23683  20.953   2.409   8.714
 1713POPC   C2B23684  20.894   2.615   8.335
 1713POPC   C3B23685  20.824   2.458   7.932
 1713POPC   C4B23686  20.704   2.444   7.503
 1714POPC   NC323687   6.573  44.731  10.228
 1714POPC   PO423688   6.868  44.737   9.595
 1714POPC   GL123689   6.750  44.842   9.174
 1714POPC   GL223690   7.077  44.955   9.137
 1714POPC   C1A23691   6.486  44.833   8.786
 1714POPC   D2A23692   6.260  44.697   8.408
 1714POPC   C3A23693   6.366  44.792   7.972
 1714POPC   C4A23694   6.348  44.410   7.697
 1714POPC   C1B23695   7.016  44.647   8.790
 1714POPC   C2B23696   6.798  44.560   8.401
 1714POPC   C3B23697   6.791  44.464   7.971
 1714POPC   C4B23698   6.740  44.721   7.588
 1715POPC   NC323699  24.158   6.796   9.527
 1715POPC   PO423700  23.485   6.978   9.474
 1715POPC   GL123701  23.746   6.837   9.121
 1715POPC   GL223702  23.935   6.517   9.108
 1715POPC   C1A23703  23.660   6.885   8.705
 1715POPC   D2A23704  23.703   7.093   8.312
 1715POPC   C3A23705  23.492   6.909   7.985
 1715POPC   C4A23706  23.542   6.832   7.572
 1715POPC   C1B23707  23.680   6.364   8.744
 1715POPC   C2B23708  23.589   6.549   8.322
 1715POPC   C3B23709  23.769   6.493   7.894
 1715POPC   C4B23710  23.804   6.417   7.444
 1716POPC   NC323711  44.281  15.981   9.586
 1716POPC   PO423712  44.810  16.364   9.496
 1716POPC   GL123713  44.478  16.259   9.189
 1716POPC   GL223714  44.449  15.876   9.112
 1716POPC   C1A23715  44.601  16.213   8.755
 1716POPC   D2A23716  44.730  15.950   8.427
 1716POPC   C3A23717  44.720  16.221   8.093
 1716POPC   C4A23718  44.644  16.141   7.691
 1716POPC   C1B23719  44.379  15.623   8.743
 1716POPC   C2B23720  44.483  15.501   8.335
 1716POPC   C3B23721  44.552  15.736   7.970
 1716POPC   C4B23722  44.464  15.713   7.502
 1717POPC   NC323723  10.585   4.875   9.509
 1717POPC   PO423724  10.537   4.161   9.530
 1717POPC   GL123725  10.529   4.296   9.135
 1717POPC   GL223726  10.812   4.505   9.163
 1717POPC   C1A23727  10.355   4.186   8.720
 1717POPC   D2A23728  10.552   4.312   8.348
 1717POPC   C3A23729  10.389   4.092   8.060
 1717POPC   C4A23730  10.544   4.204   7.697
 1717POPC   C1B23731  10.760   4.571   8.734
 1717POPC   C2B23732  10.763   4.830   8.382
 1717POPC   C3B23733  10.590   4.779   7.964
 1717POPC   C4B23734  10.616   4.654   7.494
 1718POPC   NC323735  38.547   7.700   9.530
 1718POPC   PO423736  38.262   7.059   9.432
 1718POPC   GL123737  38.260   7.349   9.059
 1718POPC   GL223738  38.588   7.467   9.046
 1718POPC   C1A23739  38.295   7.455   8.599
 1718POPC   D2A23740  38.578   7.475   8.240
 1718POPC   C3A23741  38.341   7.478   7.848
 1718POPC   C4A23742  38.280   7.338   7.427
 1718POPC   C1B23743  38.713   7.183   8.714
 1718POPC   C2B23744  38.812   6.968   8.334
 1718POPC   C3B23745  38.977   7.228   8.018
 1718POPC   C4B23746  38.778   7.307   7.656
 1719POPC   NC323747  17.238  10.576   9.394
 1719POPC   PO423748  17.853  10.712   9.493
 1719POPC   GL123749  17.697  10.426   9.172
 1719POPC   GL223750  17.899  10.163   9.137
 1719POPC   C1A23751  17.501  10.385   8.747
 1719POPC   D2A23752  17.590  10.637   8.360
 1719POPC   C3A23753  17.424  10.615   7.952
 1719POPC   C4A23754  17.018  10.500   7.815
 1719POPC   C1B23755  18.022  10.086   8.734
 1719POPC   C2B23756  17.777  10.152   8.375
 1719POPC   C3B23757  17.826  10.176   7.945
 1719POPC   C4B23758  17.543  10.242   7.598
 1720POPC   NC323759  25.006  29.125   9.495
 1720POPC   PO423760  25.412  28.718   9.743
 1720POPC   GL123761  25.391  28.909   9.245
 1720POPC   GL223762  25.276  29.265   9.094
 1720POPC   C1A23763  25.486  28.941   8.739
 1720POPC   D2A23764  25.285  28.920   8.326
 1720POPC   C3A23765  25.409  29.086   7.923
 1720POPC   C4A23766  25.575  28.764   7.623
 1720POPC   C1B23767  25.307  29.411   8.663
 1720POPC   C2B23768  25.062  29.388   8.283
 1720POPC   C3B23769  24.896  29.113   7.941
 1720POPC   C4B23770  25.091  28.916   7.548
 1721POPC   NC323771   8.606  38.763   9.381
 1721POPC   PO423772   9.218  38.470   9.461
 1721POPC   GL123773   8.983  38.540   9.099
 1721POPC   GL223774   9.074  38.862   9.125
 1721POPC   C1A23775   8.817  38.458   8.683
 1721POPC   D2A23776   9.147  38.330   8.393
 1721POPC   C3A23777   9.009  38.343   7.960
 1721POPC   C4A23778   9.189  38.363   7.551
 1721POPC   C1B23779   9.201  38.794   8.679
 1721POPC   C2B23780   9.080  38.828   8.249
 1721POPC   C3B23781   9.151  38.815   7.807
 1721POPC   C4B23782   9.075  38.826   7.369
 1722POPC   NC323783  31.226  33.577   9.552
 1722POPC   PO423784  31.550  34.098   9.421
 1722POPC   GL123785  31.482  33.727   9.144
 1722POPC   GL223786  31.551  33.932   8.873
 1722POPC   C1A23787  31.213  33.564   8.793
 1722POPC   D2A23788  31.311  33.776   8.401
 1722POPC   C3A23789  31.182  33.571   8.035
 1722POPC   C4A23790  30.902  33.630   7.691
 1722POPC   C1B23791  31.717  33.563   8.643
 1722POPC   C2B23792  31.670  33.530   8.166
 1722POPC   C3B23793  31.587  33.790   7.788
 1722POPC   C4B23794  31.839  33.727   7.385
 1723POPC   NC323795  31.640   3.265   9.323
 1723POPC   PO423796  31.143   3.659   9.537
 1723POPC   GL123797  31.324   3.639   9.070
 1723POPC   GL223798  31.694   3.661   9.003
 1723POPC   C1A23799  31.368   3.441   8.656
 1723POPC   D2A23800  31.429   3.319   8.242
 1723POPC   C3A23801  31.497   3.664   7.978
 1723POPC   C4A23802  31.311   3.963   7.794
 1723POPC   C1B23803  31.881   3.335   8.679
 1723POPC   C2B23804  31.771   2.949   8.406
 1723POPC   C3B23805  31.675   2.957   7.956
 1723POPC   C4B23806  31.681   3.321   7.679
 1724POPC   NC323807  26.605  29.344   9.448
 1724POPC   PO423808  27.127  28.864   9.600
 1724POPC   GL123809  27.107  28.966   9.152
 1724POPC   GL223810  26.947  29.263   9.092
 1724POPC   C1A23811  27.121  29.061   8.668
 1724POPC   D2A23812  27.314  29.356   8.385
 1724POPC   C3A23813  27.139  29.295   7.982
 1724POPC   C4A23814  26.799  29.055   7.865
 1724POPC   C1B23815  26.630  29.135   8.787
 1724POPC   C2B23816  26.560  29.160   8.339
 1724POPC   C3B23817  26.354  28.869   8.021
 1724POPC   C4B23818  26.500  28.769   7.576
 1725POPC   NC323819  16.923  35.488   9.989
 1725POPC   PO423820  16.479  35.302   9.604
 1725POPC   GL123821  16.430  35.418   9.149
 1725POPC   GL223822  16.792  35.468   9.095
 1725POPC   C1A23823  16.519  35.210   8.739
 1725POPC   D2A23824  16.844  35.046   8.475
 1725POPC   C3A23825  16.740  35.192   8.083
 1725POPC   C4A23826  16.702  35.037   7.707
 1725POPC   C1B23827  16.595  35.740   8.785
 1725POPC   C2B23828  16.682  35.679   8.364
 1725POPC   C3B23829  16.481  35.734   7.984
 1725POPC   C4B23830  16.712  35.559   7.692
 1726POPC   NC323831  27.538   2.485   9.574
 1726POPC   PO423832  27.681   3.081   9.475
 1726POPC   GL123833  27.464   2.818   9.183
 1726POPC   GL223834  27.770   2.610   9.124
 1726POPC   C1A23835  27.389   2.691   8.744
 1726POPC   D2A23836  27.296   2.850   8.322
 1726POPC   C3A23837  27.537   2.721   7.963
 1726POPC   C4A23838  27.474   2.642   7.555
 1726POPC   C1B23839  27.809   2.962   8.828
 1726POPC   C2B23840  27.800   2.945   8.386
 1726POPC   C3B23841  27.768   3.165   7.983
 1726POPC   C4B23842  27.797   3.051   7.545
 1727POPC   NC323843  14.029   4.420   9.523
 1727POPC   PO423844  13.293   4.316   9.535
 1727POPC   GL123845  13.515   4.389   9.137
 1727POPC   GL223846  13.836   4.557   9.075
 1727POPC   C1A23847  13.558   4.189   8.725
 1727POPC   D2A23848  13.416   3.985   8.359
 1727POPC   C3A23849  13.545   4.108   7.972
 1727POPC   C4A23850  13.380   4.237   7.576
 1727POPC   C1B23851  14.036   4.403   8.696
 1727POPC   C2B23852  13.876   4.304   8.332
 1727POPC   C3B23853  14.084   4.334   7.987
 1727POPC   C4B23854  13.890   4.248   7.614
 1728POPC   NC323855  19.985  32.906   9.606
 1728POPC   PO423856  19.620  33.361   9.318
 1728POPC   GL123857  19.823  33.080   9.058
 1728POPC   GL223858  19.726  32.759   9.143
 1728POPC   C1A23859  20.083  33.115   8.698
 1728POPC   D2A23860  20.028  33.367   8.337
 1728POPC   C3A23861  19.816  33.122   8.051
 1728POPC   C4A23862  19.777  33.144   7.639
 1728POPC   C1B23863  19.895  32.627   8.728
 1728POPC   C2B23864  20.053  32.737   8.316
 1728POPC   C3B23865  20.119  32.684   7.878
 1728POPC   C4B23866  20.021  32.734   7.444
 1729POPC   NC323867  41.754  24.170   9.538
 1729POPC   PO423868  41.597  24.818   9.470
 1729POPC   GL123869  41.630  24.708   9.101
 1729POPC   GL223870  41.484  24.372   9.169
 1729POPC   C1A23871  41.655  24.921   8.710
 1729POPC   D2A23872  41.463  24.774   8.364
 1729POPC   C3A23873  41.578  24.590   7.987
 1729POPC   C4A23874  41.352  24.420   7.654
 1729POPC   C1B23875  41.480  24.370   8.755
 1729POPC   C2B23876  41.670  24.287   8.413
 1729POPC   C3B23877  41.489  24.088   8.070
 1729POPC   C4B23878  41.715  24.096   7.711
 1730POPC   NC323879  15.428   3.680   9.425
 1730POPC   PO423880  14.768   3.577   9.518
 1730POPC   GL123881  15.055   3.417   9.159
 1730POPC   GL223882  14.913   3.313   8.843
 1730POPC   C1A23883  15.399   3.475   8.823
 1730POPC   D2A23884  15.513   3.370   8.424
 1730POPC   C3A23885  15.377   3.619   8.103
 1730POPC   C4A23886  15.332   3.540   7.726
 1730POPC   C1B23887  15.019   3.586   8.497
 1730POPC   C2B23888  15.022   3.983   8.281
 1730POPC   C3B23889  14.963   3.883   7.897
 1730POPC   C4B23890  14.825   3.452   7.923
 1731POPC   NC323891  42.832  20.682   9.685
 1731POPC   PO423892  43.185  20.103   9.525
 1731POPC   GL123893  42.986  20.442   9.247
 1731POPC   GL223894  43.226  20.740   9.196
 1731POPC   C1A23895  42.907  20.592   8.820
 1731POPC   D2A23896  43.239  20.613   8.496
 1731POPC   C3A23897  43.143  20.631   8.053
 1731POPC   C4A23898  43.061  20.484   7.633
 1731POPC   C1B23899  43.179  21.038   8.810
 1731POPC   C2B23900  43.042  21.091   8.407
 1731POPC   C3B23901  43.161  21.153   8.014
 1731POPC   C4B23902  43.225  20.959   7.629
 1732POPC   NC323903  27.163  18.653   9.527
 1732POPC   PO423904  26.604  18.200   9.546
 1732POPC   GL123905  26.679  18.304   9.184
 1732POPC   GL223906  26.762  18.667   9.194
 1732POPC   C1A23907  26.748  18.037   8.843
 1732POPC   D2A23908  26.696  18.158   8.413
 1732POPC   C3A23909  26.956  18.032   8.066
 1732POPC   C4A23910  27.077  18.070   7.656
 1732POPC   C1B23911  26.822  18.529   8.767
 1732POPC   C2B23912  27.026  18.584   8.414
 1732POPC   C3B23913  26.823  18.517   8.080
 1732POPC   C4B23914  26.792  18.490   7.703
 1733POPC   NC323915  14.790  31.640   9.545
 1733POPC   PO423916  14.144  31.378   9.481
 1733POPC   GL123917  14.376  31.377   9.126
 1733POPC   GL223918  14.149  31.079   9.027
 1733POPC   C1A23919  14.498  31.620   8.768
 1733POPC   D2A23920  14.340  31.885   8.432
 1733POPC   C3A23921  14.424  31.759   8.011
 1733POPC   C4A23922  14.651  31.533   7.713
 1733POPC   C1B23923  14.485  31.083   8.724
 1733POPC   C2B23924  14.490  31.324   8.332
 1733POPC   C3B23925  14.284  31.252   7.945
 1733POPC   C4B23926  14.271  30.995   7.582
 1734POPC   NC323927  23.016   7.040   9.434
 1734POPC   PO423928  23.072   6.348   9.347
 1734POPC   GL123929  22.878   6.667   9.109
 1734POPC   GL223930  23.239   6.775   9.040
 1734POPC   C1A23931  22.847   6.889   8.717
 1734POPC   D2A23932  23.169   6.905   8.389
 1734POPC   C3A23933  22.996   6.764   7.998
 1734POPC   C4A23934  22.589   6.639   7.809
 1734POPC   C1B23935  23.166   6.480   8.703
 1734POPC   C2B23936  22.846   6.454   8.393
 1734POPC   C3B23937  23.062   6.268   8.059
 1734POPC   C4B23938  23.300   6.400   7.708
 1735POPC   NC323939   9.205  40.203   9.657
 1735POPC   PO423940   8.593  40.208   9.381
 1735POPC   GL123941   9.005  40.131   9.172
 1735POPC   GL223942   9.149  39.805   9.064
 1735POPC   C1A23943   8.967  40.163   8.740
 1735POPC   D2A23944   9.126  40.276   8.376
 1735POPC   C3A23945   9.164  39.906   8.117
 1735POPC   C4A23946   9.118  39.964   7.681
 1735POPC   C1B23947   8.926  39.622   8.748
 1735POPC   C2B23948   8.739  39.716   8.350
 1735POPC   C3B23949   8.728  39.676   7.909
 1735POPC   C4B23950   8.684  39.630   7.461
 1736POPC   NC323951  39.610  24.988   9.743
 1736POPC   PO423952  39.179  25.468   9.490
 1736POPC   GL123953  39.185  25.142   9.225
 1736POPC   GL223954  39.480  25.272   9.051
 1736POPC   C1A23955  39.012  25.173   8.838
 1736POPC   D2A23956  39.213  25.335   8.458
 1736POPC   C3A23957  38.995  25.262   8.065
 1736POPC   C4A23958  39.020  24.980   7.689
 1736POPC   C1B23959  39.612  25.595   8.777
 1736POPC   C2B23960  39.583  25.681   8.341
 1736POPC   C3B23961  39.511  25.451   7.961
 1736POPC   C4B23962  39.549  25.644   7.577
 1737POPC   NC323963  10.723  19.095   9.464
 1737POPC   PO423964  10.057  19.290   9.541
 1737POPC   GL123965  10.365  19.339   9.169
 1737POPC   GL223966  10.699  19.360   9.017
 1737POPC   C1A23967  10.440  18.979   8.850
 1737POPC   D2A23968  10.592  18.883   8.436
 1737POPC   C3A23969  10.360  19.002   8.085
 1737POPC   C4A23970  10.424  18.917   7.679
 1737POPC   C1B23971  10.902  19.491   8.654
 1737POPC   C2B23972  10.829  19.313   8.245
 1737POPC   C3B23973  10.710  19.323   7.823
 1737POPC   C4B23974  10.580  19.288   7.368
 1738POPC   NC323975  23.255  32.051   9.404
 1738POPC   PO423976  22.846  32.520   9.462
 1738POPC   GL123977  22.986  32.393   9.092
 1738POPC   GL223978  22.825  32.069   9.135
 1738POPC   C1A23979  22.817  32.566   8.716
 1738POPC   D2A23980  22.618  32.424   8.359
 1738POPC   C3A23981  22.922  32.471   8.056
 1738POPC   C4A23982  23.092  32.247   7.741
 1738POPC   C1B23983  22.637  32.064   8.746
 1738POPC   C2B23984  22.681  31.899   8.337
 1738POPC   C3B23985  22.576  32.090   7.966
 1738POPC   C4B23986  22.639  32.016   7.568
 1739POPC   NC323987   7.613  36.270   9.635
 1739POPC   PO423988   6.968  36.236   9.552
 1739POPC   GL123989   7.251  36.144   9.213
 1739POPC   GL223990   7.558  36.302   9.122
 1739POPC   C1A23991   7.199  36.047   8.763
 1739POPC   D2A23992   7.463  36.104   8.403
 1739POPC   C3A23993   7.326  35.856   8.039
 1739POPC   C4A23994   7.409  35.769   7.582
 1739POPC   C1B23995   7.285  36.545   8.842
 1739POPC   C2B23996   7.132  36.525   8.439
 1739POPC   C3B23997   7.266  36.386   8.034
 1739POPC   C4B23998   7.639  36.190   7.835
 1740POPC   NC323999  43.320  21.550   9.592
 1740POPC   PO424000  42.912  21.062   9.459
 1740POPC   GL124001  43.070  21.352   9.193
 1740POPC   GL224002  43.419  21.224   9.212
 1740POPC   C1A24003  42.897  21.557   8.822
 1740POPC   D2A24004  42.845  21.770   8.421
 1740POPC   C3A24005  42.785  21.511   8.056
 1740POPC   C4A24006  42.853  21.307   7.634
 1740POPC   C1B24007  43.451  21.529   8.881
 1740POPC   C2B24008  43.290  21.529   8.470
 1740POPC   C3B24009  43.307  21.643   8.056
 1740POPC   C4B24010  43.382  21.444   7.644
 1741POPC   NC324011  10.955  22.440   9.527
 1741POPC   PO424012  10.462  22.158   9.551
 1741POPC   GL124013  10.699  22.217   9.150
 1741POPC   GL224014  10.749  21.897   9.053
 1741POPC   C1A24015  10.728  22.307   8.693
 1741POPC   D2A24016  10.605  22.135   8.276
 1741POPC   C3A24017  10.565  22.323   7.860
 1741POPC   C4A24018  10.323  22.495   7.480
 1741POPC   C1B24019  10.635  21.761   8.666
 1741POPC   C2B24020  10.774  21.678   8.259
 1741POPC   C3B24021  10.564  21.786   7.847
 1741POPC   C4B24022  10.573  22.030   7.445
 1742POPC   NC324023  13.708  19.351   9.613
 1742POPC   PO424024  14.063  18.810   9.470
 1742POPC   GL124025  13.824  18.899   9.090
 1742POPC   GL224026  13.685  19.240   9.111
 1742POPC   C1A24027  13.496  18.944   8.748
 1742POPC   D2A24028  13.183  18.963   8.442
 1742POPC   C3A24029  13.412  19.220   8.187
 1742POPC   C4A24030  13.624  19.052   7.839
 1742POPC   C1B24031  13.919  19.254   8.717
 1742POPC   C2B24032  13.925  19.126   8.298
 1742POPC   C3B24033  14.032  19.308   7.925
 1742POPC   C4B24034  14.359  19.300   7.701
 1743POPC   NC324035  20.282  15.956   9.536
 1743POPC   PO424036  20.812  16.324   9.249
 1743POPC   GL124037  20.860  16.002   9.020
 1743POPC   GL224038  20.560  15.806   9.123
 1743POPC   C1A24039  20.799  15.912   8.599
 1743POPC   D2A24040  20.985  15.677   8.271
 1743POPC   C3A24041  20.832  15.898   7.910
 1743POPC   C4A24042  20.635  16.308   7.922
 1743POPC   C1B24043  20.365  16.101   8.831
 1743POPC   C2B24044  20.359  16.135   8.356
 1743POPC   C3B24045  20.230  16.005   7.937
 1743POPC   C4B24046  20.398  15.715   7.664
 1744POPC   NC324047   1.595  25.245   9.506
 1744POPC   PO424048   1.980  25.775   9.629
 1744POPC   GL124049   2.028  25.436   9.229
 1744POPC   GL224050   2.362  25.373   9.101
 1744POPC   C1A24051   1.860  25.145   8.883
 1744POPC   D2A24052   1.720  24.988   8.459
 1744POPC   C3A24053   1.736  25.223   8.042
 1744POPC   C4A24054   1.786  25.556   7.706
 1744POPC   C1B24055   2.355  25.137   8.725
 1744POPC   C2B24056   2.182  25.209   8.317
 1744POPC   C3B24057   2.203  25.306   7.877
 1744POPC   C4B24058   2.114  25.253   7.439
 1745POPC   NC324059  30.377  28.236   9.519
 1745POPC   PO424060  31.015  28.452   9.403
 1745POPC   GL124061  30.842  28.469   9.021
 1745POPC   GL224062  30.563  28.259   9.039
 1745POPC   C1A24063  30.653  28.582   8.646
 1745POPC   D2A24064  30.816  28.420   8.291
 1745POPC   C3A24065  30.668  28.483   7.903
 1745POPC   C4A24066  30.899  28.387   7.506
 1745POPC   C1B24067  30.463  28.087   8.632
 1745POPC   C2B24068  30.530  27.972   8.205
 1745POPC   C3B24069  30.434  28.057   7.774
 1745POPC   C4B24070  30.266  27.812   7.417
 1746POPC   NC324071   9.644  31.942   9.497
 1746POPC   PO424072   9.433  32.582   9.681
 1746POPC   GL124073   9.518  32.395   9.242
 1746POPC   GL224074   9.817  32.522   9.036
 1746POPC   C1A24075   9.479  32.198   8.803
 1746POPC   D2A24076   9.614  32.294   8.353
 1746POPC   C3A24077   9.529  32.269   7.902
 1746POPC   C4A24078   9.831  32.267   7.584
 1746POPC   C1B24079   9.982  32.184   8.733
 1746POPC   C2B24080   9.884  31.866   8.413
 1746POPC   C3B24081   9.929  31.921   7.973
 1746POPC   C4B24082  10.282  32.180   7.838
 1747POPC   NC324083   5.380  21.733   9.367
 1747POPC   PO424084   5.776  21.259   9.586
 1747POPC   GL124085   5.903  21.205   9.153
 1747POPC   GL224086   6.090  21.532   9.043
 1747POPC   C1A24087   5.661  21.118   8.779
 1747POPC   D2A24088   5.742  20.990   8.352
 1747POPC   C3A24089   5.534  21.240   8.027
 1747POPC   C4A24090   5.861  21.392   7.739
 1747POPC   C1B24091   5.728  21.633   8.823
 1747POPC   C2B24092   5.542  21.602   8.429
 1747POPC   C3B24093   5.615  21.747   8.035
 1747POPC   C4B24094   5.442  21.680   7.644
 1748POPC   NC324095  44.027  33.379   9.580
 1748POPC   PO424096  43.515  32.946   9.621
 1748POPC   GL124097  43.856  32.973   9.302
 1748POPC   GL224098  43.671  33.232   9.209
 1748POPC   C1A24099  44.009  33.082   8.846
 1748POPC   D2A24100  44.036  32.826   8.443
 1748POPC   C3A24101  43.963  33.027   8.018
 1748POPC   C4A24102  44.039  33.292   7.636
 1748POPC   C1B24103  43.486  33.011   8.857
 1748POPC   C2B24104  43.597  33.080   8.422
 1748POPC   C3B24105  43.456  32.920   8.013
 1748POPC   C4B24106  43.580  33.048   7.606
 1749POPC   NC324107   3.650   5.485   9.529
 1749POPC   PO424108   3.864   6.076   9.507
 1749POPC   GL124109   3.507   5.900   9.214
 1749POPC   GL224110   3.449   5.585   9.054
 1749POPC   C1A24111   3.257   6.127   8.904
 1749POPC   D2A24112   3.350   6.187   8.478
 1749POPC   C3A24113   3.169   5.931   8.191
 1749POPC   C4A24114   3.310   5.850   7.804
 1749POPC   C1B24115   3.650   5.839   8.703
 1749POPC   C2B24116   3.678   5.870   8.220
 1749POPC   C3B24117   3.829   5.869   7.773
 1749POPC   C4B24118   4.046   5.828   7.363
 1750POPC   NC324119  31.549  20.903   9.495
 1750POPC   PO424120  31.224  20.358   9.622
 1750POPC   GL124121  31.319  20.499   9.221
 1750POPC   GL224122  31.242  20.829   9.101
 1750POPC   C1A24123  31.367  20.440   8.784
 1750POPC   D2A24124  31.161  20.329   8.400
 1750POPC   C3A24125  31.440  20.308   8.054
 1750POPC   C4A24126  31.364  20.547   7.703
 1750POPC   C1B24127  31.664  20.833   8.820
 1750POPC   C2B24128  31.628  20.694   8.368
 1750POPC   C3B24129  31.626  20.891   7.959
 1750POPC   C4B24130  31.830  21.009   7.571
 1751POPC   NC324131  34.221  10.853   9.355
 1751POPC   PO424132  34.828  10.518   9.533
 1751POPC   GL124133  34.584  10.503   9.174
 1751POPC   GL224134  34.628  10.792   9.047
 1751POPC   C1A24135  34.421  10.446   8.739
 1751POPC   D2A24136  34.240  10.559   8.331
 1751POPC   C3A24137  34.515  10.636   7.986
 1751POPC   C4A24138  34.549  10.341   7.643
 1751POPC   C1B24139  34.359  11.022   8.743
 1751POPC   C2B24140  34.144  11.063   8.356
 1751POPC   C3B24141  34.166  11.042   7.927
 1751POPC   C4B24142  34.251  10.757   7.569
 1752POPC   NC324143  42.270   9.272   9.770
 1752POPC   PO424144  42.529   9.934   9.589
 1752POPC   GL124145  42.471   9.856   9.126
 1752POPC   GL224146  42.632  10.123   8.970
 1752POPC   C1A24147  42.397   9.552   8.768
 1752POPC   D2A24148  42.431   9.414   8.343
 1752POPC   C3A24149  42.229   9.623   8.010
 1752POPC   C4A24150  42.302   9.874   7.651
 1752POPC   C1B24151  42.701   9.903   8.566
 1752POPC   C2B24152  42.542  10.022   8.160
 1752POPC   C3B24153  42.682  10.172   7.771
 1752POPC   C4B24154  42.642  10.056   7.314
 1753POPC   NC324155  16.124   5.953   9.349
 1753POPC   PO424156  15.490   5.665   9.482
 1753POPC   GL124157  15.708   5.745   9.113
 1753POPC   GL224158  15.991   5.529   9.021
 1753POPC   C1A24159  15.854   5.971   8.742
 1753POPC   D2A24160  16.003   6.075   8.325
 1753POPC   C3A24161  15.757   5.991   7.947
 1753POPC   C4A24162  15.785   5.975   7.497
 1753POPC   C1B24163  15.713   5.457   8.706
 1753POPC   C2B24164  15.627   5.662   8.345
 1753POPC   C3B24165  15.855   5.490   8.036
 1753POPC   C4B24166  15.830   5.429   7.631
 1754POPC   NC324167  40.463  44.870   9.514
 1754POPC   PO424168  39.974  44.406   9.522
 1754POPC   GL124169  39.833  44.721   9.210
 1754POPC   GL224170  40.162  44.716   9.094
 1754POPC   C1A24171  39.775  44.717   8.739
 1754POPC   D2A24172  39.989  44.754   8.324
 1754POPC   C3A24173  39.840  44.556   7.885
 1754POPC   C4A24174  39.850  44.397   7.471
 1754POPC   C1B24175  40.340  44.889   8.725
 1754POPC   C2B24176  40.502  44.764   8.321
 1754POPC   C3B24177  40.328  44.663   7.953
 1754POPC   C4B24178  40.221  44.739   7.561
 1755POPC   NC324179  16.796   3.823   9.483
 1755POPC   PO424180  16.629   4.473   9.694
 1755POPC   GL124181  16.568   4.391   9.217
 1755POPC   GL224182  16.827   4.174   9.128
 1755POPC   C1A24183  16.608   4.420   8.739
 1755POPC   D2A24184  16.810   4.540   8.332
 1755POPC   C3A24185  16.668   4.493   7.892
 1755POPC   C4A24186  16.410   4.210   7.670
 1755POPC   C1B24187  16.567   3.889   8.835
 1755POPC   C2B24188  16.513   3.767   8.390
 1755POPC   C3B24189  16.716   4.029   8.106
 1755POPC   C4B24190  16.866   4.004   7.701
 1756POPC   NC324191  37.849  44.002   9.443
 1756POPC   PO424192  37.254  44.056   9.351
 1756POPC   GL124193  37.466  43.772   9.081
 1756POPC   GL224194  37.717  43.534   9.186
 1756POPC   C1A24195  37.474  43.862   8.689
 1756POPC   D2A24196  37.643  44.202   8.479
 1756POPC   C3A24197  37.858  44.104   8.105
 1756POPC   C4A24198  37.779  44.140   7.675
 1756POPC   C1B24199  37.918  43.641   8.787
 1756POPC   C2B24200  37.783  43.671   8.338
 1756POPC   C3B24201  37.746  43.673   7.892
 1756POPC   C4B24202  37.373  43.808   7.688
 1757POPC   NC324203  12.531  33.656   9.521
 1757POPC   PO424204  13.162  33.981   9.489
 1757POPC   GL124205  12.904  33.784   9.170
 1757POPC   GL224206  12.579  33.861   9.049
 1757POPC   C1A24207  12.965  33.707   8.741
 1757POPC   D2A24208  12.851  33.574   8.349
 1757POPC   C3A24209  12.650  33.843   8.117
 1757POPC   C4A24210  12.805  33.775   7.751
 1757POPC   C1B24211  12.478  33.492   8.839
 1757POPC   C2B24212  12.355  33.470   8.411
 1757POPC   C3B24213  12.380  33.443   7.949
 1757POPC   C4B24214  12.184  33.655   7.569
 1758POPC   NC324215   3.271  11.137   9.663
 1758POPC   PO424216   2.713  11.424   9.598
 1758POPC   GL124217   3.013  11.432   9.276
 1758POPC   GL224218   2.712  11.410   9.079
 1758POPC   C1A24219   3.160  11.400   8.832
 1758POPC   D2A24220   2.971  11.286   8.431
 1758POPC   C3A24221   3.160  11.405   8.017
 1758POPC   C4A24222   2.982  11.366   7.622
 1758POPC   C1B24223   2.708  11.731   8.772
 1758POPC   C2B24224   2.553  11.662   8.391
 1758POPC   C3B24225   2.651  11.515   8.017
 1758POPC   C4B24226   2.504  11.729   7.658
 1759POPC   NC324227  21.829  33.148   9.523
 1759POPC   PO424228  22.361  32.808   9.726
 1759POPC   GL124229  22.297  32.905   9.298
 1759POPC   GL224230  22.460  33.231   9.352
 1759POPC   C1A24231  22.046  32.912   8.873
 1759POPC   D2A24232  21.731  33.043   8.551
 1759POPC   C3A24233  21.753  33.026   8.099
 1759POPC   C4A24234  22.049  32.868   7.778
 1759POPC   C1B24235  22.212  33.363   9.020
 1759POPC   C2B24236  22.162  33.325   8.559
 1759POPC   C3B24237  22.222  33.211   8.146
 1759POPC   C4B24238  22.194  33.354   7.749
 1760POPC   NC324239  30.212  33.996   9.374
 1760POPC   PO424240  30.756  34.071   9.771
 1760POPC   GL124241  30.727  34.105   9.289
 1760POPC   GL224242  30.934  33.808   9.164
 1760POPC   C1A24243  30.690  34.104   8.817
 1760POPC   D2A24244  30.818  33.818   8.490
 1760POPC   C3A24245  30.910  33.991   8.087
 1760POPC   C4A24246  30.650  34.051   7.720
 1760POPC   C1B24247  30.563  33.629   8.908
 1760POPC   C2B24248  30.401  33.524   8.476
 1760POPC   C3B24249  30.512  33.665   8.073
 1760POPC   C4B24250  30.390  33.590   7.660
 1761POPC   NC324251  23.856   4.073   9.466
 1761POPC   PO424252  23.719   3.511   9.803
 1761POPC   GL124253  23.611   3.484   9.335
 1761POPC   GL224254  23.866   3.636   9.158
 1761POPC   C1A24255  23.496   3.423   8.867
 1761POPC   D2A24256  23.246   3.637   8.526
 1761POPC   C3A24257  23.346   3.467   8.115
 1761POPC   C4A24258  23.537   3.531   7.714
 1761POPC   C1B24259  24.045   3.482   8.776
 1761POPC   C2B24260  24.215   3.509   8.357
 1761POPC   C3B24261  24.013   3.615   7.980
 1761POPC   C4B24262  24.005   3.557   7.548
 1762POPC   NC324263  20.940   6.181   9.655
 1762POPC   PO424264  20.589   5.687   9.427
 1762POPC   GL124265  20.618   6.042   9.193
 1762POPC   GL224266  20.972   6.009   9.176
 1762POPC   C1A24267  20.410   6.164   8.793
 1762POPC   D2A24268  20.193   6.128   8.397
 1762POPC   C3A24269  20.410   6.194   8.023
 1762POPC   C4A24270  20.379   5.971   7.616
 1762POPC   C1B24271  20.841   5.843   8.774
 1762POPC   C2B24272  20.704   5.976   8.381
 1762POPC   C3B24273  20.745   5.785   7.963
 1762POPC   C4B24274  20.882   5.755   7.539
 1763POPC   NC324275  19.132   0.186   9.854
 1763POPC   PO424276  19.159  44.542   9.471
 1763POPC   GL124277  19.009  44.718   9.119
 1763POPC   GL224278  18.684  44.576   9.153
 1763POPC   C1A24279  19.158  44.757   8.707
 1763POPC   D2A24280  19.182  44.484   8.365
 1763POPC   C3A24281  19.273  44.728   8.011
 1763POPC   C4A24282  19.661  44.851   7.841
 1763POPC   C1B24283  18.624  44.964   8.892
 1763POPC   C2B24284  18.757   0.067   8.469
 1763POPC   C3B24285  18.772  44.741   8.152
 1763POPC   C4B24286  18.830  44.581   7.735
 1764POPC   NC324287  40.635  11.583   9.507
 1764POPC   PO424288  41.282  11.105   9.368
 1764POPC   GL124289  40.990  11.276   9.045
 1764POPC   GL224290  40.643  11.217   9.159
 1764POPC   C1A24291  41.041  11.447   8.619
 1764POPC   D2A24292  41.203  11.750   8.308
 1764POPC   C3A24293  41.140  11.528   7.894
 1764POPC   C4A24294  40.733  11.246   7.901
 1764POPC   C1B24295  40.560  11.436   8.798
 1764POPC   C2B24296  40.534  11.227   8.393
 1764POPC   C3B24297  40.339  10.942   8.092
 1764POPC   C4B24298  40.206  11.024   7.696
 1765POPC   NC324299   0.238  12.194   9.472
 1765POPC   PO424300   0.867  12.427   9.146
 1765POPC   GL124301   0.557  12.058   9.034
 1765POPC   GL224302   0.205  11.942   9.051
 1765POPC   C1A24303   0.548  12.082   8.648
 1765POPC   D2A24304   0.678  12.441   8.469
 1765POPC   C3A24305   0.654  12.276   8.079
 1765POPC   C4A24306   0.263  12.322   7.841
 1765POPC   C1B24307   0.063  11.957   8.649
 1765POPC   C2B24308   0.216  12.007   8.244
 1765POPC   C3B24309   0.123  11.814   7.835
 1765POPC   C4B24310   0.240  11.871   7.407
 1766POPC   NC324311  16.664  12.414   9.621
 1766POPC   PO424312  16.970  11.795   9.704
 1766POPC   GL124313  17.015  11.843   9.248
 1766POPC   GL224314  16.939  12.199   9.244
 1766POPC   C1A24315  16.746  11.885   8.880
 1766POPC   D2A24316  16.727  12.019   8.458
 1766POPC   C3A24317  16.513  11.797   8.132
 1766POPC   C4A24318  16.630  11.988   7.764
 1766POPC   C1B24319  16.991  12.394   8.846
 1766POPC   C2B24320  17.126  12.350   8.418
 1766POPC   C3B24321  16.951  12.299   8.035
 1766POPC   C4B24322  17.061  12.489   7.685
 1767POPC   NC324323  34.826  22.285   9.587
 1767POPC   PO424324  34.227  21.905   9.697
 1767POPC   GL124325  34.361  22.168   9.303
 1767POPC   GL224326  34.609  22.416   9.157
 1767POPC   C1A24327  34.254  22.232   8.841
 1767POPC   D2A24328  34.419  22.043   8.468
 1767POPC   C3A24329  34.402  22.307   8.150
 1767POPC   C4A24330  34.362  22.323   7.737
 1767POPC   C1B24331  34.778  22.181   8.803
 1767POPC   C2B24332  34.878  22.299   8.390
 1767POPC   C3B24333  34.899  22.181   7.972
 1767POPC   C4B24334  34.896  22.410   7.616
 1768POPC   NC324335  27.261  19.481   9.471
 1768POPC   PO424336  26.847  20.067   9.517
 1768POPC   GL124337  26.872  19.965   9.105
 1768POPC   GL224338  26.890  19.633   9.130
 1768POPC   C1A24339  26.864  20.122   8.684
 1768POPC   D2A24340  26.655  20.190   8.293
 1768POPC   C3A24341  26.913  20.064   7.994
 1768POPC   C4A24342  26.909  19.783   7.673
 1768POPC   C1B24343  26.977  19.536   8.699
 1768POPC   C2B24344  26.941  19.588   8.248
 1768POPC   C3B24345  26.709  19.381   7.953
 1768POPC   C4B24346  26.783  19.308   7.569
 1769POPC   NC324347   9.293  37.226   9.742
 1769POPC   PO424348   8.879  36.771   9.573
 1769POPC   GL124349   8.841  37.097   9.177
 1769POPC   GL224350   8.528  37.051   9.034
 1769POPC   C1A24351   8.861  37.162   8.661
 1769POPC   D2A24352   8.628  37.020   8.267
 1769POPC   C3A24353   8.904  36.887   7.920
 1769POPC   C4A24354   9.326  36.920   7.795
 1769POPC   C1B24355   8.618  36.715   8.687
 1769POPC   C2B24356   8.811  36.531   8.279
 1769POPC   C3B24357   8.832  36.392   7.818
 1769POPC   C4B24358   8.711  36.584   7.400
 1770POPC   NC324359  40.344  36.626   9.476
 1770POPC   PO424360  40.940  37.021   9.575
 1770POPC   GL124361  40.888  36.895   9.157
 1770POPC   GL224362  40.605  37.058   9.174
 1770POPC   C1A24363  41.034  36.804   8.721
 1770POPC   D2A24364  41.127  37.043   8.345
 1770POPC   C3A24365  40.978  36.877   8.011
 1770POPC   C4A24366  40.607  36.938   7.833
 1770POPC   C1B24367  40.502  36.842   8.797
 1770POPC   C2B24368  40.618  36.771   8.369
 1770POPC   C3B24369  40.323  36.618   8.076
 1770POPC   C4B24370  40.336  36.506   7.635
 1771POPC   NC324371  34.771  15.923   9.549
 1771POPC   PO424372  34.286  16.303   9.440
 1771POPC   GL124373  34.475  16.067   9.122
 1771POPC   GL224374  34.431  15.716   9.161
 1771POPC   C1A24375  34.692  15.939   8.744
 1771POPC   D2A24376  34.805  15.663   8.402
 1771POPC   C3A24377  34.836  15.869   8.018
 1771POPC   C4A24378  34.632  16.067   7.686
 1771POPC   C1B24379  34.184  15.809   8.771
 1771POPC   C2B24380  34.303  15.953   8.360
 1771POPC   C3B24381  34.216  15.894   7.933
 1771POPC   C4B24382  34.483  15.576   7.751
 1772POPC   NC324383  13.327  33.488   9.508
 1772POPC   PO424384  13.274  32.804   9.548
 1772POPC   GL124385  13.567  32.862   9.175
 1772POPC   GL224386  13.494  33.206   9.136
 1772POPC   C1A24387  13.772  33.045   8.765
 1772POPC   D2A24388  13.675  33.236   8.378
 1772POPC   C3A24389  13.828  33.188   8.002
 1772POPC   C4A24390  13.759  32.845   7.765
 1772POPC   C1B24391  13.324  33.342   8.756
 1772POPC   C2B24392  13.347  33.600   8.385
 1772POPC   C3B24393  13.310  33.405   7.970
 1772POPC   C4B24394  13.588  33.409   7.606
 1773POPC   NC324395  42.391  42.838   9.558
 1773POPC   PO424396  42.062  43.405   9.550
 1773POPC   GL124397  42.224  43.162   9.139
 1773POPC   GL224398  42.292  42.806   9.051
 1773POPC   C1A24399  42.435  43.175   8.708
 1773POPC   D2A24400  42.399  43.365   8.280
 1773POPC   C3A24401  42.618  43.176   7.932
 1773POPC   C4A24402  42.513  42.758   7.737
 1773POPC   C1B24403  42.230  42.714   8.595
 1773POPC   C2B24404  42.061  42.959   8.251
 1773POPC   C3B24405  42.137  43.082   7.859
 1773POPC   C4B24406  42.097  42.929   7.438
 1774POPC   NC324407   0.013  21.287   9.570
 1774POPC   PO424408  44.339  21.360   9.603
 1774POPC   GL124409  44.580  21.247   9.255
 1774POPC   GL224410  44.363  21.020   9.095
 1774POPC   C1A24411  44.714  21.492   8.877
 1774POPC   D2A24412  44.700  21.838   8.551
 1774POPC   C3A24413  44.735  21.803   8.071
 1774POPC   C4A24414  44.929  21.685   7.640
 1774POPC   C1B24415  44.363  21.165   8.675
 1774POPC   C2B24416  44.643  21.356   8.380
 1774POPC   C3B24417  44.802  21.283   7.957
 1774POPC   C4B24418  44.722  21.238   7.504
 1775POPC   NC324419  10.731  15.448   9.383
 1775POPC   PO424420  11.452  15.431   9.424
 1775POPC   GL124421  11.257  15.115   9.099
 1775POPC   GL224422  10.907  14.972   9.052
 1775POPC   C1A24423  11.481  14.967   8.759
 1775POPC   D2A24424  11.442  15.160   8.381
 1775POPC   C3A24425  11.197  14.956   8.088
 1775POPC   C4A24426  11.420  15.035   7.748
 1775POPC   C1B24427  10.968  15.063   8.582
 1775POPC   C2B24428  10.971  15.390   8.214
 1775POPC   C3B24429  10.998  15.321   7.750
 1775POPC   C4B24430  11.098  15.000   7.354
 1776POPC   NC324431  13.715  31.119   9.445
 1776POPC   PO424432  13.480  31.828   9.477
 1776POPC   GL124433  13.637  31.563   9.180
 1776POPC   GL224434  13.317  31.363   9.235
 1776POPC   C1A24435  13.960  31.537   8.857
 1776POPC   D2A24436  14.031  31.277   8.541
 1776POPC   C3A24437  13.773  31.381   8.231
 1776POPC   C4A24438  13.806  31.429   7.830
 1776POPC   C1B24439  13.410  31.208   8.833
 1776POPC   C2B24440  13.137  31.209   8.466
 1776POPC   C3B24441  13.299  31.220   8.099
 1776POPC   C4B24442  13.312  31.493   7.751
 1777POPC   NC324443  29.120   5.615   9.803
 1777POPC   PO424444  29.444   6.201   9.540
 1777POPC   GL124445  29.392   5.897   9.214
 1777POPC   GL224446  29.070   5.753   9.225
 1777POPC   C1A24447  29.364   5.743   8.784
 1777POPC   D2A24448  29.460   5.923   8.372
 1777POPC   C3A24449  29.228   5.866   7.996
 1777POPC   C4A24450  29.239   5.794   7.513
 1777POPC   C1B24451  28.823   5.692   8.845
 1777POPC   C2B24452  28.995   5.623   8.445
 1777POPC   C3B24453  28.966   5.454   8.065
 1777POPC   C4B24454  28.762   5.529   7.712
 1778POPC   NC324455  33.439  32.060   9.605
 1778POPC   PO424456  32.724  32.067   9.470
 1778POPC   GL124457  32.953  32.248   9.135
 1778POPC   GL224458  33.257  32.090   9.092
 1778POPC   C1A24459  32.912  32.159   8.696
 1778POPC   D2A24460  33.060  32.339   8.311
 1778POPC   C3A24461  32.903  32.120   8.009
 1778POPC   C4A24462  32.617  32.101   7.657
 1778POPC   C1B24463  33.408  32.263   8.672
 1778POPC   C2B24464  33.484  32.638   8.398
 1778POPC   C3B24465  33.340  32.580   7.950
 1778POPC   C4B24466  33.297  32.180   7.722
 1779POPC   NC324467  28.081   1.011   9.676
 1779POPC   PO424468  28.742   1.275   9.566
 1779POPC   GL124469  28.531   1.337   9.197
 1779POPC   GL224470  28.428   1.009   9.139
 1779POPC   C1A24471  28.454   1.465   8.770
 1779POPC   D2A24472  28.655   1.546   8.389
 1779POPC   C3A24473  28.575   1.319   7.986
 1779POPC   C4A24474  28.644   0.936   7.814
 1779POPC   C1B24475  28.216   1.016   8.739
 1779POPC   C2B24476  28.206   1.228   8.331
 1779POPC   C3B24477  28.132   1.063   7.899
 1779POPC   C4B24478  27.953   0.846   7.536
 1780POPC   NC324479  27.840   8.397   9.549
 1780POPC   PO424480  28.401   7.989   9.622
 1780POPC   GL124481  28.322   8.325   9.323
 1780POPC   GL224482  28.064   8.137   9.158
 1780POPC   C1A24483  28.386   8.433   8.868
 1780POPC   D2A24484  28.347   8.152   8.476
 1780POPC   C3A24485  28.670   8.093   8.104
 1780POPC   C4A24486  28.589   7.914   7.654
 1780POPC   C1B24487  27.900   8.306   8.748
 1780POPC   C2B24488  27.998   8.527   8.356
 1780POPC   C3B24489  28.253   8.350   8.011
 1780POPC   C4B24490  28.351   8.392   7.575
 1781POPC   NC324491  31.270  32.221   9.258
 1781POPC   PO424492  31.817  32.213   9.637
 1781POPC   GL124493  31.798  32.198   9.169
 1781POPC   GL224494  31.615  31.884   9.127
 1781POPC   C1A24495  31.622  32.422   8.749
 1781POPC   D2A24496  31.562  32.625   8.335
 1781POPC   C3A24497  31.473  32.379   7.957
 1781POPC   C4A24498  31.690  32.407   7.534
 1781POPC   C1B24499  31.783  31.941   8.715
 1781POPC   C2B24500  31.685  32.098   8.331
 1781POPC   C3B24501  31.649  31.895   7.927
 1781POPC   C4B24502  31.342  32.021   7.601
 1782POPC   NC324503  13.093  18.411  10.037
 1782POPC   PO424504  12.658  18.653   9.564
 1782POPC   GL124505  12.831  18.413   9.205
 1782POPC   GL224506  12.873  18.036   9.170
 1782POPC   C1A24507  12.906  18.427   8.769
 1782POPC   D2A24508  12.842  18.246   8.386
 1782POPC   C3A24509  12.935  18.485   8.023
 1782POPC   C4A24510  12.609  18.472   7.699
 1782POPC   C1B24511  12.809  17.874   8.746
 1782POPC   C2B24512  12.680  17.776   8.298
 1782POPC   C3B24513  12.852  17.989   7.933
 1782POPC   C4B24514  13.091  18.175   7.639
 1783POPC   NC324515  17.042  36.724   9.345
 1783POPC   PO424516  17.631  36.617   9.610
 1783POPC   GL124517  17.552  36.813   9.186
 1783POPC   GL224518  17.284  36.993   8.978
 1783POPC   C1A24519  17.506  36.612   8.780
 1783POPC   D2A24520  17.336  36.862   8.459
 1783POPC   C3A24521  17.451  36.662   8.099
 1783POPC   C4A24522  17.478  36.809   7.671
 1783POPC   C1B24523  17.632  37.168   8.756
 1783POPC   C2B24524  17.631  37.278   8.296
 1783POPC   C3B24525  17.582  37.293   7.818
 1783POPC   C4B24526  17.689  37.348   7.356
 1784POPC   NC324527   0.320   2.449   9.451
 1784POPC   PO424528   0.373   3.143   9.447
 1784POPC   GL124529   0.180   2.850   9.180
 1784POPC   GL224530  44.881   2.934   9.041
 1784POPC   C1A24531   0.308   2.667   8.789
 1784POPC   D2A24532   0.571   2.792   8.433
 1784POPC   C3A24533   0.561   2.606   8.015
 1784POPC   C4A24534   0.680   2.576   7.595
 1784POPC   C1B24535   0.168   3.179   8.802
 1784POPC   C2B24536   0.368   3.257   8.427
 1784POPC   C3B24537   0.318   3.096   8.034
 1784POPC   C4B24538  44.956   3.233   7.874
 1785POPC   NC324539   3.306  11.930   9.574
 1785POPC   PO424540   3.941  12.220   9.535
 1785POPC   GL124541   3.730  11.948   9.262
 1785POPC   GL224542   3.466  12.159   9.162
 1785POPC   C1A24543   3.670  11.817   8.837
 1785POPC   D2A24544   3.806  11.854   8.407
 1785POPC   C3A24545   3.521  11.886   8.073
 1785POPC   C4A24546   3.446  12.006   7.659
 1785POPC   C1B24547   3.679  12.360   8.855
 1785POPC   C2B24548   3.566  12.330   8.425
 1785POPC   C3B24549   3.565  12.410   7.972
 1785POPC   C4B24550   3.159  12.417   7.739
 1786POPC   NC324551  33.557  34.033   9.396
 1786POPC   PO424552  33.697  33.388   9.415
 1786POPC   GL124553  33.995  33.651   9.158
 1786POPC   GL224554  33.973  34.000   9.081
 1786POPC   C1A24555  34.083  33.626   8.711
 1786POPC   D2A24556  33.801  33.738   8.357
 1786POPC   C3A24557  33.845  33.458   8.013
 1786POPC   C4A24558  34.074  33.564   7.637
 1786POPC   C1B24559  33.672  34.060   8.753
 1786POPC   C2B24560  33.509  34.325   8.436
 1786POPC   C3B24561  33.635  34.142   8.036
 1786POPC   C4B24562  33.632  33.824   7.731
 1787POPC   NC324563  16.837  32.417   9.618
 1787POPC   PO424564  16.595  31.981   9.273
 1787POPC   GL124565  16.902  32.291   9.098
 1787POPC   GL224566  17.139  32.578   9.247
 1787POPC   C1A24567  16.875  32.125   8.672
 1787POPC   D2A24568  16.485  32.040   8.421
 1787POPC   C3A24569  16.575  31.927   8.003
 1787POPC   C4A24570  16.545  32.179   7.640
 1787POPC   C1B24571  17.277  32.500   8.818
 1787POPC   C2B24572  17.240  32.338   8.400
 1787POPC   C3B24573  16.894  32.334   8.066
 1787POPC   C4B24574  16.932  32.467   7.598
 1788POPC   NC324575  40.475   4.881   9.577
 1788POPC   PO424576  41.019   5.186   9.438
 1788POPC   GL124577  40.789   5.046   9.099
 1788POPC   GL224578  40.411   5.013   9.080
 1788POPC   C1A24579  40.752   5.290   8.714
 1788POPC   D2A24580  40.588   5.320   8.305
 1788POPC   C3A24581  40.876   5.196   7.990
 1788POPC   C4A24582  40.833   5.100   7.578
 1788POPC   C1B24583  40.548   4.813   8.699
 1788POPC   C2B24584  40.747   4.780   8.295
 1788POPC   C3B24585  40.590   4.775   7.885
 1788POPC   C4B24586  40.539   4.678   7.426
 1789POPC   NC324587  44.489  38.352   9.509
 1789POPC   PO424588   0.193  38.270   9.398
 1789POPC   GL124589  44.887  38.455   9.197
 1789POPC   GL224590  44.681  38.183   9.058
 1789POPC   C1A24591  44.879  38.629   8.811
 1789POPC   D2A24592   0.086  38.774   8.448
 1789POPC   C3A24593  44.915  38.682   8.031
 1789POPC   C4A24594  44.893  38.266   7.892
 1789POPC   C1B24595  44.741  38.165   8.611
 1789POPC   C2B24596  44.411  38.203   8.281
 1789POPC   C3B24597  44.380  38.266   7.827
 1789POPC   C4B24598  44.384  38.326   7.369
 1790POPC   NC324599  27.932  26.823   9.526
 1790POPC   PO424600  27.547  27.331   9.713
 1790POPC   GL124601  27.456  26.959   9.325
 1790POPC   GL224602  27.156  27.041   9.075
 1790POPC   C1A24603  27.610  26.876   8.845
 1790POPC   D2A24604  27.740  26.548   8.508
 1790POPC   C3A24605  27.684  26.602   8.052
 1790POPC   C4A24606  27.618  26.522   7.588
 1790POPC   C1B24607  27.211  27.190   8.645
 1790POPC   C2B24608  27.481  27.018   8.331
 1790POPC   C3B24609  27.388  27.028   7.904
 1790POPC   C4B24610  27.071  27.091   7.648
 1791POPC   NC324611  39.784   4.267   9.741
 1791POPC   PO424612  40.237   4.573   9.332
 1791POPC   GL124613  39.927   4.482   9.074
 1791POPC   GL224614  39.883   4.135   9.172
 1791POPC   C1A24615  39.921   4.543   8.620
 1791POPC   D2A24616  40.272   4.550   8.313
 1791POPC   C3A24617  40.141   4.526   7.885
 1791POPC   C4A24618  40.180   4.291   7.501
 1791POPC   C1B24619  40.063   4.077   8.748
 1791POPC   C2B24620  39.933   4.133   8.294
 1791POPC   C3B24621  39.953   3.973   7.862
 1791POPC   C4B24622  39.765   3.979   7.428
 1792POPC   NC324623   6.947  23.715   9.178
 1792POPC   PO424624   6.745  23.266   9.615
 1792POPC   GL124625   6.519  23.431   9.154
 1792POPC   GL224626   6.180  23.379   9.146
 1792POPC   C1A24627   6.477  23.752   8.744
 1792POPC   D2A24628   6.295  23.925   8.341
 1792POPC   C3A24629   6.468  23.899   7.899
 1792POPC   C4A24630   6.918  23.866   7.816
 1792POPC   C1B24631   6.367  23.264   8.704
 1792POPC   C2B24632   6.443  23.435   8.296
 1792POPC   C3B24633   6.580  23.407   7.840
 1792POPC   C4B24634   6.479  23.469   7.382
 1793POPC   NC324635  30.243  39.826   9.238
 1793POPC   PO424636  30.750  40.302   9.502
 1793POPC   GL124637  30.721  39.955   9.110
 1793POPC   GL224638  30.482  40.087   8.859
 1793POPC   C1A24639  30.655  39.691   8.659
 1793POPC   D2A24640  30.548  39.978   8.344
 1793POPC   C3A24641  30.730  39.999   7.976
 1793POPC   C4A24642  30.501  40.364   7.865
 1793POPC   C1B24643  30.871  40.186   8.681
 1793POPC   C2B24644  30.944  40.342   8.294
 1793POPC   C3B24645  31.007  40.466   7.889
 1793POPC   C4B24646  31.107  40.255   7.506
 1794POPC   NC324647  16.988  19.371   9.688
 1794POPC   PO424648  16.490  19.120   9.330
 1794POPC   GL124649  16.868  19.003   9.101
 1794POPC   GL224650  16.998  19.312   9.077
 1794POPC   C1A24651  16.826  18.756   8.711
 1794POPC   D2A24652  16.452  18.812   8.464
 1794POPC   C3A24653  16.507  19.066   8.112
 1794POPC   C4A24654  16.560  18.918   7.695
 1794POPC   C1B24655  16.889  19.270   8.644
 1794POPC   C2B24656  17.009  19.183   8.232
 1794POPC   C3B24657  16.994  19.164   7.790
 1794POPC   C4B24658  17.036  19.007   7.365
 1795POPC   NC324659  42.449  26.418   9.970
 1795POPC   PO424660  42.669  25.857   9.645
 1795POPC   GL124661  42.560  25.755   9.188
 1795POPC   GL224662  42.218  25.916   9.152
 1795POPC   C1A24663  42.502  25.803   8.760
 1795POPC   D2A24664  42.645  26.093   8.469
 1795POPC   C3A24665  42.545  26.012   8.063
 1795POPC   C4A24666  42.369  25.911   7.699
 1795POPC   C1B24667  42.347  26.264   8.895
 1795POPC   C2B24668  42.229  26.400   8.476
 1795POPC   C3B24669  42.075  26.258   8.058
 1795POPC   C4B24670  42.125  26.445   7.640
 1796POPC   NC324671   7.323  44.681   9.512
 1796POPC   PO424672   7.788  44.315   9.679
 1796POPC   GL124673   7.739  44.598   9.236
 1796POPC   GL224674   7.596  44.920   9.119
 1796POPC   C1A24675   7.546  44.538   8.779
 1796POPC   D2A24676   7.290  44.362   8.429
 1796POPC   C3A24677   7.542  44.457   8.070
 1796POPC   C4A24678   7.670  44.438   7.627
 1796POPC   C1B24679   7.390   0.034   8.737
 1796POPC   C2B24680   7.233  44.889   8.377
 1796POPC   C3B24681   7.400  44.932   7.985
 1796POPC   C4B24682   7.209  44.622   7.712
 1797POPC   NC324683  10.965   8.249   9.431
 1797POPC   PO424684  11.557   7.855   9.455
 1797POPC   GL124685  11.304   8.031   9.143
 1797POPC   GL224686  10.976   7.821   9.115
 1797POPC   C1A24687  11.381   8.356   8.798
 1797POPC   D2A24688  11.335   8.598   8.417
 1797POPC   C3A24689  11.393   8.364   8.017
 1797POPC   C4A24690  11.558   8.127   7.656
 1797POPC   C1B24691  10.952   8.078   8.774
 1797POPC   C2B24692  11.096   8.100   8.392
 1797POPC   C3B24693  10.884   8.026   8.021
 1797POPC   C4B24694  11.030   7.992   7.632
 1798POPC   NC324695  41.698  42.130   9.426
 1798POPC   PO424696  41.376  41.593   9.556
 1798POPC   GL124697  41.654  41.674   9.194
 1798POPC   GL224698  41.959  41.458   9.136
 1798POPC   C1A24699  41.444  41.655   8.806
 1798POPC   D2A24700  41.500  41.563   8.389
 1798POPC   C3A24701  41.576  41.868   8.087
 1798POPC   C4A24702  41.666  41.671   7.702
 1798POPC   C1B24703  41.776  41.284   8.801
 1798POPC   C2B24704  41.800  41.139   8.410
 1798POPC   C3B24705  41.719  41.220   7.988
 1798POPC   C4B24706  41.938  41.041   7.640
 1799POPC   NC324707  14.919   9.925   9.668
 1799POPC   PO424708  14.240   9.934   9.492
 1799POPC   GL124709  14.232   9.722   9.120
 1799POPC   GL224710  14.565   9.890   9.071
 1799POPC   C1A24711  14.267   9.790   8.657
 1799POPC   D2A24712  14.634  10.027   8.455
 1799POPC   C3A24713  14.708   9.925   8.007
 1799POPC   C4A24714  14.371   9.672   7.767
 1799POPC   C1B24715  14.638   9.504   8.870
 1799POPC   C2B24716  14.626   9.457   8.429
 1799POPC   C3B24717  14.721   9.404   8.000
 1799POPC   C4B24718  14.917   9.576   7.614
 1800POPC   NC324719   2.241  10.173   9.333
 1800POPC   PO424720   1.969   9.493   9.435
 1800POPC   GL124721   2.002   9.665   9.061
 1800POPC   GL224722   2.333   9.728   9.126
 1800POPC   C1A24723   1.873   9.739   8.618
 1800POPC   D2A24724   1.800  10.042   8.268
 1800POPC   C3A24725   1.686   9.899   7.851
 1800POPC   C4A24726   1.850   9.970   7.407
 1800POPC   C1B24727   2.376   9.622   8.718
 1800POPC   C2B24728   2.280   9.692   8.309
 1800POPC   C3B24729   2.280   9.665   7.904
 1800POPC   C4B24730   2.329   9.795   7.492
 1801POPC   NC324731   1.614  23.997   9.542
 1801POPC   PO424732   2.204  23.574   9.470
 1801POPC   GL124733   1.879  23.701   9.207
 1801POPC   GL224734   1.727  23.439   9.106
 1801POPC   C1A24735   1.796  23.842   8.782
 1801POPC   D2A24736   1.887  24.020   8.395
 1801POPC   C3A24737   1.826  23.739   8.065
 1801POPC   C4A24738   1.623  23.524   7.716
 1801POPC   C1B24739   2.025  23.386   8.794
 1801POPC   C2B24740   1.816  23.349   8.414
 1801POPC   C3B24741   1.934  23.229   8.019
 1801POPC   C4B24742   2.118  23.498   7.693
 1802POPC   NC324743   6.806  22.006   9.448
 1802POPC   PO424744   6.140  22.190   9.568
 1802POPC   GL124745   6.409  22.144   9.152
 1802POPC   GL224746   6.632  22.434   9.143
 1802POPC   C1A24747   6.399  21.875   8.722
 1802POPC   D2A24748   6.768  21.825   8.424
 1802POPC   C3A24749   6.813  21.896   7.951
 1802POPC   C4A24750   7.073  22.075   7.574
 1802POPC   C1B24751   6.774  22.250   8.757
 1802POPC   C2B24752   6.934  22.386   8.346
 1802POPC   C3B24753   6.789  22.399   7.925
 1802POPC   C4B24754   6.446  22.607   7.751
 1803POPC   NC324755  42.953  12.998   9.410
 1803POPC   PO424756  43.333  12.505   9.363
 1803POPC   GL124757  43.178  12.732   9.024
 1803POPC   GL224758  42.808  12.703   9.045
 1803POPC   C1A24759  43.306  12.787   8.608
 1803POPC   D2A24760  43.210  12.574   8.265
 1803POPC   C3A24761  43.209  12.778   7.882
 1803POPC   C4A24762  43.022  13.130   7.744
 1803POPC   C1B24763  42.793  12.865   8.638
 1803POPC   C2B24764  42.937  13.034   8.272
 1803POPC   C3B24765  42.710  12.791   8.008
 1803POPC   C4B24766  42.756  12.703   7.588
 1804POPC   NC324767  13.726  40.245   9.567
 1804POPC   PO424768  13.532  40.863   9.445
 1804POPC   GL124769  13.663  40.938   9.090
 1804POPC   GL224770  14.018  40.967   9.137
 1804POPC   C1A24771  13.548  41.056   8.696
 1804POPC   D2A24772  13.376  41.051   8.293
 1804POPC   C3A24773  13.558  40.762   8.008
 1804POPC   C4A24774  13.718  40.785   7.625
 1804POPC   C1B24775  13.973  40.778   8.732
 1804POPC   C2B24776  13.921  40.905   8.345
 1804POPC   C3B24777  14.088  40.779   7.975
 1804POPC   C4B24778  14.194  40.630   7.576
 1805POPC   NC324779  16.586  21.457   9.554
 1805POPC   PO424780  17.297  21.520   9.500
 1805POPC   GL124781  16.966  21.419   9.149
 1805POPC   GL224782  16.604  21.265   9.098
 1805POPC   C1A24783  16.942  21.346   8.680
 1805POPC   D2A24784  17.237  21.221   8.324
 1805POPC   C3A24785  17.024  21.119   7.936
 1805POPC   C4A24786  16.747  21.294   7.621
 1805POPC   C1B24787  16.318  21.372   8.755
 1805POPC   C2B24788  16.357  21.261   8.311
 1805POPC   C3B24789  16.322  21.344   7.876
 1805POPC   C4B24790  16.291  21.319   7.403
 1806POPC   NC324791  41.834  26.195   9.362
 1806POPC   PO424792  41.251  26.071   9.647
 1806POPC   GL124793  41.376  25.912   9.211
 1806POPC   GL224794  41.701  25.850   8.996
 1806POPC   C1A24795  41.341  26.132   8.808
 1806POPC   D2A24796  41.530  25.951   8.454
 1806POPC   C3A24797  41.344  26.107   8.086
 1806POPC   C4A24798  41.573  26.106   7.716
 1806POPC   C1B24799  41.984  25.981   8.695
 1806POPC   C2B24800  42.154  25.807   8.343
 1806POPC   C3B24801  41.968  25.718   7.942
 1806POPC   C4B24802  41.924  25.795   7.477
 1807POPC   NC324803  19.737  11.896   9.512
 1807POPC   PO424804  20.176  12.435   9.705
 1807POPC   GL124805  20.113  12.143   9.277
 1807POPC   GL224806  19.775  12.113   9.058
 1807POPC   C1A24807  20.193  11.984   8.836
 1807POPC   D2A24808  20.007  12.094   8.443
 1807POPC   C3A24809  20.113  11.868   8.085
 1807POPC   C4A24810  20.235  12.099   7.728
 1807POPC   C1B24811  19.662  11.833   8.722
 1807POPC   C2B24812  19.522  12.007   8.304
 1807POPC   C3B24813  19.649  12.203   7.949
 1807POPC   C4B24814  19.747  11.914   7.700
 1808POPC   NC324815   3.185  24.081   9.562
 1808POPC   PO424816   3.806  23.805   9.531
 1808POPC   GL124817   3.639  23.865   9.140
 1808POPC   GL224818   3.342  23.724   9.139
 1808POPC   C1A24819   3.666  23.686   8.730
 1808POPC   D2A24820   3.718  23.349   8.454
 1808POPC   C3A24821   3.859  23.459   8.060
 1808POPC   C4A24822   3.702  23.538   7.685
 1808POPC   C1B24823   3.155  23.786   8.739
 1808POPC   C2B24824   3.302  23.997   8.384
 1808POPC   C3B24825   3.496  23.863   8.026
 1808POPC   C4B24826   3.397  23.974   7.617
 1809POPC   NC324827   8.958  17.965   9.608
 1809POPC   PO424828   8.603  18.538   9.790
 1809POPC   GL124829   8.782  18.413   9.309
 1809POPC   GL224830   8.706  18.056   9.167
 1809POPC   C1A24831   9.027  18.352   8.859
 1809POPC   D2A24832   9.198  18.374   8.408
 1809POPC   C3A24833   8.964  18.664   8.078
 1809POPC   C4A24834   9.069  18.635   7.626
 1809POPC   C1B24835   8.611  18.074   8.715
 1809POPC   C2B24836   8.711  18.267   8.308
 1809POPC   C3B24837   9.011  18.162   7.974
 1809POPC   C4B24838   8.937  18.172   7.527
 1810POPC   NC324839  32.789  21.840   9.595
 1810POPC   PO424840  33.384  22.157   9.691
 1810POPC   GL124841  33.158  22.132   9.306
 1810POPC   GL224842  33.402  22.178   9.056
 1810POPC   C1A24843  32.963  21.988   8.910
 1810POPC   D2A24844  32.903  21.912   8.454
 1810POPC   C3A24845  33.161  22.026   8.070
 1810POPC   C4A24846  32.951  22.171   7.673
 1810POPC   C1B24847  33.547  22.395   8.697
 1810POPC   C2B24848  33.408  22.420   8.284
 1810POPC   C3B24849  33.347  22.466   7.830
 1810POPC   C4B24850  33.333  22.357   7.379
 1811POPC   NC324851  32.976   0.610   9.702
 1811POPC   PO424852  33.561   0.535   9.610
 1811POPC   GL124853  33.268   0.489   9.246
 1811POPC   GL224854  32.891   0.521   9.222
 1811POPC   C1A24855  33.161   0.541   8.795
 1811POPC   D2A24856  33.242   0.364   8.402
 1811POPC   C3A24857  33.060   0.522   8.038
 1811POPC   C4A24858  33.057   0.241   7.676
 1811POPC   C1B24859  32.702   0.754   8.872
 1811POPC   C2B24860  32.723   0.542   8.497
 1811POPC   C3B24861  32.756   0.189   8.267
 1811POPC   C4B24862  32.590   0.276   7.891
 1812POPC   NC324863  29.351   5.287   9.342
 1812POPC   PO424864  28.894   5.017   9.673
 1812POPC   GL124865  28.956   4.983   9.179
 1812POPC   GL224866  29.076   5.280   8.940
 1812POPC   C1A24867  29.116   4.812   8.787
 1812POPC   D2A24868  29.080   5.097   8.430
 1812POPC   C3A24869  29.227   5.009   8.056
 1812POPC   C4A24870  29.134   4.946   7.658
 1812POPC   C1B24871  29.480   5.251   8.689
 1812POPC   C2B24872  29.454   5.420   8.266
 1812POPC   C3B24873  29.427   5.428   7.820
 1812POPC   C4B24874  29.648   5.477   7.432
 1813POPC   NC324875  12.211  34.545   9.576
 1813POPC   PO424876  11.536  34.304   9.610
 1813POPC   GL124877  11.898  34.279   9.249
 1813POPC   GL224878  12.271  34.237   9.174
 1813POPC   C1A24879  12.003  34.370   8.783
 1813POPC   D2A24880  12.089  34.573   8.394
 1813POPC   C3A24881  11.882  34.457   7.998
 1813POPC   C4A24882  12.101  34.501   7.585
 1813POPC   C1B24883  12.526  34.358   8.799
 1813POPC   C2B24884  12.601  34.508   8.365
 1813POPC   C3B24885  12.386  34.390   8.014
 1813POPC   C4B24886  12.423  34.119   7.689
 1814POPC   NC324887  19.237   5.665   9.617
 1814POPC   PO424888  18.671   5.226   9.559
 1814POPC   GL124889  18.868   5.565   9.203
 1814POPC   GL224890  19.197   5.718   9.113
 1814POPC   C1A24891  18.956   5.487   8.726
 1814POPC   D2A24892  18.992   5.288   8.315
 1814POPC   C3A24893  19.162   5.607   7.987
 1814POPC   C4A24894  18.904   5.968   7.783
 1814POPC   C1B24895  18.954   5.988   8.822
 1814POPC   C2B24896  18.984   5.931   8.372
 1814POPC   C3B24897  19.274   6.129   8.093
 1814POPC   C4B24898  19.335   6.234   7.661
 1815POPC   NC324899   6.362  25.097   9.831
 1815POPC   PO424900   6.865  24.981   9.429
 1815POPC   GL124901   6.447  25.074   9.211
 1815POPC   GL224902   6.665  25.216   8.980
 1815POPC   C1A24903   6.226  25.099   8.800
 1815POPC   D2A24904   6.493  24.997   8.447
 1815POPC   C3A24905   6.498  25.303   8.135
 1815POPC   C4A24906   6.670  25.312   7.739
 1815POPC   C1B24907   6.532  25.496   8.657
 1815POPC   C2B24908   6.599  25.761   8.348
 1815POPC   C3B24909   6.770  25.754   7.943
 1815POPC   C4B24910   6.878  25.687   7.474
 1816POPC   NC324911  11.648  28.730   9.487
 1816POPC   PO424912  12.327  28.476   9.546
 1816POPC   GL124913  12.243  28.303   9.170
 1816POPC   GL224914  12.128  28.663   9.101
 1816POPC   C1A24915  12.312  28.345   8.743
 1816POPC   D2A24916  12.006  28.324   8.427
 1816POPC   C3A24917  12.139  28.249   8.010
 1816POPC   C4A24918  11.932  27.999   7.717
 1816POPC   C1B24919  12.108  28.831   8.689
 1816POPC   C2B24920  11.891  28.807   8.323
 1816POPC   C3B24921  11.847  28.821   7.901
 1816POPC   C4B24922  11.920  28.511   7.603
 1817POPC   NC324923   9.976  18.832   9.496
 1817POPC   PO424924   9.421  19.092   9.635
 1817POPC   GL124925   9.656  19.100   9.193
 1817POPC   GL224926   9.966  19.067   9.060
 1817POPC   C1A24927   9.628  19.142   8.710
 1817POPC   D2A24928   9.954  19.187   8.405
 1817POPC   C3A24929   9.777  19.154   8.011
 1817POPC   C4A24930   9.593  18.944   7.667
 1817POPC   C1B24931  10.001  18.770   8.737
 1817POPC   C2B24932  10.071  18.677   8.348
 1817POPC   C3B24933   9.929  18.670   7.959
 1817POPC   C4B24934   9.992  18.667   7.534
 1818POPC   NC324935  41.820   2.898   9.455
 1818POPC   PO424936  41.669   2.240   9.541
 1818POPC   GL124937  41.514   2.489   9.212
 1818POPC   GL224938  41.840   2.493   9.138
 1818POPC   C1A24939  41.545   2.771   8.838
 1818POPC   D2A24940  41.590   3.081   8.533
 1818POPC   C3A24941  41.487   2.968   8.084
 1818POPC   C4A24942  41.165   2.990   7.767
 1818POPC   C1B24943  41.859   2.388   8.730
 1818POPC   C2B24944  41.676   2.548   8.363
 1818POPC   C3B24945  41.703   2.408   7.956
 1818POPC   C4B24946  41.460   2.595   7.650
 1819POPC   NC324947  24.268  29.717   9.404
 1819POPC   PO424948  24.703  30.157   9.323
 1819POPC   GL124949  24.670  29.833   9.034
 1819POPC   GL224950  24.373  29.696   8.923
 1819POPC   C1A24951  24.585  30.054   8.633
 1819POPC   D2A24952  24.350  30.156   8.262
 1819POPC   C3A24953  24.559  30.048   7.900
 1819POPC   C4A24954  24.905  30.152   7.632
 1819POPC   C1B24955  24.119  29.834   8.640
 1819POPC   C2B24956  24.007  29.627   8.302
 1819POPC   C3B24957  24.096  29.733   7.963
 1819POPC   C4B24958  24.227  29.812   7.615
 1820POPC   NC324959   8.977  32.372   9.711
 1820POPC   PO424960   9.165  31.705   9.563
 1820POPC   GL124961   9.074  32.121   9.275
 1820POPC   GL224962   8.832  32.412   9.217
 1820POPC   C1A24963   8.979  32.178   8.799
 1820POPC   D2A24964   9.132  32.099   8.335
 1820POPC   C3A24965   9.095  32.479   8.058
 1820POPC   C4A24966   9.007  32.580   7.611
 1820POPC   C1B24967   8.541  32.440   8.807
 1820POPC   C2B24968   8.432  32.583   8.364
 1820POPC   C3B24969   8.645  32.742   7.968
 1820POPC   C4B24970   8.491  32.567   7.586
 1821POPC   NC324971  37.741  21.071   9.490
 1821POPC   PO424972  37.974  20.474   9.605
 1821POPC   GL124973  37.711  20.387   9.232
 1821POPC   GL224974  37.695  20.723   9.097
 1821POPC   C1A24975  37.651  20.330   8.769
 1821POPC   D2A24976  37.621  20.564   8.373
 1821POPC   C3A24977  37.654  20.379   7.948
 1821POPC   C4A24978  37.487  20.343   7.541
 1821POPC   C1B24979  37.600  20.964   8.725
 1821POPC   C2B24980  37.637  21.070   8.283
 1821POPC   C3B24981  37.460  20.852   7.953
 1821POPC   C4B24982  37.650  20.803   7.572
 1822POPC   NC324983  19.608   1.781   9.400
 1822POPC   PO424984  20.127   2.312   9.443
 1822POPC   GL124985  20.005   2.022   9.159
 1822POPC   GL224986  19.677   2.170   9.070
 1822POPC   C1A24987  20.071   1.821   8.773
 1822POPC   D2A24988  20.123   2.047   8.403
 1822POPC   C3A24989  20.004   1.949   7.991
 1822POPC   C4A24990  19.833   2.262   7.724
 1822POPC   C1B24991  19.546   1.845   8.733
 1822POPC   C2B24992  19.598   1.874   8.274
 1822POPC   C3B24993  19.603   1.617   7.885
 1822POPC   C4B24994  19.440   1.650   7.416
 1823POPC   NC324995   4.826  24.970   9.480
 1823POPC   PO424996   4.285  25.498   9.543
 1823POPC   GL124997   4.270  25.154   9.280
 1823POPC   GL224998   4.576  25.268   9.162
 1823POPC   C1A24999   4.188  25.248   8.843
 1823POPC   D2A25000   4.412  25.273   8.459
 1823POPC   C3A25001   4.290  25.338   8.038
 1823POPC   C4A25002   4.091  25.049   7.795
 1823POPC   C1B25003   4.743  25.057   8.828
 1823POPC   C2B25004   4.818  24.965   8.409
 1823POPC   C3B25005   4.558  24.900   8.082
 1823POPC   C4B25006   4.586  25.108   7.691
 1824POPC   NC325007  13.489  10.862   9.379
 1824POPC   PO425008  13.604  10.452   9.900
 1824POPC   GL125009  13.787  10.421   9.414
 1824POPC   GL225010  13.950  10.727   9.229
 1824POPC   C1A25011  13.755  10.345   8.927
 1824POPC   D2A25012  13.750  10.478   8.494
 1824POPC   C3A25013  13.474  10.336   8.182
 1824POPC   C4A25014  13.498  10.404   7.749
 1824POPC   C1B25015  13.862  10.893   8.783
 1824POPC   C2B25016  13.595  10.972   8.374
 1824POPC   C3B25017  13.527  10.902   7.905
 1824POPC   C4B25018  13.796  10.799   7.522
 1825POPC   NC325019  22.845  34.414   9.468
 1825POPC   PO425020  23.062  35.085   9.640
 1825POPC   GL125021  22.959  34.898   9.213
 1825POPC   GL225022  23.181  34.601   9.121
 1825POPC   C1A25023  22.771  34.690   8.823
 1825POPC   D2A25024  22.920  34.729   8.400
 1825POPC   C3A25025  22.718  34.691   8.024
 1825POPC   C4A25026  22.816  34.880   7.637
 1825POPC   C1B25027  23.275  34.882   8.762
 1825POPC   C2B25028  23.316  35.032   8.314
 1825POPC   C3B25029  23.214  34.765   7.933
 1825POPC   C4B25030  23.020  34.403   7.660
 1826POPC   NC325031  29.319  19.699   9.361
 1826POPC   PO425032  28.764  20.110   9.518
 1826POPC   GL125033  28.911  19.949   9.147
 1826POPC   GL225034  29.219  20.104   9.075
 1826POPC   C1A25035  29.002  19.702   8.788
 1826POPC   D2A25036  29.192  19.641   8.401
 1826POPC   C3A25037  28.873  19.717   8.114
 1826POPC   C4A25038  28.983  19.673   7.700
 1826POPC   C1B25039  29.435  19.997   8.716
 1826POPC   C2B25040  29.230  20.162   8.365
 1826POPC   C3B25041  29.167  20.103   7.933
 1826POPC   C4B25042  29.259  20.344   7.573
 1827POPC   NC325043   6.465  23.638   9.599
 1827POPC   PO425044   5.821  23.865   9.523
 1827POPC   GL125045   5.877  23.818   9.122
 1827POPC   GL225046   6.209  23.931   9.130
 1827POPC   C1A25047   5.982  23.623   8.744
 1827POPC   D2A25048   5.840  23.502   8.385
 1827POPC   C3A25049   6.058  23.610   8.021
 1827POPC   C4A25050   6.043  23.521   7.629
 1827POPC   C1B25051   6.035  24.133   8.744
 1827POPC   C2B25052   5.824  24.083   8.348
 1827POPC   C3B25053   5.996  24.111   7.950
 1827POPC   C4B25054   5.779  23.947   7.651
 1828POPC   NC325055  41.863  11.037   9.416
 1828POPC   PO425056  41.719  10.367   9.554
 1828POPC   GL125057  41.729  10.555   9.158
 1828POPC   GL225058  41.517  10.285   9.056
 1828POPC   C1A25059  41.777  10.603   8.698
 1828POPC   D2A25060  41.640  10.868   8.362
 1828POPC   C3A25061  41.603  10.710   7.954
 1828POPC   C4A25062  41.237  10.505   7.785
 1828POPC   C1B25063  41.472  10.195   8.626
 1828POPC   C2B25064  41.676  10.306   8.249
 1828POPC   C3B25065  41.631  10.177   7.832
 1828POPC   C4B25066  41.259   9.995   7.683
 1829POPC   NC325067   5.172   0.049   9.414
 1829POPC   PO425068   4.782  44.544   9.476
 1829POPC   GL125069   5.021  44.661   9.128
 1829POPC   GL225070   5.389  44.622   9.169
 1829POPC   C1A25071   5.013  44.516   8.736
 1829POPC   D2A25072   4.884  44.245   8.422
 1829POPC   C3A25073   4.979  44.429   8.066
 1829POPC   C4A25074   5.019  44.598   7.687
 1829POPC   C1B25075   5.420  44.849   8.779
 1829POPC   C2B25076   5.218  44.822   8.380
 1829POPC   C3B25077   5.306  44.902   7.987
 1829POPC   C4B25078   5.194   0.073   7.619
 1830POPC   NC325079  23.723  11.090   9.519
 1830POPC   PO425080  23.539  11.758   9.482
 1830POPC   GL125081  23.751  11.458   9.160
 1830POPC   GL225082  23.561  11.107   9.047
 1830POPC   C1A25083  23.829  11.385   8.707
 1830POPC   D2A25084  23.715  11.103   8.358
 1830POPC   C3A25085  23.742  11.302   7.927
 1830POPC   C4A25086  23.434  11.304   7.571
 1830POPC   C1B25087  23.955  10.918   8.899
 1830POPC   C2B25088  24.214  11.013   8.540
 1830POPC   C3B25089  24.122  10.939   8.103
 1830POPC   C4B25090  24.175  11.126   7.717
 1831POPC   NC325091  11.289  24.847   9.510
 1831POPC   PO425092  10.963  25.359   9.848
 1831POPC   GL125093  11.039  25.326   9.375
 1831POPC   GL225094  11.332  25.529   9.269
 1831POPC   C1A25095  11.162  25.201   8.916
 1831POPC   D2A25096  11.407  25.413   8.557
 1831POPC   C3A25097  11.547  25.161   8.206
 1831POPC   C4A25098  11.517  25.222   7.755
 1831POPC   C1B25099  11.139  25.713   8.874
 1831POPC   C2B25100  11.080  25.805   8.402
 1831POPC   C3B25101  11.068  25.552   7.987
 1831POPC   C4B25102  11.101  25.432   7.524
 1832POPC   NC325103  23.099  30.160   9.413
 1832POPC   PO425104  22.594  30.399   9.771
 1832POPC   GL125105  22.638  30.356   9.256
 1832POPC   GL225106  22.721  29.978   9.099
 1832POPC   C1A25107  22.833  30.375   8.804
 1832POPC   D2A25108  22.786  30.101   8.421
 1832POPC   C3A25109  23.028  30.233   8.055
 1832POPC   C4A25110  23.251  30.129   7.680
 1832POPC   C1B25111  23.093  29.888   8.799
 1832POPC   C2B25112  23.217  29.812   8.351
 1832POPC   C3B25113  23.058  29.727   7.929
 1832POPC   C4B25114  23.273  29.630   7.572
 1833POPC   NC325115  36.439  13.429   9.427
 1833POPC   PO425116  35.843  13.733   9.495
 1833POPC   GL125117  36.020  13.568   9.140
 1833POPC   GL225118  36.270  13.821   9.100
 1833POPC   C1A25119  36.029  13.539   8.688
 1833POPC   D2A25120  35.726  13.674   8.346
 1833POPC   C3A25121  35.864  13.560   7.939
 1833POPC   C4A25122  36.217  13.749   7.716
 1833POPC   C1B25123  35.882  13.985   8.870
 1833POPC   C2B25124  35.970  14.118   8.483
 1833POPC   C3B25125  36.136  13.979   8.148
 1833POPC   C4B25126  35.818  14.065   7.852
 1834POPC   NC325127  35.995   1.725   9.325
 1834POPC   PO425128  36.378   2.283   9.428
 1834POPC   GL125129  36.344   2.085   9.081
 1834POPC   GL225130  36.009   2.168   9.091
 1834POPC   C1A25131  36.289   2.307   8.698
 1834POPC   D2A25132  36.041   2.319   8.335
 1834POPC   C3A25133  36.237   2.006   8.108
 1834POPC   C4A25134  36.389   1.868   7.738
 1834POPC   C1B25135  35.880   1.997   8.722
 1834POPC   C2B25136  35.795   1.841   8.355
 1834POPC   C3B25137  35.714   1.990   7.988
 1834POPC   C4B25138  35.864   1.885   7.622
 1835POPC   NC325139  25.046  39.233   9.488
 1835POPC   PO425140  25.686  39.238   9.286
 1835POPC   GL125141  25.334  39.232   9.058
 1835POPC   GL225142  25.101  39.477   9.029
 1835POPC   C1A25143  25.193  38.999   8.747
 1835POPC   D2A25144  25.038  39.074   8.379
 1835POPC   C3A25145  25.194  38.908   8.022
 1835POPC   C4A25146  25.233  39.060   7.617
 1835POPC   C1B25147  25.450  39.664   8.765
 1835POPC   C2B25148  25.592  39.608   8.337
 1835POPC   C3B25149  25.343  39.413   8.016
 1835POPC   C4B25150  25.209  39.560   7.623
 1836POPC   NC325151  22.185  38.903   9.258
 1836POPC   PO425152  22.065  38.302   9.718
 1836POPC   GL125153  22.289  38.382   9.288
 1836POPC   GL225154  22.031  38.436   9.001
 1836POPC   C1A25155  22.510  38.390   8.847
 1836POPC   D2A25156  22.340  38.242   8.442
 1836POPC   C3A25157  22.329  38.538   8.112
 1836POPC   C4A25158  22.248  38.526   7.717
 1836POPC   C1B25159  21.762  38.130   8.794
 1836POPC   C2B25160  21.902  37.957   8.416
 1836POPC   C3B25161  21.941  38.179   8.053
 1836POPC   C4B25162  21.801  38.309   7.659
 1837POPC   NC325163  34.844  26.431   9.443
 1837POPC   PO425164  34.448  25.861   9.381
 1837POPC   GL125165  34.693  26.028   9.083
 1837POPC   GL225166  34.552  26.348   9.032
 1837POPC   C1A25167  34.733  25.913   8.650
 1837POPC   D2A25168  34.524  25.668   8.326
 1837POPC   C3A25169  34.553  25.941   7.983
 1837POPC   C4A25170  34.768  26.002   7.602
 1837POPC   C1B25171  34.922  26.384   8.791
 1837POPC   C2B25172  34.810  26.362   8.389
 1837POPC   C3B25173  34.535  26.462   8.070
 1837POPC   C4B25174  34.804  26.477   7.752
 1838POPC   NC325175  20.483   9.608   9.507
 1838POPC   PO425176  20.367  10.267   9.367
 1838POPC   GL125177  20.684   9.919   9.124
 1838POPC   GL225178  20.775   9.498   9.124
 1838POPC   C1A25179  20.762   9.782   8.719
 1838POPC   D2A25180  20.461   9.904   8.469
 1838POPC   C3A25181  20.473   9.985   8.065
 1838POPC   C4A25182  20.383   9.755   7.737
 1838POPC   C1B25183  20.494   9.349   8.732
 1838POPC   C2B25184  20.340   9.219   8.330
 1838POPC   C3B25185  20.617   9.457   8.064
 1838POPC   C4B25186  20.923   9.789   7.898
 1839POPC   NC325187  11.491  30.300   9.666
 1839POPC   PO425188  11.042  29.790   9.523
 1839POPC   GL125189  11.380  29.827   9.210
 1839POPC   GL225190  11.585  30.128   9.190
 1839POPC   C1A25191  11.360  29.917   8.792
 1839POPC   D2A25192  11.190  30.101   8.463
 1839POPC   C3A25193  11.288  29.901   8.099
 1839POPC   C4A25194  11.152  29.974   7.712
 1839POPC   C1B25195  11.642  30.328   8.763
 1839POPC   C2B25196  11.653  30.225   8.316
 1839POPC   C3B25197  11.487  30.327   7.875
 1839POPC   C4B25198  11.425  30.252   7.382
 1840POPC   NC325199   8.673  12.152   9.286
 1840POPC   PO425200   8.144  11.684   9.431
 1840POPC   GL125201   8.169  12.023   9.120
 1840POPC   GL225202   8.140  12.402   9.211
 1840POPC   C1A25203   8.143  11.836   8.726
 1840POPC   D2A25204   8.397  11.801   8.363
 1840POPC   C3A25205   8.184  11.759   7.986
 1840POPC   C4A25206   8.287  11.941   7.618
 1840POPC   C1B25207   8.380  12.455   8.803
 1840POPC   C2B25208   8.390  12.512   8.372
 1840POPC   C3B25209   8.327  12.291   7.996
 1840POPC   C4B25210   8.155  12.448   7.580
 1841POPC   NC325211  25.770  10.014   9.540
 1841POPC   PO425212  26.431   9.828   9.415
 1841POPC   GL125213  26.078   9.812   9.144
 1841POPC   GL225214  25.799   9.588   9.240
 1841POPC   C1A25215  26.067   9.714   8.712
 1841POPC   D2A25216  26.409   9.686   8.386
 1841POPC   C3A25217  26.358   9.571   7.981
 1841POPC   C4A25218  26.212   9.830   7.672
 1841POPC   C1B25219  25.682   9.397   8.845
 1841POPC   C2B25220  25.605   9.592   8.447
 1841POPC   C3B25221  25.867   9.747   8.119
 1841POPC   C4B25222  25.712   9.660   7.716
 1842POPC   NC325223  41.908   8.852   9.546
 1842POPC   PO425224  42.209   9.511   9.390
 1842POPC   GL125225  42.440   9.181   9.123
 1842POPC   GL225226  42.422   8.815   9.183
 1842POPC   C1A25227  42.351   8.996   8.701
 1842POPC   D2A25228  42.284   8.806   8.297
 1842POPC   C3A25229  42.322   9.096   7.938
 1842POPC   C4A25230  42.273   9.363   7.555
 1842POPC   C1B25231  42.697   8.587   8.870
 1842POPC   C2B25232  42.909   8.583   8.453
 1842POPC   C3B25233  42.726   8.634   8.072
 1842POPC   C4B25234  42.606   8.724   7.667
 1843POPC   NC325235  36.699  14.248   9.586
 1843POPC   PO425236  37.186  14.496   9.321
 1843POPC   GL125237  37.025  14.167   9.084
 1843POPC   GL225238  36.687  14.166   9.080
 1843POPC   C1A25239  37.017  14.013   8.680
 1843POPC   D2A25240  36.849  14.168   8.283
 1843POPC   C3A25241  37.124  14.456   8.015
 1843POPC   C4A25242  37.319  14.378   7.634
 1843POPC   C1B25243  36.730  14.555   8.789
 1843POPC   C2B25244  36.805  14.682   8.343
 1843POPC   C3B25245  36.618  14.520   7.962
 1843POPC   C4B25246  36.819  14.535   7.587
 1844POPC   NC325247  26.218   5.974   9.511
 1844POPC   PO425248  26.866   6.038   9.758
 1844POPC   GL125249  26.796   6.049   9.311
 1844POPC   GL225250  26.575   5.772   9.217
 1844POPC   C1A25251  26.932   6.095   8.884
 1844POPC   D2A25252  26.895   5.835   8.521
 1844POPC   C3A25253  27.078   5.892   8.147
 1844POPC   C4A25254  26.970   5.942   7.731
 1844POPC   C1B25255  26.431   5.994   8.849
 1844POPC   C2B25256  26.535   6.205   8.457
 1844POPC   C3B25257  26.584   6.108   8.047
 1844POPC   C4B25258  26.514   6.269   7.658
 1845POPC   NC325259  10.954  20.067   9.420
 1845POPC   PO425260  11.648  19.932   9.477
 1845POPC   GL125261  11.365  19.960   9.130
 1845POPC   GL225262  11.213  19.644   9.040
 1845POPC   C1A25263  11.264  19.989   8.673
 1845POPC   D2A25264  11.470  19.940   8.276
 1845POPC   C3A25265  11.364  20.123   7.867
 1845POPC   C4A25266  10.980  20.142   7.594
 1845POPC   C1B25267  11.638  19.659   8.828
 1845POPC   C2B25268  11.812  19.584   8.396
 1845POPC   C3B25269  11.648  19.581   7.956
 1845POPC   C4B25270  11.166  19.646   7.873
 1846POPC   NC325271  42.842  19.768   9.519
 1846POPC   PO425272  42.213  19.797   9.377
 1846POPC   GL125273  42.410  19.755   9.000
 1846POPC   GL225274  42.513  19.424   9.039
 1846POPC   C1A25275  42.166  19.855   8.610
 1846POPC   D2A25276  41.947  19.790   8.210
 1846POPC   C3A25277  42.234  19.938   7.931
 1846POPC   C4A25278  42.650  19.776   7.876
 1846POPC   C1B25279  42.329  19.352   8.679
 1846POPC   C2B25280  42.417  19.508   8.287
 1846POPC   C3B25281  42.223  19.454   7.913
 1846POPC   C4B25282  42.419  19.483   7.532
 1847POPC   NC325283  38.009  30.648   9.322
 1847POPC   PO425284  38.612  30.932   9.420
 1847POPC   GL125285  38.523  30.689   9.063
 1847POPC   GL225286  38.459  30.346   9.158
 1847POPC   C1A25287  38.245  30.837   8.724
 1847POPC   D2A25288  38.034  31.115   8.427
 1847POPC   C3A25289  38.227  31.025   8.000
 1847POPC   C4A25290  38.479  30.727   7.721
 1847POPC   C1B25291  38.174  30.299   8.823
 1847POPC   C2B25292  38.107  30.418   8.466
 1847POPC   C3B25293  38.149  30.509   8.098
 1847POPC   C4B25294  38.327  30.219   7.859
 1848POPC   NC325295  20.093  20.780   9.386
 1848POPC   PO425296  19.586  20.364   9.412
 1848POPC   GL125297  19.838  20.441   9.063
 1848POPC   GL225298  19.748  20.805   8.989
 1848POPC   C1A25299  19.757  20.472   8.624
 1848POPC   D2A25300  19.736  20.794   8.336
 1848POPC   C3A25301  19.946  20.528   8.076
 1848POPC   C4A25302  19.780  20.305   7.717
 1848POPC   C1B25303  20.036  21.021   8.698
 1848POPC   C2B25304  20.259  20.945   8.313
 1848POPC   C3B25305  19.993  21.047   7.966
 1848POPC   C4B25306  19.691  20.816   7.760
 1849POPC   NC325307  31.517  37.574   9.861
 1849POPC   PO425308  31.236  37.611   9.299
 1849POPC   GL125309  31.505  37.565   8.974
 1849POPC   GL225310  31.307  37.863   8.838
 1849POPC   C1A25311  31.609  37.563   8.546
 1849POPC   D2A25312  31.637  37.919   8.315
 1849POPC   C3A25313  31.677  37.822   7.913
 1849POPC   C4A25314  31.720  37.639   7.564
 1849POPC   C1B25315  31.121  37.451   8.654
 1849POPC   C2B25316  31.220  37.346   8.230
 1849POPC   C3B25317  31.326  37.411   7.824
 1849POPC   C4B25318  31.230  37.809   7.652
 1850POPC   NC325319   6.431  43.370   9.609
 1850POPC   PO425320   6.906  42.974   9.653
 1850POPC   GL125321   6.693  43.137   9.206
 1850POPC   GL225322   6.480  43.463   9.119
 1850POPC   C1A25323   6.855  43.059   8.761
 1850POPC   D2A25324   6.992  42.954   8.324
 1850POPC   C3A25325   6.757  43.122   8.021
 1850POPC   C4A25326   6.734  43.043   7.583
 1850POPC   C1B25327   6.357  43.296   8.698
 1850POPC   C2B25328   6.484  43.482   8.291
 1850POPC   C3B25329   6.460  43.485   7.839
 1850POPC   C4B25330   6.274  43.058   7.792
 1851POPC   NC325331  30.840  31.249   9.450
 1851POPC   PO425332  31.002  31.854   9.284
 1851POPC   GL125333  30.643  31.599   9.072
 1851POPC   GL225334  30.648  31.225   8.989
 1851POPC   C1A25335  30.342  31.498   8.732
 1851POPC   D2A25336  30.374  31.445   8.321
 1851POPC   C3A25337  30.710  31.683   8.183
 1851POPC   C4A25338  30.719  31.752   7.757
 1851POPC   C1B25339  30.981  31.132   8.656
 1851POPC   C2B25340  31.096  31.333   8.278
 1851POPC   C3B25341  30.828  31.263   7.921
 1851POPC   C4B25342  30.382  31.309   7.806
 1852POPC   NC325343  10.680  14.614   9.435
 1852POPC   PO425344  10.255  14.175   9.486
 1852POPC   GL125345  10.456  14.311   9.092
 1852POPC   GL225346  10.253  14.606   9.147
 1852POPC   C1A25347  10.615  14.563   8.686
 1852POPC   D2A25348  10.892  14.566   8.255
 1852POPC   C3A25349  10.744  14.269   7.897
 1852POPC   C4A25350  10.455  14.128   7.561
 1852POPC   C1B25351  10.075  14.782   8.815
 1852POPC   C2B25352  10.130  14.620   8.442
 1852POPC   C3B25353  10.396  14.591   8.158
 1852POPC   C4B25354  10.362  14.591   7.757
 1853POPC   NC325355  40.512   9.166   9.656
 1853POPC   PO425356  40.996   8.740   9.560
 1853POPC   GL125357  41.038   8.894   9.163
 1853POPC   GL225358  40.703   8.999   9.188
 1853POPC   C1A25359  40.960   8.776   8.767
 1853POPC   D2A25360  40.708   8.854   8.442
 1853POPC   C3A25361  40.863   8.895   8.058
 1853POPC   C4A25362  41.105   8.639   7.783
 1853POPC   C1B25363  40.827   9.264   8.828
 1853POPC   C2B25364  41.053   9.258   8.462
 1853POPC   C3B25365  40.998   9.388   8.054
 1853POPC   C4B25366  40.997   9.175   7.647
 1854POPC   NC325367  32.700  14.895   9.293
 1854POPC   PO425368  32.156  15.139   9.681
 1854POPC   GL125369  32.227  15.096   9.219
 1854POPC   GL225370  32.510  15.301   9.039
 1854POPC   C1A25371  32.161  15.012   8.790
 1854POPC   D2A25372  32.349  15.297   8.488
 1854POPC   C3A25373  32.217  15.261   8.059
 1854POPC   C4A25374  31.917  14.966   7.884
 1854POPC   C1B25375  32.705  15.596   8.725
 1854POPC   C2B25376  32.734  15.624   8.260
 1854POPC   C3B25377  32.507  15.672   7.861
 1854POPC   C4B25378  32.578  15.743   7.386
 1855POPC   NC325379  25.700   9.271   9.635
 1855POPC   PO425380  25.066   9.171   9.461
 1855POPC   GL125381  25.374   8.968   9.213
 1855POPC   GL225382  25.044   8.817   9.058
 1855POPC   C1A25383  25.491   8.698   8.847
 1855POPC   D2A25384  25.181   8.664   8.521
 1855POPC   C3A25385  25.241   8.665   8.070
 1855POPC   C4A25386  25.447   8.856   7.730
 1855POPC   C1B25387  25.241   9.135   8.750
 1855POPC   C2B25388  25.505   9.091   8.382
 1855POPC   C3B25389  25.410   9.315   7.992
 1855POPC   C4B25390  25.196   9.293   7.581
 1856POPC   NC325391  20.872  29.550   9.430
 1856POPC   PO425392  20.756  30.157   9.451
 1856POPC   GL125393  20.680  29.895   9.089
 1856POPC   GL225394  20.882  29.641   8.935
 1856POPC   C1A25395  20.500  29.972   8.695
 1856POPC   D2A25396  20.357  29.968   8.261
 1856POPC   C3A25397  20.668  30.160   8.014
 1856POPC   C4A25398  20.893  30.095   7.642
 1856POPC   C1B25399  20.418  29.498   8.867
 1856POPC   C2B25400  20.399  29.453   8.412
 1856POPC   C3B25401  20.675  29.611   8.075
 1856POPC   C4B25402  20.466  29.748   7.734
 1857POPC   NC325403  23.222   9.590   9.621
 1857POPC   PO425404  23.887   9.692   9.538
 1857POPC   GL125405  23.605   9.587   9.201
 1857POPC   GL225406  23.826   9.426   8.989
 1857POPC   C1A25407  23.428   9.649   8.752
 1857POPC   D2A25408  23.614   9.497   8.365
 1857POPC   C3A25409  23.604   9.751   8.018
 1857POPC   C4A25410  23.419   9.674   7.630
 1857POPC   C1B25411  23.971   9.653   8.679
 1857POPC   C2B25412  24.092   9.752   8.287
 1857POPC   C3B25413  24.008   9.404   8.036
 1857POPC   C4B25414  24.094   9.327   7.617
 1858POPC   NC325415   7.124   1.087   9.474
 1858POPC   PO425416   7.794   1.008   9.451
 1858POPC   GL125417   7.684   1.145   9.072
 1858POPC   GL225418   7.391   1.341   9.121
 1858POPC   C1A25419   7.654   1.018   8.651
 1858POPC   D2A25420   7.444   0.841   8.277
 1858POPC   C3A25421   7.683   0.911   7.892
 1858POPC   C4A25422   7.601   1.032   7.461
 1858POPC   C1B25423   7.173   1.146   8.804
 1858POPC   C2B25424   7.036   1.142   8.413
 1858POPC   C3B25425   7.205   1.291   8.057
 1858POPC   C4B25426   7.330   1.412   7.646
 1859POPC   NC325427   7.007  38.250   9.485
 1859POPC   PO425428   6.545  38.653   9.684
 1859POPC   GL125429   6.580  38.429   9.253
 1859POPC   GL225430   6.365  38.669   9.141
 1859POPC   C1A25431   6.800  38.222   8.880
 1859POPC   D2A25432   6.813  38.328   8.438
 1859POPC   C3A25433   6.499  38.160   8.158
 1859POPC   C4A25434   6.414  38.199   7.707
 1859POPC   C1B25435   6.411  38.510   8.747
 1859POPC   C2B25436   6.439  38.680   8.356
 1859POPC   C3B25437   6.692  38.645   8.007
 1859POPC   C4B25438   6.452  38.725   7.659
 1860POPC   NC325439  28.071   6.047   9.525
 1860POPC   PO425440  28.710   5.627   9.549
 1860POPC   GL125441  28.485   5.842   9.231
 1860POPC   GL225442  28.167   5.689   9.150
 1860POPC   C1A25443  28.528   6.112   8.846
 1860POPC   D2A25444  28.542   5.888   8.447
 1860POPC   C3A25445  28.694   5.952   8.029
 1860POPC   C4A25446  28.348   5.836   7.743
 1860POPC   C1B25447  28.090   5.836   8.745
 1860POPC   C2B25448  28.096   5.604   8.361
 1860POPC   C3B25449  27.918   5.701   7.989
 1860POPC   C4B25450  27.918   5.534   7.595
 1861POPC   NC325451  37.352  26.688   9.587
 1861POPC   PO425452  37.959  27.015   9.452
 1861POPC   GL125453  37.888  26.960   9.051
 1861POPC   GL225454  38.075  26.674   9.089
 1861POPC   C1A25455  37.657  27.051   8.674
 1861POPC   D2A25456  37.750  26.869   8.265
 1861POPC   C3A25457  37.597  26.906   7.851
 1861POPC   C4A25458  37.787  26.928   7.411
 1861POPC   C1B25459  37.859  26.563   8.703
 1861POPC   C2B25460  37.954  26.391   8.301
 1861POPC   C3B25461  37.969  26.515   7.848
 1861POPC   C4B25462  38.016  26.478   7.371
 1862POPC   NC325463   9.284  19.453   9.342
 1862POPC   PO425464   8.601  19.657   9.543
 1862POPC   GL125465   8.933  19.805   9.198
 1862POPC   GL225466   9.106  20.143   9.148
 1862POPC   C1A25467   9.047  19.704   8.759
 1862POPC   D2A25468   8.925  19.622   8.336
 1862POPC   C3A25469   9.212  19.610   8.010
 1862POPC   C4A25470   9.084  19.645   7.597
 1862POPC   C1B25471   8.725  20.109   8.815
 1862POPC   C2B25472   8.622  20.042   8.343
 1862POPC   C3B25473   8.895  20.037   7.937
 1862POPC   C4B25474   9.021  20.115   7.482
 1863POPC   NC325475  26.093  24.053   9.469
 1863POPC   PO425476  25.934  24.720   9.619
 1863POPC   GL125477  26.117  24.600   9.221
 1863POPC   GL225478  25.903  24.335   9.081
 1863POPC   C1A25479  26.145  24.673   8.773
 1863POPC   D2A25480  26.006  24.414   8.442
 1863POPC   C3A25481  26.171  24.538   8.066
 1863POPC   C4A25482  26.090  24.676   7.670
 1863POPC   C1B25483  26.282  24.186   8.824
 1863POPC   C2B25484  26.275  23.966   8.438
 1863POPC   C3B25485  26.084  24.039   8.073
 1863POPC   C4B25486  25.910  24.195   7.699
 1864POPC   NC325487  19.115  22.205   9.437
 1864POPC   PO425488  18.519  22.000   9.471
 1864POPC   GL125489  18.664  22.303   9.122
 1864POPC   GL225490  19.030  22.345   8.972
 1864POPC   C1A25491  18.694  22.102   8.709
 1864POPC   D2A25492  18.972  22.150   8.366
 1864POPC   C3A25493  18.742  22.219   7.992
 1864POPC   C4A25494  18.970  22.138   7.647
 1864POPC   C1B25495  19.256  22.549   8.648
 1864POPC   C2B25496  19.564  22.397   8.380
 1864POPC   C3B25497  19.576  22.499   7.969
 1864POPC   C4B25498  19.409  22.372   7.538
 1865POPC   NC325499  12.998  31.770   9.507
 1865POPC   PO425500  12.306  31.769   9.540
 1865POPC   GL125501  12.588  31.662   9.214
 1865POPC   GL225502  12.786  31.344   9.255
 1865POPC   C1A25503  12.784  31.659   8.818
 1865POPC   D2A25504  12.676  31.452   8.444
 1865POPC   C3A25505  12.893  31.551   8.096
 1865POPC   C4A25506  12.829  31.640   7.693
 1865POPC   C1B25507  12.677  31.117   8.880
 1865POPC   C2B25508  12.666  30.924   8.471
 1865POPC   C3B25509  12.734  31.042   8.084
 1865POPC   C4B25510  12.950  31.135   7.752
 1866POPC   NC325511   0.555  27.903   9.559
 1866POPC   PO425512   0.358  28.516   9.523
 1866POPC   GL125513   0.465  28.235   9.168
 1866POPC   GL225514   0.835  28.145   9.123
 1866POPC   C1A25515   0.425  28.331   8.731
 1866POPC   D2A25516   0.211  28.603   8.452
 1866POPC   C3A25517   0.412  28.606   8.056
 1866POPC   C4A25518   0.222  28.766   7.716
 1866POPC   C1B25519   0.920  28.290   8.720
 1866POPC   C2B25520   0.793  28.491   8.384
 1866POPC   C3B25521   0.917  28.472   7.985
 1866POPC   C4B25522   0.652  28.360   7.665
 1867POPC   NC325523  10.400  10.431   9.528
 1867POPC   PO425524  10.777  11.059   9.540
 1867POPC   GL125525  10.700  10.709   9.217
 1867POPC   GL225526  10.376  10.566   9.035
 1867POPC   C1A25527  10.826  10.497   8.848
 1867POPC   D2A25528  10.935  10.554   8.445
 1867POPC   C3A25529  10.739  10.413   8.068
 1867POPC   C4A25530  10.595  10.529   7.674
 1867POPC   C1B25531  10.129  10.762   8.696
 1867POPC   C2B25532  10.004  10.802   8.259
 1867POPC   C3B25533  10.101  10.581   7.876
 1867POPC   C4B25534  10.249  10.194   7.679
 1868POPC   NC325535  18.155   4.644   9.549
 1868POPC   PO425536  17.877   5.267   9.510
 1868POPC   GL125537  18.222   5.094   9.262
 1868POPC   GL225538  18.395   5.405   9.156
 1868POPC   C1A25539  18.349   5.036   8.846
 1868POPC   D2A25540  18.527   5.265   8.535
 1868POPC   C3A25541  18.512   5.097   8.153
 1868POPC   C4A25542  18.419   5.034   7.735
 1868POPC   C1B25543  18.033   5.463   8.902
 1868POPC   C2B25544  18.033   5.415   8.489
 1868POPC   C3B25545  18.165   5.513   8.094
 1868POPC   C4B25546  18.087   5.404   7.681
 1869POPC   NC325547  11.216   5.681   9.561
 1869POPC   PO425548  11.032   6.284   9.647
 1869POPC   GL125549  11.176   6.002   9.197
 1869POPC   GL225550  11.466   5.805   9.146
 1869POPC   C1A25551  11.175   5.938   8.729
 1869POPC   D2A25552  11.072   5.677   8.362
 1869POPC   C3A25553  10.962   5.819   7.954
 1869POPC   C4A25554  11.200   5.854   7.588
 1869POPC   C1B25555  11.705   5.985   8.820
 1869POPC   C2B25556  11.594   6.025   8.389
 1869POPC   C3B25557  11.462   5.937   8.021
 1869POPC   C4B25558  11.610   6.123   7.646
 1870POPC   NC325559  20.133  32.115   9.731
 1870POPC   PO425560  19.760  31.526   9.575
 1870POPC   GL125561  19.730  31.384   9.171
 1870POPC   GL225562  19.438  31.168   9.170
 1870POPC   C1A25563  19.752  31.588   8.759
 1870POPC   D2A25564  19.610  31.745   8.348
 1870POPC   C3A25565  19.921  31.803   8.027
 1870POPC   C4A25566  20.182  31.473   7.845
 1870POPC   C1B25567  19.549  31.114   8.732
 1870POPC   C2B25568  19.555  31.223   8.274
 1870POPC   C3B25569  19.639  31.410   7.841
 1870POPC   C4B25570  19.494  31.538   7.414
 1871POPC   NC325571  27.088  23.216   9.546
 1871POPC   PO425572  26.622  22.773   9.397
 1871POPC   GL125573  26.787  23.066   9.137
 1871POPC   GL225574  27.144  22.989   9.056
 1871POPC   C1A25575  26.680  23.113   8.718
 1871POPC   D2A25576  26.899  22.975   8.366
 1871POPC   C3A25577  26.669  23.094   8.000
 1871POPC   C4A25578  26.936  23.014   7.652
 1871POPC   C1B25579  26.873  22.655   8.801
 1871POPC   C2B25580  26.745  22.489   8.404
 1871POPC   C3B25581  26.810  22.614   7.992
 1871POPC   C4B25582  26.577  22.663   7.627
 1872POPC   NC325583  37.317  10.611   9.540
 1872POPC   PO425584  37.983  10.369   9.415
 1872POPC   GL125585  37.676  10.553   9.177
 1872POPC   GL225586  37.505  10.265   9.188
 1872POPC   C1A25587  37.698  10.663   8.761
 1872POPC   D2A25588  38.007  10.580   8.451
 1872POPC   C3A25589  37.776  10.538   8.084
 1872POPC   C4A25590  37.915  10.391   7.714
 1872POPC   C1B25591  37.316  10.277   8.827
 1872POPC   C2B25592  37.344  10.456   8.433
 1872POPC   C3B25593  37.340  10.240   8.059
 1872POPC   C4B25594  37.402  10.483   7.716
 1873POPC   NC325595   2.807   8.632   9.290
 1873POPC   PO425596   2.718   8.124   9.782
 1873POPC   GL125597   2.393   8.193   9.324
 1873POPC   GL225598   2.434   8.441   9.046
 1873POPC   C1A25599   2.381   8.004   8.828
 1873POPC   D2A25600   2.667   7.967   8.411
 1873POPC   C3A25601   2.584   8.053   7.945
 1873POPC   C4A25602   2.630   8.432   7.664
 1873POPC   C1B25603   2.618   8.473   8.617
 1873POPC   C2B25604   2.877   8.424   8.216
 1873POPC   C3B25605   3.065   8.201   7.836
 1873POPC   C4B25606   3.026   8.141   7.433
 1874POPC   NC325607  38.079  22.490   9.342
 1874POPC   PO425608  37.422  22.270   9.472
 1874POPC   GL125609  37.632  22.348   9.138
 1874POPC   GL225610  37.391  22.502   8.983
 1874POPC   C1A25611  37.838  22.208   8.776
 1874POPC   D2A25612  37.993  22.314   8.414
 1874POPC   C3A25613  37.913  22.083   8.064
 1874POPC   C4A25614  37.799  22.121   7.664
 1874POPC   C1B25615  37.337  22.108   8.766
 1874POPC   C2B25616  37.496  22.034   8.360
 1874POPC   C3B25617  37.432  22.259   7.973
 1874POPC   C4B25618  37.536  22.612   7.727
 1875POPC   NC325619  25.598  36.550   9.486
 1875POPC   PO425620  25.089  37.057   9.486
 1875POPC   GL125621  25.208  36.863   9.154
 1875POPC   GL225622  25.486  37.048   9.095
 1875POPC   C1A25623  25.111  36.972   8.733
 1875POPC   D2A25624  25.316  37.122   8.376
 1875POPC   C3A25625  25.115  37.040   8.009
 1875POPC   C4A25626  25.209  37.110   7.565
 1875POPC   C1B25627  25.592  36.804   8.766
 1875POPC   C2B25628  25.732  36.786   8.345
 1875POPC   C3B25629  25.551  36.794   7.938
 1875POPC   C4B25630  25.555  36.748   7.447
 1876POPC   NC325631  11.991  42.246   9.497
 1876POPC   PO425632  12.552  41.922   9.466
 1876POPC   GL125633  12.448  42.106   9.093
 1876POPC   GL225634  12.303  42.411   9.091
 1876POPC   C1A25635  12.155  42.062   8.756
 1876POPC   D2A25636  11.782  41.968   8.534
 1876POPC   C3A25637  11.898  42.074   8.096
 1876POPC   C4A25638  12.253  42.152   7.844
 1876POPC   C1B25639  12.189  42.695   8.760
 1876POPC   C2B25640  11.969  42.815   8.387
 1876POPC   C3B25641  11.990  42.604   8.015
 1876POPC   C4B25642  11.946  42.728   7.597
 1877POPC   NC325643  24.277   2.493   9.535
 1877POPC   PO425644  24.604   3.033   9.640
 1877POPC   GL125645  24.514   2.882   9.215
 1877POPC   GL225646  24.171   2.845   9.172
 1877POPC   C1A25647  24.455   3.001   8.771
 1877POPC   D2A25648  24.760   2.881   8.451
 1877POPC   C3A25649  24.555   2.756   8.100
 1877POPC   C4A25650  24.218   2.800   7.851
 1877POPC   C1B25651  24.166   2.548   8.821
 1877POPC   C2B25652  24.086   2.500   8.357
 1877POPC   C3B25653  24.110   2.297   7.958
 1877POPC   C4B25654  24.104   2.422   7.529
 1878POPC   NC325655  30.343  15.766   9.641
 1878POPC   PO425656  30.844  16.255   9.722
 1878POPC   GL125657  30.636  16.165   9.255
 1878POPC   GL225658  30.449  15.844   9.137
 1878POPC   C1A25659  30.560  16.183   8.770
 1878POPC   D2A25660  30.617  16.337   8.334
 1878POPC   C3A25661  30.463  16.177   7.961
 1878POPC   C4A25662  30.697  16.049   7.588
 1878POPC   C1B25663  30.591  15.668   8.737
 1878POPC   C2B25664  30.524  15.806   8.341
 1878POPC   C3B25665  30.619  15.695   7.952
 1878POPC   C4B25666  30.268  15.782   7.670
 1879POPC   NC325667  12.462   5.125   9.349
 1879POPC   PO425668  13.062   5.326   9.617
 1879POPC   GL125669  12.976   5.205   9.168
 1879POPC   GL225670  12.700   5.425   9.042
 1879POPC   C1A25671  12.820   4.897   8.808
 1879POPC   D2A25672  12.805   4.673   8.399
 1879POPC   C3A25673  12.878   4.846   7.985
 1879POPC   C4A25674  12.792   4.867   7.540
 1879POPC   C1B25675  12.861   5.371   8.687
 1879POPC   C2B25676  12.752   5.204   8.344
 1879POPC   C3B25677  12.805   5.385   7.972
 1879POPC   C4B25678  13.112   5.266   7.655
 1880POPC   NC325679  20.558  36.870   9.552
 1880POPC   PO425680  20.311  36.413   9.181
 1880POPC   GL125681  20.583  36.734   9.044
 1880POPC   GL225682  20.535  37.117   9.118
 1880POPC   C1A25683  20.745  36.727   8.623
 1880POPC   D2A25684  20.580  36.847   8.214
 1880POPC   C3A25685  20.850  36.824   7.820
 1880POPC   C4A25686  20.771  36.775   7.336
 1880POPC   C1B25687  20.402  37.094   8.704
 1880POPC   C2B25688  20.468  37.348   8.360
 1880POPC   C3B25689  20.699  37.280   7.994
 1880POPC   C4B25690  20.353  37.160   7.807
 1881POPC   NC325691  29.464  38.674   9.428
 1881POPC   PO425692  30.140  38.772   9.397
 1881POPC   GL125693  29.997  38.430   9.122
 1881POPC   GL225694  29.659  38.319   9.107
 1881POPC   C1A25695  30.068  38.198   8.754
 1881POPC   D2A25696  30.047  38.338   8.333
 1881POPC   C3A25697  30.104  38.132   7.953
 1881POPC   C4A25698  30.171  38.319   7.517
 1881POPC   C1B25699  29.653  38.593   8.748
 1881POPC   C2B25700  29.635  38.687   8.304
 1881POPC   C3B25701  29.904  38.629   7.930
 1881POPC   C4B25702  29.776  38.691   7.506
 1882POPC   NC325703  41.188  36.615   9.485
 1882POPC   PO425704  41.683  37.102   9.471
 1882POPC   GL125705  41.377  37.067   9.172
 1882POPC   GL225706  41.408  36.757   9.051
 1882POPC   C1A25707  41.335  37.233   8.777
 1882POPC   D2A25708  41.614  37.038   8.500
 1882POPC   C3A25709  41.600  37.069   8.061
 1882POPC   C4A25710  41.400  36.799   7.749
 1882POPC   C1B25711  41.745  36.623   8.790
 1882POPC   C2B25712  41.753  36.492   8.379
 1882POPC   C3B25713  41.813  36.604   7.971
 1882POPC   C4B25714  42.008  36.464   7.606
 1883POPC   NC325715  26.183   4.421   9.698
 1883POPC   PO425716  25.989   3.811   9.575
 1883POPC   GL125717  26.101   4.065   9.201
 1883POPC   GL225718  26.221   4.398   9.201
 1883POPC   C1A25719  26.053   4.128   8.752
 1883POPC   D2A25720  25.756   4.152   8.391
 1883POPC   C3A25721  25.949   4.352   8.020
 1883POPC   C4A25722  26.381   4.260   7.948
 1883POPC   C1B25723  26.396   4.542   8.827
 1883POPC   C2B25724  26.259   4.490   8.411
 1883POPC   C3B25725  26.288   4.754   8.044
 1883POPC   C4B25726  26.261   4.635   7.617
 1884POPC   NC325727  12.104   5.477   9.746
 1884POPC   PO425728  12.032   4.918   9.396
 1884POPC   GL125729  12.032   5.201   9.075
 1884POPC   GL225730  11.681   5.315   9.089
 1884POPC   C1A25731  12.305   5.151   8.691
 1884POPC   D2A25732  12.334   4.875   8.310
 1884POPC   C3A25733  12.419   5.045   7.907
 1884POPC   C4A25734  12.267   4.935   7.495
 1884POPC   C1B25735  11.652   5.098   8.723
 1884POPC   C2B25736  11.879   5.132   8.371
 1884POPC   C3B25737  11.957   5.223   7.980
 1884POPC   C4B25738  11.703   5.158   7.676
 1885POPC   NC325739  36.498  31.798   9.560
 1885POPC   PO425740  36.036  31.327   9.537
 1885POPC   GL125741  36.088  31.566   9.209
 1885POPC   GL225742  36.408  31.480   9.161
 1885POPC   C1A25743  35.902  31.619   8.827
 1885POPC   D2A25744  36.078  31.590   8.437
 1885POPC   C3A25745  35.905  31.440   8.073
 1885POPC   C4A25746  35.874  31.301   7.685
 1885POPC   C1B25747  36.460  31.660   8.774
 1885POPC   C2B25748  36.569  31.452   8.385
 1885POPC   C3B25749  36.431  31.396   7.956
 1885POPC   C4B25750  36.509  31.753   7.683
 1886POPC   NC325751  16.712  30.228   9.554
 1886POPC   PO425752  16.907  29.682   9.417
 1886POPC   GL125753  16.902  29.809   9.053
 1886POPC   GL225754  16.590  29.951   9.093
 1886POPC   C1A25755  16.796  29.611   8.671
 1886POPC   D2A25756  16.575  29.738   8.320
 1886POPC   C3A25757  16.756  29.699   7.947
 1886POPC   C4A25758  16.895  29.872   7.591
 1886POPC   C1B25759  16.506  30.237   8.732
 1886POPC   C2B25760  16.413  30.268   8.265
 1886POPC   C3B25761  16.490  30.139   7.805
 1886POPC   C4B25762  16.375  29.835   7.453
 1887POPC   NC325763  11.408  19.529   9.500
 1887POPC   PO425764  11.135  18.894   9.505
 1887POPC   GL125765  11.156  19.150   9.172
 1887POPC   GL225766  11.527  19.200   9.126
 1887POPC   C1A25767  10.962  18.985   8.792
 1887POPC   D2A25768  11.152  18.920   8.400
 1887POPC   C3A25769  10.932  18.840   8.030
 1887POPC   C4A25770  11.198  18.804   7.677
 1887POPC   C1B25771  11.377  19.260   8.716
 1887POPC   C2B25772  11.314  19.443   8.338
 1887POPC   C3B25773  11.325  19.183   7.983
 1887POPC   C4B25774  11.664  18.990   7.781
 1888POPC   NC325775  39.219   2.917   9.357
 1888POPC   PO425776  38.746   2.352   9.532
 1888POPC   GL125777  38.972   2.514   9.162
 1888POPC   GL225778  39.331   2.621   8.973
 1888POPC   C1A25779  38.913   2.463   8.737
 1888POPC   D2A25780  39.191   2.540   8.398
 1888POPC   C3A25781  38.931   2.587   8.044
 1888POPC   C4A25782  38.992   2.810   7.661
 1888POPC   C1B25783  39.102   2.957   8.717
 1888POPC   C2B25784  38.977   3.018   8.296
 1888POPC   C3B25785  39.334   2.943   8.008
 1888POPC   C4B25786  39.549   3.200   7.697
 1889POPC   NC325787  38.974  36.481   9.542
 1889POPC   PO425788  39.352  35.933   9.699
 1889POPC   GL125789  39.280  35.916   9.244
 1889POPC   GL225790  39.052  36.180   9.109
 1889POPC   C1A25791  39.442  35.944   8.817
 1889POPC   D2A25792  39.536  36.138   8.427
 1889POPC   C3A25793  39.193  36.060   8.162
 1889POPC   C4A25794  39.200  36.140   7.733
 1889POPC   C1B25795  39.067  36.272   8.637
 1889POPC   C2B25796  38.890  36.561   8.299
 1889POPC   C3B25797  38.873  36.684   7.876
 1889POPC   C4B25798  39.140  36.599   7.552
 1890POPC   NC325799  10.151  43.993   9.582
 1890POPC   PO425800  10.785  44.074   9.465
 1890POPC   GL125801  10.471  44.029   9.180
 1890POPC   GL225802  10.342  43.681   9.194
 1890POPC   C1A25803  10.590  43.968   8.770
 1890POPC   D2A25804  10.917  44.095   8.491
 1890POPC   C3A25805  10.810  43.972   8.090
 1890POPC   C4A25806  10.486  44.134   7.820
 1890POPC   C1B25807  10.104  43.822   8.854
 1890POPC   C2B25808  10.209  43.831   8.455
 1890POPC   C3B25809  10.101  43.941   8.091
 1890POPC   C4B25810  10.111  43.779   7.694
 1891POPC   NC325811  15.447  19.175   9.560
 1891POPC   PO425812  14.806  19.014   9.453
 1891POPC   GL125813  15.157  19.027   9.161
 1891POPC   GL225814  15.043  19.321   8.974
 1891POPC   C1A25815  15.396  19.073   8.736
 1891POPC   D2A25816  15.174  19.086   8.336
 1891POPC   C3A25817  15.240  19.363   8.000
 1891POPC   C4A25818  15.311  19.056   7.694
 1891POPC   C1B25819  14.894  18.925   8.742
 1891POPC   C2B25820  14.915  18.633   8.381
 1891POPC   C3B25821  14.868  18.795   7.958
 1891POPC   C4B25822  14.980  18.694   7.564
 1892POPC   NC325823  34.090  35.634   9.459
 1892POPC   PO425824  33.542  35.202   9.562
 1892POPC   GL125825  33.555  35.403   9.143
 1892POPC   GL225826  33.919  35.412   9.033
 1892POPC   C1A25827  33.549  35.404   8.676
 1892POPC   D2A25828  33.971  35.455   8.492
 1892POPC   C3A25829  34.043  35.480   8.057
 1892POPC   C4A25830  33.628  35.621   7.854
 1892POPC   C1B25831  33.917  35.037   8.791
 1892POPC   C2B25832  33.974  34.952   8.354
 1892POPC   C3B25833  33.731  35.105   7.994
 1892POPC   C4B25834  33.907  35.250   7.621
 1893POPC   NC325835  26.152  21.455   9.701
 1893POPC   PO425836  26.550  21.780   9.319
 1893POPC   GL125837  26.267  21.451   9.165
 1893POPC   GL225838  25.985  21.222   9.245
 1893POPC   C1A25839  26.196  21.284   8.753
 1893POPC   D2A25840  26.291  21.554   8.416
 1893POPC   C3A25841  26.284  21.413   8.004
 1893POPC   C4A25842  26.480  21.669   7.703
 1893POPC   C1B25843  25.815  21.562   8.949
 1893POPC   C2B25844  25.757  21.474   8.517
 1893POPC   C3B25845  25.614  21.614   8.123
 1893POPC   C4B25846  25.820  21.666   7.738
 1894POPC   NC325847  35.378  24.669   9.501
 1894POPC   PO425848  35.153  25.255   9.391
 1894POPC   GL125849  35.388  25.362   9.059
 1894POPC   GL225850  35.623  25.084   9.101
 1894POPC   C1A25851  35.281  25.234   8.620
 1894POPC   D2A25852  35.172  24.835   8.394
 1894POPC   C3A25853  35.215  24.972   7.976
 1894POPC   C4A25854  35.334  25.410   7.958
 1894POPC   C1B25855  35.691  24.950   8.669
 1894POPC   C2B25856  35.649  25.125   8.271
 1894POPC   C3B25857  35.714  25.063   7.846
 1894POPC   C4B25858  35.704  25.015   7.401
 1895POPC   NC325859  18.465   3.830   9.822
 1895POPC   PO425860  17.945   3.480   9.518
 1895POPC   GL125861  18.102   3.651   9.168
 1895POPC   GL225862  18.442   3.734   9.240
 1895POPC   C1A25863  18.170   3.506   8.766
 1895POPC   D2A25864  18.261   3.723   8.408
 1895POPC   C3A25865  18.058   3.575   8.069
 1895POPC   C4A25866  18.083   3.553   7.661
 1895POPC   C1B25867  18.620   3.729   8.816
 1895POPC   C2B25868  18.749   3.526   8.437
 1895POPC   C3B25869  18.563   3.538   8.019
 1895POPC   C4B25870  18.525   3.276   7.653
 1896POPC   NC325871  40.331  30.841   9.856
 1896POPC   PO425872  40.883  30.780   9.475
 1896POPC   GL125873  40.639  30.802   9.099
 1896POPC   GL225874  40.977  30.643   8.960
 1896POPC   C1A25875  40.569  30.731   8.658
 1896POPC   D2A25876  40.925  30.567   8.404
 1896POPC   C3A25877  40.779  30.361   8.038
 1896POPC   C4A25878  40.436  30.633   7.987
 1896POPC   C1B25879  40.932  31.082   8.803
 1896POPC   C2B25880  40.761  31.138   8.414
 1896POPC   C3B25881  40.957  31.001   8.089
 1896POPC   C4B25882  41.013  30.775   7.753
 1897POPC   NC325883  39.784   5.276   9.701
 1897POPC   PO425884  39.817   4.723   9.741
 1897POPC   GL125885  39.931   4.964   9.300
 1897POPC   GL225886  39.992   5.322   9.206
 1897POPC   C1A25887  39.889   5.007   8.829
 1897POPC   D2A25888  39.788   5.054   8.376
 1897POPC   C3A25889  40.186   5.038   8.109
 1897POPC   C4A25890  40.249   5.052   7.635
 1897POPC   C1B25891  40.203   5.445   8.790
 1897POPC   C2B25892  40.113   5.525   8.333
 1897POPC   C3B25893  40.257   5.501   7.884
 1897POPC   C4B25894  40.044   5.498   7.453
 1898POPC   NC325895   6.061  29.788   9.491
 1898POPC   PO425896   5.398  29.952   9.593
 1898POPC   GL125897   5.654  29.893   9.238
 1898POPC   GL225898   5.681  30.192   9.123
 1898POPC   C1A25899   5.897  29.788   8.852
 1898POPC   D2A25900   5.968  30.060   8.472
 1898POPC   C3A25901   6.010  29.831   8.069
 1898POPC   C4A25902   5.738  29.505   7.859
 1898POPC   C1B25903   5.523  30.099   8.751
 1898POPC   C2B25904   5.446  30.209   8.362
 1898POPC   C3B25905   5.512  29.946   8.032
 1898POPC   C4B25906   5.451  29.863   7.613
 1899POPC   NC325907  38.245  16.895   9.336
 1899POPC   PO425908  38.775  16.471   9.482
 1899POPC   GL125909  38.462  16.446   9.161
 1899POPC   GL225910  38.077  16.421   9.173
 1899POPC   C1A25911  38.526  16.627   8.780
 1899POPC   D2A25912  38.712  16.519   8.404
 1899POPC   C3A25913  38.597  16.766   8.068
 1899POPC   C4A25914  38.603  16.959   7.696
 1899POPC   C1B25915  38.010  16.699   8.782
 1899POPC   C2B25916  38.199  16.625   8.394
 1899POPC   C3B25917  38.078  16.621   8.006
 1899POPC   C4B25918  38.155  16.725   7.566
 1900POPC   NC325919  20.073  39.252   9.714
 1900POPC   PO425920  20.817  39.220   9.564
 1900POPC   GL125921  20.496  39.176   9.271
 1900POPC   GL225922  20.259  38.930   9.175
 1900POPC   C1A25923  20.538  39.244   8.834
 1900POPC   D2A25924  20.732  39.428   8.493
 1900POPC   C3A25925  20.697  39.279   8.074
 1900POPC   C4A25926  20.673  39.462   7.660
 1900POPC   C1B25927  20.382  38.770   8.808
 1900POPC   C2B25928  20.571  38.886   8.417
 1900POPC   C3B25929  20.334  38.900   8.037
 1900POPC   C4B25930  20.197  39.062   7.657
 1901POPC   NC325931  35.583   4.199   9.421
 1901POPC   PO425932  35.026   4.584   9.387
 1901POPC   GL125933  35.315   4.452   9.068
 1901POPC   GL225934  35.683   4.600   9.102
 1901POPC   C1A25935  35.528   4.183   8.775
 1901POPC   D2A25936  35.481   3.890   8.450
 1901POPC   C3A25937  35.478   4.090   8.065
 1901POPC   C4A25938  35.238   4.306   7.763
 1901POPC   C1B25939  35.509   4.740   8.698
 1901POPC   C2B25940  35.344   4.593   8.318
 1901POPC   C3B25941  35.596   4.612   7.975
 1901POPC   C4B25942  35.712   4.437   7.604
 1902POPC   NC325943  27.834  21.044   9.462
 1902POPC   PO425944  27.440  21.578   9.511
 1902POPC   GL125945  27.562  21.448   9.140
 1902POPC   GL225946  27.867  21.614   9.152
 1902POPC   C1A25947  27.730  21.325   8.752
 1902POPC   D2A25948  27.961  21.209   8.405
 1902POPC   C3A25949  27.694  21.269   8.063
 1902POPC   C4A25950  27.552  21.292   7.662
 1902POPC   C1B25951  28.023  21.755   8.778
 1902POPC   C2B25952  27.841  21.697   8.370
 1902POPC   C3B25953  27.924  21.712   7.957
 1902POPC   C4B25954  27.846  21.843   7.531
 1903POPC   NC325955  22.523   6.376   9.480
 1903POPC   PO425956  22.396   7.024   9.627
 1903POPC   GL125957  22.151   6.756   9.332
 1903POPC   GL225958  21.908   6.928   9.103
 1903POPC   C1A25959  22.059   6.463   8.983
 1903POPC   D2A25960  21.997   6.476   8.517
 1903POPC   C3A25961  22.313   6.346   8.195
 1903POPC   C4A25962  22.187   6.295   7.770
 1903POPC   C1B25963  22.302   6.881   8.846
 1903POPC   C2B25964  22.427   6.797   8.423
 1903POPC   C3B25965  22.162   6.824   8.062
 1903POPC   C4B25966  22.194   7.089   7.712
 1904POPC   NC325967   4.568  18.366   9.481
 1904POPC   PO425968   3.961  18.017   9.484
 1904POPC   GL125969   4.179  18.078   9.113
 1904POPC   GL225970   4.178  18.389   9.128
 1904POPC   C1A25971   4.537  18.215   8.833
 1904POPC   D2A25972   4.623  18.194   8.424
 1904POPC   C3A25973   4.358  18.068   8.083
 1904POPC   C4A25974   4.492  18.215   7.685
 1904POPC   C1B25975   4.049  18.394   8.726
 1904POPC   C2B25976   4.207  18.484   8.343
 1904POPC   C3B25977   4.028  18.438   7.907
 1904POPC   C4B25978   4.070  18.437   7.464
 1905POPC   NC325979   9.901   9.639   9.382
 1905POPC   PO425980   9.352  10.125   9.436
 1905POPC   GL125981   9.585   9.969   9.099
 1905POPC   GL225982   9.892  10.113   9.185
 1905POPC   C1A25983   9.762   9.865   8.675
 1905POPC   D2A25984   9.970   9.692   8.309
 1905POPC   C3A25985   9.742   9.421   7.972
 1905POPC   C4A25986   9.973   9.360   7.500
 1905POPC   C1B25987  10.090  10.221   8.815
 1905POPC   C2B25988   9.946  10.306   8.397
 1905POPC   C3B25989   9.872  10.104   8.037
 1905POPC   C4B25990  10.004   9.785   7.793
 1906POPC   NC325991  37.440  35.011   9.228
 1906POPC   PO425992  37.870  35.590   9.471
 1906POPC   GL125993  37.681  35.439   9.131
 1906POPC   GL225994  37.370  35.572   9.202
 1906POPC   C1A25995  37.833  35.225   8.749
 1906POPC   D2A25996  38.083  35.306   8.393
 1906POPC   C3A25997  37.868  35.337   7.983
 1906POPC   C4A25998  37.822  35.002   7.675
 1906POPC   C1B25999  37.299  35.496   8.761
 1906POPC   C2B26000  37.414  35.218   8.426
 1906POPC   C3B26001  37.365  35.106   7.979
 1906POPC   C4B26002  37.406  35.242   7.530
 1907POPC   NC326003  25.056   3.120   9.543
 1907POPC   PO426004  25.360   2.581   9.603
 1907POPC   GL126005  25.305   2.677   9.160
 1907POPC   GL226006  25.522   2.412   9.068
 1907POPC   C1A26007  25.264   2.800   8.709
 1907POPC   D2A26008  25.239   2.961   8.287
 1907POPC   C3A26009  25.043   2.770   7.949
 1907POPC   C4A26010  25.193   2.665   7.597
 1907POPC   C1B26011  25.763   2.630   8.766
 1907POPC   C2B26012  25.676   2.478   8.395
 1907POPC   C3B26013  25.493   2.554   8.029
 1907POPC   C4B26014  25.699   2.610   7.645
 1908POPC   NC326015  20.837  10.272   9.466
 1908POPC   PO426016  20.667  10.941   9.488
 1908POPC   GL126017  20.686  10.633   9.129
 1908POPC   GL226018  20.956  10.780   9.031
 1908POPC   C1A26019  20.784  10.305   8.771
 1908POPC   D2A26020  20.982  10.084   8.382
 1908POPC   C3A26021  20.870  10.303   8.020
 1908POPC   C4A26022  20.680  10.202   7.628
 1908POPC   C1B26023  20.709  10.815   8.658
 1908POPC   C2B26024  20.797  10.779   8.230
 1908POPC   C3B26025  20.770  10.963   7.877
 1908POPC   C4B26026  20.571  10.736   7.556
 1909POPC   NC326027  37.132  29.686   9.465
 1909POPC   PO426028  36.661  30.032   9.758
 1909POPC   GL126029  36.683  29.898   9.246
 1909POPC   GL226030  36.987  30.050   9.139
 1909POPC   C1A26031  36.817  29.725   8.783
 1909POPC   D2A26032  36.670  29.728   8.339
 1909POPC   C3A26033  36.904  29.815   7.958
 1909POPC   C4A26034  36.881  29.960   7.543
 1909POPC   C1B26035  37.266  30.033   8.813
 1909POPC   C2B26036  37.164  29.982   8.411
 1909POPC   C3B26037  37.206  30.207   8.053
 1909POPC   C4B26038  37.395  30.034   7.728
 1910POPC   NC326039  15.761  23.367   9.435
 1910POPC   PO426040  15.911  22.683   9.571
 1910POPC   GL126041  15.985  22.873   9.187
 1910POPC   GL226042  16.241  22.614   9.132
 1910POPC   C1A26043  16.022  23.154   8.833
 1910POPC   D2A26044  16.082  23.093   8.386
 1910POPC   C3A26045  15.777  23.237   8.116
 1910POPC   C4A26046  15.670  23.091   7.708
 1910POPC   C1B26047  16.243  22.688   8.683
 1910POPC   C2B26048  16.251  22.628   8.223
 1910POPC   C3B26049  16.254  22.928   7.853
 1910POPC   C4B26050  16.308  22.780   7.416
 1911POPC   NC326051   3.530  33.542   9.604
 1911POPC   PO426052   3.532  32.945   9.793
 1911POPC   GL126053   3.603  32.889   9.293
 1911POPC   GL226054   3.667  33.202   9.162
 1911POPC   C1A26055   3.381  32.874   8.868
 1911POPC   D2A26056   3.215  33.076   8.478
 1911POPC   C3A26057   3.428  32.896   8.115
 1911POPC   C4A26058   3.505  32.807   7.682
 1911POPC   C1B26059   3.580  33.368   8.726
 1911POPC   C2B26060   3.689  33.295   8.297
 1911POPC   C3B26061   3.505  33.356   7.890
 1911POPC   C4B26062   3.724  33.516   7.575
 1912POPC   NC326063   7.309  25.142   9.450
 1912POPC   PO426064   7.034  25.730   9.541
 1912POPC   GL126065   7.107  25.483   9.134
 1912POPC   GL226066   7.448  25.425   8.997
 1912POPC   C1A26067   7.040  25.396   8.703
 1912POPC   D2A26068   6.968  25.453   8.305
 1912POPC   C3A26069   7.141  25.343   7.948
 1912POPC   C4A26070   7.236  24.972   7.751
 1912POPC   C1B26071   7.476  25.148   8.604
 1912POPC   C2B26072   7.554  25.066   8.146
 1912POPC   C3B26073   7.736  25.058   7.709
 1912POPC   C4B26074   7.804  24.785   7.345
 1913POPC   NC326075  44.128  42.917   9.368
 1913POPC   PO426076  43.693  43.205   9.741
 1913POPC   GL126077  43.767  43.237   9.243
 1913POPC   GL226078  43.671  43.511   9.087
 1913POPC   C1A26079  43.992  43.288   8.778
 1913POPC   D2A26080  43.896  42.970   8.418
 1913POPC   C3A26081  44.024  42.987   7.949
 1913POPC   C4A26082  44.273  43.313   7.795
 1913POPC   C1B26083  43.525  43.112   8.819
 1913POPC   C2B26084  43.412  43.202   8.415
 1913POPC   C3B26085  43.561  43.165   8.053
 1913POPC   C4B26086  43.548  42.870   7.736
 1914POPC   NC326087  33.818  16.218   9.480
 1914POPC   PO426088  34.006  15.534   9.377
 1914POPC   GL126089  33.787  15.844   9.130
 1914POPC   GL226090  33.974  16.188   9.013
 1914POPC   C1A26091  33.586  15.954   8.751
 1914POPC   D2A26092  33.800  15.879   8.341
 1914POPC   C3A26093  33.672  15.934   7.887
 1914POPC   C4A26094  33.675  16.020   7.408
 1914POPC   C1B26095  33.964  16.304   8.585
 1914POPC   C2B26096  33.968  16.311   8.126
 1914POPC   C3B26097  33.849  16.414   7.703
 1914POPC   C4B26098  33.620  16.533   7.333
 1915POPC   NC326099  19.503   9.429   9.427
 1915POPC   PO426100  19.694   8.774   9.565
 1915POPC   GL126101  19.842   8.818   9.174
 1915POPC   GL226102  19.782   9.149   9.086
 1915POPC   C1A26103  19.699   8.727   8.768
 1915POPC   D2A26104  19.471   8.664   8.391
 1915POPC   C3A26105  19.694   8.691   8.035
 1915POPC   C4A26106  19.889   8.564   7.661
 1915POPC   C1B26107  19.874   9.187   8.650
 1915POPC   C2B26108  19.726   9.158   8.244
 1915POPC   C3B26109  19.709   9.187   7.789
 1915POPC   C4B26110  19.598   9.397   7.381
 1916POPC   NC326111  32.999  16.312   9.450
 1916POPC   PO426112  33.423  15.816   9.572
 1916POPC   GL126113  33.230  15.815   9.187
 1916POPC   GL226114  33.006  15.524   9.145
 1916POPC   C1A26115  33.028  16.033   8.830
 1916POPC   D2A26116  32.733  16.123   8.488
 1916POPC   C3A26117  32.963  16.174   8.101
 1916POPC   C4A26118  32.920  15.924   7.744
 1916POPC   C1B26119  33.231  15.573   8.732
 1916POPC   C2B26120  33.254  15.799   8.318
 1916POPC   C3B26121  33.267  15.599   7.879
 1916POPC   C4B26122  33.466  15.573   7.429
 1917POPC   NC326123  33.205  26.546   9.527
 1917POPC   PO426124  32.977  27.178   9.617
 1917POPC   GL126125  33.167  26.987   9.233
 1917POPC   GL226126  32.895  26.777   9.195
 1917POPC   C1A26127  33.089  26.905   8.766
 1917POPC   D2A26128  32.882  26.773   8.391
 1917POPC   C3A26129  32.992  26.967   8.015
 1917POPC   C4A26130  32.812  27.065   7.595
 1917POPC   C1B26131  32.913  26.441   8.849
 1917POPC   C2B26132  33.236  26.423   8.512
 1917POPC   C3B26133  33.244  26.470   8.039
 1917POPC   C4B26134  32.988  26.578   7.672
 1918POPC   NC326135  23.753  22.843   9.632
 1918POPC   PO426136  23.261  23.228   9.439
 1918POPC   GL126137  23.642  23.167   9.206
 1918POPC   GL226138  23.707  22.826   9.124
 1918POPC   C1A26139  23.866  23.177   8.821
 1918POPC   D2A26140  23.828  23.295   8.406
 1918POPC   C3A26141  23.856  23.028   8.046
 1918POPC   C4A26142  23.625  23.139   7.681
 1918POPC   C1B26143  23.649  22.691   8.736
 1918POPC   C2B26144  23.537  22.677   8.322
 1918POPC   C3B26145  23.393  22.761   7.925
 1918POPC   C4B26146  23.527  22.620   7.536
 1919POPC   NC326147  39.022   8.576   9.612
 1919POPC   PO426148  39.387   9.177   9.680
 1919POPC   GL126149  39.157   8.934   9.309
 1919POPC   GL226150  38.837   9.119   9.221
 1919POPC   C1A26151  39.362   8.625   8.966
 1919POPC   D2A26152  39.391   8.512   8.524
 1919POPC   C3A26153  39.356   8.768   8.131
 1919POPC   C4A26154  39.031   8.815   7.816
 1919POPC   C1B26155  38.973   8.890   8.837
 1919POPC   C2B26156  39.282   9.068   8.530
 1919POPC   C3B26157  39.273   9.277   8.111
 1919POPC   C4B26158  38.962   9.381   7.785
 1920POPC   NC326159   5.831  27.289   9.399
 1920POPC   PO426160   6.135  26.802   9.640
 1920POPC   GL126161   5.929  26.851   9.164
 1920POPC   GL226162   5.990  27.184   8.947
 1920POPC   C1A26163   5.654  26.830   8.744
 1920POPC   D2A26164   5.421  26.748   8.329
 1920POPC   C3A26165   5.727  26.545   7.963
 1920POPC   C4A26166   5.745  26.611   7.486
 1920POPC   C1B26167   6.103  27.032   8.579
 1920POPC   C2B26168   5.864  26.951   8.225
 1920POPC   C3B26169   5.865  27.036   7.802
 1920POPC   C4B26170   6.216  27.284   7.684
 1921POPC   NC326171   0.648  35.143   9.492
 1921POPC   PO426172  44.906  35.219   9.551
 1921POPC   GL126173   0.217  35.225   9.157
 1921POPC   GL226174   0.479  35.016   9.046
 1921POPC   C1A26175   0.388  35.471   8.795
 1921POPC   D2A26176   0.446  35.370   8.357
 1921POPC   C3A26177   0.720  35.578   8.039
 1921POPC   C4A26178   0.483  35.543   7.661
 1921POPC   C1B26179   0.269  34.947   8.679
 1921POPC   C2B26180   0.475  34.842   8.302
 1921POPC   C3B26181   0.576  35.073   7.943
 1921POPC   C4B26182   0.217  35.103   7.697
 1922POPC   NC326183  30.411  21.114   9.543
 1922POPC   PO426184  30.440  21.771   9.546
 1922POPC   GL126185  30.623  21.490   9.236
 1922POPC   GL226186  30.296  21.371   9.119
 1922POPC   C1A26187  30.931  21.492   8.885
 1922POPC   D2A26188  31.028  21.339   8.451
 1922POPC   C3A26189  30.836  21.444   8.066
 1922POPC   C4A26190  30.399  21.434   7.943
 1922POPC   C1B26191  30.347  21.072   8.804
 1922POPC   C2B26192  30.533  21.172   8.410
 1922POPC   C3B26193  30.624  20.978   8.029
 1922POPC   C4B26194  30.492  20.976   7.603
 1923POPC   NC326195   9.723   2.339   9.455
 1923POPC   PO426196  10.125   1.818   9.507
 1923POPC   GL126197   9.986   1.972   9.118
 1923POPC   GL226198  10.229   2.190   9.089
 1923POPC   C1A26199   9.792   1.871   8.696
 1923POPC   D2A26200   9.946   1.647   8.345
 1923POPC   C3A26201   9.823   1.886   8.014
 1923POPC   C4A26202   9.502   2.050   7.768
 1923POPC   C1B26203   9.927   2.362   8.783
 1923POPC   C2B26204   9.705   2.299   8.396
 1923POPC   C3B26205   9.843   2.392   7.968
 1923POPC   C4B26206   9.872   2.307   7.515
 1924POPC   NC326207   4.678  38.847   9.659
 1924POPC   PO426208   4.244  38.351   9.620
 1924POPC   GL126209   4.238  38.519   9.197
 1924POPC   GL226210   4.589  38.586   9.201
 1924POPC   C1A26211   3.992  38.583   8.782
 1924POPC   D2A26212   3.843  38.729   8.374
 1924POPC   C3A26213   3.966  38.438   8.044
 1924POPC   C4A26214   4.090  38.167   7.685
 1924POPC   C1B26215   4.459  38.770   8.796
 1924POPC   C2B26216   4.341  38.805   8.349
 1924POPC   C3B26217   4.382  38.697   7.900
 1924POPC   C4B26218   4.593  38.873   7.549
 1925POPC   NC326219  10.308  20.825   9.503
 1925POPC   PO426220  10.491  20.178   9.392
 1925POPC   GL126221  10.608  20.520   9.137
 1925POPC   GL226222  10.810  20.858   9.245
 1925POPC   C1A26223  10.311  20.472   8.759
 1925POPC   D2A26224  10.113  20.222   8.404
 1925POPC   C3A26225  10.315  20.346   7.999
 1925POPC   C4A26226  10.759  20.449   7.929
 1925POPC   C1B26227  10.563  20.914   8.835
 1925POPC   C2B26228  10.630  20.706   8.415
 1925POPC   C3B26229  10.495  20.874   8.011
 1925POPC   C4B26230  10.730  20.903   7.614
 1926POPC   NC326231  42.229  10.288   9.625
 1926POPC   PO426232  42.306  10.893   9.415
 1926POPC   GL126233  42.252  10.479   9.163
 1926POPC   GL226234  42.038  10.139   9.170
 1926POPC   C1A26235  42.284  10.557   8.778
 1926POPC   D2A26236  42.402  10.886   8.513
 1926POPC   C3A26237  42.115  10.846   8.184
 1926POPC   C4A26238  42.185  10.860   7.781
 1926POPC   C1B26239  42.166  10.059   8.727
 1926POPC   C2B26240  42.174  10.330   8.341
 1926POPC   C3B26241  42.131  10.344   7.897
 1926POPC   C4B26242  42.333  10.443   7.507
 1927POPC   NC326243  12.168  39.372   9.589
 1927POPC   PO426244  11.694  38.988   9.615
 1927POPC   GL126245  11.817  39.276   9.231
 1927POPC   GL226246  12.059  39.063   9.145
 1927POPC   C1A26247  12.059  39.388   8.786
 1927POPC   D2A26248  12.105  39.154   8.393
 1927POPC   C3A26249  11.832  39.289   8.083
 1927POPC   C4A26250  11.906  39.552   7.786
 1927POPC   C1B26251  12.251  38.810   8.777
 1927POPC   C2B26252  12.404  38.735   8.334
 1927POPC   C3B26253  12.424  38.929   7.946
 1927POPC   C4B26254  12.081  39.082   7.681
 1928POPC   NC326255   8.006  12.883   9.535
 1928POPC   PO426256   8.538  13.274   9.618
 1928POPC   GL126257   8.539  13.082   9.183
 1928POPC   GL226258   8.209  13.045   9.100
 1928POPC   C1A26259   8.533  12.996   8.704
 1928POPC   D2A26260   8.301  13.018   8.288
 1928POPC   C3A26261   8.451  12.799   7.908
 1928POPC   C4A26262   8.399  12.966   7.517
 1928POPC   C1B26263   8.021  12.799   8.790
 1928POPC   C2B26264   7.880  12.646   8.429
 1928POPC   C3B26265   7.982  12.652   8.058
 1928POPC   C4B26266   7.939  12.879   7.740
 1929POPC   NC326267  12.693  28.101   9.446
 1929POPC   PO426268  13.323  28.388   9.555
 1929POPC   GL126269  12.974  28.447   9.201
 1929POPC   GL226270  12.655  28.622   9.170
 1929POPC   C1A26271  12.833  28.326   8.772
 1929POPC   D2A26272  12.912  28.432   8.332
 1929POPC   C3A26273  12.711  28.272   7.944
 1929POPC   C4A26274  12.756  28.418   7.498
 1929POPC   C1B26275  12.603  28.777   8.731
 1929POPC   C2B26276  12.424  28.617   8.292
 1929POPC   C3B26277  12.393  28.647   7.802
 1929POPC   C4B26278  12.355  28.708   7.315
 1930POPC   NC326279  32.149  37.805   9.617
 1930POPC   PO426280  31.840  37.239   9.729
 1930POPC   GL126281  31.939  37.465   9.266
 1930POPC   GL226282  32.172  37.777   9.131
 1930POPC   C1A26283  32.028  37.468   8.794
 1930POPC   D2A26284  32.110  37.779   8.496
 1930POPC   C3A26285  32.145  37.695   8.089
 1930POPC   C4A26286  32.152  37.861   7.683
 1930POPC   C1B26287  32.499  37.694   8.823
 1930POPC   C2B26288  32.628  37.788   8.406
 1930POPC   C3B26289  32.594  37.932   8.000
 1930POPC   C4B26290  32.653  37.826   7.577
 1931POPC   NC326291  44.941  30.217   9.578
 1931POPC   PO426292  44.904  29.756   9.077
 1931POPC   GL126293  44.634  30.101   9.093
 1931POPC   GL226294  44.261  30.050   9.142
 1931POPC   C1A26295  44.476  30.270   8.726
 1931POPC   D2A26296  44.516  29.993   8.354
 1931POPC   C3A26297  44.638  30.014   7.924
 1931POPC   C4A26298  44.931  29.769   7.704
 1931POPC   C1B26299  44.242  29.778   8.770
 1931POPC   C2B26300  44.052  29.810   8.372
 1931POPC   C3B26301  44.208  29.713   7.989
 1931POPC   C4B26302  44.252  29.881   7.582
 1932POPC   NC326303  21.628  21.571   9.510
 1932POPC   PO426304  21.340  20.961   9.678
 1932POPC   GL126305  21.531  21.121   9.258
 1932POPC   GL226306  21.305  21.372   9.051
 1932POPC   C1A26307  21.739  21.271   8.856
 1932POPC   D2A26308  21.742  21.272   8.402
 1932POPC   C3A26309  21.306  21.313   8.235
 1932POPC   C4A26310  21.001  21.182   7.877
 1932POPC   C1B26311  21.401  21.686   8.765
 1932POPC   C2B26312  21.584  21.804   8.400
 1932POPC   C3B26313  21.669  21.643   8.018
 1932POPC   C4B26314  21.292  21.627   7.814
 1933POPC   NC326315  28.166  43.319   9.629
 1933POPC   PO426316  28.603  42.892   9.500
 1933POPC   GL126317  28.451  42.870   9.095
 1933POPC   GL226318  28.357  43.225   9.117
 1933POPC   C1A26319  28.433  43.009   8.664
 1933POPC   D2A26320  28.296  42.960   8.248
 1933POPC   C3A26321  28.474  42.801   7.877
 1933POPC   C4A26322  28.716  42.971   7.508
 1933POPC   C1B26323  28.043  43.313   8.772
 1933POPC   C2B26324  28.110  43.408   8.361
 1933POPC   C3B26325  28.259  43.375   7.942
 1933POPC   C4B26326  28.049  43.518   7.576
 1934POPC   NC326327   4.065  11.733   9.615
 1934POPC   PO426328   4.334  11.034   9.539
 1934POPC   GL126329   4.325  11.335   9.172
 1934POPC   GL226330   4.005  11.515   9.165
 1934POPC   C1A26331   4.370  11.173   8.758
 1934POPC   D2A26332   4.474  11.167   8.335
 1934POPC   C3A26333   4.143  10.995   8.090
 1934POPC   C4A26334   4.155  11.151   7.700
 1934POPC   C1B26335   4.119  11.595   8.768
 1934POPC   C2B26336   4.028  11.396   8.406
 1934POPC   C3B26337   4.163  11.561   8.032
 1934POPC   C4B26338   3.996  11.659   7.641
 1935POPC   NC326339  22.480  19.506   9.340
 1935POPC   PO426340  21.908  19.447   9.686
 1935POPC   GL126341  22.017  19.070   9.303
 1935POPC   GL226342  22.386  18.991   9.212
 1935POPC   C1A26343  21.996  18.950   8.839
 1935POPC   D2A26344  22.314  18.824   8.465
 1935POPC   C3A26345  22.254  18.980   8.025
 1935POPC   C4A26346  21.854  19.036   7.793
 1935POPC   C1B26347  22.452  19.192   8.795
 1935POPC   C2B26348  22.479  19.321   8.387
 1935POPC   C3B26349  22.573  19.416   7.961
 1935POPC   C4B26350  22.262  19.382   7.664
 1936POPC   NC326351  36.749  23.543   9.458
 1936POPC   PO426352  37.228  24.032   9.465
 1936POPC   GL126353  37.304  23.836   9.090
 1936POPC   GL226354  37.186  23.502   9.108
 1936POPC   C1A26355  37.050  23.876   8.735
 1936POPC   D2A26356  36.791  23.945   8.401
 1936POPC   C3A26357  36.952  24.007   7.992
 1936POPC   C4A26358  36.563  24.032   7.720
 1936POPC   C1B26359  36.868  23.424   8.846
 1936POPC   C2B26360  36.830  23.426   8.435
 1936POPC   C3B26361  36.613  23.569   8.093
 1936POPC   C4B26362  36.839  23.574   7.748
 1937POPC   NC326363  28.584  24.895   9.958
 1937POPC   PO426364  28.234  25.375   9.684
 1937POPC   GL126365  28.222  25.324   9.210
 1937POPC   GL226366  28.192  25.664   9.154
 1937POPC   C1A26367  28.298  25.078   8.792
 1937POPC   D2A26368  28.480  25.220   8.360
 1937POPC   C3A26369  28.273  25.096   7.955
 1937POPC   C4A26370  28.244  24.857   7.585
 1937POPC   C1B26371  28.276  25.587   8.711
 1937POPC   C2B26372  28.194  25.665   8.289
 1937POPC   C3B26373  28.377  25.610   7.904
 1937POPC   C4B26374  28.482  25.344   7.525
 1938POPC   NC326375  16.956   6.984   9.444
 1938POPC   PO426376  16.651   7.695   9.433
 1938POPC   GL126377  16.836   7.440   9.141
 1938POPC   GL226378  16.608   7.182   9.044
 1938POPC   C1A26379  16.854   7.620   8.736
 1938POPC   D2A26380  16.981   7.643   8.322
 1938POPC   C3A26381  16.634   7.431   8.158
 1938POPC   C4A26382  16.610   7.297   7.761
 1938POPC   C1B26383  16.967   7.116   8.750
 1938POPC   C2B26384  17.277   7.186   8.435
 1938POPC   C3B26385  17.171   7.259   8.013
 1938POPC   C4B26386  17.027   7.022   7.666
 1939POPC   NC326387   2.255  44.986   9.465
 1939POPC   PO426388   1.988  44.454   9.778
 1939POPC   GL126389   1.964  44.594   9.296
 1939POPC   GL226390   2.109  44.394   9.098
 1939POPC   C1A26391   1.889  44.832   8.870
 1939POPC   D2A26392   1.797   0.068   8.473
 1939POPC   C3A26393   1.921  44.881   8.103
 1939POPC   C4A26394   2.030  44.733   7.715
 1939POPC   C1B26395   1.830  44.332   8.771
 1939POPC   C2B26396   1.698  44.545   8.416
 1939POPC   C3B26397   1.718  44.414   8.003
 1939POPC   C4B26398   1.701  44.375   7.573
 1940POPC   NC326399  29.525   6.696   9.471
 1940POPC   PO426400  30.197   6.514   9.446
 1940POPC   GL126401  29.949   6.632   9.092
 1940POPC   GL226402  29.730   6.355   9.129
 1940POPC   C1A26403  29.907   6.719   8.617
 1940POPC   D2A26404  30.043   6.594   8.165
 1940POPC   C3A26405  30.125   6.789   7.751
 1940POPC   C4A26406  30.150   6.624   7.302
 1940POPC   C1B26407  29.573   6.225   8.764
 1940POPC   C2B26408  29.560   6.425   8.351
 1940POPC   C3B26409  29.628   6.366   7.877
 1940POPC   C4B26410  29.683   6.695   7.522
 1941POPC   NC326411   2.912  43.533   9.497
 1941POPC   PO426412   3.079  42.873   9.590
 1941POPC   GL126413   3.025  42.966   9.142
 1941POPC   GL226414   2.905  43.277   9.070
 1941POPC   C1A26415   2.858  42.940   8.694
 1941POPC   D2A26416   2.518  42.910   8.384
 1941POPC   C3A26417   2.711  43.007   7.994
 1941POPC   C4A26418   3.093  43.046   7.775
 1941POPC   C1B26419   2.700  43.429   8.728
 1941POPC   C2B26420   2.870  43.372   8.324
 1941POPC   C3B26421   2.839  43.548   7.926
 1941POPC   C4B26422   2.519  43.520   7.640
 1942POPC   NC326423  19.213  31.457   9.569
 1942POPC   PO426424  18.604  31.774   9.497
 1942POPC   GL126425  18.886  31.556   9.185
 1942POPC   GL226426  18.905  31.228   9.219
 1942POPC   C1A26427  19.169  31.532   8.832
 1942POPC   D2A26428  18.963  31.524   8.437
 1942POPC   C3A26429  19.196  31.556   8.075
 1942POPC   C4A26430  19.056  31.715   7.697
 1942POPC   C1B26431  19.049  31.035   8.845
 1942POPC   C2B26432  19.040  31.025   8.410
 1942POPC   C3B26433  19.210  30.938   8.006
 1942POPC   C4B26434  19.181  31.207   7.654
 1943POPC   NC326435  14.754  29.967   9.775
 1943POPC   PO426436  14.283  29.781   9.331
 1943POPC   GL126437  14.595  30.012   9.177
 1943POPC   GL226438  14.731  29.749   9.015
 1943POPC   C1A26439  14.547  30.165   8.767
 1943POPC   D2A26440  14.720  29.949   8.397
 1943POPC   C3A26441  14.459  29.965   8.021
 1943POPC   C4A26442  14.337  29.855   7.621
 1943POPC   C1B26443  14.654  29.499   8.685
 1943POPC   C2B26444  14.421  29.420   8.319
 1943POPC   C3B26445  14.498  29.448   7.894
 1943POPC   C4B26446  14.588  29.458   7.463
 1944POPC   NC326447  21.809  10.705   9.444
 1944POPC   PO426448  22.433  10.468   9.411
 1944POPC   GL126449  22.109  10.414   9.097
 1944POPC   GL226450  21.793  10.231   9.190
 1944POPC   C1A26451  21.848  10.604   8.762
 1944POPC   D2A26452  21.730  10.740   8.323
 1944POPC   C3A26453  22.071  10.700   8.028
 1944POPC   C4A26454  22.229  10.510   7.647
 1944POPC   C1B26455  21.929  10.077   8.762
 1944POPC   C2B26456  22.108  10.289   8.436
 1944POPC   C3B26457  22.246  10.196   8.057
 1944POPC   C4B26458  22.211  10.009   7.673
 1945POPC   NC326459  29.685   0.554   9.335
 1945POPC   PO426460  30.078   0.165   9.775
 1945POPC   GL126461  30.089   0.219   9.270
 1945POPC   GL226462  29.792   0.161   9.039
 1945POPC   C1A26463  30.214   0.204   8.781
 1945POPC   D2A26464  29.978   0.153   8.357
 1945POPC   C3A26465  30.101   0.435   8.019
 1945POPC   C4A26466  30.092   0.437   7.566
 1945POPC   C1B26467  29.765   0.511   8.698
 1945POPC   C2B26468  29.507   0.745   8.391
 1945POPC   C3B26469  29.608   0.635   7.983
 1945POPC   C4B26470  29.667   0.206   7.884
 1946POPC   NC326471  15.979  27.370   9.734
 1946POPC   PO426472  16.294  27.952   9.442
 1946POPC   GL126473  16.115  27.584   9.241
 1946POPC   GL226474  15.818  27.669   9.106
 1946POPC   C1A26475  16.137  27.439   8.785
 1946POPC   D2A26476  15.911  27.361   8.385
 1946POPC   C3A26477  16.032  27.490   7.945
 1946POPC   C4A26478  15.964  27.594   7.497
 1946POPC   C1B26479  15.571  27.952   8.864
 1946POPC   C2B26480  15.418  27.846   8.454
 1946POPC   C3B26481  15.669  27.840   8.085
 1946POPC   C4B26482  15.598  27.992   7.690
 1947POPC   NC326483  39.848  32.561   9.396
 1947POPC   PO426484  40.236  31.948   9.405
 1947POPC   GL126485  40.051  32.139   9.091
 1947POPC   GL226486  39.744  32.044   9.107
 1947POPC   C1A26487  40.165  32.273   8.676
 1947POPC   D2A26488  40.235  32.410   8.245
 1947POPC   C3A26489  40.108  32.120   7.919
 1947POPC   C4A26490  40.240  32.144   7.455
 1947POPC   C1B26491  39.666  32.313   8.770
 1947POPC   C2B26492  39.739  32.239   8.347
 1947POPC   C3B26493  39.771  32.525   8.028
 1947POPC   C4B26494  40.050  32.610   7.752
 1948POPC   NC326495  38.406  26.853   9.507
 1948POPC   PO426496  38.892  26.413   9.317
 1948POPC   GL126497  38.586  26.596   9.100
 1948POPC   GL226498  38.569  26.980   9.046
 1948POPC   C1A26499  38.383  26.548   8.720
 1948POPC   D2A26500  38.247  26.805   8.414
 1948POPC   C3A26501  38.420  26.730   8.015
 1948POPC   C4A26502  38.271  26.903   7.613
 1948POPC   C1B26503  38.818  26.821   8.719
 1948POPC   C2B26504  38.806  26.605   8.356
 1948POPC   C3B26505  38.962  26.791   7.994
 1948POPC   C4B26506  38.781  26.846   7.638
 1949POPC   NC326507  13.022  40.063   9.433
 1949POPC   PO426508  12.489  39.635   9.360
 1949POPC   GL126509  12.707  39.917   9.067
 1949POPC   GL226510  12.627  40.227   8.955
 1949POPC   C1A26511  13.068  39.868   8.782
 1949POPC   D2A26512  13.091  40.032   8.368
 1949POPC   C3A26513  12.671  40.111   8.184
 1949POPC   C4A26514  12.578  39.831   7.843
 1949POPC   C1B26515  13.027  40.379   8.773
 1949POPC   C2B26516  13.225  40.534   8.372
 1949POPC   C3B26517  13.339  40.292   8.004
 1949POPC   C4B26518  12.979  40.155   7.774
 1950POPC   NC326519  24.667  38.317   9.359
 1950POPC   PO426520  24.179  38.800   9.433
 1950POPC   GL126521  24.523  38.771   9.157
 1950POPC   GL226522  24.343  38.937   8.968
 1950POPC   C1A26523  24.661  38.620   8.716
 1950POPC   D2A26524  24.828  38.613   8.265
 1950POPC   C3A26525  24.754  38.304   7.922
 1950POPC   C4A26526  24.429  38.187   7.697
 1950POPC   C1B26527  24.098  38.711   8.672
 1950POPC   C2B26528  24.304  38.483   8.359
 1950POPC   C3B26529  24.369  38.644   7.973
 1950POPC   C4B26530  24.285  39.049   7.730
 1951POPC   NC326531  18.655  40.296   9.711
 1951POPC   PO426532  19.060  39.876   9.311
 1951POPC   GL126533  19.288  40.129   9.045
 1951POPC   GL226534  19.058  39.953   8.836
 1951POPC   C1A26535  19.253  40.345   8.652
 1951POPC   D2A26536  19.088  40.077   8.358
 1951POPC   C3A26537  19.149  40.262   8.022
 1951POPC   C4A26538  19.037  40.013   7.754
 1951POPC   C1B26539  18.938  39.620   8.634
 1951POPC   C2B26540  18.795  39.406   8.283
 1951POPC   C3B26541  18.683  39.653   7.948
 1951POPC   C4B26542  18.683  39.711   7.509
 1952POPC   NC326543  10.316  38.164   9.397
 1952POPC   PO426544  10.758  38.655   9.506
 1952POPC   GL126545  10.554  38.545   9.145
 1952POPC   GL226546  10.404  38.864   9.098
 1952POPC   C1A26547  10.397  38.381   8.731
 1952POPC   D2A26548  10.106  38.409   8.371
 1952POPC   C3A26549  10.093  38.271   7.936
 1952POPC   C4A26550  10.407  38.200   7.606
 1952POPC   C1B26551  10.700  38.815   8.744
 1952POPC   C2B26552  10.568  38.847   8.332
 1952POPC   C3B26553  10.464  38.643   7.965
 1952POPC   C4B26554  10.697  38.601   7.602
 1953POPC   NC326555  16.850  34.032   9.517
 1953POPC   PO426556  17.116  33.436   9.362
 1953POPC   GL126557  16.934  33.758   9.080
 1953POPC   GL226558  16.605  33.953   9.077
 1953POPC   C1A26559  16.768  33.629   8.694
 1953POPC   D2A26560  16.409  33.548   8.435
 1953POPC   C3A26561  16.589  33.519   8.038
 1953POPC   C4A26562  16.521  33.589   7.613
 1953POPC   C1B26563  16.699  34.144   8.711
 1953POPC   C2B26564  16.724  33.964   8.286
 1953POPC   C3B26565  16.599  34.032   7.868
 1953POPC   C4B26566  16.702  34.026   7.414
 1954POPC   NC326567  21.304  23.968   9.282
 1954POPC   PO426568  21.663  23.459   9.451
 1954POPC   GL126569  21.481  23.513   9.043
 1954POPC   GL226570  21.127  23.486   9.031
 1954POPC   C1A26571  21.676  23.701   8.644
 1954POPC   D2A26572  21.697  23.905   8.219
 1954POPC   C3A26573  21.700  23.603   7.915
 1954POPC   C4A26574  21.310  23.386   7.870
 1954POPC   C1B26575  21.171  23.717   8.658
 1954POPC   C2B26576  21.192  23.991   8.289
 1954POPC   C3B26577  21.003  23.965   7.905
 1954POPC   C4B26578  21.193  23.908   7.515
 1955POPC   NC326579   5.261  33.040   9.665
 1955POPC   PO426580   4.588  32.987   9.801
 1955POPC   GL126581   4.872  33.157   9.332
 1955POPC   GL226582   5.245  33.182   9.183
 1955POPC   C1A26583   4.906  33.027   8.846
 1955POPC   D2A26584   4.854  33.263   8.435
 1955POPC   C3A26585   5.143  33.140   8.094
 1955POPC   C4A26586   5.104  32.949   7.678
 1955POPC   C1B26587   5.419  32.984   8.789
 1955POPC   C2B26588   5.368  32.784   8.395
 1955POPC   C3B26589   5.515  32.795   7.958
 1955POPC   C4B26590   5.575  32.786   7.503
 1956POPC   NC326591  42.341  42.267   9.450
 1956POPC   PO426592  42.816  42.726   9.703
 1956POPC   GL126593  42.703  42.561   9.229
 1956POPC   GL226594  42.608  42.215   9.024
 1956POPC   C1A26595  42.722  42.624   8.767
 1956POPC   D2A26596  42.764  42.289   8.419
 1956POPC   C3A26597  42.437  42.344   8.084
 1956POPC   C4A26598  42.051  42.551   7.912
 1956POPC   C1B26599  42.266  42.215   8.681
 1956POPC   C2B26600  41.973  42.122   8.320
 1956POPC   C3B26601  42.082  42.012   7.900
 1956POPC   C4B26602  42.471  41.836   7.786
 1957POPC   NC326603  20.681   5.230   9.450
 1957POPC   PO426604  21.051   4.643   9.490
 1957POPC   GL126605  20.826   4.852   9.111
 1957POPC   GL226606  20.487   4.756   9.087
 1957POPC   C1A26607  20.707   5.196   8.770
 1957POPC   D2A26608  20.681   5.441   8.352
 1957POPC   C3A26609  20.652   5.136   7.986
 1957POPC   C4A26610  20.783   5.088   7.580
 1957POPC   C1B26611  20.252   4.906   8.767
 1957POPC   C2B26612  20.365   5.043   8.389
 1957POPC   C3B26613  20.165   5.258   8.058
 1957POPC   C4B26614  20.019   5.123   7.685
 1958POPC   NC326615  33.268  17.784   9.333
 1958POPC   PO426616  32.759  17.372   9.575
 1958POPC   GL126617  32.917  17.419   9.156
 1958POPC   GL226618  32.814  17.766   9.110
 1958POPC   C1A26619  33.040  17.468   8.719
 1958POPC   D2A26620  33.355  17.401   8.390
 1958POPC   C3A26621  33.101  17.421   8.030
 1958POPC   C4A26622  33.149  17.240   7.626
 1958POPC   C1B26623  32.604  17.955   8.782
 1958POPC   C2B26624  32.751  17.779   8.397
 1958POPC   C3B26625  32.674  17.777   7.985
 1958POPC   C4B26626  32.974  17.779   7.698
 1959POPC   NC326627  22.363  30.146  10.089
 1959POPC   PO426628  22.052  29.952   9.538
 1959POPC   GL126629  22.203  30.071   9.144
 1959POPC   GL226630  22.270  29.727   8.995
 1959POPC   C1A26631  22.363  30.150   8.716
 1959POPC   D2A26632  22.304  29.784   8.429
 1959POPC   C3A26633  22.562  29.789   8.064
 1959POPC   C4A26634  22.676  30.064   7.744
 1959POPC   C1B26635  21.906  29.936   8.752
 1959POPC   C2B26636  21.886  30.050   8.318
 1959POPC   C3B26637  22.097  29.989   7.906
 1959POPC   C4B26638  21.889  30.075   7.501
 1960POPC   NC326639   0.957  22.593   9.490
 1960POPC   PO426640   1.239  21.974   9.502
 1960POPC   GL126641   1.163  22.056   9.133
 1960POPC   GL226642   1.245  22.375   9.111
 1960POPC   C1A26643   1.491  22.002   8.813
 1960POPC   D2A26644   1.443  21.866   8.397
 1960POPC   C3A26645   1.248  22.125   8.074
 1960POPC   C4A26646   0.914  21.925   7.865
 1960POPC   C1B26647   1.121  22.330   8.700
 1960POPC   C2B26648   0.909  22.080   8.433
 1960POPC   C3B26649   0.640  22.233   8.167
 1960POPC   C4B26650   0.796  22.430   7.849
 1961POPC   NC326651  12.850  17.132   9.432
 1961POPC   PO426652  13.145  16.405   9.494
 1961POPC   GL126653  12.874  16.667   9.225
 1961POPC   GL226654  13.138  16.883   9.079
 1961POPC   C1A26655  12.725  16.889   8.816
 1961POPC   D2A26656  12.598  16.918   8.380
 1961POPC   C3A26657  12.539  16.546   8.188
 1961POPC   C4A26658  12.713  16.647   7.816
 1961POPC   C1B26659  13.126  16.475   8.835
 1961POPC   C2B26660  12.979  16.377   8.436
 1961POPC   C3B26661  13.099  16.696   8.150
 1961POPC   C4B26662  13.204  16.781   7.712
 1962POPC   NC326663  40.662  31.213   9.414
 1962POPC   PO426664  41.063  31.745   9.542
 1962POPC   GL126665  40.944  31.604   9.124
 1962POPC   GL226666  40.585  31.575   9.072
 1962POPC   C1A26667  40.878  31.573   8.677
 1962POPC   D2A26668  40.540  31.595   8.443
 1962POPC   C3A26669  40.753  31.530   8.072
 1962POPC   C4A26670  40.846  31.303   7.706
 1962POPC   C1B26671  40.397  31.238   8.795
 1962POPC   C2B26672  40.234  31.154   8.362
 1962POPC   C3B26673  40.428  31.136   7.943
 1962POPC   C4B26674  40.386  31.243   7.484
 1963POPC   NC326675  19.871  38.159   9.629
 1963POPC   PO426676  20.093  38.803   9.622
 1963POPC   GL126677  20.047  38.455   9.246
 1963POPC   GL226678  19.748  38.179   9.152
 1963POPC   C1A26679  19.928  38.547   8.816
 1963POPC   D2A26680  20.026  38.764   8.435
 1963POPC   C3A26681  20.020  38.518   8.072
 1963POPC   C4A26682  19.981  38.622   7.673
 1963POPC   C1B26683  19.928  38.053   8.766
 1963POPC   C2B26684  19.739  38.250   8.405
 1963POPC   C3B26685  19.700  38.123   7.968
 1963POPC   C4B26686  19.679  38.196   7.535
 1964POPC   NC326687   2.830  34.063   9.547
 1964POPC   PO426688   2.896  34.717   9.853
 1964POPC   GL126689   2.857  34.592   9.360
 1964POPC   GL226690   2.764  34.870   9.120
 1964POPC   C1A26691   2.805  34.406   8.902
 1964POPC   D2A26692   2.947  34.204   8.494
 1964POPC   C3A26693   2.803  34.313   8.083
 1964POPC   C4A26694   2.833  34.470   7.705
 1964POPC   C1B26695   2.977  34.875   8.708
 1964POPC   C2B26696   2.965  34.937   8.278
 1964POPC   C3B26697   2.656  34.847   8.009
 1964POPC   C4B26698   2.634  34.963   7.621
 1965POPC   NC326699  15.124  32.253   9.581
 1965POPC   PO426700  15.650  32.248   9.220
 1965POPC   GL126701  15.216  32.308   9.075
 1965POPC   GL226702  14.883  32.420   9.144
 1965POPC   C1A26703  15.147  32.391   8.668
 1965POPC   D2A26704  15.397  32.537   8.377
 1965POPC   C3A26705  15.225  32.360   8.021
 1965POPC   C4A26706  15.430  32.463   7.678
 1965POPC   C1B26707  14.710  32.608   8.808
 1965POPC   C2B26708  14.860  32.744   8.408
 1965POPC   C3B26709  14.746  32.592   8.009
 1965POPC   C4B26710  14.939  32.595   7.623
 1966POPC   NC326711  34.126  22.588   9.556
 1966POPC   PO426712  33.725  23.016   9.833
 1966POPC   GL126713  33.860  22.960   9.326
 1966POPC   GL226714  34.075  23.273   9.305
 1966POPC   C1A26715  33.908  22.757   8.840
 1966POPC   D2A26716  33.792  22.771   8.387
 1966POPC   C3A26717  33.837  22.648   7.946
 1966POPC   C4A26718  33.654  22.728   7.511
 1966POPC   C1B26719  34.174  23.177   8.883
 1966POPC   C2B26720  34.205  23.077   8.455
 1966POPC   C3B26721  33.987  23.142   8.046
 1966POPC   C4B26722  34.059  23.019   7.597
 1967POPC   NC326723  22.111  38.760   9.768
 1967POPC   PO426724  21.892  39.239   9.415
 1967POPC   GL126725  22.111  39.378   9.062
 1967POPC   GL226726  21.853  39.498   8.944
 1967POPC   C1A26727  22.184  39.267   8.619
 1967POPC   D2A26728  21.948  39.069   8.267
 1967POPC   C3A26729  22.169  39.009   7.875
 1967POPC   C4A26730  22.354  39.402   7.799
 1967POPC   C1B26731  21.803  39.637   8.555
 1967POPC   C2B26732  21.657  39.510   8.192
 1967POPC   C3B26733  21.828  39.368   7.831
 1967POPC   C4B26734  21.577  39.306   7.499
 1968POPC   NC326735   2.465  39.857   9.506
 1968POPC   PO426736   3.069  40.290   9.368
 1968POPC   GL126737   2.719  40.123   9.115
 1968POPC   GL226738   2.633  39.762   9.044
 1968POPC   C1A26739   2.597  40.129   8.684
 1968POPC   D2A26740   2.855  40.134   8.300
 1968POPC   C3A26741   2.606  40.109   7.889
 1968POPC   C4A26742   2.192  40.231   7.708
 1968POPC   C1B26743   2.928  39.718   8.717
 1968POPC   C2B26744   3.158  39.580   8.381
 1968POPC   C3B26745   2.936  39.676   8.032
 1968POPC   C4B26746   3.018  39.617   7.635
 1969POPC   NC326747  20.041  34.766   9.426
 1969POPC   PO426748  19.546  34.301   9.649
 1969POPC   GL126749  19.703  34.448   9.229
 1969POPC   GL226750  20.060  34.409   9.061
 1969POPC   C1A26751  19.701  34.698   8.833
 1969POPC   D2A26752  19.829  34.493   8.458
 1969POPC   C3A26753  19.771  34.625   8.023
 1969POPC   C4A26754  20.056  34.517   7.684
 1969POPC   C1B26755  20.199  34.781   8.780
 1969POPC   C2B26756  20.161  34.893   8.340
 1969POPC   C3B26757  20.164  34.956   7.894
 1969POPC   C4B26758  20.143  34.958   7.412
 1970POPC   NC326759  41.330  16.443   9.282
 1970POPC   PO426760  41.348  17.024   9.432
 1970POPC   GL126761  41.585  16.912   9.073
 1970POPC   GL226762  41.819  16.642   9.186
 1970POPC   C1A26763  41.694  16.998   8.631
 1970POPC   D2A26764  41.835  17.021   8.192
 1970POPC   C3A26765  41.654  16.791   7.889
 1970POPC   C4A26766  41.643  16.901   7.439
 1970POPC   C1B26767  41.733  16.490   8.769
 1970POPC   C2B26768  41.626  16.525   8.350
 1970POPC   C3B26769  41.477  16.325   7.977
 1970POPC   C4B26770  41.664  16.385   7.589
 1971POPC   NC326771  34.831  11.964   9.522
 1971POPC   PO426772  34.140  12.312   9.435
 1971POPC   GL126773  34.328  12.244   9.061
 1971POPC   GL226774  34.618  12.060   9.079
 1971POPC   C1A26775  34.342  12.145   8.654
 1971POPC   D2A26776  34.331  11.890   8.341
 1971POPC   C3A26777  34.389  12.093   8.010
 1971POPC   C4A26778  34.362  11.883   7.659
 1971POPC   C1B26779  34.779  12.392   8.799
 1971POPC   C2B26780  34.643  12.529   8.394
 1971POPC   C3B26781  34.853  12.543   8.028
 1971POPC   C4B26782  34.662  12.391   7.669
 1972POPC   NC326783  33.359   3.469   9.457
 1972POPC   PO426784  32.687   3.449   9.340
 1972POPC   GL126785  32.987   3.471   9.083
 1972POPC   GL226786  33.051   3.819   9.125
 1972POPC   C1A26787  33.121   3.373   8.697
 1972POPC   D2A26788  33.002   3.232   8.331
 1972POPC   C3A26789  32.935   3.518   8.058
 1972POPC   C4A26790  33.095   3.484   7.669
 1972POPC   C1B26791  32.945   3.837   8.660
 1972POPC   C2B26792  32.616   3.822   8.340
 1972POPC   C3B26793  32.757   3.987   7.941
 1972POPC   C4B26794  33.204   3.933   7.895
 1973POPC   NC326795  16.058  19.005   9.473
 1973POPC   PO426796  15.458  18.704   9.590
 1973POPC   GL126797  15.644  18.848   9.183
 1973POPC   GL226798  15.687  19.198   9.112
 1973POPC   C1A26799  15.938  18.847   8.825
 1973POPC   D2A26800  15.918  18.785   8.383
 1973POPC   C3A26801  16.097  18.789   7.972
 1973POPC   C4A26802  15.800  18.836   7.651
 1973POPC   C1B26803  15.861  19.358   8.734
 1973POPC   C2B26804  15.989  19.311   8.319
 1973POPC   C3B26805  15.738  19.207   7.990
 1973POPC   C4B26806  15.696  19.345   7.578
 1974POPC   NC326807  14.883  29.532   9.459
 1974POPC   PO426808  15.207  30.085   9.636
 1974POPC   GL126809  15.140  29.950   9.232
 1974POPC   GL226810  15.231  29.586   9.097
 1974POPC   C1A26811  15.053  30.131   8.825
 1974POPC   D2A26812  15.177  30.223   8.389
 1974POPC   C3A26813  15.162  29.887   8.086
 1974POPC   C4A26814  14.873  29.819   7.745
 1974POPC   C1B26815  15.515  29.874   8.882
 1974POPC   C2B26816  15.583  29.900   8.445
 1974POPC   C3B26817  15.675  29.681   8.072
 1974POPC   C4B26818  15.463  29.718   7.678
 1975POPC   NC326819  34.753  20.639   9.840
 1975POPC   PO426820  35.348  20.798   9.536
 1975POPC   GL126821  35.482  20.671   9.147
 1975POPC   GL226822  35.188  20.714   9.017
 1975POPC   C1A26823  35.588  20.372   8.851
 1975POPC   D2A26824  35.708  20.282   8.436
 1975POPC   C3A26825  35.488  20.470   8.135
 1975POPC   C4A26826  35.369  20.383   7.756
 1975POPC   C1B26827  35.237  20.665   8.592
 1975POPC   C2B26828  35.040  20.725   8.206
 1975POPC   C3B26829  35.269  20.880   7.872
 1975POPC   C4B26830  35.070  20.938   7.528
 1976POPC   NC326831  21.491  29.180   9.381
 1976POPC   PO426832  21.841  28.817   8.972
 1976POPC   GL126833  21.351  28.835   8.960
 1976POPC   GL226834  21.185  29.171   8.988
 1976POPC   C1A26835  21.206  28.949   8.533
 1976POPC   D2A26836  21.527  29.070   8.249
 1976POPC   C3A26837  21.411  28.859   7.875
 1976POPC   C4A26838  20.985  28.936   7.845
 1976POPC   C1B26839  21.269  29.442   8.662
 1976POPC   C2B26840  21.111  29.439   8.282
 1976POPC   C3B26841  21.289  29.381   7.906
 1976POPC   C4B26842  21.720  29.260   7.808
 1977POPC   NC326843  12.266  18.913   9.644
 1977POPC   PO426844  11.843  19.343   9.515
 1977POPC   GL126845  12.069  19.298   9.148
 1977POPC   GL226846  12.320  19.036   9.146
 1977POPC   C1A26847  11.903  19.187   8.740
 1977POPC   D2A26848  11.698  19.074   8.337
 1977POPC   C3A26849  12.019  19.205   8.063
 1977POPC   C4A26850  12.030  19.348   7.653
 1977POPC   C1B26851  12.283  18.709   8.842
 1977POPC   C2B26852  12.121  18.797   8.438
 1977POPC   C3B26853  12.007  18.690   8.029
 1977POPC   C4B26854  12.213  18.845   7.688
 1978POPC   NC326855  15.544  34.874   9.300
 1978POPC   PO426856  15.083  34.447   9.643
 1978POPC   GL126857  15.137  34.551   9.214
 1978POPC   GL226858  15.325  34.244   9.107
 1978POPC   C1A26859  15.280  34.602   8.756
 1978POPC   D2A26860  15.432  34.763   8.380
 1978POPC   C3A26861  15.167  34.618   8.049
 1978POPC   C4A26862  15.128  34.894   7.706
 1978POPC   C1B26863  15.611  34.164   8.764
 1978POPC   C2B26864  15.457  34.253   8.367
 1978POPC   C3B26865  15.608  34.382   7.973
 1978POPC   C4B26866  15.338  34.430   7.595
 1979POPC   NC326867  11.904   3.998   9.554
 1979POPC   PO426868  12.036   3.306   9.487
 1979POPC   GL126869  12.003   3.636   9.193
 1979POPC   GL226870  11.667   3.655   9.176
 1979POPC   C1A26871  12.030   3.740   8.769
 1979POPC   D2A26872  12.066   3.437   8.448
 1979POPC   C3A26873  11.967   3.578   8.065
 1979POPC   C4A26874  12.165   3.663   7.720
 1979POPC   C1B26875  11.776   3.296   8.851
 1979POPC   C2B26876  11.633   3.196   8.422
 1979POPC   C3B26877  11.514   3.340   8.015
 1979POPC   C4B26878  11.713   3.465   7.615
 1980POPC   NC326879  33.481   6.032   9.475
 1980POPC   PO426880  34.042   5.622   9.647
 1980POPC   GL126881  33.852   5.748   9.264
 1980POPC   GL226882  33.959   6.090   9.192
 1980POPC   C1A26883  33.704   5.802   8.835
 1980POPC   D2A26884  33.927   5.928   8.433
 1980POPC   C3A26885  33.780   5.731   8.050
 1980POPC   C4A26886  34.065   5.699   7.714
 1980POPC   C1B26887  33.854   6.281   8.794
 1980POPC   C2B26888  33.595   6.342   8.420
 1980POPC   C3B26889  33.799   6.256   8.042
 1980POPC   C4B26890  33.946   6.212   7.624
 1981POPC   NC326891  18.891  17.722   9.560
 1981POPC   PO426892  18.941  17.070   9.550
 1981POPC   GL126893  18.920  17.387   9.191
 1981POPC   GL226894  19.253  17.504   9.224
 1981POPC   C1A26895  18.818  17.567   8.762
 1981POPC   D2A26896  18.740  17.341   8.333
 1981POPC   C3A26897  18.816  17.502   7.950
 1981POPC   C4A26898  19.052  17.428   7.608
 1981POPC   C1B26899  19.353  17.610   8.794
 1981POPC   C2B26900  19.169  17.596   8.377
 1981POPC   C3B26901  19.310  17.653   7.975
 1981POPC   C4B26902  19.382  17.896   7.626
 1982POPC   NC326903  41.359  28.876   9.417
 1982POPC   PO426904  41.722  29.493   9.483
 1982POPC   GL126905  41.623  29.245   9.147
 1982POPC   GL226906  41.267  29.323   9.089
 1982POPC   C1A26907  41.642  29.246   8.723
 1982POPC   D2A26908  41.473  29.212   8.322
 1982POPC   C3A26909  41.739  29.291   7.966
 1982POPC   C4A26910  41.482  29.015   7.689
 1982POPC   C1B26911  41.245  29.587   8.674
 1982POPC   C2B26912  41.396  29.714   8.251
 1982POPC   C3B26913  41.270  29.451   7.872
 1982POPC   C4B26914  41.261  29.369   7.405
 1983POPC   NC326915  13.582   7.835   9.374
 1983POPC   PO426916  13.393   8.469   9.502
 1983POPC   GL126917  13.620   8.265   9.116
 1983POPC   GL226918  13.917   8.381   9.015
 1983POPC   C1A26919  13.726   8.000   8.724
 1983POPC   D2A26920  13.657   8.243   8.341
 1983POPC   C3A26921  13.515   8.157   7.952
 1983POPC   C4A26922  13.706   8.051   7.547
 1983POPC   C1B26923  14.054   8.409   8.644
 1983POPC   C2B26924  14.153   8.142   8.303
 1983POPC   C3B26925  14.026   8.249   7.892
 1983POPC   C4B26926  13.761   8.545   7.619
 1984POPC   NC326927  30.076  39.243   9.513
 1984POPC   PO426928  29.431  39.086   9.683
 1984POPC   GL126929  29.679  39.088   9.207
 1984POPC   GL226930  29.874  39.397   9.073
 1984POPC   C1A26931  29.947  39.000   8.784
 1984POPC   D2A26932  30.135  38.833   8.396
 1984POPC   C3A26933  30.241  39.065   8.012
 1984POPC   C4A26934  29.863  39.114   7.773
 1984POPC   C1B26935  29.790  39.468   8.630
 1984POPC   C2B26936  29.813  39.376   8.203
 1984POPC   C3B26937  29.785  39.637   7.811
 1984POPC   C4B26938  29.651  39.583   7.401
 1985POPC   NC326939  40.563   1.381   9.428
 1985POPC   PO426940  41.021   0.849   9.515
 1985POPC   GL126941  40.947   1.139   9.160
 1985POPC   GL226942  40.618   0.973   9.105
 1985POPC   C1A26943  40.730   1.363   8.794
 1985POPC   D2A26944  40.705   1.256   8.369
 1985POPC   C3A26945  40.645   1.533   8.022
 1985POPC   C4A26946  40.583   1.396   7.589
 1985POPC   C1B26947  40.760   0.841   8.736
 1985POPC   C2B26948  40.626   0.748   8.346
 1985POPC   C3B26949  40.651   0.951   7.924
 1985POPC   C4B26950  40.987   0.806   7.629
 1986POPC   NC326951   8.306  44.858   9.545
 1986POPC   PO426952   8.256  44.241   9.203
 1986POPC   GL126953   8.213  44.675   9.083
 1986POPC   GL226954   8.531  44.899   9.117
 1986POPC   C1A26955   8.039  44.713   8.675
 1986POPC   D2A26956   8.155  44.473   8.295
 1986POPC   C3A26957   7.999  44.676   7.931
 1986POPC   C4A26958   8.186  44.435   7.625
 1986POPC   C1B26959   8.552  44.727   8.730
 1986POPC   C2B26960   8.454  44.886   8.347
 1986POPC   C3B26961   8.498  44.707   7.951
 1986POPC   C4B26962   8.398  44.896   7.602
 1987POPC   NC326963  23.342  35.268   9.319
 1987POPC   PO426964  22.831  35.819   9.381
 1987POPC   GL126965  22.926  35.481   9.124
 1987POPC   GL226966  22.890  35.717   8.885
 1987POPC   C1A26967  22.792  35.214   8.748
 1987POPC   D2A26968  22.583  35.118   8.322
 1987POPC   C3A26969  22.912  35.206   7.992
 1987POPC   C4A26970  23.229  35.163   7.609
 1987POPC   C1B26971  23.236  35.568   8.660
 1987POPC   C2B26972  23.201  35.557   8.222
 1987POPC   C3B26973  23.146  35.621   7.785
 1987POPC   C4B26974  22.837  35.477   7.499
 1988POPC   NC326975  41.653  43.341   9.339
 1988POPC   PO426976  41.928  42.834   9.665
 1988POPC   GL126977  41.787  42.901   9.166
 1988POPC   GL226978  41.462  42.985   9.030
 1988POPC   C1A26979  41.833  43.013   8.710
 1988POPC   D2A26980  41.536  43.051   8.333
 1988POPC   C3A26981  41.634  43.053   7.872
 1988POPC   C4A26982  41.502  43.094   7.413
 1988POPC   C1B26983  41.357  43.343   8.752
 1988POPC   C2B26984  41.394  43.557   8.361
 1988POPC   C3B26985  41.294  43.415   7.965
 1988POPC   C4B26986  41.410  43.567   7.560
 1989POPC   NC326987   5.760  20.790   9.480
 1989POPC   PO426988   6.404  20.923   9.495
 1989POPC   GL126989   6.152  20.685   9.154
 1989POPC   GL226990   5.861  20.438   9.142
 1989POPC   C1A26991   5.974  20.671   8.731
 1989POPC   D2A26992   6.177  20.539   8.395
 1989POPC   C3A26993   5.887  20.539   8.131
 1989POPC   C4A26994   5.797  20.852   7.820
 1989POPC   C1B26995   5.644  20.235   8.839
 1989POPC   C2B26996   5.583  20.236   8.414
 1989POPC   C3B26997   5.542  20.153   7.975
 1989POPC   C4B26998   5.819  20.325   7.683
 1990POPC   NC326999   0.940  16.979   9.522
 1990POPC   PO427000   1.433  16.507   9.459
 1990POPC   GL127001   1.271  16.769   9.173
 1990POPC   GL227002   0.953  16.654   9.129
 1990POPC   C1A27003   1.348  16.780   8.740
 1990POPC   D2A27004   1.238  17.035   8.372
 1990POPC   C3A27005   1.503  16.817   8.081
 1990POPC   C4A27006   1.506  16.855   7.651
 1990POPC   C1B27007   0.929  16.502   8.733
 1990POPC   C2B27008   1.099  16.554   8.329
 1990POPC   C3B27009   1.047  16.686   7.896
 1990POPC   C4B27010   1.121  16.561   7.470
 1991POPC   NC327011  39.273  15.709   9.339
 1991POPC   PO427012  39.696  16.108   9.605
 1991POPC   GL127013  39.266  16.162   9.174
 1991POPC   GL227014  38.885  16.039   9.216
 1991POPC   C1A27015  39.325  16.068   8.703
 1991POPC   D2A27016  39.439  15.805   8.315
 1991POPC   C3A27017  39.276  15.866   7.902
 1991POPC   C4A27018  39.323  16.259   7.606
 1991POPC   C1B27019  38.829  15.882   8.781
 1991POPC   C2B27020  38.946  16.050   8.352
 1991POPC   C3B27021  38.969  16.320   7.985
 1991POPC   C4B27022  38.836  16.020   7.707
 1992POPC   NC327023  31.111  34.319   9.560
 1992POPC   PO427024  31.222  34.941   9.848
 1992POPC   GL127025  31.427  34.739   9.421
 1992POPC   GL227026  31.205  34.698   9.175
 1992POPC   C1A27027  31.649  34.590   8.967
 1992POPC   D2A27028  31.555  34.574   8.512
 1992POPC   C3A27029  31.648  34.331   8.105
 1992POPC   C4A27030  31.597  34.554   7.713
 1992POPC   C1B27031  31.189  34.301   8.916
 1992POPC   C2B27032  31.147  34.238   8.509
 1992POPC   C3B27033  31.155  34.471   8.147
 1992POPC   C4B27034  31.187  34.235   7.743
 1993POPC   NC327035  31.175  19.294   9.431
 1993POPC   PO427036  31.821  19.015   9.541
 1993POPC   GL127037  31.519  18.990   9.206
 1993POPC   GL227038  31.588  19.321   9.128
 1993POPC   C1A27039  31.520  18.953   8.754
 1993POPC   D2A27040  31.387  18.835   8.344
 1993POPC   C3A27041  31.563  18.846   7.942
 1993POPC   C4A27042  31.499  19.098   7.589
 1993POPC   C1B27043  31.465  19.499   8.765
 1993POPC   C2B27044  31.258  19.332   8.443
 1993POPC   C3B27045  31.321  19.296   8.015
 1993POPC   C4B27046  31.088  19.421   7.630
 1994POPC   NC327047  15.798   5.323   9.442
 1994POPC   PO427048  16.046   4.708   9.481
 1994POPC   GL127049  16.089   5.009   9.154
 1994POPC   GL227050  15.768   5.015   9.030
 1994POPC   C1A27051  16.138   5.139   8.699
 1994POPC   D2A27052  15.921   5.035   8.282
 1994POPC   C3A27053  16.176   5.103   7.877
 1994POPC   C4A27054  16.169   5.086   7.390
 1994POPC   C1B27055  15.651   4.690   8.753
 1994POPC   C2B27056  15.798   4.534   8.368
 1994POPC   C3B27057  15.690   4.612   7.953
 1994POPC   C4B27058  15.732   4.929   7.621
 1995POPC   NC327059  20.703  19.349   9.462
 1995POPC   PO427060  21.191  18.952   9.612
 1995POPC   GL127061  20.885  18.921   9.249
 1995POPC   GL227062  20.983  19.134   9.028
 1995POPC   C1A27063  20.614  18.914   8.826
 1995POPC   D2A27064  20.872  19.055   8.457
 1995POPC   C3A27065  20.598  19.037   8.120
 1995POPC   C4A27066  20.460  19.101   7.734
 1995POPC   C1B27067  20.873  19.465   8.769
 1995POPC   C2B27068  21.115  19.516   8.402
 1995POPC   C3B27069  20.962  19.385   7.989
 1995POPC   C4B27070  20.885  19.276   7.541
 1996POPC   NC327071  24.600  24.872   9.533
 1996POPC   PO427072  24.704  25.511   9.540
 1996POPC   GL127073  24.419  25.236   9.189
 1996POPC   GL227074  24.416  24.860   9.063
 1996POPC   C1A27075  24.436  25.216   8.692
 1996POPC   D2A27076  24.612  25.512   8.347
 1996POPC   C3A27077  24.457  25.441   7.931
 1996POPC   C4A27078  24.067  25.272   7.691
 1996POPC   C1B27079  24.720  24.778   8.715
 1996POPC   C2B27080  24.703  24.786   8.242
 1996POPC   C3B27081  24.444  24.937   7.867
 1996POPC   C4B27082  24.533  25.217   7.481
 1997POPC   NC327083  44.255  26.727   9.483
 1997POPC   PO427084  43.769  27.218   9.495
 1997POPC   GL127085  43.918  26.934   9.173
 1997POPC   GL227086  43.870  26.565   9.158
 1997POPC   C1A27087  44.139  26.814   8.777
 1997POPC   D2A27088  44.214  26.897   8.333
 1997POPC   C3A27089  43.842  26.996   8.094
 1997POPC   C4A27090  43.791  27.204   7.711
 1997POPC   C1B27091  43.757  26.385   8.771
 1997POPC   C2B27092  44.007  26.440   8.398
 1997POPC   C3B27093  43.873  26.496   7.962
 1997POPC   C4B27094  43.605  26.666   7.638
 1998POPC   NC327095  39.589  28.116   9.463
 1998POPC   PO427096  38.955  28.425   9.390
 1998POPC   GL127097  39.315  28.435   9.118
 1998POPC   GL227098  39.380  28.762   9.140
 1998POPC   C1A27099  39.322  28.281   8.670
 1998POPC   D2A27100  39.170  28.146   8.281
 1998POPC   C3A27101  39.323  28.399   7.976
 1998POPC   C4A27102  39.451  28.199   7.617
 1998POPC   C1B27103  39.152  28.767   8.751
 1998POPC   C2B27104  38.957  28.618   8.374
 1998POPC   C3B27105  38.970  28.797   7.973
 1998POPC   C4B27106  39.253  28.822   7.642
 1999POPC   NC327107  19.837  24.176   9.480
 1999POPC   PO427108  19.948  23.540   9.330
 1999POPC   GL127109  19.765  23.816   9.086
 1999POPC   GL227110  19.469  23.907   9.270
 1999POPC   C1A27111  19.715  23.728   8.644
 1999POPC   D2A27112  19.728  23.349   8.384
 1999POPC   C3A27113  19.948  23.461   8.024
 1999POPC   C4A27114  19.946  23.897   7.880
 1999POPC   C1B27115  19.361  24.057   8.872
 1999POPC   C2B27116  19.373  24.086   8.445
 1999POPC   C3B27117  19.505  23.791   8.152
 1999POPC   C4B27118  19.396  23.732   7.745
 2000POPC   NC327119  18.406  16.865   9.729
 2000POPC   PO427120  18.422  17.517   9.442
 2000POPC   GL127121  18.429  17.394   9.056
 2000POPC   GL227122  18.278  17.625   8.884
 2000POPC   C1A27123  18.422  17.179   8.681
 2000POPC   D2A27124  18.169  17.246   8.349
 2000POPC   C3A27125  18.348  17.332   7.971
 2000POPC   C4A27126  18.301  17.099   7.588
 2000POPC   C1B27127  18.417  17.693   8.468
 2000POPC   C2B27128  18.728  17.924   8.218
 2000POPC   C3B27129  18.421  17.914   7.869
 2000POPC   C4B27130  18.075  17.649   7.667
 2001POPC   NC327131  29.654  42.129   9.238
 2001POPC   PO427132  29.047  42.358   9.505
 2001POPC   GL127133  28.964  42.324   9.079
 2001POPC   GL227134  28.922  42.663   9.087
 2001POPC   C1A27135  29.191  42.414   8.697
 2001POPC   D2A27136  29.268  42.638   8.301
 2001POPC   C3A27137  29.296  42.350   7.922
 2001POPC   C4A27138  29.102  42.053   7.651
 2001POPC   C1B27139  28.731  42.621   8.699
 2001POPC   C2B27140  28.775  42.805   8.306
 2001POPC   C3B27141  28.968  42.744   7.900
 2001POPC   C4B27142  29.035  42.579   7.491
 2002POPC   NC327143   1.890   9.009   9.419
 2002POPC   PO427144   2.494   8.968   9.723
 2002POPC   GL127145   2.346   8.910   9.224
 2002POPC   GL227146   2.307   9.218   9.034
 2002POPC   C1A27147   2.183   8.812   8.765
 2002POPC   D2A27148   2.009   8.633   8.398
 2002POPC   C3A27149   2.104   8.926   8.059
 2002POPC   C4A27150   1.807   9.043   7.748
 2002POPC   C1B27151   1.922   9.246   8.796
 2002POPC   C2B27152   1.804   9.135   8.405
 2002POPC   C3B27153   1.860   9.432   8.067
 2002POPC   C4B27154   1.913   9.509   7.597
 2003POPC   NC327155  11.478  15.913   9.406
 2003POPC   PO427156  10.778  15.923   9.397
 2003POPC   GL127157  11.080  15.938   9.083
 2003POPC   GL227158  11.135  15.613   9.079
 2003POPC   C1A27159  11.445  15.964   8.776
 2003POPC   D2A27160  11.642  16.164   8.434
 2003POPC   C3A27161  11.716  15.984   8.046
 2003POPC   C4A27162  11.480  16.099   7.702
 2003POPC   C1B27163  11.164  15.552   8.660
 2003POPC   C2B27164  11.298  15.794   8.307
 2003POPC   C3B27165  11.124  15.810   7.925
 2003POPC   C4B27166  11.315  15.648   7.561
 2004POPC   NC327167  17.583  25.872   9.583
 2004POPC   PO427168  17.593  26.500   9.431
 2004POPC   GL127169  17.564  26.195   9.156
 2004POPC   GL227170  17.283  25.987   9.165
 2004POPC   C1A27171  17.682  26.145   8.748
 2004POPC   D2A27172  17.861  26.333   8.408
 2004POPC   C3A27173  17.589  26.202   8.129
 2004POPC   C4A27174  17.662  26.399   7.769
 2004POPC   C1B27175  17.163  26.223   8.806
 2004POPC   C2B27176  17.098  26.096   8.387
 2004POPC   C3B27177  17.200  25.863   8.009
 2004POPC   C4B27178  17.447  25.929   7.672
 2005POPC   NC327179  20.662  35.877   9.612
 2005POPC   PO427180  20.174  35.517   9.421
 2005POPC   GL127181  20.370  35.323   9.065
 2005POPC   GL227182  20.741  35.274   9.085
 2005POPC   C1A27183  20.482  35.205   8.640
 2005POPC   D2A27184  20.616  35.143   8.227
 2005POPC   C3A27185  20.438  35.378   7.872
 2005POPC   C4A27186  20.577  35.088   7.625
 2005POPC   C1B27187  21.010  35.259   8.704
 2005POPC   C2B27188  21.076  35.404   8.285
 2005POPC   C3B27189  20.925  35.558   7.886
 2005POPC   C4B27190  21.162  35.749   7.546
 2006POPC   NC327191   3.758  37.117   9.577
 2006POPC   PO427192   3.281  36.671   9.698
 2006POPC   GL127193   3.338  36.946   9.309
 2006POPC   GL227194   3.342  36.669   9.145
 2006POPC   C1A27195   3.637  37.039   8.903
 2006POPC   D2A27196   3.563  36.979   8.424
 2006POPC   C3A27197   3.850  36.902   8.063
 2006POPC   C4A27198   4.038  37.262   7.840
 2006POPC   C1B27199   3.188  36.823   8.765
 2006POPC   C2B27200   3.181  36.626   8.370
 2006POPC   C3B27201   3.335  36.744   7.975
 2006POPC   C4B27202   3.661  36.572   7.715
 2007POPC   NC327203  31.360  11.115   9.891
 2007POPC   PO427204  31.804  11.568   9.560
 2007POPC   GL127205  31.775  11.503   9.135
 2007POPC   GL227206  31.451  11.616   9.174
 2007POPC   C1A27207  31.580  11.320   8.746
 2007POPC   D2A27208  31.601  11.359   8.306
 2007POPC   C3A27209  31.508  11.054   7.993
 2007POPC   C4A27210  31.636  11.072   7.575
 2007POPC   C1B27211  31.281  11.748   8.829
 2007POPC   C2B27212  31.189  11.702   8.397
 2007POPC   C3B27213  31.350  11.705   8.005
 2007POPC   C4B27214  31.243  11.411   7.744
 2008POPC   NC327215  41.271  34.776   9.409
 2008POPC   PO427216  41.872  34.727   9.672
 2008POPC   GL127217  41.628  34.439   9.242
 2008POPC   GL227218  41.328  34.364   9.009
 2008POPC   C1A27219  41.727  34.451   8.714
 2008POPC   D2A27220  41.897  34.777   8.360
 2008POPC   C3A27221  41.811  34.744   7.899
 2008POPC   C4A27222  41.538  34.345   7.835
 2008POPC   C1B27223  41.312  34.722   8.773
 2008POPC   C2B27224  41.403  34.953   8.467
 2008POPC   C3B27225  41.371  34.771   8.097
 2008POPC   C4B27226  41.379  34.859   7.647
 2009POPC   NC327227   8.094  30.704   9.644
 2009POPC   PO427228   8.636  30.407   9.350
 2009POPC   GL127229   8.203  30.574   9.120
 2009POPC   GL227230   7.995  30.858   9.148
 2009POPC   C1A27231   8.178  30.446   8.700
 2009POPC   D2A27232   8.395  30.611   8.326
 2009POPC   C3A27233   8.256  30.415   7.969
 2009POPC   C4A27234   7.873  30.447   7.740
 2009POPC   C1B27235   8.251  30.948   8.747
 2009POPC   C2B27236   8.289  31.122   8.322
 2009POPC   C3B27237   8.240  30.943   7.890
 2009POPC   C4B27238   7.960  30.969   7.528
 2010POPC   NC327239  23.467   8.584   9.410
 2010POPC   PO427240  23.821   7.920   9.476
 2010POPC   GL127241  23.708   8.162   9.139
 2010POPC   GL227242  23.329   8.149   9.148
 2010POPC   C1A27243  23.938   8.368   8.800
 2010POPC   D2A27244  24.108   8.311   8.427
 2010POPC   C3A27245  23.887   8.431   8.062
 2010POPC   C4A27246  23.706   8.181   7.729
 2010POPC   C1B27247  23.436   8.401   8.775
 2010POPC   C2B27248  23.451   8.377   8.326
 2010POPC   C3B27249  23.316   8.499   7.893
 2010POPC   C4B27250  23.334   8.506   7.386
 2011POPC   NC327251   1.002  19.298   9.419
 2011POPC   PO427252   1.482  18.847   9.404
 2011POPC   GL127253   1.263  19.006   9.062
 2011POPC   GL227254   1.308  19.397   9.025
 2011POPC   C1A27255   1.189  19.074   8.641
 2011POPC   D2A27256   1.239  19.445   8.373
 2011POPC   C3A27257   1.105  19.166   8.110
 2011POPC   C4A27258   1.108  19.071   7.729
 2011POPC   C1B27259   1.636  19.295   8.714
 2011POPC   C2B27260   1.587  19.088   8.305
 2011POPC   C3B27261   1.583  19.231   7.871
 2011POPC   C4B27262   1.515  19.030   7.442
 2012POPC   NC327263  19.467  40.018   9.501
 2012POPC   PO427264  20.104  40.260   9.451
 2012POPC   GL127265  19.827  40.035   9.099
 2012POPC   GL227266  19.626  39.722   9.104
 2012POPC   C1A27267  19.998  39.955   8.683
 2012POPC   D2A27268  19.868  39.696   8.337
 2012POPC   C3A27269  20.029  39.963   8.081
 2012POPC   C4A27270  19.986  39.982   7.673
 2012POPC   C1B27271  19.517  39.877   8.688
 2012POPC   C2B27272  19.583  40.113   8.323
 2012POPC   C3B27273  19.534  39.959   7.921
 2012POPC   C4B27274  19.520  40.103   7.470
 2013POPC   NC327275  41.768  22.704   9.468
 2013POPC   PO427276  41.152  22.994   9.293
 2013POPC   GL127277  41.435  22.801   9.068
 2013POPC   GL227278  41.697  23.042   9.089
 2013POPC   C1A27279  41.440  22.844   8.643
 2013POPC   D2A27280  41.348  22.647   8.320
 2013POPC   C3A27281  41.502  22.871   8.042
 2013POPC   C4A27282  41.383  22.958   7.652
 2013POPC   C1B27283  41.918  22.781   8.762
 2013POPC   C2B27284  41.939  22.962   8.329
 2013POPC   C3B27285  42.014  22.752   7.925
 2013POPC   C4B27286  41.777  22.673   7.529
 2014POPC   NC327287  21.176  27.926   9.572
 2014POPC   PO427288  20.620  28.213   9.516
 2014POPC   GL127289  20.478  28.316   9.098
 2014POPC   GL227290  20.237  28.045   8.988
 2014POPC   C1A27291  20.587  28.224   8.649
 2014POPC   D2A27292  20.409  28.355   8.262
 2014POPC   C3A27293  20.588  28.229   7.870
 2014POPC   C4A27294  20.582  28.186   7.436
 2014POPC   C1B27295  19.999  27.963   8.595
 2014POPC   C2B27296  20.042  28.010   8.140
 2014POPC   C3B27297  20.355  27.781   7.862
 2014POPC   C4B27298  20.764  27.754   7.621
 2015POPC   NC327299  42.035   0.319   9.489
 2015POPC   PO427300  42.699   0.497   9.470
 2015POPC   GL127301  42.429   0.720   9.153
 2015POPC   GL227302  42.198   0.458   9.030
 2015POPC   C1A27303  42.488   0.769   8.679
 2015POPC   D2A27304  42.481   0.776   8.206
 2015POPC   C3A27305  42.133   0.614   7.943
 2015POPC   C4A27306  41.899   0.207   7.917
 2015POPC   C1B27307  42.562   0.298   8.862
 2015POPC   C2B27308  42.677   0.198   8.445
 2015POPC   C3B27309  42.517   0.264   8.043
 2015POPC   C4B27310  42.689   0.261   7.645
 2016POPC   NC327311   6.155  17.507   9.794
 2016POPC   PO427312   6.625  17.979   9.680
 2016POPC   GL127313   6.543  17.779   9.249
 2016POPC   GL227314   6.373  17.465   9.325
 2016POPC   C1A27315   6.834  17.591   8.883
 2016POPC   D2A27316   6.885  17.360   8.471
 2016POPC   C3A27317   6.691  17.578   8.132
 2016POPC   C4A27318   6.701  17.611   7.696
 2016POPC   C1B27319   6.362  17.395   8.889
 2016POPC   C2B27320   6.436  17.143   8.529
 2016POPC   C3B27321   6.432  17.139   8.112
 2016POPC   C4B27322   6.204  17.444   7.928
 2017POPC   NC327323  27.814  18.716   9.801
 2017POPC   PO427324  27.399  18.257   9.416
 2017POPC   GL127325  27.185  18.327   9.071
 2017POPC   GL227326  27.255  18.676   9.009
 2017POPC   C1A27327  27.201  18.156   8.659
 2017POPC   D2A27328  27.378  18.241   8.277
 2017POPC   C3A27329  27.805  18.220   8.202
 2017POPC   C4A27330  27.759  18.305   7.782
 2017POPC   C1B27331  27.547  18.577   8.654
 2017POPC   C2B27332  27.843  18.791   8.359
 2017POPC   C3B27333  27.662  18.805   7.929
 2017POPC   C4B27334  27.291  18.513   7.841
 2018POPC   NC327335  32.033  39.587   9.395
 2018POPC   PO427336  31.983  38.968   9.740
 2018POPC   GL127337  32.213  39.067   9.286
 2018POPC   GL227338  32.588  38.987   9.168
 2018POPC   C1A27339  32.167  39.202   8.842
 2018POPC   D2A27340  31.890  39.374   8.518
 2018POPC   C3A27341  32.085  39.482   8.131
 2018POPC   C4A27342  32.203  39.255   7.776
 2018POPC   C1B27343  32.578  38.912   8.744
 2018POPC   C2B27344  32.429  39.063   8.332
 2018POPC   C3B27345  32.610  38.992   7.921
 2018POPC   C4B27346  32.717  38.796   7.534
 2019POPC   NC327347  10.352  27.157   9.440
 2019POPC   PO427348  10.121  27.807   9.351
 2019POPC   GL127349  10.440  27.695   9.094
 2019POPC   GL227350  10.483  27.338   8.976
 2019POPC   C1A27351  10.365  27.732   8.662
 2019POPC   D2A27352  10.570  27.552   8.343
 2019POPC   C3A27353  10.321  27.644   7.989
 2019POPC   C4A27354  10.290  27.940   7.686
 2019POPC   C1B27355  10.835  27.235   8.678
 2019POPC   C2B27356  10.922  27.166   8.250
 2019POPC   C3B27357  10.718  27.341   7.905
 2019POPC   C4B27358  10.690  27.283   7.451
 2020POPC   NC327359  27.543  12.749   9.490
 2020POPC   PO427360  27.191  13.365   9.368
 2020POPC   GL127361  27.484  13.071   9.128
 2020POPC   GL227362  27.356  12.715   9.016
 2020POPC   C1A27363  27.645  13.038   8.745
 2020POPC   D2A27364  27.462  12.914   8.376
 2020POPC   C3A27365  27.781  12.868   8.052
 2020POPC   C4A27366  27.753  12.959   7.616
 2020POPC   C1B27367  27.627  12.511   8.748
 2020POPC   C2B27368  27.651  12.428   8.312
 2020POPC   C3B27369  27.359  12.583   7.990
 2020POPC   C4B27370  27.093  12.426   7.656
 2021POPC   NC327371  44.171  21.796  10.061
 2021POPC   PO427372  43.839  22.208   9.593
 2021POPC   GL127373  43.997  22.185   9.180
 2021POPC   GL227374  43.829  21.866   9.101
 2021POPC   C1A27375  43.972  22.488   8.828
 2021POPC   D2A27376  43.813  22.459   8.438
 2021POPC   C3A27377  43.874  22.681   8.109
 2021POPC   C4A27378  43.871  22.399   7.738
 2021POPC   C1B27379  43.770  22.008   8.714
 2021POPC   C2B27380  43.554  22.029   8.343
 2021POPC   C3B27381  43.723  21.947   7.974
 2021POPC   C4B27382  43.475  21.949   7.646
 2022POPC   NC327383  29.007   7.400   9.430
 2022POPC   PO427384  29.348   7.778   9.863
 2022POPC   GL127385  29.464   7.352   9.326
 2022POPC   GL227386  29.413   7.073   9.140
 2022POPC   C1A27387  29.415   7.463   8.826
 2022POPC   D2A27388  29.245   7.694   8.449
 2022POPC   C3A27389  29.232   7.416   8.097
 2022POPC   C4A27390  29.306   7.196   7.725
 2022POPC   C1B27391  29.047   7.098   8.830
 2022POPC   C2B27392  28.784   7.101   8.426
 2022POPC   C3B27393  28.842   7.081   7.945
 2022POPC   C4B27394  28.865   7.461   7.604
 2023POPC   NC327395   3.143  24.746   9.813
 2023POPC   PO427396   2.731  24.329   9.509
 2023POPC   GL127397   2.776  24.403   9.123
 2023POPC   GL227398   3.021  24.136   9.090
 2023POPC   C1A27399   2.566  24.541   8.752
 2023POPC   D2A27400   2.453  24.753   8.348
 2023POPC   C3A27401   2.560  24.523   7.948
 2023POPC   C4A27402   2.739  24.579   7.524
 2023POPC   C1B27403   3.030  24.309   8.697
 2023POPC   C2B27404   2.861  24.400   8.333
 2023POPC   C3B27405   3.000  24.173   7.966
 2023POPC   C4B27406   2.708  24.088   7.656
 2024POPC   NC327407  39.955  14.978   9.334
 2024POPC   PO427408  40.417  15.431   9.456
 2024POPC   GL127409  40.207  15.427   9.063
 2024POPC   GL227410  39.855  15.414   9.066
 2024POPC   C1A27411  40.167  15.217   8.648
 2024POPC   D2A27412  40.141  14.840   8.368
 2024POPC   C3A27413  40.054  14.955   7.942
 2024POPC   C4A27414  40.146  15.337   7.694
 2024POPC   C1B27415  39.623  15.162   8.762
 2024POPC   C2B27416  39.590  15.328   8.382
 2024POPC   C3B27417  39.692  15.290   7.983
 2024POPC   C4B27418  39.505  14.914   7.851
 2025POPC   NC327419  11.773  44.673   9.380
 2025POPC   PO427420  11.170  44.986   9.517
 2025POPC   GL127421  11.328  44.785   9.175
 2025POPC   GL227422  11.568   0.054   9.097
 2025POPC   C1A27423  11.277  44.473   8.851
 2025POPC   D2A27424  11.416  44.507   8.425
 2025POPC   C3A27425  11.195  44.359   8.087
 2025POPC   C4A27426  11.170  44.678   7.778
 2025POPC   C1B27427  11.683  44.810   8.742
 2025POPC   C2B27428  11.713  44.922   8.325
 2025POPC   C3B27429  11.553   0.004   7.932
 2025POPC   C4B27430  11.507   0.146   7.507
 2026POPC   NC327431  22.618  18.543   9.409
 2026POPC   PO427432  22.893  19.164   9.507
 2026POPC   GL127433  22.874  19.176   9.092
 2026POPC   GL227434  22.920  18.822   9.094
 2026POPC   C1A27435  22.913  19.047   8.650
 2026POPC   D2A27436  22.965  19.262   8.289
 2026POPC   C3A27437  22.796  18.959   8.052
 2026POPC   C4A27438  22.657  19.004   7.667
 2026POPC   C1B27439  23.320  18.755   8.868
 2026POPC   C2B27440  23.303  18.550   8.464
 2026POPC   C3B27441  23.150  18.476   8.038
 2026POPC   C4B27442  23.116  18.743   7.672
 2027POPC   NC327443  25.809  12.972   9.391
 2027POPC   PO427444  26.240  12.463   9.617
 2027POPC   GL127445  26.290  12.481   9.152
 2027POPC   GL227446  25.958  12.573   9.112
 2027POPC   C1A27447  26.297  12.691   8.698
 2027POPC   D2A27448  26.033  12.930   8.353
 2027POPC   C3A27449  26.150  12.872   7.915
 2027POPC   C4A27450  26.036  13.086   7.513
 2027POPC   C1B27451  25.839  12.479   8.712
 2027POPC   C2B27452  25.650  12.564   8.354
 2027POPC   C3B27453  25.665  12.738   7.973
 2027POPC   C4B27454  25.810  12.653   7.571
 2028POPC   NC327455  17.284  34.603   9.605
 2028POPC   PO427456  17.864  34.996   9.446
 2028POPC   GL127457  17.683  34.647   9.116
 2028POPC   GL227458  17.339  34.534   9.121
 2028POPC   C1A27459  17.477  34.587   8.663
 2028POPC   D2A27460  17.295  34.656   8.266
 2028POPC   C3A27461  17.557  34.556   7.930
 2028POPC   C4A27462  17.924  34.813   7.882
 2028POPC   C1B27463  17.193  34.196   8.832
 2028POPC   C2B27464  17.174  34.164   8.372
 2028POPC   C3B27465  17.118  34.253   7.900
 2028POPC   C4B27466  17.143  34.411   7.449
 2029POPC   NC327467  35.232  32.228   9.886
 2029POPC   PO427468  35.354  32.021   9.308
 2029POPC   GL127469  35.203  32.387   9.109
 2029POPC   GL227470  35.506  32.352   8.873
 2029POPC   C1A27471  35.152  32.656   8.731
 2029POPC   D2A27472  35.416  32.513   8.396
 2029POPC   C3A27473  35.163  32.487   8.082
 2029POPC   C4A27474  35.204  32.423   7.642
 2029POPC   C1B27475  35.555  31.961   8.643
 2029POPC   C2B27476  35.714  31.918   8.224
 2029POPC   C3B27477  35.509  32.063   7.838
 2029POPC   C4B27478  35.406  32.044   7.377
 2030POPC   NC327479  15.771   0.240   9.505
 2030POPC   PO427480  16.315   0.679   9.491
 2030POPC   GL127481  16.187   0.431   9.130
 2030POPC   GL227482  15.924   0.196   9.039
 2030POPC   C1A27483  15.960   0.625   8.774
 2030POPC   D2A27484  15.757   0.741   8.396
 2030POPC   C3A27485  15.938   0.622   8.031
 2030POPC   C4A27486  15.843   0.488   7.618
 2030POPC   C1B27487  15.663   0.215   8.679
 2030POPC   C2B27488  15.652   0.240   8.244
 2030POPC   C3B27489  15.935   0.111   7.946
 2030POPC   C4B27490  16.247   0.135   7.621
 2031POPC   NC327491   2.634  23.247   9.476
 2031POPC   PO427492   2.970  22.657   9.421
 2031POPC   GL127493   3.128  22.909   9.138
 2031POPC   GL227494   2.881  23.159   9.032
 2031POPC   C1A27495   3.057  22.818   8.717
 2031POPC   D2A27496   2.829  22.870   8.353
 2031POPC   C3A27497   3.140  22.872   8.043
 2031POPC   C4A27498   3.046  22.794   7.622
 2031POPC   C1B27499   2.513  22.962   8.805
 2031POPC   C2B27500   2.283  23.115   8.428
 2031POPC   C3B27501   2.442  23.305   8.090
 2031POPC   C4B27502   2.762  23.145   7.832
 2032POPC   NC327503   3.172   9.354   9.405
 2032POPC   PO427504   3.415   8.665   9.479
 2032POPC   GL127505   3.589   8.984   9.174
 2032POPC   GL227506   3.905   9.146   9.272
 2032POPC   C1A27507   3.529   8.970   8.711
 2032POPC   D2A27508   3.487   8.803   8.278
 2032POPC   C3A27509   3.394   9.108   7.936
 2032POPC   C4A27510   3.452   8.945   7.518
 2032POPC   C1B27511   4.031   9.041   8.828
 2032POPC   C2B27512   3.907   9.092   8.390
 2032POPC   C3B27513   3.886   8.970   7.953
 2032POPC   C4B27514   3.778   9.288   7.655
 2033POPC   NC327515  35.541  35.494   9.595
 2033POPC   PO427516  35.031  35.178   9.417
 2033POPC   GL127517  35.264  35.276   9.107
 2033POPC   GL227518  35.588  35.328   9.111
 2033POPC   C1A27519  35.256  35.183   8.690
 2033POPC   D2A27520  35.445  35.250   8.293
 2033POPC   C3A27521  35.162  35.313   7.977
 2033POPC   C4A27522  34.984  35.169   7.601
 2033POPC   C1B27523  35.710  35.476   8.694
 2033POPC   C2B27524  35.938  35.355   8.309
 2033POPC   C3B27525  35.813  35.338   7.854
 2033POPC   C4B27526  35.492  35.165   7.588
 2034POPC   NC327527  43.764  37.946   9.517
 2034POPC   PO427528  43.994  38.556   9.509
 2034POPC   GL127529  43.856  38.353   9.166
 2034POPC   GL227530  44.131  38.118   9.199
 2034POPC   C1A27531  43.848  38.554   8.767
 2034POPC   D2A27532  44.099  38.662   8.430
 2034POPC   C3A27533  43.971  38.503   8.044
 2034POPC   C4A27534  44.043  38.614   7.630
 2034POPC   C1B27535  44.142  38.109   8.767
 2034POPC   C2B27536  43.892  38.120   8.413
 2034POPC   C3B27537  43.970  37.985   8.003
 2034POPC   C4B27538  43.955  38.117   7.571
 2035POPC   NC327539  40.890  27.973   9.638
 2035POPC   PO427540  40.529  27.378   9.492
 2035POPC   GL127541  40.813  27.521   9.176
 2035POPC   GL227542  40.740  27.856   9.107
 2035POPC   C1A27543  40.761  27.528   8.723
 2035POPC   D2A27544  40.508  27.468   8.401
 2035POPC   C3A27545  40.744  27.539   8.036
 2035POPC   C4A27546  40.709  27.386   7.658
 2035POPC   C1B27547  41.165  27.809   8.810
 2035POPC   C2B27548  41.282  28.030   8.427
 2035POPC   C3B27549  41.089  28.020   8.016
 2035POPC   C4B27550  40.983  27.811   7.605
 2036POPC   NC327551  41.458   6.399   9.687
 2036POPC   PO427552  41.350   5.857   9.308
 2036POPC   GL127553  41.550   5.899   8.979
 2036POPC   GL227554  41.229   6.036   8.840
 2036POPC   C1A27555  41.651   5.936   8.575
 2036POPC   D2A27556  41.460   5.933   8.223
 2036POPC   C3A27557  41.787   5.826   7.959
 2036POPC   C4A27558  41.861   5.724   7.534
 2036POPC   C1B27559  41.192   5.645   8.671
 2036POPC   C2B27560  41.040   5.570   8.307
 2036POPC   C3B27561  41.226   5.579   7.920
 2036POPC   C4B27562  41.397   5.859   7.634
 2037POPC   NC327563   2.498  17.005   9.496
 2037POPC   PO427564   2.933  16.518   9.435
 2037POPC   GL127565   2.823  16.825   9.145
 2037POPC   GL227566   2.587  16.547   9.046
 2037POPC   C1A27567   2.577  17.005   8.821
 2037POPC   D2A27568   2.477  16.807   8.438
 2037POPC   C3A27569   2.650  16.996   8.102
 2037POPC   C4A27570   2.756  17.098   7.720
 2037POPC   C1B27571   2.966  16.502   8.780
 2037POPC   C2B27572   2.958  16.621   8.376
 2037POPC   C3B27573   2.805  16.514   7.986
 2037POPC   C4B27574   2.936  16.620   7.584
 2038POPC   NC327575   5.022  40.122   9.369
 2038POPC   PO427576   5.280  39.536   9.619
 2038POPC   GL127577   5.292  39.741   9.205
 2038POPC   GL227578   4.921  39.650   9.171
 2038POPC   C1A27579   5.165  39.896   8.773
 2038POPC   D2A27580   5.315  40.080   8.408
 2038POPC   C3A27581   5.185  39.980   8.057
 2038POPC   C4A27582   5.099  40.029   7.657
 2038POPC   C1B27583   4.716  39.675   8.758
 2038POPC   C2B27584   4.895  39.669   8.347
 2038POPC   C3B27585   4.736  39.773   7.939
 2038POPC   C4B27586   4.751  39.686   7.531
 2039POPC   NC327587  26.273  23.070   9.426
 2039POPC   PO427588  25.641  22.956   9.461
 2039POPC   GL127589  25.883  22.944   9.113
 2039POPC   GL227590  25.945  23.301   9.127
 2039POPC   C1A27591  26.156  23.029   8.744
 2039POPC   D2A27592  26.386  22.853   8.384
 2039POPC   C3A27593  26.204  22.883   7.989
 2039POPC   C4A27594  25.926  22.814   7.648
 2039POPC   C1B27595  25.676  23.288   8.807
 2039POPC   C2B27596  25.661  23.325   8.385
 2039POPC   C3B27597  25.761  23.152   8.001
 2039POPC   C4B27598  26.080  23.307   7.704
 2040POPC   NC327599  16.266  22.983   9.602
 2040POPC   PO427600  16.876  22.706   9.578
 2040POPC   GL127601  16.812  23.084   9.298
 2040POPC   GL227602  16.474  23.098   9.136
 2040POPC   C1A27603  16.961  23.292   8.907
 2040POPC   D2A27604  16.862  23.382   8.476
 2040POPC   C3A27605  17.146  23.227   8.154
 2040POPC   C4A27606  16.908  23.086   7.792
 2040POPC   C1B27607  16.724  22.829   8.825
 2040POPC   C2B27608  16.813  22.857   8.358
 2040POPC   C3B27609  16.693  22.649   7.967
 2040POPC   C4B27610  16.420  22.301   7.788
 2041POPC   NC327611  14.250   7.657   9.536
 2041POPC   PO427612  14.228   6.973   9.423
 2041POPC   GL127613  14.332   7.351   9.148
 2041POPC   GL227614  14.074   7.624   9.067
 2041POPC   C1A27615  14.623   7.426   8.821
 2041POPC   D2A27616  14.776   7.148   8.497
 2041POPC   C3A27617  14.583   7.283   8.117
 2041POPC   C4A27618  14.429   7.149   7.743
 2041POPC   C1B27619  14.235   7.770   8.696
 2041POPC   C2B27620  13.959   7.645   8.393
 2041POPC   C3B27621  13.830   7.770   8.020
 2041POPC   C4B27622  14.110   7.758   7.729
 2042POPC   NC327623   5.871  40.486   9.450
 2042POPC   PO427624   6.026  41.107   9.474
 2042POPC   GL127625   5.838  40.881   9.104
 2042POPC   GL227626   5.498  40.746   9.109
 2042POPC   C1A27627   5.812  40.529   8.760
 2042POPC   D2A27628   5.561  40.524   8.346
 2042POPC   C3A27629   5.802  40.478   7.959
 2042POPC   C4A27630   6.177  40.734   7.776
 2042POPC   C1B27631   5.515  40.923   8.678
 2042POPC   C2B27632   5.806  40.990   8.323
 2042POPC   C3B27633   5.755  40.991   7.869
 2042POPC   C4B27634   5.615  41.160   7.440
 2043POPC   NC327635   0.888  17.751   9.371
 2043POPC   PO427636   1.337  17.284   9.542
 2043POPC   GL127637   1.225  17.430   9.157
 2043POPC   GL227638   1.053  17.178   8.950
 2043POPC   C1A27639   1.182  17.646   8.764
 2043POPC   D2A27640   1.309  17.554   8.365
 2043POPC   C3A27641   1.120  17.576   7.961
 2043POPC   C4A27642   1.111  17.187   7.739
 2043POPC   C1B27643   1.512  17.248   8.774
 2043POPC   C2B27644   1.730  17.180   8.393
 2043POPC   C3B27645   1.567  17.310   7.995
 2043POPC   C4B27646   1.624  17.342   7.576
 2044POPC   NC327647  16.664   2.833   9.526
 2044POPC   PO427648  16.958   2.223   9.397
 2044POPC   GL127649  16.791   2.581   9.093
 2044POPC   GL227650  16.954   2.917   9.121
 2044POPC   C1A27651  16.605   2.897   8.744
 2044POPC   D2A27652  16.384   2.824   8.335
 2044POPC   C3A27653  16.633   2.828   7.964
 2044POPC   C4A27654  17.027   3.032   7.799
 2044POPC   C1B27655  17.126   2.786   8.709
 2044POPC   C2B27656  17.080   2.796   8.279
 2044POPC   C3B27657  17.037   2.536   7.943
 2044POPC   C4B27658  16.712   2.288   7.797
 2045POPC   NC327659  39.886  17.393   9.581
 2045POPC   PO427660  40.358  17.045   9.291
 2045POPC   GL127661  40.070  17.343   9.101
 2045POPC   GL227662  39.677  17.389   9.131
 2045POPC   C1A27663  40.225  17.538   8.748
 2045POPC   D2A27664  40.291  17.335   8.370
 2045POPC   C3A27665  40.283  17.623   8.032
 2045POPC   C4A27666  40.277  17.493   7.622
 2045POPC   C1B27667  39.709  17.530   8.745
 2045POPC   C2B27668  39.821  17.546   8.353
 2045POPC   C3B27669  39.815  17.899   8.109
 2045POPC   C4B27670  39.790  17.626   7.800
 2046POPC   NC327671  44.465  18.694   9.441
 2046POPC   PO427672  44.548  18.021   9.428
 2046POPC   GL127673  44.723  18.338   9.177
 2046POPC   GL227674  44.966  18.124   9.048
 2046POPC   C1A27675  44.583  18.563   8.799
 2046POPC   D2A27676  44.499  18.561   8.380
 2046POPC   C3A27677  44.787  18.382   8.105
 2046POPC   C4A27678  44.699  18.433   7.683
 2046POPC   C1B27679  44.608  18.052   8.775
 2046POPC   C2B27680  44.422  18.023   8.410
 2046POPC   C3B27681  44.509  17.725   8.118
 2046POPC   C4B27682  44.587  17.933   7.761
 2047POPC   NC327683  11.450   9.101   9.631
 2047POPC   PO427684  11.078   8.684   9.327
 2047POPC   GL127685  11.315   8.879   9.001
 2047POPC   GL227686  11.429   9.230   9.111
 2047POPC   C1A27687  11.157   9.066   8.628
 2047POPC   D2A27688  10.960   9.035   8.235
 2047POPC   C3A27689  11.233   8.844   7.970
 2047POPC   C4A27690  11.281   8.825   7.549
 2047POPC   C1B27691  11.655   9.154   8.718
 2047POPC   C2B27692  11.568   9.046   8.302
 2047POPC   C3B27693  11.729   9.089   7.891
 2047POPC   C4B27694  11.623   9.174   7.482
 2048POPC   NC327695  28.551   6.919   9.501
 2048POPC   PO427696  28.474   6.274   9.507
 2048POPC   GL127697  28.398   6.573   9.130
 2048POPC   GL227698  28.637   6.853   9.016
 2048POPC   C1A27699  28.367   6.580   8.674
 2048POPC   D2A27700  28.287   6.435   8.272
 2048POPC   C3A27701  28.300   6.827   8.024
 2048POPC   C4A27702  28.035   6.919   7.685
 2048POPC   C1B27703  28.874   6.616   8.709
 2048POPC   C2B27704  28.773   6.614   8.296
 2048POPC   C3B27705  28.658   6.471   7.911
 2048POPC   C4B27706  28.535   6.662   7.561
 2049POPC   NC327707  24.420  15.780   9.454
 2049POPC   PO427708  24.751  16.337   9.449
 2049POPC   GL127709  24.687  16.083   9.120
 2049POPC   GL227710  24.316  16.103   9.084
 2049POPC   C1A27711  24.650  16.086   8.689
 2049POPC   D2A27712  24.430  15.867   8.370
 2049POPC   C3A27713  24.547  15.977   7.963
 2049POPC   C4A27714  24.539  15.712   7.603
 2049POPC   C1B27715  24.171  16.253   8.692
 2049POPC   C2B27716  24.284  16.355   8.281
 2049POPC   C3B27717  24.118  16.258   7.928
 2049POPC   C4B27718  24.068  15.810   7.796
 2050POPC   NC327719  43.420  37.427   9.326
 2050POPC   PO427720  43.996  37.559   9.572
 2050POPC   GL127721  43.915  37.611   9.139
 2050POPC   GL227722  43.689  37.880   9.011
 2050POPC   C1A27723  44.014  37.531   8.720
 2050POPC   D2A27724  44.226  37.722   8.376
 2050POPC   C3A27725  44.204  37.503   8.027
 2050POPC   C4A27726  44.031  37.612   7.657
 2050POPC   C1B27727  43.552  37.754   8.602
 2050POPC   C2B27728  43.744  37.568   8.249
 2050POPC   C3B27729  43.732  37.296   7.902
 2050POPC   C4B27730  43.615  37.372   7.459
 2051POPC   NC327731  17.348  14.266   9.454
 2051POPC   PO427732  17.696  14.908   9.404
 2051POPC   GL127733  17.618  14.543   9.088
 2051POPC   GL227734  17.520  14.161   8.996
 2051POPC   C1A27735  17.257  14.511   8.786
 2051POPC   D2A27736  17.278  14.564   8.364
 2051POPC   C3A27737  17.261  14.300   8.017
 2051POPC   C4A27738  17.480  14.370   7.638
 2051POPC   C1B27739  17.815  13.994   8.744
 2051POPC   C2B27740  17.917  14.185   8.405
 2051POPC   C3B27741  17.783  14.232   8.016
 2051POPC   C4B27742  17.860  14.051   7.623
 2052POPC   NC327743  16.197  15.592   9.501
 2052POPC   PO427744  15.801  16.109   9.504
 2052POPC   GL127745  16.032  16.107   9.174
 2052POPC   GL227746  15.893  15.777   9.105
 2052POPC   C1A27747  15.989  16.180   8.756
 2052POPC   D2A27748  15.965  15.905   8.428
 2052POPC   C3A27749  15.909  16.123   8.072
 2052POPC   C4A27750  15.948  16.207   7.660
 2052POPC   C1B27751  16.135  15.582   8.803
 2052POPC   C2B27752  16.374  15.590   8.447
 2052POPC   C3B27753  16.199  15.559   8.088
 2052POPC   C4B27754  16.203  15.790   7.766
 2053POPC   NC327755  36.426  39.820   9.516
 2053POPC   PO427756  35.852  40.303   9.518
 2053POPC   GL127757  36.051  39.969   9.206
 2053POPC   GL227758  36.370  39.825   9.027
 2053POPC   C1A27759  35.889  39.845   8.809
 2053POPC   D2A27760  35.792  40.152   8.504
 2053POPC   C3A27761  35.742  40.048   8.077
 2053POPC   C4A27762  35.925  39.803   7.717
 2053POPC   C1B27763  36.365  39.932   8.618
 2053POPC   C2B27764  36.209  39.962   8.230
 2053POPC   C3B27765  36.359  40.056   7.847
 2053POPC   C4B27766  36.697  39.837   7.713
 2054POPC   NC327767  24.604  23.313   9.400
 2054POPC   PO427768  24.205  22.840   9.702
 2054POPC   GL127769  24.153  23.019   9.240
 2054POPC   GL227770  24.391  23.130   9.003
 2054POPC   C1A27771  24.160  22.789   8.757
 2054POPC   D2A27772  24.278  23.054   8.390
 2054POPC   C3A27773  24.394  22.849   7.996
 2054POPC   C4A27774  24.394  22.631   7.602
 2054POPC   C1B27775  24.708  23.328   8.744
 2054POPC   C2B27776  24.776  23.220   8.361
 2054POPC   C3B27777  24.561  23.350   8.033
 2054POPC   C4B27778  24.821  23.522   7.782
 2055POPC   NC327779  43.794  39.622   9.515
 2055POPC   PO427780  43.981  40.282   9.463
 2055POPC   GL127781  44.030  40.118   9.056
 2055POPC   GL227782  44.103  39.823   9.153
 2055POPC   C1A27783  43.790  40.231   8.653
 2055POPC   D2A27784  43.524  40.221   8.295
 2055POPC   C3A27785  43.767  39.998   8.013
 2055POPC   C4A27786  44.227  40.086   7.943
 2055POPC   C1B27787  43.964  39.741   8.709
 2055POPC   C2B27788  44.111  39.714   8.296
 2055POPC   C3B27789  43.929  39.505   7.959
 2055POPC   C4B27790  43.538  39.566   7.768
 2056POPC   NC327791  36.848  19.691   9.777
 2056POPC   PO427792  36.850  19.034   9.541
 2056POPC   GL127793  37.018  19.002   9.109
 2056POPC   GL227794  36.927  19.347   9.080
 2056POPC   C1A27795  37.215  19.093   8.689
 2056POPC   D2A27796  37.086  19.249   8.268
 2056POPC   C3A27797  36.932  18.963   7.950
 2056POPC   C4A27798  37.319  19.017   7.728
 2056POPC   C1B27799  36.889  19.516   8.677
 2056POPC   C2B27800  36.593  19.461   8.336
 2056POPC   C3B27801  36.729  19.418   7.921
 2056POPC   C4B27802  36.883  19.220   7.506
 2057POPC   NC327803  11.494  18.576   9.492
 2057POPC   PO427804  11.089  18.002   9.582
 2057POPC   GL127805  11.221  18.217   9.224
 2057POPC   GL227806  11.527  18.126   9.148
 2057POPC   C1A27807  11.133  18.353   8.800
 2057POPC   D2A27808  11.108  18.394   8.339
 2057POPC   C3A27809  11.473  18.606   8.117
 2057POPC   C4A27810  11.623  18.497   7.699
 2057POPC   C1B27811  11.502  17.876   8.807
 2057POPC   C2B27812  11.643  17.921   8.393
 2057POPC   C3B27813  11.416  18.067   8.045
 2057POPC   C4B27814  11.156  18.314   7.829
 2058POPC   NC327815   6.765  10.842   9.482
 2058POPC   PO427816   6.540  11.456   9.745
 2058POPC   GL127817   6.666  11.272   9.248
 2058POPC   GL227818   6.882  11.070   9.039
 2058POPC   C1A27819   6.618  11.401   8.771
 2058POPC   D2A27820   6.586  11.234   8.359
 2058POPC   C3A27821   6.499  11.439   7.946
 2058POPC   C4A27822   6.762  11.254   7.643
 2058POPC   C1B27823   6.524  10.885   8.811
 2058POPC   C2B27824   6.339  10.766   8.395
 2058POPC   C3B27825   6.423  10.944   7.960
 2058POPC   C4B27826   6.337  11.009   7.495
 2059POPC   NC327827  15.843  14.511   9.705
 2059POPC   PO427828  15.476  14.815   9.242
 2059POPC   GL127829  15.776  14.421   9.193
 2059POPC   GL227830  16.175  14.440   9.081
 2059POPC   C1A27831  15.800  14.186   8.818
 2059POPC   D2A27832  16.035  14.383   8.494
 2059POPC   C3A27833  16.124  14.320   8.062
 2059POPC   C4A27834  15.794  14.459   7.769
 2059POPC   C1B27835  16.403  14.652   8.709
 2059POPC   C2B27836  16.307  14.784   8.251
 2059POPC   C3B27837  16.233  14.737   7.758
 2059POPC   C4B27838  16.319  14.784   7.291
 2060POPC   NC327839  29.838  31.742   9.594
 2060POPC   PO427840  30.405  31.455   9.494
 2060POPC   GL127841  30.079  31.470   9.192
 2060POPC   GL227842  30.160  31.774   9.138
 2060POPC   C1A27843  29.877  31.310   8.814
 2060POPC   D2A27844  29.782  31.510   8.426
 2060POPC   C3A27845  29.936  31.315   8.073
 2060POPC   C4A27846  29.721  31.378   7.728
 2060POPC   C1B27847  29.990  31.854   8.730
 2060POPC   C2B27848  30.148  31.917   8.308
 2060POPC   C3B27849  29.954  31.841   7.895
 2060POPC   C4B27850  30.043  31.736   7.452
 2061POPC   NC327851   8.316  15.706   9.692
 2061POPC   PO427852   8.315  15.123   9.306
 2061POPC   GL127853   8.177  15.241   8.886
 2061POPC   GL227854   7.988  15.561   8.931
 2061POPC   C1A27855   7.951  15.315   8.480
 2061POPC   D2A27856   7.922  15.425   8.041
 2061POPC   C3A27857   8.194  15.192   7.826
 2061POPC   C4A27858   8.115  14.821   7.667
 2061POPC   C1B27859   8.334  15.644   8.609
 2061POPC   C2B27860   8.396  15.457   8.247
 2061POPC   C3B27861   8.365  15.667   7.888
 2061POPC   C4B27862   8.417  15.598   7.430
 2062POPC   NC327863   4.642   0.666   9.827
 2062POPC   PO427864   4.118   0.311   9.535
 2062POPC   GL127865   4.410   0.490   9.266
 2062POPC   GL227866   4.218   0.792   9.283
 2062POPC   C1A27867   4.589   0.445   8.840
 2062POPC   D2A27868   4.396   0.230   8.504
 2062POPC   C3A27869   4.519   0.330   8.091
 2062POPC   C4A27870   4.344   0.307   7.722
 2062POPC   C1B27871   4.161   0.731   8.858
 2062POPC   C2B27872   4.176   0.833   8.418
 2062POPC   C3B27873   4.147   0.683   8.021
 2062POPC   C4B27874   4.219   0.784   7.601
 2063POPC   NC327875  11.017   4.235   9.539
 2063POPC   PO427876  11.661   4.516   9.615
 2063POPC   GL127877  11.363   4.472   9.266
 2063POPC   GL227878  11.467   4.131   9.278
 2063POPC   C1A27879  11.222   4.380   8.843
 2063POPC   D2A27880  11.237   4.602   8.427
 2063POPC   C3A27881  10.992   4.480   8.068
 2063POPC   C4A27882  11.063   4.312   7.665
 2063POPC   C1B27883  11.628   4.067   8.859
 2063POPC   C2B27884  11.547   4.202   8.426
 2063POPC   C3B27885  11.494   4.362   7.990
 2063POPC   C4B27886  11.622   4.163   7.565
 2064POPC   NC327887  27.365  14.763   9.351
 2064POPC   PO427888  27.627  15.194   9.821
 2064POPC   GL127889  27.582  15.240   9.355
 2064POPC   GL227890  27.856  15.060   9.211
 2064POPC   C1A27891  27.371  15.292   8.906
 2064POPC   D2A27892  27.226  15.431   8.464
 2064POPC   C3A27893  27.528  15.406   8.126
 2064POPC   C4A27894  27.603  15.215   7.726
 2064POPC   C1B27895  27.746  14.932   8.812
 2064POPC   C2B27896  27.745  15.048   8.419
 2064POPC   C3B27897  27.606  14.867   8.080
 2064POPC   C4B27898  27.862  14.633   7.818
 2065POPC   NC327899  15.253   1.507   9.594
 2065POPC   PO427900  14.657   1.213   9.465
 2065POPC   GL127901  15.050   1.227   9.229
 2065POPC   GL227902  15.210   0.918   9.185
 2065POPC   C1A27903  15.379   1.355   8.923
 2065POPC   D2A27904  15.416   1.587   8.549
 2065POPC   C3A27905  15.389   1.530   8.094
 2065POPC   C4A27906  15.433   1.426   7.655
 2065POPC   C1B27907  15.453   0.851   8.808
 2065POPC   C2B27908  15.378   1.088   8.449
 2065POPC   C3B27909  15.173   1.040   8.097
 2065POPC   C4B27910  15.134   1.032   7.677
 2066POPC   NC327911  17.884  32.301   9.478
 2066POPC   PO427912  17.253  32.229   9.650
 2066POPC   GL127913  17.476  32.211   9.190
 2066POPC   GL227914  17.803  32.100   9.020
 2066POPC   C1A27915  17.371  31.998   8.784
 2066POPC   D2A27916  17.584  31.887   8.417
 2066POPC   C3A27917  17.401  32.009   8.055
 2066POPC   C4A27918  17.345  32.429   7.879
 2066POPC   C1B27919  17.757  32.337   8.660
 2066POPC   C2B27920  17.721  32.431   8.217
 2066POPC   C3B27921  17.822  32.346   7.756
 2066POPC   C4B27922  17.892  32.431   7.256
 2067POPC   NC327923  30.029  12.869   9.638
 2067POPC   PO427924  29.415  12.774   9.385
 2067POPC   GL127925  29.827  12.743   9.162
 2067POPC   GL227926  30.142  12.948   9.163
 2067POPC   C1A27927  29.980  12.753   8.739
 2067POPC   D2A27928  29.728  13.001   8.442
 2067POPC   C3A27929  29.627  12.885   8.036
 2067POPC   C4A27930  29.756  12.604   7.717
 2067POPC   C1B27931  30.375  13.063   8.764
 2067POPC   C2B27932  30.300  13.014   8.346
 2067POPC   C3B27933  30.154  12.861   7.972
 2067POPC   C4B27934  29.923  13.076   7.674
 2068POPC   NC327935   8.696  27.986   9.331
 2068POPC   PO427936   9.190  27.543   9.364
 2068POPC   GL127937   8.954  27.656   9.065
 2068POPC   GL227938   9.280  27.683   8.864
 2068POPC   C1A27939   8.827  27.845   8.689
 2068POPC   D2A27940   9.034  27.704   8.342
 2068POPC   C3A27941   8.792  27.638   8.025
 2068POPC   C4A27942   8.982  27.986   7.838
 2068POPC   C1B27943   9.003  27.345   8.691
 2068POPC   C2B27944   8.899  27.176   8.313
 2068POPC   C3B27945   9.047  27.199   7.922
 2068POPC   C4B27946   9.402  27.266   7.668
 2069POPC   NC327947  19.178  40.974   9.443
 2069POPC   PO427948  19.114  40.299   9.587
 2069POPC   GL127949  19.165  40.605   9.119
 2069POPC   GL227950  18.904  40.846   9.018
 2069POPC   C1A27951  19.321  40.836   8.723
 2069POPC   D2A27952  19.519  40.659   8.333
 2069POPC   C3A27953  19.347  40.728   7.909
 2069POPC   C4A27954  19.174  40.473   7.549
 2069POPC   C1B27955  18.827  40.638   8.675
 2069POPC   C2B27956  18.998  40.653   8.297
 2069POPC   C3B27957  18.832  40.652   7.874
 2069POPC   C4B27958  18.703  40.956   7.553
 2070POPC   NC327959  24.655   8.968   9.420
 2070POPC   PO427960  23.980   8.712   9.362
 2070POPC   GL127961  24.263   9.031   9.068
 2070POPC   GL227962  24.634   9.221   8.997
 2070POPC   C1A27963  24.257   9.223   8.664
 2070POPC   D2A27964  24.502   9.282   8.295
 2070POPC   C3A27965  24.389   9.034   7.924
 2070POPC   C4A27966  24.491   8.912   7.484
 2070POPC   C1B27967  24.765   8.994   8.661
 2070POPC   C2B27968  24.980   9.064   8.280
 2070POPC   C3B27969  24.891   9.019   7.874
 2070POPC   C4B27970  24.986   8.792   7.521
 2071POPC   NC327971  11.804  26.338   9.418
 2071POPC   PO427972  12.156  25.814   9.431
 2071POPC   GL127973  12.145  26.115   9.114
 2071POPC   GL227974  12.469  26.167   8.978
 2071POPC   C1A27975  11.973  26.225   8.722
 2071POPC   D2A27976  12.077  26.063   8.339
 2071POPC   C3A27977  11.804  26.078   8.030
 2071POPC   C4A27978  11.904  26.130   7.662
 2071POPC   C1B27979  12.292  25.797   8.724
 2071POPC   C2B27980  12.366  25.636   8.302
 2071POPC   C3B27981  12.237  25.808   7.911
 2071POPC   C4B27982  11.982  25.590   7.609
 2072POPC   NC327983   0.487  20.047   9.795
 2072POPC   PO427984   1.037  19.728   9.563
 2072POPC   GL127985   0.659  19.603   9.176
 2072POPC   GL227986   0.284  19.753   9.175
 2072POPC   C1A27987   0.406  19.589   8.726
 2072POPC   D2A27988   0.356  19.859   8.349
 2072POPC   C3A27989   0.324  19.678   7.947
 2072POPC   C4A27990   0.468  19.625   7.518
 2072POPC   C1B27991   0.067  19.968   8.772
 2072POPC   C2B27992  44.841  19.905   8.365
 2072POPC   C3B27993  44.889  19.940   7.894
 2072POPC   C4B27994   0.139  19.997   7.499
 2073POPC   NC327995  44.319   7.321   9.379
 2073POPC   PO427996  44.746   7.853   9.367
 2073POPC   GL127997  44.669   7.565   9.082
 2073POPC   GL227998  44.314   7.704   9.039
 2073POPC   C1A27999  44.649   7.178   8.821
 2073POPC   D2A28000  44.752   7.108   8.402
 2073POPC   C3A28001  44.468   7.207   8.102
 2073POPC   C4A28002  44.616   7.141   7.731
 2073POPC   C1B28003  44.439   7.591   8.626
 2073POPC   C2B28004  44.701   7.643   8.285
 2073POPC   C3B28005  44.804   7.881   7.909
 2073POPC   C4B28006   0.138   7.932   7.653
 2074POPC   NC328007  38.283  17.879   9.506
 2074POPC   PO428008  38.378  17.218   9.629
 2074POPC   GL128009  38.469  17.441   9.256
 2074POPC   GL228010  38.226  17.631   9.083
 2074POPC   C1A28011  38.552  17.362   8.823
 2074POPC   D2A28012  38.483  17.075   8.483
 2074POPC   C3A28013  38.646  17.293   8.133
 2074POPC   C4A28014  38.464  17.425   7.755
 2074POPC   C1B28015  38.089  17.750   8.688
 2074POPC   C2B28016  38.111  17.558   8.286
 2074POPC   C3B28017  38.007  17.569   7.842
 2074POPC   C4B28018  38.109  17.690   7.378
 2075POPC   NC328019   3.593  40.397   9.486
 2075POPC   PO428020   3.129  40.814   9.764
 2075POPC   GL128021   3.310  40.758   9.266
 2075POPC   GL228022   3.670  40.872   9.163
 2075POPC   C1A28023   3.394  40.753   8.770
 2075POPC   D2A28024   3.575  40.988   8.444
 2075POPC   C3A28025   3.310  41.067   8.108
 2075POPC   C4A28026   3.242  40.826   7.729
 2075POPC   C1B28027   3.932  40.787   8.760
 2075POPC   C2B28028   3.869  40.590   8.362
 2075POPC   C3B28029   3.604  40.654   8.024
 2075POPC   C4B28030   3.690  40.655   7.546
 2076POPC   NC328031   0.907  11.998   9.377
 2076POPC   PO428032   1.550  12.408   9.499
 2076POPC   GL128033   1.342  12.223   9.112
 2076POPC   GL228034   1.329  11.835   9.079
 2076POPC   C1A28035   1.343  12.359   8.662
 2076POPC   D2A28036   1.134  12.396   8.246
 2076POPC   C3A28037   1.105  12.007   7.984
 2076POPC   C4A28038   1.467  11.769   7.812
 2076POPC   C1B28039   1.054  11.925   8.700
 2076POPC   C2B28040   0.797  11.762   8.339
 2076POPC   C3B28041   0.623  11.773   7.948
 2076POPC   C4B28042   0.646  12.096   7.611
 2077POPC   NC328043  12.175   0.741   9.550
 2077POPC   PO428044  12.027   0.051   9.517
 2077POPC   GL128045  11.996   0.364   9.203
 2077POPC   GL228046  12.364   0.403   9.178
 2077POPC   C1A28047  11.878   0.328   8.750
 2077POPC   D2A28048  11.847   0.660   8.419
 2077POPC   C3A28049  11.802   0.468   8.008
 2077POPC   C4A28050  12.034   0.123   7.816
 2077POPC   C1B28051  12.329   0.568   8.764
 2077POPC   C2B28052  12.290   0.388   8.348
 2077POPC   C3B28053  12.301   0.582   7.944
 2077POPC   C4B28054  12.348   0.429   7.547
 2078POPC   NC328055  44.353  44.523   9.783
 2078POPC   PO428056  44.064   0.025   9.520
 2078POPC   GL128057  44.036  44.791   9.112
 2078POPC   GL228058  43.626  44.713   9.053
 2078POPC   C1A28059  43.984  44.882   8.731
 2078POPC   D2A28060  43.716   0.103   8.505
 2078POPC   C3A28061  43.862  44.863   8.184
 2078POPC   C4A28062  44.127  44.927   7.858
 2078POPC   C1B28063  43.797  44.409   8.766
 2078POPC   C2B28064  44.070  44.445   8.419
 2078POPC   C3B28065  44.030  44.368   7.976
 2078POPC   C4B28066  43.752  44.473   7.624
 2079POPC   NC328067  30.457  33.730   9.855
 2079POPC   PO428068  29.866  33.690   9.518
 2079POPC   GL128069  29.810  33.866   9.108
 2079POPC   GL228070  29.745  33.555   9.029
 2079POPC   C1A28071  30.090  33.814   8.753
 2079POPC   D2A28072  30.017  33.869   8.338
 2079POPC   C3A28073  30.178  34.062   7.974
 2079POPC   C4A28074  29.934  33.837   7.683
 2079POPC   C1B28075  29.586  33.708   8.627
 2079POPC   C2B28076  29.551  33.625   8.205
 2079POPC   C3B28077  29.444  33.806   7.822
 2079POPC   C4B28078  29.558  33.551   7.465
 2080POPC   NC328079  17.813  25.116   9.237
 2080POPC   PO428080  17.293  24.781   9.406
 2080POPC   GL128081  17.299  25.135   9.150
 2080POPC   GL228082  17.425  25.469   9.273
 2080POPC   C1A28083  17.308  25.271   8.731
 2080POPC   D2A28084  17.367  25.087   8.365
 2080POPC   C3A28085  17.189  25.292   8.049
 2080POPC   C4A28086  17.352  25.290   7.657
 2080POPC   C1B28087  17.543  25.681   8.889
 2080POPC   C2B28088  17.486  25.709   8.437
 2080POPC   C3B28089  17.619  25.562   8.028
 2080POPC   C4B28090  17.790  25.539   7.594
 2081POPC   NC328091  33.601  39.996   9.615
 2081POPC   PO428092  34.141  39.662   9.570
 2081POPC   GL128093  33.849  39.650   9.187
 2081POPC   GL228094  33.534  39.860   9.130
 2081POPC   C1A28095  33.871  39.790   8.742
 2081POPC   D2A28096  33.861  40.042   8.373
 2081POPC   C3A28097  33.966  39.785   8.050
 2081POPC   C4A28098  33.709  39.807   7.752
 2081POPC   C1B28099  33.514  40.182   8.794
 2081POPC   C2B28100  33.388  40.297   8.388
 2081POPC   C3B28101  33.548  40.295   7.980
 2081POPC   C4B28102  33.948  40.251   7.814
 2082POPC   NC328103  44.016  30.316   9.551
 2082POPC   PO428104  44.003  30.972   9.540
 2082POPC   GL128105  43.830  30.733   9.181
 2082POPC   GL228106  44.139  30.554   9.103
 2082POPC   C1A28107  43.655  30.615   8.760
 2082POPC   D2A28108  43.762  30.769   8.352
 2082POPC   C3A28109  43.783  30.588   7.986
 2082POPC   C4A28110  43.975  30.688   7.613
 2082POPC   C1B28111  44.170  30.678   8.669
 2082POPC   C2B28112  44.208  30.412   8.283
 2082POPC   C3B28113  44.226  30.310   7.836
 2082POPC   C4B28114  44.149  30.319   7.345
 2083POPC   NC328115  13.889  29.621   9.512
 2083POPC   PO428116  13.706  29.027   9.543
 2083POPC   GL128117  13.678  29.227   9.197
 2083POPC   GL228118  13.423  29.479   9.208
 2083POPC   C1A28119  13.846  29.027   8.830
 2083POPC   D2A28120  13.607  28.925   8.484
 2083POPC   C3A28121  13.794  28.831   8.114
 2083POPC   C4A28122  13.724  29.034   7.712
 2083POPC   C1B28123  13.366  29.248   8.815
 2083POPC   C2B28124  13.239  29.292   8.416
 2083POPC   C3B28125  13.433  29.277   8.055
 2083POPC   C4B28126  13.213  29.179   7.679
 2084POPC   NC328127  16.737  15.558   9.893
 2084POPC   PO428128  16.388  15.172   9.443
 2084POPC   GL128129  16.489  15.376   9.115
 2084POPC   GL228130  16.841  15.454   9.191
 2084POPC   C1A28131  16.443  15.167   8.727
 2084POPC   D2A28132  16.719  15.212   8.396
 2084POPC   C3A28133  16.572  15.172   8.034
 2084POPC   C4A28134  16.673  14.959   7.661
 2084POPC   C1B28135  16.790  15.568   8.753
 2084POPC   C2B28136  17.061  15.590   8.343
 2084POPC   C3B28137  17.061  15.324   7.954
 2084POPC   C4B28138  17.009  15.331   7.505
 2085POPC   NC328139  24.846  18.912   9.423
 2085POPC   PO428140  25.205  19.416   9.706
 2085POPC   GL128141  25.243  19.228   9.250
 2085POPC   GL228142  25.344  18.859   9.207
 2085POPC   C1A28143  25.078  19.096   8.811
 2085POPC   D2A28144  24.872  18.924   8.421
 2085POPC   C3A28145  24.933  19.157   8.057
 2085POPC   C4A28146  25.071  19.133   7.649
 2085POPC   C1B28147  25.477  18.793   8.772
 2085POPC   C2B28148  25.380  18.973   8.369
 2085POPC   C3B28149  25.532  19.028   7.953
 2085POPC   C4B28150  25.533  18.979   7.501
 2086POPC   NC328151  20.068  20.121   9.467
 2086POPC   PO428152  19.565  19.643   9.393
 2086POPC   GL128153  19.690  19.664   9.000
 2086POPC   GL228154  20.005  19.777   9.076
 2086POPC   C1A28155  19.573  19.835   8.601
 2086POPC   D2A28156  19.683  20.101   8.247
 2086POPC   C3A28157  19.494  19.932   7.878
 2086POPC   C4A28158  19.704  19.606   7.733
 2086POPC   C1B28159  20.039  20.031   8.703
 2086POPC   C2B28160  20.136  19.842   8.287
 2086POPC   C3B28161  20.103  19.933   7.841
 2086POPC   C4B28162  20.214  20.114   7.424
 2087POPC   NC328163  39.660   0.445   9.359
 2087POPC   PO428164  40.263   0.292   9.524
 2087POPC   GL128165  40.145   0.558   9.183
 2087POPC   GL228166  40.016   0.223   9.052
 2087POPC   C1A28167  39.975   0.757   8.805
 2087POPC   D2A28168  39.936   0.649   8.390
 2087POPC   C3A28169  40.216   0.662   8.072
 2087POPC   C4A28170  39.938   0.512   7.854
 2087POPC   C1B28171  39.788   0.238   8.678
 2087POPC   C2B28172  39.675   0.171   8.252
 2087POPC   C3B28173  39.878   0.036   7.884
 2087POPC   C4B28174  39.748  44.895   7.483
 2088POPC   NC328175  33.872  26.533   9.439
 2088POPC   PO428176  33.653  27.210   9.457
 2088POPC   GL128177  33.693  26.900   9.094
 2088POPC   GL228178  33.953  26.612   8.969
 2088POPC   C1A28179  33.576  26.801   8.672
 2088POPC   D2A28180  33.708  26.632   8.315
 2088POPC   C3A28181  33.549  26.898   8.017
 2088POPC   C4A28182  33.579  26.766   7.607
 2088POPC   C1B28183  34.088  26.913   8.730
 2088POPC   C2B28184  34.218  26.823   8.319
 2088POPC   C3B28185  34.034  26.715   7.895
 2088POPC   C4B28186  34.013  26.989   7.490
 2089POPC   NC328187  18.985  12.027   9.367
 2089POPC   PO428188  19.549  12.362   9.427
 2089POPC   GL128189  19.199  12.390   9.094
 2089POPC   GL228190  19.258  12.076   8.929
 2089POPC   C1A28191  19.078  12.468   8.654
 2089POPC   D2A28192  19.275  12.452   8.235
 2089POPC   C3A28193  19.119  12.152   7.938
 2089POPC   C4A28194  18.858  12.151   7.560
 2089POPC   C1B28195  19.175  11.774   8.583
 2089POPC   C2B28196  19.421  11.508   8.299
 2089POPC   C3B28197  19.363  11.614   7.871
 2089POPC   C4B28198  19.210  11.802   7.497
 2090POPC   NC328199  10.172  31.213   9.475
 2090POPC   PO428200  10.748  31.626   9.460
 2090POPC   GL128201  10.725  31.388   9.119
 2090POPC   GL228202  10.628  31.110   9.257
 2090POPC   C1A28203  10.509  31.470   8.753
 2090POPC   D2A28204  10.264  31.517   8.398
 2090POPC   C3A28205  10.385  31.653   7.965
 2090POPC   C4A28206  10.487  31.762   7.551
 2090POPC   C1B28207  10.414  30.987   8.852
 2090POPC   C2B28208  10.495  31.055   8.427
 2090POPC   C3B28209  10.375  31.149   8.020
 2090POPC   C4B28210  10.582  31.279   7.671
 2091POPC   NC328211  16.296   9.187   9.357
 2091POPC   PO428212  15.756   8.911   9.559
 2091POPC   GL128213  15.889   8.893   9.157
 2091POPC   GL228214  15.894   8.567   9.043
 2091POPC   C1A28215  15.828   8.997   8.743
 2091POPC   D2A28216  15.816   8.844   8.331
 2091POPC   C3A28217  16.027   9.085   8.055
 2091POPC   C4A28218  15.803   9.166   7.701
 2091POPC   C1B28219  16.081   8.536   8.641
 2091POPC   C2B28220  16.320   8.737   8.290
 2091POPC   C3B28221  16.304   8.711   7.824
 2091POPC   C4B28222  16.429   8.659   7.392
 2092POPC   NC328223  38.842  11.010   9.617
 2092POPC   PO428224  38.254  11.322   9.522
 2092POPC   GL128225  38.459  11.396   9.145
 2092POPC   GL228226  38.699  11.649   9.193
 2092POPC   C1A28227  38.386  11.341   8.722
 2092POPC   D2A28228  38.212  11.084   8.377
 2092POPC   C3A28229  38.389  11.226   7.993
 2092POPC   C4A28230  38.284  11.441   7.621
 2092POPC   C1B28231  38.707  11.767   8.749
 2092POPC   C2B28232  38.530  11.676   8.327
 2092POPC   C3B28233  38.597  11.755   7.877
 2092POPC   C4B28234  38.702  11.867   7.433
 2093POPC   NC328235  29.250  34.953   9.655
 2093POPC   PO428236  28.922  34.347   9.485
 2093POPC   GL128237  29.122  34.518   9.140
 2093POPC   GL228238  29.454  34.337   9.098
 2093POPC   C1A28239  28.960  34.841   8.836
 2093POPC   D2A28240  28.817  35.155   8.495
 2093POPC   C3A28241  29.089  35.100   8.120
 2093POPC   C4A28242  29.204  34.794   7.781
 2093POPC   C1B28243  29.218  34.298   8.679
 2093POPC   C2B28244  29.141  34.439   8.237
 2093POPC   C3B28245  29.191  34.272   7.802
 2093POPC   C4B28246  29.358  34.495   7.397
 2094POPC   NC328247  15.923  11.769   9.435
 2094POPC   PO428248  16.168  12.373   9.553
 2094POPC   GL128249  16.059  12.166   9.146
 2094POPC   GL228250  16.236  11.844   9.030
 2094POPC   C1A28251  16.061  12.314   8.720
 2094POPC   D2A28252  16.166  12.103   8.350
 2094POPC   C3A28253  15.964  12.299   8.017
 2094POPC   C4A28254  15.649  12.594   7.931
 2094POPC   C1B28255  15.895  11.825   8.713
 2094POPC   C2B28256  15.746  11.771   8.272
 2094POPC   C3B28257  15.891  11.819   7.840
 2094POPC   C4B28258  15.792  11.748   7.395
 2095POPC   NC328259   4.055  19.150   9.351
 2095POPC   PO428260   3.376  18.879   9.434
 2095POPC   GL128261   3.553  18.949   9.021
 2095POPC   GL228262   3.849  18.766   9.041
 2095POPC   C1A28263   3.541  19.201   8.600
 2095POPC   D2A28264   3.652  19.481   8.213
 2095POPC   C3A28265   3.658  19.265   7.858
 2095POPC   C4A28266   3.506  18.866   7.798
 2095POPC   C1B28267   3.952  18.882   8.603
 2095POPC   C2B28268   3.930  18.906   8.137
 2095POPC   C3B28269   4.005  18.926   7.665
 2095POPC   C4B28270   3.770  18.805   7.274
 2096POPC   NC328271  41.711  15.640   9.513
 2096POPC   PO428272  41.896  14.995   9.339
 2096POPC   GL128273  41.559  15.265   9.110
 2096POPC   GL228274  41.310  15.573   9.184
 2096POPC   C1A28275  41.533  15.160   8.656
 2096POPC   D2A28276  41.846  15.091   8.310
 2096POPC   C3A28277  41.792  15.015   7.848
 2096POPC   C4A28278  41.512  14.821   7.539
 2096POPC   C1B28279  41.394  15.684   8.736
 2096POPC   C2B28280  41.626  15.570   8.381
 2096POPC   C3B28281  41.481  15.373   8.036
 2096POPC   C4B28282  41.675  15.514   7.685
 2097POPC   NC328283  21.593  19.580   9.350
 2097POPC   PO428284  21.326  20.186   9.345
 2097POPC   GL128285  21.221  19.929   8.984
 2097POPC   GL228286  21.326  19.584   8.917
 2097POPC   C1A28287  21.345  19.967   8.547
 2097POPC   D2A28288  21.636  20.249   8.286
 2097POPC   C3A28289  21.668  20.098   7.867
 2097POPC   C4A28290  21.493  19.805   7.619
 2097POPC   C1B28291  21.609  19.521   8.601
 2097POPC   C2B28292  21.666  19.724   8.221
 2097POPC   C3B28293  21.833  19.539   7.890
 2097POPC   C4B28294  21.758  19.412   7.456
 2098POPC   NC328295  16.457  42.758   9.630
 2098POPC   PO428296  16.942  43.284   9.755
 2098POPC   GL128297  16.778  43.229   9.302
 2098POPC   GL228298  17.047  43.118   9.101
 2098POPC   C1A28299  16.574  43.103   8.878
 2098POPC   D2A28300  16.734  42.976   8.451
 2098POPC   C3A28301  16.545  43.084   8.044
 2098POPC   C4A28302  16.592  42.937   7.598
 2098POPC   C1B28303  17.013  43.376   8.726
 2098POPC   C2B28304  16.946  43.422   8.288
 2098POPC   C3B28305  17.034  43.172   7.928
 2098POPC   C4B28306  17.043  43.162   7.466
 2099POPC   NC328307  32.357   4.685   9.516
 2099POPC   PO428308  31.932   4.103   9.389
 2099POPC   GL128309  32.255   4.189   9.059
 2099POPC   GL228310  32.379   4.534   9.047
 2099POPC   C1A28311  32.362   4.239   8.604
 2099POPC   D2A28312  32.165   4.035   8.236
 2099POPC   C3A28313  32.275   4.113   7.789
 2099POPC   C4A28314  32.238   4.043   7.336
 2099POPC   C1B28315  31.981   4.549   8.835
 2099POPC   C2B28316  31.855   4.449   8.420
 2099POPC   C3B28317  32.073   4.536   8.049
 2099POPC   C4B28318  32.138   4.594   7.627
 2100POPC   NC328319  43.223  35.733   9.485
 2100POPC   PO428320  42.723  35.172   9.395
 2100POPC   GL128321  43.086  35.387   9.120
 2100POPC   GL228322  43.334  35.697   8.999
 2100POPC   C1A28323  43.258  35.236   8.747
 2100POPC   D2A28324  43.409  35.173   8.339
 2100POPC   C3A28325  43.048  35.294   8.109
 2100POPC   C4A28326  42.948  35.236   7.643
 2100POPC   C1B28327  43.269  35.705   8.545
 2100POPC   C2B28328  43.457  35.638   8.171
 2100POPC   C3B28329  43.427  35.390   7.798
 2100POPC   C4B28330  43.281  35.594   7.408
 2101POPC   NC328331  44.581  34.893   9.514
 2101POPC   PO428332  44.885  34.316   9.472
 2101POPC   GL128333  44.844  34.582   9.134
 2101POPC   GL228334  44.496  34.580   9.116
 2101POPC   C1A28335  44.896  34.541   8.685
 2101POPC   D2A28336  44.808  34.192   8.407
 2101POPC   C3A28337  44.834  34.331   7.967
 2101POPC   C4A28338  44.984  34.367   7.537
 2101POPC   C1B28339  44.369  34.451   8.727
 2101POPC   C2B28340  44.503  34.587   8.312
 2101POPC   C3B28341  44.355  34.623   7.906
 2101POPC   C4B28342  44.265  34.917   7.570
 2102POPC   NC328343   0.255  16.251   9.540
 2102POPC   PO428344   0.704  15.810   9.370
 2102POPC   GL128345   0.391  15.998   9.133
 2102POPC   GL228346   0.552  16.319   9.112
 2102POPC   C1A28347   0.088  15.920   8.790
 2102POPC   D2A28348   0.223  16.005   8.355
 2102POPC   C3A28349   0.076  15.864   7.970
 2102POPC   C4A28350   0.488  15.938   7.794
 2102POPC   C1B28351   0.539  16.187   8.706
 2102POPC   C2B28352   0.563  16.405   8.372
 2102POPC   C3B28353   0.743  16.302   8.025
 2102POPC   C4B28354   0.663  16.393   7.626
 2103POPC   NC328355  25.590  23.422   9.479
 2103POPC   PO428356  26.301  23.583   9.434
 2103POPC   GL128357  26.180  23.749   9.048
 2103POPC   GL228358  25.830  23.801   9.067
 2103POPC   C1A28359  26.063  23.562   8.655
 2103POPC   D2A28360  26.178  23.320   8.292
 2103POPC   C3A28361  26.413  23.573   8.024
 2103POPC   C4A28362  26.271  23.799   7.680
 2103POPC   C1B28363  25.577  23.785   8.708
 2103POPC   C2B28364  25.662  23.847   8.308
 2103POPC   C3B28365  25.771  23.658   7.932
 2103POPC   C4B28366  25.808  23.702   7.487
 2104POPC   NC328367  15.110  30.506   9.463
 2104POPC   PO428368  14.894  31.177   9.433
 2104POPC   GL128369  15.117  30.897   9.101
 2104POPC   GL228370  15.482  30.929   9.053
 2104POPC   C1A28371  15.282  30.605   8.740
 2104POPC   D2A28372  15.440  30.651   8.319
 2104POPC   C3A28373  15.204  30.626   7.974
 2104POPC   C4A28374  15.153  30.264   7.718
 2104POPC   C1B28375  15.419  31.133   8.661
 2104POPC   C2B28376  15.265  31.138   8.251
 2104POPC   C3B28377  15.383  31.085   7.828
 2104POPC   C4B28378  15.705  31.130   7.499
 2105POPC   NC328379  43.067   4.525   9.488
 2105POPC   PO428380  42.810   3.840   9.450
 2105POPC   GL128381  43.040   4.110   9.174
 2105POPC   GL228382  42.798   4.382   9.074
 2105POPC   C1A28383  43.237   4.315   8.801
 2105POPC   D2A28384  43.140   4.516   8.402
 2105POPC   C3A28385  43.351   4.349   8.022
 2105POPC   C4A28386  43.169   4.321   7.623
 2105POPC   C1B28387  42.765   4.068   8.736
 2105POPC   C2B28388  43.010   3.997   8.370
 2105POPC   C3B28389  42.861   4.113   7.983
 2105POPC   C4B28390  42.783   4.008   7.571
 2106POPC   NC328391  42.890   0.799   9.771
 2106POPC   PO428392  43.272   1.316   9.497
 2106POPC   GL128393  43.050   1.310   9.123
 2106POPC   GL228394  43.342   1.340   8.960
 2106POPC   C1A28395  42.834   1.246   8.728
 2106POPC   D2A28396  42.707   1.297   8.299
 2106POPC   C3A28397  43.036   1.147   8.015
 2106POPC   C4A28398  42.950   0.998   7.621
 2106POPC   C1B28399  43.331   0.988   8.746
 2106POPC   C2B28400  43.415   1.061   8.359
 2106POPC   C3B28401  43.607   0.895   8.048
 2106POPC   C4B28402  43.457   1.042   7.667
 2107POPC   NC328403   4.701   0.924   9.300
 2107POPC   PO428404   4.160   1.302   9.414
 2107POPC   GL128405   4.331   1.240   9.028
 2107POPC   GL228406   4.692   1.315   8.994
 2107POPC   C1A28407   4.385   1.439   8.624
 2107POPC   D2A28408   4.629   1.299   8.284
 2107POPC   C3A28409   4.360   1.153   7.984
 2107POPC   C4A28410   4.186   1.293   7.627
 2107POPC   C1B28411   4.594   0.969   8.686
 2107POPC   C2B28412   4.697   0.700   8.388
 2107POPC   C3B28413   4.712   0.797   7.965
 2107POPC   C4B28414   4.658   1.032   7.566
 2108POPC   NC328415  26.202   8.537   9.340
 2108POPC   PO428416  26.139   9.140   9.618
 2108POPC   GL128417  25.943   9.066   9.214
 2108POPC   GL228418  26.160   9.280   9.065
 2108POPC   C1A28419  25.927   8.958   8.753
 2108POPC   D2A28420  26.229   8.851   8.462
 2108POPC   C3A28421  26.135   8.722   8.075
 2108POPC   C4A28422  25.959   8.852   7.698
 2108POPC   C1B28423  26.358   9.287   8.717
 2108POPC   C2B28424  26.051   9.318   8.379
 2108POPC   C3B28425  25.931   9.258   7.981
 2108POPC   C4B28426  26.132   9.326   7.583
 2109POPC   NC328427   1.879  34.303   9.354
 2109POPC   PO428428   2.019  34.920   9.416
 2109POPC   GL128429   2.046  34.691   9.089
 2109POPC   GL228430   2.352  34.506   9.185
 2109POPC   C1A28431   1.804  34.689   8.714
 2109POPC   D2A28432   1.916  34.514   8.351
 2109POPC   C3A28433   1.703  34.482   8.008
 2109POPC   C4A28434   1.845  34.695   7.673
 2109POPC   C1B28435   2.312  34.424   8.748
 2109POPC   C2B28436   2.370  34.297   8.332
 2109POPC   C3B28437   2.278  34.486   7.931
 2109POPC   C4B28438   2.192  34.369   7.506
 2110POPC   NC328439  12.316  22.419   9.392
 2110POPC   PO428440  11.887  21.953   9.487
 2110POPC   GL128441  12.026  22.132   9.091
 2110POPC   GL228442  11.913  22.490   9.070
 2110POPC   C1A28443  12.167  22.035   8.675
 2110POPC   D2A28444  12.261  21.782   8.331
 2110POPC   C3A28445  12.083  22.021   8.003
 2110POPC   C4A28446  11.936  22.240   7.659
 2110POPC   C1B28447  12.039  22.518   8.618
 2110POPC   C2B28448  12.017  22.509   8.155
 2110POPC   C3B28449  11.711  22.633   7.868
 2110POPC   C4B28450  11.763  22.695   7.414
 2111POPC   NC328451  35.854   8.082   9.467
 2111POPC   PO428452  35.331   8.547   9.538
 2111POPC   GL128453  35.428   8.297   9.208
 2111POPC   GL228454  35.252   7.994   9.359
 2111POPC   C1A28455  35.527   8.371   8.764
 2111POPC   D2A28456  35.679   8.223   8.362
 2111POPC   C3A28457  35.629   8.461   7.988
 2111POPC   C4A28458  35.556   8.321   7.590
 2111POPC   C1B28459  35.161   7.978   8.929
 2111POPC   C2B28460  35.165   7.991   8.503
 2111POPC   C3B28461  35.156   8.011   8.054
 2111POPC   C4B28462  35.174   7.788   7.663
 2112POPC   NC328463   6.365   8.326   9.863
 2112POPC   PO428464   6.922   8.225   9.524
 2112POPC   GL128465   6.780   8.347   9.110
 2112POPC   GL228466   6.440   8.229   8.986
 2112POPC   C1A28467   6.814   8.373   8.655
 2112POPC   D2A28468   6.915   8.233   8.261
 2112POPC   C3A28469   6.699   8.301   7.892
 2112POPC   C4A28470   6.684   8.062   7.535
 2112POPC   C1B28471   6.325   8.571   8.684
 2112POPC   C2B28472   6.525   8.626   8.282
 2112POPC   C3B28473   6.302   8.664   7.874
 2112POPC   C4B28474   6.384   8.507   7.448
 2113POPC   NC328475  12.334  30.441  10.104
 2113POPC   PO428476  12.233  30.842   9.529
 2113POPC   GL128477  12.306  30.775   9.098
 2113POPC   GL228478  12.319  30.420   9.157
 2113POPC   C1A28479  12.213  30.984   8.689
 2113POPC   D2A28480  12.271  31.202   8.280
 2113POPC   C3A28481  12.242  30.890   7.982
 2113POPC   C4A28482  11.848  30.703   7.879
 2113POPC   C1B28483  12.142  30.469   8.728
 2113POPC   C2B28484  12.104  30.497   8.290
 2113POPC   C3B28485  11.998  30.217   7.963
 2113POPC   C4B28486  11.878  30.292   7.562
 2114POPC   NC328487  18.731  26.473   9.461
 2114POPC   PO428488  19.170  26.045   9.516
 2114POPC   GL128489  19.063  26.075   9.106
 2114POPC   GL228490  18.888  25.758   9.049
 2114POPC   C1A28491  19.064  26.276   8.709
 2114POPC   D2A28492  18.949  26.465   8.284
 2114POPC   C3A28493  19.185  26.286   7.930
 2114POPC   C4A28494  18.894  26.122   7.642
 2114POPC   C1B28495  19.167  25.745   8.705
 2114POPC   C2B28496  19.162  25.958   8.321
 2114POPC   C3B28497  19.149  25.756   7.935
 2114POPC   C4B28498  19.265  25.779   7.523
 2115POPC   NC328499  18.896  29.010   9.529
 2115POPC   PO428500  19.404  29.388   9.429
 2115POPC   GL128501  19.195  29.152   9.150
 2115POPC   GL228502  19.419  28.951   9.055
 2115POPC   C1A28503  18.891  29.240   8.854
 2115POPC   D2A28504  18.955  29.387   8.438
 2115POPC   C3A28505  19.102  29.037   8.186
 2115POPC   C4A28506  19.120  28.996   7.751
 2115POPC   C1B28507  19.352  29.108   8.644
 2115POPC   C2B28508  19.487  29.383   8.309
 2115POPC   C3B28509  19.470  29.377   7.864
 2115POPC   C4B28510  19.580  29.192   7.471
 2116POPC   NC328511  26.713  41.384   9.308
 2116POPC   PO428512  26.368  41.254   9.795
 2116POPC   GL128513  26.245  41.292   9.226
 2116POPC   GL228514  26.513  41.115   8.957
 2116POPC   C1A28515  26.380  41.507   8.725
 2116POPC   D2A28516  26.341  41.326   8.306
 2116POPC   C3A28517  26.562  41.578   7.979
 2116POPC   C4A28518  26.685  41.528   7.551
 2116POPC   C1B28519  26.923  41.173   8.745
 2116POPC   C2B28520  26.881  41.432   8.391
 2116POPC   C3B28521  27.042  41.449   7.979
 2116POPC   C4B28522  27.209  41.407   7.576
 2117POPC   NC328523  16.295  19.936   9.750
 2117POPC   PO428524  15.838  19.459   9.506
 2117POPC   GL128525  16.011  19.653   9.115
 2117POPC   GL228526  16.117  19.995   9.145
 2117POPC   C1A28527  16.184  19.778   8.667
 2117POPC   D2A28528  16.184  20.138   8.388
 2117POPC   C3A28529  16.006  20.042   7.986
 2117POPC   C4A28530  16.065  19.695   7.704
 2117POPC   C1B28531  15.775  20.036   8.808
 2117POPC   C2B28532  15.682  20.183   8.387
 2117POPC   C3B28533  15.513  20.239   7.972
 2117POPC   C4B28534  15.756  20.169   7.564
 2118POPC   NC328535  33.485  38.660   9.510
 2118POPC   PO428536  34.207  38.711   9.502
 2118POPC   GL128537  34.034  38.415   9.209
 2118POPC   GL228538  33.701  38.428   9.109
 2118POPC   C1A28539  34.069  38.440   8.740
 2118POPC   D2A28540  33.809  38.484   8.343
 2118POPC   C3A28541  33.994  38.583   7.928
 2118POPC   C4A28542  34.064  38.225   7.667
 2118POPC   C1B28543  33.606  38.745   8.765
 2118POPC   C2B28544  33.383  38.808   8.365
 2118POPC   C3B28545  33.505  38.844   7.927
 2118POPC   C4B28546  33.518  38.407   7.812
 2119POPC   NC328547  13.862  21.493   9.450
 2119POPC   PO428548  13.439  21.025   9.313
 2119POPC   GL128549  13.724  21.214   9.036
 2119POPC   GL228550  13.553  21.505   9.044
 2119POPC   C1A28551  13.641  21.193   8.598
 2119POPC   D2A28552  13.780  21.293   8.189
 2119POPC   C3A28553  13.480  21.216   7.877
 2119POPC   C4A28554  13.644  20.853   7.632
 2119POPC   C1B28555  13.681  21.704   8.707
 2119POPC   C2B28556  13.897  21.756   8.345
 2119POPC   C3B28557  13.693  21.762   7.931
 2119POPC   C4B28558  13.731  21.737   7.483
 2120POPC   NC328559   1.313   2.501   9.346
 2120POPC   PO428560   1.153   3.069   9.476
 2120POPC   GL128561   1.144   2.899   9.072
 2120POPC   GL228562   1.496   2.895   9.051
 2120POPC   C1A28563   1.063   2.781   8.636
 2120POPC   D2A28564   1.019   2.854   8.199
 2120POPC   C3A28565   1.110   2.610   7.855
 2120POPC   C4A28566   1.136   2.669   7.392
 2120POPC   C1B28567   1.550   2.610   8.721
 2120POPC   C2B28568   1.485   2.625   8.281
 2120POPC   C3B28569   1.490   2.302   7.985
 2120POPC   C4B28570   1.582   2.305   7.588
 2121POPC   NC328571  36.679  30.355   9.439
 2121POPC   PO428572  36.913  30.950   9.453
 2121POPC   GL128573  36.853  30.834   9.079
 2121POPC   GL228574  37.073  30.556   9.166
 2121POPC   C1A28575  36.674  31.051   8.726
 2121POPC   D2A28576  36.661  30.782   8.373
 2121POPC   C3A28577  36.581  30.883   7.963
 2121POPC   C4A28578  36.628  30.506   7.694
 2121POPC   C1B28579  37.212  30.543   8.759
 2121POPC   C2B28580  37.236  30.685   8.340
 2121POPC   C3B28581  37.042  30.674   7.962
 2121POPC   C4B28582  37.124  30.449   7.579
 2122POPC   NC328583   8.756   8.077   9.427
 2122POPC   PO428584   9.292   8.508   9.563
 2122POPC   GL128585   9.184   8.266   9.237
 2122POPC   GL228586   8.923   8.510   9.191
 2122POPC   C1A28587   9.207   8.109   8.827
 2122POPC   D2A28588   9.272   7.904   8.409
 2122POPC   C3A28589   9.175   8.226   8.134
 2122POPC   C4A28590   8.936   8.150   7.753
 2122POPC   C1B28591   8.735   8.511   8.837
 2122POPC   C2B28592   8.819   8.305   8.482
 2122POPC   C3B28593   8.694   8.452   8.090
 2122POPC   C4B28594   8.713   8.599   7.678
 2123POPC   NC328595  43.567  24.271   9.500
 2123POPC   PO428596  42.943  24.552   9.567
 2123POPC   GL128597  42.902  24.445   9.132
 2123POPC   GL228598  43.223  24.294   9.096
 2123POPC   C1A28599  42.998  24.551   8.688
 2123POPC   D2A28600  43.274  24.821   8.433
 2123POPC   C3A28601  43.177  24.743   8.041
 2123POPC   C4A28602  42.888  24.526   7.806
 2123POPC   C1B28603  43.157  24.069   8.678
 2123POPC   C2B28604  43.040  24.223   8.248
 2123POPC   C3B28605  42.884  24.013   7.861
 2123POPC   C4B28606  42.879  24.176   7.411
 2124POPC   NC328607  13.287   3.155   9.786
 2124POPC   PO428608  13.439   2.530   9.506
 2124POPC   GL128609  13.680   2.686   9.166
 2124POPC   GL228610  13.671   3.042   8.974
 2124POPC   C1A28611  13.557   2.587   8.785
 2124POPC   D2A28612  13.665   2.739   8.428
 2124POPC   C3A28613  13.456   2.518   8.143
 2124POPC   C4A28614  13.758   2.590   7.833
 2124POPC   C1B28615  13.390   3.107   8.662
 2124POPC   C2B28616  13.242   3.002   8.267
 2124POPC   C3B28617  13.385   2.949   7.883
 2124POPC   C4B28618  13.271   2.606   7.661
 2125POPC   NC328619  20.009  29.850   9.537
 2125POPC   PO428620  19.605  30.111   9.113
 2125POPC   GL128621  19.925  29.857   9.025
 2125POPC   GL228622  20.203  30.062   9.108
 2125POPC   C1A28623  20.038  29.768   8.621
 2125POPC   D2A28624  19.939  29.657   8.224
 2125POPC   C3A28625  20.004  29.908   7.870
 2125POPC   C4A28626  19.937  29.526   7.667
 2125POPC   C1B28627  20.101  30.278   8.722
 2125POPC   C2B28628  19.918  30.255   8.306
 2125POPC   C3B28629  20.146  30.398   7.936
 2125POPC   C4B28630  20.396  30.243   7.587
 2126POPC   NC328631  16.875  24.862   9.548
 2126POPC   PO428632  16.493  25.375   9.491
 2126POPC   GL128633  16.754  25.185   9.170
 2126POPC   GL228634  16.928  25.485   9.129
 2126POPC   C1A28635  16.939  24.941   8.826
 2126POPC   D2A28636  16.852  25.113   8.441
 2126POPC   C3A28637  16.715  24.955   8.070
 2126POPC   C4A28638  16.860  25.104   7.693
 2126POPC   C1B28639  17.036  25.714   8.769
 2126POPC   C2B28640  16.953  25.609   8.376
 2126POPC   C3B28641  16.784  25.577   7.963
 2126POPC   C4B28642  16.987  25.606   7.560
 2127POPC   NC328643  34.137  12.841   9.413
 2127POPC   PO428644  34.732  12.423   9.486
 2127POPC   GL128645  34.575  12.673   9.179
 2127POPC   GL228646  34.825  12.897   9.124
 2127POPC   C1A28647  34.354  12.682   8.779
 2127POPC   D2A28648  34.339  12.977   8.395
 2127POPC   C3A28649  34.439  12.840   7.959
 2127POPC   C4A28650  34.377  12.781   7.475
 2127POPC   C1B28651  34.694  13.060   8.763
 2127POPC   C2B28652  34.890  12.974   8.395
 2127POPC   C3B28653  34.866  13.099   8.008
 2127POPC   C4B28654  34.859  12.876   7.608
 2128POPC   NC328655  28.940   6.170   9.567
 2128POPC   PO428656  29.023   6.907   9.494
 2128POPC   GL128657  29.107   6.674   9.150
 2128POPC   GL228658  29.204   6.385   9.153
 2128POPC   C1A28659  29.389   6.700   8.784
 2128POPC   D2A28660  29.267   6.897   8.403
 2128POPC   C3A28661  29.456   6.820   8.024
 2128POPC   C4A28662  29.199   6.689   7.675
 2128POPC   C1B28663  29.053   6.146   8.858
 2128POPC   C2B28664  28.997   6.156   8.436
 2128POPC   C3B28665  29.143   6.358   8.074
 2128POPC   C4B28666  29.028   6.211   7.693
 2129POPC   NC328667  15.477  22.179   9.513
 2129POPC   PO428668  14.932  22.503   9.663
 2129POPC   GL128669  15.013  22.171   9.263
 2129POPC   GL228670  15.328  22.242   9.057
 2129POPC   C1A28671  14.999  21.954   8.820
 2129POPC   D2A28672  14.821  22.111   8.411
 2129POPC   C3A28673  14.961  22.035   8.004
 2129POPC   C4A28674  15.017  22.381   7.733
 2129POPC   C1B28675  15.351  22.350   8.634
 2129POPC   C2B28676  15.283  22.383   8.223
 2129POPC   C3B28677  15.501  22.304   7.877
 2129POPC   C4B28678  15.454  22.644   7.635
 2130POPC   NC328679  38.779  27.999   9.303
 2130POPC   PO428680  38.181  27.792   9.396
 2130POPC   GL128681  38.396  27.790   9.033
 2130POPC   GL228682  38.673  27.537   9.096
 2130POPC   C1A28683  38.463  27.698   8.622
 2130POPC   D2A28684  38.271  27.473   8.298
 2130POPC   C3A28685  38.370  27.697   7.939
 2130POPC   C4A28686  38.462  27.616   7.549
 2130POPC   C1B28687  38.830  27.329   8.731
 2130POPC   C2B28688  38.643  27.123   8.351
 2130POPC   C3B28689  38.587  27.222   7.932
 2130POPC   C4B28690  38.947  27.357   7.747
 2131POPC   NC328691  16.256  27.065   9.381
 2131POPC   PO428692  15.682  26.778   9.747
 2131POPC   GL128693  15.816  26.792   9.273
 2131POPC   GL228694  16.049  26.615   9.098
 2131POPC   C1A28695  15.864  27.013   8.817
 2131POPC   D2A28696  15.863  26.830   8.407
 2131POPC   C3A28697  15.912  26.984   7.984
 2131POPC   C4A28698  15.742  26.746   7.619
 2131POPC   C1B28699  16.328  26.768   8.747
 2131POPC   C2B28700  16.388  26.854   8.333
 2131POPC   C3B28701  16.304  26.667   7.963
 2131POPC   C4B28702  16.235  26.641   7.538
 2132POPC   NC328703  18.469  35.062   9.494
 2132POPC   PO428704  18.193  35.666   9.433
 2132POPC   GL128705  18.202  35.449   9.077
 2132POPC   GL228706  18.552  35.397   9.119
 2132POPC   C1A28707  18.234  35.182   8.721
 2132POPC   D2A28708  18.042  35.065   8.345
 2132POPC   C3A28709  18.271  35.192   7.974
 2132POPC   C4A28710  18.109  35.490   7.692
 2132POPC   C1B28711  18.597  35.622   8.744
 2132POPC   C2B28712  18.387  35.554   8.360
 2132POPC   C3B28713  18.450  35.726   7.970
 2132POPC   C4B28714  18.581  35.590   7.543
 2133POPC   NC328715  27.280  13.699   9.661
 2133POPC   PO428716  26.583  13.619   9.572
 2133POPC   GL128717  26.823  13.680   9.176
 2133POPC   GL228718  27.139  13.891   9.206
 2133POPC   C1A28719  26.700  13.846   8.772
 2133POPC   D2A28720  26.695  13.655   8.372
 2133POPC   C3A28721  26.671  13.823   7.997
 2133POPC   C4A28722  26.882  13.471   7.830
 2133POPC   C1B28723  27.210  13.891   8.756
 2133POPC   C2B28724  27.070  14.064   8.342
 2133POPC   C3B28725  27.165  13.912   7.920
 2133POPC   C4B28726  27.132  13.746   7.473
 2134POPC   NC328727  28.494  37.093   9.406
 2134POPC   PO428728  28.134  36.473   9.353
 2134POPC   GL128729  28.104  36.736   9.020
 2134POPC   GL228730  28.029  37.044   9.153
 2134POPC   C1A28731  28.366  37.014   8.774
 2134POPC   D2A28732  28.331  37.142   8.381
 2134POPC   C3A28733  28.448  36.800   8.122
 2134POPC   C4A28734  28.495  36.800   7.721
 2134POPC   C1B28735  27.846  37.144   8.739
 2134POPC   C2B28736  27.864  37.307   8.306
 2134POPC   C3B28737  28.077  37.120   7.913
 2134POPC   C4B28738  28.323  37.305   7.545
 2135POPC   NC328739  38.228  32.856   9.677
 2135POPC   PO428740  38.695  33.365   9.567
 2135POPC   GL128741  38.511  33.071   9.280
 2135POPC   GL228742  38.480  33.345   9.069
 2135POPC   C1A28743  38.256  32.901   8.898
 2135POPC   D2A28744  38.082  32.964   8.447
 2135POPC   C3A28745  38.354  32.968   8.067
 2135POPC   C4A28746  38.300  32.871   7.631
 2135POPC   C1B28747  38.467  33.290   8.627
 2135POPC   C2B28748  38.501  33.435   8.222
 2135POPC   C3B28749  38.172  33.434   7.892
 2135POPC   C4B28750  38.256  33.386   7.447
 2136POPC   NC328751  14.072  15.439   9.380
 2136POPC   PO428752  14.608  15.059   9.444
 2136POPC   GL128753  14.554  15.004   9.033
 2136POPC   GL228754  14.226  15.081   9.046
 2136POPC   C1A28755  14.539  15.236   8.668
 2136POPC   D2A28756  14.646  15.255   8.251
 2136POPC   C3A28757  14.485  14.919   7.989
 2136POPC   C4A28758  14.507  14.885   7.539
 2136POPC   C1B28759  13.957  15.135   8.734
 2136POPC   C2B28760  14.109  15.269   8.370
 2136POPC   C3B28761  14.268  15.584   8.126
 2136POPC   C4B28762  14.435  15.385   7.765
 2137POPC   NC328763  40.195  24.538   9.459
 2137POPC   PO428764  39.598  24.855   9.310
 2137POPC   GL128765  39.773  24.461   9.173
 2137POPC   GL228766  39.980  24.128   9.233
 2137POPC   C1A28767  39.878  24.439   8.771
 2137POPC   D2A28768  39.717  24.606   8.416
 2137POPC   C3A28769  39.973  24.598   8.116
 2137POPC   C4A28770  39.861  24.625   7.744
 2137POPC   C1B28771  40.234  24.087   8.881
 2137POPC   C2B28772  40.252  24.241   8.463
 2137POPC   C3B28773  40.375  24.191   8.064
 2137POPC   C4B28774  40.267  24.323   7.692
 2138POPC   NC328775  37.588  15.547   9.526
 2138POPC   PO428776  38.002  15.049   9.488
 2138POPC   GL128777  37.773  15.100   9.112
 2138POPC   GL228778  37.511  15.362   9.058
 2138POPC   C1A28779  37.942  15.283   8.753
 2138POPC   D2A28780  38.072  15.389   8.346
 2138POPC   C3A28781  37.738  15.143   8.193
 2138POPC   C4A28782  37.581  15.192   7.790
 2138POPC   C1B28783  37.242  15.519   8.703
 2138POPC   C2B28784  37.194  15.465   8.239
 2138POPC   C3B28785  37.115  15.409   7.779
 2138POPC   C4B28786  37.228  15.564   7.332
 2139POPC   NC328787  26.971  34.323   9.277
 2139POPC   PO428788  26.401  34.147   9.514
 2139POPC   GL128789  26.504  34.515   9.219
 2139POPC   GL228790  26.440  34.284   8.985
 2139POPC   C1A28791  26.754  34.700   8.839
 2139POPC   D2A28792  26.938  34.647   8.459
 2139POPC   C3A28793  26.901  34.857   8.089
 2139POPC   C4A28794  27.076  34.723   7.724
 2139POPC   C1B28795  26.521  34.330   8.564
 2139POPC   C2B28796  26.518  34.510   8.173
 2139POPC   C3B28797  26.603  34.521   7.727
 2139POPC   C4B28798  26.501  34.599   7.296
 2140POPC   NC328799  43.819  44.620   9.516
 2140POPC   PO428800  43.155  44.608   9.508
 2140POPC   GL128801  43.033  44.639   9.144
 2140POPC   GL228802  42.670  44.664   9.209
 2140POPC   C1A28803  43.228  44.515   8.789
 2140POPC   D2A28804  43.467  44.670   8.450
 2140POPC   C3A28805  43.454  44.524   8.038
 2140POPC   C4A28806  43.250  44.648   7.662
 2140POPC   C1B28807  42.733  44.828   8.803
 2140POPC   C2B28808  42.894  44.676   8.440
 2140POPC   C3B28809  42.929  44.555   8.052
 2140POPC   C4B28810  42.757  44.745   7.697
 2141POPC   NC328811   5.114  27.984   9.440
 2141POPC   PO428812   5.279  28.588   9.447
 2141POPC   GL128813   4.984  28.373   9.156
 2141POPC   GL228814   4.652  28.412   9.236
 2141POPC   C1A28815   4.972  28.123   8.783
 2141POPC   D2A28816   5.232  28.210   8.444
 2141POPC   C3A28817   5.138  28.137   8.020
 2141POPC   C4A28818   5.341  28.321   7.679
 2141POPC   C1B28819   4.665  28.532   8.773
 2141POPC   C2B28820   4.766  28.386   8.357
 2141POPC   C3B28821   4.617  28.249   7.961
 2141POPC   C4B28822   4.852  28.274   7.590
 2142POPC   NC328823   6.551  22.861   9.517
 2142POPC   PO428824   6.990  23.264   9.121
 2142POPC   GL128825   6.729  22.932   9.046
 2142POPC   GL228826   6.384  22.910   9.064
 2142POPC   C1A28827   6.644  22.722   8.670
 2142POPC   D2A28828   6.701  22.992   8.354
 2142POPC   C3A28829   6.800  22.912   7.942
 2142POPC   C4A28830   6.756  23.030   7.523
 2142POPC   C1B28831   6.148  22.821   8.719
 2142POPC   C2B28832   6.238  22.713   8.316
 2142POPC   C3B28833   6.297  23.021   8.037
 2142POPC   C4B28834   6.254  23.061   7.627
 2143POPC   NC328835  44.630   9.877   9.525
 2143POPC   PO428836  44.706   9.256   9.500
 2143POPC   GL128837  44.871   9.636   9.159
 2143POPC   GL228838  44.601   9.872   9.029
 2143POPC   C1A28839  44.993   9.817   8.733
 2143POPC   D2A28840  44.847  10.035   8.342
 2143POPC   C3A28841  44.804   9.788   7.956
 2143POPC   C4A28842  44.545   9.430   7.817
 2143POPC   C1B28843  44.268  10.073   8.830
 2143POPC   C2B28844  44.273  10.205   8.403
 2143POPC   C3B28845  44.495  10.216   8.018
 2143POPC   C4B28846  44.383   9.955   7.704
 2144POPC   NC328847  22.790  35.466   9.661
 2144POPC   PO428848  22.109  35.383   9.585
 2144POPC   GL128849  22.117  35.528   9.171
 2144POPC   GL228850  22.423  35.482   9.042
 2144POPC   C1A28851  21.957  35.604   8.757
 2144POPC   D2A28852  22.162  35.455   8.395
 2144POPC   C3A28853  22.151  35.534   7.932
 2144POPC   C4A28854  22.422  35.222   7.689
 2144POPC   C1B28855  22.152  35.117   8.865
 2144POPC   C2B28856  22.099  34.904   8.476
 2144POPC   C3B28857  22.062  35.060   8.074
 2144POPC   C4B28858  21.947  34.987   7.675
 2145POPC   NC328859  35.549  10.450   9.175
 2145POPC   PO428860  35.275  10.930   9.553
 2145POPC   GL128861  35.117  10.735   9.165
 2145POPC   GL228862  35.057  10.395   9.058
 2145POPC   C1A28863  35.024  10.782   8.708
 2145POPC   D2A28864  35.155  11.061   8.357
 2145POPC   C3A28865  35.213  10.885   7.958
 2145POPC   C4A28866  35.005  10.530   7.773
 2145POPC   C1B28867  35.253  10.273   8.653
 2145POPC   C2B28868  35.245  10.445   8.250
 2145POPC   C3B28869  35.487  10.363   7.891
 2145POPC   C4B28870  35.739  10.095   7.638
 2146POPC   NC328871  39.875  35.010   9.347
 2146POPC   PO428872  40.264  35.579   9.493
 2146POPC   GL128873  40.049  35.472   9.114
 2146POPC   GL228874  39.730  35.639   9.141
 2146POPC   C1A28875  40.101  35.223   8.729
 2146POPC   D2A28876  39.956  35.285   8.293
 2146POPC   C3A28877  40.192  35.247   7.930
 2146POPC   C4A28878  40.229  35.686   7.815
 2146POPC   C1B28879  39.668  35.499   8.693
 2146POPC   C2B28880  39.456  35.537   8.267
 2146POPC   C3B28881  39.675  35.420   7.866
 2146POPC   C4B28882  39.607  35.168   7.506
 2147POPC   NC328883   0.578  37.065   9.585
 2147POPC   PO428884   0.265  36.558   9.475
 2147POPC   GL128885   0.350  36.814   9.172
 2147POPC   GL228886   0.156  37.125   9.240
 2147POPC   C1A28887   0.340  36.623   8.781
 2147POPC   D2A28888   0.639  36.546   8.511
 2147POPC   C3A28889   0.516  36.649   8.122
 2147POPC   C4A28890   0.511  36.545   7.739
 2147POPC   C1B28891   0.278  37.144   8.801
 2147POPC   C2B28892   0.368  37.047   8.408
 2147POPC   C3B28893   0.147  37.026   8.049
 2147POPC   C4B28894   0.288  36.993   7.671
 2148POPC   NC328895  33.124  24.189   9.797
 2148POPC   PO428896  33.406  24.605   9.444
 2148POPC   GL128897  33.238  24.398   9.081
 2148POPC   GL228898  33.111  24.084   9.201
 2148POPC   C1A28899  33.083  24.540   8.692
 2148POPC   D2A28900  33.123  24.912   8.418
 2148POPC   C3A28901  33.194  24.808   7.972
 2148POPC   C4A28902  32.910  24.978   7.627
 2148POPC   C1B28903  33.119  24.023   8.726
 2148POPC   C2B28904  33.094  24.161   8.271
 2148POPC   C3B28905  33.032  24.349   7.861
 2148POPC   C4B28906  32.876  24.224   7.443
 2149POPC   NC328907  40.898  18.028   9.473
 2149POPC   PO428908  40.482  18.478   9.309
 2149POPC   GL128909  40.753  18.232   9.026
 2149POPC   GL228910  41.139  18.254   9.077
 2149POPC   C1A28911  40.906  18.264   8.616
 2149POPC   D2A28912  40.932  18.461   8.235
 2149POPC   C3A28913  40.731  18.225   7.956
 2149POPC   C4A28914  40.822  18.110   7.557
 2149POPC   C1B28915  41.243  17.900   8.780
 2149POPC   C2B28916  41.146  17.874   8.312
 2149POPC   C3B28917  41.214  18.090   7.898
 2149POPC   C4B28918  41.305  18.081   7.414
 2150POPC   NC328919  11.926  38.579   9.617
 2150POPC   PO428920  12.484  38.185   9.601
 2150POPC   GL128921  12.307  38.387   9.192
 2150POPC   GL228922  11.985  38.555   9.134
 2150POPC   C1A28923  12.198  38.259   8.756
 2150POPC   D2A28924  11.873  38.078   8.481
 2150POPC   C3A28925  11.979  38.204   8.069
 2150POPC   C4A28926  12.293  38.057   7.790
 2150POPC   C1B28927  11.734  38.468   8.816
 2150POPC   C2B28928  11.926  38.586   8.436
 2150POPC   C3B28929  11.937  38.741   8.043
 2150POPC   C4B28930  12.165  38.548   7.734
 2151POPC   NC328931  44.975  28.232   9.484
 2151POPC   PO428932  44.538  28.668   9.664
 2151POPC   GL128933  44.568  28.474   9.223
 2151POPC   GL228934  44.904  28.537   9.058
 2151POPC   C1A28935  44.512  28.302   8.784
 2151POPC   D2A28936  44.720  28.285   8.362
 2151POPC   C3A28937  44.415  28.269   8.009
 2151POPC   C4A28938  44.381  28.469   7.593
 2151POPC   C1B28939  44.988  28.129   8.841
 2151POPC   C2B28940   0.135  27.976   8.452
 2151POPC   C3B28941   0.181  28.155   8.039
 2151POPC   C4B28942  44.858  28.400   7.811
 2152POPC   NC328943  42.489  21.091   9.308
 2152POPC   PO428944  42.062  21.587   9.509
 2152POPC   GL128945  42.201  21.555   9.111
 2152POPC   GL228946  42.026  21.890   9.051
 2152POPC   C1A28947  42.379  21.315   8.728
 2152POPC   D2A28948  42.541  21.120   8.344
 2152POPC   C3A28949  42.387  21.214   7.930
 2152POPC   C4A28950  42.048  21.316   7.683
 2152POPC   C1B28951  42.360  21.826   8.728
 2152POPC   C2B28952  42.352  21.619   8.335
 2152POPC   C3B28953  42.207  21.698   7.966
 2152POPC   C4B28954  42.474  21.675   7.647
 2153POPC   NC328955  15.395  41.237   9.455
 2153POPC   PO428956  15.001  41.717   9.515
 2153POPC   GL128957  14.910  41.550   9.138
 2153POPC   GL228958  15.279  41.622   9.095
 2153POPC   C1A28959  14.926  41.392   8.724
 2153POPC   D2A28960  15.160  41.459   8.337
 2153POPC   C3A28961  14.941  41.536   7.938
 2153POPC   C4A28962  15.075  41.707   7.551
 2153POPC   C1B28963  15.508  41.509   8.736
 2153POPC   C2B28964  15.687  41.620   8.340
 2153POPC   C3B28965  15.473  41.639   7.944
 2153POPC   C4B28966  15.421  41.299   7.659
 2154POPC   NC328967  19.226  10.389   9.472
 2154POPC   PO428968  18.948  10.990   9.591
 2154POPC   GL128969  19.088  10.830   9.196
 2154POPC   GL228970  19.348  10.976   9.029
 2154POPC   C1A28971  18.943  10.796   8.762
 2154POPC   D2A28972  18.911  10.831   8.319
 2154POPC   C3A28973  19.067  10.531   8.006
 2154POPC   C4A28974  18.849  10.120   7.898
 2154POPC   C1B28975  19.393  10.568   8.820
 2154POPC   C2B28976  19.427  10.436   8.404
 2154POPC   C3B28977  19.346  10.098   8.124
 2154POPC   C4B28978  19.308  10.183   7.709
 2155POPC   NC328979  36.474  19.291   9.435
 2155POPC   PO428980  35.886  18.966   9.539
 2155POPC   GL128981  35.851  19.074   9.134
 2155POPC   GL228982  36.063  19.363   9.129
 2155POPC   C1A28983  35.849  18.890   8.723
 2155POPC   D2A28984  36.011  18.610   8.412
 2155POPC   C3A28985  35.930  18.786   7.994
 2155POPC   C4A28986  35.839  19.228   7.827
 2155POPC   C1B28987  36.215  19.298   8.712
 2155POPC   C2B28988  36.123  19.174   8.288
 2155POPC   C3B28989  36.343  19.074   7.897
 2155POPC   C4B28990  36.391  19.342   7.562
 2156POPC   NC328991  16.502  17.811   9.487
 2156POPC   PO428992  15.865  17.793   9.648
 2156POPC   GL128993  15.942  17.539   9.212
 2156POPC   GL228994  15.698  17.280   9.121
 2156POPC   C1A28995  16.038  17.422   8.753
 2156POPC   D2A28996  16.188  17.396   8.311
 2156POPC   C3A28997  15.954  17.431   7.912
 2156POPC   C4A28998  15.810  17.175   7.540
 2156POPC   C1B28999  15.544  17.304   8.752
 2156POPC   C2B29000  15.738  17.136   8.389
 2156POPC   C3B29001  15.589  17.102   7.994
 2156POPC   C4B29002  15.330  17.017   7.651
 2157POPC   NC329003  13.546   1.366   9.475
 2157POPC   PO429004  13.038   0.964   9.519
 2157POPC   GL129005  13.362   1.000   9.178
 2157POPC   GL229006  13.714   0.939   9.151
 2157POPC   C1A29007  13.422   1.235   8.814
 2157POPC   D2A29008  13.173   1.222   8.486
 2157POPC   C3A29009  13.319   1.268   8.085
 2157POPC   C4A29010  13.488   1.106   7.711
 2157POPC   C1B29011  13.911   1.112   8.758
 2157POPC   C2B29012  13.810   1.344   8.379
 2157POPC   C3B29013  13.865   1.322   7.941
 2157POPC   C4B29014  13.736   1.552   7.549
 2158POPC   NC329015  32.245  32.352   9.437
 2158POPC   PO429016  32.051  31.698   9.287
 2158POPC   GL129017  32.242  31.831   8.933
 2158POPC   GL229018  32.467  32.070   9.040
 2158POPC   C1A29019  32.242  32.150   8.595
 2158POPC   D2A29020  32.049  32.482   8.366
 2158POPC   C3A29021  31.969  32.283   7.959
 2158POPC   C4A29022  32.159  31.924   7.794
 2158POPC   C1B29023  32.557  32.484   8.881
 2158POPC   C2B29024  32.597  32.522   8.457
 2158POPC   C3B29025  32.456  32.286   8.132
 2158POPC   C4B29026  32.359  32.561   7.856
 2159POPC   NC329027   6.816   0.215   9.520
 2159POPC   PO429028   6.404   0.701   9.633
 2159POPC   GL129029   6.558   0.621   9.183
 2159POPC   GL229030   6.819   0.421   9.047
 2159POPC   C1A29031   6.374   0.365   8.797
 2159POPC   D2A29032   6.199   0.234   8.374
 2159POPC   C3A29033   6.487   0.387   8.043
 2159POPC   C4A29034   6.610   0.312   7.664
 2159POPC   C1B29035   6.879   0.161   8.724
 2159POPC   C2B29036   6.688   0.049   8.363
 2159POPC   C3B29037   6.877  44.995   7.991
 2159POPC   C4B29038   7.103   0.132   7.632
 2160POPC   NC329039  43.649  42.043   9.292
 2160POPC   PO429040  43.610  42.651   9.267
 2160POPC   GL129041  44.058  42.498   9.100
 2160POPC   GL229042  44.156  42.157   9.129
 2160POPC   C1A29043  44.200  42.400   8.687
 2160POPC   D2A29044  43.860  42.262   8.441
 2160POPC   C3A29045  43.801  42.555   8.132
 2160POPC   C4A29046  43.907  42.498   7.735
 2160POPC   C1B29047  44.189  41.875   8.768
 2160POPC   C2B29048  44.338  41.983   8.377
 2160POPC   C3B29049  44.171  42.158   8.012
 2160POPC   C4B29050  44.430  42.418   7.749
 2161POPC   NC329051  31.308   0.792   9.463
 2161POPC   PO429052  31.627   0.230   9.747
 2161POPC   GL129053  31.576   0.358   9.284
 2161POPC   GL229054  31.248   0.403   9.133
 2161POPC   C1A29055  31.633   0.497   8.816
 2161POPC   D2A29056  31.422   0.541   8.394
 2161POPC   C3A29057  31.603   0.395   8.002
 2161POPC   C4A29058  31.737   0.710   7.730
 2161POPC   C1B29059  31.062   0.595   8.755
 2161POPC   C2B29060  30.918   0.580   8.308
 2161POPC   C3B29061  31.074   0.437   7.904
 2161POPC   C4B29062  31.332   0.404   7.526
 2162POPC   NC329063  42.690  18.321   9.829
 2162POPC   PO429064  43.238  18.440   9.553
 2162POPC   GL129065  43.302  18.338   9.154
 2162POPC   GL229066  42.975  18.149   9.150
 2162POPC   C1A29067  43.182  18.350   8.731
 2162POPC   D2A29068  42.903  18.497   8.450
 2162POPC   C3A29069  43.094  18.426   8.071
 2162POPC   C4A29070  43.006  18.444   7.647
 2162POPC   C1B29071  42.874  17.899   8.762
 2162POPC   C2B29072  42.821  18.015   8.299
 2162POPC   C3B29073  42.956  17.963   7.842
 2162POPC   C4B29074  42.701  17.774   7.498
 2163POPC   NC329075  29.001  28.679   9.432
 2163POPC   PO429076  29.379  29.280   9.452
 2163POPC   GL129077  29.145  29.188   9.077
 2163POPC   GL229078  28.804  29.337   8.986
 2163POPC   C1A29079  29.296  29.196   8.655
 2163POPC   D2A29080  29.405  28.945   8.292
 2163POPC   C3A29081  29.309  29.100   7.891
 2163POPC   C4A29082  29.388  29.458   7.650
 2163POPC   C1B29083  28.810  28.983   8.743
 2163POPC   C2B29084  28.880  28.876   8.368
 2163POPC   C3B29085  28.788  29.115   8.063
 2163POPC   C4B29086  28.841  28.982   7.710
 2164POPC   NC329087   8.517  13.714   9.753
 2164POPC   PO429088   7.950  13.349   9.472
 2164POPC   GL129089   7.912  13.466   9.020
 2164POPC   GL229090   8.154  13.753   8.884
 2164POPC   C1A29091   8.069  13.287   8.656
 2164POPC   D2A29092   8.073  13.508   8.294
 2164POPC   C3A29093   8.153  13.357   7.872
 2164POPC   C4A29094   7.999  13.733   7.597
 2164POPC   C1B29095   8.498  13.540   8.637
 2164POPC   C2B29096   8.566  13.502   8.218
 2164POPC   C3B29097   8.357  13.819   7.984
 2164POPC   C4B29098   8.483  13.914   7.607
 2165POPC   NC329099   2.771  12.703   9.449
 2165POPC   PO429100   3.257  13.115   9.342
 2165POPC   GL129101   2.889  12.982   9.027
 2165POPC   GL229102   2.507  12.862   9.066
 2165POPC   C1A29103   2.776  12.768   8.643
 2165POPC   D2A29104   3.017  12.541   8.328
 2165POPC   C3A29105   2.811  12.734   8.065
 2165POPC   C4A29106   2.814  12.806   7.690
 2165POPC   C1B29107   2.361  12.501   8.776
 2165POPC   C2B29108   2.440  12.503   8.313
 2165POPC   C3B29109   2.391  12.588   7.839
 2165POPC   C4B29110   2.500  12.610   7.370
 2166POPC   NC329111  13.120  29.658   9.576
 2166POPC   PO429112  12.867  30.285   9.634
 2166POPC   GL129113  12.821  30.007   9.270
 2166POPC   GL229114  13.173  29.944   9.157
 2166POPC   C1A29115  12.818  30.069   8.813
 2166POPC   D2A29116  13.136  30.092   8.489
 2166POPC   C3A29117  12.980  30.150   8.095
 2166POPC   C4A29118  12.806  30.058   7.697
 2166POPC   C1B29119  13.123  29.677   8.762
 2166POPC   C2B29120  12.906  29.666   8.320
 2166POPC   C3B29121  13.047  29.638   7.880
 2166POPC   C4B29122  13.096  29.726   7.425
 2167POPC   NC329123  27.432   3.453   9.600
 2167POPC   PO429124  28.005   3.697   9.429
 2167POPC   GL129125  27.601   3.679   9.168
 2167POPC   GL229126  27.422   3.343   9.115
 2167POPC   C1A29127  27.517   3.656   8.737
 2167POPC   D2A29128  27.725   3.469   8.402
 2167POPC   C3A29129  27.772   3.684   8.014
 2167POPC   C4A29130  27.595   3.908   7.676
 2167POPC   C1B29131  27.257   3.192   8.746
 2167POPC   C2B29132  27.141   3.346   8.349
 2167POPC   C3B29133  27.238   3.192   7.932
 2167POPC   C4B29134  27.451   3.411   7.628
 2168POPC   NC329135  28.043  15.242   9.648
 2168POPC   PO429136  28.582  15.048   9.564
 2168POPC   GL129137  28.380  15.226   9.208
 2168POPC   GL229138  28.650  15.430   9.036
 2168POPC   C1A29139  28.138  15.283   8.838
 2168POPC   D2A29140  28.220  15.372   8.427
 2168POPC   C3A29141  28.080  15.218   8.025
 2168POPC   C4A29142  28.285  15.513   7.727
 2168POPC   C1B29143  28.608  15.117   8.712
 2168POPC   C2B29144  28.609  15.125   8.231
 2168POPC   C3B29145  28.636  15.054   7.787
 2168POPC   C4B29146  28.726  14.838   7.356
 2169POPC   NC329147   4.261  36.353   9.333
 2169POPC   PO429148   4.467  35.753   9.512
 2169POPC   GL129149   4.372  35.900   9.106
 2169POPC   GL229150   4.037  35.912   9.086
 2169POPC   C1A29151   4.409  36.081   8.703
 2169POPC   D2A29152   4.551  36.049   8.272
 2169POPC   C3A29153   4.613  36.399   8.037
 2169POPC   C4A29154   4.548  36.302   7.622
 2169POPC   C1B29155   3.885  35.943   8.665
 2169POPC   C2B29156   3.941  36.016   8.230
 2169POPC   C3B29157   4.188  36.053   7.855
 2169POPC   C4B29158   4.327  35.803   7.491
 2170POPC   NC329159  37.028  34.836   9.640
 2170POPC   PO429160  36.875  35.488   9.456
 2170POPC   GL129161  36.927  35.326   9.100
 2170POPC   GL229162  36.879  34.994   9.153
 2170POPC   C1A29163  36.782  35.492   8.708
 2170POPC   D2A29164  36.967  35.773   8.443
 2170POPC   C3A29165  37.161  35.559   8.145
 2170POPC   C4A29166  37.287  35.683   7.777
 2170POPC   C1B29167  37.030  35.029   8.712
 2170POPC   C2B29168  36.899  35.131   8.322
 2170POPC   C3B29169  36.707  35.192   7.953
 2170POPC   C4B29170  36.913  35.309   7.641
 2171POPC   NC329171  18.087  36.571   9.536
 2171POPC   PO429172  18.523  37.065   9.641
 2171POPC   GL129173  18.360  36.928   9.242
 2171POPC   GL229174  18.009  37.071   9.256
 2171POPC   C1A29175  18.462  36.659   8.865
 2171POPC   D2A29176  18.273  36.522   8.470
 2171POPC   C3A29177  18.345  36.907   8.220
 2171POPC   C4A29178  18.462  37.158   7.817
 2171POPC   C1B29179  17.988  36.835   8.863
 2171POPC   C2B29180  17.851  36.819   8.433
 2171POPC   C3B29181  17.871  36.909   8.013
 2171POPC   C4B29182  17.975  37.006   7.637
 2172POPC   NC329183  11.653  22.378   9.589
 2172POPC   PO429184  11.098  22.006   9.445
 2172POPC   GL129185  11.212  22.122   9.079
 2172POPC   GL229186  11.522  22.119   9.148
 2172POPC   C1A29187  11.100  21.961   8.665
 2172POPC   D2A29188  11.244  21.868   8.276
 2172POPC   C3A29189  11.013  22.043   7.928
 2172POPC   C4A29190  11.049  21.983   7.508
 2172POPC   C1B29191  11.657  22.176   8.742
 2172POPC   C2B29192  11.595  22.292   8.344
 2172POPC   C3B29193  11.556  22.100   7.959
 2172POPC   C4B29194  11.425  22.276   7.616
 2173POPC   NC329195  34.724  38.705   9.499
 2173POPC   PO429196  34.684  37.983   9.675
 2173POPC   GL129197  34.523  38.309   9.275
 2173POPC   GL229198  34.469  38.647   9.072
 2173POPC   C1A29199  34.589  38.266   8.783
 2173POPC   D2A29200  34.664  38.455   8.405
 2173POPC   C3A29201  34.429  38.319   8.058
 2173POPC   C4A29202  34.560  38.091   7.705
 2173POPC   C1B29203  34.860  38.704   8.830
 2173POPC   C2B29204  34.987  38.850   8.405
 2173POPC   C3B29205  34.837  38.693   7.988
 2173POPC   C4B29206  34.534  38.619   7.672
 2174POPC   NC329207  43.544  34.189   9.912
 2174POPC   PO429208  44.017  33.844   9.507
 2174POPC   GL129209  44.004  33.629   9.122
 2174POPC   GL229210  43.662  33.726   9.122
 2174POPC   C1A29211  44.073  33.721   8.682
 2174POPC   D2A29212  44.166  34.090   8.451
 2174POPC   C3A29213  44.228  34.035   8.045
 2174POPC   C4A29214  44.110  33.797   7.677
 2174POPC   C1B29215  43.636  33.483   8.765
 2174POPC   C2B29216  43.633  33.606   8.360
 2174POPC   C3B29217  43.691  33.542   7.932
 2174POPC   C4B29218  43.636  33.920   7.694
 2175POPC   NC329219  42.113  37.376   9.598
 2175POPC   PO429220  42.674  37.740   9.493
 2175POPC   GL129221  42.303  37.862   9.274
 2175POPC   GL229222  42.429  38.132   9.057
 2175POPC   C1A29223  42.157  37.697   8.870
 2175POPC   D2A29224  42.236  37.375   8.549
 2175POPC   C3A29225  42.078  37.347   8.128
 2175POPC   C4A29226  42.262  37.445   7.744
 2175POPC   C1B29227  42.188  38.161   8.653
 2175POPC   C2B29228  42.042  37.843   8.339
 2175POPC   C3B29229  42.199  37.922   7.916
 2175POPC   C4B29230  42.607  38.127   7.894
 2176POPC   NC329231  29.448  18.943   9.457
 2176POPC   PO429232  28.923  19.393   9.407
 2176POPC   GL129233  29.153  19.234   9.129
 2176POPC   GL229234  29.125  18.872   9.079
 2176POPC   C1A29235  29.195  19.224   8.713
 2176POPC   D2A29236  29.399  19.171   8.347
 2176POPC   C3A29237  29.114  19.245   8.009
 2176POPC   C4A29238  28.852  18.906   7.815
 2176POPC   C1B29239  29.303  18.719   8.704
 2176POPC   C2B29240  29.107  18.768   8.292
 2176POPC   C3B29241  29.335  18.799   7.902
 2176POPC   C4B29242  29.213  18.708   7.485
 2177POPC   NC329243  18.840  14.504   9.345
 2177POPC   PO429244  19.333  14.049   9.518
 2177POPC   GL129245  19.327  14.336   9.153
 2177POPC   GL229246  19.311  14.728   9.140
 2177POPC   C1A29247  19.235  14.231   8.739
 2177POPC   D2A29248  18.843  14.294   8.543
 2177POPC   C3A29249  18.897  14.363   8.100
 2177POPC   C4A29250  19.303  14.332   7.881
 2177POPC   C1B29251  19.108  14.742   8.711
 2177POPC   C2B29252  19.284  14.692   8.277
 2177POPC   C3B29253  19.288  14.871   7.835
 2177POPC   C4B29254  19.243  14.897   7.364
 2178POPC   NC329255  36.809   6.649   9.510
 2178POPC   PO429256  36.281   6.890   9.174
 2178POPC   GL129257  36.590   6.670   9.008
 2178POPC   GL229258  36.972   6.670   9.042
 2178POPC   C1A29259  36.723   6.837   8.636
 2178POPC   D2A29260  36.475   6.897   8.318
 2178POPC   C3A29261  36.620   6.535   8.116
 2178POPC   C4A29262  36.812   6.670   7.749
 2178POPC   C1B29263  37.305   6.470   8.838
 2178POPC   C2B29264  37.475   6.587   8.450
 2178POPC   C3B29265  37.273   6.624   8.062
 2178POPC   C4B29266  37.298   6.585   7.648
 2179POPC   NC329267  28.580  19.690   9.461
 2179POPC   PO429268  27.994  19.863   9.516
 2179POPC   GL129269  28.271  19.947   9.150
 2179POPC   GL229270  28.466  20.218   9.109
 2179POPC   C1A29271  28.485  19.812   8.771
 2179POPC   D2A29272  28.345  19.507   8.451
 2179POPC   C3A29273  28.213  19.649   8.060
 2179POPC   C4A29274  28.487  19.731   7.734
 2179POPC   C1B29275  28.188  20.260   8.747
 2179POPC   C2B29276  28.262  20.110   8.333
 2179POPC   C3B29277  28.246  20.187   7.889
 2179POPC   C4B29278  28.293  20.110   7.416
 2180POPC   NC329279   0.881  23.757   9.462
 2180POPC   PO429280   1.509  23.542   9.586
 2180POPC   GL129281   1.317  23.716   9.215
 2180POPC   GL229282   1.427  24.003   9.075
 2180POPC   C1A29283   1.316  23.617   8.791
 2180POPC   D2A29284   1.433  23.782   8.411
 2180POPC   C3A29285   1.239  23.629   8.054
 2180POPC   C4A29286   1.015  23.661   7.686
 2180POPC   C1B29287   1.045  24.052   8.792
 2180POPC   C2B29288   0.896  24.185   8.362
 2180POPC   C3B29289   1.020  24.106   7.929
 2180POPC   C4B29290   1.417  23.993   7.749
 2181POPC   NC329291  17.424  21.170   9.208
 2181POPC   PO429292  17.507  20.649   9.659
 2181POPC   GL129293  17.410  20.609   9.186
 2181POPC   GL229294  17.098  20.408   9.161
 2181POPC   C1A29295  17.591  20.554   8.757
 2181POPC   D2A29296  17.654  20.275   8.398
 2181POPC   C3A29297  17.535  20.421   7.986
 2181POPC   C4A29298  17.842  20.592   7.799
 2181POPC   C1B29299  17.064  20.673   8.782
 2181POPC   C2B29300  17.213  20.654   8.371
 2181POPC   C3B29301  17.032  20.608   7.985
 2181POPC   C4B29302  17.116  20.395   7.626
 2182POPC   NC329303  12.814  32.732   9.522
 2182POPC   PO429304  12.876  33.368   9.460
 2182POPC   GL129305  12.779  33.117   9.118
 2182POPC   GL229306  13.049  32.891   9.099
 2182POPC   C1A29307  12.846  33.174   8.679
 2182POPC   D2A29308  12.685  33.101   8.275
 2182POPC   C3A29309  12.841  33.130   7.872
 2182POPC   C4A29310  12.514  32.929   7.635
 2182POPC   C1B29311  13.254  32.838   8.729
 2182POPC   C2B29312  13.202  33.031   8.335
 2182POPC   C3B29313  13.272  32.834   7.964
 2182POPC   C4B29314  13.273  32.982   7.577
 2183POPC   NC329315  30.000  14.849   9.435
 2183POPC   PO429316  29.616  14.275   9.459
 2183POPC   GL129317  29.732  14.564   9.101
 2183POPC   GL229318  30.110  14.580   9.025
 2183POPC   C1A29319  29.770  14.442   8.673
 2183POPC   D2A29320  29.777  14.580   8.280
 2183POPC   C3A29321  29.773  14.317   7.955
 2183POPC   C4A29322  29.851  14.375   7.532
 2183POPC   C1B29323  30.299  14.492   8.635
 2183POPC   C2B29324  30.231  14.383   8.207
 2183POPC   C3B29325  30.274  14.525   7.804
 2183POPC   C4B29326  30.383  14.334   7.422
 2184POPC   NC329327  43.556  38.709   9.458
 2184POPC   PO429328  42.860  38.722   9.482
 2184POPC   GL129329  43.008  38.502   9.122
 2184POPC   GL229330  43.358  38.533   9.030
 2184POPC   C1A29331  42.942  38.180   8.818
 2184POPC   D2A29332  43.078  37.978   8.441
 2184POPC   C3A29333  43.066  38.245   8.111
 2184POPC   C4A29334  43.058  38.370   7.725
 2184POPC   C1B29335  43.443  38.264   8.696
 2184POPC   C2B29336  43.510  38.447   8.292
 2184POPC   C3B29337  43.543  38.267   7.886
 2184POPC   C4B29338  43.514  38.337   7.433
 2185POPC   NC329339  26.555  20.828   9.540
 2185POPC   PO429340  27.123  20.664   9.257
 2185POPC   GL129341  26.781  20.739   9.037
 2185POPC   GL229342  26.616  20.426   9.092
 2185POPC   C1A29343  26.897  20.694   8.610
 2185POPC   D2A29344  27.112  20.450   8.319
 2185POPC   C3A29345  26.959  20.577   7.941
 2185POPC   C4A29346  26.851  20.923   7.693
 2185POPC   C1B29347  26.443  20.467   8.673
 2185POPC   C2B29348  26.524  20.688   8.252
 2185POPC   C3B29349  26.477  20.580   7.819
 2185POPC   C4B29350  26.700  20.282   7.574
 2186POPC   NC329351   5.442   1.151   9.500
 2186POPC   PO429352   6.105   1.368   9.618
 2186POPC   GL129353   5.923   1.254   9.222
 2186POPC   GL229354   5.725   0.965   9.139
 2186POPC   C1A29355   5.891   1.309   8.782
 2186POPC   D2A29356   6.062   1.143   8.420
 2186POPC   C3A29357   6.168   1.422   8.070
 2186POPC   C4A29358   5.901   1.502   7.753
 2186POPC   C1B29359   5.527   0.929   8.757
 2186POPC   C2B29360   5.566   1.065   8.364
 2186POPC   C3B29361   5.804   1.048   7.986
 2186POPC   C4B29362   5.501   1.170   7.711
 2187POPC   NC329363   3.938  11.025   9.290
 2187POPC   PO429364   3.556  11.530   9.599
 2187POPC   GL129365   3.522  11.346   9.205
 2187POPC   GL229366   3.427  10.999   9.195
 2187POPC   C1A29367   3.671  11.315   8.783
 2187POPC   D2A29368   3.493  11.444   8.411
 2187POPC   C3A29369   3.683  11.403   8.010
 2187POPC   C4A29370   3.480  11.509   7.612
 2187POPC   C1B29371   3.553  10.808   8.799
 2187POPC   C2B29372   3.660  10.960   8.413
 2187POPC   C3B29373   3.413  10.967   8.092
 2187POPC   C4B29374   3.613  11.007   7.701
 2188POPC   NC329375  34.358  33.999   9.492
 2188POPC   PO429376  34.625  33.437   9.670
 2188POPC   GL129377  34.733  33.703   9.268
 2188POPC   GL229378  34.468  33.879   9.018
 2188POPC   C1A29379  34.923  33.742   8.851
 2188POPC   D2A29380  34.642  33.771   8.492
 2188POPC   C3A29381  34.834  33.760   8.097
 2188POPC   C4A29382  34.694  34.017   7.783
 2188POPC   C1B29383  34.276  34.097   8.645
 2188POPC   C2B29384  34.461  34.203   8.234
 2188POPC   C3B29385  34.307  34.406   7.846
 2188POPC   C4B29386  34.528  34.401   7.470
 2189POPC   NC329387  34.134  14.563   9.881
 2189POPC   PO429388  33.746  14.153   9.514
 2189POPC   GL129389  33.771  14.394   9.159
 2189POPC   GL229390  33.629  14.133   8.982
 2189POPC   C1A29391  33.989  14.425   8.757
 2189POPC   D2A29392  33.768  14.516   8.383
 2189POPC   C3A29393  34.021  14.492   8.055
 2189POPC   C4A29394  34.170  14.595   7.690
 2189POPC   C1B29395  33.436  14.510   8.777
 2189POPC   C2B29396  33.254  14.674   8.364
 2189POPC   C3B29397  33.392  14.609   7.953
 2189POPC   C4B29398  33.645  14.406   7.724
 2190POPC   NC329399  37.558   2.788   9.479
 2190POPC   PO429400  38.164   3.073   9.569
 2190POPC   GL129401  37.830   3.045   9.138
 2190POPC   GL229402  37.723   2.657   9.025
 2190POPC   C1A29403  37.645   2.995   8.678
 2190POPC   D2A29404  37.460   2.647   8.409
 2190POPC   C3A29405  37.642   2.633   8.007
 2190POPC   C4A29406  37.932   2.955   7.908
 2190POPC   C1B29407  37.306   2.441   8.898
 2190POPC   C2B29408  37.157   2.248   8.505
 2190POPC   C3B29409  37.233   2.251   8.059
 2190POPC   C4B29410  37.336   2.401   7.668
 2191POPC   NC329411  40.315   6.027   9.686
 2191POPC   PO429412  40.035   6.677   9.542
 2191POPC   GL129413  40.048   6.511   9.132
 2191POPC   GL229414  39.908   6.822   8.982
 2191POPC   C1A29415  39.929   6.406   8.710
 2191POPC   D2A29416  40.077   6.583   8.343
 2191POPC   C3A29417  39.823   6.710   8.013
 2191POPC   C4A29418  39.816   6.422   7.705
 2191POPC   C1B29419  40.136   7.057   8.683
 2191POPC   C2B29420  40.156   7.095   8.247
 2191POPC   C3B29421  40.309   6.812   7.944
 2191POPC   C4B29422  40.124   6.829   7.542
 2192POPC   NC329423  16.419  14.694   9.503
 2192POPC   PO429424  16.894  14.311   9.426
 2192POPC   GL129425  16.711  14.490   9.082
 2192POPC   GL229426  16.665  14.878   9.110
 2192POPC   C1A29427  16.793  14.315   8.672
 2192POPC   D2A29428  16.761  14.204   8.231
 2192POPC   C3A29429  16.625  14.464   7.921
 2192POPC   C4A29430  16.648  14.467   7.475
 2192POPC   C1B29431  16.884  14.865   8.751
 2192POPC   C2B29432  16.796  14.717   8.365
 2192POPC   C3B29433  16.973  14.816   8.028
 2192POPC   C4B29434  17.068  14.628   7.673
 2193POPC   NC329435   7.249   8.549   9.452
 2193POPC   PO429436   7.596   9.037   9.640
 2193POPC   GL129437   7.489   9.006   9.189
 2193POPC   GL229438   7.607   8.696   9.073
 2193POPC   C1A29439   7.577   9.061   8.719
 2193POPC   D2A29440   7.561   8.810   8.354
 2193POPC   C3A29441   7.467   8.972   7.942
 2193POPC   C4A29442   7.607   9.101   7.520
 2193POPC   C1B29443   7.238   8.652   8.763
 2193POPC   C2B29444   7.057   8.727   8.326
 2193POPC   C3B29445   7.192   8.523   7.932
 2193POPC   C4B29446   7.398   8.584   7.559
 2194POPC   NC329447  14.618  28.117   9.690
 2194POPC   PO429448  14.201  28.611   9.672
 2194POPC   GL129449  14.389  28.487   9.285
 2194POPC   GL229450  14.734  28.432   9.294
 2194POPC   C1A29451  14.367  28.544   8.850
 2194POPC   D2A29452  14.419  28.367   8.456
 2194POPC   C3A29453  14.212  28.517   8.108
 2194POPC   C4A29454  14.295  28.253   7.791
 2194POPC   C1B29455  14.875  28.647   8.940
 2194POPC   C2B29456  14.785  28.727   8.522
 2194POPC   C3B29457  14.817  28.506   8.145
 2194POPC   C4B29458  14.672  28.608   7.751
 2195POPC   NC329459  14.447  18.810   9.211
 2195POPC   PO429460  14.179  19.427   9.501
 2195POPC   GL129461  14.227  19.278   9.111
 2195POPC   GL229462  14.555  19.329   9.142
 2195POPC   C1A29463  14.400  19.134   8.674
 2195POPC   D2A29464  14.636  19.088   8.313
 2195POPC   C3A29465  14.363  18.918   8.036
 2195POPC   C4A29466  14.003  18.707   7.891
 2195POPC   C1B29467  14.635  19.558   8.784
 2195POPC   C2B29468  14.898  19.508   8.426
 2195POPC   C3B29469  14.733  19.502   8.011
 2195POPC   C4B29470  14.853  19.247   7.664
 2196POPC   NC329471  28.167  10.041   9.588
 2196POPC   PO429472  28.317   9.463   9.397
 2196POPC   GL129473  28.256   9.680   9.079
 2196POPC   GL229474  28.441   9.954   9.152
 2196POPC   C1A29475  28.160   9.564   8.665
 2196POPC   D2A29476  28.327   9.790   8.357
 2196POPC   C3A29477  28.319   9.568   8.019
 2196POPC   C4A29478  28.447   9.427   7.647
 2196POPC   C1B29479  28.395  10.179   8.756
 2196POPC   C2B29480  28.489  10.302   8.355
 2196POPC   C3B29481  28.393  10.133   7.973
 2196POPC   C4B29482  28.374   9.951   7.586
 2197POPC   NC329483  38.174  36.600   9.186
 2197POPC   PO429484  38.217  37.212   9.515
 2197POPC   GL129485  38.435  37.051   9.165
 2197POPC   GL229486  38.710  36.874   9.323
 2197POPC   C1A29487  38.458  36.944   8.712
 2197POPC   D2A29488  38.394  36.535   8.494
 2197POPC   C3A29489  38.391  36.586   8.048
 2197POPC   C4A29490  38.462  37.022   7.876
 2197POPC   C1B29491  38.922  37.085   8.981
 2197POPC   C2B29492  38.942  37.011   8.547
 2197POPC   C3B29493  38.753  37.258   8.247
 2197POPC   C4B29494  38.796  37.422   7.849
 2198POPC   NC329495  39.747  37.088   9.354
 2198POPC   PO429496  39.162  36.913   9.647
 2198POPC   GL129497  39.303  36.828   9.242
 2198POPC   GL229498  39.434  36.507   9.293
 2198POPC   C1A29499  39.397  36.973   8.818
 2198POPC   D2A29500  39.385  37.224   8.448
 2198POPC   C3A29501  39.223  37.032   8.070
 2198POPC   C4A29502  39.480  36.939   7.694
 2198POPC   C1B29503  39.502  36.472   8.845
 2198POPC   C2B29504  39.379  36.653   8.434
 2198POPC   C3B29505  39.347  36.532   8.033
 2198POPC   C4B29506  39.625  36.429   7.732
 2199POPC   NC329507  17.101   4.427   9.681
 2199POPC   PO429508  17.725   4.516   9.414
 2199POPC   GL129509  17.470   4.516   9.072
 2199POPC   GL229510  17.109   4.621   9.163
 2199POPC   C1A29511  17.602   4.497   8.623
 2199POPC   D2A29512  17.684   4.668   8.204
 2199POPC   C3A29513  17.797   4.398   7.871
 2199POPC   C4A29514  17.818   4.463   7.399
 2199POPC   C1B29515  17.113   4.354   8.765
 2199POPC   C2B29516  17.226   4.213   8.384
 2199POPC   C3B29517  17.181   4.378   7.994
 2199POPC   C4B29518  17.326   4.223   7.639
 2200POPC   NC329519  44.554  20.457   9.812
 2200POPC   PO429520   0.123  20.824   9.766
 2200POPC   GL129521  44.769  20.785   9.432
 2200POPC   GL229522  44.984  20.934   9.182
 2200POPC   C1A29523  44.641  20.626   8.981
 2200POPC   D2A29524  44.900  20.473   8.621
 2200POPC   C3A29525  44.740  20.368   8.176
 2200POPC   C4A29526  44.437  20.582   7.891
 2200POPC   C1B29527  44.854  21.017   8.747
 2200POPC   C2B29528  44.770  20.872   8.310
 2200POPC   C3B29529  44.914  20.765   7.889
 2200POPC   C4B29530  44.843  20.401   7.595
 2201POPC   NC329531   4.475  44.977   9.530
 2201POPC   PO429532   4.058  44.461   9.549
 2201POPC   GL129533   4.216  44.667   9.203
 2201POPC   GL229534   4.192   0.033   9.092
 2201POPC   C1A29535   4.263  44.591   8.796
 2201POPC   D2A29536   4.073  44.790   8.461
 2201POPC   C3A29537   4.060  44.582   8.075
 2201POPC   C4A29538   4.344  44.669   7.725
 2201POPC   C1B29539   4.623  44.927   8.873
 2201POPC   C2B29540   4.673  44.754   8.430
 2201POPC   C3B29541   4.777  44.906   8.001
 2201POPC   C4B29542   4.702  44.981   7.544
 2202POPC   NC329543  42.747  24.049   9.543
 2202POPC   PO429544  43.456  23.792   9.550
 2202POPC   GL129545  43.300  23.778   9.124
 2202POPC   GL229546  42.958  23.860   9.121
 2202POPC   C1A29547  43.138  23.567   8.736
 2202POPC   D2A29548  43.134  23.712   8.294
 2202POPC   C3A29549  43.177  23.555   7.892
 2202POPC   C4A29550  43.193  23.780   7.489
 2202POPC   C1B29551  42.673  24.064   8.827
 2202POPC   C2B29552  42.687  23.907   8.417
 2202POPC   C3B29553  42.677  23.554   8.096
 2202POPC   C4B29554  42.731  23.544   7.623
 2203POPC   NC329555  15.037  21.178   9.401
 2203POPC   PO429556  15.289  21.750   9.448
 2203POPC   GL129557  15.326  21.531   9.080
 2203POPC   GL229558  15.461  21.210   9.073
 2203POPC   C1A29559  15.025  21.382   8.778
 2203POPC   D2A29560  14.940  21.608   8.408
 2203POPC   C3A29561  14.737  21.526   8.029
 2203POPC   C4A29562  15.023  21.642   7.671
 2203POPC   C1B29563  15.381  20.981   8.710
 2203POPC   C2B29564  15.080  21.052   8.379
 2203POPC   C3B29565  15.179  21.239   7.996
 2203POPC   C4B29566  15.527  21.137   7.741
 2204POPC   NC329567  16.956  28.862   9.732
 2204POPC   PO429568  17.474  28.860   9.374
 2204POPC   GL129569  17.532  29.180   9.115
 2204POPC   GL229570  17.327  29.442   9.251
 2204POPC   C1A29571  17.512  29.103   8.692
 2204POPC   D2A29572  17.643  28.883   8.358
 2204POPC   C3A29573  17.590  29.170   8.027
 2204POPC   C4A29574  17.367  29.043   7.681
 2204POPC   C1B29575  17.284  29.532   8.827
 2204POPC   C2B29576  17.296  29.487   8.394
 2204POPC   C3B29577  17.257  29.601   7.971
 2204POPC   C4B29578  17.271  29.533   7.526
 2205POPC   NC329579  40.578  34.737   9.565
 2205POPC   PO429580  41.093  34.312   9.454
 2205POPC   GL129581  40.868  34.566   9.155
 2205POPC   GL229582  40.538  34.432   9.162
 2205POPC   C1A29583  40.863  34.489   8.722
 2205POPC   D2A29584  41.166  34.373   8.396
 2205POPC   C3A29585  41.027  34.411   7.958
 2205POPC   C4A29586  40.761  34.257   7.639
 2205POPC   C1B29587  40.462  34.782   8.868
 2205POPC   C2B29588  40.457  34.706   8.431
 2205POPC   C3B29589  40.536  34.614   7.975
 2205POPC   C4B29590  40.256  34.374   7.700
 2206POPC   NC329591  37.914  14.612   9.388
 2206POPC   PO429592  37.657  14.098   9.669
 2206POPC   GL129593  37.635  14.251   9.166
 2206POPC   GL229594  37.560  14.628   9.029
 2206POPC   C1A29595  37.703  14.259   8.713
 2206POPC   D2A29596  37.423  14.228   8.358
 2206POPC   C3A29597  37.644  14.202   7.965
 2206POPC   C4A29598  37.900  14.137   7.600
 2206POPC   C1B29599  37.813  14.762   8.700
 2206POPC   C2B29600  37.804  14.585   8.305
 2206POPC   C3B29601  37.773  14.711   7.906
 2206POPC   C4B29602  37.669  14.717   7.512
 2207POPC   NC329603  14.992  13.165   9.886
 2207POPC   PO429604  15.404  13.593   9.474
 2207POPC   GL129605  15.289  13.506   9.088
 2207POPC   GL229606  15.018  13.709   9.137
 2207POPC   C1A29607  15.098  13.456   8.695
 2207POPC   D2A29608  15.162  13.631   8.306
 2207POPC   C3A29609  15.048  13.390   7.994
 2207POPC   C4A29610  15.416  13.392   7.804
 2207POPC   C1B29611  14.930  14.047   8.894
 2207POPC   C2B29612  14.964  14.070   8.465
 2207POPC   C3B29613  15.032  14.094   8.054
 2207POPC   C4B29614  15.021  13.818   7.722
 2208POPC   NC329615  37.974  36.831   9.681
 2208POPC   PO429616  37.464  37.157   9.434
 2208POPC   GL129617  37.803  37.024   9.111
 2208POPC   GL229618  37.553  36.811   8.967
 2208POPC   C1A29619  37.937  36.808   8.650
 2208POPC   D2A29620  37.734  36.801   8.249
 2208POPC   C3A29621  37.975  36.827   7.841
 2208POPC   C4A29622  38.082  36.617   7.414
 2208POPC   C1B29623  37.567  37.155   8.665
 2208POPC   C2B29624  37.655  37.362   8.274
 2208POPC   C3B29625  37.567  37.179   7.864
 2208POPC   C4B29626  37.449  36.758   7.833
 2209POPC   NC329627   7.697  31.351   9.532
 2209POPC   PO429628   7.561  31.987   9.561
 2209POPC   GL129629   7.453  31.704   9.158
 2209POPC   GL229630   7.458  31.320   9.069
 2209POPC   C1A29631   7.555  31.663   8.700
 2209POPC   D2A29632   7.406  31.875   8.317
 2209POPC   C3A29633   7.654  31.803   7.955
 2209POPC   C4A29634   7.593  31.748   7.531
 2209POPC   C1B29635   7.161  31.334   8.715
 2209POPC   C2B29636   7.330  31.222   8.298
 2209POPC   C3B29637   7.422  31.354   7.864
 2209POPC   C4B29638   7.129  31.498   7.538
 2210POPC   NC329639  25.940  35.743   9.273
 2210POPC   PO429640  26.090  35.041   9.565
 2210POPC   GL129641  25.968  35.225   9.185
 2210POPC   GL229642  26.314  35.375   9.173
 2210POPC   C1A29643  25.849  35.046   8.770
 2210POPC   D2A29644  25.806  35.266   8.382
 2210POPC   C3A29645  25.885  35.079   7.984
 2210POPC   C4A29646  25.871  35.211   7.526
 2210POPC   C1B29647  26.224  35.405   8.733
 2210POPC   C2B29648  26.263  35.451   8.306
 2210POPC   C3B29649  26.016  35.576   7.959
 2210POPC   C4B29650  26.319  35.358   7.736
 2211POPC   NC329651  21.016  44.458   9.416
 2211POPC   PO429652  21.548  44.877   9.499
 2211POPC   GL129653  21.366  44.699   9.137
 2211POPC   GL229654  21.035  44.832   9.067
 2211POPC   C1A29655  21.373  44.433   8.763
 2211POPC   D2A29656  21.613  44.470   8.370
 2211POPC   C3A29657  21.374  44.491   8.010
 2211POPC   C4A29658  21.437  44.385   7.595
 2211POPC   C1B29659  21.187  44.940   8.711
 2211POPC   C2B29660  21.152  44.759   8.376
 2211POPC   C3B29661  21.208  44.999   8.040
 2211POPC   C4B29662  21.328  44.887   7.689
 2212POPC   NC329663  21.964  16.489   9.516
 2212POPC   PO429664  22.077  17.101   9.465
 2212POPC   GL129665  22.276  16.877   9.138
 2212POPC   GL229666  22.361  16.499   9.196
 2212POPC   C1A29667  22.151  17.006   8.727
 2212POPC   D2A29668  22.227  17.053   8.288
 2212POPC   C3A29669  22.094  16.945   7.885
 2212POPC   C4A29670  22.327  16.976   7.537
 2212POPC   C1B29671  22.052  16.508   8.859
 2212POPC   C2B29672  21.920  16.665   8.428
 2212POPC   C3B29673  22.006  16.473   8.015
 2212POPC   C4B29674  22.143  16.513   7.582
 2213POPC   NC329675   6.831  10.047   9.449
 2213POPC   PO429676   6.355  10.516   9.460
 2213POPC   GL129677   6.568  10.358   9.142
 2213POPC   GL229678   6.866  10.555   9.016
 2213POPC   C1A29679   6.499  10.376   8.740
 2213POPC   D2A29680   6.804  10.528   8.469
 2213POPC   C3A29681   6.650  10.509   8.064
 2213POPC   C4A29682   6.362  10.516   7.720
 2213POPC   C1B29683   6.920  10.118   8.822
 2213POPC   C2B29684   6.994  10.056   8.404
 2213POPC   C3B29685   6.925  10.100   7.980
 2213POPC   C4B29686   6.972  10.435   7.679
 2214POPC   NC329687   1.832  33.683   9.557
 2214POPC   PO429688   2.404  33.998   9.361
 2214POPC   GL129689   2.141  33.709   9.120
 2214POPC   GL229690   1.889  33.895   9.077
 2214POPC   C1A29691   2.100  33.656   8.680
 2214POPC   D2A29692   2.123  33.855   8.297
 2214POPC   C3A29693   2.082  33.568   8.000
 2214POPC   C4A29694   1.762  33.366   7.776
 2214POPC   C1B29695   1.908  34.125   8.699
 2214POPC   C2B29696   1.663  34.073   8.358
 2214POPC   C3B29697   1.712  33.963   7.924
 2214POPC   C4B29698   1.721  34.226   7.540
 2215POPC   NC329699  23.655   2.144   9.455
 2215POPC   PO429700  23.234   1.615   9.493
 2215POPC   GL129701  23.618   1.743   9.151
 2215POPC   GL229702  23.890   2.077   9.020
 2215POPC   C1A29703  23.603   1.834   8.709
 2215POPC   D2A29704  23.789   2.069   8.395
 2215POPC   C3A29705  23.561   2.082   8.051
 2215POPC   C4A29706  23.682   2.165   7.683
 2215POPC   C1B29707  24.207   2.042   8.686
 2215POPC   C2B29708  24.259   1.903   8.244
 2215POPC   C3B29709  23.977   1.798   7.866
 2215POPC   C4B29710  24.010   1.939   7.379
 2216POPC   NC329711  14.908   4.868   9.403
 2216POPC   PO429712  15.490   4.954   9.485
 2216POPC   GL129713  15.338   5.253   9.162
 2216POPC   GL229714  14.978   5.286   9.078
 2216POPC   C1A29715  15.347   5.113   8.731
 2216POPC   D2A29716  15.396   4.880   8.336
 2216POPC   C3A29717  15.465   5.127   8.006
 2216POPC   C4A29718  15.298   5.187   7.603
 2216POPC   C1B29719  14.840   5.114   8.690
 2216POPC   C2B29720  14.828   4.903   8.297
 2216POPC   C3B29721  14.868   4.888   7.854
 2216POPC   C4B29722  14.905   4.939   7.412
 2217POPC   NC329723  41.534   3.800   9.421
 2217POPC   PO429724  41.388   3.096   9.441
 2217POPC   GL129725  41.544   3.268   9.055
 2217POPC   GL229726  41.769   3.546   9.060
 2217POPC   C1A29727  41.325   3.490   8.727
 2217POPC   D2A29728  41.181   3.316   8.342
 2217POPC   C3A29729  41.321   3.526   7.965
 2217POPC   C4A29730  41.387   3.384   7.555
 2217POPC   C1B29731  41.766   3.733   8.663
 2217POPC   C2B29732  41.788   3.486   8.299
 2217POPC   C3B29733  41.786   3.340   7.890
 2217POPC   C4B29734  41.946   3.655   7.673
 2218POPC   NC329735   3.413  22.517   9.387
 2218POPC   PO429736   2.933  22.183   9.773
 2218POPC   GL129737   2.846  22.209   9.256
 2218POPC   GL229738   2.791  21.913   9.085
 2218POPC   C1A29739   2.899  22.339   8.809
 2218POPC   D2A29740   2.758  22.255   8.377
 2218POPC   C3A29741   2.843  22.453   7.990
 2218POPC   C4A29742   2.727  22.397   7.582
 2218POPC   C1B29743   2.614  21.865   8.681
 2218POPC   C2B29744   2.888  21.754   8.325
 2218POPC   C3B29745   3.030  21.950   7.952
 2218POPC   C4B29746   2.638  21.944   7.788
 2219POPC   NC329747  39.731  29.117   9.338
 2219POPC   PO429748  40.170  29.125   9.865
 2219POPC   GL129749  40.230  29.210   9.377
 2219POPC   GL229750  40.352  28.912   9.186
 2219POPC   C1A29751  40.156  29.418   8.951
 2219POPC   D2A29752  39.993  29.156   8.618
 2219POPC   C3A29753  39.850  29.274   8.180
 2219POPC   C4A29754  40.116  29.330   7.813
 2219POPC   C1B29755  40.215  28.711   8.791
 2219POPC   C2B29756  40.033  28.712   8.382
 2219POPC   C3B29757  40.167  28.880   8.063
 2219POPC   C4B29758  40.124  28.806   7.684
 2220POPC   NC329759  32.145   2.928   9.583
 2220POPC   PO429760  32.655   2.521   9.370
 2220POPC   GL129761  32.301   2.676   9.125
 2220POPC   GL229762  31.989   2.556   9.225
 2220POPC   C1A29763  32.227   2.935   8.756
 2220POPC   D2A29764  32.262   2.698   8.374
 2220POPC   C3A29765  32.397   2.803   7.987
 2220POPC   C4A29766  32.152   3.115   7.817
 2220POPC   C1B29767  31.849   2.557   8.800
 2220POPC   C2B29768  31.861   2.398   8.392
 2220POPC   C3B29769  31.965   2.512   7.960
 2220POPC   C4B29770  31.759   2.616   7.549
 2221POPC   NC329771  41.496  32.541   9.337
 2221POPC   PO429772  41.750  32.052   9.722
 2221POPC   GL129773  41.798  32.125   9.276
 2221POPC   GL229774  42.026  31.898   9.238
 2221POPC   C1A29775  41.872  32.293   8.834
 2221POPC   D2A29776  42.093  32.477   8.467
 2221POPC   C3A29777  41.784  32.508   8.143
 2221POPC   C4A29778  41.391  32.386   7.974
 2221POPC   C1B29779  41.880  31.763   8.851
 2221POPC   C2B29780  41.647  31.673   8.472
 2221POPC   C3B29781  41.403  31.878   8.164
 2221POPC   C4B29782  41.545  31.896   7.768
 2222POPC   NC329783  18.429   0.539   9.520
 2222POPC   PO429784  17.819   0.449   9.362
 2222POPC   GL129785  18.137   0.324   9.120
 2222POPC   GL229786  18.196   0.670   9.096
 2222POPC   C1A29787  18.286   0.315   8.702
 2222POPC   D2A29788  18.105   0.430   8.323
 2222POPC   C3A29789  18.234   0.326   7.934
 2222POPC   C4A29790  18.521   0.010   7.802
 2222POPC   C1B29791  18.395   0.802   8.740
 2222POPC   C2B29792  18.552   0.749   8.345
 2222POPC   C3B29793  18.391   0.881   7.969
 2222POPC   C4B29794  18.269   0.690   7.583
 2223POPC   NC329795  34.703   2.598   9.792
 2223POPC   PO429796  34.680   1.999   9.544
 2223POPC   GL129797  34.748   2.074   9.132
 2223POPC   GL229798  35.037   1.891   9.066
 2223POPC   C1A29799  34.475   1.936   8.782
 2223POPC   D2A29800  34.333   1.706   8.401
 2223POPC   C3A29801  34.442   1.844   8.002
 2223POPC   C4A29802  34.612   2.232   7.832
 2223POPC   C1B29803  34.964   2.010   8.644
 2223POPC   C2B29804  34.914   1.885   8.218
 2223POPC   C3B29805  34.941   1.837   7.766
 2223POPC   C4B29806  34.973   1.725   7.315
 2224POPC   NC329807   9.831  29.595   9.483
 2224POPC   PO429808   9.480  29.067   9.655
 2224POPC   GL129809   9.634  29.000   9.262
 2224POPC   GL229810   9.954  28.829   9.288
 2224POPC   C1A29811   9.552  29.002   8.803
 2224POPC   D2A29812   9.676  29.310   8.479
 2224POPC   C3A29813   9.627  29.141   8.079
 2224POPC   C4A29814   9.471  29.354   7.698
 2224POPC   C1B29815   9.997  29.165   8.944
 2224POPC   C2B29816  10.172  29.313   8.581
 2224POPC   C3B29817  10.128  29.302   8.122
 2224POPC   C4B29818   9.959  29.218   7.702
 2225POPC   NC329819  33.946   0.771   9.521
 2225POPC   PO429820  33.889   1.475   9.518
 2225POPC   GL129821  33.876   1.368   9.137
 2225POPC   GL229822  34.204   1.211   9.168
 2225POPC   C1A29823  33.927   1.472   8.711
 2225POPC   D2A29824  33.715   1.467   8.322
 2225POPC   C3A29825  34.054   1.427   8.057
 2225POPC   C4A29826  34.127   1.582   7.687
 2225POPC   C1B29827  33.995   0.976   8.856
 2225POPC   C2B29828  33.840   0.998   8.466
 2225POPC   C3B29829  33.917   0.940   8.091
 2225POPC   C4B29830  33.733   0.974   7.718
 2226POPC   NC329831  27.474  11.555   9.752
 2226POPC   PO429832  27.829  11.079   9.462
 2226POPC   GL129833  27.702  11.230   9.071
 2226POPC   GL229834  27.411  11.126   8.915
 2226POPC   C1A29835  27.677  11.484   8.679
 2226POPC   D2A29836  27.388  11.369   8.369
 2226POPC   C3A29837  27.307  11.634   7.984
 2226POPC   C4A29838  27.681  11.672   7.694
 2226POPC   C1B29839  27.718  10.938   8.645
 2226POPC   C2B29840  27.755  10.950   8.210
 2226POPC   C3B29841  27.578  11.212   7.885
 2226POPC   C4B29842  27.297  11.364   7.550
 2227POPC   NC329843   6.284  35.090   9.840
 2227POPC   PO429844   6.723  35.428   9.383
 2227POPC   GL129845   6.518  35.691   9.110
 2227POPC   GL229846   6.854  35.831   9.085
 2227POPC   C1A29847   6.320  35.617   8.756
 2227POPC   D2A29848   6.383  35.294   8.454
 2227POPC   C3A29849   6.443  35.448   8.043
 2227POPC   C4A29850   6.651  35.208   7.720
 2227POPC   C1B29851   6.838  35.551   8.706
 2227POPC   C2B29852   6.853  35.695   8.261
 2227POPC   C3B29853   6.950  35.608   7.809
 2227POPC   C4B29854   7.034  35.389   7.403
 2228POPC   NC329855  16.030  35.493   9.540
 2228POPC   PO429856  15.986  34.842   9.509
 2228POPC   GL129857  15.973  35.017   9.061
 2228POPC   GL229858  15.906  35.340   9.074
 2228POPC   C1A29859  16.039  35.068   8.591
 2228POPC   D2A29860  16.302  35.329   8.281
 2228POPC   C3A29861  16.199  35.220   7.842
 2228POPC   C4A29862  15.728  35.223   7.757
 2228POPC   C1B29863  16.100  35.539   8.764
 2228POPC   C2B29864  15.861  35.533   8.374
 2228POPC   C3B29865  15.953  35.646   7.950
 2228POPC   C4B29866  16.048  35.576   7.471
 2229POPC   NC329867  35.684  32.334   9.334
 2229POPC   PO429868  36.319  32.286   9.516
 2229POPC   GL129869  36.147  32.181   9.119
 2229POPC   GL229870  36.476  32.127   9.001
 2229POPC   C1A29871  36.079  32.074   8.678
 2229POPC   D2A29872  36.423  32.024   8.386
 2229POPC   C3A29873  36.210  31.875   8.051
 2229POPC   C4A29874  35.949  31.821   7.695
 2229POPC   C1B29875  36.385  32.472   8.703
 2229POPC   C2B29876  36.156  32.481   8.334
 2229POPC   C3B29877  35.967  32.322   7.978
 2229POPC   C4B29878  36.292  32.250   7.709
 2230POPC   NC329879   6.535  20.160   9.528
 2230POPC   PO429880   6.691  19.417   9.454
 2230POPC   GL129881   6.749  19.758   9.129
 2230POPC   GL229882   6.461  19.978   9.065
 2230POPC   C1A29883   6.697  19.793   8.668
 2230POPC   D2A29884   6.442  19.671   8.311
 2230POPC   C3A29885   6.586  19.837   7.944
 2230POPC   C4A29886   6.749  19.746   7.544
 2230POPC   C1B29887   6.176  20.172   8.758
 2230POPC   C2B29888   6.039  20.051   8.354
 2230POPC   C3B29889   6.171  20.121   7.968
 2230POPC   C4B29890   6.385  20.168   7.569
 2231POPC   NC329891  14.049  12.902   9.684
 2231POPC   PO429892  13.629  12.296   9.521
 2231POPC   GL129893  13.435  12.167   9.118
 2231POPC   GL229894  13.774  12.081   9.070
 2231POPC   C1A29895  13.539  12.039   8.643
 2231POPC   D2A29896  13.336  11.983   8.239
 2231POPC   C3A29897  13.531  11.940   7.868
 2231POPC   C4A29898  13.727  12.033   7.449
 2231POPC   C1B29899  13.939  12.365   8.772
 2231POPC   C2B29900  14.042  12.446   8.334
 2231POPC   C3B29901  13.877  12.328   7.918
 2231POPC   C4B29902  14.078  12.361   7.547
 2232POPC   NC329903   2.408  35.151   9.398
 2232POPC   PO429904   1.955  35.714   9.465
 2232POPC   GL129905   2.104  35.440   9.114
 2232POPC   GL229906   1.861  35.169   8.984
 2232POPC   C1A29907   2.054  35.538   8.692
 2232POPC   D2A29908   1.860  35.296   8.362
 2232POPC   C3A29909   2.030  35.452   7.970
 2232POPC   C4A29910   1.861  35.455   7.549
 2232POPC   C1B29911   2.229  35.013   8.764
 2232POPC   C2B29912   2.330  34.806   8.405
 2232POPC   C3B29913   2.087  34.933   8.069
 2232POPC   C4B29914   2.158  35.069   7.665
 2233POPC   NC329915  31.138   7.180   9.576
 2233POPC   PO429916  31.645   7.649   9.415
 2233POPC   GL129917  31.552   7.332   9.135
 2233POPC   GL229918  31.196   7.376   9.120
 2233POPC   C1A29919  31.792   7.271   8.747
 2233POPC   D2A29920  31.741   7.509   8.370
 2233POPC   C3A29921  31.684   7.311   7.960
 2233POPC   C4A29922  31.653   7.552   7.567
 2233POPC   C1B29923  31.288   7.397   8.697
 2233POPC   C2B29924  31.244   7.382   8.281
 2233POPC   C3B29925  31.257   7.598   7.922
 2233POPC   C4B29926  31.130   7.255   7.746
 2234POPC   NC329927   2.183  32.770   9.604
 2234POPC   PO429928   1.746  33.246   9.393
 2234POPC   GL129929   2.159  33.135   9.213
 2234POPC   GL229930   2.263  32.770   9.108
 2234POPC   C1A29931   2.193  33.176   8.792
 2234POPC   D2A29932   1.792  33.262   8.573
 2234POPC   C3A29933   1.827  33.089   8.189
 2234POPC   C4A29934   2.218  33.081   7.917
 2234POPC   C1B29935   1.925  32.730   8.786
 2234POPC   C2B29936   1.844  32.575   8.349
 2234POPC   C3B29937   1.884  32.669   7.902
 2234POPC   C4B29938   1.757  32.515   7.534
 2235POPC   NC329939  36.731  10.592   9.608
 2235POPC   PO429940  37.303  10.159   9.638
 2235POPC   GL129941  37.009  10.201   9.275
 2235POPC   GL229942  36.978  10.541   9.165
 2235POPC   C1A29943  36.796  10.220   8.845
 2235POPC   D2A29944  36.860  10.531   8.517
 2235POPC   C3A29945  36.846  10.333   8.133
 2235POPC   C4A29946  36.748  10.272   7.708
 2235POPC   C1B29947  37.211  10.787   8.876
 2235POPC   C2B29948  37.186  10.971   8.452
 2235POPC   C3B29949  37.141  10.767   8.061
 2235POPC   C4B29950  36.929  10.734   7.667
 2236POPC   NC329951  13.998  22.928   9.592
 2236POPC   PO429952  13.444  22.609   9.646
 2236POPC   GL129953  13.672  22.713   9.223
 2236POPC   GL229954  13.788  23.070   9.054
 2236POPC   C1A29955  13.504  22.730   8.791
 2236POPC   D2A29956  13.306  22.943   8.448
 2236POPC   C3A29957  13.476  22.949   8.047
 2236POPC   C4A29958  13.430  22.742   7.644
 2236POPC   C1B29959  14.001  23.416   8.794
 2236POPC   C2B29960  14.145  23.434   8.368
 2236POPC   C3B29961  13.821  23.381   8.041
 2236POPC   C4B29962  13.832  23.080   7.712
 2237POPC   NC329963  43.735  43.625   9.573
 2237POPC   PO429964  44.057  44.212   9.613
 2237POPC   GL129965  43.806  44.037   9.244
 2237POPC   GL229966  44.066  43.837   9.126
 2237POPC   C1A29967  43.625  43.932   8.806
 2237POPC   D2A29968  43.778  44.016   8.367
 2237POPC   C3A29969  43.625  43.717   8.075
 2237POPC   C4A29970  43.793  43.493   7.755
 2237POPC   C1B29971  44.152  43.994   8.733
 2237POPC   C2B29972  44.220  43.693   8.397
 2237POPC   C3B29973  44.169  43.788   7.975
 2237POPC   C4B29974  44.323  44.046   7.673
 2238POPC   NC329975  41.501  28.182   9.348
 2238POPC   PO429976  41.825  28.797   9.402
 2238POPC   GL129977  41.683  28.574   9.056
 2238POPC   GL229978  41.897  28.276   9.063
 2238POPC   C1A29979  41.388  28.457   8.718
 2238POPC   D2A29980  41.227  28.700   8.349
 2238POPC   C3A29981  41.324  28.503   7.942
 2238POPC   C4A29982  41.406  28.139   7.655
 2238POPC   C1B29983  41.905  28.354   8.644
 2238POPC   C2B29984  41.708  28.306   8.259
 2238POPC   C3B29985  41.865  28.365   7.832
 2238POPC   C4B29986  41.865  28.454   7.406
 2239POPC   NC329987  40.309  41.692   9.580
 2239POPC   PO429988  39.711  41.474   9.393
 2239POPC   GL129989  39.959  41.751   9.156
 2239POPC   GL229990  40.257  41.638   9.078
 2239POPC   C1A29991  39.971  41.959   8.742
 2239POPC   D2A29992  39.673  42.041   8.399
 2239POPC   C3A29993  39.666  41.842   7.981
 2239POPC   C4A29994  40.030  41.952   7.750
 2239POPC   C1B29995  40.109  41.478   8.671
 2239POPC   C2B29996  40.028  41.652   8.279
 2239POPC   C3B29997  39.991  41.451   7.907
 2239POPC   C4B29998  39.690  41.247   7.690
 2240POPC   NC329999   0.291  23.323   9.645
 2240POPC   PO430000   0.463  23.965   9.410
 2240POPC   GL130001   0.471  23.717   9.047
 2240POPC   GL230002   0.747  23.467   9.087
 2240POPC   C1A30003   0.435  23.758   8.593
 2240POPC   D2A30004   0.152  23.639   8.234
 2240POPC   C3A30005   0.279  23.840   7.891
 2240POPC   C4A30006   0.618  23.940   7.571
 2240POPC   C1B30007   0.884  23.346   8.734
 2240POPC   C2B30008   0.920  23.671   8.453
 2240POPC   C3B30009   0.712  23.682   8.095
 2240POPC   C4B30010   0.834  23.267   7.944
 2241POPC   NC330011  18.464   7.336   9.695
 2241POPC   PO430012  18.134   7.799   9.465
 2241POPC   GL130013  18.163   7.448   9.202
 2241POPC   GL230014  18.508   7.359   9.177
 2241POPC   C1A30015  18.170   7.529   8.749
 2241POPC   D2A30016  18.328   7.702   8.354
 2241POPC   C3A30017  18.049   7.781   8.020
 2241POPC   C4A30018  17.986   7.663   7.616
 2241POPC   C1B30019  18.554   7.196   8.756
 2241POPC   C2B30020  18.304   7.185   8.353
 2241POPC   C3B30021  18.372   7.380   7.941
 2241POPC   C4B30022  18.320   7.098   7.620
 2242POPC   NC330023   9.677  39.676   9.577
 2242POPC   PO430024   9.880  39.053   9.676
 2242POPC   GL130025   9.798  39.236   9.226
 2242POPC   GL230026   9.631  39.551   9.099
 2242POPC   C1A30027   9.799  39.202   8.752
 2242POPC   D2A30028   9.564  39.017   8.388
 2242POPC   C3A30029   9.559  39.093   7.959
 2242POPC   C4A30030   9.902  39.170   7.667
 2242POPC   C1B30031   9.476  39.681   8.685
 2242POPC   C2B30032   9.546  39.558   8.247
 2242POPC   C3B30033   9.507  39.579   7.785
 2242POPC   C4B30034   9.741  39.589   7.378
 2243POPC   NC330035  10.833  40.509   9.442
 2243POPC   PO430036  11.045  41.138   9.475
 2243POPC   GL130037  11.293  40.844   9.233
 2243POPC   GL230038  11.046  40.900   8.997
 2243POPC   C1A30039  11.349  40.530   8.853
 2243POPC   D2A30040  11.073  40.671   8.503
 2243POPC   C3A30041  11.183  40.684   8.062
 2243POPC   C4A30042  11.277  40.513   7.666
 2243POPC   C1B30043  11.437  41.017   8.761
 2243POPC   C2B30044  11.564  40.876   8.356
 2243POPC   C3B30045  11.672  40.777   7.916
 2243POPC   C4B30046  11.388  40.982   7.625
 2244POPC   NC330047  41.459  17.452   9.559
 2244POPC   PO430048  40.825  17.576   9.554
 2244POPC   GL130049  40.822  17.674   9.114
 2244POPC   GL230050  40.642  17.393   9.043
 2244POPC   C1A30051  40.752  17.744   8.673
 2244POPC   D2A30052  40.769  17.508   8.297
 2244POPC   C3A30053  40.815  17.707   7.899
 2244POPC   C4A30054  41.082  17.659   7.538
 2244POPC   C1B30055  40.658  17.159   8.684
 2244POPC   C2B30056  40.834  17.001   8.308
 2244POPC   C3B30057  40.977  17.193   7.948
 2244POPC   C4B30058  40.739  17.294   7.593
 2245POPC   NC330059  31.998  34.192   9.388
 2245POPC   PO430060  32.475  33.718   9.441
 2245POPC   GL130061  32.352  33.561   9.076
 2245POPC   GL230062  32.015  33.715   9.089
 2245POPC   C1A30063  32.420  33.698   8.681
 2245POPC   D2A30064  32.417  33.880   8.304
 2245POPC   C3A30065  32.491  33.546   7.966
 2245POPC   C4A30066  32.248  33.471   7.571
 2245POPC   C1B30067  32.026  34.007   8.736
 2245POPC   C2B30068  31.907  33.931   8.334
 2245POPC   C3B30069  32.057  33.820   7.944
 2245POPC   C4B30070  31.998  34.149   7.665
 2246POPC   NC330071  40.343  25.369   9.451
 2246POPC   PO430072  40.975  25.128   9.458
 2246POPC   GL130073  40.785  25.045   9.057
 2246POPC   GL230074  40.515  25.291   8.987
 2246POPC   C1A30075  40.684  25.006   8.603
 2246POPC   D2A30076  40.478  25.210   8.278
 2246POPC   C3A30077  40.745  25.152   7.951
 2246POPC   C4A30078  41.096  25.338   7.822
 2246POPC   C1B30079  40.666  25.525   8.649
 2246POPC   C2B30080  40.506  25.764   8.323
 2246POPC   C3B30081  40.507  25.619   7.916
 2246POPC   C4B30082  40.354  25.274   7.668
 2247POPC   NC330083  23.981  19.412   9.382
 2247POPC   PO430084  23.491  19.894   9.486
 2247POPC   GL130085  23.664  19.968   9.087
 2247POPC   GL230086  23.687  19.625   9.022
 2247POPC   C1A30087  23.791  20.060   8.665
 2247POPC   D2A30088  24.018  19.872   8.335
 2247POPC   C3A30089  23.852  19.735   7.972
 2247POPC   C4A30090  23.826  19.885   7.555
 2247POPC   C1B30091  23.990  19.500   8.704
 2247POPC   C2B30092  23.831  19.324   8.312
 2247POPC   C3B30093  23.488  19.403   8.050
 2247POPC   C4B30094  23.497  19.518   7.622
 2248POPC   NC330095  24.383  23.253   9.870
 2248POPC   PO430096  24.646  23.783   9.497
 2248POPC   GL130097  24.578  23.931   9.102
 2248POPC   GL230098  24.459  23.630   9.050
 2248POPC   C1A30099  24.495  23.918   8.648
 2248POPC   D2A30100  24.729  23.736   8.352
 2248POPC   C3A30101  24.551  23.919   8.035
 2248POPC   C4A30102  24.392  23.783   7.679
 2248POPC   C1B30103  24.220  23.505   8.698
 2248POPC   C2B30104  24.189  23.640   8.295
 2248POPC   C3B30105  24.045  23.497   7.918
 2248POPC   C4B30106  24.230  23.240   7.658
 2249POPC   NC330107   1.230   5.028   9.516
 2249POPC   PO430108   1.271   5.708   9.582
 2249POPC   GL130109   1.177   5.418   9.216
 2249POPC   GL230110   0.865   5.531   9.083
 2249POPC   C1A30111   1.392   5.130   8.858
 2249POPC   D2A30112   1.274   5.008   8.455
 2249POPC   C3A30113   1.413   5.064   8.049
 2249POPC   C4A30114   1.190   5.005   7.655
 2249POPC   C1B30115   1.011   5.420   8.702
 2249POPC   C2B30116   0.794   5.222   8.395
 2249POPC   C3B30117   0.881   5.232   7.989
 2249POPC   C4B30118   0.844   5.379   7.580
 2250POPC   NC330119   1.332  28.100   9.445
 2250POPC   PO430120   1.147  28.737   9.407
 2250POPC   GL130121   1.404  28.589   9.084
 2250POPC   GL230122   1.332  28.284   8.993
 2250POPC   C1A30123   1.487  28.650   8.681
 2250POPC   D2A30124   1.308  28.378   8.377
 2250POPC   C3A30125   1.433  28.539   7.995
 2250POPC   C4A30126   1.230  28.735   7.665
 2250POPC   C1B30127   1.261  27.923   8.760
 2250POPC   C2B30128   1.139  27.886   8.347
 2250POPC   C3B30129   1.249  28.046   7.937
 2250POPC   C4B30130   1.017  27.994   7.551
 2251POPC   NC330131  36.469  20.227   9.447
 2251POPC   PO430132  37.009  20.641   9.406
 2251POPC   GL130133  36.907  20.457   9.013
 2251POPC   GL230134  36.526  20.428   8.948
 2251POPC   C1A30135  37.200  20.629   8.721
 2251POPC   D2A30136  37.152  20.865   8.374
 2251POPC   C3A30137  36.864  20.620   8.112
 2251POPC   C4A30138  37.060  20.559   7.761
 2251POPC   C1B30139  36.672  20.844   8.745
 2251POPC   C2B30140  36.662  21.028   8.322
 2251POPC   C3B30141  36.753  21.070   7.849
 2251POPC   C4B30142  36.695  21.213   7.377
 2252POPC   NC330143  39.926  19.427   9.908
 2252POPC   PO430144  40.038  18.959   9.402
 2252POPC   GL130145  40.033  18.990   9.009
 2252POPC   GL230146  40.160  18.652   8.922
 2252POPC   C1A30147  39.918  19.303   8.729
 2252POPC   D2A30148  39.700  19.314   8.368
 2252POPC   C3A30149  39.797  19.096   7.995
 2252POPC   C4A30150  39.903  19.472   7.829
 2252POPC   C1B30151  40.137  18.876   8.519
 2252POPC   C2B30152  40.215  19.272   8.302
 2252POPC   C3B30153  40.293  19.136   7.924
 2252POPC   C4B30154  40.166  18.753   7.859
 2253POPC   NC330155  38.346  23.452   9.388
 2253POPC   PO430156  38.716  24.000   9.604
 2253POPC   GL130157  38.521  23.893   9.197
 2253POPC   GL230158  38.671  23.621   9.001
 2253POPC   C1A30159  38.317  23.932   8.800
 2253POPC   D2A30160  38.449  24.003   8.393
 2253POPC   C3A30161  38.297  23.838   8.023
 2253POPC   C4A30162  38.650  23.649   7.778
 2253POPC   C1B30163  38.461  23.432   8.619
 2253POPC   C2B30164  38.090  23.243   8.402
 2253POPC   C3B30165  37.910  23.417   8.028
 2253POPC   C4B30166  38.167  23.480   7.683
 2254POPC   NC330167  44.720  13.161   9.512
 2254POPC   PO430168  44.895  12.569   9.334
 2254POPC   GL130169  44.629  12.830   9.104
 2254POPC   GL230170  44.790  13.123   9.026
 2254POPC   C1A30171  44.399  12.924   8.742
 2254POPC   D2A30172  44.366  12.780   8.313
 2254POPC   C3A30173  44.611  12.889   7.935
 2254POPC   C4A30174  44.863  12.622   7.759
 2254POPC   C1B30175  44.890  12.948   8.625
 2254POPC   C2B30176  44.939  13.151   8.234
 2254POPC   C3B30177   0.157  13.025   7.851
 2254POPC   C4B30178   0.094  12.919   7.418
 2255POPC   NC330179  38.061  34.404   9.476
 2255POPC   PO430180  38.714  34.359   9.454
 2255POPC   GL130181  38.440  34.448   9.119
 2255POPC   GL230182  38.308  34.787   9.206
 2255POPC   C1A30183  38.443  34.374   8.679
 2255POPC   D2A30184  38.672  34.484   8.302
 2255POPC   C3A30185  38.383  34.427   7.970
 2255POPC   C4A30186  38.194  34.592   7.633
 2255POPC   C1B30187  38.263  34.918   8.778
 2255POPC   C2B30188  38.235  34.740   8.369
 2255POPC   C3B30189  38.229  34.959   7.983
 2255POPC   C4B30190  38.330  35.078   7.552
 2256POPC   NC330191   6.614  34.276   9.536
 2256POPC   PO430192   6.342  33.593   9.518
 2256POPC   GL130193   6.539  33.518   9.126
 2256POPC   GL230194   6.669  33.846   9.184
 2256POPC   C1A30195   6.695  33.550   8.687
 2256POPC   D2A30196   6.705  33.502   8.229
 2256POPC   C3A30197   6.929  33.578   7.894
 2256POPC   C4A30198   6.681  33.657   7.566
 2256POPC   C1B30199   6.605  34.030   8.824
 2256POPC   C2B30200   6.769  33.981   8.408
 2256POPC   C3B30201   6.664  34.009   7.969
 2256POPC   C4B30202   7.029  34.031   7.666
 2257POPC   NC330203  11.265  38.775   9.614
 2257POPC   PO430204  10.910  39.376   9.544
 2257POPC   GL130205  11.256  39.147   9.255
 2257POPC   GL230206  11.540  38.859   9.161
 2257POPC   C1A30207  11.439  39.324   8.902
 2257POPC   D2A30208  11.619  39.436   8.534
 2257POPC   C3A30209  11.317  39.368   8.208
 2257POPC   C4A30210  11.395  39.376   7.781
 2257POPC   C1B30211  11.753  38.963   8.766
 2257POPC   C2B30212  11.591  38.961   8.380
 2257POPC   C3B30213  11.448  38.898   7.980
 2257POPC   C4B30214  11.560  38.914   7.564
 2258POPC   NC330215  11.381  14.116   9.477
 2258POPC   PO430216  11.116  14.744   9.485
 2258POPC   GL130217  11.259  14.545   9.119
 2258POPC   GL230218  11.039  14.233   9.092
 2258POPC   C1A30219  11.225  14.548   8.655
 2258POPC   D2A30220  11.538  14.633   8.310
 2258POPC   C3A30221  11.454  14.527   7.896
 2258POPC   C4A30222  11.084  14.609   7.706
 2258POPC   C1B30223  11.425  14.104   8.823
 2258POPC   C2B30224  11.470  14.099   8.364
 2258POPC   C3B30225  11.567  14.001   7.926
 2258POPC   C4B30226  11.198  14.088   7.717
 2259POPC   NC330227  20.225   7.432   9.441
 2259POPC   PO430228  19.554   7.114   9.468
 2259POPC   GL130229  19.800   7.320   9.122
 2259POPC   GL230230  20.113   7.132   9.068
 2259POPC   C1A30231  19.703   7.629   8.737
 2259POPC   D2A30232  19.883   7.710   8.309
 2259POPC   C3A30233  19.677   7.520   7.931
 2259POPC   C4A30234  19.683   7.515   7.446
 2259POPC   C1B30235  20.064   7.261   8.692
 2259POPC   C2B30236  19.944   7.098   8.363
 2259POPC   C3B30237  20.073   7.200   8.006
 2259POPC   C4B30238  19.810   7.073   7.673
 2260POPC   NC330239  14.870   3.129   9.568
 2260POPC   PO430240  15.265   2.608   9.631
 2260POPC   GL130241  15.216   2.640   9.183
 2260POPC   GL230242  14.969   2.892   9.125
 2260POPC   C1A30243  15.036   2.523   8.762
 2260POPC   D2A30244  14.896   2.443   8.329
 2260POPC   C3A30245  15.025   2.676   7.950
 2260POPC   C4A30246  14.799   2.988   7.695
 2260POPC   C1B30247  15.318   2.964   8.806
 2260POPC   C2B30248  15.397   2.868   8.370
 2260POPC   C3B30249  15.218   3.126   8.057
 2260POPC   C4B30250  15.301   3.025   7.638
 2261POPC   NC330251  15.078  24.095   9.375
 2261POPC   PO430252  15.324  23.459   9.615
 2261POPC   GL130253  15.387  23.701   9.244
 2261POPC   GL230254  15.051  23.642   9.105
 2261POPC   C1A30255  15.432  23.848   8.814
 2261POPC   D2A30256  15.252  23.925   8.401
 2261POPC   C3A30257  15.320  23.628   8.092
 2261POPC   C4A30258  15.259  23.800   7.681
 2261POPC   C1B30259  14.878  23.923   8.768
 2261POPC   C2B30260  14.739  24.058   8.372
 2261POPC   C3B30261  14.878  23.888   8.023
 2261POPC   C4B30262  14.746  23.710   7.643
 2262POPC   NC330263  43.296  13.960   9.571
 2262POPC   PO430264  42.991  13.424   9.558
 2262POPC   GL130265  43.046  13.447   9.124
 2262POPC   GL230266  43.051  13.833   9.114
 2262POPC   C1A30267  43.128  13.310   8.699
 2262POPC   D2A30268  43.311  13.661   8.483
 2262POPC   C3A30269  43.253  13.777   8.086
 2262POPC   C4A30270  43.301  13.553   7.746
 2262POPC   C1B30271  42.794  13.726   8.755
 2262POPC   C2B30272  42.708  13.490   8.404
 2262POPC   C3B30273  42.833  13.522   7.998
 2262POPC   C4B30274  42.835  13.837   7.709
 2263POPC   NC330275   1.586  44.604   9.621
 2263POPC   PO430276   1.000  44.830   9.511
 2263POPC   GL130277   1.084  44.546   9.178
 2263POPC   GL230278   1.466  44.541   9.092
 2263POPC   C1A30279   1.044  44.785   8.812
 2263POPC   D2A30280   1.310  44.889   8.506
 2263POPC   C3A30281   1.179  44.861   8.098
 2263POPC   C4A30282   1.507  44.844   7.816
 2263POPC   C1B30283   1.312  44.368   8.700
 2263POPC   C2B30284   0.964  44.472   8.412
 2263POPC   C3B30285   0.830  44.444   7.995
 2263POPC   C4B30286   1.223  44.438   7.791
 2264POPC   NC330287   1.787   8.063   9.724
 2264POPC   PO430288   1.961   8.549   9.287
 2264POPC   GL130289   1.983   8.370   8.859
 2264POPC   GL230290   1.696   8.388   8.837
 2264POPC   C1A30291   1.972   8.076   8.515
 2264POPC   D2A30292   2.114   7.971   8.136
 2264POPC   C3A30293   2.160   8.357   7.952
 2264POPC   C4A30294   1.777   8.550   7.931
 2264POPC   C1B30295   1.495   8.006   8.666
 2264POPC   C2B30296   1.580   7.763   8.323
 2264POPC   C3B30297   1.584   8.065   8.043
 2264POPC   C4B30298   1.778   8.076   7.705
 2265POPC   NC330299  30.506  40.767   9.454
 2265POPC   PO430300  30.221  40.276   9.231
 2265POPC   GL130301  30.364  40.561   8.971
 2265POPC   GL230302  30.705  40.517   9.035
 2265POPC   C1A30303  30.388  40.499   8.514
 2265POPC   D2A30304  30.630  40.735   8.207
 2265POPC   C3A30305  30.540  40.931   7.844
 2265POPC   C4A30306  30.763  41.130   7.493
 2265POPC   C1B30307  30.869  40.719   8.660
 2265POPC   C2B30308  31.138  40.834   8.289
 2265POPC   C3B30309  31.094  40.966   7.858
 2265POPC   C4B30310  31.205  40.769   7.453
 2266POPC   NC330311  11.459  37.665   9.601
 2266POPC   PO430312  10.948  37.798   9.186
 2266POPC   GL130313  11.387  37.778   9.039
 2266POPC   GL230314  11.555  37.450   9.147
 2266POPC   C1A30315  11.472  37.732   8.572
 2266POPC   D2A30316  11.158  37.554   8.261
 2266POPC   C3A30317  11.233  37.592   7.800
 2266POPC   C4A30318  11.386  37.986   7.639
 2266POPC   C1B30319  11.317  37.304   8.810
 2266POPC   C2B30320  11.498  37.194   8.460
 2266POPC   C3B30321  11.643  37.426   8.125
 2266POPC   C4B30322  11.665  37.282   7.724
 2267POPC   NC330323   6.786  19.178   9.861
 2267POPC   PO430324   6.348  18.772   9.528
 2267POPC   GL130325   6.600  18.938   9.147
 2267POPC   GL230326   6.938  19.028   9.128
 2267POPC   C1A30327   6.597  18.888   8.692
 2267POPC   D2A30328   6.391  18.662   8.345
 2267POPC   C3A30329   6.486  18.907   7.943
 2267POPC   C4A30330   6.697  19.318   7.866
 2267POPC   C1B30331   6.848  19.328   8.807
 2267POPC   C2B30332   6.808  19.278   8.384
 2267POPC   C3B30333   6.941  18.900   8.191
 2267POPC   C4B30334   6.999  18.871   7.760
 2268POPC   NC330335  42.250  19.336   9.470
 2268POPC   PO430336  42.450  18.635   9.566
 2268POPC   GL130337  42.468  18.951   9.231
 2268POPC   GL230338  42.136  19.039   9.083
 2268POPC   C1A30339  42.518  18.858   8.789
 2268POPC   D2A30340  42.528  18.989   8.384
 2268POPC   C3A30341  42.676  18.741   8.071
 2268POPC   C4A30342  42.600  18.799   7.670
 2268POPC   C1B30343  41.855  19.189   8.761
 2268POPC   C2B30344  41.996  19.021   8.370
 2268POPC   C3B30345  42.211  18.964   7.995
 2268POPC   C4B30346  42.125  19.076   7.601
 2269POPC   NC330347  17.566   4.970   9.325
 2269POPC   PO430348  16.918   5.099   9.328
 2269POPC   GL130349  17.115   5.322   8.983
 2269POPC   GL230350  17.505   5.267   8.917
 2269POPC   C1A30351  17.187   5.328   8.533
 2269POPC   D2A30352  17.579   5.233   8.329
 2269POPC   C3A30353  17.502   5.083   7.914
 2269POPC   C4A30354  17.458   4.710   7.686
 2269POPC   C1B30355  17.835   4.977   8.740
 2269POPC   C2B30356  18.107   4.896   8.416
 2269POPC   C3B30357  18.002   5.044   8.051
 2269POPC   C4B30358  17.920   4.897   7.678
 2270POPC   NC330359   1.198  43.693   9.484
 2270POPC   PO430360   1.617  44.183   9.429
 2270POPC   GL130361   1.309  44.015   9.098
 2270POPC   GL230362   0.961  43.794   9.063
 2270POPC   C1A30363   1.393  43.837   8.700
 2270POPC   D2A30364   1.539  44.063   8.338
 2270POPC   C3A30365   1.393  43.986   7.925
 2270POPC   C4A30366   1.453  43.614   7.724
 2270POPC   C1B30367   0.902  44.073   8.735
 2270POPC   C2B30368   1.040  43.965   8.322
 2270POPC   C3B30369   0.987  43.666   7.978
 2270POPC   C4B30370   0.883  43.981   7.689
 2271POPC   NC330371  17.929  22.620   9.517
 2271POPC   PO430372  18.404  22.992   9.762
 2271POPC   GL130373  18.317  23.012   9.306
 2271POPC   GL230374  18.593  22.923   9.144
 2271POPC   C1A30375  18.161  22.777   8.920
 2271POPC   D2A30376  18.223  22.787   8.471
 2271POPC   C3A30377  18.094  23.174   8.218
 2271POPC   C4A30378  18.098  23.136   7.773
 2271POPC   C1B30379  18.413  23.172   8.780
 2271POPC   C2B30380  18.576  23.138   8.372
 2271POPC   C3B30381  18.787  23.099   7.983
 2271POPC   C4B30382  18.605  23.124   7.608
 2272POPC   NC330383  23.264  38.892   9.212
 2272POPC   PO430384  23.363  38.307   9.438
 2272POPC   GL130385  23.548  38.450   9.077
 2272POPC   GL230386  23.916  38.491   9.102
 2272POPC   C1A30387  23.586  38.513   8.648
 2272POPC   D2A30388  23.787  38.475   8.260
 2272POPC   C3A30389  23.497  38.573   7.903
 2272POPC   C4A30390  23.258  38.579   7.520
 2272POPC   C1B30391  24.232  38.260   8.842
 2272POPC   C2B30392  24.199  37.976   8.499
 2272POPC   C3B30393  24.124  38.098   8.086
 2272POPC   C4B30394  23.972  38.427   7.789
 2273POPC   NC330395   7.382  16.053   9.606
 2273POPC   PO430396   7.173  15.519   9.476
 2273POPC   GL130397   7.509  15.747   9.172
 2273POPC   GL230398   7.631  16.107   9.163
 2273POPC   C1A30399   7.526  15.827   8.703
 2273POPC   D2A30400   7.410  15.802   8.235
 2273POPC   C3A30401   7.512  15.612   7.817
 2273POPC   C4A30402   7.552  15.589   7.345
 2273POPC   C1B30403   7.584  16.367   8.789
 2273POPC   C2B30404   7.648  16.250   8.361
 2273POPC   C3B30405   7.406  16.237   7.956
 2273POPC   C4B30406   7.332  16.026   7.561
 2274POPC   NC330407  16.643  23.591   9.417
 2274POPC   PO430408  16.116  23.931   9.638
 2274POPC   GL130409  16.397  24.003   9.246
 2274POPC   GL230410  16.781  24.033   9.191
 2274POPC   C1A30411  16.438  23.959   8.786
 2274POPC   D2A30412  16.707  23.891   8.410
 2274POPC   C3A30413  16.568  23.967   7.998
 2274POPC   C4A30414  16.704  24.068   7.602
 2274POPC   C1B30415  16.999  23.840   8.820
 2274POPC   C2B30416  17.214  23.737   8.422
 2274POPC   C3B30417  16.996  23.697   8.020
 2274POPC   C4B30418  16.590  23.460   7.934
 2275POPC   NC330419  14.798   0.773   9.471
 2275POPC   PO430420  15.357   0.462   9.442
 2275POPC   GL130421  15.272   0.426   9.043
 2275POPC   GL230422  14.922   0.491   9.065
 2275POPC   C1A30423  15.164   0.153   8.745
 2275POPC   D2A30424  15.011   0.001   8.426
 2275POPC   C3A30425  15.165   0.152   8.065
 2275POPC   C4A30426  14.944   0.027   7.705
 2275POPC   C1B30427  14.984   0.674   8.684
 2275POPC   C2B30428  15.263   0.580   8.348
 2275POPC   C3B30429  15.448   0.641   7.926
 2275POPC   C4B30430  15.406   0.693   7.446
 2276POPC   NC330431  42.325  17.341   9.899
 2276POPC   PO430432  42.130  16.669   9.671
 2276POPC   GL130433  42.288  16.815   9.301
 2276POPC   GL230434  42.446  16.479   9.216
 2276POPC   C1A30435  42.249  16.804   8.861
 2276POPC   D2A30436  42.114  16.704   8.468
 2276POPC   C3A30437  42.357  16.800   8.102
 2276POPC   C4A30438  42.125  16.839   7.722
 2276POPC   C1B30439  42.714  16.424   8.833
 2276POPC   C2B30440  42.639  16.491   8.409
 2276POPC   C3B30441  42.609  16.368   7.958
 2276POPC   C4B30442  42.599  16.654   7.629
 2277POPC   NC330443  21.138  18.532   9.453
 2277POPC   PO430444  21.793  18.574   9.513
 2277POPC   GL130445  21.704  18.289   9.151
 2277POPC   GL230446  21.355  18.218   9.102
 2277POPC   C1A30447  21.720  18.143   8.706
 2277POPC   D2A30448  21.415  18.099   8.394
 2277POPC   C3A30449  21.529  18.275   8.003
 2277POPC   C4A30450  21.779  18.152   7.643
 2277POPC   C1B30451  21.044  18.116   8.790
 2277POPC   C2B30452  20.913  18.063   8.374
 2277POPC   C3B30453  21.098  17.902   8.023
 2277POPC   C4B30454  21.255  18.003   7.640
 2278POPC   NC330455  32.173  19.311   9.490
 2278POPC   PO430456  32.147  19.973   9.603
 2278POPC   GL130457  32.148  19.976   9.200
 2278POPC   GL230458  31.883  19.723   9.212
 2278POPC   C1A30459  32.402  19.979   8.833
 2278POPC   D2A30460  32.358  20.120   8.431
 2278POPC   C3A30461  32.433  19.880   8.063
 2278POPC   C4A30462  32.577  19.782   7.667
 2278POPC   C1B30463  31.921  19.787   8.776
 2278POPC   C2B30464  32.123  19.641   8.414
 2278POPC   C3B30465  31.971  19.623   8.025
 2278POPC   C4B30466  32.089  19.663   7.656
 2279POPC   NC330467  11.267   1.721   9.506
 2279POPC   PO430468  10.910   2.320   9.394
 2279POPC   GL130469  11.139   2.051   9.043
 2279POPC   GL230470  11.453   1.846   9.059
 2279POPC   C1A30471  11.182   1.879   8.617
 2279POPC   D2A30472  11.056   1.751   8.219
 2279POPC   C3A30473  11.227   1.988   7.921
 2279POPC   C4A30474  11.231   2.172   7.550
 2279POPC   C1B30475  11.491   1.507   8.738
 2279POPC   C2B30476  11.504   1.551   8.287
 2279POPC   C3B30477  11.413   1.521   7.858
 2279POPC   C4B30478  11.615   1.812   7.569
 2280POPC   NC330479  40.608  13.440   9.420
 2280POPC   PO430480  40.964  12.778   9.338
 2280POPC   GL130481  40.668  13.033   9.106
 2280POPC   GL230482  40.852  13.368   8.993
 2280POPC   C1A30483  40.428  12.886   8.719
 2280POPC   D2A30484  40.484  12.669   8.285
 2280POPC   C3A30485  40.696  12.843   7.925
 2280POPC   C4A30486  41.081  12.886   7.735
 2280POPC   C1B30487  40.929  13.099   8.674
 2280POPC   C2B30488  40.682  13.146   8.341
 2280POPC   C3B30489  40.911  13.299   8.037
 2280POPC   C4B30490  40.731  13.298   7.665
 2281POPC   NC330491  33.424   1.468   9.446
 2281POPC   PO430492  33.002   0.993   9.454
 2281POPC   GL130493  33.157   0.970   9.093
 2281POPC   GL230494  33.532   0.961   9.216
 2281POPC   C1A30495  33.008   1.148   8.703
 2281POPC   D2A30496  33.177   1.405   8.356
 2281POPC   C3A30497  32.971   1.381   7.924
 2281POPC   C4A30498  32.904   1.136   7.530
 2281POPC   C1B30499  33.509   1.155   8.800
 2281POPC   C2B30500  33.354   0.891   8.442
 2281POPC   C3B30501  33.319   1.010   8.023
 2281POPC   C4B30502  33.255   0.782   7.653
 2282POPC   NC330503  43.749  25.866   9.540
 2282POPC   PO430504  44.204  26.359   9.766
 2282POPC   GL130505  44.214  26.196   9.305
 2282POPC   GL230506  43.902  26.030   9.099
 2282POPC   C1A30507  44.248  26.255   8.833
 2282POPC   D2A30508  43.970  25.964   8.553
 2282POPC   C3A30509  44.025  26.012   8.105
 2282POPC   C4A30510  44.113  26.103   7.707
 2282POPC   C1B30511  43.532  25.895   8.824
 2282POPC   C2B30512  43.470  25.715   8.405
 2282POPC   C3B30513  43.699  25.643   8.046
 2282POPC   C4B30514  43.742  25.752   7.608
 2283POPC   NC330515  40.915  27.073   9.472
 2283POPC   PO430516  40.407  26.587   9.501
 2283POPC   GL130517  40.604  26.737   9.143
 2283POPC   GL230518  40.543  27.083   9.069
 2283POPC   C1A30519  40.825  26.542   8.786
 2283POPC   D2A30520  41.091  26.409   8.426
 2283POPC   C3A30521  40.943  26.624   8.058
 2283POPC   C4A30522  40.639  26.546   7.714
 2283POPC   C1B30523  40.893  27.046   8.795
 2283POPC   C2B30524  40.845  27.084   8.340
 2283POPC   C3B30525  41.047  27.122   7.948
 2283POPC   C4B30526  41.090  26.828   7.602
 2284POPC   NC330527   9.843   0.663   9.425
 2284POPC   PO430528   9.507   0.053   9.424
 2284POPC   GL130529   9.712   0.224   9.083
 2284POPC   GL230530  10.043   0.280   9.109
 2284POPC   C1A30531   9.697   0.431   8.678
 2284POPC   D2A30532   9.514   0.752   8.412
 2284POPC   C3A30533   9.597   0.603   7.985
 2284POPC   C4A30534   9.719   0.194   7.785
 2284POPC   C1B30535  10.190   0.265   8.699
 2284POPC   C2B30536  10.122   0.242   8.251
 2284POPC   C3B30537  10.118   0.504   7.876
 2284POPC   C4B30538  10.031   0.458   7.449
 2285POPC   NC330539  36.648  22.733   9.712
 2285POPC   PO430540  37.133  23.225   9.534
 2285POPC   GL130541  36.928  22.997   9.177
 2285POPC   GL230542  36.591  23.122   9.153
 2285POPC   C1A30543  37.006  22.729   8.782
 2285POPC   D2A30544  36.827  22.668   8.369
 2285POPC   C3A30545  37.115  22.713   8.038
 2285POPC   C4A30546  37.037  22.673   7.624
 2285POPC   C1B30547  36.618  23.021   8.690
 2285POPC   C2B30548  36.506  23.076   8.253
 2285POPC   C3B30549  36.747  23.083   7.870
 2285POPC   C4B30550  36.618  23.229   7.468
 2286POPC   NC330551  41.996   1.923   9.591
 2286POPC   PO430552  42.630   2.013   9.383
 2286POPC   GL130553  42.434   1.940   9.061
 2286POPC   GL230554  42.321   2.298   9.072
 2286POPC   C1A30555  42.531   1.715   8.678
 2286POPC   D2A30556  42.448   2.000   8.329
 2286POPC   C3A30557  42.668   1.989   7.922
 2286POPC   C4A30558  42.555   2.180   7.543
 2286POPC   C1B30559  42.384   2.470   8.681
 2286POPC   C2B30560  42.191   2.511   8.292
 2286POPC   C3B30561  42.227   2.272   7.942
 2286POPC   C4B30562  42.040   2.222   7.567
 2287POPC   NC330563  18.516  27.720   9.735
 2287POPC   PO430564  17.951  27.493   9.920
 2287POPC   GL130565  18.109  27.715   9.404
 2287POPC   GL230566  18.482  27.695   9.230
 2287POPC   C1A30567  18.154  27.884   8.913
 2287POPC   D2A30568  18.022  28.028   8.479
 2287POPC   C3A30569  18.227  27.952   8.093
 2287POPC   C4A30570  18.219  27.772   7.718
 2287POPC   C1B30571  18.472  27.432   8.836
 2287POPC   C2B30572  18.198  27.275   8.527
 2287POPC   C3B30573  18.201  27.420   8.104
 2287POPC   C4B30574  18.463  27.336   7.766
 2288POPC   NC330575  17.230  17.792   9.526
 2288POPC   PO430576  16.696  17.421   9.687
 2288POPC   GL130577  16.765  17.455   9.227
 2288POPC   GL230578  16.906  17.736   9.130
 2288POPC   C1A30579  16.525  17.586   8.839
 2288POPC   D2A30580  16.638  17.617   8.416
 2288POPC   C3A30581  16.672  17.218   8.206
 2288POPC   C4A30582  16.479  17.356   7.848
 2288POPC   C1B30583  17.024  17.778   8.730
 2288POPC   C2B30584  17.134  17.642   8.310
 2288POPC   C3B30585  16.982  17.517   7.921
 2288POPC   C4B30586  16.974  17.116   7.749
 2289POPC   NC330587  10.607   3.042   9.495
 2289POPC   PO430588  10.030   2.760   9.574
 2289POPC   GL130589  10.367   2.658   9.216
 2289POPC   GL230590  10.617   2.884   9.040
 2289POPC   C1A30591  10.415   2.527   8.753
 2289POPC   D2A30592  10.638   2.523   8.368
 2289POPC   C3A30593  10.398   2.601   8.022
 2289POPC   C4A30594  10.557   2.745   7.644
 2289POPC   C1B30595  10.787   2.928   8.648
 2289POPC   C2B30596  10.677   3.231   8.341
 2289POPC   C3B30597  10.499   3.146   7.929
 2289POPC   C4B30598  10.739   3.208   7.521
 2290POPC   NC330599  11.547  33.819   9.590
 2290POPC   PO430600  12.224  33.998   9.612
 2290POPC   GL130601  12.079  33.760   9.230
 2290POPC   GL230602  11.974  33.396   9.132
 2290POPC   C1A30603  12.112  33.846   8.790
 2290POPC   D2A30604  12.313  34.056   8.439
 2290POPC   C3A30605  12.137  33.905   8.052
 2290POPC   C4A30606  11.885  34.043   7.713
 2290POPC   C1B30607  11.907  33.313   8.653
 2290POPC   C2B30608  11.910  33.443   8.173
 2290POPC   C3B30609  11.726  33.541   7.750
 2290POPC   C4B30610  11.833  33.380   7.301
 2291POPC   NC330611  23.067  11.629   9.456
 2291POPC   PO430612  23.232  10.943   9.461
 2291POPC   GL130613  23.046  11.207   9.136
 2291POPC   GL230614  23.253  11.515   8.999
 2291POPC   C1A30615  22.953  11.242   8.695
 2291POPC   D2A30616  23.295  11.403   8.435
 2291POPC   C3A30617  23.250  11.243   8.046
 2291POPC   C4A30618  22.911  11.195   7.786
 2291POPC   C1B30619  23.017  11.760   8.670
 2291POPC   C2B30620  23.128  11.867   8.234
 2291POPC   C3B30621  23.040  11.692   7.831
 2291POPC   C4B30622  22.592  11.562   7.680
 2292POPC   NC330623   3.141  29.178   9.356
 2292POPC   PO430624   3.669  29.455   9.586
 2292POPC   GL130625   3.589  29.198   9.146
 2292POPC   GL230626   3.319  28.878   9.022
 2292POPC   C1A30627   3.677  29.111   8.731
 2292POPC   D2A30628   3.858  29.228   8.353
 2292POPC   C3A30629   3.870  28.946   8.050
 2292POPC   C4A30630   3.747  29.069   7.677
 2292POPC   C1B30631   3.162  29.045   8.666
 2292POPC   C2B30632   3.377  29.010   8.325
 2292POPC   C3B30633   3.311  28.919   7.973
 2292POPC   C4B30634   3.266  29.028   7.581
 2293POPC   NC330635   2.589  37.504   9.373
 2293POPC   PO430636   2.858  38.183   9.444
 2293POPC   GL130637   2.800  37.888   9.114
 2293POPC   GL230638   3.080  37.750   9.006
 2293POPC   C1A30639   2.688  37.890   8.669
 2293POPC   D2A30640   2.339  37.942   8.372
 2293POPC   C3A30641   2.468  37.748   8.006
 2293POPC   C4A30642   2.861  37.735   7.810
 2293POPC   C1B30643   2.933  37.433   8.738
 2293POPC   C2B30644   2.712  37.403   8.354
 2293POPC   C3B30645   2.898  37.230   7.996
 2293POPC   C4B30646   3.119  37.336   7.634
 2294POPC   NC330647  41.478  42.749   9.546
 2294POPC   PO430648  41.968  42.456   9.248
 2294POPC   GL130649  41.500  42.459   9.098
 2294POPC   GL230650  41.355  42.097   9.055
 2294POPC   C1A30651  41.449  42.611   8.702
 2294POPC   D2A30652  41.750  42.574   8.407
 2294POPC   C3A30653  41.552  42.591   8.045
 2294POPC   C4A30654  41.225  42.754   7.748
 2294POPC   C1B30655  41.502  42.120   8.617
 2294POPC   C2B30656  41.230  42.247   8.283
 2294POPC   C3B30657  41.273  42.237   7.845
 2294POPC   C4B30658  41.670  42.172   7.660
 2295POPC   NC330659  31.429  30.092   9.794
 2295POPC   PO430660  31.883  29.671   9.837
 2295POPC   GL130661  31.407  29.727   9.470
 2295POPC   GL230662  31.404  30.133   9.288
 2295POPC   C1A30663  31.283  29.782   8.967
 2295POPC   D2A30664  31.513  29.737   8.557
 2295POPC   C3A30665  31.399  29.961   8.168
 2295POPC   C4A30666  31.540  29.985   7.732
 2295POPC   C1B30667  31.596  30.179   8.813
 2295POPC   C2B30668  31.813  30.157   8.402
 2295POPC   C3B30669  31.889  29.832   8.107
 2295POPC   C4B30670  32.036  29.863   7.692
 2296POPC   NC330671  21.189  36.279   9.417
 2296POPC   PO430672  21.834  35.891   9.361
 2296POPC   GL130673  21.526  36.018   9.054
 2296POPC   GL230674  21.456  36.383   9.013
 2296POPC   C1A30675  21.502  36.092   8.606
 2296POPC   D2A30676  21.150  35.907   8.389
 2296POPC   C3A30677  21.135  36.030   7.978
 2296POPC   C4A30678  21.574  36.074   7.797
 2296POPC   C1B30679  21.085  36.348   8.698
 2296POPC   C2B30680  21.042  36.528   8.239
 2296POPC   C3B30681  21.244  36.486   7.808
 2296POPC   C4B30682  21.177  36.227   7.415
 2297POPC   NC330683   0.319  31.137   9.473
 2297POPC   PO430684  44.959  30.680   9.539
 2297POPC   GL130685   0.299  30.665   9.218
 2297POPC   GL230686   0.625  30.863   9.155
 2297POPC   C1A30687   0.475  30.529   8.807
 2297POPC   D2A30688   0.625  30.525   8.395
 2297POPC   C3A30689   0.365  30.586   8.028
 2297POPC   C4A30690   0.477  30.592   7.574
 2297POPC   C1B30691   0.690  30.969   8.708
 2297POPC   C2B30692   0.536  31.066   8.286
 2297POPC   C3B30693   0.724  30.927   7.942
 2297POPC   C4B30694   0.767  31.069   7.558
 2298POPC   NC330695  21.092  41.248   9.536
 2298POPC   PO430696  21.613  41.728   9.410
 2298POPC   GL130697  21.273  41.550   9.157
 2298POPC   GL230698  21.440  41.246   9.166
 2298POPC   C1A30699  21.220  41.684   8.739
 2298POPC   D2A30700  21.556  41.821   8.454
 2298POPC   C3A30701  21.556  41.710   8.004
 2298POPC   C4A30702  21.603  41.819   7.565
 2298POPC   C1B30703  21.451  41.183   8.781
 2298POPC   C2B30704  21.376  41.335   8.384
 2298POPC   C3B30705  21.592  41.200   8.033
 2298POPC   C4B30706  21.340  41.258   7.704
 2299POPC   NC330707  31.358  18.471   9.512
 2299POPC   PO430708  31.117  17.874   9.141
 2299POPC   GL130709  31.525  18.179   9.089
 2299POPC   GL230710  31.716  18.525   9.143
 2299POPC   C1A30711  31.466  18.434   8.717
 2299POPC   D2A30712  31.477  18.324   8.298
 2299POPC   C3A30713  31.190  18.505   8.019
 2299POPC   C4A30714  31.293  18.529   7.562
 2299POPC   C1B30715  31.953  18.607   8.779
 2299POPC   C2B30716  31.861  18.673   8.353
 2299POPC   C3B30717  31.864  18.432   7.970
 2299POPC   C4B30718  31.954  18.674   7.634
 2300POPC   NC330719   5.133  40.998   9.450
 2300POPC   PO430720   4.680  40.431   9.380
 2300POPC   GL130721   4.990  40.617   9.110
 2300POPC   GL230722   4.944  40.977   8.984
 2300POPC   C1A30723   5.226  40.492   8.744
 2300POPC   D2A30724   5.039  40.494   8.322
 2300POPC   C3A30725   5.239  40.476   7.922
 2300POPC   C4A30726   4.990  40.517   7.547
 2300POPC   C1B30727   5.010  40.952   8.544
 2300POPC   C2B30728   5.303  40.943   8.186
 2300POPC   C3B30729   5.186  40.975   7.769
 2300POPC   C4B30730   4.794  41.261   7.780
 2301POPC   NC330731  35.622  42.630   9.527
 2301POPC   PO430732  35.242  42.099   9.392
 2301POPC   GL130733  35.612  42.231   9.134
 2301POPC   GL230734  35.800  42.583   9.061
 2301POPC   C1A30735  35.456  42.286   8.740
 2301POPC   D2A30736  35.155  42.387   8.427
 2301POPC   C3A30737  35.350  42.285   8.055
 2301POPC   C4A30738  35.435  42.177   7.646
 2301POPC   C1B30739  35.662  42.768   8.682
 2301POPC   C2B30740  35.498  42.773   8.260
 2301POPC   C3B30741  35.736  42.624   7.913
 2301POPC   C4B30742  35.804  42.472   7.495
 2302POPC   NC330743  13.524  14.610   9.384
 2302POPC   PO430744  13.429  14.003   9.573
 2302POPC   GL130745  13.509  14.135   9.173
 2302POPC   GL230746  13.846  14.298   9.097
 2302POPC   C1A30747  13.446  14.258   8.764
 2302POPC   D2A30748  13.713  14.277   8.390
 2302POPC   C3A30749  13.549  14.341   7.975
 2302POPC   C4A30750  13.831  14.155   7.703
 2302POPC   C1B30751  13.789  14.643   8.764
 2302POPC   C2B30752  13.820  14.803   8.352
 2302POPC   C3B30753  13.829  14.774   7.919
 2302POPC   C4B30754  13.778  14.789   7.500
 2303POPC   NC330755  28.725  21.180   9.427
 2303POPC   PO430756  28.125  21.524   9.582
 2303POPC   GL130757  28.352  21.449   9.179
 2303POPC   GL230758  28.658  21.623   9.109
 2303POPC   C1A30759  28.384  21.307   8.758
 2303POPC   D2A30760  28.365  21.510   8.361
 2303POPC   C3A30761  28.272  21.256   8.002
 2303POPC   C4A30762  28.055  21.316   7.660
 2303POPC   C1B30763  28.884  21.554   8.774
 2303POPC   C2B30764  28.847  21.326   8.452
 2303POPC   C3B30765  28.762  21.440   8.047
 2303POPC   C4B30766  28.424  21.728   7.862
 2304POPC   NC330767   6.560  26.675   9.498
 2304POPC   PO430768   6.997  27.183   9.325
 2304POPC   GL130769   6.808  26.844   9.097
 2304POPC   GL230770   6.439  26.937   9.065
 2304POPC   C1A30771   6.652  26.524   8.832
 2304POPC   D2A30772   6.485  26.719   8.477
 2304POPC   C3A30773   6.790  26.796   8.169
 2304POPC   C4A30774   6.744  26.668   7.736
 2304POPC   C1B30775   6.651  27.154   8.714
 2304POPC   C2B30776   6.497  27.218   8.298
 2304POPC   C3B30777   6.316  26.894   8.021
 2304POPC   C4B30778   6.219  26.698   7.645
 2305POPC   NC330779   1.931  42.442   9.414
 2305POPC   PO430780   1.990  41.838   9.202
 2305POPC   GL130781   2.063  42.220   8.971
 2305POPC   GL230782   1.722  42.398   8.964
 2305POPC   C1A30783   2.281  42.459   8.646
 2305POPC   D2A30784   2.181  42.511   8.233
 2305POPC   C3A30785   1.938  42.155   8.112
 2305POPC   C4A30786   2.046  42.093   7.726
 2305POPC   C1B30787   1.753  42.341   8.555
 2305POPC   C2B30788   1.676  42.613   8.208
 2305POPC   C3B30789   1.845  42.555   7.803
 2305POPC   C4B30790   1.623  42.355   7.433
 2306POPC   NC330791   2.132  26.140   9.386
 2306POPC   PO430792   1.578  25.643   9.272
 2306POPC   GL130793   1.861  25.893   9.051
 2306POPC   GL230794   2.228  25.855   8.967
 2306POPC   C1A30795   1.907  26.231   8.765
 2306POPC   D2A30796   1.765  26.244   8.347
 2306POPC   C3A30797   2.006  26.395   8.055
 2306POPC   C4A30798   2.140  26.360   7.664
 2306POPC   C1B30799   1.999  25.602   8.655
 2306POPC   C2B30800   1.857  25.709   8.235
 2306POPC   C3B30801   2.122  25.881   7.907
 2306POPC   C4B30802   2.251  25.730   7.512
 2307POPC   NC330803  36.593  35.906   9.405
 2307POPC   PO430804  37.153  36.283   9.537
 2307POPC   GL130805  37.053  36.208   9.139
 2307POPC   GL230806  36.966  35.855   9.049
 2307POPC   C1A30807  37.127  36.214   8.716
 2307POPC   D2A30808  36.856  36.287   8.404
 2307POPC   C3A30809  36.944  36.142   8.026
 2307POPC   C4A30810  36.985  36.056   7.590
 2307POPC   C1B30811  36.622  36.000   8.754
 2307POPC   C2B30812  36.504  35.922   8.291
 2307POPC   C3B30813  36.732  35.703   7.919
 2307POPC   C4B30814  36.636  35.724   7.452
 2308POPC   NC330815  40.267  27.834   9.503
 2308POPC   PO430816  39.617  27.651   9.428
 2308POPC   GL130817  39.936  27.764   9.101
 2308POPC   GL230818  40.282  27.556   9.077
 2308POPC   C1A30819  39.930  27.552   8.699
 2308POPC   D2A30820  39.762  27.430   8.308
 2308POPC   C3A30821  39.776  27.747   7.993
 2308POPC   C4A30822  39.830  27.496   7.633
 2308POPC   C1B30823  40.355  27.844   8.744
 2308POPC   C2B30824  40.163  27.837   8.322
 2308POPC   C3B30825  40.233  27.532   7.969
 2308POPC   C4B30826  40.320  27.700   7.585
 2309POPC   NC330827   5.312  21.200   9.767
 2309POPC   PO430828   4.920  21.665   9.516
 2309POPC   GL130829   5.041  21.272   9.271
 2309POPC   GL230830   5.398  21.237   9.211
 2309POPC   C1A30831   5.099  21.000   8.872
 2309POPC   D2A30832   5.222  21.076   8.431
 2309POPC   C3A30833   4.942  21.203   8.095
 2309POPC   C4A30834   5.056  21.349   7.688
 2309POPC   C1B30835   5.236  21.467   8.819
 2309POPC   C2B30836   5.021  21.567   8.457
 2309POPC   C3B30837   5.059  21.712   8.043
 2309POPC   C4B30838   4.905  21.908   7.682
 2310POPC   NC330839  15.614  42.768   9.436
 2310POPC   PO430840  15.729  42.055   9.348
 2310POPC   GL130841  16.060  42.192   9.078
 2310POPC   GL230842  15.968  42.531   9.136
 2310POPC   C1A30843  16.108  42.245   8.647
 2310POPC   D2A30844  15.899  42.361   8.260
 2310POPC   C3A30845  16.126  42.306   7.877
 2310POPC   C4A30846  16.109  42.061   7.490
 2310POPC   C1B30847  15.684  42.528   8.743
 2310POPC   C2B30848  15.698  42.826   8.373
 2310POPC   C3B30849  15.638  42.676   7.916
 2310POPC   C4B30850  15.716  42.354   7.610
 2311POPC   NC330851  20.161  40.716   9.323
 2311POPC   PO430852  19.616  41.123   9.325
 2311POPC   GL130853  19.715  40.803   9.051
 2311POPC   GL230854  19.654  40.490   9.215
 2311POPC   C1A30855  19.954  40.846   8.650
 2311POPC   D2A30856  19.923  40.978   8.205
 2311POPC   C3A30857  20.158  40.774   7.879
 2311POPC   C4A30858  20.066  40.856   7.445
 2311POPC   C1B30859  19.748  40.392   8.751
 2311POPC   C2B30860  19.971  40.435   8.332
 2311POPC   C3B30861  19.795  40.408   7.920
 2311POPC   C4B30862  19.664  40.584   7.540
 2312POPC   NC330863   0.566  38.064   9.574
 2312POPC   PO430864   0.580  38.676   9.774
 2312POPC   GL130865   0.568  38.585   9.291
 2312POPC   GL230866   0.618  38.243   9.088
 2312POPC   C1A30867   0.424  38.666   8.864
 2312POPC   D2A30868   0.645  38.794   8.484
 2312POPC   C3A30869   0.410  38.840   8.077
 2312POPC   C4A30870   0.336  38.496   7.753
 2312POPC   C1B30871   0.316  38.182   8.711
 2312POPC   C2B30872   0.226  38.125   8.256
 2312POPC   C3B30873   0.332  37.952   7.822
 2312POPC   C4B30874   0.599  38.103   7.455
 2313POPC   NC330875  34.752  43.108   9.646
 2313POPC   PO430876  34.645  42.523   9.877
 2313POPC   GL130877  34.824  42.710   9.345
 2313POPC   GL230878  34.678  43.047   9.158
 2313POPC   C1A30879  34.890  42.747   8.805
 2313POPC   D2A30880  34.893  43.018   8.368
 2313POPC   C3A30881  34.557  43.001   8.065
 2313POPC   C4A30882  34.373  42.726   7.779
 2313POPC   C1B30883  34.816  43.312   8.790
 2313POPC   C2B30884  34.909  43.549   8.393
 2313POPC   C3B30885  34.816  43.430   7.964
 2313POPC   C4B30886  34.572  43.201   7.581
 2314POPC   NC330887   7.935  25.752   9.641
 2314POPC   PO430888   8.377  26.119   9.598
 2314POPC   GL130889   8.084  26.024   9.229
 2314POPC   GL230890   8.118  26.277   8.998
 2314POPC   C1A30891   7.956  25.789   8.822
 2314POPC   D2A30892   7.766  25.871   8.384
 2314POPC   C3A30893   8.033  25.960   7.991
 2314POPC   C4A30894   8.442  25.832   7.832
 2314POPC   C1B30895   8.115  26.210   8.551
 2314POPC   C2B30896   8.447  26.166   8.252
 2314POPC   C3B30897   8.694  26.309   7.917
 2314POPC   C4B30898   8.640  26.172   7.496
 2315POPC   NC330899  23.949  18.503   9.589
 2315POPC   PO430900  23.593  18.006   9.530
 2315POPC   GL130901  23.525  18.299   9.182
 2315POPC   GL230902  23.770  18.564   9.119
 2315POPC   C1A30903  23.456  18.122   8.777
 2315POPC   D2A30904  23.734  18.022   8.481
 2315POPC   C3A30905  23.609  18.283   8.148
 2315POPC   C4A30906  23.617  18.487   7.760
 2315POPC   C1B30907  23.765  18.496   8.682
 2315POPC   C2B30908  24.062  18.405   8.353
 2315POPC   C3B30909  24.055  18.209   7.949
 2315POPC   C4B30910  24.165  18.535   7.730
 2316POPC   NC330911  44.343   5.550   9.562
 2316POPC   PO430912  44.700   6.160   9.545
 2316POPC   GL130913  44.665   5.820   9.269
 2316POPC   GL230914  44.331   5.978   9.205
 2316POPC   C1A30915  44.504   5.654   8.861
 2316POPC   D2A30916  44.425   5.748   8.430
 2316POPC   C3A30917  44.805   5.553   8.219
 2316POPC   C4A30918   0.075   5.350   7.905
 2316POPC   C1B30919  44.648   6.151   8.873
 2316POPC   C2B30920  44.856   6.082   8.451
 2316POPC   C3B30921  44.633   6.057   8.066
 2316POPC   C4B30922  44.495   5.721   7.861
 2317POPC   NC330923  34.055   5.142   9.648
 2317POPC   PO430924  33.499   4.792   9.520
 2317POPC   GL130925  33.817   4.968   9.223
 2317POPC   GL230926  34.048   4.802   9.006
 2317POPC   C1A30927  33.953   5.312   8.943
 2317POPC   D2A30928  33.815   5.426   8.518
 2317POPC   C3A30929  34.035   5.262   8.172
 2317POPC   C4A30930  33.752   5.155   7.845
 2317POPC   C1B30931  33.997   4.917   8.571
 2317POPC   C2B30932  34.114   4.690   8.210
 2317POPC   C3B30933  33.902   4.614   7.841
 2317POPC   C4B30934  33.497   4.695   7.794
 2318POPC   NC330935  29.439  15.745   9.800
 2318POPC   PO430936  29.688  15.228   9.434
 2318POPC   GL130937  29.764  15.133   9.057
 2318POPC   GL230938  30.094  15.099   9.014
 2318POPC   C1A30939  29.655  15.339   8.712
 2318POPC   D2A30940  29.765  15.525   8.368
 2318POPC   C3A30941  29.623  15.359   8.017
 2318POPC   C4A30942  29.496  15.188   7.662
 2318POPC   C1B30943  29.975  14.924   8.628
 2318POPC   C2B30944  29.965  15.036   8.205
 2318POPC   C3B30945  29.871  14.845   7.818
 2318POPC   C4B30946  30.007  14.869   7.402
 2319POPC   NC330947  18.898   4.009   9.463
 2319POPC   PO430948  19.367   4.556   9.494
 2319POPC   GL130949  19.168   4.661   9.132
 2319POPC   GL230950  19.053   4.326   9.093
 2319POPC   C1A30951  19.271   4.581   8.721
 2319POPC   D2A30952  19.187   4.293   8.436
 2319POPC   C3A30953  19.318   4.504   8.092
 2319POPC   C4A30954  19.096   4.374   7.770
 2319POPC   C1B30955  18.751   4.266   8.769
 2319POPC   C2B30956  18.676   4.037   8.394
 2319POPC   C3B30957  18.781   4.011   7.963
 2319POPC   C4B30958  18.596   4.300   7.691
 2320POPC   NC330959  29.857  13.866   9.548
 2320POPC   PO430960  30.177  13.279   9.789
 2320POPC   GL130961  30.018  13.412   9.318
 2320POPC   GL230962  29.854  13.696   9.078
 2320POPC   C1A30963  29.912  13.254   8.864
 2320POPC   D2A30964  29.874  13.492   8.520
 2320POPC   C3A30965  29.945  13.335   8.126
 2320POPC   C4A30966  29.918  13.577   7.779
 2320POPC   C1B30967  30.013  13.957   8.693
 2320POPC   C2B30968  30.016  13.910   8.208
 2320POPC   C3B30969  30.151  14.016   7.750
 2320POPC   C4B30970  30.035  13.979   7.254
 2321POPC   NC330971  31.062   5.003   9.479
 2321POPC   PO430972  30.460   4.961   9.437
 2321POPC   GL130973  30.553   5.193   9.047
 2321POPC   GL230974  30.896   5.343   9.123
 2321POPC   C1A30975  30.577   5.205   8.541
 2321POPC   D2A30976  30.476   4.935   8.118
 2321POPC   C3A30977  30.477   5.190   7.701
 2321POPC   C4A30978  30.464   5.322   7.220
 2321POPC   C1B30979  30.936   4.959   8.830
 2321POPC   C2B30980  31.063   5.084   8.409
 2321POPC   C3B30981  30.925   5.125   8.003
 2321POPC   C4B30982  30.836   4.821   7.711
 2322POPC   NC330983  26.517   5.021   9.559
 2322POPC   PO430984  27.125   5.330   9.517
 2322POPC   GL130985  26.870   5.308   9.198
 2322POPC   GL230986  27.024   5.605   9.046
 2322POPC   C1A30987  26.850   5.031   8.829
 2322POPC   D2A30988  26.931   4.840   8.434
 2322POPC   C3A30989  26.726   5.010   8.078
 2322POPC   C4A30990  26.638   4.979   7.686
 2322POPC   C1B30991  26.647   5.503   8.801
 2322POPC   C2B30992  26.717   5.366   8.420
 2322POPC   C3B30993  26.707   5.535   8.012
 2322POPC   C4B30994  26.938   5.435   7.654
 2323POPC   NC330995  42.490   5.874   9.528
 2323POPC   PO430996  41.843   6.132   9.602
 2323POPC   GL130997  42.030   5.969   9.201
 2323POPC   GL230998  42.369   6.039   9.084
 2323POPC   C1A30999  42.078   5.735   8.806
 2323POPC   D2A31000  42.388   5.649   8.498
 2323POPC   C3A31001  42.197   5.518   8.114
 2323POPC   C4A31002  42.320   5.730   7.750
 2323POPC   C1B31003  42.517   6.094   8.699
 2323POPC   C2B31004  42.601   6.268   8.296
 2323POPC   C3B31005  42.648   6.114   7.901
 2323POPC   C4B31006  42.816   5.685   7.875
 2324POPC   NC331007  40.318   8.302   9.407
 2324POPC   PO431008  39.642   8.366   9.550
 2324POPC   GL131009  39.855   8.328   9.138
 2324POPC   GL231010  40.086   8.588   9.078
 2324POPC   C1A31011  40.081   8.174   8.732
 2324POPC   D2A31012  40.239   7.930   8.364
 2324POPC   C3A31013  40.159   8.075   7.937
 2324POPC   C4A31014  39.839   8.224   7.637
 2324POPC   C1B31015  39.840   8.630   8.722
 2324POPC   C2B31016  39.906   8.458   8.300
 2324POPC   C3B31017  39.842   8.656   7.918
 2324POPC   C4B31018  39.481   8.631   7.650
 2325POPC   NC331019  25.734   5.306   9.429
 2325POPC   PO431020  26.091   4.860   9.700
 2325POPC   GL131021  26.095   4.965   9.263
 2325POPC   GL231022  25.898   4.764   9.047
 2325POPC   C1A31023  26.336   5.086   8.917
 2325POPC   D2A31024  26.409   4.976   8.510
 2325POPC   C3A31025  26.246   5.262   8.212
 2325POPC   C4A31026  26.241   5.278   7.777
 2325POPC   C1B31027  25.829   5.124   8.788
 2325POPC   C2B31028  25.739   5.169   8.360
 2325POPC   C3B31029  25.851   5.012   7.966
 2325POPC   C4B31030  25.730   5.205   7.609
 2326POPC   NC331031  11.777  11.469   9.622
 2326POPC   PO431032  12.321  11.068   9.555
 2326POPC   GL131033  12.234  11.233   9.170
 2326POPC   GL231034  12.152  11.577   9.239
 2326POPC   C1A31035  12.114  11.084   8.754
 2326POPC   D2A31036  12.280  11.064   8.341
 2326POPC   C3A31037  12.103  11.243   8.015
 2326POPC   C4A31038  12.195  11.195   7.588
 2326POPC   C1B31039  11.860  11.486   8.929
 2326POPC   C2B31040  11.803  11.448   8.474
 2326POPC   C3B31041  11.794  11.669   8.082
 2326POPC   C4B31042  11.781  11.481   7.680
 2327POPC   NC331043  16.040   1.770   9.499
 2327POPC   PO431044  15.656   2.242   9.337
 2327POPC   GL131045  15.916   2.017   9.064
 2327POPC   GL231046  16.195   2.250   8.996
 2327POPC   C1A31047  15.861   2.076   8.644
 2327POPC   D2A31048  15.665   1.949   8.303
 2327POPC   C3A31049  15.803   2.129   7.959
 2327POPC   C4A31050  15.690   1.885   7.642
 2327POPC   C1B31051  16.330   1.920   8.682
 2327POPC   C2B31052  16.182   1.882   8.269
 2327POPC   C3B31053  16.195   1.837   7.838
 2327POPC   C4B31054  16.141   1.853   7.386
 2328POPC   NC331055  10.598  29.630   9.442
 2328POPC   PO431056  10.339  30.183   9.351
 2328POPC   GL131057  10.569  30.054   9.046
 2328POPC   GL231058  10.961  30.110   9.081
 2328POPC   C1A31059  10.380  29.776   8.720
 2328POPC   D2A31060  10.503  29.599   8.322
 2328POPC   C3A31061  10.262  29.791   7.984
 2328POPC   C4A31062  10.314  29.565   7.633
 2328POPC   C1B31063  10.875  29.807   8.740
 2328POPC   C2B31064  10.689  30.061   8.397
 2328POPC   C3B31065  10.734  29.943   7.976
 2328POPC   C4B31066  10.544  30.024   7.570
 2329POPC   NC331067  24.573  34.939   9.270
 2329POPC   PO431068  24.267  34.397   9.559
 2329POPC   GL131069  24.578  34.422   9.181
 2329POPC   GL231070  24.431  34.629   8.910
 2329POPC   C1A31071  24.751  34.313   8.725
 2329POPC   D2A31072  24.442  34.387   8.372
 2329POPC   C3A31073  24.584  34.423   7.945
 2329POPC   C4A31074  24.783  34.689   7.680
 2329POPC   C1B31075  24.489  34.876   8.583
 2329POPC   C2B31076  24.759  34.810   8.294
 2329POPC   C3B31077  24.457  34.919   8.037
 2329POPC   C4B31078  24.270  34.756   7.690
 2330POPC   NC331079   5.481  39.094   9.588
 2330POPC   PO431080   4.913  39.090   9.978
 2330POPC   GL131081   4.987  39.143   9.387
 2330POPC   GL231082   5.278  39.251   9.148
 2330POPC   C1A31083   4.866  39.031   8.964
 2330POPC   D2A31084   5.078  39.263   8.629
 2330POPC   C3A31085   5.108  39.112   8.206
 2330POPC   C4A31086   5.030  38.987   7.806
 2330POPC   C1B31087   5.497  39.491   8.783
 2330POPC   C2B31088   5.398  39.554   8.292
 2330POPC   C3B31089   5.174  39.504   7.843
 2330POPC   C4B31090   5.246  39.626   7.372
 2331POPC   NC331091  43.020  39.439   9.501
 2331POPC   PO431092  43.692  39.150   9.526
 2331POPC   GL131093  43.387  39.271   9.227
 2331POPC   GL231094  43.162  39.013   9.177
 2331POPC   C1A31095  43.260  39.371   8.796
 2331POPC   D2A31096  43.033  39.250   8.430
 2331POPC   C3A31097  43.167  39.378   8.079
 2331POPC   C4A31098  43.039  39.370   7.704
 2331POPC   C1B31099  43.033  38.858   8.765
 2331POPC   C2B31100  43.015  38.726   8.322
 2331POPC   C3B31101  43.041  38.869   7.883
 2331POPC   C4B31102  43.160  38.761   7.436
 2332POPC   NC331103  29.018  13.910   9.442
 2332POPC   PO431104  28.773  14.475   9.648
 2332POPC   GL131105  29.029  14.407   9.262
 2332POPC   GL231106  28.830  14.199   9.002
 2332POPC   C1A31107  29.292  14.353   8.870
 2332POPC   D2A31108  29.299  14.498   8.440
 2332POPC   C3A31109  29.199  14.282   8.079
 2332POPC   C4A31110  29.350  14.340   7.675
 2332POPC   C1B31111  28.896  14.679   8.851
 2332POPC   C2B31112  28.996  14.894   8.470
 2332POPC   C3B31113  28.887  14.707   8.095
 2332POPC   C4B31114  28.842  14.454   7.730
 2333POPC   NC331115  31.345  44.881   9.641
 2333POPC   PO431116  31.392  44.327   9.565
 2333POPC   GL131117  31.535  44.593   9.185
 2333POPC   GL231118  31.370  44.901   9.121
 2333POPC   C1A31119  31.616  44.659   8.693
 2333POPC   D2A31120  31.711  44.370   8.312
 2333POPC   C3A31121  31.565  44.507   7.894
 2333POPC   C4A31122  31.724  44.802   7.585
 2333POPC   C1B31123  31.293   0.102   8.712
 2333POPC   C2B31124  31.172   0.113   8.281
 2333POPC   C3B31125  31.289  44.958   7.876
 2333POPC   C4B31126  31.092  44.595   7.681
 2334POPC   NC331127  20.331  37.542   9.521
 2334POPC   PO431128  19.621  37.771   9.552
 2334POPC   GL131129  19.834  37.596   9.245
 2334POPC   GL231130  20.085  37.803   9.179
 2334POPC   C1A31131  19.773  37.550   8.794
 2334POPC   D2A31132  19.846  37.746   8.370
 2334POPC   C3A31133  20.075  37.550   8.035
 2334POPC   C4A31134  19.847  37.229   7.816
 2334POPC   C1B31135  20.282  37.591   8.834
 2334POPC   C2B31136  20.357  37.847   8.486
 2334POPC   C3B31137  20.191  38.055   8.130
 2334POPC   C4B31138  20.154  37.961   7.695
 2335POPC   NC331139  40.571  29.438   9.669
 2335POPC   PO431140  40.901  28.791   9.519
 2335POPC   GL131141  40.876  28.984   9.122
 2335POPC   GL231142  40.721  29.309   9.163
 2335POPC   C1A31143  41.037  29.106   8.688
 2335POPC   D2A31144  40.958  29.311   8.280
 2335POPC   C3A31145  41.040  28.981   7.941
 2335POPC   C4A31146  40.982  28.928   7.470
 2335POPC   C1B31147  40.529  29.148   8.758
 2335POPC   C2B31148  40.408  29.258   8.342
 2335POPC   C3B31149  40.570  29.171   7.956
 2335POPC   C4B31150  40.811  29.390   7.691
 2336POPC   NC331151  37.026  40.604   9.680
 2336POPC   PO431152  37.330  41.230   9.519
 2336POPC   GL131153  37.077  40.931   9.227
 2336POPC   GL231154  36.732  41.053   9.100
 2336POPC   C1A31155  36.955  40.626   8.892
 2336POPC   D2A31156  37.068  40.532   8.438
 2336POPC   C3A31157  36.791  40.741   8.153
 2336POPC   C4A31158  36.783  40.753   7.697
 2336POPC   C1B31159  36.922  41.103   8.705
 2336POPC   C2B31160  37.158  41.049   8.341
 2336POPC   C3B31161  36.966  41.167   7.945
 2336POPC   C4B31162  36.515  41.202   7.871
 2337POPC   NC331163  37.093  21.896   9.396
 2337POPC   PO431164  36.781  22.507   9.342
 2337POPC   GL131165  36.895  22.230   9.000
 2337POPC   GL231166  36.908  21.826   8.934
 2337POPC   C1A31167  36.878  22.188   8.551
 2337POPC   D2A31168  37.042  21.812   8.404
 2337POPC   C3A31169  37.147  21.843   7.991
 2337POPC   C4A31170  36.950  22.227   7.830
 2337POPC   C1B31171  36.517  21.872   8.727
 2337POPC   C2B31172  36.334  21.960   8.312
 2337POPC   C3B31173  36.512  22.252   8.088
 2337POPC   C4B31174  36.520  22.638   7.952
 2338POPC   NC331175  41.423  29.869   9.515
 2338POPC   PO431176  41.982  30.146   9.186
 2338POPC   GL131177  41.876  29.742   9.045
 2338POPC   GL231178  41.547  29.747   9.047
 2338POPC   C1A31179  41.838  29.705   8.599
 2338POPC   D2A31180  41.890  30.118   8.391
 2338POPC   C3A31181  41.687  30.131   8.017
 2338POPC   C4A31182  41.626  29.784   7.773
 2338POPC   C1B31183  41.474  30.044   8.738
 2338POPC   C2B31184  41.342  30.264   8.388
 2338POPC   C3B31185  41.284  30.424   7.990
 2338POPC   C4B31186  41.304  30.181   7.620
 2339POPC   NC331187  39.754  31.107   9.443
 2339POPC   PO431188  40.150  30.511   9.574
 2339POPC   GL131189  40.094  30.777   9.231
 2339POPC   GL231190  39.744  30.655   9.127
 2339POPC   C1A31191  40.063  30.843   8.782
 2339POPC   D2A31192  40.092  30.636   8.395
 2339POPC   C3A31193  39.891  30.838   8.064
 2339POPC   C4A31194  40.096  30.837   7.664
 2339POPC   C1B31195  39.583  30.485   8.723
 2339POPC   C2B31196  39.645  30.402   8.267
 2339POPC   C3B31197  39.916  30.359   7.876
 2339POPC   C4B31198  39.842  30.459   7.388
 2340POPC   NC331199   4.670  31.178   9.422
 2340POPC   PO431200   5.249  30.869   9.445
 2340POPC   GL131201   5.221  30.676   9.037
 2340POPC   GL231202   5.302  31.026   8.936
 2340POPC   C1A31203   5.274  30.664   8.578
 2340POPC   D2A31204   5.161  30.975   8.291
 2340POPC   C3A31205   4.983  30.702   8.015
 2340POPC   C4A31206   5.140  30.590   7.631
 2340POPC   C1B31207   4.862  30.955   8.739
 2340POPC   C2B31208   4.641  31.014   8.318
 2340POPC   C3B31209   4.825  31.139   7.899
 2340POPC   C4B31210   4.863  30.984   7.461
 2341POPC   NC331211  40.046  41.174   9.213
 2341POPC   PO431212  39.793  40.660   9.575
 2341POPC   GL131213  40.012  40.533   9.150
 2341POPC   GL231214  40.167  40.753   8.921
 2341POPC   C1A31215  39.910  40.392   8.704
 2341POPC   D2A31216  39.667  40.539   8.360
 2341POPC   C3A31217  39.889  40.510   7.970
 2341POPC   C4A31218  39.998  40.825   7.670
 2341POPC   C1B31219  40.081  40.912   8.516
 2341POPC   C2B31220  40.297  40.975   8.146
 2341POPC   C3B31221  40.416  41.196   7.810
 2341POPC   C4B31222  40.344  41.102   7.402
 2342POPC   NC331223  16.247   1.134   9.399
 2342POPC   PO431224  15.698   1.462   9.562
 2342POPC   GL131225  15.852   1.457   9.138
 2342POPC   GL231226  15.820   1.110   9.069
 2342POPC   C1A31227  15.904   1.560   8.698
 2342POPC   D2A31228  15.873   1.244   8.360
 2342POPC   C3A31229  15.693   1.117   7.976
 2342POPC   C4A31230  15.933   1.414   7.713
 2342POPC   C1B31231  16.152   1.094   8.758
 2342POPC   C2B31232  16.268   0.875   8.379
 2342POPC   C3B31233  16.202   1.040   7.971
 2342POPC   C4B31234  16.332   1.156   7.551
 2343POPC   NC331235  29.795  41.096   9.463
 2343POPC   PO431236  29.989  40.516   9.720
 2343POPC   GL131237  29.913  40.662   9.244
 2343POPC   GL231238  29.622  40.573   9.063
 2343POPC   C1A31239  29.983  40.844   8.809
 2343POPC   D2A31240  30.195  41.004   8.422
 2343POPC   C3A31241  30.014  40.963   8.001
 2343POPC   C4A31242  30.106  40.665   7.739
 2343POPC   C1B31243  29.507  40.699   8.681
 2343POPC   C2B31244  29.773  40.671   8.352
 2343POPC   C3B31245  29.658  40.577   7.968
 2343POPC   C4B31246  29.489  40.824   7.696
 2344POPC   NC331247   4.526  32.811   9.384
 2344POPC   PO431248   4.248  32.255   9.691
 2344POPC   GL131249   4.322  32.218   9.230
 2344POPC   GL231250   4.286  32.525   9.078
 2344POPC   C1A31251   4.127  32.160   8.786
 2344POPC   D2A31252   3.985  32.049   8.364
 2344POPC   C3A31253   4.222  32.029   7.986
 2344POPC   C4A31254   4.338  32.211   7.561
 2344POPC   C1B31255   4.592  32.375   8.787
 2344POPC   C2B31256   4.428  32.340   8.379
 2344POPC   C3B31257   4.598  32.381   7.980
 2344POPC   C4B31258   4.699  32.601   7.611
 2345POPC   NC331259  18.633   8.012   9.529
 2345POPC   PO431260  19.308   8.195   9.565
 2345POPC   GL131261  19.161   7.968   9.224
 2345POPC   GL231262  18.935   8.166   9.143
 2345POPC   C1A31263  19.206   7.856   8.786
 2345POPC   D2A31264  19.278   7.750   8.347
 2345POPC   C3A31265  19.159   7.994   7.987
 2345POPC   C4A31266  19.457   7.889   7.669
 2345POPC   C1B31267  18.848   8.232   8.734
 2345POPC   C2B31268  19.081   8.341   8.358
 2345POPC   C3B31269  18.985   8.553   7.963
 2345POPC   C4B31270  18.590   8.546   7.722
 2346POPC   NC331271  38.921  32.143   9.573
 2346POPC   PO431272  39.576  32.206   9.548
 2346POPC   GL131273  39.336  32.371   9.197
 2346POPC   GL231274  39.193  32.711   9.199
 2346POPC   C1A31275  39.174  32.204   8.811
 2346POPC   D2A31276  38.813  32.178   8.530
 2346POPC   C3A31277  38.886  32.125   8.090
 2346POPC   C4A31278  38.965  32.303   7.691
 2346POPC   C1B31279  39.319  32.705   8.755
 2346POPC   C2B31280  39.259  32.440   8.372
 2346POPC   C3B31281  39.377  32.233   7.975
 2346POPC   C4B31282  39.466  32.481   7.625
 2347POPC   NC331283  33.944   4.471   9.376
 2347POPC   PO431284  33.535   3.919   9.586
 2347POPC   GL131285  33.511   4.099   9.161
 2347POPC   GL231286  33.511   4.471   9.118
 2347POPC   C1A31287  33.659   4.040   8.740
 2347POPC   D2A31288  33.991   4.202   8.469
 2347POPC   C3A31289  34.076   3.996   8.083
 2347POPC   C4A31290  33.986   4.038   7.629
 2347POPC   C1B31291  33.680   4.551   8.721
 2347POPC   C2B31292  33.621   4.521   8.284
 2347POPC   C3B31293  33.619   4.207   7.958
 2347POPC   C4B31294  33.513   4.262   7.512
 2348POPC   NC331295  18.070  40.775   9.454
 2348POPC   PO431296  18.734  40.663   9.432
 2348POPC   GL131297  18.436  40.609   9.104
 2348POPC   GL231298  18.393  40.974   9.082
 2348POPC   C1A31299  18.347  40.483   8.662
 2348POPC   D2A31300  18.492  40.750   8.286
 2348POPC   C3A31301  18.339  40.590   7.906
 2348POPC   C4A31302  18.386  40.503   7.467
 2348POPC   C1B31303  18.242  40.969   8.671
 2348POPC   C2B31304  18.141  41.121   8.273
 2348POPC   C3B31305  18.271  41.081   7.875
 2348POPC   C4B31306  18.187  40.953   7.462
 2349POPC   NC331307   2.959  18.616   9.360
 2349POPC   PO431308   2.654  19.288   9.492
 2349POPC   GL131309   2.670  19.037   9.182
 2349POPC   GL231310   3.008  19.082   9.124
 2349POPC   C1A31311   2.595  18.808   8.829
 2349POPC   D2A31312   2.511  18.902   8.428
 2349POPC   C3A31313   2.774  18.949   8.144
 2349POPC   C4A31314   2.979  18.752   7.822
 2349POPC   C1B31315   3.108  18.878   8.735
 2349POPC   C2B31316   3.268  18.848   8.307
 2349POPC   C3B31317   3.203  19.194   8.054
 2349POPC   C4B31318   3.095  19.246   7.642
 2350POPC   NC331319  32.239   9.557   9.349
 2350POPC   PO431320  31.761   9.978   9.526
 2350POPC   GL131321  31.970   9.936   9.115
 2350POPC   GL231322  32.368  10.004   9.116
 2350POPC   C1A31323  32.116   9.925   8.681
 2350POPC   D2A31324  32.405  10.016   8.343
 2350POPC   C3A31325  32.226   9.936   7.947
 2350POPC   C4A31326  31.962   9.806   7.602
 2350POPC   C1B31327  32.612   9.740   8.773
 2350POPC   C2B31328  32.543   9.522   8.352
 2350POPC   C3B31329  32.579   9.587   7.917
 2350POPC   C4B31330  32.420   9.360   7.558
 2351POPC   NC331331  16.134  41.814   9.410
 2351POPC   PO431332  15.839  41.149   9.517
 2351POPC   GL131333  15.813  41.479   9.176
 2351POPC   GL231334  16.142  41.368   9.143
 2351POPC   C1A31335  15.982  41.726   8.774
 2351POPC   D2A31336  16.209  41.741   8.359
 2351POPC   C3A31337  15.974  41.816   7.943
 2351POPC   C4A31338  15.741  41.693   7.513
 2351POPC   C1B31339  15.962  41.214   8.736
 2351POPC   C2B31340  16.053  41.221   8.289
 2351POPC   C3B31341  15.932  41.315   7.849
 2351POPC   C4B31342  16.017  41.186   7.414
 2352POPC   NC331343  10.690   6.148   9.333
 2352POPC   PO431344  10.074   5.895   9.583
 2352POPC   GL131345  10.292   5.807   9.140
 2352POPC   GL231346  10.654   5.741   9.007
 2352POPC   C1A31347  10.247   5.768   8.658
 2352POPC   D2A31348  10.548   5.810   8.273
 2352POPC   C3A31349  10.447   5.791   7.811
 2352POPC   C4A31350  10.358   5.529   7.387
 2352POPC   C1B31351  10.664   6.078   8.703
 2352POPC   C2B31352  10.911   6.250   8.409
 2352POPC   C3B31353  10.686   6.268   8.054
 2352POPC   C4B31354  10.813   6.259   7.678
 2353POPC   NC331355  28.483  21.800   9.544
 2353POPC   PO431356  28.121  22.287   9.693
 2353POPC   GL131357  28.338  22.175   9.232
 2353POPC   GL231358  28.670  22.140   9.210
 2353POPC   C1A31359  28.324  22.256   8.752
 2353POPC   D2A31360  28.261  22.003   8.383
 2353POPC   C3A31361  28.171  22.149   7.989
 2353POPC   C4A31362  28.269  22.175   7.547
 2353POPC   C1B31363  28.790  22.052   8.791
 2353POPC   C2B31364  28.776  21.858   8.367
 2353POPC   C3B31365  28.891  21.942   7.934
 2353POPC   C4B31366  28.871  22.345   7.679
 2354POPC   NC331367  14.633  22.681   9.326
 2354POPC   PO431368  14.351  23.235   9.555
 2354POPC   GL131369  14.289  23.084   9.150
 2354POPC   GL231370  14.192  22.745   9.064
 2354POPC   C1A31371  14.358  23.060   8.709
 2354POPC   D2A31372  14.532  23.065   8.335
 2354POPC   C3A31373  14.255  23.034   8.022
 2354POPC   C4A31374  14.338  22.867   7.640
 2354POPC   C1B31375  14.010  22.659   8.670
 2354POPC   C2B31376  13.885  22.706   8.235
 2354POPC   C3B31377  13.939  22.597   7.792
 2354POPC   C4B31378  14.094  22.529   7.360
 2355POPC   NC331379  28.125  29.353   9.557
 2355POPC   PO431380  28.697  29.043   9.378
 2355POPC   GL131381  28.325  29.119   9.148
 2355POPC   GL231382  28.319  29.480   9.094
 2355POPC   C1A31383  28.135  29.124   8.754
 2355POPC   D2A31384  28.401  29.132   8.412
 2355POPC   C3A31385  28.148  29.042   8.061
 2355POPC   C4A31386  27.992  29.139   7.668
 2355POPC   C1B31387  28.482  29.601   8.677
 2355POPC   C2B31388  28.469  29.587   8.188
 2355POPC   C3B31389  28.441  29.367   7.786
 2355POPC   C4B31390  28.663  29.314   7.366
 2356POPC   NC331391  42.169  31.316   9.360
 2356POPC   PO431392  42.422  31.903   9.556
 2356POPC   GL131393  42.490  31.684   9.175
 2356POPC   GL231394  42.748  31.442   9.213
 2356POPC   C1A31395  42.401  31.532   8.746
 2356POPC   D2A31396  42.533  31.642   8.326
 2356POPC   C3A31397  42.277  31.678   7.977
 2356POPC   C4A31398  42.183  31.405   7.658
 2356POPC   C1B31399  42.898  31.296   8.787
 2356POPC   C2B31400  42.897  31.256   8.324
 2356POPC   C3B31401  42.631  31.253   7.960
 2356POPC   C4B31402  42.642  31.244   7.486
 2357POPC   NC331403   6.319  35.212   9.347
 2357POPC   PO431404   6.372  34.646   9.684
 2357POPC   GL131405   6.494  34.707   9.218
 2357POPC   GL231406   6.645  35.014   9.030
 2357POPC   C1A31407   6.654  34.536   8.811
 2357POPC   D2A31408   6.858  34.489   8.415
 2357POPC   C3A31409   6.790  34.746   8.053
 2357POPC   C4A31410   6.592  34.496   7.781
 2357POPC   C1B31411   6.289  34.880   8.766
 2357POPC   C2B31412   6.358  34.751   8.358
 2357POPC   C3B31413   6.311  34.907   7.966
 2357POPC   C4B31414   6.310  34.850   7.535
 2358POPC   NC331415  38.637  44.202   9.456
 2358POPC   PO431416  38.181  43.680   9.427
 2358POPC   GL131417  38.571  43.726   9.173
 2358POPC   GL231418  38.955  43.731   9.096
 2358POPC   C1A31419  38.535  43.893   8.778
 2358POPC   D2A31420  38.234  43.904   8.453
 2358POPC   C3A31421  38.360  44.070   8.069
 2358POPC   C4A31422  38.244  43.900   7.658
 2358POPC   C1B31423  39.015  44.034   8.693
 2358POPC   C2B31424  38.877  44.030   8.231
 2358POPC   C3B31425  38.735  43.803   7.859
 2358POPC   C4B31426  38.705  43.883   7.411
 2359POPC   NC331427  22.907  38.219   9.497
 2359POPC   PO431428  22.809  38.845   9.352
 2359POPC   GL131429  22.946  38.532   9.072
 2359POPC   GL231430  23.070  38.222   9.025
 2359POPC   C1A31431  23.041  38.570   8.658
 2359POPC   D2A31432  22.768  38.562   8.367
 2359POPC   C3A31433  22.943  38.608   8.001
 2359POPC   C4A31434  22.750  38.539   7.633
 2359POPC   C1B31435  23.256  38.099   8.654
 2359POPC   C2B31436  23.270  38.276   8.259
 2359POPC   C3B31437  23.163  38.174   7.829
 2359POPC   C4B31438  23.202  38.048   7.425
 2360POPC   NC331439  25.125  28.372   9.593
 2360POPC   PO431440  25.747  28.390   9.318
 2360POPC   GL131441  25.476  28.480   9.004
 2360POPC   GL231442  25.080  28.542   9.093
 2360POPC   C1A31443  25.581  28.447   8.585
 2360POPC   D2A31444  25.358  28.224   8.296
 2360POPC   C3A31445  25.295  28.512   7.965
 2360POPC   C4A31446  25.355  28.339   7.540
 2360POPC   C1B31447  25.085  28.259   8.743
 2360POPC   C2B31448  24.824  28.115   8.420
 2360POPC   C3B31449  24.923  28.160   8.015
 2360POPC   C4B31450  24.879  28.476   7.689
 2361POPC   NC331451  32.274  27.995   9.877
 2361POPC   PO431452  32.409  28.487   9.430
 2361POPC   GL131453  32.358  28.453   9.057
 2361POPC   GL231454  32.025  28.395   9.047
 2361POPC   C1A31455  32.505  28.287   8.709
 2361POPC   D2A31456  32.485  28.512   8.342
 2361POPC   C3A31457  32.429  28.229   8.005
 2361POPC   C4A31458  32.624  28.216   7.625
 2361POPC   C1B31459  31.837  28.711   8.739
 2361POPC   C2B31460  31.929  28.884   8.311
 2361POPC   C3B31461  32.129  28.650   7.981
 2361POPC   C4B31462  32.091  28.422   7.566
 2362POPC   NC331463   3.205  35.755   9.391
 2362POPC   PO431464   2.808  36.249   9.630
 2362POPC   GL131465   2.794  36.053   9.235
 2362POPC   GL231466   3.100  36.233   9.221
 2362POPC   C1A31467   2.742  35.881   8.811
 2362POPC   D2A31468   2.483  35.811   8.435
 2362POPC   C3A31469   2.643  35.904   8.003
 2362POPC   C4A31470   2.851  35.862   7.591
 2362POPC   C1B31471   3.067  36.308   8.805
 2362POPC   C2B31472   2.937  36.149   8.405
 2362POPC   C3B31473   2.968  36.308   8.007
 2362POPC   C4B31474   3.216  36.310   7.672
 2363POPC   NC331475  42.590   3.377   9.485
 2363POPC   PO431476  42.012   3.816   9.422
 2363POPC   GL131477  42.294   3.636   9.134
 2363POPC   GL231478  42.222   3.292   9.146
 2363POPC   C1A31479  42.629   3.533   8.826
 2363POPC   D2A31480  42.857   3.502   8.419
 2363POPC   C3A31481  42.744   3.591   7.962
 2363POPC   C4A31482  42.528   3.569   7.584
 2363POPC   C1B31483  42.109   3.349   8.739
 2363POPC   C2B31484  42.340   3.381   8.404
 2363POPC   C3B31485  42.268   3.432   8.016
 2363POPC   C4B31486  42.242   3.179   7.669
 2364POPC   NC331487  27.033   9.318   9.541
 2364POPC   PO431488  26.544   8.863   9.381
 2364POPC   GL131489  26.665   8.953   8.990
 2364POPC   GL231490  26.951   9.111   9.073
 2364POPC   C1A31491  26.750   8.892   8.541
 2364POPC   D2A31492  26.575   9.199   8.273
 2364POPC   C3A31493  26.466   9.068   7.881
 2364POPC   C4A31494  26.835   8.946   7.610
 2364POPC   C1B31495  26.932   9.347   8.666
 2364POPC   C2B31496  27.229   9.316   8.310
 2364POPC   C3B31497  27.173   8.965   8.014
 2364POPC   C4B31498  27.169   8.575   7.793
 2365POPC   NC331499  40.783  17.100   9.448
 2365POPC   PO431500  40.881  16.406   9.306
 2365POPC   GL131501  40.720  16.732   9.069
 2365POPC   GL231502  41.005  16.947   9.020
 2365POPC   C1A31503  40.703  16.650   8.651
 2365POPC   D2A31504  40.904  16.383   8.358
 2365POPC   C3A31505  40.685  16.451   7.995
 2365POPC   C4A31506  40.719  16.792   7.749
 2365POPC   C1B31507  41.229  16.769   8.688
 2365POPC   C2B31508  41.325  16.921   8.293
 2365POPC   C3B31509  41.149  16.707   8.010
 2365POPC   C4B31510  41.218  16.676   7.616
 2366POPC   NC331511  13.325  23.540   9.473
 2366POPC   PO431512  12.691  23.606   9.559
 2366POPC   GL131513  12.909  23.645   9.169
 2366POPC   GL231514  13.157  23.863   9.061
 2366POPC   C1A31515  12.940  23.538   8.746
 2366POPC   D2A31516  12.609  23.635   8.474
 2366POPC   C3A31517  12.703  23.664   8.033
 2366POPC   C4A31518  12.850  23.420   7.659
 2366POPC   C1B31519  13.338  23.840   8.689
 2366POPC   C2B31520  13.082  23.832   8.355
 2366POPC   C3B31521  13.063  24.003   7.997
 2366POPC   C4B31522  13.255  23.789   7.689
 2367POPC   NC331523   0.296   8.571   9.421
 2367POPC   PO431524   0.510   7.917   9.420
 2367POPC   GL131525   0.159   8.077   9.126
 2367POPC   GL231526  44.905   8.325   9.232
 2367POPC   C1A31527   0.155   7.972   8.684
 2367POPC   D2A31528   0.564   7.985   8.458
 2367POPC   C3A31529   0.685   8.274   8.147
 2367POPC   C4A31530   0.626   8.024   7.815
 2367POPC   C1B31531  44.921   8.430   8.780
 2367POPC   C2B31532   0.189   8.395   8.369
 2367POPC   C3B31533   0.235   8.368   7.892
 2367POPC   C4B31534   0.242   8.448   7.431
 2368POPC   NC331535  25.795  12.358   9.572
 2368POPC   PO431536  26.332  11.952   9.349
 2368POPC   GL131537  26.231  11.989   8.960
 2368POPC   GL231538  25.899  12.063   8.976
 2368POPC   C1A31539  26.167  12.101   8.534
 2368POPC   D2A31540  26.129  12.446   8.256
 2368POPC   C3A31541  26.096  12.349   7.862
 2368POPC   C4A31542  26.098  12.210   7.456
 2368POPC   C1B31543  25.614  12.017   8.628
 2368POPC   C2B31544  25.748  12.086   8.211
 2368POPC   C3B31545  25.962  11.832   7.932
 2368POPC   C4B31546  25.648  11.665   7.666
 2369POPC   NC331547  25.717  35.826   9.818
 2369POPC   PO431548  25.791  36.191   9.259
 2369POPC   GL131549  25.833  36.066   8.874
 2369POPC   GL231550  26.179  36.118   8.879
 2369POPC   C1A31551  25.901  35.788   8.535
 2369POPC   D2A31552  26.171  35.968   8.258
 2369POPC   C3A31553  26.010  36.167   7.922
 2369POPC   C4A31554  25.676  36.346   7.728
 2369POPC   C1B31555  26.457  35.859   8.668
 2369POPC   C2B31556  26.637  35.777   8.244
 2369POPC   C3B31557  26.433  35.863   7.824
 2369POPC   C4B31558  26.236  36.150   7.473
 2370POPC   NC331559  14.671   8.277   9.407
 2370POPC   PO431560  14.023   8.036   9.379
 2370POPC   GL131561  14.340   8.111   9.062
 2370POPC   GL231562  14.543   7.835   9.148
 2370POPC   C1A31563  14.553   8.430   8.763
 2370POPC   D2A31564  14.416   8.634   8.361
 2370POPC   C3A31565  14.520   8.389   8.012
 2370POPC   C4A31566  14.500   8.112   7.689
 2370POPC   C1B31567  14.765   7.937   8.808
 2370POPC   C2B31568  14.651   8.054   8.415
 2370POPC   C3B31569  14.485   7.795   8.099
 2370POPC   C4B31570  14.601   7.623   7.693
 2371POPC   NC331571  27.066   2.143   9.624
 2371POPC   PO431572  26.507   1.987   9.516
 2371POPC   GL131573  26.818   2.153   9.190
 2371POPC   GL231574  27.073   1.902   9.146
 2371POPC   C1A31575  26.758   2.269   8.751
 2371POPC   D2A31576  26.590   2.131   8.364
 2371POPC   C3A31577  26.793   2.052   7.961
 2371POPC   C4A31578  26.791   2.283   7.573
 2371POPC   C1B31579  26.936   1.795   8.699
 2371POPC   C2B31580  26.768   1.648   8.283
 2371POPC   C3B31581  26.506   1.512   7.907
 2371POPC   C4B31582  26.602   1.427   7.452
 2372POPC   NC331583  16.298  41.066   9.560
 2372POPC   PO431584  16.951  40.930   9.610
 2372POPC   GL131585  16.736  41.012   9.217
 2372POPC   GL231586  17.051  40.890   9.087
 2372POPC   C1A31587  16.594  40.795   8.793
 2372POPC   D2A31588  16.629  40.469   8.443
 2372POPC   C3A31589  16.879  40.561   8.050
 2372POPC   C4A31590  16.683  40.697   7.658
 2372POPC   C1B31591  16.948  41.139   8.756
 2372POPC   C2B31592  16.959  40.939   8.380
 2372POPC   C3B31593  16.877  41.104   7.988
 2372POPC   C4B31594  16.965  41.147   7.587
 2373POPC   NC331595  44.925  41.488   9.432
 2373POPC   PO431596  44.273  41.788   9.442
 2373POPC   GL131597  44.523  41.620   9.095
 2373POPC   GL231598  44.699  41.285   9.030
 2373POPC   C1A31599  44.851  41.734   8.815
 2373POPC   D2A31600  44.895  41.842   8.396
 2373POPC   C3A31601  44.782  41.534   8.125
 2373POPC   C4A31602  44.895  41.553   7.710
 2373POPC   C1B31603  44.658  41.321   8.590
 2373POPC   C2B31604  44.311  41.486   8.415
 2373POPC   C3B31605  44.292  41.658   7.986
 2373POPC   C4B31606  44.459  41.326   7.761
 2374POPC   NC331607  42.504  22.825   9.574
 2374POPC   PO431608  41.903  23.165   9.600
 2374POPC   GL131609  42.160  23.242   9.229
 2374POPC   GL231610  42.204  22.895   9.173
 2374POPC   C1A31611  42.226  23.190   8.759
 2374POPC   D2A31612  42.574  23.166   8.468
 2374POPC   C3A31613  42.481  23.015   8.081
 2374POPC   C4A31614  42.637  23.030   7.671
 2374POPC   C1B31615  42.442  22.705   8.822
 2374POPC   C2B31616  42.322  22.642   8.393
 2374POPC   C3B31617  42.484  22.524   7.994
 2374POPC   C4B31618  42.339  22.543   7.568
 2375POPC   NC331619   0.066  19.283   9.287
 2375POPC   PO431620   0.708  18.922   9.414
 2375POPC   GL131621   0.489  18.921   9.072
 2375POPC   GL231622   0.753  19.129   8.950
 2375POPC   C1A31623   0.561  18.712   8.689
 2375POPC   D2A31624   0.698  19.012   8.432
 2375POPC   C3A31625   0.330  19.174   8.196
 2375POPC   C4A31626   0.259  19.127   7.756
 2375POPC   C1B31627   0.873  19.452   8.718
 2375POPC   C2B31628   0.724  19.498   8.298
 2375POPC   C3B31629   0.715  19.368   7.867
 2375POPC   C4B31630   0.685  19.154   7.459
 2376POPC   NC331631   7.548  17.000   9.581
 2376POPC   PO431632   7.121  16.500   9.661
 2376POPC   GL131633   7.288  16.540   9.214
 2376POPC   GL231634   7.548  16.768   9.141
 2376POPC   C1A31635   7.207  16.752   8.779
 2376POPC   D2A31636   7.421  16.714   8.368
 2376POPC   C3A31637   7.337  16.776   7.941
 2376POPC   C4A31638   7.033  16.528   7.723
 2376POPC   C1B31639   7.708  16.899   8.745
 2376POPC   C2B31640   7.676  17.171   8.370
 2376POPC   C3B31641   7.820  17.044   7.974
 2376POPC   C4B31642   7.713  16.848   7.579
 2377POPC   NC331643   7.301  21.441   9.508
 2377POPC   PO431644   6.883  21.712   9.112
 2377POPC   GL131645   7.171  21.421   8.997
 2377POPC   GL231646   7.531  21.414   9.070
 2377POPC   C1A31647   7.289  21.594   8.620
 2377POPC   D2A31648   7.470  21.533   8.280
 2377POPC   C3A31649   7.212  21.520   7.974
 2377POPC   C4A31650   7.151  21.141   7.741
 2377POPC   C1B31651   7.714  21.335   8.690
 2377POPC   C2B31652   7.733  21.114   8.262
 2377POPC   C3B31653   7.700  21.325   7.837
 2377POPC   C4B31654   7.736  21.287   7.377
 2378POPC   NC331655   3.155  19.379   9.533
 2378POPC   PO431656   3.684  19.826   9.339
 2378POPC   GL131657   3.460  19.756   9.018
 2378POPC   GL231658   3.410  19.426   9.089
 2378POPC   C1A31659   3.473  19.739   8.604
 2378POPC   D2A31660   3.515  20.025   8.292
 2378POPC   C3A31661   3.733  19.956   7.915
 2378POPC   C4A31662   3.954  20.017   7.510
 2378POPC   C1B31663   3.109  19.419   8.774
 2378POPC   C2B31664   3.024  19.562   8.368
 2378POPC   C3B31665   3.235  19.699   8.003
 2378POPC   C4B31666   3.453  19.673   7.604
 2379POPC   NC331667  31.118  37.178   9.433
 2379POPC   PO431668  31.501  36.566   9.547
 2379POPC   GL131669  31.628  36.709   9.193
 2379POPC   GL231670  31.620  37.053   9.300
 2379POPC   C1A31671  31.546  36.635   8.761
 2379POPC   D2A31672  31.363  36.963   8.529
 2379POPC   C3A31673  31.470  36.916   8.117
 2379POPC   C4A31674  31.404  36.614   7.815
 2379POPC   C1B31675  31.712  37.100   8.880
 2379POPC   C2B31676  31.885  37.087   8.466
 2379POPC   C3B31677  31.765  37.339   8.112
 2379POPC   C4B31678  31.748  37.128   7.739
 2380POPC   NC331679   4.839  41.824   9.452
 2380POPC   PO431680   5.326  41.393   9.559
 2380POPC   GL131681   5.148  41.469   9.137
 2380POPC   GL231682   5.412  41.237   9.072
 2380POPC   C1A31683   4.889  41.423   8.711
 2380POPC   D2A31684   5.076  41.411   8.274
 2380POPC   C3A31685   5.072  41.683   7.923
 2380POPC   C4A31686   4.764  41.757   7.740
 2380POPC   C1B31687   5.401  41.408   8.696
 2380POPC   C2B31688   5.571  41.459   8.336
 2380POPC   C3B31689   5.464  41.386   7.902
 2380POPC   C4B31690   5.184  41.397   7.497
 2381POPC   NC331691   7.772  37.073   9.543
 2381POPC   PO431692   7.118  37.054   9.433
 2381POPC   GL131693   7.320  37.060   9.068
 2381POPC   GL231694   7.546  36.810   9.177
 2381POPC   C1A31695   7.457  37.016   8.651
 2381POPC   D2A31696   7.628  37.146   8.236
 2381POPC   C3A31697   7.367  37.076   7.859
 2381POPC   C4A31698   7.323  36.687   7.633
 2381POPC   C1B31699   7.782  36.663   8.813
 2381POPC   C2B31700   7.646  36.610   8.388
 2381POPC   C3B31701   7.705  36.685   7.966
 2381POPC   C4B31702   7.820  36.557   7.529
 2382POPC   NC331703  40.686  31.982   9.423
 2382POPC   PO431704  41.018  32.581   9.293
 2382POPC   GL131705  40.637  32.421   9.034
 2382POPC   GL231706  40.545  32.066   8.952
 2382POPC   C1A31707  40.654  32.414   8.568
 2382POPC   D2A31708  40.983  32.489   8.260
 2382POPC   C3A31709  40.906  32.250   7.902
 2382POPC   C4A31710  40.519  32.400   7.801
 2382POPC   C1B31711  40.969  32.058   8.802
 2382POPC   C2B31712  40.938  31.984   8.369
 2382POPC   C3B31713  40.556  32.015   8.168
 2382POPC   C4B31714  40.531  31.875   7.766
 2383POPC   NC331715  18.613  16.948   9.249
 2383POPC   PO431716  18.085  16.580   9.532
 2383POPC   GL131717  18.264  16.547   9.115
 2383POPC   GL231718  18.589  16.457   8.984
 2383POPC   C1A31719  18.188  16.710   8.723
 2383POPC   D2A31720  18.133  16.565   8.349
 2383POPC   C3A31721  18.165  16.790   8.002
 2383POPC   C4A31722  18.233  16.592   7.643
 2383POPC   C1B31723  18.692  16.718   8.653
 2383POPC   C2B31724  18.567  16.862   8.295
 2383POPC   C3B31725  18.685  16.948   7.900
 2383POPC   C4B31726  18.788  17.023   7.493
 2384POPC   NC331727  17.319  15.247   9.395
 2384POPC   PO431728  17.768  15.780   9.457
 2384POPC   GL131729  17.699  15.487   9.045
 2384POPC   GL231730  17.616  15.152   8.980
 2384POPC   C1A31731  17.643  15.453   8.571
 2384POPC   D2A31732  17.524  15.445   8.148
 2384POPC   C3A31733  17.817  15.240   7.841
 2384POPC   C4A31734  17.810  15.093   7.381
 2384POPC   C1B31735  17.214  15.283   8.768
 2384POPC   C2B31736  17.211  15.086   8.396
 2384POPC   C3B31737  17.456  14.942   8.066
 2384POPC   C4B31738  17.385  15.015   7.661
 2385POPC   NC331739  40.078   2.435   9.461
 2385POPC   PO431740  40.255   1.732   9.541
 2385POPC   GL131741  40.192   1.983   9.199
 2385POPC   GL231742  39.842   2.055   9.189
 2385POPC   C1A31743  40.089   1.947   8.745
 2385POPC   D2A31744  39.935   2.110   8.348
 2385POPC   C3A31745  40.247   1.985   8.068
 2385POPC   C4A31746  40.258   1.748   7.716
 2385POPC   C1B31747  39.748   2.333   8.821
 2385POPC   C2B31748  39.707   2.573   8.418
 2385POPC   C3B31749  39.622   2.507   7.967
 2385POPC   C4B31750  39.810   2.134   7.801
 2386POPC   NC331751  14.782  12.421   9.434
 2386POPC   PO431752  14.586  13.052   9.645
 2386POPC   GL131753  14.517  13.049   9.184
 2386POPC   GL231754  14.633  12.741   9.057
 2386POPC   C1A31755  14.662  13.136   8.753
 2386POPC   D2A31756  14.695  13.380   8.387
 2386POPC   C3A31757  14.620  13.116   8.038
 2386POPC   C4A31758  14.229  13.135   7.847
 2386POPC   C1B31759  14.361  12.701   8.706
 2386POPC   C2B31760  14.492  12.731   8.327
 2386POPC   C3B31761  14.340  12.635   7.921
 2386POPC   C4B31762  14.575  12.470   7.565
 2387POPC   NC331763   7.428  14.661  10.100
 2387POPC   PO431764   7.798  14.545   9.704
 2387POPC   GL131765   7.711  14.569   9.235
 2387POPC   GL231766   7.885  14.838   9.054
 2387POPC   C1A31767   7.667  14.406   8.770
 2387POPC   D2A31768   7.615  14.463   8.262
 2387POPC   C3A31769   7.233  14.444   7.960
 2387POPC   C4A31770   6.915  14.399   7.635
 2387POPC   C1B31771   7.831  14.840   8.573
 2387POPC   C2B31772   7.824  14.908   8.107
 2387POPC   C3B31773   7.662  14.648   7.763
 2387POPC   C4B31774   7.744  14.652   7.317
 2388POPC   NC331775  28.538  17.280   9.564
 2388POPC   PO431776  27.983  17.457   9.277
 2388POPC   GL131777  28.395  17.587   9.088
 2388POPC   GL231778  28.727  17.406   9.097
 2388POPC   C1A31779  28.469  17.503   8.640
 2388POPC   D2A31780  28.617  17.633   8.227
 2388POPC   C3A31781  28.256  17.602   7.958
 2388POPC   C4A31782  28.203  17.603   7.523
 2388POPC   C1B31783  28.438  17.070   8.942
 2388POPC   C2B31784  28.204  17.020   8.570
 2388POPC   C3B31785  28.248  17.099   8.140
 2388POPC   C4B31786  28.177  17.117   7.720
 2389POPC   NC331787  36.364  22.654   9.189
 2389POPC   PO431788  35.918  22.142   9.424
 2389POPC   GL131789  35.986  22.311   9.084
 2389POPC   GL231790  35.649  22.361   9.030
 2389POPC   C1A31791  36.108  22.261   8.670
 2389POPC   D2A31792  35.889  22.377   8.313
 2389POPC   C3A31793  36.033  22.363   7.896
 2389POPC   C4A31794  36.183  21.976   7.789
 2389POPC   C1B31795  35.666  22.006   8.786
 2389POPC   C2B31796  35.815  21.872   8.409
 2389POPC   C3B31797  35.769  21.838   8.029
 2389POPC   C4B31798  35.669  21.948   7.632
 2390POPC   NC331799  17.121  22.295   9.561
 2390POPC   PO431800  16.543  21.927   9.565
 2390POPC   GL131801  16.480  22.125   9.176
 2390POPC   GL231802  16.851  22.099   9.122
 2390POPC   C1A31803  16.493  22.238   8.752
 2390POPC   D2A31804  16.820  22.350   8.488
 2390POPC   C3A31805  16.789  22.122   8.126
 2390POPC   C4A31806  16.939  22.278   7.738
 2390POPC   C1B31807  16.658  21.747   8.897
 2390POPC   C2B31808  16.597  21.706   8.464
 2390POPC   C3B31809  16.746  21.543   8.083
 2390POPC   C4B31810  16.785  21.803   7.731
 2391POPC   NC331811  23.493   7.504   9.401
 2391POPC   PO431812  24.105   7.151   9.256
 2391POPC   GL131813  23.889   7.440   9.067
 2391POPC   GL231814  24.099   7.738   9.102
 2391POPC   C1A31815  23.593   7.412   8.716
 2391POPC   D2A31816  23.579   7.612   8.300
 2391POPC   C3A31817  23.607   7.400   7.886
 2391POPC   C4A31818  23.428   7.582   7.517
 2391POPC   C1B31819  23.900   7.850   8.742
 2391POPC   C2B31820  24.074   7.803   8.362
 2391POPC   C3B31821  23.984   7.732   7.976
 2391POPC   C4B31822  24.163   7.427   7.747
 2392POPC   NC331823  25.726  39.695   9.363
 2392POPC   PO431824  26.388  40.100   9.478
 2392POPC   GL131825  26.266  39.947   9.055
 2392POPC   GL231826  25.955  40.063   9.074
 2392POPC   C1A31827  26.160  39.710   8.655
 2392POPC   D2A31828  26.079  39.780   8.186
 2392POPC   C3A31829  26.327  39.672   7.757
 2392POPC   C4A31830  26.391  39.772   7.284
 2392POPC   C1B31831  25.770  40.076   8.672
 2392POPC   C2B31832  25.678  40.442   8.417
 2392POPC   C3B31833  25.926  40.445   8.052
 2392POPC   C4B31834  26.030  40.110   7.786
 2393POPC   NC331835  24.196  13.464   9.822
 2393POPC   PO431836  24.806  13.409   9.716
 2393POPC   GL131837  24.775  13.559   9.217
 2393POPC   GL231838  24.926  13.914   9.120
 2393POPC   C1A31839  24.877  13.597   8.744
 2393POPC   D2A31840  24.721  13.713   8.349
 2393POPC   C3A31841  24.410  13.477   8.126
 2393POPC   C4A31842  24.346  13.524   7.704
 2393POPC   C1B31843  24.912  14.151   8.691
 2393POPC   C2B31844  24.799  14.193   8.234
 2393POPC   C3B31845  24.661  13.923   7.875
 2393POPC   C4B31846  24.716  13.811   7.464
 2394POPC   NC331847  14.622  19.734   9.481
 2394POPC   PO431848  14.073  20.103   9.313
 2394POPC   GL131849  14.320  19.843   9.089
 2394POPC   GL231850  14.620  20.109   9.139
 2394POPC   C1A31851  14.167  19.715   8.668
 2394POPC   D2A31852  14.304  19.502   8.316
 2394POPC   C3A31853  14.267  19.761   7.940
 2394POPC   C4A31854  14.501  19.753   7.553
 2394POPC   C1B31855  14.545  20.067   8.716
 2394POPC   C2B31856  14.635  19.919   8.327
 2394POPC   C3B31857  14.667  20.088   7.931
 2394POPC   C4B31858  14.354  20.214   7.659
 2395POPC   NC331859   0.349  18.624   9.475
 2395POPC   PO431860   0.542  18.020   9.537
 2395POPC   GL131861   0.618  18.140   9.096
 2395POPC   GL231862   0.394  18.383   9.029
 2395POPC   C1A31863   0.486  18.088   8.634
 2395POPC   D2A31864   0.476  18.043   8.184
 2395POPC   C3A31865   0.665  18.412   8.008
 2395POPC   C4A31866   0.678  18.865   7.957
 2395POPC   C1B31867   0.097  18.411   8.625
 2395POPC   C2B31868   0.238  18.626   8.241
 2395POPC   C3B31869   0.195  18.549   7.803
 2395POPC   C4B31870   0.088  18.581   7.357
 2396POPC   NC331871   1.599  26.023   9.538
 2396POPC   PO431872   0.914  26.148   9.342
 2396POPC   GL131873   1.122  26.255   8.974
 2396POPC   GL231874   1.455  26.200   9.066
 2396POPC   C1A31875   1.011  26.177   8.558
 2396POPC   D2A31876   0.865  26.190   8.135
 2396POPC   C3A31877   1.113  26.133   7.772
 2396POPC   C4A31878   0.927  25.986   7.364
 2396POPC   C1B31879   1.488  25.952   8.664
 2396POPC   C2B31880   1.362  25.951   8.237
 2396POPC   C3B31881   1.622  26.042   7.884
 2396POPC   C4B31882   1.600  26.351   7.571
 2397POPC   NC331883  18.790   9.700   9.393
 2397POPC   PO431884  19.420   9.949   9.421
 2397POPC   GL131885  19.242   9.741   9.072
 2397POPC   GL231886  19.334   9.411   8.942
 2397POPC   C1A31887  19.298   9.849   8.630
 2397POPC   D2A31888  19.507   9.643   8.298
 2397POPC   C3A31889  19.164   9.599   8.027
 2397POPC   C4A31890  19.196   9.365   7.687
 2397POPC   C1B31891  18.909   9.486   8.746
 2397POPC   C2B31892  18.710   9.503   8.325
 2397POPC   C3B31893  18.651   9.633   7.874
 2397POPC   C4B31894  18.709   9.840   7.463
 2398POPC   NC331895  16.799  13.200   9.465
 2398POPC   PO431896  17.080  12.617   9.656
 2398POPC   GL131897  16.845  12.710   9.242
 2398POPC   GL231898  16.499  12.788   9.281
 2398POPC   C1A31899  16.771  12.862   8.807
 2398POPC   D2A31900  16.617  13.015   8.408
 2398POPC   C3A31901  16.789  12.843   8.029
 2398POPC   C4A31902  16.666  13.003   7.640
 2398POPC   C1B31903  16.495  12.445   8.961
 2398POPC   C2B31904  16.541  12.492   8.511
 2398POPC   C3B31905  16.455  12.436   8.080
 2398POPC   C4B31906  16.556  12.508   7.668
 2399POPC   NC331907  21.932  15.575   9.656
 2399POPC   PO431908  22.291  16.132   9.589
 2399POPC   GL131909  22.123  16.017   9.209
 2399POPC   GL231910  22.327  15.749   9.058
 2399POPC   C1A31911  21.921  15.970   8.816
 2399POPC   D2A31912  22.033  16.178   8.451
 2399POPC   C3A31913  22.156  15.987   8.115
 2399POPC   C4A31914  22.274  16.040   7.741
 2399POPC   C1B31915  22.294  15.712   8.567
 2399POPC   C2B31916  22.014  15.529   8.242
 2399POPC   C3B31917  22.079  15.570   7.787
 2399POPC   C4B31918  22.496  15.540   7.573
 2400POPC   NC331919   8.325   2.375   9.163
 2400POPC   PO431920   8.303   2.869   9.575
 2400POPC   GL131921   8.140   2.873   9.144
 2400POPC   GL231922   8.463   2.826   8.963
 2400POPC   C1A31923   8.025   2.749   8.696
 2400POPC   D2A31924   7.936   2.949   8.315
 2400POPC   C3A31925   7.955   2.761   7.961
 2400POPC   C4A31926   8.246   3.008   7.714
 2400POPC   C1B31927   8.477   2.573   8.575
 2400POPC   C2B31928   8.401   2.654   8.169
 2400POPC   C3B31929   8.382   2.535   7.777
 2400POPC   C4B31930   8.263   2.256   7.465
 2401POPC   NC331931  37.272   5.782   9.494
 2401POPC   PO431932  37.843   6.152   9.385
 2401POPC   GL131933  37.645   5.814   9.140
 2401POPC   GL231934  37.386   6.004   9.049
 2401POPC   C1A31935  37.617   5.576   8.772
 2401POPC   D2A31936  37.891   5.659   8.431
 2401POPC   C3A31937  37.751   5.764   8.030
 2401POPC   C4A31938  37.459   5.744   7.695
 2401POPC   C1B31939  37.661   6.088   8.690
 2401POPC   C2B31940  37.741   6.205   8.266
 2401POPC   C3B31941  37.570   6.209   7.845
 2401POPC   C4B31942  37.706   6.175   7.403
 2402POPC   NC331943   3.330   2.436   9.331
 2402POPC   PO431944   3.547   3.085   9.646
 2402POPC   GL131945   3.666   2.874   9.241
 2402POPC   GL231946   3.331   2.936   9.119
 2402POPC   C1A31947   3.903   2.679   8.853
 2402POPC   D2A31948   3.977   2.832   8.390
 2402POPC   C3A31949   3.790   2.800   7.941
 2402POPC   C4A31950   3.644   2.887   7.498
 2402POPC   C1B31951   3.525   2.983   8.707
 2402POPC   C2B31952   3.437   2.875   8.299
 2402POPC   C3B31953   3.312   3.038   7.898
 2402POPC   C4B31954   3.229   2.653   7.660
 2403POPC   NC331955  15.877  13.534   9.492
 2403POPC   PO431956  16.198  14.196   9.549
 2403POPC   GL131957  16.111  13.919   9.163
 2403POPC   GL231958  15.785  13.711   9.034
 2403POPC   C1A31959  16.151  13.834   8.705
 2403POPC   D2A31960  15.780  13.659   8.490
 2403POPC   C3A31961  15.762  13.669   8.074
 2403POPC   C4A31962  15.990  13.915   7.790
 2403POPC   C1B31963  16.016  13.347   8.810
 2403POPC   C2B31964  16.210  13.347   8.367
 2403POPC   C3B31965  16.171  13.424   7.893
 2403POPC   C4B31966  15.853  13.501   7.544
 2404POPC   NC331967  23.972   9.248   9.430
 2404POPC   PO431968  23.337   9.051   9.488
 2404POPC   GL131969  23.561   8.996   9.101
 2404POPC   GL231970  23.328   9.209   8.971
 2404POPC   C1A31971  23.757   9.053   8.664
 2404POPC   D2A31972  24.045   8.911   8.313
 2404POPC   C3A31973  23.900   8.928   7.901
 2404POPC   C4A31974  23.684   8.726   7.667
 2404POPC   C1B31975  23.268   8.866   8.665
 2404POPC   C2B31976  23.485   8.885   8.258
 2404POPC   C3B31977  23.459   9.187   7.950
 2404POPC   C4B31978  23.229   8.942   7.640
 2405POPC   NC331979  12.401  29.693   9.445
 2405POPC   PO431980  11.941  30.225   9.579
 2405POPC   GL131981  12.065  29.992   9.237
 2405POPC   GL231982  11.891  29.668   9.282
 2405POPC   C1A31983  12.304  30.003   8.846
 2405POPC   D2A31984  12.153  29.988   8.424
 2405POPC   C3A31985  12.448  29.998   8.071
 2405POPC   C4A31986  12.302  29.967   7.630
 2405POPC   C1B31987  11.838  29.769   8.853
 2405POPC   C2B31988  11.701  29.726   8.456
 2405POPC   C3B31989  11.810  29.763   8.061
 2405POPC   C4B31990  11.653  29.855   7.691
 2406POPC   NC331991  34.192  14.622   9.347
 2406POPC   PO431992  34.661  14.155   9.630
 2406POPC   GL131993  34.484  14.233   9.217
 2406POPC   GL231994  34.187  14.086   9.170
 2406POPC   C1A31995  34.552  14.490   8.811
 2406POPC   D2A31996  34.383  14.419   8.408
 2406POPC   C3A31997  34.556  14.539   8.010
 2406POPC   C4A31998  34.593  14.878   7.711
 2406POPC   C1B31999  34.474  14.002   8.778
 2406POPC   C2B32000  34.559  13.928   8.349
 2406POPC   C3B32001  34.361  14.070   7.990
 2406POPC   C4B32002  34.499  14.172   7.589
 2407POPC   NC332003   2.409  28.592   9.424
 2407POPC   PO432004   2.002  29.127   9.436
 2407POPC   GL132005   1.742  29.154   9.076
 2407POPC   GL232006   1.566  29.473   9.079
 2407POPC   C1A32007   1.844  29.078   8.642
 2407POPC   D2A32008   1.638  28.956   8.275
 2407POPC   C3A32009   1.873  29.017   7.906
 2407POPC   C4A32010   2.233  28.803   7.735
 2407POPC   C1B32011   1.735  29.581   8.667
 2407POPC   C2B32012   1.799  29.467   8.221
 2407POPC   C3B32013   1.729  29.497   7.754
 2407POPC   C4B32014   1.790  29.568   7.321
 2408POPC   NC332015   0.134  13.788   9.394
 2408POPC   PO432016  44.499  13.583   9.452
 2408POPC   GL132017  44.721  13.629   9.102
 2408POPC   GL232018  44.719  13.995   9.137
 2408POPC   C1A32019  44.674  13.455   8.687
 2408POPC   D2A32020  44.865  13.672   8.383
 2408POPC   C3A32021  44.752  13.602   8.030
 2408POPC   C4A32022  44.835  13.376   7.746
 2408POPC   C1B32023  44.549  13.957   8.723
 2408POPC   C2B32024  44.332  13.718   8.426
 2408POPC   C3B32025  44.261  13.764   8.015
 2408POPC   C4B32026  44.552  13.975   7.767
 2409POPC   NC332027  31.494   3.940   9.439
 2409POPC   PO432028  31.140   4.554   9.518
 2409POPC   GL132029  31.372   4.371   9.194
 2409POPC   GL232030  31.112   4.116   9.091
 2409POPC   C1A32031  31.466   4.504   8.786
 2409POPC   D2A32032  31.137   4.594   8.512
 2409POPC   C3A32033  31.241   4.688   8.091
 2409POPC   C4A32034  31.521   4.528   7.766
 2409POPC   C1B32035  31.351   4.016   8.709
 2409POPC   C2B32036  31.416   4.192   8.281
 2409POPC   C3B32037  31.744   4.137   7.989
 2409POPC   C4B32038  31.845   3.874   7.668
 2410POPC   NC332039  39.207  24.675   9.483
 2410POPC   PO432040  39.570  24.103   9.532
 2410POPC   GL132041  39.309  24.256   9.117
 2410POPC   GL232042  39.169  24.615   9.000
 2410POPC   C1A32043  39.309  24.323   8.618
 2410POPC   D2A32044  38.970  24.435   8.300
 2410POPC   C3A32045  39.126  24.500   7.869
 2410POPC   C4A32046  39.056  24.377   7.444
 2410POPC   C1B32047  39.359  24.853   8.673
 2410POPC   C2B32048  39.261  24.856   8.244
 2410POPC   C3B32049  39.474  24.928   7.873
 2410POPC   C4B32050  39.456  24.720   7.475
 2411POPC   NC332051   0.150   9.361   9.489
 2411POPC   PO432052   0.662   8.897   9.463
 2411POPC   GL132053   0.378   8.985   9.145
 2411POPC   GL232054   0.449   9.308   9.083
 2411POPC   C1A32055   0.251   8.813   8.733
 2411POPC   D2A32056   0.612   8.718   8.425
 2411POPC   C3A32057   0.520   8.764   7.988
 2411POPC   C4A32058   0.230   8.897   7.675
 2411POPC   C1B32059   0.589   9.174   8.699
 2411POPC   C2B32060   0.474   9.195   8.258
 2411POPC   C3B32061   0.587   9.256   7.814
 2411POPC   C4B32062   0.505   9.428   7.392
 2412POPC   NC332063  22.178  41.962   9.445
 2412POPC   PO432064  22.041  42.623   9.532
 2412POPC   GL132065  22.032  42.404   9.155
 2412POPC   GL232066  21.746  42.158   9.124
 2412POPC   C1A32067  22.181  42.524   8.755
 2412POPC   D2A32068  22.240  42.294   8.369
 2412POPC   C3A32069  22.202  42.533   8.005
 2412POPC   C4A32070  22.004  42.475   7.594
 2412POPC   C1B32071  21.714  42.315   8.673
 2412POPC   C2B32072  21.742  42.227   8.210
 2412POPC   C3B32073  21.971  42.053   7.860
 2412POPC   C4B32074  22.053  41.983   7.381
 2413POPC   NC332075  34.679  29.565   9.432
 2413POPC   PO432076  34.186  29.251   9.540
 2413POPC   GL132077  34.558  29.071   9.300
 2413POPC   GL232078  34.429  29.298   9.092
 2413POPC   C1A32079  34.775  28.964   8.890
 2413POPC   D2A32080  34.693  29.059   8.485
 2413POPC   C3A32081  34.677  28.829   8.147
 2413POPC   C4A32082  34.699  28.934   7.725
 2413POPC   C1B32083  34.594  29.461   8.779
 2413POPC   C2B32084  34.504  29.529   8.402
 2413POPC   C3B32085  34.552  29.320   8.066
 2413POPC   C4B32086  34.464  29.386   7.695
 2414POPC   NC332087  38.073  42.983   9.769
 2414POPC   PO432088  37.581  43.263   9.602
 2414POPC   GL132089  37.839  43.037   9.302
 2414POPC   GL232090  37.553  42.997   9.096
 2414POPC   C1A32091  37.989  43.112   8.867
 2414POPC   D2A32092  37.684  43.216   8.553
 2414POPC   C3A32093  37.783  43.210   8.106
 2414POPC   C4A32094  37.437  43.294   7.807
 2414POPC   C1B32095  37.675  42.738   8.741
 2414POPC   C2B32096  37.757  42.739   8.325
 2414POPC   C3B32097  37.630  42.790   7.864
 2414POPC   C4B32098  37.387  42.902   7.504
 2415POPC   NC332099   8.924   1.054   9.465
 2415POPC   PO432100   9.283   1.615   9.702
 2415POPC   GL132101   9.202   1.448   9.246
 2415POPC   GL232102   8.828   1.487   9.130
 2415POPC   C1A32103   9.127   1.222   8.814
 2415POPC   D2A32104   8.982   1.272   8.386
 2415POPC   C3A32105   9.226   1.051   8.059
 2415POPC   C4A32106   9.100   1.184   7.689
 2415POPC   C1B32107   8.607   1.204   8.802
 2415POPC   C2B32108   8.534   0.981   8.385
 2415POPC   C3B32109   8.629   1.148   7.951
 2415POPC   C4B32110   8.436   1.430   7.584
 2416POPC   NC332111   8.908   1.858   9.551
 2416POPC   PO432112   9.513   1.961   9.267
 2416POPC   GL132113   9.126   1.913   9.050
 2416POPC   GL232114   8.799   2.057   9.101
 2416POPC   C1A32115   9.158   1.728   8.656
 2416POPC   D2A32116   9.385   1.914   8.315
 2416POPC   C3A32117   9.072   1.976   8.029
 2416POPC   C4A32118   8.828   1.620   7.851
 2416POPC   C1B32119   8.851   2.205   8.691
 2416POPC   C2B32120   8.708   2.248   8.258
 2416POPC   C3B32121   8.600   2.089   7.845
 2416POPC   C4B32122   8.745   2.343   7.487
 2417POPC   NC332123  15.218   2.199   9.450
 2417POPC   PO432124  14.836   1.705   9.535
 2417POPC   GL132125  15.083   1.745   9.162
 2417POPC   GL232126  15.452   1.784   9.203
 2417POPC   C1A32127  14.961   1.760   8.735
 2417POPC   D2A32128  15.144   1.976   8.354
 2417POPC   C3A32129  14.949   2.085   7.958
 2417POPC   C4A32130  15.138   1.829   7.701
 2417POPC   C1B32131  15.383   2.032   8.808
 2417POPC   C2B32132  15.454   2.371   8.511
 2417POPC   C3B32133  15.373   2.352   8.086
 2417POPC   C4B32134  15.374   2.282   7.636
 2418POPC   NC332135  35.192  18.317   9.432
 2418POPC   PO432136  35.781  17.975   9.456
 2418POPC   GL132137  35.541  18.143   9.097
 2418POPC   GL232138  35.158  18.145   8.975
 2418POPC   C1A32139  35.526  18.351   8.681
 2418POPC   D2A32140  35.390  18.196   8.315
 2418POPC   C3A32141  35.383  18.439   7.960
 2418POPC   C4A32142  35.068  18.664   7.749
 2418POPC   C1B32143  34.948  18.213   8.597
 2418POPC   C2B32144  34.901  18.370   8.188
 2418POPC   C3B32145  35.007  18.128   7.847
 2418POPC   C4B32146  35.023  18.099   7.367
 2419POPC   NC332147  13.291   2.988   9.284
 2419POPC   PO432148  12.738   2.780   9.518
 2419POPC   GL132149  12.874   2.737   9.116
 2419POPC   GL232150  13.100   2.488   9.032
 2419POPC   C1A32151  12.928   2.909   8.694
 2419POPC   D2A32152  12.828   3.266   8.426
 2419POPC   C3A32153  12.777   3.043   8.043
 2419POPC   C4A32154  12.960   3.015   7.615
 2419POPC   C1B32155  12.668   2.460   8.763
 2419POPC   C2B32156  12.599   2.586   8.353
 2419POPC   C3B32157  12.899   2.555   8.030
 2419POPC   C4B32158  12.773   2.503   7.616
 2420POPC   NC332159  32.732  34.198   9.404
 2420POPC   PO432160  33.288  34.257   9.695
 2420POPC   GL132161  33.138  34.527   9.261
 2420POPC   GL232162  32.786  34.698   9.195
 2420POPC   C1A32163  33.015  34.499   8.797
 2420POPC   D2A32164  33.053  34.661   8.420
 2420POPC   C3A32165  33.181  34.383   8.062
 2420POPC   C4A32166  33.186  34.098   7.715
 2420POPC   C1B32167  32.639  34.862   8.777
 2420POPC   C2B32168  32.519  34.729   8.367
 2420POPC   C3B32169  32.759  34.772   8.035
 2420POPC   C4B32170  32.769  34.416   7.785
 2421POPC   NC332171  22.300  35.899   9.502
 2421POPC   PO432172  22.316  36.566   9.800
 2421POPC   GL132173  22.361  36.371   9.301
 2421POPC   GL232174  22.479  36.026   9.069
 2421POPC   C1A32175  22.302  36.391   8.803
 2421POPC   D2A32176  22.022  36.109   8.580
 2421POPC   C3A32177  21.959  36.180   8.169
 2421POPC   C4A32178  22.139  36.045   7.832
 2421POPC   C1B32179  22.443  35.842   8.676
 2421POPC   C2B32180  22.407  35.893   8.251
 2421POPC   C3B32181  22.625  35.819   7.868
 2421POPC   C4B32182  22.406  35.710   7.508
 2422POPC   NC332183  29.617   4.402   9.559
 2422POPC   PO432184  30.231   4.199   9.680
 2422POPC   GL132185  30.086   4.379   9.266
 2422POPC   GL232186  29.808   4.215   9.113
 2422POPC   C1A32187  30.102   4.439   8.781
 2422POPC   D2A32188  29.850   4.440   8.378
 2422POPC   C3A32189  30.020   4.402   7.981
 2422POPC   C4A32190  29.889   4.512   7.611
 2422POPC   C1B32191  29.625   4.016   8.777
 2422POPC   C2B32192  29.441   4.084   8.396
 2422POPC   C3B32193  29.589   4.121   7.985
 2422POPC   C4B32194  29.905   3.973   7.729
 2423POPC   NC332195   5.820  11.134   9.595
 2423POPC   PO432196   6.226  11.489   9.269
 2423POPC   GL132197   5.996  11.181   9.092
 2423POPC   GL232198   5.645  11.293   9.155
 2423POPC   C1A32199   6.096  11.138   8.659
 2423POPC   D2A32200   5.858  11.246   8.306
 2423POPC   C3A32201   5.996  11.191   7.880
 2423POPC   C4A32202   5.599  11.147   7.710
 2423POPC   C1B32203   5.723  11.501   8.757
 2423POPC   C2B32204   5.774  11.765   8.395
 2423POPC   C3B32205   5.791  11.636   7.982
 2423POPC   C4B32206   6.111  11.691   7.730
 2424POPC   NC332207  35.862   6.722   9.199
 2424POPC   PO432208  36.354   6.398   9.530
 2424POPC   GL132209  36.181   6.336   9.038
 2424POPC   GL232210  35.819   6.395   8.822
 2424POPC   C1A32211  36.235   6.509   8.577
 2424POPC   D2A32212  36.011   6.624   8.173
 2424POPC   C3A32213  36.271   6.784   7.852
 2424POPC   C4A32214  36.371   6.394   7.661
 2424POPC   C1B32215  35.754   6.801   8.583
 2424POPC   C2B32216  35.954   7.117   8.319
 2424POPC   C3B32217  35.827   7.051   7.895
 2424POPC   C4B32218  35.610   7.041   7.510
 2425POPC   NC332219  34.218  37.981   9.546
 2425POPC   PO432220  33.489  38.128   9.578
 2425POPC   GL132221  33.669  37.811   9.233
 2425POPC   GL232222  33.933  37.935   9.135
 2425POPC   C1A32223  33.859  37.578   8.803
 2425POPC   D2A32224  34.161  37.490   8.481
 2425POPC   C3A32225  33.914  37.396   8.131
 2425POPC   C4A32226  34.052  37.290   7.732
 2425POPC   C1B32227  33.706  38.058   8.751
 2425POPC   C2B32228  33.642  37.803   8.374
 2425POPC   C3B32229  33.731  37.973   7.970
 2425POPC   C4B32230  33.605  37.989   7.532
 2426POPC   NC332231  28.316  14.598   9.615
 2426POPC   PO432232  28.110  13.909   9.457
 2426POPC   GL132233  28.233  14.274   9.132
 2426POPC   GL232234  28.518  14.556   9.174
 2426POPC   C1A32235  28.428  14.390   8.699
 2426POPC   D2A32236  28.807  14.312   8.452
 2426POPC   C3A32237  28.698  14.081   8.063
 2426POPC   C4A32238  28.408  14.221   7.741
 2426POPC   C1B32239  28.225  14.790   8.942
 2426POPC   C2B32240  28.220  14.859   8.493
 2426POPC   C3B32241  28.343  14.680   8.077
 2426POPC   C4B32242  28.316  14.702   7.621
 2427POPC   NC332243  32.379  29.912   9.537
 2427POPC   PO432244  31.836  29.804   9.261
 2427POPC   GL132245  32.191  29.731   9.067
 2427POPC   GL232246  32.438  30.015   9.019
 2427POPC   C1A32247  32.088  29.815   8.646
 2427POPC   D2A32248  32.367  29.849   8.359
 2427POPC   C3A32249  32.421  29.638   7.985
 2427POPC   C4A32250  32.523  29.762   7.577
 2427POPC   C1B32251  32.497  30.369   8.729
 2427POPC   C2B32252  32.241  30.491   8.364
 2427POPC   C3B32253  32.211  30.218   8.035
 2427POPC   C4B32254  32.391  30.238   7.671
 2428POPC   NC332255  11.171  31.230   9.486
 2428POPC   PO432256  11.709  31.671   9.721
 2428POPC   GL132257  11.418  31.721   9.250
 2428POPC   GL232258  11.227  31.408   9.033
 2428POPC   C1A32259  11.515  31.681   8.769
 2428POPC   D2A32260  11.362  31.450   8.390
 2428POPC   C3A32261  11.397  31.663   8.009
 2428POPC   C4A32262  11.552  31.590   7.614
 2428POPC   C1B32263  10.993  31.615   8.720
 2428POPC   C2B32264  10.793  31.504   8.328
 2428POPC   C3B32265  10.973  31.387   7.962
 2428POPC   C4B32266  10.982  31.686   7.656
 2429POPC   NC332267  41.434  19.459   9.567
 2429POPC   PO432268  41.633  20.069   9.606
 2429POPC   GL132269  41.657  19.850   9.249
 2429POPC   GL232270  41.526  20.159   9.115
 2429POPC   C1A32271  41.460  19.703   8.883
 2429POPC   D2A32272  41.586  19.584   8.498
 2429POPC   C3A32273  41.436  19.675   8.076
 2429POPC   C4A32274  41.718  19.742   7.729
 2429POPC   C1B32275  41.519  20.296   8.708
 2429POPC   C2B32276  41.555  20.141   8.298
 2429POPC   C3B32277  41.355  20.179   7.890
 2429POPC   C4B32278  41.394  20.064   7.452
 2430POPC   NC332279  31.513   9.550   9.585
 2430POPC   PO432280  30.955   9.883   9.519
 2430POPC   GL132281  31.364   9.878   9.192
 2430POPC   GL232282  31.585   9.565   9.096
 2430POPC   C1A32283  31.508   9.868   8.705
 2430POPC   D2A32284  31.453   9.555   8.351
 2430POPC   C3A32285  31.573   9.626   7.916
 2430POPC   C4A32286  31.457  10.005   7.735
 2430POPC   C1B32287  31.832   9.473   8.719
 2430POPC   C2B32288  31.955   9.646   8.292
 2430POPC   C3B32289  32.082   9.430   7.935
 2430POPC   C4B32290  31.867   9.306   7.568
 2431POPC   NC332291  27.049  38.623   9.390
 2431POPC   PO432292  26.722  38.053   9.535
 2431POPC   GL132293  26.582  38.247   9.165
 2431POPC   GL232294  26.570  38.629   9.164
 2431POPC   C1A32295  26.734  38.304   8.766
 2431POPC   D2A32296  26.636  38.449   8.373
 2431POPC   C3A32297  26.925  38.364   8.074
 2431POPC   C4A32298  27.032  38.408   7.659
 2431POPC   C1B32299  26.723  38.820   8.749
 2431POPC   C2B32300  26.746  38.947   8.299
 2431POPC   C3B32301  26.596  38.733   7.925
 2431POPC   C4B32302  26.524  38.293   7.779
 2432POPC   NC332303  14.396  32.549   9.403
 2432POPC   PO432304  14.597  33.201   9.550
 2432POPC   GL132305  14.332  33.054   9.187
 2432POPC   GL232306  14.021  33.263   9.168
 2432POPC   C1A32307  14.237  32.814   8.784
 2432POPC   D2A32308  14.099  32.938   8.373
 2432POPC   C3A32309  14.235  32.776   7.980
 2432POPC   C4A32310  14.504  32.888   7.649
 2432POPC   C1B32311  14.212  33.340   8.745
 2432POPC   C2B32312  14.145  33.465   8.318
 2432POPC   C3B32313  14.317  33.369   7.914
 2432POPC   C4B32314  14.089  33.218   7.560
 2433POPC   NC332315  41.749   5.599   9.428
 2433POPC   PO432316  41.676   4.904   9.500
 2433POPC   GL132317  41.561   5.177   9.182
 2433POPC   GL232318  41.912   5.251   9.082
 2433POPC   C1A32319  41.260   5.155   8.840
 2433POPC   D2A32320  41.156   5.094   8.426
 2433POPC   C3A32321  41.459   4.940   8.141
 2433POPC   C4A32322  41.294   4.938   7.749
 2433POPC   C1B32323  41.667   5.444   8.738
 2433POPC   C2B32324  41.561   5.431   8.291
 2433POPC   C3B32325  41.678   5.321   7.843
 2433POPC   C4B32326  42.089   5.270   7.642
 2434POPC   NC332327   9.213  29.411   9.486
 2434POPC   PO432328   8.545  29.321   9.406
 2434POPC   GL132329   8.870  29.194   9.144
 2434POPC   GL232330   9.115  28.946   9.232
 2434POPC   C1A32331   9.139  29.307   8.807
 2434POPC   D2A32332   9.214  29.118   8.427
 2434POPC   C3A32333   9.163  29.363   8.105
 2434POPC   C4A32334   8.982  29.246   7.727
 2434POPC   C1B32335   9.093  28.778   8.812
 2434POPC   C2B32336   9.321  28.620   8.432
 2434POPC   C3B32337   9.257  28.788   7.993
 2434POPC   C4B32338   9.303  28.883   7.554
 2435POPC   NC332339  33.724  29.286   9.531
 2435POPC   PO432340  33.391  28.733   9.369
 2435POPC   GL132341  33.704  28.898   9.123
 2435POPC   GL232342  34.067  28.919   9.160
 2435POPC   C1A32343  33.744  29.146   8.759
 2435POPC   D2A32344  33.666  29.471   8.461
 2435POPC   C3A32345  33.777  29.364   8.022
 2435POPC   C4A32346  33.664  28.966   7.820
 2435POPC   C1B32347  34.238  29.032   8.734
 2435POPC   C2B32348  34.131  29.166   8.335
 2435POPC   C3B32349  34.166  29.021   7.890
 2435POPC   C4B32350  34.091  29.132   7.437
 2436POPC   NC332351   1.284  42.784   9.327
 2436POPC   PO432352   1.000  43.320   9.656
 2436POPC   GL132353   1.137  43.275   9.200
 2436POPC   GL232354   0.846  43.125   9.078
 2436POPC   C1A32355   1.225  43.306   8.737
 2436POPC   D2A32356   1.412  43.046   8.369
 2436POPC   C3A32357   1.265  43.184   7.957
 2436POPC   C4A32358   1.177  43.216   7.506
 2436POPC   C1B32359   0.935  42.870   8.681
 2436POPC   C2B32360   0.893  42.943   8.235
 2436POPC   C3B32361   0.778  43.153   7.828
 2436POPC   C4B32362   0.767  42.936   7.396
 2437POPC   NC332363  41.834  43.590   9.910
 2437POPC   PO432364  41.506  44.111   9.581
 2437POPC   GL132365  41.624  43.873   9.208
 2437POPC   GL232366  41.323  43.994   9.086
 2437POPC   C1A32367  41.739  43.717   8.753
 2437POPC   D2A32368  41.895  43.432   8.417
 2437POPC   C3A32369  41.811  43.513   7.991
 2437POPC   C4A32370  41.884  43.392   7.572
 2437POPC   C1B32371  41.571  44.193   8.801
 2437POPC   C2B32372  41.414  44.066   8.452
 2437POPC   C3B32373  41.650  43.965   8.141
 2437POPC   C4B32374  41.644  43.982   7.737
 2438POPC   NC332375   0.291  34.215   9.703
 2438POPC   PO432376   0.731  34.660   9.465
 2438POPC   GL132377   0.580  34.523   9.054
 2438POPC   GL232378   0.682  34.198   8.986
 2438POPC   C1A32379   0.436  34.442   8.611
 2438POPC   D2A32380   0.288  34.299   8.202
 2438POPC   C3A32381   0.370  34.607   7.850
 2438POPC   C4A32382   0.803  34.676   7.677
 2438POPC   C1B32383   0.923  34.085   8.631
 2438POPC   C2B32384   0.799  34.272   8.274
 2438POPC   C3B32385   0.811  34.203   7.870
 2438POPC   C4B32386   0.845  34.199   7.408
 2439POPC   NC332387  35.447  13.474   9.540
 2439POPC   PO432388  35.306  14.141   9.503
 2439POPC   GL132389  35.467  13.829   9.181
 2439POPC   GL232390  35.153  13.611   9.159
 2439POPC   C1A32391  35.427  13.727   8.759
 2439POPC   D2A32392  35.107  13.880   8.477
 2439POPC   C3A32393  35.350  13.968   8.124
 2439POPC   C4A32394  35.407  13.756   7.747
 2439POPC   C1B32395  35.134  13.314   8.833
 2439POPC   C2B32396  35.200  13.381   8.412
 2439POPC   C3B32397  35.394  13.339   8.039
 2439POPC   C4B32398  35.146  13.334   7.676
 2440POPC   NC332399  36.442  36.686   9.471
 2440POPC   PO432400  35.820  36.933   9.500
 2440POPC   GL132401  35.978  36.740   9.087
 2440POPC   GL232402  36.281  36.542   8.991
 2440POPC   C1A32403  35.963  36.690   8.623
 2440POPC   D2A32404  36.021  36.607   8.191
 2440POPC   C3A32405  35.991  36.899   7.901
 2440POPC   C4A32406  36.123  37.342   7.883
 2440POPC   C1B32407  36.374  36.962   8.821
 2440POPC   C2B32408  36.280  37.107   8.389
 2440POPC   C3B32409  36.477  36.978   8.010
 2440POPC   C4B32410  36.540  36.708   7.687
 2441POPC   NC332411   8.173   2.298   9.643
 2441POPC   PO432412   8.482   1.733   9.410
 2441POPC   GL132413   8.345   1.840   9.066
 2441POPC   GL232414   8.055   1.940   9.129
 2441POPC   C1A32415   8.373   1.678   8.673
 2441POPC   D2A32416   8.342   1.898   8.301
 2441POPC   C3A32417   8.204   1.678   7.967
 2441POPC   C4A32418   8.075   1.792   7.552
 2441POPC   C1B32419   8.034   2.065   8.701
 2441POPC   C2B32420   8.049   2.334   8.360
 2441POPC   C3B32421   8.067   2.187   7.957
 2441POPC   C4B32422   7.783   2.202   7.650
 2442POPC   NC332423  43.766   1.307   9.537
 2442POPC   PO432424  44.195   0.930   9.116
 2442POPC   GL132425  43.811   1.148   9.047
 2442POPC   GL232426  43.814   1.523   9.087
 2442POPC   C1A32427  43.794   1.298   8.634
 2442POPC   D2A32428  44.205   1.187   8.503
 2442POPC   C3A32429  44.115   0.977   8.145
 2442POPC   C4A32430  43.968   1.133   7.772
 2442POPC   C1B32431  43.599   1.760   8.762
 2442POPC   C2B32432  43.642   1.705   8.315
 2442POPC   C3B32433  43.542   1.425   7.982
 2442POPC   C4B32434  43.648   1.482   7.527
 2443POPC   NC332435  24.923  21.666   9.537
 2443POPC   PO432436  25.644  21.436   9.565
 2443POPC   GL132437  25.350  21.573   9.265
 2443POPC   GL232438  25.135  21.286   9.243
 2443POPC   C1A32439  25.155  21.696   8.880
 2443POPC   D2A32440  24.870  21.571   8.553
 2443POPC   C3A32441  25.065  21.662   8.133
 2443POPC   C4A32442  24.976  21.521   7.695
 2443POPC   C1B32443  25.417  21.244   8.884
 2443POPC   C2B32444  25.286  21.284   8.475
 2443POPC   C3B32445  25.247  21.198   8.068
 2443POPC   C4B32446  25.436  21.328   7.715
 2444POPC   NC332447  41.286   0.436   9.555
 2444POPC   PO432448  41.778   0.786   9.596
 2444POPC   GL132449  41.638   0.449   9.202
 2444POPC   GL232450  41.355   0.155   9.153
 2444POPC   C1A32451  41.790   0.221   8.835
 2444POPC   D2A32452  41.989   0.388   8.427
 2444POPC   C3A32453  41.679   0.625   8.172
 2444POPC   C4A32454  41.581   0.609   7.728
 2444POPC   C1B32455  41.315   0.027   8.772
 2444POPC   C2B32456  41.245   0.296   8.410
 2444POPC   C3B32457  41.372   0.226   8.006
 2444POPC   C4B32458  41.484   0.129   7.596
 2445POPC   NC332459  37.391   8.980   9.551
 2445POPC   PO432460  36.761   8.937   9.525
 2445POPC   GL132461  36.750   8.853   9.129
 2445POPC   GL232462  37.108   8.945   9.112
 2445POPC   C1A32463  36.849   8.780   8.726
 2445POPC   D2A32464  37.035   8.967   8.425
 2445POPC   C3A32465  36.879   8.813   8.014
 2445POPC   C4A32466  36.642   8.820   7.655
 2445POPC   C1B32467  37.232   9.292   8.827
 2445POPC   C2B32468  37.238   9.438   8.383
 2445POPC   C3B32469  37.290   9.115   8.020
 2445POPC   C4B32470  37.160   8.951   7.586
 2446POPC   NC332471  21.950  39.690   9.437
 2446POPC   PO432472  22.264  40.274   9.520
 2446POPC   GL132473  22.030  40.208   9.162
 2446POPC   GL232474  21.785  39.987   9.050
 2446POPC   C1A32475  22.013  40.352   8.747
 2446POPC   D2A32476  21.973  40.159   8.342
 2446POPC   C3A32477  22.103  40.356   7.971
 2446POPC   C4A32478  22.184  40.182   7.587
 2446POPC   C1B32479  22.197  39.862   8.809
 2446POPC   C2B32480  22.285  39.742   8.361
 2446POPC   C3B32481  22.069  39.820   7.950
 2446POPC   C4B32482  22.019  39.717   7.498
 2447POPC   NC332483  26.393  20.166   9.469
 2447POPC   PO432484  26.080  19.614   9.647
 2447POPC   GL132485  26.046  19.794   9.260
 2447POPC   GL232486  26.392  19.689   9.230
 2447POPC   C1A32487  25.914  19.718   8.839
 2447POPC   D2A32488  25.997  19.544   8.426
 2447POPC   C3A32489  25.878  19.803   8.099
 2447POPC   C4A32490  25.793  19.941   7.705
 2447POPC   C1B32491  26.423  19.900   8.864
 2447POPC   C2B32492  26.528  19.724   8.497
 2447POPC   C3B32493  26.395  19.743   8.101
 2447POPC   C4B32494  26.350  19.647   7.675
 2448POPC   NC332495  44.825  24.852   9.427
 2448POPC   PO432496   0.148  25.390   9.484
 2448POPC   GL132497  44.698  25.333   9.256
 2448POPC   GL232498  44.564  25.041   9.044
 2448POPC   C1A32499  44.409  25.503   8.896
 2448POPC   D2A32500  44.299  25.583   8.459
 2448POPC   C3A32501  44.604  25.391   8.220
 2448POPC   C4A32502  44.643  25.419   7.803
 2448POPC   C1B32503  44.851  24.894   8.722
 2448POPC   C2B32504   0.028  25.024   8.320
 2448POPC   C3B32505  44.768  24.941   7.949
 2448POPC   C4B32506  44.764  25.020   7.512
 2449POPC   NC332507  44.329  10.813   9.370
 2449POPC   PO432508  43.858  11.205   9.530
 2449POPC   GL132509  44.015  11.188   9.142
 2449POPC   GL232510  43.866  10.857   9.120
 2449POPC   C1A32511  43.897  11.436   8.783
 2449POPC   D2A32512  43.764  11.347   8.354
 2449POPC   C3A32513  44.082  11.565   8.102
 2449POPC   C4A32514  44.134  11.638   7.671
 2449POPC   C1B32515  43.812  10.938   8.702
 2449POPC   C2B32516  43.576  10.856   8.333
 2449POPC   C3B32517  43.810  10.896   7.959
 2449POPC   C4B32518  43.740  11.308   7.804
 2450POPC   NC332519   6.128  37.495   9.427
 2450POPC   PO432520   6.640  37.931   9.461
 2450POPC   GL132521   6.460  37.859   9.065
 2450POPC   GL232522   6.492  37.511   9.065
 2450POPC   C1A32523   6.575  37.856   8.599
 2450POPC   D2A32524   6.900  37.797   8.268
 2450POPC   C3A32525   6.727  37.785   7.851
 2450POPC   C4A32526   6.747  37.933   7.418
 2450POPC   C1B32527   6.767  37.393   8.728
 2450POPC   C2B32528   6.655  37.356   8.303
 2450POPC   C3B32529   6.904  37.309   7.922
 2450POPC   C4B32530   6.865  37.414   7.486
 2451POPC   NC332531  23.145  20.251   9.382
 2451POPC   PO432532  22.932  20.924   9.436
 2451POPC   GL132533  22.879  20.650   9.099
 2451POPC   GL232534  22.692  20.330   9.095
 2451POPC   C1A32535  23.044  20.567   8.705
 2451POPC   D2A32536  23.192  20.747   8.334
 2451POPC   C3A32537  22.999  20.595   7.963
 2451POPC   C4A32538  23.161  20.380   7.647
 2451POPC   C1B32539  22.799  20.103   8.726
 2451POPC   C2B32540  22.984  20.214   8.329
 2451POPC   C3B32541  22.832  20.111   7.939
 2451POPC   C4B32542  22.669  20.248   7.574
 2452POPC   NC332543  11.578   0.195   9.602
 2452POPC   PO432544  11.072   0.684   9.616
 2452POPC   GL132545  11.253   0.446   9.267
 2452POPC   GL232546  11.053   0.207   9.072
 2452POPC   C1A32547  11.403   0.496   8.842
 2452POPC   D2A32548  11.439   0.348   8.416
 2452POPC   C3A32549  11.322   0.649   8.111
 2452POPC   C4A32550  11.413   0.636   7.690
 2452POPC   C1B32551  11.200  44.979   8.705
 2452POPC   C2B32552  11.159  44.949   8.250
 2452POPC   C3B32553  11.092   0.222   7.896
 2452POPC   C4B32554  10.898   0.077   7.553
 2453POPC   NC332555  36.494  35.222   9.475
 2453POPC   PO432556  35.946  35.582   9.402
 2453POPC   GL132557  36.101  35.396   9.038
 2453POPC   GL232558  36.433  35.285   8.998
 2453POPC   C1A32559  36.248  35.600   8.660
 2453POPC   D2A32560  36.452  35.421   8.315
 2453POPC   C3A32561  36.254  35.569   7.940
 2453POPC   C4A32562  36.163  35.549   7.480
 2453POPC   C1B32563  36.317  35.066   8.682
 2453POPC   C2B32564  36.429  34.886   8.345
 2453POPC   C3B32565  36.224  35.017   8.043
 2453POPC   C4B32566  36.271  35.117   7.691
 2454POPC   NC332567  40.952   5.622   9.312
 2454POPC   PO432568  40.755   6.195   9.502
 2454POPC   GL132569  40.712   6.041   9.114
 2454POPC   GL232570  40.493   6.295   9.010
 2454POPC   C1A32571  40.694   5.806   8.710
 2454POPC   D2A32572  40.508   5.851   8.288
 2454POPC   C3A32573  40.727   5.696   7.923
 2454POPC   C4A32574  40.919   5.799   7.509
 2454POPC   C1B32575  40.829   6.310   8.706
 2454POPC   C2B32576  40.981   6.071   8.370
 2454POPC   C3B32577  41.057   6.089   7.945
 2454POPC   C4B32578  41.141   6.289   7.557
 2455POPC   NC332579  26.667   7.668   9.509
 2455POPC   PO432580  27.192   7.213   9.749
 2455POPC   GL132581  27.020   7.387   9.257
 2455POPC   GL232582  27.008   7.655   9.120
 2455POPC   C1A32583  26.722   7.285   8.829
 2455POPC   D2A32584  26.455   7.182   8.440
 2455POPC   C3A32585  26.638   7.191   8.026
 2455POPC   C4A32586  26.723   7.301   7.586
 2455POPC   C1B32587  26.824   7.770   8.743
 2455POPC   C2B32588  26.646   7.675   8.346
 2455POPC   C3B32589  26.833   7.643   7.945
 2455POPC   C4B32590  27.015   7.728   7.539
 2456POPC   NC332591  16.987  30.861   9.628
 2456POPC   PO432592  16.383  30.532   9.497
 2456POPC   GL132593  16.705  30.608   9.179
 2456POPC   GL232594  16.906  30.336   9.078
 2456POPC   C1A32595  16.618  30.745   8.746
 2456POPC   D2A32596  16.733  30.679   8.324
 2456POPC   C3A32597  16.548  30.666   7.930
 2456POPC   C4A32598  16.615  31.002   7.649
 2456POPC   C1B32599  17.069  30.518   8.685
 2456POPC   C2B32600  17.215  30.580   8.262
 2456POPC   C3B32601  17.080  30.656   7.842
 2456POPC   C4B32602  17.051  30.356   7.511
 2457POPC   NC332603   3.909  28.911   9.411
 2457POPC   PO432604   4.535  29.251   9.525
 2457POPC   GL132605   4.308  29.124   9.190
 2457POPC   GL232606   4.491  28.887   9.079
 2457POPC   C1A32607   4.191  29.205   8.757
 2457POPC   D2A32608   4.324  29.041   8.339
 2457POPC   C3A32609   4.579  29.305   8.105
 2457POPC   C4A32610   4.460  29.531   7.752
 2457POPC   C1B32611   4.684  29.054   8.730
 2457POPC   C2B32612   4.810  28.884   8.353
 2457POPC   C3B32613   4.595  28.798   7.963
 2457POPC   C4B32614   4.284  29.050   7.741
 2458POPC   NC332615  34.968   6.503   9.435
 2458POPC   PO432616  34.312   6.265   9.510
 2458POPC   GL132617  34.486   6.569   9.189
 2458POPC   GL232618  34.452   6.912   9.175
 2458POPC   C1A32619  34.728   6.587   8.818
 2458POPC   D2A32620  34.629   6.673   8.413
 2458POPC   C3A32621  34.615   6.504   8.029
 2458POPC   C4A32622  34.382   6.531   7.641
 2458POPC   C1B32623  34.503   7.070   8.757
 2458POPC   C2B32624  34.294   7.034   8.350
 2458POPC   C3B32625  34.497   6.995   7.950
 2458POPC   C4B32626  34.540   6.978   7.480
 2459POPC   NC332627  34.792  36.346   9.480
 2459POPC   PO432628  34.202  36.309   9.240
 2459POPC   GL132629  34.558  36.316   9.018
 2459POPC   GL232630  34.787  36.013   9.111
 2459POPC   C1A32631  34.543  36.363   8.582
 2459POPC   D2A32632  34.635  36.137   8.241
 2459POPC   C3A32633  34.492  36.236   7.843
 2459POPC   C4A32634  34.832  36.150   7.606
 2459POPC   C1B32635  34.726  35.885   8.707
 2459POPC   C2B32636  34.875  35.605   8.382
 2459POPC   C3B32637  35.012  35.814   8.002
 2459POPC   C4B32638  34.894  35.652   7.628
 2460POPC   NC332639  30.969   8.785   9.630
 2460POPC   PO432640  30.458   9.167   9.465
 2460POPC   GL132641  30.871   9.149   9.232
 2460POPC   GL232642  31.046   9.472   9.212
 2460POPC   C1A32643  30.859   9.003   8.790
 2460POPC   D2A32644  30.591   9.104   8.406
 2460POPC   C3A32645  30.624   8.928   7.991
 2460POPC   C4A32646  30.371   8.587   7.868
 2460POPC   C1B32647  31.224   9.365   8.790
 2460POPC   C2B32648  31.098   9.196   8.374
 2460POPC   C3B32649  30.990   9.290   7.961
 2460POPC   C4B32650  30.781   9.253   7.555
 2461POPC   NC332651   7.736   0.565   9.348
 2461POPC   PO432652   7.046   0.624   9.445
 2461POPC   GL132653   7.250   0.734   9.091
 2461POPC   GL232654   7.340   0.397   9.074
 2461POPC   C1A32655   7.091   0.659   8.661
 2461POPC   D2A32656   7.096   0.374   8.312
 2461POPC   C3A32657   7.019   0.538   7.933
 2461POPC   C4A32658   7.196   0.892   7.736
 2461POPC   C1B32659   7.573   0.522   8.718
 2461POPC   C2B32660   7.605   0.337   8.336
 2461POPC   C3B32661   7.630   0.398   7.914
 2461POPC   C4B32662   7.944   0.156   7.690
 2462POPC   NC332663   8.029   8.029   9.456
 2462POPC   PO432664   8.514   8.502   9.487
 2462POPC   GL132665   8.366   8.277   9.139
 2462POPC   GL232666   8.027   8.353   9.067
 2462POPC   C1A32667   8.434   8.097   8.742
 2462POPC   D2A32668   8.270   7.916   8.364
 2462POPC   C3A32669   8.332   8.101   7.956
 2462POPC   C4A32670   8.239   8.522   7.816
 2462POPC   C1B32671   7.959   7.964   8.814
 2462POPC   C2B32672   7.755   7.881   8.440
 2462POPC   C3B32673   7.910   7.785   8.013
 2462POPC   C4B32674   7.883   8.040   7.661
 2463POPC   NC332675   0.274   0.871   9.468
 2463POPC   PO432676   0.675   1.426   9.529
 2463POPC   GL132677   0.364   1.278   9.181
 2463POPC   GL232678   0.385   0.944   8.974
 2463POPC   C1A32679   0.084   1.331   8.827
 2463POPC   D2A32680   0.148   1.152   8.424
 2463POPC   C3A32681   0.230   1.482   8.137
 2463POPC   C4A32682   0.236   1.340   7.735
 2463POPC   C1B32683   0.574   1.226   8.719
 2463POPC   C2B32684   0.689   1.310   8.346
 2463POPC   C3B32685   0.622   1.115   7.997
 2463POPC   C4B32686   0.529   0.930   7.643
 2464POPC   NC332687  18.870   2.457   9.412
 2464POPC   PO432688  19.420   2.151   9.608
 2464POPC   GL132689  19.190   2.079   9.240
 2464POPC   GL232690  19.105   1.752   9.196
 2464POPC   C1A32691  19.192   2.211   8.811
 2464POPC   D2A32692  18.931   2.205   8.422
 2464POPC   C3A32693  19.083   1.900   8.111
 2464POPC   C4A32694  19.362   2.035   7.783
 2464POPC   C1B32695  18.997   1.720   8.754
 2464POPC   C2B32696  18.655   1.753   8.444
 2464POPC   C3B32697  18.563   1.981   8.066
 2464POPC   C4B32698  18.765   1.848   7.682
 2465POPC   NC332699  13.999  12.987   9.174
 2465POPC   PO432700  13.343  13.054   9.421
 2465POPC   GL132701  13.522  12.920   9.042
 2465POPC   GL232702  13.647  12.622   9.127
 2465POPC   C1A32703  13.754  12.825   8.622
 2465POPC   D2A32704  14.022  12.969   8.288
 2465POPC   C3A32705  13.826  12.826   7.899
 2465POPC   C4A32706  13.421  12.909   7.720
 2465POPC   C1B32707  13.359  12.530   8.776
 2465POPC   C2B32708  13.502  12.464   8.372
 2465POPC   C3B32709  13.389  12.479   7.996
 2465POPC   C4B32710  13.406  12.383   7.613
 2466POPC   NC332711  23.817  17.581   9.458
 2466POPC   PO432712  23.195  17.460   9.336
 2466POPC   GL132713  23.497  17.685   9.040
 2466POPC   GL232714  23.812  17.890   9.066
 2466POPC   C1A32715  23.529  17.564   8.609
 2466POPC   D2A32716  23.712  17.154   8.445
 2466POPC   C3A32717  23.742  17.188   7.996
 2466POPC   C4A32718  23.446  17.466   7.767
 2466POPC   C1B32719  24.015  17.634   8.753
 2466POPC   C2B32720  23.969  17.579   8.323
 2466POPC   C3B32721  23.740  17.773   8.048
 2466POPC   C4B32722  23.907  17.748   7.699
 2467POPC   NC332723  39.875  42.644   9.511
 2467POPC   PO432724  40.419  42.145   9.611
 2467POPC   GL132725  40.171  42.235   9.228
 2467POPC   GL232726  39.784  42.237   9.198
 2467POPC   C1A32727  40.084  42.440   8.836
 2467POPC   D2A32728  40.196  42.452   8.402
 2467POPC   C3A32729  39.990  42.399   8.012
 2467POPC   C4A32730  40.240  42.406   7.587
 2467POPC   C1B32731  39.616  42.581   8.916
 2467POPC   C2B32732  39.672  42.547   8.461
 2467POPC   C3B32733  39.561  42.678   8.024
 2467POPC   C4B32734  39.746  42.564   7.591
 2468POPC   NC332735  39.666  22.785   9.677
 2468POPC   PO432736  40.322  22.611   9.431
 2468POPC   GL132737  39.982  22.732   9.081
 2468POPC   GL232738  39.637  22.871   9.170
 2468POPC   C1A32739  39.903  23.079   8.727
 2468POPC   D2A32740  40.059  23.224   8.292
 2468POPC   C3A32741  40.218  22.933   7.957
 2468POPC   C4A32742  40.296  22.725   7.556
 2468POPC   C1B32743  39.435  22.907   8.786
 2468POPC   C2B32744  39.484  23.084   8.401
 2468POPC   C3B32745  39.606  23.195   8.005
 2468POPC   C4B32746  39.816  22.973   7.643
 2469POPC   NC332747   5.072  29.641   9.491
 2469POPC   PO432748   4.922  30.282   9.341
 2469POPC   GL132749   5.171  30.011   9.099
 2469POPC   GL232750   5.303  29.606   9.041
 2469POPC   C1A32751   5.046  30.210   8.700
 2469POPC   D2A32752   4.830  30.316   8.344
 2469POPC   C3A32753   5.086  30.220   7.989
 2469POPC   C4A32754   5.006  30.095   7.621
 2469POPC   C1B32755   4.997  29.694   8.741
 2469POPC   C2B32756   5.080  29.846   8.326
 2469POPC   C3B32757   5.094  29.644   7.913
 2469POPC   C4B32758   5.312  29.368   7.588
 2470POPC   NC332759   6.625  28.712   9.490
 2470POPC   PO432760   6.937  28.119   9.529
 2470POPC   GL132761   6.725  28.311   9.162
 2470POPC   GL232762   6.383  28.445   9.133
 2470POPC   C1A32763   6.677  28.140   8.754
 2470POPC   D2A32764   6.982  28.107   8.425
 2470POPC   C3A32765   6.889  27.917   8.069
 2470POPC   C4A32766   6.768  27.958   7.664
 2470POPC   C1B32767   6.566  28.649   8.758
 2470POPC   C2B32768   6.572  28.427   8.354
 2470POPC   C3B32769   6.454  28.242   7.973
 2470POPC   C4B32770   6.519  28.406   7.557
 2471POPC   NC332771   7.450  27.108   9.361
 2471POPC   PO432772   7.693  26.478   9.462
 2471POPC   GL132773   7.661  26.748   9.072
 2471POPC   GL232774   7.306  26.853   8.962
 2471POPC   C1A32775   7.671  27.092   8.717
 2471POPC   D2A32776   7.373  27.140   8.380
 2471POPC   C3A32777   7.446  27.027   7.964
 2471POPC   C4A32778   7.731  26.696   7.820
 2471POPC   C1B32779   7.176  26.447   8.874
 2471POPC   C2B32780   7.053  26.447   8.462
 2471POPC   C3B32781   7.229  26.563   8.055
 2471POPC   C4B32782   7.188  26.350   7.666
 2472POPC   NC332783  11.318  20.985   9.576
 2472POPC   PO432784  11.295  20.364   9.483
 2472POPC   GL132785  11.200  20.452   9.097
 2472POPC   GL232786  11.361  20.779   9.113
 2472POPC   C1A32787  11.420  20.480   8.696
 2472POPC   D2A32788  11.607  20.425   8.292
 2472POPC   C3A32789  11.499  20.724   8.005
 2472POPC   C4A32790  11.216  20.573   7.708
 2472POPC   C1B32791  11.049  20.815   8.791
 2472POPC   C2B32792  11.167  20.859   8.406
 2472POPC   C3B32793  11.015  20.885   8.044
 2472POPC   C4B32794  11.195  21.073   7.701
 2473POPC   NC332795  38.736  10.080   9.432
 2473POPC   PO432796  38.444   9.502   9.603
 2473POPC   GL132797  38.431   9.716   9.195
 2473POPC   GL232798  38.239  10.007   9.144
 2473POPC   C1A32799  38.593   9.795   8.760
 2473POPC   D2A32800  38.457   9.465   8.459
 2473POPC   C3A32801  38.211   9.515   8.096
 2473POPC   C4A32802  38.398   9.504   7.694
 2473POPC   C1B32803  38.099   9.708   8.786
 2473POPC   C2B32804  38.191   9.918   8.425
 2473POPC   C3B32805  38.261  10.218   8.133
 2473POPC   C4B32806  38.267  10.022   7.737
 2474POPC   NC332807  28.068  12.152   9.824
 2474POPC   PO432808  28.680  12.121   9.568
 2474POPC   GL132809  28.566  12.076   9.163
 2474POPC   GL232810  28.504  11.785   9.163
 2474POPC   C1A32811  28.644  12.134   8.756
 2474POPC   D2A32812  28.577  11.904   8.419
 2474POPC   C3A32813  28.492  12.041   8.043
 2474POPC   C4A32814  28.451  12.303   7.707
 2474POPC   C1B32815  28.258  11.776   8.821
 2474POPC   C2B32816  28.100  11.664   8.445
 2474POPC   C3B32817  28.029  11.810   8.055
 2474POPC   C4B32818  28.240  11.742   7.722
 2475POPC   NC332819  17.109   8.483   9.575
 2475POPC   PO432820  17.505   8.010   9.332
 2475POPC   GL132821  17.390   8.100   8.988
 2475POPC   GL232822  17.258   8.407   9.082
 2475POPC   C1A32823  17.523   8.125   8.609
 2475POPC   D2A32824  17.433   7.997   8.210
 2475POPC   C3A32825  17.682   8.114   7.869
 2475POPC   C4A32826  17.664   7.997   7.421
 2475POPC   C1B32827  17.500   8.620   8.762
 2475POPC   C2B32828  17.599   8.528   8.313
 2475POPC   C3B32829  17.342   8.523   7.971
 2475POPC   C4B32830  17.335   8.373   7.578
 2476POPC   NC332831  17.394  16.893   9.473
 2476POPC   PO432832  17.319  16.354   9.857
 2476POPC   GL132833  17.511  16.320   9.364
 2476POPC   GL232834  17.717  16.586   9.174
 2476POPC   C1A32835  17.374  16.444   8.844
 2476POPC   D2A32836  17.282  16.785   8.475
 2476POPC   C3A32837  17.264  16.670   8.014
 2476POPC   C4A32838  17.337  16.778   7.552
 2476POPC   C1B32839  17.697  16.848   8.777
 2476POPC   C2B32840  17.759  16.942   8.321
 2476POPC   C3B32841  17.863  17.194   7.936
 2476POPC   C4B32842  17.820  16.900   7.627
 2477POPC   NC332843  13.050   2.235   9.476
 2477POPC   PO432844  12.502   1.809   9.539
 2477POPC   GL132845  12.837   1.840   9.185
 2477POPC   GL232846  12.658   2.135   9.139
 2477POPC   C1A32847  12.980   2.071   8.752
 2477POPC   D2A32848  12.741   2.097   8.346
 2477POPC   C3A32849  12.949   2.058   7.911
 2477POPC   C4A32850  13.111   2.148   7.494
 2477POPC   C1B32851  12.450   1.904   8.779
 2477POPC   C2B32852  12.491   1.624   8.416
 2477POPC   C3B32853  12.386   1.666   7.990
 2477POPC   C4B32854  12.525   1.883   7.590
 2478POPC   NC332855  10.687  42.495   9.251
 2478POPC   PO432856  10.279  42.243   9.685
 2478POPC   GL132857  10.198  42.265   9.221
 2478POPC   GL232858  10.112  42.573   9.067
 2478POPC   C1A32859  10.346  42.190   8.787
 2478POPC   D2A32860  10.452  41.951   8.418
 2478POPC   C3A32861  10.585  42.086   8.024
 2478POPC   C4A32862  10.539  41.855   7.646
 2478POPC   C1B32863  10.255  42.693   8.663
 2478POPC   C2B32864  10.528  42.500   8.334
 2478POPC   C3B32865  10.691  42.582   7.892
 2478POPC   C4B32866  10.702  42.618   7.412
 2479POPC   NC332867  17.987  17.678   9.324
 2479POPC   PO432868  17.442  17.346   9.544
 2479POPC   GL132869  17.311  17.428   9.150
 2479POPC   GL232870  17.512  17.719   9.082
 2479POPC   C1A32871  17.386  17.389   8.712
 2479POPC   D2A32872  17.629  17.445   8.353
 2479POPC   C3A32873  17.380  17.222   8.058
 2479POPC   C4A32874  17.461  17.282   7.626
 2479POPC   C1B32875  17.490  17.944   8.677
 2479POPC   C2B32876  17.527  17.937   8.241
 2479POPC   C3B32877  17.467  17.756   7.860
 2479POPC   C4B32878  17.412  18.084   7.535
 2480POPC   NC332879  15.870  16.561   9.501
 2480POPC   PO432880  16.276  16.968   9.697
 2480POPC   GL132881  16.079  16.960   9.256
 2480POPC   GL232882  16.230  16.637   9.131
 2480POPC   C1A32883  15.910  16.875   8.799
 2480POPC   D2A32884  15.943  16.571   8.408
 2480POPC   C3A32885  15.723  16.595   7.985
 2480POPC   C4A32886  15.823  16.677   7.564
 2480POPC   C1B32887  16.403  16.488   8.741
 2480POPC   C2B32888  16.338  16.255   8.341
 2480POPC   C3B32889  16.255  16.483   7.955
 2480POPC   C4B32890  16.335  16.508   7.496
 2481POPC   NC332891   2.156  27.969   9.765
 2481POPC   PO432892   1.724  28.351   9.509
 2481POPC   GL132893   1.960  28.492   9.152
 2481POPC   GL232894   2.276  28.297   9.043
 2481POPC   C1A32895   2.026  28.586   8.712
 2481POPC   D2A32896   1.821  28.467   8.349
 2481POPC   C3A32897   1.951  28.424   7.953
 2481POPC   C4A32898   1.754  28.615   7.593
 2481POPC   C1B32899   2.227  27.973   8.738
 2481POPC   C2B32900   2.164  28.079   8.306
 2481POPC   C3B32901   2.289  28.021   7.891
 2481POPC   C4B32902   2.240  28.291   7.551
 2482POPC   NC332903  34.208  41.435   9.434
 2482POPC   PO432904  34.780  41.700   9.449
 2482POPC   GL132905  34.719  41.386   9.099
 2482POPC   GL232906  34.385  41.356   8.966
 2482POPC   C1A32907  34.775  41.240   8.651
 2482POPC   D2A32908  34.495  41.333   8.322
 2482POPC   C3A32909  34.515  41.159   7.913
 2482POPC   C4A32910  34.399  41.351   7.510
 2482POPC   C1B32911  34.524  41.683   8.699
 2482POPC   C2B32912  34.392  41.836   8.291
 2482POPC   C3B32913  34.266  41.698   7.878
 2482POPC   C4B32914  34.167  41.893   7.491
 2483POPC   NC332915  43.137  34.989   9.460
 2483POPC   PO432916  43.307  34.380   9.571
 2483POPC   GL132917  43.249  34.476   9.158
 2483POPC   GL232918  43.465  34.293   8.966
 2483POPC   C1A32919  43.353  34.748   8.795
 2483POPC   D2A32920  43.081  34.816   8.451
 2483POPC   C3A32921  43.043  34.809   8.005
 2483POPC   C4A32922  43.212  34.793   7.589
 2483POPC   C1B32923  43.103  34.316   8.673
 2483POPC   C2B32924  42.971  34.309   8.265
 2483POPC   C3B32925  43.210  34.335   7.899
 2483POPC   C4B32926  43.478  34.368   7.578
 2484POPC   NC332927  35.777  14.215   9.453
 2484POPC   PO432928  36.454  14.666   9.506
 2484POPC   GL132929  36.246  14.376   9.267
 2484POPC   GL232930  35.974  14.599   9.197
 2484POPC   C1A32931  36.274  14.307   8.839
 2484POPC   D2A32932  36.343  14.475   8.429
 2484POPC   C3A32933  36.092  14.468   8.056
 2484POPC   C4A32934  36.235  14.304   7.654
 2484POPC   C1B32935  35.840  14.566   8.778
 2484POPC   C2B32936  35.947  14.824   8.438
 2484POPC   C3B32937  35.821  14.920   8.022
 2484POPC   C4B32938  35.750  14.628   7.684
 2485POPC   NC332939   8.246  29.659   9.421
 2485POPC   PO432940   8.138  30.242   9.645
 2485POPC   GL132941   8.202  30.100   9.216
 2485POPC   GL232942   7.914  30.120   9.040
 2485POPC   C1A32943   8.361  29.955   8.810
 2485POPC   D2A32944   8.351  29.640   8.442
 2485POPC   C3A32945   8.259  29.840   8.031
 2485POPC   C4A32946   8.439  29.805   7.617
 2485POPC   C1B32947   7.915  29.715   8.792
 2485POPC   C2B32948   7.851  29.497   8.380
 2485POPC   C3B32949   7.757  29.716   7.990
 2485POPC   C4B32950   7.872  29.948   7.627
 2486POPC   NC332951   2.317  41.523   9.347
 2486POPC   PO432952   2.910  41.887   9.591
 2486POPC   GL132953   2.912  41.586   9.186
 2486POPC   GL232954   2.652  41.398   8.998
 2486POPC   C1A32955   2.979  41.661   8.723
 2486POPC   D2A32956   2.951  41.360   8.362
 2486POPC   C3A32957   2.737  41.481   7.968
 2486POPC   C4A32958   2.723  41.389   7.530
 2486POPC   C1B32959   2.389  41.536   8.685
 2486POPC   C2B32960   2.123  41.808   8.468
 2486POPC   C3B32961   2.250  41.716   8.045
 2486POPC   C4B32962   2.402  41.752   7.630
 2487POPC   NC332963  17.766  44.001   9.438
 2487POPC   PO432964  17.205  43.550   9.322
 2487POPC   GL132965  17.382  43.903   9.120
 2487POPC   GL232966  17.183  44.241   9.161
 2487POPC   C1A32967  17.701  43.879   8.798
 2487POPC   D2A32968  17.720  44.061   8.405
 2487POPC   C3A32969  17.823  43.805   8.083
 2487POPC   C4A32970  17.620  43.783   7.706
 2487POPC   C1B32971  17.341  44.246   8.752
 2487POPC   C2B32972  17.220  44.031   8.364
 2487POPC   C3B32973  17.410  44.150   7.970
 2487POPC   C4B32974  17.271  44.121   7.535
 2488POPC   NC332975  33.297   4.347   9.561
 2488POPC   PO432976  32.623   4.312   9.467
 2488POPC   GL132977  32.960   4.332   9.166
 2488POPC   GL232978  32.752   4.194   8.953
 2488POPC   C1A32979  33.206   4.291   8.772
 2488POPC   D2A32980  33.293   4.128   8.374
 2488POPC   C3A32981  33.131   4.423   8.069
 2488POPC   C4A32982  33.031   4.350   7.643
 2488POPC   C1B32983  32.753   4.584   8.725
 2488POPC   C2B32984  32.506   4.681   8.331
 2488POPC   C3B32985  32.599   4.489   7.917
 2488POPC   C4B32986  32.578   4.411   7.433
 2489POPC   NC332987   2.547  16.178   9.436
 2489POPC   PO432988   3.117  15.763   9.566
 2489POPC   GL132989   2.927  15.970   9.172
 2489POPC   GL232990   2.649  15.752   9.159
 2489POPC   C1A32991   2.695  16.078   8.761
 2489POPC   D2A32992   2.735  16.101   8.304
 2489POPC   C3A32993   2.919  15.853   7.948
 2489POPC   C4A32994   2.781  16.119   7.612
 2489POPC   C1B32995   2.545  15.591   8.731
 2489POPC   C2B32996   2.435  15.623   8.268
 2489POPC   C3B32997   2.409  15.872   7.876
 2489POPC   C4B32998   2.371  15.887   7.420
 2490POPC   NC332999  17.490  13.377   9.452
 2490POPC   PO433000  17.800  14.106   9.401
 2490POPC   GL133001  17.717  13.715   9.169
 2490POPC   GL233002  17.342  13.673   9.091
 2490POPC   C1A33003  17.734  13.483   8.788
 2490POPC   D2A33004  17.442  13.572   8.449
 2490POPC   C3A33005  17.561  13.758   8.053
 2490POPC   C4A33006  17.818  13.555   7.755
 2490POPC   C1B33007  17.104  13.918   8.839
 2490POPC   C2B33008  17.196  14.035   8.446
 2490POPC   C3B33009  17.053  13.814   8.074
 2490POPC   C4B33010  17.103  13.495   7.766
 2491POPC   NC333011  26.261  37.991   9.523
 2491POPC   PO433012  25.844  38.522   9.442
 2491POPC   GL133013  26.091  38.389   9.154
 2491POPC   GL233014  25.934  38.062   9.123
 2491POPC   C1A33015  26.244  38.590   8.775
 2491POPC   D2A33016  26.002  38.808   8.491
 2491POPC   C3A33017  26.134  38.747   8.103
 2491POPC   C4A33018  26.086  38.556   7.719
 2491POPC   C1B33019  26.232  38.081   8.776
 2491POPC   C2B33020  26.176  38.258   8.348
 2491POPC   C3B33021  26.077  38.102   7.941
 2491POPC   C4B33022  26.107  38.054   7.500
 2492POPC   NC333023  12.947  41.935   9.210
 2492POPC   PO433024  12.686  41.304   9.513
 2492POPC   GL133025  12.859  41.446   9.173
 2492POPC   GL233026  12.559  41.607   9.069
 2492POPC   C1A33027  12.823  41.354   8.733
 2492POPC   D2A33028  12.624  41.433   8.361
 2492POPC   C3A33029  12.940  41.481   8.043
 2492POPC   C4A33030  12.794  41.193   7.740
 2492POPC   C1B33031  12.623  41.852   8.660
 2492POPC   C2B33032  12.618  41.917   8.204
 2492POPC   C3B33033  12.591  41.761   7.786
 2492POPC   C4B33034  12.412  41.876   7.386
 2493POPC   NC333035  25.416  31.643   9.410
 2493POPC   PO433036  24.948  31.086   9.325
 2493POPC   GL133037  25.055  31.415   9.081
 2493POPC   GL233038  25.378  31.281   9.069
 2493POPC   C1A33039  25.201  31.752   8.795
 2493POPC   D2A33040  25.386  31.859   8.405
 2493POPC   C3A33041  25.358  31.543   8.105
 2493POPC   C4A33042  25.297  31.686   7.699
 2493POPC   C1B33043  25.595  31.073   8.805
 2493POPC   C2B33044  25.616  31.232   8.430
 2493POPC   C3B33045  25.804  31.221   8.067
 2493POPC   C4B33046  25.605  31.262   7.701
 2494POPC   NC333047  22.567  40.618   9.406
 2494POPC   PO433048  23.142  41.054   9.466
 2494POPC   GL133049  22.975  40.837   9.148
 2494POPC   GL233050  22.953  40.468   9.077
 2494POPC   C1A33051  22.848  40.903   8.776
 2494POPC   D2A33052  22.771  40.671   8.450
 2494POPC   C3A33053  22.877  40.999   8.143
 2494POPC   C4A33054  22.842  40.936   7.718
 2494POPC   C1B33055  23.247  40.557   8.742
 2494POPC   C2B33056  23.245  40.685   8.320
 2494POPC   C3B33057  23.053  40.481   7.987
 2494POPC   C4B33058  23.055  40.495   7.540
 2495POPC   NC333059  33.219  17.803   9.933
 2495POPC   PO433060  32.843  18.191   9.490
 2495POPC   GL133061  32.913  18.293   9.097
 2495POPC   GL233062  33.244  18.255   9.111
 2495POPC   C1A33063  32.998  18.498   8.716
 2495POPC   D2A33064  32.791  18.290   8.407
 2495POPC   C3A33065  32.991  18.185   8.049
 2495POPC   C4A33066  32.739  18.221   7.685
 2495POPC   C1B33067  33.112  17.999   8.729
 2495POPC   C2B33068  33.325  17.918   8.359
 2495POPC   C3B33069  33.427  17.900   7.927
 2495POPC   C4B33070  33.267  18.179   7.617
 2496POPC   NC333071   6.701  25.450   9.426
 2496POPC   PO433072   6.724  26.230   9.457
 2496POPC   GL133073   6.735  25.895   9.139
 2496POPC   GL233074   6.407  25.696   9.100
 2496POPC   C1A33075   6.850  26.010   8.719
 2496POPC   D2A33076   6.602  26.246   8.404
 2496POPC   C3A33077   6.799  26.263   8.039
 2496POPC   C4A33078   6.677  26.146   7.650
 2496POPC   C1B33079   6.349  26.036   8.801
 2496POPC   C2B33080   6.159  25.985   8.396
 2496POPC   C3B33081   6.228  25.764   8.012
 2496POPC   C4B33082   6.354  25.690   7.625
 2497POPC   NC333083   3.240  13.579   9.332
 2497POPC   PO433084   2.676  13.858   9.672
 2497POPC   GL133085   2.741  13.728   9.260
 2497POPC   GL233086   2.646  13.385   9.230
 2497POPC   C1A33087   2.749  13.723   8.825
 2497POPC   D2A33088   2.568  13.604   8.435
 2497POPC   C3A33089   2.853  13.639   8.106
 2497POPC   C4A33090   2.681  13.656   7.711
 2497POPC   C1B33091   2.430  13.311   8.836
 2497POPC   C2B33092   2.450  13.099   8.416
 2497POPC   C3B33093   2.600  13.201   7.995
 2497POPC   C4B33094   2.999  13.276   7.751
 2498POPC   NC333095  32.309  16.261   9.436
 2498POPC   PO433096  31.969  16.760   9.622
 2498POPC   GL133097  32.115  16.785   9.190
 2498POPC   GL233098  31.900  17.070   9.166
 2498POPC   C1A33099  32.299  16.633   8.785
 2498POPC   D2A33100  32.591  16.661   8.433
 2498POPC   C3A33101  32.389  16.660   8.037
 2498POPC   C4A33102  32.020  16.478   7.844
 2498POPC   C1B33103  32.104  17.113   8.763
 2498POPC   C2B33104  31.952  17.187   8.352
 2498POPC   C3B33105  32.107  17.075   7.967
 2498POPC   C4B33106  32.348  17.004   7.602
 2499POPC   NC333107  18.395  25.745   9.400
 2499POPC   PO433108  18.261  26.432   9.450
 2499POPC   GL133109  18.202  26.147   9.107
 2499POPC   GL233110  18.547  26.122   9.023
 2499POPC   C1A33111  18.179  26.020   8.669
 2499POPC   D2A33112  18.175  25.742   8.280
 2499POPC   C3A33113  17.962  25.920   7.946
 2499POPC   C4A33114  17.952  26.026   7.538
 2499POPC   C1B33115  18.691  25.926   8.597
 2499POPC   C2B33116  18.675  25.811   8.151
 2499POPC   C3B33117  18.439  26.001   7.807
 2499POPC   C4B33118  18.396  26.179   7.374
 2500POPC   NC333119  35.578  31.372   9.502
 2500POPC   PO433120  35.134  31.785   9.762
 2500POPC   GL133121  35.165  31.575   9.285
 2500POPC   GL233122  34.986  31.338   9.154
 2500POPC   C1A33123  35.409  31.485   8.873
 2500POPC   D2A33124  35.568  31.443   8.443
 2500POPC   C3A33125  35.369  31.582   8.031
 2500POPC   C4A33126  35.479  31.581   7.593
 2500POPC   C1B33127  34.947  31.662   8.835
 2500POPC   C2B33128  35.067  31.517   8.455
 2500POPC   C3B33129  35.072  31.187   8.186
 2500POPC   C4B33130  35.031  31.254   7.764
 2501POPC   NC333131  43.759  15.498   9.534
 2501POPC   PO433132  43.872  14.843   9.520
 2501POPC   GL133133  43.948  15.100   9.117
 2501POPC   GL233134  43.857  15.464   9.050
 2501POPC   C1A33135  44.007  15.193   8.657
 2501POPC   D2A33136  43.791  15.015   8.272
 2501POPC   C3A33137  43.987  15.171   7.902
 2501POPC   C4A33138  44.397  15.280   7.834
 2501POPC   C1B33139  43.876  15.698   8.687
 2501POPC   C2B33140  43.964  15.578   8.277
 2501POPC   C3B33141  43.636  15.523   8.000
 2501POPC   C4B33142  43.573  15.328   7.597
 2502POPC   NC333143  33.624   7.755   9.505
 2502POPC   PO433144  33.684   8.417   9.593
 2502POPC   GL133145  33.709   8.160   9.189
 2502POPC   GL233146  34.030   8.000   9.093
 2502POPC   C1A33147  33.694   8.220   8.738
 2502POPC   D2A33148  33.860   8.421   8.362
 2502POPC   C3A33149  33.807   8.242   7.925
 2502POPC   C4A33150  33.704   7.986   7.558
 2502POPC   C1B33151  34.202   8.150   8.668
 2502POPC   C2B33152  34.228   8.121   8.185
 2502POPC   C3B33153  34.148   7.895   7.774
 2502POPC   C4B33154  34.114   8.075   7.287
 2503POPC   NC333155  28.453   4.876   9.712
 2503POPC   PO433156  28.270   4.255   9.812
 2503POPC   GL133157  28.377   4.274   9.305
 2503POPC   GL233158  28.696   4.400   9.192
 2503POPC   C1A33159  28.259   4.243   8.853
 2503POPC   D2A33160  28.134   4.404   8.459
 2503POPC   C3A33161  28.304   4.281   8.058
 2503POPC   C4A33162  28.162   4.324   7.628
 2503POPC   C1B33163  28.656   4.558   8.772
 2503POPC   C2B33164  28.820   4.671   8.392
 2503POPC   C3B33165  28.935   4.578   8.000
 2503POPC   C4B33166  28.603   4.584   7.733
 2504POPC   NC333167   5.492  31.265   9.410
 2504POPC   PO433168   4.816  31.637   9.477
 2504POPC   GL133169   4.901  31.527   9.093
 2504POPC   GL233170   5.224  31.645   9.163
 2504POPC   C1A33171   5.079  31.442   8.705
 2504POPC   D2A33172   4.903  31.457   8.321
 2504POPC   C3A33173   5.183  31.479   7.979
 2504POPC   C4A33174   4.977  31.485   7.557
 2504POPC   C1B33175   5.284  31.951   8.864
 2504POPC   C2B33176   5.253  31.885   8.432
 2504POPC   C3B33177   5.135  31.993   8.033
 2504POPC   C4B33178   5.277  31.868   7.675
 2505POPC   NC333179  19.296  16.765   9.594
 2505POPC   PO433180  18.651  16.544   9.481
 2505POPC   GL133181  19.017  16.662   9.184
 2505POPC   GL233182  19.235  16.978   9.145
 2505POPC   C1A33183  19.171  16.634   8.783
 2505POPC   D2A33184  19.048  16.414   8.426
 2505POPC   C3A33185  19.058  16.609   8.048
 2505POPC   C4A33186  18.956  16.552   7.647
 2505POPC   C1B33187  19.097  17.144   8.774
 2505POPC   C2B33188  19.068  16.968   8.399
 2505POPC   C3B33189  19.153  17.120   8.014
 2505POPC   C4B33190  19.285  16.939   7.631
 2506POPC   NC333191   7.505  20.348   9.685
 2506POPC   PO433192   7.623  19.768   9.365
 2506POPC   GL133193   7.482  19.909   9.023
 2506POPC   GL233194   7.198  20.051   9.120
 2506POPC   C1A33195   7.628  19.909   8.624
 2506POPC   D2A33196   7.486  20.057   8.245
 2506POPC   C3A33197   7.574  19.742   7.986
 2506POPC   C4A33198   7.461  19.580   7.582
 2506POPC   C1B33199   7.136  20.106   8.679
 2506POPC   C2B33200   6.975  19.979   8.287
 2506POPC   C3B33201   7.085  19.815   7.924
 2506POPC   C4B33202   7.261  20.047   7.643
 2507POPC   NC333203  18.081  42.368   9.408
 2507POPC   PO433204  18.597  42.820   9.357
 2507POPC   GL133205  18.534  42.414   9.114
 2507POPC   GL233206  18.522  42.035   9.118
 2507POPC   C1A33207  18.382  42.333   8.695
 2507POPC   D2A33208  18.535  42.394   8.281
 2507POPC   C3A33209  18.250  42.528   7.931
 2507POPC   C4A33210  18.282  42.462   7.473
 2507POPC   C1B33211  18.122  41.928   8.862
 2507POPC   C2B33212  17.937  42.116   8.511
 2507POPC   C3B33213  18.113  42.087   8.138
 2507POPC   C4B33214  18.136  42.020   7.722
 2508POPC   NC333215   5.361  30.401   9.447
 2508POPC   PO433216   6.090  30.262   9.393
 2508POPC   GL133217   6.055  30.692   9.198
 2508POPC   GL233218   5.700  30.763   9.235
 2508POPC   C1A33219   5.921  31.034   8.865
 2508POPC   D2A33220   5.630  31.065   8.517
 2508POPC   C3A33221   5.845  31.027   8.101
 2508POPC   C4A33222   5.784  30.822   7.677
 2508POPC   C1B33223   5.708  30.579   8.821
 2508POPC   C2B33224   5.785  30.594   8.398
 2508POPC   C3B33225   5.494  30.618   8.054
 2508POPC   C4B33226   5.568  30.346   7.706
 2509POPC   NC333227  24.872   7.389   9.469
 2509POPC   PO433228  25.582   7.267   9.354
 2509POPC   GL133229  25.219   7.195   9.120
 2509POPC   GL233230  25.163   7.554   9.096
 2509POPC   C1A33231  25.025   7.206   8.723
 2509POPC   D2A33232  25.204   7.294   8.315
 2509POPC   C3A33233  24.987   7.261   7.895
 2509POPC   C4A33234  25.052   7.288   7.414
 2509POPC   C1B33235  25.262   7.687   8.696
 2509POPC   C2B33236  25.079   7.812   8.335
 2509POPC   C3B33237  25.280   7.672   7.982
 2509POPC   C4B33238  25.107   7.745   7.624
 2510POPC   NC333239   5.324  10.762   9.832
 2510POPC   PO433240   4.938  10.238   9.583
 2510POPC   GL133241   4.925  10.400   9.170
 2510POPC   GL233242   4.947  10.758   9.196
 2510POPC   C1A33243   4.900  10.287   8.751
 2510POPC   D2A33244   5.003  10.492   8.358
 2510POPC   C3A33245   4.785  10.347   7.974
 2510POPC   C4A33246   4.924  10.505   7.590
 2510POPC   C1B33247   5.161  10.776   8.785
 2510POPC   C2B33248   5.317  10.930   8.357
 2510POPC   C3B33249   5.234  10.768   7.933
 2510POPC   C4B33250   5.429  10.576   7.552
 2511POPC   NC333251   6.927  44.224   9.442
 2511POPC   PO433252   6.465  43.826   9.503
 2511POPC   GL133253   6.492  44.111   9.188
 2511POPC   GL233254   6.723  43.924   9.012
 2511POPC   C1A33255   6.514  44.306   8.766
 2511POPC   D2A33256   6.767  44.054   8.483
 2511POPC   C3A33257   6.597  43.965   8.112
 2511POPC   C4A33258   6.694  44.014   7.716
 2511POPC   C1B33259   6.768  43.580   8.726
 2511POPC   C2B33260   6.991  43.470   8.365
 2511POPC   C3B33261   6.955  43.623   7.943
 2511POPC   C4B33262   6.850  43.556   7.488
 2512POPC   NC333263   7.779  38.202   9.414
 2512POPC   PO433264   7.266  38.698   9.605
 2512POPC   GL133265   7.243  38.603   9.176
 2512POPC   GL233266   7.537  38.525   9.139
 2512POPC   C1A33267   7.260  38.407   8.738
 2512POPC   D2A33268   7.274  38.123   8.382
 2512POPC   C3A33269   7.158  38.386   8.019
 2512POPC   C4A33270   7.235  38.835   7.975
 2512POPC   C1B33271   7.778  38.487   8.796
 2512POPC   C2B33272   7.863  38.706   8.447
 2512POPC   C3B33273   7.749  38.557   8.036
 2512POPC   C4B33274   7.991  38.236   7.770
 2513POPC   NC333275  42.428  35.874   9.494
 2513POPC   PO433276  41.888  36.319   9.399
 2513POPC   GL133277  42.202  36.189   9.142
 2513POPC   GL233278  42.045  35.891   9.118
 2513POPC   C1A33279  42.336  36.127   8.713
 2513POPC   D2A33280  42.283  36.437   8.372
 2513POPC   C3A33281  42.360  36.319   7.949
 2513POPC   C4A33282  42.578  35.957   7.782
 2513POPC   C1B33283  41.834  36.110   8.769
 2513POPC   C2B33284  41.962  36.028   8.367
 2513POPC   C3B33285  41.843  36.106   7.987
 2513POPC   C4B33286  42.063  35.969   7.698
 2514POPC   NC333287   1.780  40.205   9.576
 2514POPC   PO433288   2.392  40.310   9.476
 2514POPC   GL133289   2.164  40.101   9.140
 2514POPC   GL233290   1.808  39.976   9.118
 2514POPC   C1A33291   2.093  40.034   8.703
 2514POPC   D2A33292   2.212  40.237   8.316
 2514POPC   C3A33293   2.183  39.871   8.067
 2514POPC   C4A33294   1.991  39.765   7.681
 2514POPC   C1B33295   1.688  39.694   8.798
 2514POPC   C2B33296   1.897  39.609   8.406
 2514POPC   C3B33297   1.679  39.657   8.052
 2514POPC   C4B33298   1.375  39.610   7.767
 2515POPC   NC333299  22.471  20.999   9.379
 2515POPC   PO433300  21.961  21.269   9.677
 2515POPC   GL133301  22.085  21.328   9.218
 2515POPC   GL233302  22.142  21.680   9.174
 2515POPC   C1A33303  22.225  21.292   8.734
 2515POPC   D2A33304  22.330  21.126   8.318
 2515POPC   C3A33305  22.086  21.251   7.933
 2515POPC   C4A33306  22.121  20.992   7.530
 2515POPC   C1B33307  21.940  21.742   8.774
 2515POPC   C2B33308  22.099  21.647   8.354
 2515POPC   C3B33309  22.192  21.776   7.936
 2515POPC   C4B33310  21.946  21.792   7.616
 2516POPC   NC333311   2.417  24.678   9.444
 2516POPC   PO433312   1.805  24.814   9.489
 2516POPC   GL133313   1.996  24.582   9.150
 2516POPC   GL233314   1.903  24.220   9.149
 2516POPC   C1A33315   2.064  24.669   8.726
 2516POPC   D2A33316   1.903  24.526   8.356
 2516POPC   C3A33317   2.043  24.787   8.026
 2516POPC   C4A33318   2.280  24.842   7.668
 2516POPC   C1B33319   2.200  24.169   8.807
 2516POPC   C2B33320   2.354  24.237   8.379
 2516POPC   C3B33321   2.122  24.248   7.991
 2516POPC   C4B33322   1.910  24.016   7.653
 2517POPC   NC333323  44.506  29.648   9.334
 2517POPC   PO433324  43.835  29.892   9.541
 2517POPC   GL133325  43.781  29.887   9.150
 2517POPC   GL233326  43.743  30.221   9.115
 2517POPC   C1A33327  43.732  29.750   8.762
 2517POPC   D2A33328  43.699  29.444   8.452
 2517POPC   C3A33329  43.671  29.615   8.089
 2517POPC   C4A33330  43.844  29.579   7.659
 2517POPC   C1B33331  43.962  30.208   8.738
 2517POPC   C2B33332  43.735  30.215   8.366
 2517POPC   C3B33333  43.799  30.076   7.946
 2517POPC   C4B33334  43.633  30.295   7.596
 2518POPC   NC333335  24.731  36.706   9.483
 2518POPC   PO433336  24.298  37.271   9.433
 2518POPC   GL133337  24.450  36.986   9.126
 2518POPC   GL233338  24.277  36.667   9.198
 2518POPC   C1A33339  24.590  37.036   8.680
 2518POPC   D2A33340  24.794  36.788   8.345
 2518POPC   C3A33341  24.672  36.770   7.907
 2518POPC   C4A33342  24.740  36.884   7.473
 2518POPC   C1B33343  24.207  36.709   8.763
 2518POPC   C2B33344  24.163  36.859   8.336
 2518POPC   C3B33345  24.182  36.643   7.938
 2518POPC   C4B33346  24.282  36.687   7.473
 2519POPC   NC333347  37.239  26.074   9.502
 2519POPC   PO433348  36.681  25.899   9.644
 2519POPC   GL133349  36.813  25.951   9.220
 2519POPC   GL233350  36.514  25.944   9.067
 2519POPC   C1A33351  36.886  26.248   8.855
 2519POPC   D2A33352  37.032  26.180   8.447
 2519POPC   C3A33353  36.932  26.250   8.030
 2519POPC   C4A33354  37.242  25.952   7.874
 2519POPC   C1B33355  36.619  25.862   8.681
 2519POPC   C2B33356  36.578  25.983   8.317
 2519POPC   C3B33357  36.819  25.741   8.087
 2519POPC   C4B33358  36.761  25.825   7.707
 2520POPC   NC333359  20.600  38.748   9.590
 2520POPC   PO433360  20.380  38.056   9.542
 2520POPC   GL133361  20.586  38.396   9.213
 2520POPC   GL233362  20.782  38.764   9.124
 2520POPC   C1A33363  20.717  38.400   8.782
 2520POPC   D2A33364  20.424  38.381   8.456
 2520POPC   C3A33365  20.609  38.468   8.080
 2520POPC   C4A33366  20.433  38.403   7.734
 2520POPC   C1B33367  21.101  38.741   8.793
 2520POPC   C2B33368  21.031  38.591   8.393
 2520POPC   C3B33369  20.983  38.825   8.019
 2520POPC   C4B33370  20.681  38.929   7.692
 2521POPC   NC333371  30.149  37.369   9.276
 2521POPC   PO433372  30.036  37.982   9.415
 2521POPC   GL133373  29.905  37.770   9.030
 2521POPC   GL233374  29.588  37.861   8.904
 2521POPC   C1A33375  29.985  37.726   8.572
 2521POPC   D2A33376  30.330  37.799   8.269
 2521POPC   C3A33377  30.281  37.584   7.900
 2521POPC   C4A33378  30.022  37.769   7.581
 2521POPC   C1B33379  29.520  37.494   8.669
 2521POPC   C2B33380  29.693  37.364   8.288
 2521POPC   C3B33381  29.807  37.701   8.063
 2521POPC   C4B33382  29.520  37.781   7.768
 2522POPC   NC333383   6.904   1.987   9.551
 2522POPC   PO433384   6.269   2.271   9.507
 2522POPC   GL133385   6.497   2.051   9.208
 2522POPC   GL233386   6.497   1.689   9.261
 2522POPC   C1A33387   6.697   1.962   8.827
 2522POPC   D2A33388   6.648   2.182   8.450
 2522POPC   C3A33389   6.913   2.213   8.099
 2522POPC   C4A33390   6.771   2.145   7.696
 2522POPC   C1B33391   6.252   1.678   8.903
 2522POPC   C2B33392   6.302   1.720   8.473
 2522POPC   C3B33393   6.537   1.826   8.113
 2522POPC   C4B33394   6.508   1.714   7.702
 2523POPC   NC333395  22.030   2.572   9.631
 2523POPC   PO433396  22.467   2.938   9.331
 2523POPC   GL133397  22.240   2.638   9.087
 2523POPC   GL233398  22.033   2.357   9.180
 2523POPC   C1A33399  22.205   2.668   8.641
 2523POPC   D2A33400  22.355   2.967   8.368
 2523POPC   C3A33401  22.216   2.788   8.026
 2523POPC   C4A33402  22.091   2.965   7.665
 2523POPC   C1B33403  21.972   2.166   8.808
 2523POPC   C2B33404  21.851   2.280   8.411
 2523POPC   C3B33405  21.747   2.493   8.032
 2523POPC   C4B33406  22.001   2.457   7.694
 2524POPC   NC333407  18.575  16.073   9.535
 2524POPC   PO433408  19.022  15.674   9.455
 2524POPC   GL133409  18.787  15.774   9.149
 2524POPC   GL233410  18.932  16.133   9.176
 2524POPC   C1A33411  18.753  15.954   8.741
 2524POPC   D2A33412  18.973  15.844   8.396
 2524POPC   C3A33413  18.755  15.941   8.019
 2524POPC   C4A33414  18.885  15.810   7.613
 2524POPC   C1B33415  19.215  16.122   8.820
 2524POPC   C2B33416  19.436  16.098   8.406
 2524POPC   C3B33417  19.232  16.115   8.029
 2524POPC   C4B33418  19.275  16.163   7.612
 2525POPC   NC333419  40.543  37.257   9.690
 2525POPC   PO433420  40.822  37.810   9.460
 2525POPC   GL133421  40.727  37.570   9.119
 2525POPC   GL233422  40.979  37.388   9.099
 2525POPC   C1A33423  40.595  37.705   8.730
 2525POPC   D2A33424  40.683  37.995   8.440
 2525POPC   C3A33425  40.726  37.827   8.034
 2525POPC   C4A33426  40.743  37.752   7.587
 2525POPC   C1B33427  40.804  37.248   8.709
 2525POPC   C2B33428  40.644  37.284   8.269
 2525POPC   C3B33429  40.893  37.362   7.888
 2525POPC   C4B33430  41.021  37.107   7.532
 2526POPC   NC333431  23.847  28.085   9.903
 2526POPC   PO433432  23.453  28.642   9.707
 2526POPC   GL133433  23.735  28.603   9.304
 2526POPC   GL233434  23.994  28.831   9.157
 2526POPC   C1A33435  23.717  28.507   8.845
 2526POPC   D2A33436  23.760  28.248   8.456
 2526POPC   C3A33437  23.605  28.423   8.057
 2526POPC   C4A33438  23.344  28.384   7.676
 2526POPC   C1B33439  24.180  28.712   8.763
 2526POPC   C2B33440  24.093  28.622   8.341
 2526POPC   C3B33441  24.043  28.675   7.912
 2526POPC   C4B33442  23.871  28.410   7.607
 2527POPC   NC333443  17.714   5.941   9.512
 2527POPC   PO433444  17.135   5.926   9.388
 2527POPC   GL133445  17.413   5.754   9.082
 2527POPC   GL233446  17.684   5.986   9.019
 2527POPC   C1A33447  17.539   5.700   8.635
 2527POPC   D2A33448  17.774   5.808   8.286
 2527POPC   C3A33449  17.663   5.571   7.941
 2527POPC   C4A33450  17.241   5.513   7.754
 2527POPC   C1B33451  17.355   6.184   8.803
 2527POPC   C2B33452  17.246   6.084   8.373
 2527POPC   C3B33453  17.471   6.074   7.983
 2527POPC   C4B33454  17.610   5.921   7.578
 2528POPC   NC333455  35.788  17.518   9.510
 2528POPC   PO433456  35.272  17.153   9.715
 2528POPC   GL133457  35.308  17.343   9.291
 2528POPC   GL233458  35.188  17.675   9.179
 2528POPC   C1A33459  35.414  17.292   8.851
 2528POPC   D2A33460  35.186  17.346   8.457
 2528POPC   C3A33461  35.461  17.302   8.132
 2528POPC   C4A33462  35.498  17.416   7.706
 2528POPC   C1B33463  35.439  17.784   8.779
 2528POPC   C2B33464  35.596  17.722   8.399
 2528POPC   C3B33465  35.366  17.783   8.038
 2528POPC   C4B33466  35.440  17.972   7.688
 2529POPC   NC333467  29.420  30.835   9.546
 2529POPC   PO433468  28.784  30.890   9.408
 2529POPC   GL133469  29.119  30.827   9.105
 2529POPC   GL233470  29.327  30.530   9.131
 2529POPC   C1A33471  29.048  30.641   8.707
 2529POPC   D2A33472  29.183  30.551   8.301
 2529POPC   C3A33473  28.941  30.507   7.939
 2529POPC   C4A33474  29.166  30.642   7.591
 2529POPC   C1B33475  29.625  30.378   8.801
 2529POPC   C2B33476  29.678  30.471   8.347
 2529POPC   C3B33477  29.481  30.345   7.922
 2529POPC   C4B33478  29.606  30.419   7.456
 2530POPC   NC333479  34.220  30.644   9.703
 2530POPC   PO433480  33.868  31.033   9.299
 2530POPC   GL133481  33.658  30.862   8.959
 2530POPC   GL233482  33.844  30.577   8.976
 2530POPC   C1A33483  33.411  30.816   8.556
 2530POPC   D2A33484  33.555  30.656   8.149
 2530POPC   C3A33485  33.865  30.920   7.902
 2530POPC   C4A33486  33.907  30.942   7.470
 2530POPC   C1B33487  33.904  30.566   8.553
 2530POPC   C2B33488  34.090  30.277   8.273
 2530POPC   C3B33489  33.963  30.188   7.880
 2530POPC   C4B33490  33.715  30.489   7.678
 2531POPC   NC333491   0.517  26.403   9.480
 2531POPC   PO433492   0.032  26.094   9.738
 2531POPC   GL133493   0.262  26.040   9.254
 2531POPC   GL233494   0.391  25.683   9.137
 2531POPC   C1A33495   0.451  26.283   8.835
 2531POPC   D2A33496   0.336  26.455   8.387
 2531POPC   C3A33497   0.393  26.294   7.962
 2531POPC   C4A33498   0.472  26.164   7.528
 2531POPC   C1B33499   0.610  25.805   8.754
 2531POPC   C2B33500   0.458  25.942   8.337
 2531POPC   C3B33501   0.491  25.784   7.883
 2531POPC   C4B33502   0.518  25.667   7.414
 2532POPC   NC333503   8.028   1.513   9.480
 2532POPC   PO433504   8.478   1.051   9.575
 2532POPC   GL133505   8.244   1.038   9.197
 2532POPC   GL233506   8.184   1.358   9.035
 2532POPC   C1A33507   8.154   0.927   8.780
 2532POPC   D2A33508   8.097   1.265   8.485
 2532POPC   C3A33509   8.139   1.146   8.072
 2532POPC   C4A33510   8.126   1.049   7.661
 2532POPC   C1B33511   7.845   1.560   8.820
 2532POPC   C2B33512   7.502   1.470   8.517
 2532POPC   C3B33513   7.682   1.337   8.173
 2532POPC   C4B33514   7.809   1.421   7.772
 2533POPC   NC333515  19.852  10.126   9.379
 2533POPC   PO433516  19.998   9.431   9.475
 2533POPC   GL133517  19.887   9.662   9.152
 2533POPC   GL233518  20.226   9.701   9.016
 2533POPC   C1A33519  19.748   9.660   8.759
 2533POPC   D2A33520  20.050   9.616   8.436
 2533POPC   C3A33521  19.960   9.563   8.018
 2533POPC   C4A33522  19.599   9.735   7.780
 2533POPC   C1B33523  20.063  10.052   8.757
 2533POPC   C2B33524  19.807  10.062   8.382
 2533POPC   C3B33525  19.975  10.055   7.963
 2533POPC   C4B33526  20.171  10.198   7.607
 2534POPC   NC333527   3.994  42.375   9.612
 2534POPC   PO433528   4.543  42.049   9.729
 2534POPC   GL133529   4.314  42.127   9.276
 2534POPC   GL233530   4.210  42.491   9.161
 2534POPC   C1A33531   4.387  42.152   8.799
 2534POPC   D2A33532   4.410  42.274   8.364
 2534POPC   C3A33533   4.425  42.069   7.975
 2534POPC   C4A33534   4.070  42.090   7.774
 2534POPC   C1B33535   4.217  42.681   8.750
 2534POPC   C2B33536   4.297  42.778   8.322
 2534POPC   C3B33537   4.190  42.545   7.966
 2534POPC   C4B33538   4.514  42.516   7.744
 2535POPC   NC333539   6.354   8.584   9.336
 2535POPC   PO433540   6.655   9.169   9.329
 2535POPC   GL133541   6.469   9.014   9.036
 2535POPC   GL233542   6.728   8.818   8.898
 2535POPC   C1A33543   6.516   9.249   8.692
 2535POPC   D2A33544   6.728   9.110   8.407
 2535POPC   C3A33545   6.480   9.104   8.115
 2535POPC   C4A33546   6.495   9.255   7.738
 2535POPC   C1B33547   7.068   9.126   8.791
 2535POPC   C2B33548   7.228   9.244   8.362
 2535POPC   C3B33549   6.996   9.170   7.971
 2535POPC   C4B33550   6.782   8.807   7.844
 2536POPC   NC333551  14.052  20.553   9.413
 2536POPC   PO433552  14.717  20.847   9.487
 2536POPC   GL133553  14.484  20.743   9.152
 2536POPC   GL233554  14.212  20.951   9.106
 2536POPC   C1A33555  14.444  20.564   8.754
 2536POPC   D2A33556  14.328  20.356   8.350
 2536POPC   C3A33557  14.423  20.573   7.997
 2536POPC   C4A33558  14.668  20.616   7.631
 2536POPC   C1B33559  14.046  20.896   8.727
 2536POPC   C2B33560  14.060  20.824   8.326
 2536POPC   C3B33561  14.129  20.983   7.930
 2536POPC   C4B33562  14.189  20.822   7.514
 2537POPC   NC333563  10.857  32.953   9.570
 2537POPC   PO433564  11.504  33.308   9.534
 2537POPC   GL133565  11.496  33.142   9.123
 2537POPC   GL233566  11.130  33.123   9.043
 2537POPC   C1A33567  11.507  32.974   8.729
 2537POPC   D2A33568  11.162  33.031   8.508
 2537POPC   C3A33569  11.213  32.953   8.125
 2537POPC   C4A33570  11.007  32.985   7.770
 2537POPC   C1B33571  11.338  33.449   8.734
 2537POPC   C2B33572  11.412  33.420   8.262
 2537POPC   C3B33573  11.218  33.447   7.836
 2537POPC   C4B33574  10.837  33.386   7.517
 2538POPC   NC333575  37.866  11.416   9.767
 2538POPC   PO433576  37.286  11.073   9.553
 2538POPC   GL133577  37.522  11.116   9.210
 2538POPC   GL233578  37.575  11.481   9.206
 2538POPC   C1A33579  37.526  11.186   8.776
 2538POPC   D2A33580  37.572  11.382   8.384
 2538POPC   C3A33581  37.655  11.062   8.101
 2538POPC   C4A33582  37.477  10.987   7.709
 2538POPC   C1B33583  37.931  11.470   8.907
 2538POPC   C2B33584  38.033  11.568   8.442
 2538POPC   C3B33585  37.932  11.505   8.004
 2538POPC   C4B33586  37.749  11.476   7.590
 2539POPC   NC333587  30.526   9.634   9.451
 2539POPC   PO433588  30.416  10.300   9.469
 2539POPC   GL133589  30.428   9.987   9.095
 2539POPC   GL233590  30.748   9.908   9.080
 2539POPC   C1A33591  30.529   9.560   8.812
 2539POPC   D2A33592  30.756   9.579   8.441
 2539POPC   C3A33593  30.607   9.895   8.183
 2539POPC   C4A33594  30.624   9.722   7.768
 2539POPC   C1B33595  31.015   9.831   8.802
 2539POPC   C2B33596  31.094   9.952   8.398
 2539POPC   C3B33597  31.087   9.781   8.017
 2539POPC   C4B33598  31.100   9.658   7.586
 2540POPC   NC333599  38.210  32.164   9.409
 2540POPC   PO433600  38.692  32.609   9.615
 2540POPC   GL133601  38.634  32.391   9.204
 2540POPC   GL233602  38.784  32.080   9.079
 2540POPC   C1A33603  38.426  32.404   8.791
 2540POPC   D2A33604  38.548  32.664   8.443
 2540POPC   C3A33605  38.534  32.488   8.009
 2540POPC   C4A33606  38.231  32.361   7.714
 2540POPC   C1B33607  38.484  31.874   8.811
 2540POPC   C2B33608  38.233  31.968   8.475
 2540POPC   C3B33609  38.365  31.978   8.058
 2540POPC   C4B33610  38.578  31.956   7.687
 2541POPC   NC333611  14.103   2.508   9.408
 2541POPC   PO433612  14.430   3.007   9.585
 2541POPC   GL133613  14.413   2.865   9.186
 2541POPC   GL233614  14.096   3.002   9.209
 2541POPC   C1A33615  14.588   2.913   8.783
 2541POPC   D2A33616  14.900   2.963   8.471
 2541POPC   C3A33617  14.627   2.921   8.150
 2541POPC   C4A33618  14.529   2.563   7.872
 2541POPC   C1B33619  14.065   2.802   8.774
 2541POPC   C2B33620  14.152   2.918   8.329
 2541POPC   C3B33621  14.177   2.937   7.840
 2541POPC   C4B33622  14.143   3.094   7.374
 2542POPC   NC333623  39.356  41.792   9.453
 2542POPC   PO433624  39.449  42.427   9.547
 2542POPC   GL133625  39.249  42.262   9.192
 2542POPC   GL233626  39.026  42.519   9.073
 2542POPC   C1A33627  39.312  42.227   8.751
 2542POPC   D2A33628  39.191  42.417   8.379
 2542POPC   C3A33629  39.361  42.230   8.026
 2542POPC   C4A33630  39.234  42.148   7.623
 2542POPC   C1B33631  38.943  42.760   8.697
 2542POPC   C2B33632  38.732  42.612   8.305
 2542POPC   C3B33633  38.882  42.376   7.957
 2542POPC   C4B33634  38.959  42.562   7.557
 2543POPC   NC333635  39.390   7.684   9.348
 2543POPC   PO433636  39.305   6.976   9.428
 2543POPC   GL133637  39.102   7.046   9.033
 2543POPC   GL233638  39.101   7.384   9.033
 2543POPC   C1A33639  39.216   7.157   8.594
 2543POPC   D2A33640  39.450   7.454   8.363
 2543POPC   C3A33641  39.460   7.383   7.937
 2543POPC   C4A33642  39.438   7.631   7.549
 2543POPC   C1B33643  39.173   7.711   8.721
 2543POPC   C2B33644  39.118   7.959   8.390
 2543POPC   C3B33645  39.172   7.784   8.031
 2543POPC   C4B33646  38.933   7.775   7.714
 2544POPC   NC333647   6.657  35.866   9.555
 2544POPC   PO433648   6.335  36.438   9.433
 2544POPC   GL133649   6.523  36.259   9.098
 2544POPC   GL233650   6.841  36.337   8.988
 2544POPC   C1A33651   6.503  36.488   8.669
 2544POPC   D2A33652   6.676  36.361   8.302
 2544POPC   C3A33653   6.412  36.456   8.032
 2544POPC   C4A33654   6.616  36.461   7.685
 2544POPC   C1B33655   6.644  36.011   8.673
 2544POPC   C2B33656   6.384  35.921   8.301
 2544POPC   C3B33657   6.601  35.982   7.893
 2544POPC   C4B33658   7.009  36.112   7.683
 2545POPC   NC333659  41.168  13.190   9.367
 2545POPC   PO433660  41.840  13.228   9.512
 2545POPC   GL133661  41.796  13.023   9.111
 2545POPC   GL233662  41.793  12.673   9.077
 2545POPC   C1A33663  41.552  13.061   8.739
 2545POPC   D2A33664  41.326  13.100   8.312
 2545POPC   C3A33665  41.588  13.078   7.943
 2545POPC   C4A33666  41.979  13.272   7.788
 2545POPC   C1B33667  41.521  12.546   8.783
 2545POPC   C2B33668  41.634  12.680   8.401
 2545POPC   C3B33669  41.556  12.591   8.026
 2545POPC   C4B33670  41.790  12.604   7.671
 2546POPC   NC333671   4.808  34.054   9.321
 2546POPC   PO433672   5.094  34.567   9.740
 2546POPC   GL133673   5.183  34.800   9.232
 2546POPC   GL233674   4.844  34.851   8.970
 2546POPC   C1A33675   5.266  34.725   8.742
 2546POPC   D2A33676   4.974  34.732   8.354
 2546POPC   C3A33677   5.127  34.608   7.952
 2546POPC   C4A33678   5.385  34.922   7.795
 2546POPC   C1B33679   4.832  34.412   8.709
 2546POPC   C2B33680   4.710  34.270   8.291
 2546POPC   C3B33681   4.696  34.317   7.842
 2546POPC   C4B33682   4.996  34.336   7.499
 2547POPC   NC333683  23.635  24.640   9.480
 2547POPC   PO433684  23.737  24.018   9.335
 2547POPC   GL133685  23.719  24.309   9.080
 2547POPC   GL233686  24.021  24.418   9.119
 2547POPC   C1A33687  23.516  24.363   8.728
 2547POPC   D2A33688  23.279  24.156   8.442
 2547POPC   C3A33689  23.461  24.280   8.063
 2547POPC   C4A33690  23.423  24.132   7.656
 2547POPC   C1B33691  23.950  24.667   8.770
 2547POPC   C2B33692  23.805  24.550   8.343
 2547POPC   C3B33693  23.909  24.503   7.906
 2547POPC   C4B33694  23.995  24.763   7.562
 2548POPC   NC333695   4.029   3.186   9.737
 2548POPC   PO433696   4.218   3.813   9.789
 2548POPC   GL133697   4.106   3.664   9.314
 2548POPC   GL233698   4.145   3.293   9.227
 2548POPC   C1A33699   4.135   3.663   8.832
 2548POPC   D2A33700   3.998   3.782   8.452
 2548POPC   C3A33701   4.278   3.862   8.123
 2548POPC   C4A33702   4.120   3.936   7.727
 2548POPC   C1B33703   4.003   3.184   8.795
 2548POPC   C2B33704   4.266   3.335   8.402
 2548POPC   C3B33705   4.219   3.363   7.941
 2548POPC   C4B33706   4.086   3.073   7.603
 2549POPC   NC333707  36.981  41.883   9.410
 2549POPC   PO433708  36.860  42.578   9.500
 2549POPC   GL133709  36.855  42.310   9.104
 2549POPC   GL233710  37.110  42.019   8.963
 2549POPC   C1A33711  36.826  42.289   8.647
 2549POPC   D2A33712  36.875  42.627   8.354
 2549POPC   C3A33713  36.688  42.490   7.979
 2549POPC   C4A33714  36.545  42.101   7.793
 2549POPC   C1B33715  37.265  41.953   8.568
 2549POPC   C2B33716  37.001  42.061   8.212
 2549POPC   C3B33717  37.049  42.062   7.774
 2549POPC   C4B33718  37.144  42.014   7.336
 2550POPC   NC333719  42.326  33.466   9.532
 2550POPC   PO433720  42.439  34.161   9.549
 2550POPC   GL133721  42.287  33.989   9.208
 2550POPC   GL233722  42.287  33.652   9.067
 2550POPC   C1A33723  42.408  34.048   8.805
 2550POPC   D2A33724  42.367  33.765   8.434
 2550POPC   C3A33725  42.638  33.924   8.099
 2550POPC   C4A33726  42.412  34.048   7.757
 2550POPC   C1B33727  42.024  33.473   8.728
 2550POPC   C2B33728  41.894  33.559   8.299
 2550POPC   C3B33729  42.216  33.577   7.955
 2550POPC   C4B33730  42.278  33.607   7.506
 2551POPC   NC333731  28.895  10.000   9.400
 2551POPC   PO433732  29.302   9.533   9.552
 2551POPC   GL133733  29.139   9.635   9.122
 2551POPC   GL233734  28.779   9.565   9.167
 2551POPC   C1A33735  29.186   9.719   8.656
 2551POPC   D2A33736  29.230   9.437   8.315
 2551POPC   C3A33737  29.463   9.654   8.018
 2551POPC   C4A33738  29.248   9.860   7.721
 2551POPC   C1B33739  28.681   9.747   8.747
 2551POPC   C2B33740  28.830   9.886   8.309
 2551POPC   C3B33741  28.801   9.696   7.891
 2551POPC   C4B33742  28.809   9.752   7.407
 2552POPC   NC333743  20.731  30.610   9.482
 2552POPC   PO433744  20.109  30.882   9.502
 2552POPC   GL133745  20.434  30.864   9.141
 2552POPC   GL233746  20.811  30.926   9.078
 2552POPC   C1A33747  20.603  30.521   8.836
 2552POPC   D2A33748  20.496  30.426   8.426
 2552POPC   C3A33749  20.538  30.676   8.088
 2552POPC   C4A33750  20.603  30.696   7.672
 2552POPC   C1B33751  20.681  31.018   8.697
 2552POPC   C2B33752  20.886  30.911   8.347
 2552POPC   C3B33753  21.076  31.036   8.010
 2552POPC   C4B33754  20.927  31.092   7.601
 2553POPC   NC333755  14.996  14.001   9.555
 2553POPC   PO433756  15.346  14.559   9.728
 2553POPC   GL133757  15.255  14.358   9.277
 2553POPC   GL233758  15.410  14.035   9.186
 2553POPC   C1A33759  15.313  14.374   8.800
 2553POPC   D2A33760  15.210  14.520   8.404
 2553POPC   C3A33761  15.292  14.515   7.979
 2553POPC   C4A33762  14.919  14.606   7.719
 2553POPC   C1B33763  15.388  13.879   8.736
 2553POPC   C2B33764  15.483  14.062   8.313
 2553POPC   C3B33765  15.485  14.024   7.838
 2553POPC   C4B33766  15.533  14.177   7.427
 2554POPC   NC333767  29.607  10.024   9.390
 2554POPC   PO433768  30.030   9.560   9.316
 2554POPC   GL133769  29.945   9.845   8.992
 2554POPC   GL233770  29.603   9.774   8.947
 2554POPC   C1A33771  30.192   9.878   8.604
 2554POPC   D2A33772  30.224   9.506   8.365
 2554POPC   C3A33773  29.964   9.538   8.017
 2554POPC   C4A33774  30.118   9.729   7.668
 2554POPC   C1B33775  29.699   9.746   8.512
 2554POPC   C2B33776  29.854  10.034   8.209
 2554POPC   C3B33777  29.749  10.053   7.787
 2554POPC   C4B33778  29.660   9.794   7.439
 2555POPC   NC333779  32.050   0.297   9.914
 2555POPC   PO433780  32.524   0.639   9.681
 2555POPC   GL133781  32.372   0.578   9.231
 2555POPC   GL233782  32.463   0.239   9.125
 2555POPC   C1A33783  32.215   0.570   8.767
 2555POPC   D2A33784  31.933   0.576   8.387
 2555POPC   C3A33785  32.183   0.631   8.014
 2555POPC   C4A33786  32.265   0.540   7.576
 2555POPC   C1B33787  32.462   0.102   8.676
 2555POPC   C2B33788  32.216   0.167   8.281
 2555POPC   C3B33789  32.111   0.113   7.846
 2555POPC   C4B33790  32.447  44.849   7.669
 2556POPC   NC333791  39.041   9.471   9.583
 2556POPC   PO433792  39.507   9.236   9.158
 2556POPC   GL133793  39.276   9.615   9.046
 2556POPC   GL233794  38.929   9.639   9.120
 2556POPC   C1A33795  39.149   9.880   8.693
 2556POPC   D2A33796  39.351  10.027   8.309
 2556POPC   C3A33797  39.162   9.988   7.916
 2556POPC   C4A33798  39.303   9.986   7.486
 2556POPC   C1B33799  38.918   9.398   8.727
 2556POPC   C2B33800  38.926   9.599   8.313
 2556POPC   C3B33801  38.680   9.792   7.998
 2556POPC   C4B33802  38.824   9.822   7.563
 2557POPC   NC333803  41.047  44.059   9.509
 2557POPC   PO433804  40.485  43.674   9.334
 2557POPC   GL133805  40.472  43.952   8.980
 2557POPC   GL233806  40.769  44.119   9.078
 2557POPC   C1A33807  40.442  43.968   8.545
 2557POPC   D2A33808  40.398  44.218   8.201
 2557POPC   C3A33809  40.635  43.972   7.918
 2557POPC   C4A33810  40.767  43.537   7.928
 2557POPC   C1B33811  40.964  43.973   8.731
 2557POPC   C2B33812  40.954  43.833   8.319
 2557POPC   C3B33813  41.165  43.901   7.951
 2557POPC   C4B33814  41.032  44.174   7.678
 2558POPC   NC333815  27.100  27.369   9.478
 2558POPC   PO433816  26.736  28.013   9.473
 2558POPC   GL133817  27.044  27.834   9.134
 2558POPC   GL233818  26.972  27.507   9.029
 2558POPC   C1A33819  27.123  27.750   8.648
 2558POPC   D2A33820  26.855  27.628   8.353
 2558POPC   C3A33821  27.018  27.702   7.933
 2558POPC   C4A33822  26.898  27.583   7.555
 2558POPC   C1B33823  26.700  27.238   8.825
 2558POPC   C2B33824  26.482  27.270   8.454
 2558POPC   C3B33825  26.687  27.281   8.017
 2558POPC   C4B33826  26.582  27.169   7.618
 2559POPC   NC333827  17.416  11.756   9.583
 2559POPC   PO433828  17.764  12.264   9.317
 2559POPC   GL133829  17.430  12.134   9.126
 2559POPC   GL233830  17.573  11.819   9.102
 2559POPC   C1A33831  17.249  11.972   8.740
 2559POPC   D2A33832  17.468  11.917   8.331
 2559POPC   C3A33833  17.423  12.090   7.919
 2559POPC   C4A33834  17.120  11.988   7.601
 2559POPC   C1B33835  17.768  12.024   8.728
 2559POPC   C2B33836  18.078  12.281   8.503
 2559POPC   C3B33837  17.917  12.352   8.091
 2559POPC   C4B33838  17.899  12.142   7.690
 2560POPC   NC333839  25.651  19.460   9.535
 2560POPC   PO433840  26.072  18.939   9.489
 2560POPC   GL133841  26.053  19.278   9.185
 2560POPC   GL233842  25.721  19.263   9.061
 2560POPC   C1A33843  26.299  19.387   8.808
 2560POPC   D2A33844  26.391  19.221   8.383
 2560POPC   C3A33845  26.152  19.270   7.989
 2560POPC   C4A33846  25.814  19.419   7.739
 2560POPC   C1B33847  25.941  19.034   8.755
 2560POPC   C2B33848  25.901  19.008   8.370
 2560POPC   C3B33849  26.027  18.752   8.109
 2560POPC   C4B33850  25.954  18.822   7.720
 2561POPC   NC333851  35.479  19.209   9.485
 2561POPC   PO433852  35.497  18.609   9.276
 2561POPC   GL133853  35.353  18.948   9.049
 2561POPC   GL233854  35.239  19.281   9.030
 2561POPC   C1A33855  35.334  18.959   8.640
 2561POPC   D2A33856  35.520  18.752   8.336
 2561POPC   C3A33857  35.433  18.953   7.979
 2561POPC   C4A33858  35.603  18.839   7.607
 2561POPC   C1B33859  35.224  19.466   8.623
 2561POPC   C2B33860  35.082  19.241   8.273
 2561POPC   C3B33861  34.967  19.139   7.862
 2561POPC   C4B33862  35.265  19.230   7.570
 2562POPC   NC333863   6.878  36.654   9.380
 2562POPC   PO433864   6.486  37.190   9.472
 2562POPC   GL133865   6.703  37.050   9.122
 2562POPC   GL233866   6.498  36.778   9.079
 2562POPC   C1A33867   6.911  36.886   8.744
 2562POPC   D2A33868   7.056  37.026   8.337
 2562POPC   C3A33869   6.926  36.770   7.997
 2562POPC   C4A33870   6.828  36.906   7.587
 2562POPC   C1B33871   6.421  37.013   8.700
 2562POPC   C2B33872   6.517  36.867   8.319
 2562POPC   C3B33873   6.484  37.033   7.931
 2562POPC   C4B33874   6.401  37.172   7.495
 2563POPC   NC333875  23.108  28.754   9.985
 2563POPC   PO433876  23.049  29.265   9.485
 2563POPC   GL133877  22.851  29.410   9.094
 2563POPC   GL233878  22.654  29.100   9.077
 2563POPC   C1A33879  22.701  29.563   8.682
 2563POPC   D2A33880  22.534  29.340   8.316
 2563POPC   C3A33881  22.731  28.970   8.157
 2563POPC   C4A33882  22.782  29.033   7.747
 2563POPC   C1B33883  22.797  29.044   8.664
 2563POPC   C2B33884  23.167  28.878   8.430
 2563POPC   C3B33885  23.157  28.729   7.994
 2563POPC   C4B33886  22.830  28.523   7.705
 2564POPC   NC333887  34.489  24.053   9.818
 2564POPC   PO433888  34.855  23.525   9.482
 2564POPC   GL133889  34.679  23.780   9.153
 2564POPC   GL233890  34.335  23.707   9.140
 2564POPC   C1A33891  34.556  24.041   8.804
 2564POPC   D2A33892  34.199  23.998   8.529
 2564POPC   C3A33893  34.379  24.027   8.131
 2564POPC   C4A33894  34.330  23.837   7.738
 2564POPC   C1B33895  34.439  23.562   8.702
 2564POPC   C2B33896  34.391  23.504   8.255
 2564POPC   C3B33897  34.419  23.327   7.843
 2564POPC   C4B33898  34.366  23.418   7.411
 2565POPC   NC333899  29.504  43.876   9.494
 2565POPC   PO433900  28.953  44.309   9.445
 2565POPC   GL133901  29.010  44.053   9.070
 2565POPC   GL233902  28.912  43.693   9.137
 2565POPC   C1A33903  28.861  43.887   8.672
 2565POPC   D2A33904  29.023  43.687   8.311
 2565POPC   C3A33905  29.153  43.976   7.977
 2565POPC   C4A33906  29.548  44.245   7.857
 2565POPC   C1B33907  29.274  43.509   8.880
 2565POPC   C2B33908  29.505  43.485   8.479
 2565POPC   C3B33909  29.494  43.605   8.037
 2565POPC   C4B33910  29.528  43.527   7.582
 2566POPC   NC333911  28.422  24.092   9.383
 2566POPC   PO433912  28.381  24.723   9.594
 2566POPC   GL133913  28.223  24.583   9.168
 2566POPC   GL233914  27.962  24.317   9.195
 2566POPC   C1A33915  28.375  24.528   8.705
 2566POPC   D2A33916  28.376  24.697   8.255
 2566POPC   C3A33917  28.445  24.438   7.854
 2566POPC   C4A33918  28.780  24.491   7.525
 2566POPC   C1B33919  27.883  24.452   8.780
 2566POPC   C2B33920  27.996  24.386   8.362
 2566POPC   C3B33921  27.950  24.562   7.939
 2566POPC   C4B33922  27.972  24.404   7.525
 2567POPC   NC333923   4.352  31.773   9.525
 2567POPC   PO433924   3.828  31.430   9.313
 2567POPC   GL133925   4.297  31.403   9.141
 2567POPC   GL233926   4.414  31.750   9.022
 2567POPC   C1A33927   4.547  31.370   8.734
 2567POPC   D2A33928   4.351  31.493   8.365
 2567POPC   C3A33929   4.497  31.495   7.970
 2567POPC   C4A33930   4.498  31.341   7.563
 2567POPC   C1B33931   4.043  31.658   8.744
 2567POPC   C2B33932   3.824  31.554   8.370
 2567POPC   C3B33933   4.000  31.534   7.987
 2567POPC   C4B33934   4.129  31.706   7.607
 2568POPC   NC333935  38.827  25.145   9.598
 2568POPC   PO433936  38.194  25.533   9.570
 2568POPC   GL133937  38.434  25.262   9.270
 2568POPC   GL233938  38.346  24.914   9.197
 2568POPC   C1A33939  38.494  25.288   8.819
 2568POPC   D2A33940  38.343  25.466   8.437
 2568POPC   C3A33941  38.466  25.259   8.093
 2568POPC   C4A33942  38.564  25.191   7.682
 2568POPC   C1B33943  38.655  24.797   8.847
 2568POPC   C2B33944  38.767  24.958   8.445
 2568POPC   C3B33945  38.715  24.812   8.056
 2568POPC   C4B33946  38.655  24.638   7.667
 2569POPC   NC333947  14.449  16.362   9.448
 2569POPC   PO433948  14.071  15.879   9.243
 2569POPC   GL133949  14.526  15.922   9.140
 2569POPC   GL233950  14.659  15.562   9.053
 2569POPC   C1A33951  14.690  16.199   8.809
 2569POPC   D2A33952  14.772  16.059   8.393
 2569POPC   C3A33953  14.463  16.074   8.097
 2569POPC   C4A33954  14.363  15.908   7.721
 2569POPC   C1B33955  14.454  15.741   8.651
 2569POPC   C2B33956  14.108  16.000   8.454
 2569POPC   C3B33957  13.956  16.008   8.015
 2569POPC   C4B33958  13.944  15.618   7.718
 2570POPC   NC333959  30.546   7.917   9.513
 2570POPC   PO433960  30.982   8.323   9.575
 2570POPC   GL133961  30.967   8.180   9.126
 2570POPC   GL233962  30.819   7.847   9.091
 2570POPC   C1A33963  30.778   8.298   8.721
 2570POPC   D2A33964  30.604   8.555   8.380
 2570POPC   C3A33965  30.873   8.487   8.038
 2570POPC   C4A33966  30.778   8.428   7.612
 2570POPC   C1B33967  30.533   7.833   8.753
 2570POPC   C2B33968  30.465   8.045   8.377
 2570POPC   C3B33969  30.544   8.106   7.968
 2570POPC   C4B33970  30.446   8.049   7.559
 2571POPC   NC333971  32.723  44.632   9.591
 2571POPC   PO433972  33.311  44.694   9.635
 2571POPC   GL133973  33.138  44.941   9.239
 2571POPC   GL233974  32.783  44.823   9.094
 2571POPC   C1A33975  33.102   0.024   8.763
 2571POPC   D2A33976  33.026  44.760   8.395
 2571POPC   C3A33977  32.965  44.828   7.951
 2571POPC   C4A33978  33.263  44.679   7.644
 2571POPC   C1B33979  32.623  44.596   8.680
 2571POPC   C2B33980  32.773  44.302   8.318
 2571POPC   C3B33981  32.964  44.321   7.881
 2571POPC   C4B33982  32.801  44.527   7.504
 2572POPC   NC333983  30.796  16.642   9.475
 2572POPC   PO433984  30.177  16.870   9.469
 2572POPC   GL133985  30.353  16.635   9.073
 2572POPC   GL233986  30.738  16.621   8.962
 2572POPC   C1A33987  30.394  16.736   8.608
 2572POPC   D2A33988  30.768  16.831   8.326
 2572POPC   C3A33989  30.604  16.842   7.891
 2572POPC   C4A33990  30.459  16.515   7.578
 2572POPC   C1B33991  31.027  16.436   8.612
 2572POPC   C2B33992  31.162  16.487   8.175
 2572POPC   C3B33993  30.939  16.470   7.775
 2572POPC   C4B33994  30.943  16.430   7.298
 2573POPC   NC333995  29.499  11.362   9.405
 2573POPC   PO433996  28.825  11.132   9.531
 2573POPC   GL133997  28.996  11.246   9.152
 2573POPC   GL233998  28.949  11.550   9.238
 2573POPC   C1A33999  29.242  11.368   8.786
 2573POPC   D2A34000  29.460  11.288   8.399
 2573POPC   C3A34001  29.269  11.254   7.981
 2573POPC   C4A34002  29.229  11.086   7.517
 2573POPC   C1B34003  28.834  11.665   8.815
 2573POPC   C2B34004  29.048  11.680   8.405
 2573POPC   C3B34005  28.926  11.723   7.987
 2573POPC   C4B34006  28.984  11.497   7.599
 2574POPC   NC334007  17.139  26.583   9.503
 2574POPC   PO434008  16.490  26.666   9.363
 2574POPC   GL134009  16.808  26.743   9.081
 2574POPC   GL234010  16.982  27.028   9.173
 2574POPC   C1A34011  16.961  26.767   8.665
 2574POPC   D2A34012  16.884  26.974   8.249
 2574POPC   C3A34013  16.799  26.721   7.865
 2574POPC   C4A34014  16.736  26.501   7.471
 2574POPC   C1B34015  16.686  27.183   8.796
 2574POPC   C2B34016  16.467  27.359   8.389
 2574POPC   C3B34017  16.525  27.203   7.958
 2574POPC   C4B34018  16.952  27.175   7.756
 2575POPC   NC334019  36.892   1.331   9.525
 2575POPC   PO434020  37.451   1.431   9.207
 2575POPC   GL134021  37.070   1.192   9.061
 2575POPC   GL234022  36.797   1.456   9.047
 2575POPC   C1A34023  37.036   0.962   8.672
 2575POPC   D2A34024  37.058   1.174   8.304
 2575POPC   C3A34025  37.137   1.062   7.920
 2575POPC   C4A34026  37.099   1.435   7.729
 2575POPC   C1B34027  36.594   1.163   8.804
 2575POPC   C2B34028  36.542   1.184   8.406
 2575POPC   C3B34029  36.653   1.319   7.973
 2575POPC   C4B34030  36.751   1.048   7.602
 2576POPC   NC334031  14.051  17.118   9.406
 2576POPC   PO434032  14.512  16.726   9.714
 2576POPC   GL134033  14.467  16.845   9.243
 2576POPC   GL234034  14.716  17.057   9.097
 2576POPC   C1A34035  14.280  16.742   8.813
 2576POPC   D2A34036  14.432  16.475   8.447
 2576POPC   C3A34037  14.259  16.536   8.027
 2576POPC   C4A34038  14.158  16.841   7.731
 2576POPC   C1B34039  14.761  16.860   8.724
 2576POPC   C2B34040  14.811  16.991   8.295
 2576POPC   C3B34041  14.794  16.926   7.844
 2576POPC   C4B34042  14.630  16.583   7.596
 2577POPC   NC334043  42.590  40.734   9.472
 2577POPC   PO434044  41.997  40.911   9.635
 2577POPC   GL134045  42.183  40.865   9.206
 2577POPC   GL234046  42.415  41.179   9.182
 2577POPC   C1A34047  42.405  40.602   8.835
 2577POPC   D2A34048  42.661  40.519   8.451
 2577POPC   C3A34049  42.479  40.581   8.035
 2577POPC   C4A34050  42.119  40.591   7.760
 2577POPC   C1B34051  42.262  41.087   8.756
 2577POPC   C2B34052  42.167  40.785   8.418
 2577POPC   C3B34053  42.199  41.023   8.071
 2577POPC   C4B34054  42.452  41.071   7.717
 2578POPC   NC334055  15.677   2.702   9.432
 2578POPC   PO434056  16.312   2.521   9.490
 2578POPC   GL134057  16.282   2.768   9.130
 2578POPC   GL234058  16.007   3.018   9.185
 2578POPC   C1A34059  16.091   2.693   8.730
 2578POPC   D2A34060  15.951   2.482   8.350
 2578POPC   C3A34061  15.749   2.674   8.006
 2578POPC   C4A34062  15.837   2.524   7.620
 2578POPC   C1B34063  15.834   3.138   8.770
 2578POPC   C2B34064  15.895   3.054   8.327
 2578POPC   C3B34065  15.713   3.206   7.916
 2578POPC   C4B34066  15.801   3.002   7.486
 2579POPC   NC334067  20.242  35.966   9.264
 2579POPC   PO434068  20.737  36.328   9.591
 2579POPC   GL134069  20.753  36.149   9.149
 2579POPC   GL234070  20.692  35.789   9.099
 2579POPC   C1A34071  20.610  36.162   8.700
 2579POPC   D2A34072  20.717  36.140   8.306
 2579POPC   C3A34073  20.567  36.383   8.015
 2579POPC   C4A34074  20.765  36.341   7.653
 2579POPC   C1B34075  20.730  35.672   8.681
 2579POPC   C2B34076  20.588  35.653   8.279
 2579POPC   C3B34077  20.509  35.887   7.892
 2579POPC   C4B34078  20.651  35.840   7.464
 2580POPC   NC334079   4.571  40.866   9.351
 2580POPC   PO434080   4.006  40.628   9.455
 2580POPC   GL134081   4.239  40.528   9.059
 2580POPC   GL234082   4.500  40.723   8.894
 2580POPC   C1A34083   4.289  40.361   8.639
 2580POPC   D2A34084   4.543  40.623   8.408
 2580POPC   C3A34085   4.263  40.863   8.202
 2580POPC   C4A34086   4.075  40.684   7.868
 2580POPC   C1B34087   4.435  41.100   8.650
 2580POPC   C2B34088   4.624  41.197   8.269
 2580POPC   C3B34089   4.763  40.826   8.008
 2580POPC   C4B34090   4.528  40.686   7.646
 2581POPC   NC334091  36.554  11.518   9.482
 2581POPC   PO434092  35.910  11.404   9.494
 2581POPC   GL134093  36.151  11.401   9.141
 2581POPC   GL234094  36.391  11.165   9.079
 2581POPC   C1A34095  36.225  11.500   8.710
 2581POPC   D2A34096  36.036  11.343   8.352
 2581POPC   C3A34097  36.111  11.558   7.986
 2581POPC   C4A34098  35.991  11.391   7.597
 2581POPC   C1B34099  36.107  10.992   8.749
 2581POPC   C2B34100  36.095  10.828   8.292
 2581POPC   C3B34101  36.169  11.009   7.875
 2581POPC   C4B34102  36.466  11.171   7.559
 2582POPC   NC334103  18.143  34.567   9.379
 2582POPC   PO434104  18.670  34.879   9.124
 2582POPC   GL134105  18.457  34.459   8.954
 2582POPC   GL234106  18.132  34.316   8.954
 2582POPC   C1A34107  18.366  34.386   8.510
 2582POPC   D2A34108  18.409  34.741   8.262
 2582POPC   C3A34109  18.419  34.680   7.855
 2582POPC   C4A34110  18.646  34.331   7.735
 2582POPC   C1B34111  18.007  34.686   8.726
 2582POPC   C2B34112  17.880  34.592   8.346
 2582POPC   C3B34113  18.071  34.357   8.051
 2582POPC   C4B34114  17.967  34.352   7.645
 2583POPC   NC334115  19.156  20.484   9.571
 2583POPC   PO434116  18.810  21.111   9.446
 2583POPC   GL134117  18.983  20.802   9.084
 2583POPC   GL234118  19.268  20.536   9.054
 2583POPC   C1A34119  19.027  20.698   8.627
 2583POPC   D2A34120  18.847  20.375   8.339
 2583POPC   C3A34121  18.803  20.558   7.939
 2583POPC   C4A34122  18.850  20.942   7.759
 2583POPC   C1B34123  19.293  20.281   8.639
 2583POPC   C2B34124  19.341  20.473   8.226
 2583POPC   C3B34125  19.291  20.492   7.789
 2583POPC   C4B34126  19.279  20.211   7.458
 2584POPC   NC334127  27.978  38.967   9.525
 2584POPC   PO434128  28.395  38.342   9.498
 2584POPC   GL134129  28.443  38.465   9.112
 2584POPC   GL234130  28.346  38.803   9.122
 2584POPC   C1A34131  28.252  38.466   8.716
 2584POPC   D2A34132  28.132  38.399   8.294
 2584POPC   C3A34133  28.374  38.167   7.979
 2584POPC   C4A34134  28.345  38.143   7.502
 2584POPC   C1B34135  28.643  38.802   8.776
 2584POPC   C2B34136  28.632  38.586   8.399
 2584POPC   C3B34137  28.487  38.671   8.024
 2584POPC   C4B34138  28.769  38.528   7.732
 2585POPC   NC334139  29.564  30.039   9.471
 2585POPC   PO434140  30.066  29.594   9.641
 2585POPC   GL134141  30.058  29.658   9.214
 2585POPC   GL234142  29.723  29.556   9.165
 2585POPC   C1A34143  29.914  29.961   8.907
 2585POPC   D2A34144  29.790  29.969   8.479
 2585POPC   C3A34145  29.975  30.129   8.128
 2585POPC   C4A34146  29.942  30.076   7.703
 2585POPC   C1B34147  29.541  29.626   8.762
 2585POPC   C2B34148  29.577  29.497   8.325
 2585POPC   C3B34149  29.600  29.798   7.980
 2585POPC   C4B34150  29.476  29.939   7.592
 2586POPC   NC334151  39.750  30.271   9.478
 2586POPC   PO434152  39.778  29.570   9.486
 2586POPC   GL134153  39.857  29.848   9.186
 2586POPC   GL234154  39.587  30.037   9.037
 2586POPC   C1A34155  40.041  29.908   8.816
 2586POPC   D2A34156  39.913  29.656   8.510
 2586POPC   C3A34157  39.857  29.915   8.169
 2586POPC   C4A34158  40.083  29.850   7.796
 2586POPC   C1B34159  39.505  29.964   8.598
 2586POPC   C2B34160  39.429  29.617   8.307
 2586POPC   C3B34161  39.586  29.619   7.865
 2586POPC   C4B34162  39.645  30.009   7.593
 2587POPC   NC334163  42.077  16.208   9.846
 2587POPC   PO434164  42.354  15.719   9.455
 2587POPC   GL134165  42.343  15.955   9.119
 2587POPC   GL234166  42.028  16.154   9.201
 2587POPC   C1A34167  42.546  15.939   8.703
 2587POPC   D2A34168  42.648  15.956   8.265
 2587POPC   C3A34169  42.318  15.951   7.983
 2587POPC   C4A34170  42.236  15.811   7.599
 2587POPC   C1B34171  42.203  16.306   8.803
 2587POPC   C2B34172  42.220  16.222   8.398
 2587POPC   C3B34173  42.032  16.409   8.031
 2587POPC   C4B34174  42.170  16.337   7.636
 2588POPC   NC334175  37.369  42.833   9.551
 2588POPC   PO434176  36.862  43.312   9.494
 2588POPC   GL134177  36.913  43.132   9.107
 2588POPC   GL234178  37.065  42.831   9.118
 2588POPC   C1A34179  36.712  42.932   8.751
 2588POPC   D2A34180  36.857  43.155   8.390
 2588POPC   C3A34181  36.617  43.248   8.058
 2588POPC   C4A34182  36.577  43.049   7.693
 2588POPC   C1B34183  37.227  42.968   8.697
 2588POPC   C2B34184  37.310  42.956   8.259
 2588POPC   C3B34185  37.047  42.979   7.913
 2588POPC   C4B34186  36.934  42.699   7.594
 2589POPC   NC334187   7.940  17.496   9.467
 2589POPC   PO434188   8.598  17.647   9.565
 2589POPC   GL134189   8.333  17.689   9.200
 2589POPC   GL234190   8.276  17.337   9.109
 2589POPC   C1A34191   8.224  17.752   8.772
 2589POPC   D2A34192   8.455  17.539   8.438
 2589POPC   C3A34193   8.234  17.529   8.041
 2589POPC   C4A34194   8.241  17.628   7.609
 2589POPC   C1B34195   8.071  17.266   8.714
 2589POPC   C2B34196   8.184  17.108   8.357
 2589POPC   C3B34197   8.519  17.107   8.117
 2589POPC   C4B34198   8.263  17.121   7.717
 2590POPC   NC334199  26.615   8.486   9.878
 2590POPC   PO434200  27.026   7.998   9.521
 2590POPC   GL134201  26.822   8.123   9.127
 2590POPC   GL234202  26.672   8.427   9.142
 2590POPC   C1A34203  26.925   8.277   8.702
 2590POPC   D2A34204  27.025   8.414   8.279
 2590POPC   C3A34205  26.767   8.127   8.039
 2590POPC   C4A34206  26.570   7.975   7.672
 2590POPC   C1B34207  26.471   8.528   8.764
 2590POPC   C2B34208  26.520   8.461   8.331
 2590POPC   C3B34209  26.623   8.589   7.913
 2590POPC   C4B34210  26.686   8.447   7.483
 2591POPC   NC334211  41.427  30.771   9.528
 2591POPC   PO434212  41.740  30.212   9.655
 2591POPC   GL134213  41.681  30.518   9.189
 2591POPC   GL234214  41.675  30.868   9.074
 2591POPC   C1A34215  41.689  30.513   8.697
 2591POPC   D2A34216  41.886  30.654   8.300
 2591POPC   C3A34217  41.895  30.640   7.859
 2591POPC   C4A34218  41.862  30.975   7.519
 2591POPC   C1B34219  41.421  30.947   8.735
 2591POPC   C2B34220  41.374  30.807   8.335
 2591POPC   C3B34221  41.480  30.936   7.929
 2591POPC   C4B34222  41.480  30.656   7.557
 2592POPC   NC334223   2.484  17.761   9.568
 2592POPC   PO434224   2.911  17.253   9.476
 2592POPC   GL134225   2.752  17.511   9.189
 2592POPC   GL234226   2.983  17.333   8.969
 2592POPC   C1A34227   2.569  17.551   8.795
 2592POPC   D2A34228   2.726  17.345   8.469
 2592POPC   C3A34229   2.563  17.517   8.099
 2592POPC   C4A34230   2.475  17.553   7.684
 2592POPC   C1B34231   3.070  17.705   8.725
 2592POPC   C2B34232   3.012  17.713   8.292
 2592POPC   C3B34233   3.039  17.454   7.947
 2592POPC   C4B34234   2.959  17.535   7.538
 2593POPC   NC334235  24.402  41.245   9.524
 2593POPC   PO434236  24.862  41.691   9.727
 2593POPC   GL134237  24.631  41.596   9.252
 2593POPC   GL234238  24.451  41.953   9.198
 2593POPC   C1A34239  24.572  41.342   8.826
 2593POPC   D2A34240  24.583  41.182   8.403
 2593POPC   C3A34241  24.429  41.334   8.022
 2593POPC   C4A34242  24.719  41.371   7.746
 2593POPC   C1B34243  24.535  41.828   8.798
 2593POPC   C2B34244  24.450  41.695   8.384
 2593POPC   C3B34245  24.621  41.827   8.009
 2593POPC   C4B34246  24.621  41.854   7.587
 2594POPC   NC334247  38.845  38.325   9.388
 2594POPC   PO434248  39.480  38.399   9.422
 2594POPC   GL134249  39.221  38.349   9.058
 2594POPC   GL234250  38.859  38.158   8.924
 2594POPC   C1A34251  39.289  38.246   8.663
 2594POPC   D2A34252  39.353  38.529   8.350
 2594POPC   C3A34253  39.290  38.286   8.018
 2594POPC   C4A34254  39.435  38.505   7.693
 2594POPC   C1B34255  38.895  38.623   8.783
 2594POPC   C2B34256  38.814  38.794   8.382
 2594POPC   C3B34257  38.982  38.721   7.966
 2594POPC   C4B34258  39.047  38.875   7.566
 2595POPC   NC334259  19.590  27.320   9.611
 2595POPC   PO434260  18.947  27.615   9.621
 2595POPC   GL134261  19.012  27.611   9.210
 2595POPC   GL234262  19.132  27.272   9.250
 2595POPC   C1A34263  18.829  27.790   8.834
 2595POPC   D2A34264  18.521  27.798   8.491
 2595POPC   C3A34265  18.695  27.736   8.085
 2595POPC   C4A34266  18.909  27.580   7.744
 2595POPC   C1B34267  19.016  27.306   8.801
 2595POPC   C2B34268  19.077  27.539   8.437
 2595POPC   C3B34269  19.242  27.413   8.063
 2595POPC   C4B34270  19.130  27.139   7.706
 2596POPC   NC334271  38.818  19.554   9.277
 2596POPC   PO434272  38.295  19.982   9.369
 2596POPC   GL134273  38.516  19.909   9.044
 2596POPC   GL234274  38.825  20.055   9.143
 2596POPC   C1A34275  38.526  19.701   8.651
 2596POPC   D2A34276  38.230  19.644   8.281
 2596POPC   C3A34277  38.428  19.697   7.866
 2596POPC   C4A34278  38.668  19.560   7.501
 2596POPC   C1B34279  38.775  20.169   8.707
 2596POPC   C2B34280  38.417  20.133   8.411
 2596POPC   C3B34281  38.499  20.187   7.993
 2596POPC   C4B34282  38.417  20.114   7.567
 2597POPC   NC334283  36.569  42.938   9.436
 2597POPC   PO434284  35.918  42.983   9.507
 2597POPC   GL134285  36.113  43.038   9.155
 2597POPC   GL234286  36.009  43.340   9.144
 2597POPC   C1A34287  36.151  42.989   8.733
 2597POPC   D2A34288  36.081  42.729   8.379
 2597POPC   C3A34289  36.166  42.983   8.030
 2597POPC   C4A34290  36.086  43.152   7.613
 2597POPC   C1B34291  36.141  43.513   8.786
 2597POPC   C2B34292  36.277  43.413   8.400
 2597POPC   C3B34293  36.085  43.501   8.015
 2597POPC   C4B34294  35.851  43.691   7.680
 2598POPC   NC334295  44.398  11.654   9.427
 2598POPC   PO434296  44.752  11.030   9.420
 2598POPC   GL134297  44.824  11.371   9.166
 2598POPC   GL234298  44.502  11.352   9.017
 2598POPC   C1A34299  44.911  11.492   8.738
 2598POPC   D2A34300  44.630  11.384   8.412
 2598POPC   C3A34301  44.754  11.456   7.993
 2598POPC   C4A34302  44.577  11.376   7.545
 2598POPC   C1B34303  44.319  11.078   8.720
 2598POPC   C2B34304  44.206  11.099   8.286
 2598POPC   C3B34305  44.240  11.146   7.834
 2598POPC   C4B34306  44.161  11.134   7.389
 2599POPC   NC334307   6.249  33.141   9.543
 2599POPC   PO434308   6.470  32.494   9.547
 2599POPC   GL134309   6.572  32.882   9.259
 2599POPC   GL234310   6.329  32.914   9.041
 2599POPC   C1A34311   6.768  33.097   8.908
 2599POPC   D2A34312   6.771  33.077   8.474
 2599POPC   C3A34313   7.019  32.904   8.161
 2599POPC   C4A34314   6.879  33.097   7.761
 2599POPC   C1B34315   6.300  33.223   8.705
 2599POPC   C2B34316   6.250  33.278   8.270
 2599POPC   C3B34317   6.397  33.338   7.838
 2599POPC   C4B34318   6.260  33.350   7.394
 2600POPC   NC334319  19.483  15.674   9.406
 2600POPC   PO434320  19.828  16.258   9.527
 2600POPC   GL134321  19.919  16.176   9.080
 2600POPC   GL234322  19.635  15.957   9.006
 2600POPC   C1A34323  19.917  16.031   8.608
 2600POPC   D2A34324  19.882  16.297   8.230
 2600POPC   C3A34325  19.722  16.026   7.910
 2600POPC   C4A34326  19.884  15.685   7.637
 2600POPC   C1B34327  19.436  15.669   8.682
 2600POPC   C2B34328  19.449  15.619   8.219
 2600POPC   C3B34329  19.384  15.685   7.770
 2600POPC   C4B34330  19.303  15.738   7.330
 2601POPC   NC334331  19.513  41.782   9.926
 2601POPC   PO434332  19.113  41.438   9.511
 2601POPC   GL134333  19.119  41.641   9.120
 2601POPC   GL234334  19.110  41.296   8.972
 2601POPC   C1A34335  19.282  41.683   8.723
 2601POPC   D2A34336  19.112  41.409   8.416
 2601POPC   C3A34337  19.067  41.601   8.025
 2601POPC   C4A34338  19.054  41.863   7.697
 2601POPC   C1B34339  18.728  41.180   8.681
 2601POPC   C2B34340  18.576  41.388   8.281
 2601POPC   C3B34341  18.648  41.403   7.819
 2601POPC   C4B34342  18.696  41.613   7.419
 2602POPC   NC334343  14.415   9.302   9.450
 2602POPC   PO434344  14.375   8.633   9.464
 2602POPC   GL134345  14.275   8.781   9.046
 2602POPC   GL234346  14.167   9.135   9.025
 2602POPC   C1A34347  14.559   8.990   8.707
 2602POPC   D2A34348  14.824   8.993   8.299
 2602POPC   C3A34349  14.577   8.909   7.916
 2602POPC   C4A34350  14.236   8.689   7.715
 2602POPC   C1B34351  14.016   8.982   8.657
 2602POPC   C2B34352  14.227   9.109   8.306
 2602POPC   C3B34353  14.074   9.109   7.926
 2602POPC   C4B34354  14.305   9.207   7.581
 2603POPC   NC334355  10.752  30.345   9.481
 2603POPC   PO434356  10.317  30.799   9.607
 2603POPC   GL134357  10.455  30.635   9.189
 2603POPC   GL234358  10.818  30.675   9.094
 2603POPC   C1A34359  10.505  30.466   8.758
 2603POPC   D2A34360  10.722  30.600   8.411
 2603POPC   C3A34361  10.394  30.648   8.108
 2603POPC   C4A34362  10.249  30.408   7.774
 2603POPC   C1B34363  10.926  31.024   8.788
 2603POPC   C2B34364  11.024  31.033   8.340
 2603POPC   C3B34365  10.842  30.880   7.930
 2603POPC   C4B34366  10.847  30.913   7.449
 2604POPC   NC334367  38.157  25.914   9.880
 2604POPC   PO434368  37.641  26.218   9.629
 2604POPC   GL134369  37.708  26.272   9.187
 2604POPC   GL234370  37.579  26.557   9.145
 2604POPC   C1A34371  37.780  26.060   8.771
 2604POPC   D2A34372  37.532  25.980   8.370
 2604POPC   C3A34373  37.752  26.041   7.992
 2604POPC   C4A34374  37.875  25.857   7.629
 2604POPC   C1B34375  37.381  26.355   8.799
 2604POPC   C2B34376  37.435  26.485   8.374
 2604POPC   C3B34377  37.422  26.433   7.957
 2604POPC   C4B34378  37.585  26.309   7.574
 2605POPC   NC334379  40.857  23.792   9.527
 2605POPC   PO434380  40.296  23.596   9.376
 2605POPC   GL134381  40.576  23.729   9.044
 2605POPC   GL234382  40.942  23.848   9.034
 2605POPC   C1A34383  40.808  23.507   8.696
 2605POPC   D2A34384  41.128  23.646   8.408
 2605POPC   C3A34385  40.926  23.746   8.030
 2605POPC   C4A34386  40.907  23.529   7.645
 2605POPC   C1B34387  40.713  24.026   8.660
 2605POPC   C2B34388  40.767  24.342   8.369
 2605POPC   C3B34389  40.991  24.283   7.997
 2605POPC   C4B34390  40.732  24.100   7.685
 2606POPC   NC334391  31.008   1.658   9.513
 2606POPC   PO434392  30.907   2.402   9.408
 2606POPC   GL134393  30.898   2.076   9.136
 2606POPC   GL234394  30.591   1.939   9.219
 2606POPC   C1A34395  31.033   1.932   8.725
 2606POPC   D2A34396  30.867   1.611   8.430
 2606POPC   C3A34397  30.851   1.794   7.995
 2606POPC   C4A34398  30.799   1.820   7.528
 2606POPC   C1B34399  30.505   1.949   8.778
 2606POPC   C2B34400  30.425   1.859   8.357
 2606POPC   C3B34401  30.463   2.144   8.015
 2606POPC   C4B34402  30.245   2.544   7.944
 2607POPC   NC334403  44.159  35.800   9.417
 2607POPC   PO434404  43.537  36.083   9.377
 2607POPC   GL134405  43.667  36.236   9.010
 2607POPC   GL234406  43.919  36.445   9.183
 2607POPC   C1A34407  43.695  35.983   8.657
 2607POPC   D2A34408  43.847  35.951   8.245
 2607POPC   C3A34409  44.192  35.982   7.912
 2607POPC   C4A34410  44.131  35.916   7.459
 2607POPC   C1B34411  43.959  36.625   8.766
 2607POPC   C2B34412  43.866  36.448   8.350
 2607POPC   C3B34413  43.756  36.306   7.891
 2607POPC   C4B34414  43.954  36.400   7.482
 2608POPC   NC334415   3.087   0.582   9.368
 2608POPC   PO434416   2.638   0.192   9.595
 2608POPC   GL134417   2.524   0.313   9.168
 2608POPC   GL234418   2.781   0.462   8.960
 2608POPC   C1A34419   2.318   0.273   8.790
 2608POPC   D2A34420   2.311   0.091   8.412
 2608POPC   C3A34421   2.270   0.219   8.009
 2608POPC   C4A34422   2.559   0.123   7.665
 2608POPC   C1B34423   2.794   0.196   8.591
 2608POPC   C2B34424   2.751   0.184   8.140
 2608POPC   C3B34425   2.722   0.559   7.864
 2608POPC   C4B34426   3.058   0.823   7.771
 2609POPC   NC334427   5.373  25.806   9.528
 2609POPC   PO434428   5.233  25.199   9.524
 2609POPC   GL134429   5.203  25.129   9.117
 2609POPC   GL234430   5.317  25.495   9.087
 2609POPC   C1A34431   5.215  25.206   8.683
 2609POPC   D2A34432   5.264  25.484   8.352
 2609POPC   C3A34433   5.301  25.219   8.003
 2609POPC   C4A34434   5.624  25.177   7.714
 2609POPC   C1B34435   4.907  25.553   8.914
 2609POPC   C2B34436   4.725  25.649   8.524
 2609POPC   C3B34437   4.800  25.404   8.135
 2609POPC   C4B34438   4.949  25.481   7.735
 2610POPC   NC334439  33.564  15.385   9.414
 2610POPC   PO434440  34.071  14.962   9.651
 2610POPC   GL134441  33.944  15.052   9.219
 2610POPC   GL234442  34.104  15.289   8.964
 2610POPC   C1A34443  33.782  14.890   8.856
 2610POPC   D2A34444  33.870  15.047   8.478
 2610POPC   C3A34445  33.699  14.956   8.141
 2610POPC   C4A34446  33.760  14.893   7.754
 2610POPC   C1B34447  33.760  15.475   8.713
 2610POPC   C2B34448  33.608  15.432   8.266
 2610POPC   C3B34449  33.722  15.400   7.823
 2610POPC   C4B34450  34.013  15.622   7.514
 2611POPC   NC334451   1.935  30.392   9.612
 2611POPC   PO434452   1.656  30.768   9.172
 2611POPC   GL134453   1.842  30.411   9.071
 2611POPC   GL234454   2.184  30.383   9.153
 2611POPC   C1A34455   1.962  30.492   8.664
 2611POPC   D2A34456   2.151  30.637   8.323
 2611POPC   C3A34457   1.868  30.889   8.096
 2611POPC   C4A34458   1.709  30.701   7.738
 2611POPC   C1B34459   2.434  30.355   8.776
 2611POPC   C2B34460   2.476  30.223   8.346
 2611POPC   C3B34461   2.242  30.283   7.950
 2611POPC   C4B34462   2.364  30.397   7.528
 2612POPC   NC334463   4.847  20.387   9.415
 2612POPC   PO434464   5.304  20.830   9.514
 2612POPC   GL134465   5.409  20.682   9.101
 2612POPC   GL234466   5.183  20.410   9.016
 2612POPC   C1A34467   5.447  20.670   8.640
 2612POPC   D2A34468   5.400  20.641   8.169
 2612POPC   C3A34469   5.239  20.860   7.833
 2612POPC   C4A34470   4.828  20.893   7.670
 2612POPC   C1B34471   5.160  20.125   8.665
 2612POPC   C2B34472   5.097  20.231   8.234
 2612POPC   C3B34473   5.036  20.366   7.810
 2612POPC   C4B34474   4.895  20.144   7.409
 2613POPC   NC334475  26.293  37.221   9.569
 2613POPC   PO434476  25.843  37.713   9.527
 2613POPC   GL134477  25.885  37.504   9.172
 2613POPC   GL234478  26.213  37.619   9.149
 2613POPC   C1A34479  25.882  37.694   8.755
 2613POPC   D2A34480  26.142  37.733   8.407
 2613POPC   C3A34481  25.881  37.676   8.093
 2613POPC   C4A34482  25.991  37.595   7.696
 2613POPC   C1B34483  26.366  37.440   8.784
 2613POPC   C2B34484  26.309  37.231   8.431
 2613POPC   C3B34485  26.337  37.387   8.052
 2613POPC   C4B34486  26.257  37.145   7.684
 2614POPC   NC334487  13.904  43.127   9.657
 2614POPC   PO434488  14.545  43.222   9.572
 2614POPC   GL134489  14.401  43.257   9.165
 2614POPC   GL234490  14.660  43.463   9.032
 2614POPC   C1A34491  14.343  43.031   8.786
 2614POPC   D2A34492  14.346  42.673   8.525
 2614POPC   C3A34493  14.233  42.749   8.126
 2614POPC   C4A34494  14.021  42.912   7.769
 2614POPC   C1B34495  14.754  43.278   8.626
 2614POPC   C2B34496  14.475  43.161   8.302
 2614POPC   C3B34497  14.130  43.327   8.078
 2614POPC   C4B34498  14.136  43.526   7.689
 2615POPC   NC334499  27.753  37.409   9.393
 2615POPC   PO434500  27.513  37.998   9.531
 2615POPC   GL134501  27.801  37.858   9.174
 2615POPC   GL234502  27.490  37.762   9.049
 2615POPC   C1A34503  27.875  37.659   8.747
 2615POPC   D2A34504  27.580  37.728   8.403
 2615POPC   C3A34505  27.675  37.663   7.962
 2615POPC   C4A34506  27.312  37.553   7.728
 2615POPC   C1B34507  27.298  38.128   8.845
 2615POPC   C2B34508  27.092  38.061   8.460
 2615POPC   C3B34509  27.294  38.009   8.084
 2615POPC   C4B34510  27.402  38.047   7.696
 2616POPC   NC334511  19.021  42.694   9.511
 2616POPC   PO434512  19.253  42.013   9.603
 2616POPC   GL134513  19.029  42.155   9.193
 2616POPC   GL234514  19.053  42.465   9.063
 2616POPC   C1A34515  18.858  42.148   8.745
 2616POPC   D2A34516  18.978  41.924   8.404
 2616POPC   C3A34517  18.941  42.163   8.074
 2616POPC   C4A34518  18.737  42.483   7.816
 2616POPC   C1B34519  19.047  42.644   8.635
 2616POPC   C2B34520  19.050  42.647   8.184
 2616POPC   C3B34521  19.294  42.432   7.857
 2616POPC   C4B34522  19.492  42.582   7.480
 2617POPC   NC334523  19.273  21.107   9.365
 2617POPC   PO434524  19.260  21.776   9.507
 2617POPC   GL134525  19.098  21.551   9.150
 2617POPC   GL234526  18.903  21.852   9.112
 2617POPC   C1A34527  19.146  21.291   8.754
 2617POPC   D2A34528  19.013  21.125   8.359
 2617POPC   C3A34529  19.283  20.968   8.061
 2617POPC   C4A34530  19.177  21.320   7.853
 2617POPC   C1B34531  19.125  21.817   8.730
 2617POPC   C2B34532  19.094  21.631   8.339
 2617POPC   C3B34533  18.950  21.755   7.976
 2617POPC   C4B34534  18.915  21.622   7.565
 2618POPC   NC334535  42.709  40.090   9.462
 2618POPC   PO434536  43.336  39.792   9.489
 2618POPC   GL134537  43.167  39.778   9.112
 2618POPC   GL234538  43.108  40.106   9.138
 2618POPC   C1A34539  43.370  39.893   8.723
 2618POPC   D2A34540  43.510  39.688   8.343
 2618POPC   C3A34541  43.245  39.890   8.028
 2618POPC   C4A34542  43.021  39.865   7.673
 2618POPC   C1B34543  42.897  40.219   8.815
 2618POPC   C2B34544  42.992  40.112   8.421
 2618POPC   C3B34545  42.794  40.173   8.043
 2618POPC   C4B34546  42.994  40.379   7.718
 2619POPC   NC334547  23.167  19.550   9.561
 2619POPC   PO434548  22.687  19.954   9.433
 2619POPC   GL134549  22.868  19.726   9.111
 2619POPC   GL234550  23.181  19.780   9.093
 2619POPC   C1A34551  22.853  19.568   8.704
 2619POPC   D2A34552  22.770  19.754   8.299
 2619POPC   C3A34553  23.047  19.643   7.968
 2619POPC   C4A34554  23.081  19.266   7.722
 2619POPC   C1B34555  23.288  19.989   8.719
 2619POPC   C2B34556  23.391  19.842   8.306
 2619POPC   C3B34557  23.419  20.000   7.873
 2619POPC   C4B34558  23.331  19.952   7.412
 2620POPC   NC334559  30.755  36.729   9.919
 2620POPC   PO434560  30.419  37.060   9.466
 2620POPC   GL134561  30.597  36.944   9.095
 2620POPC   GL234562  30.438  36.632   9.066
 2620POPC   C1A34563  30.804  36.852   8.670
 2620POPC   D2A34564  30.995  36.720   8.269
 2620POPC   C3A34565  31.004  36.971   7.894
 2620POPC   C4A34566  30.963  36.660   7.560
 2620POPC   C1B34567  30.287  36.831   8.707
 2620POPC   C2B34568  30.208  36.711   8.303
 2620POPC   C3B34569  30.538  36.749   7.983
 2620POPC   C4B34570  30.558  37.103   7.667
 2621POPC   NC334571  32.740  28.797   9.504
 2621POPC   PO434572  32.476  29.419   9.445
 2621POPC   GL134573  32.264  29.215   9.105
 2621POPC   GL234574  32.078  28.908   9.155
 2621POPC   C1A34575  32.248  29.345   8.700
 2621POPC   D2A34576  32.071  29.402   8.292
 2621POPC   C3A34577  32.159  29.186   7.903
 2621POPC   C4A34578  32.570  29.253   7.627
 2621POPC   C1B34579  32.333  28.845   8.749
 2621POPC   C2B34580  32.437  29.031   8.358
 2621POPC   C3B34581  32.552  28.904   7.994
 2621POPC   C4B34582  32.512  28.714   7.637
 2622POPC   NC334583  25.106  13.728   9.550
 2622POPC   PO434584  25.689  13.396   9.568
 2622POPC   GL134585  25.501  13.690   9.232
 2622POPC   GL234586  25.271  13.445   9.124
 2622POPC   C1A34587  25.347  13.860   8.813
 2622POPC   D2A34588  25.338  13.665   8.400
 2622POPC   C3A34589  25.131  13.798   8.032
 2622POPC   C4A34590  25.185  13.636   7.616
 2622POPC   C1B34591  25.259  13.273   8.712
 2622POPC   C2B34592  25.017  13.286   8.308
 2622POPC   C3B34593  24.844  13.378   7.888
 2622POPC   C4B34594  24.766  13.307   7.444
 2623POPC   NC334595  44.334   2.281   9.436
 2623POPC   PO434596  44.996   2.119   9.470
 2623POPC   GL134597  44.965   1.892   9.088
 2623POPC   GL234598  44.616   1.963   9.017
 2623POPC   C1A34599  44.957   1.806   8.653
 2623POPC   D2A34600  44.593   1.869   8.429
 2623POPC   C3A34601  44.691   1.757   8.024
 2623POPC   C4A34602  44.981   1.830   7.728
 2623POPC   C1B34603  44.378   2.217   8.719
 2623POPC   C2B34604  44.412   2.351   8.331
 2623POPC   C3B34605  44.291   2.082   8.052
 2623POPC   C4B34606  44.358   1.912   7.670
 2624POPC   NC334607  14.467   1.525   9.759
 2624POPC   PO434608  14.116   2.054   9.493
 2624POPC   GL134609  14.248   2.136   9.078
 2624POPC   GL234610  13.979   2.325   8.936
 2624POPC   C1A34611  14.609   2.204   8.786
 2624POPC   D2A34612  14.640   1.978   8.391
 2624POPC   C3A34613  14.442   2.069   8.010
 2624POPC   C4A34614  14.555   1.755   7.691
 2624POPC   C1B34615  14.160   2.116   8.557
 2624POPC   C2B34616  14.125   1.747   8.283
 2624POPC   C3B34617  14.063   1.779   7.846
 2624POPC   C4B34618  13.940   2.063   7.521
 2625POPC   NC334619   2.086  31.889   9.326
 2625POPC   PO434620   1.763  32.523   9.557
 2625POPC   GL134621   1.870  32.381   9.172
 2625POPC   GL234622   1.649  32.123   9.170
 2625POPC   C1A34623   1.897  32.206   8.733
 2625POPC   D2A34624   2.140  32.007   8.398
 2625POPC   C3A34625   2.165  32.271   8.049
 2625POPC   C4A34626   2.243  32.346   7.627
 2625POPC   C1B34627   1.476  31.916   8.788
 2625POPC   C2B34628   1.635  31.905   8.375
 2625POPC   C3B34629   1.666  32.176   8.042
 2625POPC   C4B34630   1.597  32.033   7.649
 2626POPC   NC334631  31.114  11.874   9.496
 2626POPC   PO434632  30.456  11.844   9.415
 2626POPC   GL134633  30.636  11.942   9.033
 2626POPC   GL234634  30.919  12.145   9.101
 2626POPC   C1A34635  30.453  12.226   8.685
 2626POPC   D2A34636  30.470  12.519   8.342
 2626POPC   C3A34637  30.606  12.319   7.961
 2626POPC   C4A34638  30.710  12.268   7.545
 2626POPC   C1B34639  30.932  12.055   8.657
 2626POPC   C2B34640  30.696  11.955   8.330
 2626POPC   C3B34641  30.791  11.676   8.039
 2626POPC   C4B34642  30.922  11.817   7.692
 2627POPC   NC334643   3.293  36.232   9.735
 2627POPC   PO434644   3.673  35.795   9.416
 2627POPC   GL134645   3.629  36.212   9.238
 2627POPC   GL234646   3.482  36.001   8.989
 2627POPC   C1A34647   3.650  36.440   8.820
 2627POPC   D2A34648   3.464  36.209   8.496
 2627POPC   C3A34649   3.496  36.273   8.103
 2627POPC   C4A34650   3.678  36.059   7.771
 2627POPC   C1B34651   3.227  35.816   8.708
 2627POPC   C2B34652   3.357  35.726   8.326
 2627POPC   C3B34653   3.223  35.857   7.949
 2627POPC   C4B34654   3.364  35.716   7.558
 2628POPC   NC334655  41.597  26.321   9.889
 2628POPC   PO434656  41.346  26.838   9.448
 2628POPC   GL134657  41.654  26.652   9.178
 2628POPC   GL234658  41.668  26.938   8.980
 2628POPC   C1A34659  41.793  26.491   8.751
 2628POPC   D2A34660  41.799  26.662   8.312
 2628POPC   C3A34661  41.485  26.606   7.964
 2628POPC   C4A34662  41.556  26.622   7.535
 2628POPC   C1B34663  41.328  26.743   8.766
 2628POPC   C2B34664  41.308  26.870   8.362
 2628POPC   C3B34665  41.554  27.142   8.118
 2628POPC   C4B34666  41.497  27.104   7.705
 2629POPC   NC334667  18.687  30.543   9.666
 2629POPC   PO434668  19.194  30.972   9.580
 2629POPC   GL134669  19.100  30.719   9.259
 2629POPC   GL234670  18.750  30.747   9.220
 2629POPC   C1A34671  19.167  30.546   8.863
 2629POPC   D2A34672  18.985  30.520   8.474
 2629POPC   C3A34673  19.261  30.323   8.184
 2629POPC   C4A34674  18.992  30.420   7.875
 2629POPC   C1B34675  18.646  30.698   8.849
 2629POPC   C2B34676  18.469  30.820   8.515
 2629POPC   C3B34677  18.640  30.870   8.123
 2629POPC   C4B34678  18.791  30.883   7.732
 2630POPC   NC334679  12.208  24.777   9.437
 2630POPC   PO434680  12.537  24.225   9.294
 2630POPC   GL134681  12.237  24.430   9.053
 2630POPC   GL234682  11.913  24.431   9.158
 2630POPC   C1A34683  12.162  24.706   8.722
 2630POPC   D2A34684  12.339  24.514   8.349
 2630POPC   C3A34685  12.193  24.623   7.965
 2630POPC   C4A34686  12.156  24.439   7.584
 2630POPC   C1B34687  11.897  24.262   8.701
 2630POPC   C2B34688  11.865  24.302   8.227
 2630POPC   C3B34689  11.706  24.242   7.774
 2630POPC   C4B34690  11.385  24.033   7.494
 2631POPC   NC334691  26.577  35.012   9.518
 2631POPC   PO434692  27.000  35.456   9.567
 2631POPC   GL134693  26.816  35.525   9.152
 2631POPC   GL234694  26.814  35.152   9.090
 2631POPC   C1A34695  26.759  35.459   8.691
 2631POPC   D2A34696  26.967  35.320   8.329
 2631POPC   C3A34697  26.773  35.347   7.976
 2631POPC   C4A34698  26.929  35.679   7.828
 2631POPC   C1B34699  27.098  35.067   8.739
 2631POPC   C2B34700  27.358  34.966   8.370
 2631POPC   C3B34701  27.321  35.146   7.969
 2631POPC   C4B34702  27.130  35.253   7.599
 2632POPC   NC334703  39.850  23.686   9.483
 2632POPC   PO434704  39.958  23.126   9.792
 2632POPC   GL134705  39.982  23.239   9.212
 2632POPC   GL234706  39.912  23.552   9.006
 2632POPC   C1A34707  40.316  23.344   8.800
 2632POPC   D2A34708  40.285  23.716   8.528
 2632POPC   C3A34709  40.128  23.726   8.098
 2632POPC   C4A34710  39.988  23.434   7.793
 2632POPC   C1B34711  39.731  23.930   8.823
 2632POPC   C2B34712  39.758  24.083   8.402
 2632POPC   C3B34713  39.804  24.151   7.967
 2632POPC   C4B34714  39.544  24.229   7.605
 2633POPC   NC334715  31.967  36.757   9.604
 2633POPC   PO434716  32.680  36.651   9.423
 2633POPC   GL134717  32.452  36.719   9.103
 2633POPC   GL234718  32.147  36.963   9.160
 2633POPC   C1A34719  32.604  36.659   8.699
 2633POPC   D2A34720  32.397  36.797   8.362
 2633POPC   C3A34721  32.588  36.817   7.970
 2633POPC   C4A34722  32.250  36.820   7.688
 2633POPC   C1B34723  32.404  37.130   8.805
 2633POPC   C2B34724  32.378  37.330   8.432
 2633POPC   C3B34725  32.247  37.186   8.060
 2633POPC   C4B34726  32.183  37.356   7.689
 2634POPC   NC334727  33.544  21.793   9.386
 2634POPC   PO434728  33.741  22.428   9.354
 2634POPC   GL134729  33.888  22.056   9.134
 2634POPC   GL234730  34.042  21.732   9.230
 2634POPC   C1A34731  33.791  21.960   8.722
 2634POPC   D2A34732  33.911  22.237   8.369
 2634POPC   C3A34733  33.695  22.115   8.006
 2634POPC   C4A34734  33.796  22.253   7.622
 2634POPC   C1B34735  34.216  21.702   8.793
 2634POPC   C2B34736  34.039  21.744   8.330
 2634POPC   C3B34737  34.144  21.900   7.936
 2634POPC   C4B34738  33.855  21.739   7.657
 2635POPC   NC334739  43.300  17.402   9.687
 2635POPC   PO434740  42.656  17.377   9.563
 2635POPC   GL134741  43.027  17.497   9.229
 2635POPC   GL234742  43.278  17.774   9.317
 2635POPC   C1A34743  43.142  17.444   8.758
 2635POPC   D2A34744  42.853  17.507   8.382
 2635POPC   C3A34745  42.932  17.321   7.959
 2635POPC   C4A34746  43.326  17.348   7.722
 2635POPC   C1B34747  43.396  17.909   8.907
 2635POPC   C2B34748  43.296  17.879   8.483
 2635POPC   C3B34749  43.299  17.684   8.116
 2635POPC   C4B34750  43.491  17.862   7.770
 2636POPC   NC334751  42.446  32.838   9.436
 2636POPC   PO434752  42.714  33.437   9.279
 2636POPC   GL134753  42.540  33.150   9.046
 2636POPC   GL234754  42.185  33.156   9.129
 2636POPC   C1A34755  42.572  33.088   8.629
 2636POPC   D2A34756  42.315  33.222   8.328
 2636POPC   C3A34757  42.417  33.091   7.878
 2636POPC   C4A34758  42.371  32.877   7.420
 2636POPC   C1B34759  42.066  32.929   8.764
 2636POPC   C2B34760  41.842  32.965   8.381
 2636POPC   C3B34761  41.940  33.134   8.024
 2636POPC   C4B34762  42.012  33.181   7.597
 2637POPC   NC334763  12.905   8.471   9.486
 2637POPC   PO434764  13.041   7.889   9.260
 2637POPC   GL134765  12.896   8.263   9.031
 2637POPC   GL234766  13.179   8.498   9.042
 2637POPC   C1A34767  12.689   8.310   8.649
 2637POPC   D2A34768  12.561   7.902   8.482
 2637POPC   C3A34769  12.671   7.825   8.056
 2637POPC   C4A34770  12.623   8.036   7.676
 2637POPC   C1B34771  13.255   8.205   8.690
 2637POPC   C2B34772  13.040   8.115   8.331
 2637POPC   C3B34773  13.004   8.253   7.924
 2637POPC   C4B34774  13.189   8.031   7.592
 2638POPC   NC334775   9.254  40.865   9.488
 2638POPC   PO434776   8.652  40.741   9.657
 2638POPC   GL134777   8.886  40.630   9.256
 2638POPC   GL234778   8.928  40.994   9.135
 2638POPC   C1A34779   9.154  40.634   8.846
 2638POPC   D2A34780   9.053  40.832   8.431
 2638POPC   C3A34781   9.157  40.654   8.026
 2638POPC   C4A34782   8.946  40.469   7.680
 2638POPC   C1B34783   8.739  41.153   8.777
 2638POPC   C2B34784   8.848  41.359   8.404
 2638POPC   C3B34785   8.831  41.265   7.981
 2638POPC   C4B34786   8.974  41.001   7.667
 2639POPC   NC334787  32.396  28.031   9.369
 2639POPC   PO434788  32.152  27.356   9.549
 2639POPC   GL134789  32.275  27.551   9.201
 2639POPC   GL234790  32.613  27.549   9.319
 2639POPC   C1A34791  32.308  27.723   8.776
 2639POPC   D2A34792  32.490  27.802   8.367
 2639POPC   C3A34793  32.259  27.733   7.988
 2639POPC   C4A34794  32.223  27.932   7.602
 2639POPC   C1B34795  32.686  27.286   8.958
 2639POPC   C2B34796  32.718  27.275   8.504
 2639POPC   C3B34797  32.615  27.332   8.045
 2639POPC   C4B34798  32.441  27.428   7.614
 2640POPC   NC334799  43.398  19.656   9.351
 2640POPC   PO434800  42.774  19.321   9.464
 2640POPC   GL134801  42.990  19.566   9.080
 2640POPC   GL234802  42.920  19.938   9.055
 2640POPC   C1A34803  43.170  19.679   8.676
 2640POPC   D2A34804  42.943  19.706   8.286
 2640POPC   C3A34805  43.134  19.600   7.873
 2640POPC   C4A34806  43.227  19.638   7.434
 2640POPC   C1B34807  43.224  20.184   8.831
 2640POPC   C2B34808  43.281  20.109   8.394
 2640POPC   C3B34809  43.138  20.107   7.986
 2640POPC   C4B34810  43.421  20.087   7.639
 2641POPC   NC334811  33.288  14.216   9.476
 2641POPC   PO434812  32.691  14.477   9.492
 2641POPC   GL134813  32.806  14.373   9.086
 2641POPC   GL234814  32.964  14.078   9.110
 2641POPC   C1A34815  32.945  14.379   8.656
 2641POPC   D2A34816  32.730  14.513   8.262
 2641POPC   C3A34817  32.901  14.677   7.932
 2641POPC   C4A34818  33.030  14.374   7.665
 2641POPC   C1B34819  33.215  13.927   8.787
 2641POPC   C2B34820  33.431  14.110   8.452
 2641POPC   C3B34821  33.248  14.145   8.073
 2641POPC   C4B34822  33.402  13.964   7.687
 2642POPC   NC334823  25.015  30.113   9.649
 2642POPC   PO434824  25.695  30.188   9.448
 2642POPC   GL134825  25.474  30.141   9.071
 2642POPC   GL234826  25.168  29.957   9.141
 2642POPC   C1A34827  25.521  30.070   8.623
 2642POPC   D2A34828  25.434  29.763   8.304
 2642POPC   C3A34829  25.288  29.898   7.894
 2642POPC   C4A34830  25.416  30.213   7.586
 2642POPC   C1B34831  25.055  29.854   8.695
 2642POPC   C2B34832  24.912  29.905   8.263
 2642POPC   C3B34833  24.863  29.644   7.900
 2642POPC   C4B34834  25.116  29.450   7.592
 2643POPC   NC334835  38.055  35.165   9.467
 2643POPC   PO434836  38.656  35.386   9.577
 2643POPC   GL134837  38.474  35.331   9.154
 2643POPC   GL234838  38.178  35.506   9.071
 2643POPC   C1A34839  38.654  35.349   8.725
 2643POPC   D2A34840  38.548  35.132   8.340
 2643POPC   C3A34841  38.724  35.095   7.925
 2643POPC   C4A34842  38.775  35.360   7.570
 2643POPC   C1B34843  38.278  35.700   8.709
 2643POPC   C2B34844  38.457  35.650   8.324
 2643POPC   C3B34845  38.378  35.485   7.934
 2643POPC   C4B34846  38.206  35.735   7.626
 2644POPC   NC334847   2.079  44.087   9.498
 2644POPC   PO434848   1.623  43.568   9.293
 2644POPC   GL134849   1.831  43.886   9.059
 2644POPC   GL234850   2.203  43.894   9.040
 2644POPC   C1A34851   1.926  43.857   8.636
 2644POPC   D2A34852   2.036  44.108   8.320
 2644POPC   C3A34853   1.898  43.939   7.917
 2644POPC   C4A34854   2.011  43.547   7.726
 2644POPC   C1B34855   2.361  44.198   8.714
 2644POPC   C2B34856   2.542  44.255   8.282
 2644POPC   C3B34857   2.235  44.333   7.936
 2644POPC   C4B34858   2.187  44.183   7.559
 2645POPC   NC334859  28.726  23.134   9.355
 2645POPC   PO434860  29.116  22.644   9.609
 2645POPC   GL134861  29.141  22.903   9.163
 2645POPC   GL234862  29.414  22.814   8.924
 2645POPC   C1A34863  28.976  22.892   8.699
 2645POPC   D2A34864  29.155  22.836   8.274
 2645POPC   C3A34865  28.888  22.866   7.886
 2645POPC   C4A34866  28.681  22.775   7.467
 2645POPC   C1B34867  29.392  23.179   8.605
 2645POPC   C2B34868  29.280  23.323   8.175
 2645POPC   C3B34869  29.304  23.201   7.736
 2645POPC   C4B34870  29.340  23.330   7.276
 2646POPC   NC334871   2.568   6.829   9.357
 2646POPC   PO434872   3.074   6.545   9.477
 2646POPC   GL134873   2.946   6.653   9.059
 2646POPC   GL234874   2.690   6.413   9.065
 2646POPC   C1A34875   2.975   6.516   8.627
 2646POPC   D2A34876   3.011   6.422   8.188
 2646POPC   C3A34877   3.008   6.762   7.937
 2646POPC   C4A34878   2.870   6.819   7.513
 2646POPC   C1B34879   2.486   6.680   8.720
 2646POPC   C2B34880   2.570   6.667   8.275
 2646POPC   C3B34881   2.505   6.591   7.847
 2646POPC   C4B34882   2.427   6.354   7.436
 2647POPC   NC334883   3.453   6.290   9.518
 2647POPC   PO434884   3.807   6.865   9.550
 2647POPC   GL134885   3.746   6.592   9.208
 2647POPC   GL234886   3.447   6.660   9.140
 2647POPC   C1A34887   3.700   6.401   8.786
 2647POPC   D2A34888   3.932   6.424   8.389
 2647POPC   C3A34889   3.747   6.339   7.985
 2647POPC   C4A34890   3.375   6.388   7.788
 2647POPC   C1B34891   3.361   6.849   8.775
 2647POPC   C2B34892   3.446   6.680   8.383
 2647POPC   C3B34893   3.537   6.830   8.009
 2647POPC   C4B34894   3.357   7.017   7.669
 2648POPC   NC334895   3.947  38.714   9.566
 2648POPC   PO434896   3.530  38.211   9.460
 2648POPC   GL134897   3.672  38.544   9.172
 2648POPC   GL234898   3.584  38.286   8.941
 2648POPC   C1A34899   3.509  38.771   8.786
 2648POPC   D2A34900   3.382  38.516   8.442
 2648POPC   C3A34901   3.451  38.618   8.025
 2648POPC   C4A34902   3.270  38.563   7.614
 2648POPC   C1B34903   3.822  38.064   8.637
 2648POPC   C2B34904   3.744  38.001   8.200
 2648POPC   C3B34905   3.576  38.160   7.770
 2648POPC   C4B34906   3.476  38.225   7.303
 2649POPC   NC334907  24.103   5.681   9.472
 2649POPC   PO434908  24.260   6.347   9.475
 2649POPC   GL134909  24.462   6.177   9.098
 2649POPC   GL234910  24.458   5.794   9.107
 2649POPC   C1A34911  24.765   6.016   8.775
 2649POPC   D2A34912  24.780   5.805   8.360
 2649POPC   C3A34913  24.602   6.067   8.040
 2649POPC   C4A34914  24.725   6.227   7.640
 2649POPC   C1B34915  24.201   5.532   8.821
 2649POPC   C2B34916  24.130   5.468   8.382
 2649POPC   C3B34917  24.155   5.615   7.958
 2649POPC   C4B34918  24.432   5.776   7.634
 2650POPC   NC334919  28.774  30.445   9.304
 2650POPC   PO434920  28.171  30.641   9.648
 2650POPC   GL134921  28.182  30.469   9.236
 2650POPC   GL234922  28.349  30.760   9.161
 2650POPC   C1A34923  28.327  30.443   8.788
 2650POPC   D2A34924  28.157  30.576   8.421
 2650POPC   C3A34925  28.329  30.501   8.018
 2650POPC   C4A34926  28.235  30.704   7.612
 2650POPC   C1B34927  28.601  30.888   8.769
 2650POPC   C2B34928  28.680  30.802   8.320
 2650POPC   C3B34929  28.630  30.929   7.878
 2650POPC   C4B34930  28.715  30.841   7.431
 2651POPC   NC334931  39.154  18.966   9.471
 2651POPC   PO434932  39.504  19.427   9.755
 2651POPC   GL134933  39.551  19.039   9.213
 2651POPC   GL234934  39.602  18.703   9.203
 2651POPC   C1A34935  39.406  19.145   8.745
 2651POPC   D2A34936  39.181  19.299   8.346
 2651POPC   C3A34937  39.420  19.441   7.969
 2651POPC   C4A34938  39.511  19.203   7.564
 2651POPC   C1B34939  39.685  18.730   8.774
 2651POPC   C2B34940  39.610  18.815   8.367
 2651POPC   C3B34941  39.348  18.805   8.002
 2651POPC   C4B34942  39.062  19.110   7.833
 2652POPC   NC334943  38.910  28.881   9.375
 2652POPC   PO434944  38.292  29.329   9.457
 2652POPC   GL134945  38.466  29.053   9.158
 2652POPC   GL234946  38.239  29.128   8.932
 2652POPC   C1A34947  38.671  28.941   8.736
 2652POPC   D2A34948  38.510  28.906   8.313
 2652POPC   C3A34949  38.598  29.176   7.951
 2652POPC   C4A34950  38.808  29.043   7.541
 2652POPC   C1B34951  38.164  28.756   8.728
 2652POPC   C2B34952  37.915  28.777   8.363
 2652POPC   C3B34953  38.085  28.968   8.023
 2652POPC   C4B34954  38.091  29.322   7.741
 2653POPC   NC334955  16.145  10.173   9.432
 2653POPC   PO434956  15.842  10.723   9.448
 2653POPC   GL134957  15.854  10.549   9.088
 2653POPC   GL234958  16.184  10.528   9.069
 2653POPC   C1A34959  15.713  10.403   8.710
 2653POPC   D2A34960  15.943  10.372   8.357
 2653POPC   C3A34961  15.727  10.485   8.006
 2653POPC   C4A34962  15.681  10.418   7.577
 2653POPC   C1B34963  16.115  10.766   8.672
 2653POPC   C2B34964  16.055  10.841   8.227
 2653POPC   C3B34965  16.228  10.618   7.908
 2653POPC   C4B34966  16.178  10.619   7.454
 2654POPC   NC334967  16.211   8.443   9.414
 2654POPC   PO434968  15.832   7.914   9.498
 2654POPC   GL134969  15.980   8.064   9.120
 2654POPC   GL234970  16.317   7.939   9.103
 2654POPC   C1A34971  15.742   7.941   8.743
 2654POPC   D2A34972  15.664   8.199   8.408
 2654POPC   C3A34973  15.597   8.168   7.956
 2654POPC   C4A34974  15.915   8.335   7.627
 2654POPC   C1B34975  16.225   8.042   8.659
 2654POPC   C2B34976  16.143   8.222   8.227
 2654POPC   C3B34977  16.046   7.931   7.923
 2654POPC   C4B34978  16.133   7.518   7.818
 2655POPC   NC334979  27.984  25.002   9.532
 2655POPC   PO434980  27.614  25.592   9.593
 2655POPC   GL134981  27.712  25.448   9.207
 2655POPC   GL234982  27.435  25.216   9.178
 2655POPC   C1A34983  27.814  25.267   8.806
 2655POPC   D2A34984  27.978  25.207   8.389
 2655POPC   C3A34985  27.843  25.354   7.979
 2655POPC   C4A34986  27.730  25.012   7.708
 2655POPC   C1B34987  27.357  25.518   8.827
 2655POPC   C2B34988  27.521  25.472   8.402
 2655POPC   C3B34989  27.355  25.222   8.046
 2655POPC   C4B34990  27.205  25.461   7.695
 2656POPC   NC334991  39.138  12.159   9.627
 2656POPC   PO434992  39.597  11.738   9.605
 2656POPC   GL134993  39.429  11.995   9.247
 2656POPC   GL234994  39.055  12.023   9.139
 2656POPC   C1A34995  39.429  12.253   8.896
 2656POPC   D2A34996  39.183  12.105   8.545
 2656POPC   C3A34997  39.383  12.111   8.152
 2656POPC   C4A34998  39.113  12.324   7.877
 2656POPC   C1B34999  39.254  11.711   8.864
 2656POPC   C2B35000  39.097  11.552   8.486
 2656POPC   C3B35001  39.008  11.787   8.175
 2656POPC   C4B35002  39.095  11.809   7.769
 2657POPC   NC335003  31.939  35.790   9.588
 2657POPC   PO435004  32.657  35.652   9.449
 2657POPC   GL135005  32.418  35.489   9.112
 2657POPC   GL235006  32.083  35.525   9.170
 2657POPC   C1A35007  32.280  35.269   8.739
 2657POPC   D2A35008  32.478  35.222   8.389
 2657POPC   C3A35009  32.252  35.150   8.072
 2657POPC   C4A35010  32.360  35.223   7.665
 2657POPC   C1B35011  32.130  35.756   8.767
 2657POPC   C2B35012  32.069  35.592   8.337
 2657POPC   C3B35013  32.119  35.614   7.874
 2657POPC   C4B35014  32.226  35.673   7.409
 2658POPC   NC335015  35.596  38.494   9.387
 2658POPC   PO435016  34.986  38.131   9.263
 2658POPC   GL135017  35.264  38.304   9.025
 2658POPC   GL235018  35.330  38.631   8.986
 2658POPC   C1A35019  35.158  38.343   8.604
 2658POPC   D2A35020  35.230  38.442   8.225
 2658POPC   C3A35021  34.963  38.201   8.000
 2658POPC   C4A35022  35.051  38.239   7.606
 2658POPC   C1B35023  35.516  38.898   8.722
 2658POPC   C2B35024  35.603  38.860   8.295
 2658POPC   C3B35025  35.365  38.865   7.932
 2658POPC   C4B35026  35.586  38.928   7.554
 2659POPC   NC335027  13.094  40.991   9.358
 2659POPC   PO435028  12.626  40.441   9.429
 2659POPC   GL135029  12.739  40.728   9.076
 2659POPC   GL235030  12.564  41.046   9.076
 2659POPC   C1A35031  13.005  40.882   8.698
 2659POPC   D2A35032  12.872  41.000   8.269
 2659POPC   C3A35033  13.054  40.755   7.944
 2659POPC   C4A35034  13.252  40.969   7.652
 2659POPC   C1B35035  12.487  40.941   8.653
 2659POPC   C2B35036  12.546  40.626   8.313
 2659POPC   C3B35037  12.570  40.703   7.851
 2659POPC   C4B35038  12.514  40.900   7.440
 2660POPC   NC335039  27.246  39.164   9.549
 2660POPC   PO435040  27.828  39.459   9.509
 2660POPC   GL135041  27.587  39.304   9.162
 2660POPC   GL235042  27.676  38.973   9.105
 2660POPC   C1A35043  27.579  39.252   8.696
 2660POPC   D2A35044  27.871  39.316   8.345
 2660POPC   C3A35045  27.704  39.380   7.927
 2660POPC   C4A35046  27.514  39.078   7.654
 2660POPC   C1B35047  27.984  38.925   8.794
 2660POPC   C2B35048  28.156  38.886   8.415
 2660POPC   C3B35049  27.902  38.851   8.067
 2660POPC   C4B35050  28.034  39.053   7.727
 2661POPC   NC335051  29.490  12.331   9.302
 2661POPC   PO435052  28.921  12.695   9.514
 2661POPC   GL135053  28.851  12.838   9.105
 2661POPC   GL235054  29.189  12.908   8.969
 2661POPC   C1A35055  28.782  13.040   8.716
 2661POPC   D2A35056  28.916  12.808   8.366
 2661POPC   C3A35057  29.143  13.042   8.117
 2661POPC   C4A35058  29.000  13.156   7.730
 2661POPC   C1B35059  29.479  12.661   8.741
 2661POPC   C2B35060  29.392  12.558   8.366
 2661POPC   C3B35061  29.423  12.368   8.007
 2661POPC   C4B35062  29.227  12.671   7.776
 2662POPC   NC335063  39.299  17.786   9.498
 2662POPC   PO435064  39.237  18.496   9.500
 2662POPC   GL135065  39.480  18.185   9.227
 2662POPC   GL235066  39.406  17.833   9.023
 2662POPC   C1A35067  39.610  18.239   8.832
 2662POPC   D2A35068  39.366  18.386   8.498
 2662POPC   C3A35069  39.362  18.177   8.134
 2662POPC   C4A35070  39.156  18.342   7.786
 2662POPC   C1B35071  39.090  18.067   8.808
 2662POPC   C2B35072  38.917  18.030   8.383
 2662POPC   C3B35073  38.983  17.879   7.984
 2662POPC   C4B35074  39.324  17.805   7.739
 2663POPC   NC335075  40.285  28.584  10.007
 2663POPC   PO435076  40.072  28.266   9.435
 2663POPC   GL135077  39.868  28.305   9.088
 2663POPC   GL235078  39.872  28.656   9.147
 2663POPC   C1A35079  39.949  28.146   8.713
 2663POPC   D2A35080  40.321  28.302   8.496
 2663POPC   C3A35081  40.306  28.383   8.073
 2663POPC   C4A35082  40.290  28.331   7.621
 2663POPC   C1B35083  39.687  28.615   8.731
 2663POPC   C2B35084  39.705  28.325   8.315
 2663POPC   C3B35085  39.841  28.383   7.876
 2663POPC   C4B35086  39.691  28.640   7.489
 2664POPC   NC335087   7.894  21.122   9.524
 2664POPC   PO435088   7.796  21.781   9.513
 2664POPC   GL135089   8.001  21.574   9.135
 2664POPC   GL235090   8.039  21.255   9.067
 2664POPC   C1A35091   8.145  21.623   8.711
 2664POPC   D2A35092   7.980  21.540   8.315
 2664POPC   C3A35093   8.155  21.614   7.955
 2664POPC   C4A35094   8.176  21.436   7.566
 2664POPC   C1B35095   8.141  21.071   8.677
 2664POPC   C2B35096   8.340  21.139   8.304
 2664POPC   C3B35097   8.152  21.085   7.937
 2664POPC   C4B35098   7.946  20.876   7.623
 2665POPC   NC335099   9.888  32.707   9.580
 2665POPC   PO435100  10.439  33.139   9.621
 2665POPC   GL135101  10.601  33.102   9.156
 2665POPC   GL235102  10.361  33.233   8.940
 2665POPC   C1A35103  10.712  32.949   8.717
 2665POPC   D2A35104  10.728  32.927   8.246
 2665POPC   C3A35105  10.526  33.199   7.920
 2665POPC   C4A35106  10.142  33.068   7.732
 2665POPC   C1B35107  10.393  33.322   8.474
 2665POPC   C2B35108  10.060  33.370   8.148
 2665POPC   C3B35109  10.060  33.563   7.747
 2665POPC   C4B35110  10.189  33.775   7.399
 2666POPC   NC335111   6.417  31.153   9.451
 2666POPC   PO435112   7.172  31.391   9.471
 2666POPC   GL135113   6.830  31.358   9.177
 2666POPC   GL235114   6.545  31.589   9.208
 2666POPC   C1A35115   6.664  31.207   8.787
 2666POPC   D2A35116   6.742  31.453   8.402
 2666POPC   C3A35117   6.920  31.354   8.022
 2666POPC   C4A35118   6.700  31.190   7.687
 2666POPC   C1B35119   6.624  31.723   8.807
 2666POPC   C2B35120   6.370  31.797   8.384
 2666POPC   C3B35121   6.513  31.647   7.955
 2666POPC   C4B35122   6.303  31.501   7.583
 2667POPC   NC335123   4.883   3.030   9.439
 2667POPC   PO435124   5.308   2.525   9.521
 2667POPC   GL135125   5.186   2.675   9.157
 2667POPC   GL235126   4.951   2.404   9.046
 2667POPC   C1A35127   5.385   2.724   8.748
 2667POPC   D2A35128   5.292   2.437   8.440
 2667POPC   C3A35129   5.304   2.564   8.023
 2667POPC   C4A35130   5.117   2.942   7.883
 2667POPC   C1B35131   4.879   2.754   8.772
 2667POPC   C2B35132   4.989   2.830   8.375
 2667POPC   C3B35133   4.796   2.558   8.098
 2667POPC   C4B35134   4.774   2.639   7.707
 2668POPC   NC335135  11.537  21.640   9.379
 2668POPC   PO435136  10.987  21.308   9.582
 2668POPC   GL135137  11.192  21.274   9.163
 2668POPC   GL235138  11.172  21.605   9.029
 2668POPC   C1A35139  11.390  21.189   8.754
 2668POPC   D2A35140  11.239  21.370   8.398
 2668POPC   C3A35141  11.444  21.310   8.060
 2668POPC   C4A35142  11.292  21.630   7.793
 2668POPC   C1B35143  11.512  21.686   8.718
 2668POPC   C2B35144  11.747  21.795   8.341
 2668POPC   C3B35145  11.814  21.620   7.908
 2668POPC   C4B35146  11.702  21.798   7.499
 2669POPC   NC335147  16.106  30.906   9.448
 2669POPC   PO435148  15.566  30.567   9.403
 2669POPC   GL135149  15.850  30.577   9.059
 2669POPC   GL235150  16.201  30.651   9.024
 2669POPC   C1A35151  15.797  30.770   8.656
 2669POPC   D2A35152  15.758  31.032   8.261
 2669POPC   C3A35153  15.751  30.738   7.897
 2669POPC   C4A35154  16.065  30.423   7.899
 2669POPC   C1B35155  16.205  31.038   8.774
 2669POPC   C2B35156  16.229  30.837   8.360
 2669POPC   C3B35157  16.184  31.024   7.981
 2669POPC   C4B35158  16.155  31.316   7.670
 2670POPC   NC335159   0.868   9.355   9.406
 2670POPC   PO435160   0.270   9.816   9.502
 2670POPC   GL135161   0.395   9.805   9.085
 2670POPC   GL235162   0.623  10.052   9.000
 2670POPC   C1A35163   0.499   9.672   8.658
 2670POPC   D2A35164   0.703   9.666   8.260
 2670POPC   C3A35165   0.489   9.735   7.913
 2670POPC   C4A35166   0.650  10.009   7.616
 2670POPC   C1B35167   0.351  10.161   8.693
 2670POPC   C2B35168   0.342  10.065   8.275
 2670POPC   C3B35169   0.229  10.175   7.865
 2670POPC   C4B35170  44.853  10.169   7.613
 2671POPC   NC335171  42.260  34.922   9.393
 2671POPC   PO435172  42.022  35.592   9.544
 2671POPC   GL135173  42.238  35.414   9.216
 2671POPC   GL235174  41.926  35.374   9.084
 2671POPC   C1A35175  42.355  35.243   8.791
 2671POPC   D2A35176  42.696  35.154   8.477
 2671POPC   C3A35177  42.574  35.110   8.019
 2671POPC   C4A35178  42.486  35.469   7.784
 2671POPC   C1B35179  41.971  35.608   8.716
 2671POPC   C2B35180  42.207  35.589   8.346
 2671POPC   C3B35181  41.986  35.554   7.974
 2671POPC   C4B35182  42.073  35.167   7.785
 2672POPC   NC335183  29.093  12.308   9.677
 2672POPC   PO435184  29.507  11.850   9.391
 2672POPC   GL135185  29.106  12.017   9.194
 2672POPC   GL235186  28.998  12.346   9.161
 2672POPC   C1A35187  29.180  12.028   8.758
 2672POPC   D2A35188  29.470  12.057   8.418
 2672POPC   C3A35189  29.434  11.811   8.059
 2672POPC   C4A35190  29.290  11.987   7.662
 2672POPC   C1B35191  28.997  12.493   8.750
 2672POPC   C2B35192  28.955  12.270   8.351
 2672POPC   C3B35193  28.935  12.251   7.921
 2672POPC   C4B35194  28.899  12.414   7.504
 2673POPC   NC335195  43.329   3.789   9.503
 2673POPC   PO435196  43.004   3.133   9.545
 2673POPC   GL135197  43.027   3.427   9.199
 2673POPC   GL235198  43.370   3.399   9.166
 2673POPC   C1A35199  43.125   3.700   8.829
 2673POPC   D2A35200  43.370   3.629   8.463
 2673POPC   C3A35201  43.229   3.563   8.047
 2673POPC   C4A35202  43.342   3.855   7.748
 2673POPC   C1B35203  43.309   3.203   8.777
 2673POPC   C2B35204  43.223   3.140   8.373
 2673POPC   C3B35205  43.269   3.040   7.958
 2673POPC   C4B35206  43.299   3.174   7.558
 2674POPC   NC335207  35.096  23.952   9.400
 2674POPC   PO435208  35.455  23.473   9.799
 2674POPC   GL135209  35.408  23.525   9.292
 2674POPC   GL235210  35.125  23.411   9.083
 2674POPC   C1A35211  35.460  23.777   8.858
 2674POPC   D2A35212  35.741  23.765   8.464
 2674POPC   C3A35213  35.569  23.716   8.064
 2674POPC   C4A35214  35.322  23.817   7.716
 2674POPC   C1B35215  34.964  23.641   8.747
 2674POPC   C2B35216  34.782  23.794   8.392
 2674POPC   C3B35217  34.883  23.937   7.990
 2674POPC   C4B35218  34.811  23.655   7.655
 2675POPC   NC335219  17.343  28.391   9.400
 2675POPC   PO435220  17.868  28.698   9.712
 2675POPC   GL135221  17.874  28.563   9.235
 2675POPC   GL235222  17.800  28.204   9.137
 2675POPC   C1A35223  17.658  28.590   8.804
 2675POPC   D2A35224  17.374  28.434   8.470
 2675POPC   C3A35225  17.693  28.332   8.193
 2675POPC   C4A35226  17.737  28.672   7.902
 2675POPC   C1B35227  17.582  28.045   8.737
 2675POPC   C2B35228  17.367  27.823   8.370
 2675POPC   C3B35229  17.155  28.051   8.040
 2675POPC   C4B35230  17.395  28.338   7.787
 2676POPC   NC335231   2.811  14.448   9.525
 2676POPC   PO435232   3.234  14.019   9.200
 2676POPC   GL135233   2.813  14.237   9.043
 2676POPC   GL235234   2.476  14.167   9.217
 2676POPC   C1A35235   2.608  14.544   8.705
 2676POPC   D2A35236   2.461  14.516   8.256
 2676POPC   C3A35237   2.795  14.540   7.930
 2676POPC   C4A35238   3.065  14.843   7.718
 2676POPC   C1B35239   2.398  14.094   8.772
 2676POPC   C2B35240   2.696  14.096   8.434
 2676POPC   C3B35241   2.590  14.065   8.009
 2676POPC   C4B35242   2.707  14.144   7.589
 2677POPC   NC335243  23.562  39.833   9.372
 2677POPC   PO435244  23.786  40.449   9.281
 2677POPC   GL135245  23.513  40.213   9.038
 2677POPC   GL235246  23.810  39.990   8.954
 2677POPC   C1A35247  23.403  40.029   8.641
 2677POPC   D2A35248  23.513  40.279   8.276
 2677POPC   C3A35249  23.482  40.164   7.848
 2677POPC   C4A35250  23.447  39.740   7.703
 2677POPC   C1B35251  23.891  40.027   8.515
 2677POPC   C2B35252  23.695  39.810   8.165
 2677POPC   C3B35253  23.967  39.926   7.853
 2677POPC   C4B35254  24.160  40.352   7.847
 2678POPC   NC335255  34.064   9.951   9.434
 2678POPC   PO435256  33.387   9.913   9.594
 2678POPC   GL135257  33.604   9.706   9.257
 2678POPC   GL235258  33.744   9.355   9.273
 2678POPC   C1A35259  33.667   9.762   8.817
 2678POPC   D2A35260  33.520   9.590   8.427
 2678POPC   C3A35261  33.448   9.889   8.070
 2678POPC   C4A35262  33.722   9.982   7.676
 2678POPC   C1B35263  33.815   9.243   8.823
 2678POPC   C2B35264  34.011   9.441   8.448
 2678POPC   C3B35265  33.918   9.681   8.096
 2678POPC   C4B35266  33.968   9.508   7.724
 2679POPC   NC335267  39.841  14.309   9.865
 2679POPC   PO435268  40.305  14.712   9.517
 2679POPC   GL135269  40.124  14.410   9.222
 2679POPC   GL235270  39.812  14.383   9.320
 2679POPC   C1A35271  40.148  14.493   8.779
 2679POPC   D2A35272  40.319  14.334   8.381
 2679POPC   C3A35273  40.262  14.493   7.986
 2679POPC   C4A35274  40.323  14.376   7.555
 2679POPC   C1B35275  39.665  14.318   8.892
 2679POPC   C2B35276  39.715  14.540   8.503
 2679POPC   C3B35277  39.766  14.505   8.092
 2679POPC   C4B35278  39.852  14.563   7.674
 2680POPC   NC335279  35.165  29.992   9.651
 2680POPC   PO435280  34.486  30.282   9.532
 2680POPC   GL135281  34.702  30.041   9.191
 2680POPC   GL235282  34.390  29.829   9.092
 2680POPC   C1A35283  34.796  29.919   8.744
 2680POPC   D2A35284  34.970  29.729   8.360
 2680POPC   C3A35285  34.783  29.748   7.928
 2680POPC   C4A35286  34.797  29.911   7.495
 2680POPC   C1B35287  34.318  30.069   8.709
 2680POPC   C2B35288  34.525  30.021   8.303
 2680POPC   C3B35289  34.541  30.206   7.889
 2680POPC   C4B35290  34.310  30.078   7.512
 2681POPC   NC335291  27.485  28.605   9.730
 2681POPC   PO435292  27.805  28.130   9.639
 2681POPC   GL135293  27.717  28.436   9.299
 2681POPC   GL235294  27.340  28.458   9.260
 2681POPC   C1A35295  27.837  28.546   8.865
 2681POPC   D2A35296  27.885  28.304   8.475
 2681POPC   C3A35297  27.693  28.423   8.106
 2681POPC   C4A35298  27.818  28.687   7.813
 2681POPC   C1B35299  27.287  28.614   8.855
 2681POPC   C2B35300  27.315  28.588   8.415
 2681POPC   C3B35301  27.284  28.714   7.958
 2681POPC   C4B35302  27.361  28.545   7.516
 2682POPC   NC335303   7.782  41.383   9.455
 2682POPC   PO435304   8.272  41.768   9.498
 2682POPC   GL135305   8.114  41.596   9.110
 2682POPC   GL235306   7.808  41.786   9.120
 2682POPC   C1A35307   8.141  41.315   8.736
 2682POPC   D2A35308   8.386  41.174   8.384
 2682POPC   C3A35309   8.304  41.338   7.970
 2682POPC   C4A35310   7.873  41.366   7.830
 2682POPC   C1B35311   7.849  41.726   8.678
 2682POPC   C2B35312   7.625  41.714   8.279
 2682POPC   C3B35313   7.817  41.875   7.930
 2682POPC   C4B35314   8.238  41.826   7.821
 2683POPC   NC335315   1.159  25.773   9.172
 2683POPC   PO435316   1.132  25.247   9.588
 2683POPC   GL135317   1.227  25.253   9.128
 2683POPC   GL235318   1.269  24.949   8.946
 2683POPC   C1A35319   1.417  25.371   8.703
 2683POPC   D2A35320   1.309  25.257   8.301
 2683POPC   C3A35321   1.331  25.540   7.949
 2683POPC   C4A35322   0.956  25.631   7.739
 2683POPC   C1B35323   0.936  25.091   8.670
 2683POPC   C2B35324   0.858  25.042   8.236
 2683POPC   C3B35325   1.062  25.111   7.858
 2683POPC   C4B35326   1.060  24.908   7.483
 2684POPC   NC335327   0.440  39.853   9.588
 2684POPC   PO435328  44.846  40.238   9.557
 2684POPC   GL135329   0.054  40.274   9.141
 2684POPC   GL235330   0.395  40.081   9.122
 2684POPC   C1A35331   0.098  40.117   8.703
 2684POPC   D2A35332   0.318  39.904   8.392
 2684POPC   C3A35333   0.239  39.982   7.956
 2684POPC   C4A35334   0.485  39.806   7.614
 2684POPC   C1B35335   0.644  40.166   8.741
 2684POPC   C2B35336   0.586  40.355   8.312
 2684POPC   C3B35337   0.688  40.230   7.871
 2684POPC   C4B35338   0.750  40.253   7.390
 2685POPC   NC335339  18.729  15.324   9.470
 2685POPC   PO435340  19.408  15.214   9.484
 2685POPC   GL135341  19.141  15.272   9.137
 2685POPC   GL235342  18.871  15.007   9.091
 2685POPC   C1A35343  18.983  15.433   8.764
 2685POPC   D2A35344  19.109  15.254   8.381
 2685POPC   C3A35345  18.991  15.482   8.015
 2685POPC   C4A35346  19.074  15.320   7.603
 2685POPC   C1B35347  18.622  15.055   8.718
 2685POPC   C2B35348  18.614  15.289   8.325
 2685POPC   C3B35349  18.788  15.028   7.975
 2685POPC   C4B35350  18.579  14.683   7.838
 2686POPC   NC335351  12.355  13.929   9.606
 2686POPC   PO435352  11.753  14.414   9.408
 2686POPC   GL135353  11.899  14.695   9.118
 2686POPC   GL235354  12.266  14.728   9.053
 2686POPC   C1A35355  11.798  14.539   8.733
 2686POPC   D2A35356  11.941  14.265   8.420
 2686POPC   C3A35357  11.947  14.404   7.996
 2686POPC   C4A35358  12.035  14.727   7.673
 2686POPC   C1B35359  12.336  14.515   8.663
 2686POPC   C2B35360  12.439  14.357   8.248
 2686POPC   C3B35361  12.431  14.496   7.844
 2686POPC   C4B35362  12.244  14.299   7.452
 2687POPC   NC335363  10.932  11.667   9.404
 2687POPC   PO435364  11.367  11.183   9.655
 2687POPC   GL135365  11.461  11.140   9.221
 2687POPC   GL235366  11.130  11.232   9.177
 2687POPC   C1A35367  11.592  11.096   8.785
 2687POPC   D2A35368  11.775  10.944   8.401
 2687POPC   C3A35369  11.600  11.167   8.063
 2687POPC   C4A35370  11.401  11.083   7.696
 2687POPC   C1B35371  11.068  11.225   8.745
 2687POPC   C2B35372  11.263  11.401   8.373
 2687POPC   C3B35373  11.140  11.437   7.927
 2687POPC   C4B35374  10.924  11.252   7.582
 2688POPC   NC335375  38.317  15.394   9.535
 2688POPC   PO435376  38.792  14.886   9.663
 2688POPC   GL135377  38.698  15.146   9.256
 2688POPC   GL235378  38.347  15.147   9.089
 2688POPC   C1A35379  38.738  15.350   8.824
 2688POPC   D2A35380  38.562  15.203   8.461
 2688POPC   C3A35381  38.584  15.301   8.057
 2688POPC   C4A35382  38.820  15.510   7.749
 2688POPC   C1B35383  38.303  14.874   8.727
 2688POPC   C2B35384  38.205  14.896   8.246
 2688POPC   C3B35385  38.103  15.154   7.847
 2688POPC   C4B35386  38.070  15.003   7.407
 2689POPC   NC335387  10.122  37.776   9.840
 2689POPC   PO435388   9.772  37.202   9.702
 2689POPC   GL135389   9.975  37.428   9.286
 2689POPC   GL235390   9.949  37.809   9.145
 2689POPC   C1A35391  10.018  37.451   8.790
 2689POPC   D2A35392   9.697  37.597   8.459
 2689POPC   C3A35393   9.573  37.365   8.065
 2689POPC   C4A35394   9.964  37.260   7.830
 2689POPC   C1B35395   9.883  38.099   8.752
 2689POPC   C2B35396   9.715  38.073   8.287
 2689POPC   C3B35397   9.863  37.794   7.929
 2689POPC   C4B35398   9.974  37.968   7.524
 2690POPC   NC335399  40.388   4.151   9.307
 2690POPC   PO435400  40.796   4.536   9.664
 2690POPC   GL135401  40.718   4.516   9.161
 2690POPC   GL235402  40.952   4.295   9.003
 2690POPC   C1A35403  40.550   4.301   8.704
 2690POPC   D2A35404  40.685   4.088   8.305
 2690POPC   C3A35405  40.620   4.268   7.881
 2690POPC   C4A35406  40.972   4.501   7.656
 2690POPC   C1B35407  40.982   3.918   8.721
 2690POPC   C2B35408  41.153   3.840   8.332
 2690POPC   C3B35409  41.077   4.015   7.928
 2690POPC   C4B35410  41.311   3.963   7.572
 2691POPC   NC335411  36.750  38.133   9.395
 2691POPC   PO435412  37.165  38.767   9.482
 2691POPC   GL135413  36.997  38.512   9.170
 2691POPC   GL235414  36.642  38.601   9.170
 2691POPC   C1A35415  36.869  38.388   8.756
 2691POPC   D2A35416  36.627  38.380   8.387
 2691POPC   C3A35417  36.906  38.374   8.088
 2691POPC   C4A35418  37.015  38.511   7.707
 2691POPC   C1B35419  36.424  38.693   8.786
 2691POPC   C2B35420  36.522  38.880   8.413
 2691POPC   C3B35421  36.498  38.698   8.023
 2691POPC   C4B35422  36.499  38.627   7.616
 2692POPC   NC335423  11.042  42.946   9.555
 2692POPC   PO435424  10.391  42.844   9.392
 2692POPC   GL135425  10.571  43.124   9.139
 2692POPC   GL235426  10.834  42.951   9.071
 2692POPC   C1A35427  10.498  43.338   8.767
 2692POPC   D2A35428  10.653  43.581   8.435
 2692POPC   C3A35429  10.524  43.495   8.029
 2692POPC   C4A35430  10.875  43.549   7.787
 2692POPC   C1B35431  10.770  42.861   8.654
 2692POPC   C2B35432  10.511  43.015   8.341
 2692POPC   C3B35433  10.341  42.946   7.963
 2692POPC   C4B35434  10.642  43.078   7.644
 2693POPC   NC335435  13.015  19.948   9.510
 2693POPC   PO435436  12.501  19.413   9.479
 2693POPC   GL135437  12.603  19.479   9.042
 2693POPC   GL235438  12.896  19.686   9.092
 2693POPC   C1A35439  12.595  19.785   8.667
 2693POPC   D2A35440  12.767  20.023   8.314
 2693POPC   C3A35441  12.684  19.855   7.891
 2693POPC   C4A35442  12.653  20.132   7.547
 2693POPC   C1B35443  13.050  19.949   8.756
 2693POPC   C2B35444  13.213  19.775   8.384
 2693POPC   C3B35445  13.170  19.826   7.984
 2693POPC   C4B35446  13.149  19.660   7.569
 2694POPC   NC335447  24.263  33.930   9.592
 2694POPC   PO435448  24.822  33.566   9.556
 2694POPC   GL135449  24.628  33.635   9.158
 2694POPC   GL235450  24.283  33.508   9.121
 2694POPC   C1A35451  24.495  33.817   8.749
 2694POPC   D2A35452  24.695  33.922   8.359
 2694POPC   C3A35453  24.422  33.950   8.005
 2694POPC   C4A35454  24.595  34.015   7.591
 2694POPC   C1B35455  24.550  33.303   8.780
 2694POPC   C2B35456  24.681  33.392   8.373
 2694POPC   C3B35457  24.742  33.568   7.962
 2694POPC   C4B35458  24.493  33.504   7.627
 2695POPC   NC335459  11.574   4.923   9.369
 2695POPC   PO435460  11.034   4.746   9.651
 2695POPC   GL135461  11.066   4.940   9.254
 2695POPC   GL235462  11.190   5.267   9.226
 2695POPC   C1A35463  11.164   4.909   8.823
 2695POPC   D2A35464  11.213   5.134   8.422
 2695POPC   C3A35465  11.349   4.921   8.031
 2695POPC   C4A35466  11.049   4.861   7.698
 2695POPC   C1B35467  11.276   5.452   8.829
 2695POPC   C2B35468  11.539   5.536   8.485
 2695POPC   C3B35469  11.491   5.425   8.080
 2695POPC   C4B35470  11.255   5.358   7.720
 2696POPC   NC335471  34.887  32.064   9.437
 2696POPC   PO435472  34.533  32.455   9.832
 2696POPC   GL135473  34.585  32.420   9.236
 2696POPC   GL235474  34.665  32.073   9.002
 2696POPC   C1A35475  34.539  32.423   8.706
 2696POPC   D2A35476  34.707  32.346   8.292
 2696POPC   C3A35477  34.432  32.083   8.017
 2696POPC   C4A35478  34.213  32.298   7.715
 2696POPC   C1B35479  35.025  32.148   8.689
 2696POPC   C2B35480  35.184  32.007   8.285
 2696POPC   C3B35481  34.950  32.066   7.917
 2696POPC   C4B35482  34.720  32.429   7.771
 2697POPC   NC335483  34.830  33.062   9.506
 2697POPC   PO435484  35.406  32.662   9.531
 2697POPC   GL135485  35.403  32.874   9.119
 2697POPC   GL235486  35.239  33.196   9.210
 2697POPC   C1A35487  35.521  33.038   8.724
 2697POPC   D2A35488  35.294  33.033   8.329
 2697POPC   C3A35489  35.533  33.076   7.975
 2697POPC   C4A35490  35.600  32.658   7.880
 2697POPC   C1B35491  35.024  33.163   8.827
 2697POPC   C2B35492  34.957  33.384   8.466
 2697POPC   C3B35493  34.852  33.233   8.076
 2697POPC   C4B35494  35.041  32.906   7.842
 2698POPC   NC335495  43.367  36.505   9.330
 2698POPC   PO435496  42.856  36.133   9.563
 2698POPC   GL135497  43.054  36.124   9.166
 2698POPC   GL235498  42.733  36.210   9.038
 2698POPC   C1A35499  43.182  36.175   8.721
 2698POPC   D2A35500  43.408  36.216   8.312
 2698POPC   C3A35501  43.303  36.038   7.893
 2698POPC   C4A35502  43.013  35.710   7.826
 2698POPC   C1B35503  42.661  36.532   8.717
 2698POPC   C2B35504  42.935  36.620   8.381
 2698POPC   C3B35505  42.775  36.712   7.986
 2698POPC   C4B35506  42.839  36.387   7.724
 2699POPC   NC335507  28.706   1.764   9.471
 2699POPC   PO435508  28.053   1.788   9.372
 2699POPC   GL135509  28.391   1.880   9.084
 2699POPC   GL235510  28.551   2.238   9.094
 2699POPC   C1A35511  28.440   1.970   8.664
 2699POPC   D2A35512  28.482   2.017   8.273
 2699POPC   C3A35513  28.290   1.726   8.057
 2699POPC   C4A35514  28.411   1.689   7.655
 2699POPC   C1B35515  28.250   2.425   8.749
 2699POPC   C2B35516  28.107   2.341   8.324
 2699POPC   C3B35517  28.248   2.216   7.867
 2699POPC   C4B35518  28.203   2.101   7.419
 2700POPC   NC335519  19.735  22.544   9.387
 2700POPC   PO435520  20.239  22.063   9.502
 2700POPC   GL135521  19.980  22.148   9.165
 2700POPC   GL235522  19.645  22.038   9.270
 2700POPC   C1A35523  20.032  22.233   8.737
 2700POPC   D2A35524  20.088  22.407   8.351
 2700POPC   C3A35525  19.928  22.146   8.045
 2700POPC   C4A35526  19.937  22.362   7.645
 2700POPC   C1B35527  19.531  22.114   8.838
 2700POPC   C2B35528  19.542  21.895   8.430
 2700POPC   C3B35529  19.380  22.028   8.018
 2700POPC   C4B35530  19.438  21.841   7.609
 2701POPC   NC335531  43.716   0.312   9.619
 2701POPC   PO435532  44.054   0.917   9.619
 2701POPC   GL135533  43.893   0.551   9.215
 2701POPC   GL235534  43.720   0.216   9.119
 2701POPC   C1A35535  44.081   0.379   8.787
 2701POPC   D2A35536  43.939   0.551   8.378
 2701POPC   C3A35537  44.042   0.485   7.937
 2701POPC   C4A35538  43.756   0.644   7.633
 2701POPC   C1B35539  43.556   0.509   8.799
 2701POPC   C2B35540  43.412   0.538   8.370
 2701POPC   C3B35541  43.586   0.299   8.038
 2701POPC   C4B35542  43.615  44.965   7.767
 2702POPC   NC335543  19.244   8.647   9.601
 2702POPC   PO435544  18.997   9.264   9.395
 2702POPC   GL135545  19.267   8.955   9.191
 2702POPC   GL235546  19.007   8.678   9.146
 2702POPC   C1A35547  19.232   8.938   8.757
 2702POPC   D2A35548  19.211   9.232   8.420
 2702POPC   C3A35549  19.252   9.016   8.066
 2702POPC   C4A35550  19.349   8.865   7.695
 2702POPC   C1B35551  18.725   8.727   8.789
 2702POPC   C2B35552  18.850   8.840   8.394
 2702POPC   C3B35553  18.737   9.065   8.056
 2702POPC   C4B35554  18.867   8.982   7.681
 2703POPC   NC335555  39.849  38.695   9.434
 2703POPC   PO435556  40.410  38.299   9.425
 2703POPC   GL135557  40.167  38.441   9.139
 2703POPC   GL235558  39.921  38.170   9.223
 2703POPC   C1A35559  40.140  38.616   8.739
 2703POPC   D2A35560  39.914  38.665   8.354
 2703POPC   C3A35561  40.169  38.628   7.965
 2703POPC   C4A35562  39.913  38.687   7.633
 2703POPC   C1B35563  39.798  38.204   8.798
 2703POPC   C2B35564  39.691  38.117   8.369
 2703POPC   C3B35565  39.794  38.301   8.009
 2703POPC   C4B35566  39.879  38.171   7.617
 2704POPC   NC335567  19.452  37.262   9.494
 2704POPC   PO435568  20.142  37.088   9.469
 2704POPC   GL135569  20.030  37.168   9.055
 2704POPC   GL235570  19.716  37.099   9.077
 2704POPC   C1A35571  19.914  37.093   8.604
 2704POPC   D2A35572  20.085  36.742   8.383
 2704POPC   C3A35573  19.966  36.753   7.969
 2704POPC   C4A35574  19.907  36.529   7.630
 2704POPC   C1B35575  19.535  36.783   8.767
 2704POPC   C2B35576  19.250  36.774   8.408
 2704POPC   C3B35577  19.437  37.004   8.063
 2704POPC   C4B35578  19.531  36.902   7.625
 2705POPC   NC335579  13.293  43.237   9.527
 2705POPC   PO435580  13.662  42.749   9.740
 2705POPC   GL135581  13.588  42.928   9.273
 2705POPC   GL235582  13.244  42.835   9.209
 2705POPC   C1A35583  13.791  43.183   8.876
 2705POPC   D2A35584  13.943  43.032   8.466
 2705POPC   C3A35585  13.649  43.092   8.126
 2705POPC   C4A35586  13.696  43.282   7.741
 2705POPC   C1B35587  13.284  43.127   8.851
 2705POPC   C2B35588  13.309  43.371   8.458
 2705POPC   C3B35589  13.277  43.482   8.038
 2705POPC   C4B35590  13.215  43.149   7.728
 2706POPC   NC335591  36.702   0.280   9.219
 2706POPC   PO435592  36.998   0.843   9.497
 2706POPC   GL135593  37.085   0.654   9.111
 2706POPC   GL235594  36.757   0.755   9.043
 2706POPC   C1A35595  36.996   0.446   8.687
 2706POPC   D2A35596  36.821   0.375   8.294
 2706POPC   C3A35597  37.125   0.215   8.016
 2706POPC   C4A35598  37.228   0.273   7.573
 2706POPC   C1B35599  36.504   0.646   8.693
 2706POPC   C2B35600  36.371   0.717   8.301
 2706POPC   C3B35601  36.717   0.829   8.096
 2706POPC   C4B35602  36.908   0.614   7.813
 2707POPC   NC335603   9.521   4.822   9.493
 2707POPC   PO435604  10.124   5.142   9.525
 2707POPC   GL135605   9.959   5.038   9.127
 2707POPC   GL235606   9.639   5.159   9.104
 2707POPC   C1A35607   9.898   4.967   8.682
 2707POPC   D2A35608   9.756   4.966   8.268
 2707POPC   C3A35609   9.967   4.970   7.878
 2707POPC   C4A35610  10.063   4.714   7.487
 2707POPC   C1B35611   9.741   5.441   8.737
 2707POPC   C2B35612   9.937   5.450   8.328
 2707POPC   C3B35613   9.691   5.395   7.948
 2707POPC   C4B35614   9.407   5.444   7.606
 2708POPC   NC335615  10.872  37.346   9.334
 2708POPC   PO435616  10.544  37.859   9.653
 2708POPC   GL135617  10.446  37.722   9.230
 2708POPC   GL235618  10.444  37.447   9.093
 2708POPC   C1A35619  10.361  37.853   8.795
 2708POPC   D2A35620  10.164  37.859   8.392
 2708POPC   C3A35621  10.397  37.872   8.027
 2708POPC   C4A35622  10.340  37.611   7.701
 2708POPC   C1B35623  10.634  37.376   8.690
 2708POPC   C2B35624  10.631  37.463   8.253
 2708POPC   C3B35625  10.771  37.293   7.862
 2708POPC   C4B35626  10.806  37.385   7.438
 2709POPC   NC335627  30.171  41.897   9.493
 2709POPC   PO435628  30.307  41.205   9.443
 2709POPC   GL135629  30.016  41.429   9.144
 2709POPC   GL235630  29.948  41.766   9.004
 2709POPC   C1A35631  29.754  41.308   8.798
 2709POPC   D2A35632  29.716  41.220   8.354
 2709POPC   C3A35633  29.984  41.466   8.002
 2709POPC   C4A35634  30.278  41.327   7.648
 2709POPC   C1B35635  29.612  41.786   8.670
 2709POPC   C2B35636  29.575  41.728   8.216
 2709POPC   C3B35637  29.557  41.849   7.790
 2709POPC   C4B35638  29.808  42.084   7.466
 2710POPC   NC335639  34.376   5.773   9.357
 2710POPC   PO435640  35.037   5.583   9.407
 2710POPC   GL135641  34.783   5.765   9.072
 2710POPC   GL235642  34.677   6.114   9.175
 2710POPC   C1A35643  34.502   5.647   8.711
 2710POPC   D2A35644  34.431   5.632   8.269
 2710POPC   C3A35645  34.759   5.868   8.045
 2710POPC   C4A35646  34.591   5.676   7.645
 2710POPC   C1B35647  34.390   6.176   8.824
 2710POPC   C2B35648  34.459   6.123   8.396
 2710POPC   C3B35649  34.323   6.099   7.954
 2710POPC   C4B35650  34.701   6.166   7.662
 2711POPC   NC335651  14.461   1.589   9.243
 2711POPC   PO435652  14.025   1.121   9.495
 2711POPC   GL135653  14.309   1.061   9.105
 2711POPC   GL235654  14.672   0.958   9.017
 2711POPC   C1A35655  14.401   1.230   8.668
 2711POPC   D2A35656  14.228   1.075   8.265
 2711POPC   C3A35657  14.372   1.324   7.930
 2711POPC   C4A35658  14.200   1.386   7.513
 2711POPC   C1B35659  14.932   1.211   8.733
 2711POPC   C2B35660  14.938   1.443   8.332
 2711POPC   C3B35661  14.886   1.418   7.881
 2711POPC   C4B35662  14.664   1.212   7.515
 2712POPC   NC335663  41.369  39.047   9.519
 2712POPC   PO435664  42.000  39.233   9.464
 2712POPC   GL135665  41.673  39.211   9.146
 2712POPC   GL235666  41.397  39.466   9.207
 2712POPC   C1A35667  41.686  39.019   8.748
 2712POPC   D2A35668  41.878  39.217   8.390
 2712POPC   C3A35669  41.655  39.400   8.034
 2712POPC   C4A35670  41.773  39.108   7.701
 2712POPC   C1B35671  41.419  39.484   8.755
 2712POPC   C2B35672  41.326  39.193   8.420
 2712POPC   C3B35673  41.188  39.181   8.004
 2712POPC   C4B35674  41.287  39.373   7.629
 2713POPC   NC335675  40.641  19.877   9.373
 2713POPC   PO435676  41.123  19.738   9.800
 2713POPC   GL135677  41.147  19.847   9.314
 2713POPC   GL235678  40.991  19.612   9.056
 2713POPC   C1A35679  41.088  20.053   8.869
 2713POPC   D2A35680  41.141  19.869   8.460
 2713POPC   C3A35681  40.910  19.997   8.086
 2713POPC   C4A35682  40.789  19.781   7.714
 2713POPC   C1B35683  40.691  19.755   8.719
 2713POPC   C2B35684  40.596  19.643   8.303
 2713POPC   C3B35685  40.381  19.623   7.951
 2713POPC   C4B35686  40.326  19.494   7.552
 2714POPC   NC335687  15.330  34.814   9.760
 2714POPC   PO435688  15.562  35.341   9.453
 2714POPC   GL135689  15.310  35.492   9.146
 2714POPC   GL235690  15.122  35.202   9.160
 2714POPC   C1A35691  15.128  35.640   8.780
 2714POPC   D2A35692  15.352  35.448   8.456
 2714POPC   C3A35693  15.443  35.592   8.049
 2714POPC   C4A35694  15.249  35.404   7.706
 2714POPC   C1B35695  15.021  35.108   8.740
 2714POPC   C2B35696  14.883  34.838   8.402
 2714POPC   C3B35697  14.693  34.880   7.990
 2714POPC   C4B35698  14.763  35.269   7.787
 2715POPC   NC335699  28.700  18.948   9.400
 2715POPC   PO435700  28.031  18.978   9.469
 2715POPC   GL135701  28.288  19.051   9.131
 2715POPC   GL235702  28.315  19.406   9.093
 2715POPC   C1A35703  28.240  18.870   8.744
 2715POPC   D2A35704  28.356  18.995   8.354
 2715POPC   C3A35705  28.129  19.064   8.011
 2715POPC   C4A35706  28.306  18.993   7.659
 2715POPC   C1B35707  28.658  19.287   8.811
 2715POPC   C2B35708  28.797  19.265   8.393
 2715POPC   C3B35709  28.594  19.302   7.980
 2715POPC   C4B35710  28.701  19.295   7.511
 2716POPC   NC335711  35.248  15.721   9.699
 2716POPC   PO435712  35.040  16.337   9.601
 2716POPC   GL135713  35.272  16.066   9.314
 2716POPC   GL235714  34.987  16.111   9.132
 2716POPC   C1A35715  35.381  15.975   8.858
 2716POPC   D2A35716  35.594  15.999   8.466
 2716POPC   C3A35717  35.379  15.927   8.092
 2716POPC   C4A35718  35.578  15.911   7.704
 2716POPC   C1B35719  34.970  16.404   8.829
 2716POPC   C2B35720  35.111  16.244   8.463
 2716POPC   C3B35721  35.053  16.352   8.063
 2716POPC   C4B35722  35.133  16.163   7.690
 2717POPC   NC335723  26.423   6.993   9.396
 2717POPC   PO435724  26.001   6.447   9.469
 2717POPC   GL135725  26.245   6.460   9.140
 2717POPC   GL235726  26.093   6.777   9.069
 2717POPC   C1A35727  26.163   6.435   8.709
 2717POPC   D2A35728  26.296   6.667   8.338
 2717POPC   C3A35729  26.157   6.507   7.951
 2717POPC   C4A35730  25.798   6.476   7.668
 2717POPC   C1B35731  25.853   6.828   8.684
 2717POPC   C2B35732  25.778   6.726   8.246
 2717POPC   C3B35733  25.871   6.950   7.849
 2717POPC   C4B35734  25.906   7.004   7.384
 2718POPC   NC335735  17.271  31.517   9.574
 2718POPC   PO435736  17.810  31.837   9.464
 2718POPC   GL135737  17.513  31.697   9.172
 2718POPC   GL235738  17.131  31.847   9.226
 2718POPC   C1A35739  17.608  31.518   8.789
 2718POPC   D2A35740  17.643  31.252   8.456
 2718POPC   C3A35741  17.491  31.456   8.118
 2718POPC   C4A35742  17.567  31.422   7.715
 2718POPC   C1B35743  17.097  31.566   8.887
 2718POPC   C2B35744  17.133  31.599   8.452
 2718POPC   C3B35745  17.025  31.638   8.014
 2718POPC   C4B35746  17.011  31.979   7.718
 2719POPC   NC335747  32.620  13.342   9.488
 2719POPC   PO435748  33.152  13.771   9.495
 2719POPC   GL135749  32.986  13.548   9.114
 2719POPC   GL235750  32.661  13.665   9.092
 2719POPC   C1A35751  32.882  13.565   8.645
 2719POPC   D2A35752  33.169  13.659   8.317
 2719POPC   C3A35753  33.018  13.711   7.926
 2719POPC   C4A35754  32.966  13.484   7.578
 2719POPC   C1B35755  32.600  13.980   8.762
 2719POPC   C2B35756  32.793  14.007   8.349
 2719POPC   C3B35757  32.695  14.093   7.933
 2719POPC   C4B35758  32.805  13.948   7.503
 2720POPC   NC335759  24.681   4.037   9.408
 2720POPC   PO435760  24.230   4.530   9.505
 2720POPC   GL135761  24.472   4.407   9.114
 2720POPC   GL235762  24.543   4.035   8.928
 2720POPC   C1A35763  24.410   4.429   8.676
 2720POPC   D2A35764  24.747   4.308   8.396
 2720POPC   C3A35765  24.661   4.229   7.982
 2720POPC   C4A35766  24.305   4.405   7.809
 2720POPC   C1B35767  24.208   3.958   8.626
 2720POPC   C2B35768  24.215   4.033   8.166
 2720POPC   C3B35769  24.354   3.907   7.703
 2720POPC   C4B35770  24.233   3.933   7.268
 2721POPC   NC335771   3.769   4.429   9.410
 2721POPC   PO435772   3.130   4.738   9.494
 2721POPC   GL135773   3.385   4.677   9.141
 2721POPC   GL235774   3.474   4.333   9.005
 2721POPC   C1A35775   3.233   4.646   8.716
 2721POPC   D2A35776   3.437   4.396   8.395
 2721POPC   C3A35777   3.545   4.536   8.007
 2721POPC   C4A35778   3.312   4.627   7.667
 2721POPC   C1B35779   3.512   4.006   8.700
 2721POPC   C2B35780   3.520   3.828   8.338
 2721POPC   C3B35781   3.491   4.022   7.949
 2721POPC   C4B35782   3.691   4.211   7.616
 2722POPC   NC335783  39.265  19.835   9.789
 2722POPC   PO435784  39.276  19.459   9.280
 2722POPC   GL135785  39.253  19.774   9.075
 2722POPC   GL235786  39.340  20.052   9.292
 2722POPC   C1A35787  39.077  19.764   8.677
 2722POPC   D2A35788  39.200  19.818   8.279
 2722POPC   C3A35789  38.943  19.612   7.974
 2722POPC   C4A35790  39.162  19.600   7.568
 2722POPC   C1B35791  39.282  20.220   8.857
 2722POPC   C2B35792  39.215  20.350   8.424
 2722POPC   C3B35793  39.013  20.222   8.041
 2722POPC   C4B35794  38.897  20.012   7.668
 2723POPC   NC335795  31.741  27.538   9.456
 2723POPC   PO435796  31.185  27.566   9.338
 2723POPC   GL135797  31.504  27.396   9.022
 2723POPC   GL235798  31.810  27.586   8.949
 2723POPC   C1A35799  31.596  27.330   8.557
 2723POPC   D2A35800  31.333  27.444   8.186
 2723POPC   C3A35801  31.541  27.348   7.806
 2723POPC   C4A35802  31.854  27.604   7.645
 2723POPC   C1B35803  31.440  27.790   8.702
 2723POPC   C2B35804  31.531  27.927   8.270
 2723POPC   C3B35805  31.442  27.868   7.821
 2723POPC   C4B35806  31.251  28.026   7.428
 2724POPC   NC335807  15.525  17.499   9.529
 2724POPC   PO435808  14.859  17.346   9.480
 2724POPC   GL135809  15.063  17.461   9.131
 2724POPC   GL235810  15.324  17.679   9.085
 2724POPC   C1A35811  14.993  17.344   8.714
 2724POPC   D2A35812  15.242  17.279   8.336
 2724POPC   C3A35813  15.028  17.372   7.983
 2724POPC   C4A35814  14.950  17.351   7.567
 2724POPC   C1B35815  15.632  17.804   8.808
 2724POPC   C2B35816  15.729  17.650   8.403
 2724POPC   C3B35817  15.492  17.677   8.048
 2724POPC   C4B35818  15.444  17.502   7.666
 2725POPC   NC335819  31.803   5.508   9.595
 2725POPC   PO435820  31.360   6.074   9.507
 2725POPC   GL135821  31.509   5.972   9.122
 2725POPC   GL235822  31.339   5.672   9.088
 2725POPC   C1A35823  31.516   5.898   8.662
 2725POPC   D2A35824  31.785   5.783   8.316
 2725POPC   C3A35825  31.674   6.046   8.015
 2725POPC   C4A35826  31.706   5.906   7.596
 2725POPC   C1B35827  31.035   5.662   8.740
 2725POPC   C2B35828  30.976   5.600   8.291
 2725POPC   C3B35829  31.233   5.797   7.942
 2725POPC   C4B35830  31.371   5.536   7.584
 2726POPC   NC335831   6.262  21.365   9.501
 2726POPC   PO435832   6.849  21.486   9.621
 2726POPC   GL135833   6.679  21.268   9.150
 2726POPC   GL235834   6.392  21.127   9.041
 2726POPC   C1A35835   6.616  21.371   8.656
 2726POPC   D2A35836   6.403  21.495   8.265
 2726POPC   C3A35837   6.719  21.393   7.964
 2726POPC   C4A35838   6.901  21.570   7.550
 2726POPC   C1B35839   6.178  21.123   8.654
 2726POPC   C2B35840   6.352  20.986   8.263
 2726POPC   C3B35841   6.266  21.111   7.876
 2726POPC   C4B35842   6.128  21.035   7.442
 2727POPC   NC335843  36.486  31.108   9.513
 2727POPC   PO435844  36.214  30.387   9.443
 2727POPC   GL135845  36.361  30.717   9.195
 2727POPC   GL235846  36.117  30.998   9.157
 2727POPC   C1A35847  36.301  30.705   8.764
 2727POPC   D2A35848  36.034  30.559   8.469
 2727POPC   C3A35849  36.256  30.498   8.103
 2727POPC   C4A35850  36.120  30.499   7.704
 2727POPC   C1B35851  36.188  31.205   8.771
 2727POPC   C2B35852  36.225  31.068   8.355
 2727POPC   C3B35853  36.063  30.944   7.972
 2727POPC   C4B35854  36.270  31.007   7.588
 2728POPC   NC335855  35.197  38.030   9.656
 2728POPC   PO435856  35.480  37.417   9.462
 2728POPC   GL135857  35.269  37.419   9.051
 2728POPC   GL235858  35.212  37.793   8.973
 2728POPC   C1A35859  35.183  37.505   8.591
 2728POPC   D2A35860  35.165  37.881   8.333
 2728POPC   C3A35861  35.246  37.693   7.913
 2728POPC   C4A35862  35.002  37.304   7.795
 2728POPC   C1B35863  35.561  38.033   8.713
 2728POPC   C2B35864  35.672  38.185   8.289
 2728POPC   C3B35865  35.481  38.156   7.882
 2728POPC   C4B35866  35.436  37.927   7.472
 2729POPC   NC335867  33.635  12.257   9.515
 2729POPC   PO435868  33.652  12.905   9.479
 2729POPC   GL135869  33.713  12.669   9.134
 2729POPC   GL235870  33.420  12.446   9.078
 2729POPC   C1A35871  33.905  12.894   8.766
 2729POPC   D2A35872  33.860  13.170   8.443
 2729POPC   C3A35873  33.954  13.062   8.040
 2729POPC   C4A35874  33.587  12.977   7.835
 2729POPC   C1B35875  33.441  12.702   8.693
 2729POPC   C2B35876  33.650  12.715   8.311
 2729POPC   C3B35877  33.601  12.486   7.959
 2729POPC   C4B35878  33.368  12.491   7.603
 2730POPC   NC335879  12.769   0.808   9.183
 2730POPC   PO435880  12.720   0.249   9.517
 2730POPC   GL135881  12.919   0.305   9.155
 2730POPC   GL235882  13.184   0.534   9.163
 2730POPC   C1A35883  12.828   0.334   8.736
 2730POPC   D2A35884  13.005   0.154   8.399
 2730POPC   C3A35885  12.767   0.332   8.115
 2730POPC   C4A35886  12.824   0.416   7.740
 2730POPC   C1B35887  13.203   0.755   8.744
 2730POPC   C2B35888  13.031   0.729   8.362
 2730POPC   C3B35889  13.208   0.733   7.956
 2730POPC   C4B35890  13.146   0.794   7.522
 2731POPC   NC335891   2.374  18.271   9.794
 2731POPC   PO435892   2.913  18.038   9.714
 2731POPC   GL135893   2.598  18.198   9.316
 2731POPC   GL235894   2.435  17.931   9.118
 2731POPC   C1A35895   2.613  18.298   8.812
 2731POPC   D2A35896   2.860  18.507   8.452
 2731POPC   C3A35897   2.779  18.315   8.045
 2731POPC   C4A35898   2.820  17.913   7.850
 2731POPC   C1B35899   2.230  17.933   8.753
 2731POPC   C2B35900   2.498  17.938   8.397
 2731POPC   C3B35901   2.342  18.013   7.998
 2731POPC   C4B35902   2.390  18.048   7.560
 2732POPC   NC335903  42.403  17.750   9.415
 2732POPC   PO435904  41.887  17.438   9.782
 2732POPC   GL135905  42.081  17.387   9.296
 2732POPC   GL235906  42.076  17.705   9.038
 2732POPC   C1A35907  42.058  17.266   8.840
 2732POPC   D2A35908  42.323  17.184   8.473
 2732POPC   C3A35909  42.248  17.287   8.030
 2732POPC   C4A35910  42.477  17.226   7.654
 2732POPC   C1B35911  42.388  17.686   8.747
 2732POPC   C2B35912  42.378  17.714   8.348
 2732POPC   C3B35913  42.543  17.700   7.981
 2732POPC   C4B35914  42.249  17.693   7.692
 2733POPC   NC335915  21.199  11.079   9.436
 2733POPC   PO435916  21.439  10.443   9.523
 2733POPC   GL135917  21.399  10.575   9.157
 2733POPC   GL235918  21.172  10.309   9.082
 2733POPC   C1A35919  21.361  10.734   8.754
 2733POPC   D2A35920  21.158  10.548   8.476
 2733POPC   C3A35921  21.298  10.585   8.065
 2733POPC   C4A35922  21.095  10.612   7.678
 2733POPC   C1B35923  21.462  10.243   8.774
 2733POPC   C2B35924  21.589  10.255   8.358
 2733POPC   C3B35925  21.754  10.277   7.948
 2733POPC   C4B35926  21.668  10.643   7.701
 2734POPC   NC335927  40.873  38.318   9.484
 2734POPC   PO435928  41.075  38.924   9.183
 2734POPC   GL135929  40.733  38.582   9.055
 2734POPC   GL235930  40.724  38.164   9.021
 2734POPC   C1A35931  40.652  38.508   8.622
 2734POPC   D2A35932  40.606  38.425   8.187
 2734POPC   C3A35933  40.718  38.694   7.876
 2734POPC   C4A35934  41.090  38.799   7.682
 2734POPC   C1B35935  40.339  38.146   8.780
 2734POPC   C2B35936  40.184  38.209   8.392
 2734POPC   C3B35937  40.271  38.114   7.980
 2734POPC   C4B35938  40.572  38.213   7.704
 2735POPC   NC335939  26.226  27.045   9.492
 2735POPC   PO435940  26.185  26.427   9.657
 2735POPC   GL135941  26.161  26.619   9.222
 2735POPC   GL235942  25.839  26.823   9.234
 2735POPC   C1A35943  26.285  26.915   8.853
 2735POPC   D2A35944  26.375  26.766   8.424
 2735POPC   C3A35945  26.241  26.989   8.054
 2735POPC   C4A35946  26.001  26.703   7.822
 2735POPC   C1B35947  25.785  27.103   8.882
 2735POPC   C2B35948  25.932  27.089   8.465
 2735POPC   C3B35949  25.702  27.030   8.085
 2735POPC   C4B35950  25.724  27.137   7.661
 2736POPC   NC335951  17.918  11.184   9.435
 2736POPC   PO435952  17.256  11.380   9.375
 2736POPC   GL135953  17.540  11.312   9.108
 2736POPC   GL235954  17.570  10.945   9.136
 2736POPC   C1A35955  17.478  11.506   8.721
 2736POPC   D2A35956  17.686  11.455   8.384
 2736POPC   C3A35957  17.470  11.484   8.030
 2736POPC   C4A35958  17.535  11.193   7.728
 2736POPC   C1B35959  17.552  10.999   8.705
 2736POPC   C2B35960  17.274  11.127   8.361
 2736POPC   C3B35961  17.106  11.023   7.953
 2736POPC   C4B35962  17.220  10.866   7.537
 2737POPC   NC335963  28.874  33.132   9.409
 2737POPC   PO435964  29.417  32.801   9.461
 2737POPC   GL135965  29.257  32.971   9.115
 2737POPC   GL235966  29.314  33.311   9.181
 2737POPC   C1A35967  28.987  32.965   8.767
 2737POPC   D2A35968  28.827  32.740   8.438
 2737POPC   C3A35969  28.968  32.936   8.086
 2737POPC   C4A35970  28.954  32.946   7.652
 2737POPC   C1B35971  29.560  33.181   8.777
 2737POPC   C2B35972  29.435  33.132   8.370
 2737POPC   C3B35973  29.616  33.141   7.982
 2737POPC   C4B35974  29.439  33.068   7.564
 2738POPC   NC335975  35.145  34.009   9.442
 2738POPC   PO435976  35.523  33.504   9.555
 2738POPC   GL135977  35.666  33.729   9.198
 2738POPC   GL235978  35.721  33.366   9.098
 2738POPC   C1A35979  35.520  34.000   8.807
 2738POPC   D2A35980  35.198  33.951   8.464
 2738POPC   C3A35981  35.302  34.095   8.056
 2738POPC   C4A35982  35.307  33.900   7.666
 2738POPC   C1B35983  35.390  33.514   8.841
 2738POPC   C2B35984  35.450  33.507   8.449
 2738POPC   C3B35985  35.310  33.554   8.069
 2738POPC   C4B35986  35.092  33.455   7.709
 2739POPC   NC335987  18.182  31.596   9.555
 2739POPC   PO435988  17.619  31.165   9.451
 2739POPC   GL135989  17.970  31.356   9.146
 2739POPC   GL235990  18.382  31.387   9.149
 2739POPC   C1A35991  18.110  31.384   8.713
 2739POPC   D2A35992  18.036  31.665   8.435
 2739POPC   C3A35993  18.000  31.506   8.065
 2739POPC   C4A35994  18.065  31.575   7.663
 2739POPC   C1B35995  18.604  31.269   8.777
 2739POPC   C2B35996  18.504  31.311   8.342
 2739POPC   C3B35997  18.729  31.360   7.961
 2739POPC   C4B35998  18.638  31.335   7.537
 2740POPC   NC335999   1.185  34.704   9.533
 2740POPC   PO436000   1.459  34.243   9.146
 2740POPC   GL136001   1.090  34.526   9.066
 2740POPC   GL236002   0.997  34.886   9.084
 2740POPC   C1A36003   0.931  34.583   8.684
 2740POPC   D2A36004   1.277  34.454   8.425
 2740POPC   C3A36005   1.190  34.515   8.018
 2740POPC   C4A36006   1.350  34.675   7.680
 2740POPC   C1B36007   1.315  34.922   8.722
 2740POPC   C2B36008   1.515  34.902   8.279
 2740POPC   C3B36009   1.614  35.111   7.865
 2740POPC   C4B36010   1.582  35.045   7.383
 2741POPC   NC336011  29.827   3.003   9.481
 2741POPC   PO436012  29.961   2.340   9.477
 2741POPC   GL136013  29.890   2.618   9.126
 2741POPC   GL236014  30.122   2.903   9.085
 2741POPC   C1A36015  29.696   2.625   8.717
 2741POPC   D2A36016  29.533   2.730   8.304
 2741POPC   C3A36017  29.751   2.511   8.005
 2741POPC   C4A36018  29.724   2.460   7.564
 2741POPC   C1B36019  29.980   3.088   8.736
 2741POPC   C2B36020  29.983   2.966   8.316
 2741POPC   C3B36021  29.847   3.010   7.914
 2741POPC   C4B36022  30.191   3.064   7.680
 2742POPC   NC336023  35.927   3.532   9.663
 2742POPC   PO436024  36.540   3.760   9.553
 2742POPC   GL136025  36.264   3.501   9.247
 2742POPC   GL236026  35.893   3.466   9.161
 2742POPC   C1A36027  36.318   3.513   8.800
 2742POPC   D2A36028  36.221   3.400   8.390
 2742POPC   C3A36029  36.534   3.420   8.102
 2742POPC   C4A36030  36.463   3.478   7.702
 2742POPC   C1B36031  35.915   3.828   8.863
 2742POPC   C2B36032  35.997   3.868   8.416
 2742POPC   C3B36033  36.066   3.743   7.977
 2742POPC   C4B36034  35.759   3.928   7.681
 2743POPC   NC336035  14.280  44.619   9.484
 2743POPC   PO436036  14.869  44.667   9.281
 2743POPC   GL136037  14.546  44.420   9.064
 2743POPC   GL236038  14.154  44.311   9.105
 2743POPC   C1A36039  14.402  44.571   8.695
 2743POPC   D2A36040  14.510  44.815   8.347
 2743POPC   C3A36041  14.551  44.506   8.040
 2743POPC   C4A36042  14.526  44.737   7.673
 2743POPC   C1B36043  13.926  44.369   8.708
 2743POPC   C2B36044  14.049  44.525   8.298
 2743POPC   C3B36045  14.096  44.551   7.856
 2743POPC   C4B36046  14.170  44.359   7.428
 2744POPC   NC336047  18.823  40.263   9.218
 2744POPC   PO436048  18.214  40.349   9.561
 2744POPC   GL136049  18.337  40.084   9.156
 2744POPC   GL236050  18.610  39.822   9.054
 2744POPC   C1A36051  18.192  39.831   8.779
 2744POPC   D2A36052  18.327  39.787   8.334
 2744POPC   C3A36053  18.140  40.159   8.137
 2744POPC   C4A36054  18.004  40.274   7.714
 2744POPC   C1B36055  18.631  40.065   8.627
 2744POPC   C2B36056  18.644  40.269   8.213
 2744POPC   C3B36057  18.528  40.125   7.811
 2744POPC   C4B36058  18.213  39.803   7.772
 2745POPC   NC336059  12.437  37.727   9.728
 2745POPC   PO436060  11.851  37.435   9.715
 2745POPC   GL136061  12.000  37.656   9.333
 2745POPC   GL236062  12.313  37.592   9.129
 2745POPC   C1A36063  11.895  37.762   8.898
 2745POPC   D2A36064  11.940  37.509   8.539
 2745POPC   C3A36065  12.068  37.703   8.173
 2745POPC   C4A36066  11.828  37.787   7.800
 2745POPC   C1B36067  12.371  37.762   8.663
 2745POPC   C2B36068  12.570  37.747   8.257
 2745POPC   C3B36069  12.462  37.588   7.874
 2745POPC   C4B36070  12.127  37.256   7.874
 2746POPC   NC336071  28.762  38.771   9.428
 2746POPC   PO436072  29.233  38.242   9.419
 2746POPC   GL136073  28.961  38.397   9.121
 2746POPC   GL236074  29.110  38.608   8.865
 2746POPC   C1A36075  28.744  38.231   8.767
 2746POPC   D2A36076  28.814  38.100   8.337
 2746POPC   C3A36077  29.101  38.429   8.151
 2746POPC   C4A36078  29.320  38.590   7.768
 2746POPC   C1B36079  29.284  38.245   8.730
 2746POPC   C2B36080  29.618  38.134   8.487
 2746POPC   C3B36081  29.587  38.206   8.070
 2746POPC   C4B36082  29.701  38.225   7.668
 2747POPC   NC336083   8.315  16.388   9.478
 2747POPC   PO436084   7.997  17.029   9.486
 2747POPC   GL136085   8.081  16.841   9.108
 2747POPC   GL236086   7.963  16.499   9.130
 2747POPC   C1A36087   8.395  16.891   8.783
 2747POPC   D2A36088   8.454  16.668   8.381
 2747POPC   C3A36089   8.284  16.692   7.979
 2747POPC   C4A36090   8.185  16.617   7.561
 2747POPC   C1B36091   8.067  16.523   8.695
 2747POPC   C2B36092   7.924  16.678   8.333
 2747POPC   C3B36093   7.822  16.509   7.944
 2747POPC   C4B36094   7.798  16.270   7.569
 2748POPC   NC336095  10.657  32.086   9.430
 2748POPC   PO436096   9.982  32.268   9.443
 2748POPC   GL136097  10.318  32.303   9.107
 2748POPC   GL236098  10.595  32.569   9.149
 2748POPC   C1A36099  10.462  31.988   8.772
 2748POPC   D2A36100  10.391  31.998   8.328
 2748POPC   C3A36101  10.755  32.015   8.009
 2748POPC   C4A36102  10.743  32.225   7.592
 2748POPC   C1B36103  10.671  32.442   8.705
 2748POPC   C2B36104  10.594  32.446   8.250
 2748POPC   C3B36105  10.526  32.653   7.852
 2748POPC   C4B36106  10.616  32.867   7.477
 2749POPC   NC336107  29.695   7.677   9.566
 2749POPC   PO436108  29.851   7.025   9.439
 2749POPC   GL136109  29.930   7.196   9.062
 2749POPC   GL236110  29.859   7.548   9.083
 2749POPC   C1A36111  29.804   7.213   8.641
 2749POPC   D2A36112  29.714   7.517   8.339
 2749POPC   C3A36113  29.807   7.371   7.942
 2749POPC   C4A36114  29.808   7.211   7.536
 2749POPC   C1B36115  30.053   7.660   8.703
 2749POPC   C2B36116  30.260   7.586   8.313
 2749POPC   C3B36117  30.217   7.721   7.891
 2749POPC   C4B36118  30.241   7.597   7.439
 2750POPC   NC336119  12.893   9.455   9.660
 2750POPC   PO436120  12.590   8.820   9.471
 2750POPC   GL136121  12.740   8.764   9.088
 2750POPC   GL236122  12.956   9.073   9.122
 2750POPC   C1A36123  12.967   8.758   8.687
 2750POPC   D2A36124  12.797   8.929   8.328
 2750POPC   C3A36125  13.028   9.026   7.996
 2750POPC   C4A36126  12.865   8.759   7.724
 2750POPC   C1B36127  12.656   9.141   8.779
 2750POPC   C2B36128  12.491   9.322   8.492
 2750POPC   C3B36129  12.536   9.314   8.084
 2750POPC   C4B36130  12.517   9.279   7.674
 2751POPC   NC336131  40.473  14.229   9.559
 2751POPC   PO436132  41.021  14.629   9.513
 2751POPC   GL136133  40.958  14.408   9.164
 2751POPC   GL236134  40.621  14.481   9.133
 2751POPC   C1A36135  41.058  14.375   8.724
 2751POPC   D2A36136  40.836  14.579   8.356
 2751POPC   C3A36137  41.058  14.883   8.085
 2751POPC   C4A36138  41.036  14.851   7.647
 2751POPC   C1B36139  40.568  14.188   8.805
 2751POPC   C2B36140  40.757  14.079   8.417
 2751POPC   C3B36141  40.685  14.158   8.004
 2751POPC   C4B36142  40.726  14.529   7.825
 2752POPC   NC336143  36.853  41.326   9.503
 2752POPC   PO436144  36.563  41.903   9.205
 2752POPC   GL136145  36.804  41.591   9.031
 2752POPC   GL236146  37.107  41.436   9.074
 2752POPC   C1A36147  36.852  41.628   8.629
 2752POPC   D2A36148  36.698  41.399   8.317
 2752POPC   C3A36149  36.758  41.656   7.978
 2752POPC   C4A36150  36.803  41.674   7.554
 2752POPC   C1B36151  37.317  41.438   8.675
 2752POPC   C2B36152  37.195  41.541   8.246
 2752POPC   C3B36153  37.238  41.548   7.787
 2752POPC   C4B36154  37.249  41.506   7.318
 2753POPC   NC336155  37.477  35.966   9.522
 2753POPC   PO436156  37.752  36.578   9.375
 2753POPC   GL136157  37.596  36.293   9.075
 2753POPC   GL236158  37.770  35.961   9.111
 2753POPC   C1A36159  37.585  36.416   8.629
 2753POPC   D2A36160  37.312  36.473   8.262
 2753POPC   C3A36161  37.433  36.244   7.886
 2753POPC   C4A36162  37.866  36.335   7.804
 2753POPC   C1B36163  37.762  35.740   8.731
 2753POPC   C2B36164  37.925  35.784   8.321
 2753POPC   C3B36165  37.778  35.845   7.904
 2753POPC   C4B36166  37.737  35.611   7.535
 2754POPC   NC336167  18.035   8.861   9.590
 2754POPC   PO436168  17.304   8.924   9.607
 2754POPC   GL136169  17.388   8.964   9.174
 2754POPC   GL236170  17.718   8.914   9.165
 2754POPC   C1A36171  17.187   9.058   8.805
 2754POPC   D2A36172  17.334   8.953   8.392
 2754POPC   C3A36173  17.120   8.996   8.012
 2754POPC   C4A36174  17.213   8.874   7.615
 2754POPC   C1B36175  17.865   9.040   8.736
 2754POPC   C2B36176  17.831   9.139   8.297
 2754POPC   C3B36177  17.722   8.898   7.932
 2754POPC   C4B36178  17.692   8.934   7.489
 2755POPC   NC336179  29.041  10.640   9.562
 2755POPC   PO436180  29.237  10.143   9.143
 2755POPC   GL136181  29.233  10.585   9.082
 2755POPC   GL236182  28.873  10.752   9.092
 2755POPC   C1A36183  29.370  10.614   8.673
 2755POPC   D2A36184  29.416  10.190   8.460
 2755POPC   C3A36185  29.337  10.274   8.028
 2755POPC   C4A36186  29.253  10.715   7.882
 2755POPC   C1B36187  28.832  10.467   8.747
 2755POPC   C2B36188  28.983  10.477   8.345
 2755POPC   C3B36189  28.795  10.500   7.971
 2755POPC   C4B36190  28.840  10.172   7.732
 2756POPC   NC336191  37.239  31.211   9.622
 2756POPC   PO436192  37.718  31.712   9.502
 2756POPC   GL136193  37.724  31.385   9.138
 2756POPC   GL236194  38.000  31.150   9.055
 2756POPC   C1A36195  37.556  31.374   8.730
 2756POPC   D2A36196  37.511  31.190   8.351
 2756POPC   C3A36197  37.403  31.430   8.017
 2756POPC   C4A36198  37.551  31.340   7.629
 2756POPC   C1B36199  38.045  31.529   8.762
 2756POPC   C2B36200  37.813  31.639   8.370
 2756POPC   C3B36201  37.866  31.651   7.942
 2756POPC   C4B36202  38.051  31.890   7.619
 2757POPC   NC336203  15.664  11.152   9.485
 2757POPC   PO436204  16.261  11.380   9.478
 2757POPC   GL136205  16.000  11.356   9.140
 2757POPC   GL236206  16.071  11.030   9.110
 2757POPC   C1A36207  16.083  11.340   8.725
 2757POPC   D2A36208  15.855  11.273   8.397
 2757POPC   C3A36209  16.091  11.382   8.061
 2757POPC   C4A36210  16.059  11.388   7.651
 2757POPC   C1B36211  15.698  10.978   8.836
 2757POPC   C2B36212  15.540  10.815   8.449
 2757POPC   C3B36213  15.583  10.995   8.049
 2757POPC   C4B36214  15.838  10.911   7.701
 2758POPC   NC336215  34.196  32.290   9.544
 2758POPC   PO436216  33.593  32.380   9.294
 2758POPC   GL136217  33.802  32.200   8.986
 2758POPC   GL236218  34.143  32.243   9.028
 2758POPC   C1A36219  33.876  32.147   8.526
 2758POPC   D2A36220  33.625  32.196   8.157
 2758POPC   C3A36221  33.809  31.957   7.847
 2758POPC   C4A36222  34.074  31.858   7.491
 2758POPC   C1B36223  34.057  32.577   8.702
 2758POPC   C2B36224  34.151  32.532   8.271
 2758POPC   C3B36225  33.864  32.616   7.955
 2758POPC   C4B36226  33.732  32.405   7.599
 2759POPC   NC336227  21.976  36.886   9.524
 2759POPC   PO436228  22.629  36.960   9.311
 2759POPC   GL136229  22.277  36.862   9.044
 2759POPC   GL236230  21.977  36.627   9.082
 2759POPC   C1A36231  22.095  36.933   8.633
 2759POPC   D2A36232  22.155  36.631   8.321
 2759POPC   C3A36233  22.260  36.769   7.919
 2759POPC   C4A36234  22.167  37.020   7.550
 2759POPC   C1B36235  21.763  36.549   8.654
 2759POPC   C2B36236  21.557  36.479   8.249
 2759POPC   C3B36237  21.767  36.575   7.851
 2759POPC   C4B36238  22.107  36.487   7.526
 2760POPC   NC336239   1.883  40.986   9.652
 2760POPC   PO436240   2.424  41.053   9.330
 2760POPC   GL136241   2.222  40.694   9.146
 2760POPC   GL236242   1.859  40.747   9.172
 2760POPC   C1A36243   2.067  40.541   8.741
 2760POPC   D2A36244   2.027  40.782   8.369
 2760POPC   C3A36245   1.983  40.614   7.974
 2760POPC   C4A36246   2.263  40.732   7.643
 2760POPC   C1B36247   1.754  40.953   8.787
 2760POPC   C2B36248   1.532  41.084   8.440
 2760POPC   C3B36249   1.638  40.975   8.073
 2760POPC   C4B36250   1.820  41.003   7.684
 2761POPC   NC336251  16.944  10.040   9.610
 2761POPC   PO436252  16.581   9.470   9.640
 2761POPC   GL136253  16.667   9.535   9.201
 2761POPC   GL236254  16.995   9.695   9.222
 2761POPC   C1A36255  16.460   9.651   8.793
 2761POPC   D2A36256  16.326   9.448   8.387
 2761POPC   C3A36257  16.478   9.641   8.001
 2761POPC   C4A36258  16.768   9.510   7.666
 2761POPC   C1B36259  17.028   9.596   8.789
 2761POPC   C2B36260  16.797   9.784   8.435
 2761POPC   C3B36261  16.977   9.770   8.049
 2761POPC   C4B36262  16.990  10.017   7.675
 2762POPC   NC336263  22.621   7.993   9.375
 2762POPC   PO436264  23.007   8.500   9.448
 2762POPC   GL136265  22.844   8.359   9.093
 2762POPC   GL236266  22.503   8.446   9.122
 2762POPC   C1A36267  22.972   8.227   8.705
 2762POPC   D2A36268  22.937   8.334   8.301
 2762POPC   C3A36269  23.168   8.041   8.034
 2762POPC   C4A36270  23.148   8.101   7.616
 2762POPC   C1B36271  22.467   8.215   8.705
 2762POPC   C2B36272  22.459   8.135   8.262
 2762POPC   C3B36273  22.690   8.156   7.865
 2762POPC   C4B36274  22.648   7.948   7.437
 2763POPC   NC336275  16.291  34.544   9.713
 2763POPC   PO436276  15.671  34.427   9.419
 2763POPC   GL136277  15.988  34.477   9.155
 2763POPC   GL236278  16.169  34.182   9.235
 2763POPC   C1A36279  15.870  34.614   8.767
 2763POPC   D2A36280  15.905  34.522   8.379
 2763POPC   C3A36281  15.885  34.846   8.103
 2763POPC   C4A36282  15.877  34.721   7.681
 2763POPC   C1B36283  16.190  34.204   8.762
 2763POPC   C2B36284  16.342  34.293   8.321
 2763POPC   C3B36285  16.139  34.289   7.903
 2763POPC   C4B36286  16.281  34.283   7.452
 2764POPC   NC336287  21.638  42.854   9.580
 2764POPC   PO436288  21.054  43.244   9.408
 2764POPC   GL136289  21.236  43.041   9.094
 2764POPC   GL236290  21.547  43.166   9.131
 2764POPC   C1A36291  21.311  43.170   8.670
 2764POPC   D2A36292  21.389  42.990   8.292
 2764POPC   C3A36293  21.109  43.130   8.014
 2764POPC   C4A36294  21.228  43.077   7.617
 2764POPC   C1B36295  21.721  43.433   8.803
 2764POPC   C2B36296  21.804  43.259   8.368
 2764POPC   C3B36297  21.756  43.177   7.905
 2764POPC   C4B36298  21.683  43.269   7.432
 2765POPC   NC336299  13.703   2.164   9.673
 2765POPC   PO436300  13.241   1.740   9.534
 2765POPC   GL136301  13.645   1.842   9.293
 2765POPC   GL236302  13.513   2.155   9.147
 2765POPC   C1A36303  13.837   1.841   8.864
 2765POPC   D2A36304  13.654   2.135   8.546
 2765POPC   C3A36305  13.831   2.159   8.125
 2765POPC   C4A36306  13.519   2.138   7.790
 2765POPC   C1B36307  13.342   1.767   8.908
 2765POPC   C2B36308  13.445   1.662   8.512
 2765POPC   C3B36309  13.564   1.719   8.089
 2765POPC   C4B36310  13.295   1.688   7.733
 2766POPC   NC336311  38.418  38.063   9.661
 2766POPC   PO436312  38.616  38.721   9.482
 2766POPC   GL136313  38.420  38.625   9.129
 2766POPC   GL236314  38.354  38.279   9.184
 2766POPC   C1A36315  38.404  38.511   8.709
 2766POPC   D2A36316  38.307  38.639   8.315
 2766POPC   C3A36317  38.507  38.467   7.955
 2766POPC   C4A36318  38.224  38.672   7.683
 2766POPC   C1B36319  38.180  38.064   8.811
 2766POPC   C2B36320  38.303  38.115   8.387
 2766POPC   C3B36321  38.091  38.163   8.007
 2766POPC   C4B36322  38.259  38.181   7.578
 2767POPC   NC336323  40.342  10.733   9.462
 2767POPC   PO436324  39.713  10.780   9.341
 2767POPC   GL136325  40.021  10.607   9.025
 2767POPC   GL236326  40.319  10.842   8.970
 2767POPC   C1A36327  39.939  10.333   8.630
 2767POPC   D2A36328  39.831  10.204   8.189
 2767POPC   C3A36329  40.012  10.504   7.918
 2767POPC   C4A36330  39.843  10.657   7.581
 2767POPC   C1B36331  40.493  10.442   8.827
 2767POPC   C2B36332  40.617  10.188   8.494
 2767POPC   C3B36333  40.452  10.276   8.086
 2767POPC   C4B36334  40.256  10.038   7.761
 2768POPC   NC336335   7.342   6.868   9.645
 2768POPC   PO436336   7.538   7.465   9.509
 2768POPC   GL136337   7.467   7.350   9.091
 2768POPC   GL236338   7.153   7.540   9.076
 2768POPC   C1A36339   7.377   7.403   8.629
 2768POPC   D2A36340   7.561   7.464   8.230
 2768POPC   C3A36341   7.460   7.570   7.821
 2768POPC   C4A36342   7.537   7.112   7.734
 2768POPC   C1B36343   6.905   7.596   8.670
 2768POPC   C2B36344   6.991   7.421   8.246
 2768POPC   C3B36345   7.045   7.278   7.842
 2768POPC   C4B36346   6.876   7.140   7.454
 2769POPC   NC336347  15.306   8.854   9.522
 2769POPC   PO436348  14.935   9.459   9.531
 2769POPC   GL136349  15.048   9.251   9.136
 2769POPC   GL236350  15.332   8.971   9.025
 2769POPC   C1A36351  15.036   9.231   8.706
 2769POPC   D2A36352  15.367   9.041   8.495
 2769POPC   C3A36353  15.420   9.128   8.069
 2769POPC   C4A36354  15.072   9.101   7.805
 2769POPC   C1B36355  15.015   8.715   8.744
 2769POPC   C2B36356  14.903   8.497   8.340
 2769POPC   C3B36357  14.985   8.603   7.900
 2769POPC   C4B36358  15.112   8.722   7.451
 2770POPC   NC336359  14.056  12.041   9.494
 2770POPC   PO436360  14.250  12.638   9.350
 2770POPC   GL136361  14.381  12.277   9.084
 2770POPC   GL236362  14.263  11.924   9.039
 2770POPC   C1A36363  14.409  12.190   8.638
 2770POPC   D2A36364  14.590  12.242   8.244
 2770POPC   C3A36365  14.353  12.112   7.933
 2770POPC   C4A36366  14.402  11.962   7.534
 2770POPC   C1B36367  14.017  11.841   8.670
 2770POPC   C2B36368  13.940  11.952   8.242
 2770POPC   C3B36369  13.997  11.755   7.810
 2770POPC   C4B36370  14.044  11.663   7.340
 2771POPC   NC336371   3.411  22.164   9.924
 2771POPC   PO436372   3.829  22.293   9.344
 2771POPC   GL136373   3.605  22.149   9.016
 2771POPC   GL236374   3.310  22.046   9.156
 2771POPC   C1A36375   3.398  22.398   8.723
 2771POPC   D2A36376   3.220  22.461   8.351
 2771POPC   C3A36377   3.414  22.273   8.009
 2771POPC   C4A36378   3.267  22.359   7.608
 2771POPC   C1B36379   3.169  21.908   8.750
 2771POPC   C2B36380   3.383  21.901   8.365
 2771POPC   C3B36381   3.558  21.774   7.962
 2771POPC   C4B36382   3.556  21.964   7.543
 2772POPC   NC336383  30.039   3.866   9.429
 2772POPC   PO436384  30.247   3.219   9.481
 2772POPC   GL136385  29.936   3.406   9.168
 2772POPC   GL236386  30.096   3.650   8.990
 2772POPC   C1A36387  29.702   3.508   8.749
 2772POPC   D2A36388  29.969   3.496   8.400
 2772POPC   C3A36389  29.801   3.523   7.964
 2772POPC   C4A36390  29.723   3.435   7.499
 2772POPC   C1B36391  30.116   3.930   8.674
 2772POPC   C2B36392  30.027   3.975   8.261
 2772POPC   C3B36393  30.339   3.980   7.988
 2772POPC   C4B36394  30.414   4.054   7.591
 2773POPC   NC336395   4.032  10.638   9.773
 2773POPC   PO436396   3.327  10.639   9.634
 2773POPC   GL136397   3.343  10.489   9.178
 2773POPC   GL236398   3.570  10.196   9.074
 2773POPC   C1A36399   3.243  10.405   8.745
 2773POPC   D2A36400   3.446  10.480   8.385
 2773POPC   C3A36401   3.252  10.477   7.994
 2773POPC   C4A36402   3.476  10.472   7.601
 2773POPC   C1B36403   3.857  10.367   8.775
 2773POPC   C2B36404   4.008  10.590   8.429
 2773POPC   C3B36405   3.789  10.619   8.033
 2773POPC   C4B36406   3.964  10.646   7.653
 2774POPC   NC336407  19.073  34.996   9.325
 2774POPC   PO436408  19.186  35.659   9.478
 2774POPC   GL136409  19.358  35.387   9.133
 2774POPC   GL236410  19.050  35.421   9.001
 2774POPC   C1A36411  19.343  35.058   8.771
 2774POPC   D2A36412  19.101  34.948   8.402
 2774POPC   C3A36413  19.237  35.259   8.120
 2774POPC   C4A36414  19.374  35.299   7.667
 2774POPC   C1B36415  19.080  35.452   8.572
 2774POPC   C2B36416  18.920  35.687   8.250
 2774POPC   C3B36417  18.949  35.577   7.870
 2774POPC   C4B36418  18.840  35.159   7.748
 2775POPC   NC336419  20.831  42.794   9.308
 2775POPC   PO436420  20.384  43.259   9.575
 2775POPC   GL136421  20.366  43.038   9.172
 2775POPC   GL236422  20.646  43.273   9.082
 2775POPC   C1A36423  20.552  42.875   8.740
 2775POPC   D2A36424  20.876  42.934   8.448
 2775POPC   C3A36425  20.680  42.829   8.082
 2775POPC   C4A36426  20.773  42.804   7.689
 2775POPC   C1B36427  20.345  43.331   8.744
 2775POPC   C2B36428  20.376  43.174   8.342
 2775POPC   C3B36429  20.629  43.352   8.044
 2775POPC   C4B36430  20.806  43.372   7.660
 2776POPC   NC336431  12.132   1.532   9.446
 2776POPC   PO436432  11.786   0.952   9.680
 2776POPC   GL136433  11.936   1.098   9.241
 2776POPC   GL236434  11.726   1.380   9.158
 2776POPC   C1A36435  12.161   1.053   8.792
 2776POPC   D2A36436  12.321   0.908   8.377
 2776POPC   C3A36437  12.275   1.152   8.027
 2776POPC   C4A36438  12.149   1.026   7.649
 2776POPC   C1B36439  12.004   1.537   8.796
 2776POPC   C2B36440  11.989   1.661   8.352
 2776POPC   C3B36441  11.906   1.497   7.931
 2776POPC   C4B36442  12.021   1.498   7.491
 2777POPC   NC336443  11.959  43.303   9.729
 2777POPC   PO436444  12.076  42.705   9.432
 2777POPC   GL136445  12.038  43.049   9.144
 2777POPC   GL236446  11.754  43.279   9.164
 2777POPC   C1A36447  12.087  43.196   8.728
 2777POPC   D2A36448  12.266  43.287   8.337
 2777POPC   C3A36449  12.132  43.116   7.932
 2777POPC   C4A36450  12.164  43.154   7.478
 2777POPC   C1B36451  11.585  43.276   8.700
 2777POPC   C2B36452  11.733  43.267   8.246
 2777POPC   C3B36453  11.635  43.023   7.849
 2777POPC   C4B36454  11.653  43.131   7.386
 2778POPC   NC336455  13.505  39.218   9.600
 2778POPC   PO436456  14.101  39.264   9.527
 2778POPC   GL136457  13.753  39.249   9.157
 2778POPC   GL236458  13.486  39.517   9.155
 2778POPC   C1A36459  13.486  39.178   8.744
 2778POPC   D2A36460  13.287  39.158   8.286
 2778POPC   C3A36461  13.463  38.874   7.939
 2778POPC   C4A36462  13.584  39.006   7.509
 2778POPC   C1B36463  13.750  39.618   8.790
 2778POPC   C2B36464  13.678  39.496   8.349
 2778POPC   C3B36465  13.696  39.356   7.913
 2778POPC   C4B36466  13.965  39.384   7.535
 2779POPC   NC336467  14.024  18.350   9.506
 2779POPC   PO436468  13.447  18.047   9.673
 2779POPC   GL136469  13.362  18.215   9.247
 2779POPC   GL236470  13.676  18.340   9.133
 2779POPC   C1A36471  13.304  18.106   8.801
 2779POPC   D2A36472  13.323  18.327   8.401
 2779POPC   C3A36473  13.351  18.078   8.053
 2779POPC   C4A36474  13.586  18.091   7.674
 2779POPC   C1B36475  13.683  18.477   8.721
 2779POPC   C2B36476  13.658  18.687   8.302
 2779POPC   C3B36477  13.484  18.554   7.905
 2779POPC   C4B36478  13.669  18.621   7.506
 2780POPC   NC336479  17.239  24.321   9.431
 2780POPC   PO436480  17.869  24.022   9.491
 2780POPC   GL136481  17.845  24.263   9.096
 2780POPC   GL236482  17.696  24.609   9.126
 2780POPC   C1A36483  17.882  24.442   8.668
 2780POPC   D2A36484  17.681  24.672   8.317
 2780POPC   C3A36485  17.512  24.413   7.988
 2780POPC   C4A36486  17.581  24.287   7.578
 2780POPC   C1B36487  17.388  24.671   8.765
 2780POPC   C2B36488  17.126  24.634   8.391
 2780POPC   C3B36489  17.179  24.788   7.975
 2780POPC   C4B36490  17.526  24.813   7.676
 2781POPC   NC336491  41.799   9.718   9.461
 2781POPC   PO436492  41.212   9.553   9.270
 2781POPC   GL136493  41.558   9.728   9.005
 2781POPC   GL236494  41.934   9.657   8.980
 2781POPC   C1A36495  41.635   9.709   8.572
 2781POPC   D2A36496  41.769   9.789   8.181
 2781POPC   C3A36497  41.428   9.627   7.974
 2781POPC   C4A36498  41.363   9.488   7.558
 2781POPC   C1B36499  41.934   9.309   8.677
 2781POPC   C2B36500  41.937   9.220   8.255
 2781POPC   C3B36501  41.822   9.334   7.865
 2781POPC   C4B36502  41.822   9.710   7.662
 2782POPC   NC336503  40.620  42.559   9.589
 2782POPC   PO436504  41.209  42.299   9.515
 2782POPC   GL136505  40.886  42.255   9.198
 2782POPC   GL236506  40.649  41.967   9.186
 2782POPC   C1A36507  40.972  42.345   8.760
 2782POPC   D2A36508  40.719  42.384   8.384
 2782POPC   C3A36509  40.838  42.491   7.971
 2782POPC   C4A36510  40.887  42.421   7.524
 2782POPC   C1B36511  40.486  42.128   8.815
 2782POPC   C2B36512  40.393  41.979   8.408
 2782POPC   C3B36513  40.440  42.162   8.007
 2782POPC   C4B36514  40.577  42.020   7.617
 2783POPC   NC336515  22.959  37.296   9.428
 2783POPC   PO436516  22.600  37.881   9.517
 2783POPC   GL136517  22.952  37.768   9.237
 2783POPC   GL236518  22.705  37.551   9.054
 2783POPC   C1A36519  23.146  37.636   8.845
 2783POPC   D2A36520  22.914  37.548   8.461
 2783POPC   C3A36521  23.040  37.711   8.047
 2783POPC   C4A36522  22.812  37.653   7.672
 2783POPC   C1B36523  22.743  37.933   8.786
 2783POPC   C2B36524  22.812  38.054   8.364
 2783POPC   C3B36525  22.674  38.145   7.945
 2783POPC   C4B36526  22.708  38.081   7.462
 2784POPC   NC336527  24.727  39.835   9.502
 2784POPC   PO436528  24.037  39.725   9.360
 2784POPC   GL136529  24.269  40.095   9.157
 2784POPC   GL236530  24.634  40.130   9.065
 2784POPC   C1A36531  24.310  40.234   8.713
 2784POPC   D2A36532  24.574  39.944   8.465
 2784POPC   C3A36533  24.435  40.010   8.112
 2784POPC   C4A36534  24.472  39.958   7.734
 2784POPC   C1B36535  24.817  40.351   8.684
 2784POPC   C2B36536  24.841  40.320   8.222
 2784POPC   C3B36537  24.675  40.411   7.823
 2784POPC   C4B36538  24.751  40.241   7.402
 2785POPC   NC336539  14.222   3.418   9.548
 2785POPC   PO436540  14.187   4.014   9.698
 2785POPC   GL136541  14.360   3.751   9.204
 2785POPC   GL236542  14.505   3.363   9.147
 2785POPC   C1A36543  14.550   3.670   8.759
 2785POPC   D2A36544  14.549   3.348   8.441
 2785POPC   C3A36545  14.232   3.404   8.139
 2785POPC   C4A36546  14.344   3.423   7.716
 2785POPC   C1B36547  14.215   3.285   8.820
 2785POPC   C2B36548  13.859   3.285   8.563
 2785POPC   C3B36549  13.734   3.190   8.169
 2785POPC   C4B36550  13.848   3.314   7.762
 2786POPC   NC336551  19.920  43.130   9.550
 2786POPC   PO436552  19.407  42.749   9.279
 2786POPC   GL136553  19.770  42.953   9.103
 2786POPC   GL236554  19.777  43.310   9.116
 2786POPC   C1A36555  20.038  42.928   8.749
 2786POPC   D2A36556  19.882  43.039   8.336
 2786POPC   C3A36557  20.089  42.956   7.943
 2786POPC   C4A36558  19.932  42.838   7.545
 2786POPC   C1B36559  19.781  43.379   8.732
 2786POPC   C2B36560  19.510  43.480   8.428
 2786POPC   C3B36561  19.620  43.395   8.030
 2786POPC   C4B36562  19.706  43.281   7.643
 2787POPC   NC336563   7.729  28.134   9.444
 2787POPC   PO436564   7.609  27.493   9.542
 2787POPC   GL136565   7.340  27.568   9.190
 2787POPC   GL236566   7.293  27.880   9.252
 2787POPC   C1A36567   7.290  27.463   8.764
 2787POPC   D2A36568   7.356  27.688   8.387
 2787POPC   C3A36569   7.521  27.570   7.982
 2787POPC   C4A36570   7.829  27.743   7.685
 2787POPC   C1B36571   7.287  27.995   8.828
 2787POPC   C2B36572   7.490  28.177   8.458
 2787POPC   C3B36573   7.373  28.071   8.044
 2787POPC   C4B36574   7.334  27.932   7.618
 2788POPC   NC336575  36.484   4.068   9.934
 2788POPC   PO436576  36.028   4.324   9.430
 2788POPC   GL136577  36.249   4.329   9.075
 2788POPC   GL236578  36.378   3.990   9.108
 2788POPC   C1A36579  36.154   4.297   8.656
 2788POPC   D2A36580  35.811   4.354   8.386
 2788POPC   C3A36581  35.985   4.253   8.016
 2788POPC   C4A36582  36.219   4.271   7.647
 2788POPC   C1B36583  36.560   3.978   8.720
 2788POPC   C2B36584  36.457   4.024   8.286
 2788POPC   C3B36585  36.560   3.944   7.861
 2788POPC   C4B36586  36.627   3.981   7.381
 2789POPC   NC336587   7.757  11.355   9.411
 2789POPC   PO436588   7.130  11.134   9.507
 2789POPC   GL136589   7.355  11.193   9.151
 2789POPC   GL236590   7.335  10.817   9.125
 2789POPC   C1A36591   7.387  11.354   8.725
 2789POPC   D2A36592   7.213  11.260   8.316
 2789POPC   C3A36593   7.461  11.471   8.014
 2789POPC   C4A36594   7.365  11.603   7.615
 2789POPC   C1B36595   7.659  10.922   8.842
 2789POPC   C2B36596   7.712  11.049   8.416
 2789POPC   C3B36597   7.515  10.943   8.041
 2789POPC   C4B36598   7.134  10.926   7.773
 2790POPC   NC336599  28.124  41.698   9.459
 2790POPC   PO436600  28.754  41.563   9.513
 2790POPC   GL136601  28.519  41.448   9.168
 2790POPC   GL236602  28.621  41.733   8.969
 2790POPC   C1A36603  28.193  41.332   8.866
 2790POPC   D2A36604  28.229  41.273   8.438
 2790POPC   C3A36605  28.380  41.611   8.184
 2790POPC   C4A36606  28.205  41.615   7.783
 2790POPC   C1B36607  28.734  41.368   8.695
 2790POPC   C2B36608  28.742  41.196   8.265
 2790POPC   C3B36609  28.647  41.349   7.842
 2790POPC   C4B36610  28.652  41.815   7.716
 2791POPC   NC336611  15.656  19.890   9.458
 2791POPC   PO436612  15.005  19.991   9.534
 2791POPC   GL136613  15.059  19.816   9.173
 2791POPC   GL236614  15.336  20.061   9.091
 2791POPC   C1A36615  15.013  19.876   8.757
 2791POPC   D2A36616  15.212  20.029   8.450
 2791POPC   C3A36617  15.117  19.873   8.073
 2791POPC   C4A36618  14.991  19.759   7.658
 2791POPC   C1B36619  15.447  19.632   8.898
 2791POPC   C2B36620  15.426  19.528   8.478
 2791POPC   C3B36621  15.628  19.708   8.140
 2791POPC   C4B36622  15.502  19.773   7.736
 2792POPC   NC336623  31.736  31.660   9.614
 2792POPC   PO436624  31.284  31.133   9.563
 2792POPC   GL136625  31.416  31.421   9.254
 2792POPC   GL236626  31.119  31.402   9.067
 2792POPC   C1A36627  31.508  31.523   8.799
 2792POPC   D2A36628  31.546  31.612   8.367
 2792POPC   C3A36629  31.583  31.331   8.058
 2792POPC   C4A36630  31.625  31.461   7.681
 2792POPC   C1B36631  31.000  31.638   8.693
 2792POPC   C2B36632  31.227  31.964   8.556
 2792POPC   C3B36633  31.182  31.960   8.123
 2792POPC   C4B36634  31.190  31.623   7.864
 2793POPC   NC336635  31.107  39.960   9.456
 2793POPC   PO436636  31.782  39.984   9.430
 2793POPC   GL136637  31.544  39.828   9.096
 2793POPC   GL236638  31.290  40.080   9.002
 2793POPC   C1A36639  31.628  39.809   8.636
 2793POPC   D2A36640  31.616  39.704   8.181
 2793POPC   C3A36641  31.908  39.940   7.870
 2793POPC   C4A36642  31.926  39.949   7.372
 2793POPC   C1B36643  31.138  39.733   8.778
 2793POPC   C2B36644  31.063  39.823   8.334
 2793POPC   C3B36645  31.246  40.010   7.965
 2793POPC   C4B36646  31.474  39.908   7.590
 2794POPC   NC336647  37.870  28.093   9.564
 2794POPC   PO436648  37.547  28.665   9.524
 2794POPC   GL136649  37.727  28.431   9.228
 2794POPC   GL236650  37.429  28.399   9.068
 2794POPC   C1A36651  37.863  28.357   8.814
 2794POPC   D2A36652  37.723  28.261   8.406
 2794POPC   C3A36653  37.846  28.399   8.011
 2794POPC   C4A36654  37.755  28.275   7.581
 2794POPC   C1B36655  37.372  28.142   8.752
 2794POPC   C2B36656  37.207  28.170   8.346
 2794POPC   C3B36657  37.381  28.175   7.943
 2794POPC   C4B36658  37.307  28.478   7.630
 2795POPC   NC336659   2.090   3.871   9.447
 2795POPC   PO436660   1.818   4.422   9.539
 2795POPC   GL136661   2.070   4.441   9.149
 2795POPC   GL236662   2.242   4.145   9.067
 2795POPC   C1A36663   1.917   4.342   8.719
 2795POPC   D2A36664   2.066   4.481   8.330
 2795POPC   C3A36665   1.821   4.363   7.978
 2795POPC   C4A36666   2.133   4.502   7.691
 2795POPC   C1B36667   2.071   3.860   8.784
 2795POPC   C2B36668   2.067   3.957   8.368
 2795POPC   C3B36669   2.235   4.086   7.985
 2795POPC   C4B36670   1.974   3.979   7.651
 2796POPC   NC336671  18.603   8.997   9.359
 2796POPC   PO436672  18.005   9.329   9.501
 2796POPC   GL136673  18.165   9.198   9.143
 2796POPC   GL236674  18.217   8.870   9.072
 2796POPC   C1A36675  18.416   9.303   8.807
 2796POPC   D2A36676  18.375   9.090   8.452
 2796POPC   C3A36677  18.280   9.327   8.090
 2796POPC   C4A36678  18.430   9.224   7.668
 2796POPC   C1B36679  18.167   8.603   8.762
 2796POPC   C2B36680  18.074   8.680   8.370
 2796POPC   C3B36681  18.262   8.826   8.019
 2796POPC   C4B36682  18.163   8.802   7.627
 2797POPC   NC336683   5.026  19.382   9.402
 2797POPC   PO436684   5.164  20.038   9.370
 2797POPC   GL136685   5.148  19.741   9.055
 2797POPC   GL236686   4.892  19.501   8.941
 2797POPC   C1A36687   5.342  19.625   8.720
 2797POPC   D2A36688   5.461  19.756   8.345
 2797POPC   C3A36689   5.342  19.581   7.980
 2797POPC   C4A36690   5.152  19.866   7.734
 2797POPC   C1B36691   4.803  19.761   8.629
 2797POPC   C2B36692   4.920  19.768   8.212
 2797POPC   C3B36693   4.756  19.571   7.846
 2797POPC   C4B36694   4.798  19.640   7.395
 2798POPC   NC336695  39.532   5.542   9.297
 2798POPC   PO436696  40.128   5.608   9.606
 2798POPC   GL136697  40.192   5.863   9.182
 2798POPC   GL236698  39.858   6.010   9.087
 2798POPC   C1A36699  40.208   5.970   8.707
 2798POPC   D2A36700  39.925   6.028   8.333
 2798POPC   C3A36701  40.034   5.969   7.896
 2798POPC   C4A36702  39.964   6.002   7.433
 2798POPC   C1B36703  39.746   5.729   8.722
 2798POPC   C2B36704  39.603   5.564   8.341
 2798POPC   C3B36705  39.745   5.504   7.916
 2798POPC   C4B36706  39.570   5.711   7.559
 2799POPC   NC336707   3.870  25.727   9.416
 2799POPC   PO436708   3.523  26.374   9.492
 2799POPC   GL136709   3.616  26.327   9.078
 2799POPC   GL236710   3.526  25.975   9.098
 2799POPC   C1A36711   3.798  26.177   8.673
 2799POPC   D2A36712   3.541  26.266   8.302
 2799POPC   C3A36713   3.731  26.193   7.892
 2799POPC   C4A36714   3.679  25.961   7.509
 2799POPC   C1B36715   3.394  25.854   8.680
 2799POPC   C2B36716   3.644  25.778   8.299
 2799POPC   C3B36717   3.429  25.782   7.912
 2799POPC   C4B36718   3.406  25.527   7.562
 2800POPC   NC336719  13.269  15.292   9.522
 2800POPC   PO436720  13.886  14.890   9.371
 2800POPC   GL136721  13.660  15.216   9.163
 2800POPC   GL236722  13.411  15.020   9.076
 2800POPC   C1A36723  13.508  15.422   8.778
 2800POPC   D2A36724  13.493  15.168   8.435
 2800POPC   C3A36725  13.709  15.250   8.060
 2800POPC   C4A36726  13.494  15.368   7.725
 2800POPC   C1B36727  13.282  14.750   8.747
 2800POPC   C2B36728  13.330  14.643   8.330
 2800POPC   C3B36729  13.332  14.889   7.971
 2800POPC   C4B36730  13.308  14.943   7.523
 2801POPC   NC336731  43.681  29.424   9.540
 2801POPC   PO436732  44.289  29.192   9.476
 2801POPC   GL136733  44.038  29.425   9.159
 2801POPC   GL236734  43.651  29.353   9.055
 2801POPC   C1A36735  44.042  29.270   8.760
 2801POPC   D2A36736  43.977  28.994   8.411
 2801POPC   C3A36737  43.930  29.186   8.010
 2801POPC   C4A36738  44.150  29.146   7.625
 2801POPC   C1B36739  43.565  29.034   8.727
 2801POPC   C2B36740  43.460  28.818   8.352
 2801POPC   C3B36741  43.508  28.901   7.932
 2801POPC   C4B36742  43.444  29.298   7.776
 2802POPC   NC336743  26.735  42.352   9.440
 2802POPC   PO436744  27.060  41.677   9.446
 2802POPC   GL136745  27.088  41.956   9.081
 2802POPC   GL236746  27.009  42.316   9.029
 2802POPC   C1A36747  26.876  41.980   8.656
 2802POPC   D2A36748  26.912  41.916   8.211
 2802POPC   C3A36749  26.610  42.097   7.890
 2802POPC   C4A36750  26.772  42.296   7.503
 2802POPC   C1B36751  26.967  42.510   8.664
 2802POPC   C2B36752  26.782  42.416   8.300
 2802POPC   C3B36753  26.786  42.593   7.919
 2802POPC   C4B36754  27.130  42.801   7.831
 2803POPC   NC336755  36.150   9.978   9.578
 2803POPC   PO436756  36.051   9.408   9.192
 2803POPC   GL136757  36.028   9.870   9.107
 2803POPC   GL236758  36.323  10.129   9.120
 2803POPC   C1A36759  35.978  10.004   8.719
 2803POPC   D2A36760  35.814   9.710   8.432
 2803POPC   C3A36761  35.917   9.854   8.052
 2803POPC   C4A36762  36.094   9.696   7.694
 2803POPC   C1B36763  36.467   9.820   8.814
 2803POPC   C2B36764  36.591   9.949   8.416
 2803POPC   C3B36765  36.427  10.011   8.004
 2803POPC   C4B36766  36.590   9.802   7.635
 2804POPC   NC336767  16.823  43.684   9.536
 2804POPC   PO436768  16.825  44.310   9.525
 2804POPC   GL136769  16.641  44.047   9.187
 2804POPC   GL236770  16.880  43.830   9.036
 2804POPC   C1A36771  16.573  44.135   8.726
 2804POPC   D2A36772  16.541  44.165   8.246
 2804POPC   C3A36773  16.901  44.048   7.951
 2804POPC   C4A36774  17.116  43.671   7.803
 2804POPC   C1B36775  16.537  43.614   8.857
 2804POPC   C2B36776  16.434  43.454   8.432
 2804POPC   C3B36777  16.564  43.626   8.024
 2804POPC   C4B36778  16.650  43.434   7.651
 2805POPC   NC336779  17.677  27.426   9.522
 2805POPC   PO436780  17.251  27.933   9.358
 2805POPC   GL136781  17.567  27.721   9.122
 2805POPC   GL236782  17.438  27.394   9.083
 2805POPC   C1A36783  17.791  27.564   8.751
 2805POPC   D2A36784  17.749  27.430   8.339
 2805POPC   C3A36785  17.766  27.745   8.033
 2805POPC   C4A36786  17.483  27.821   7.719
 2805POPC   C1B36787  17.251  27.163   8.771
 2805POPC   C2B36788  17.347  27.117   8.359
 2805POPC   C3B36789  17.388  27.374   7.976
 2805POPC   C4B36790  17.388  27.332   7.529
 2806POPC   NC336791   2.997  42.423   9.683
 2806POPC   PO436792   2.339  42.275   9.897
 2806POPC   GL136793   2.558  42.274   9.399
 2806POPC   GL236794   2.828  42.096   9.153
 2806POPC   C1A36795   2.686  42.532   8.976
 2806POPC   D2A36796   2.849  42.450   8.525
 2806POPC   C3A36797   2.685  42.510   8.083
 2806POPC   C4A36798   2.843  42.585   7.638
 2806POPC   C1B36799   2.565  42.029   8.776
 2806POPC   C2B36800   2.537  42.069   8.310
 2806POPC   C3B36801   2.764  42.029   7.901
 2806POPC   C4B36802   3.030  41.797   7.623
 2807POPC   NC336803  27.209   5.791   9.553
 2807POPC   PO436804  27.911   5.627   9.609
 2807POPC   GL136805  27.651   5.793   9.284
 2807POPC   GL236806  27.784   6.058   9.098
 2807POPC   C1A36807  27.505   5.675   8.878
 2807POPC   D2A36808  27.614   5.816   8.466
 2807POPC   C3A36809  27.465   5.580   8.140
 2807POPC   C4A36810  27.436   5.679   7.724
 2807POPC   C1B36811  27.455   6.190   8.804
 2807POPC   C2B36812  27.513   6.356   8.373
 2807POPC   C3B36813  27.548   6.112   7.985
 2807POPC   C4B36814  27.871   6.077   7.646
 2808POPC   NC336815  13.233  11.827   9.448
 2808POPC   PO436816  13.742  11.309   9.403
 2808POPC   GL136817  13.503  11.330   9.051
 2808POPC   GL236818  13.451  11.675   9.004
 2808POPC   C1A36819  13.715  11.401   8.670
 2808POPC   D2A36820  13.745  11.499   8.273
 2808POPC   C3A36821  13.929  11.195   8.055
 2808POPC   C4A36822  13.944  11.272   7.651
 2808POPC   C1B36823  13.236  11.627   8.597
 2808POPC   C2B36824  13.248  11.408   8.220
 2808POPC   C3B36825  13.480  11.422   7.834
 2808POPC   C4B36826  13.564  11.559   7.433
 2809POPC   NC336827  28.111  13.434   9.513
 2809POPC   PO436828  28.797  13.525   9.336
 2809POPC   GL136829  28.477  13.796   9.076
 2809POPC   GL236830  28.142  13.617   9.039
 2809POPC   C1A36831  28.276  13.894   8.639
 2809POPC   D2A36832  28.199  13.621   8.259
 2809POPC   C3A36833  28.276  13.743   7.829
 2809POPC   C4A36834  28.693  13.788   7.608
 2809POPC   C1B36835  28.051  13.343   8.694
 2809POPC   C2B36836  27.781  13.323   8.314
 2809POPC   C3B36837  27.909  13.365   7.871
 2809POPC   C4B36838  27.942  13.534   7.444
 2810POPC   NC336839  17.583   3.219   9.611
 2810POPC   PO436840  17.235   3.842   9.614
 2810POPC   GL136841  17.450   3.601   9.300
 2810POPC   GL236842  17.263   3.312   9.252
 2810POPC   C1A36843  17.658   3.498   8.916
 2810POPC   D2A36844  17.774   3.818   8.642
 2810POPC   C3A36845  17.624   3.739   8.257
 2810POPC   C4A36846  17.730   3.896   7.839
 2810POPC   C1B36847  17.208   3.267   8.853
 2810POPC   C2B36848  17.348   3.230   8.466
 2810POPC   C3B36849  17.316   3.353   8.063
 2810POPC   C4B36850  17.661   3.323   7.809
 2811POPC   NC336851   9.455  13.435   9.959
 2811POPC   PO436852   9.770  13.868   9.535
 2811POPC   GL136853   9.920  13.590   9.180
 2811POPC   GL236854  10.137  13.856   9.063
 2811POPC   C1A36855   9.717  13.336   8.827
 2811POPC   D2A36856   9.437  13.249   8.461
 2811POPC   C3A36857   9.648  13.262   8.099
 2811POPC   C4A36858   9.588  13.454   7.725
 2811POPC   C1B36859   9.753  13.864   8.794
 2811POPC   C2B36860   9.695  13.702   8.387
 2811POPC   C3B36861   9.912  13.732   7.989
 2811POPC   C4B36862  10.291  13.681   7.775
 2812POPC   NC336863  39.514  44.354   9.430
 2812POPC   PO436864  39.397   0.068   9.300
 2812POPC   GL136865  39.337  44.802   9.018
 2812POPC   GL236866  39.103  44.602   9.195
 2812POPC   C1A36867  39.324  44.907   8.583
 2812POPC   D2A36868  39.501  44.661   8.251
 2812POPC   C3A36869  39.392  44.814   7.852
 2812POPC   C4A36870  39.351  44.556   7.485
 2812POPC   C1B36871  38.912  44.633   8.799
 2812POPC   C2B36872  39.060  44.481   8.406
 2812POPC   C3B36873  39.046  44.445   7.951
 2812POPC   C4B36874  38.698  44.301   7.700
 2813POPC   NC336875  37.630  16.327   9.562
 2813POPC   PO436876  38.045  15.793   9.565
 2813POPC   GL136877  37.793  15.923   9.202
 2813POPC   GL236878  37.605  16.224   9.076
 2813POPC   C1A36879  37.698  15.758   8.806
 2813POPC   D2A36880  37.537  15.901   8.427
 2813POPC   C3A36881  37.653  15.642   8.104
 2813POPC   C4A36882  37.535  15.713   7.701
 2813POPC   C1B36883  37.851  16.229   8.723
 2813POPC   C2B36884  37.743  16.372   8.332
 2813POPC   C3B36885  37.764  16.131   7.968
 2813POPC   C4B36886  38.049  16.239   7.695
 2814POPC   NC336887  38.843  13.406   9.729
 2814POPC   PO436888  38.494  13.968   9.732
 2814POPC   GL136889  38.515  13.740   9.296
 2814POPC   GL236890  38.257  13.474   9.190
 2814POPC   C1A36891  38.434  13.794   8.828
 2814POPC   D2A36892  38.651  13.672   8.442
 2814POPC   C3A36893  38.626  13.935   8.092
 2814POPC   C4A36894  38.277  13.830   7.827
 2814POPC   C1B36895  38.413  13.286   8.777
 2814POPC   C2B36896  38.500  13.128   8.370
 2814POPC   C3B36897  38.502  13.382   8.018
 2814POPC   C4B36898  38.372  13.308   7.641
 2815POPC   NC336899   8.370  28.891   9.344
 2815POPC   PO436900   7.876  29.379   9.457
 2815POPC   GL136901   7.960  29.136   9.104
 2815POPC   GL236902   8.268  29.289   8.982
 2815POPC   C1A36903   7.932  29.054   8.674
 2815POPC   D2A36904   8.210  29.039   8.332
 2815POPC   C3A36905   8.120  29.307   7.976
 2815POPC   C4A36906   7.788  29.137   7.760
 2815POPC   C1B36907   8.586  29.067   8.738
 2815POPC   C2B36908   8.713  29.202   8.361
 2815POPC   C3B36909   8.583  29.085   7.974
 2815POPC   C4B36910   8.488  29.243   7.571
 2816POPC   NC336911  37.817   8.324   9.526
 2816POPC   PO436912  37.167   8.197   9.468
 2816POPC   GL136913  37.440   8.136   9.093
 2816POPC   GL236914  37.752   8.306   9.041
 2816POPC   C1A36915  37.575   8.021   8.665
 2816POPC   D2A36916  37.381   7.934   8.278
 2816POPC   C3A36917  37.588   8.199   8.008
 2816POPC   C4A36918  37.633   8.240   7.586
 2816POPC   C1B36919  38.039   8.325   8.718
 2816POPC   C2B36920  38.027   8.196   8.303
 2816POPC   C3B36921  38.072   8.325   7.856
 2816POPC   C4B36922  38.064   8.247   7.352
 2817POPC   NC336923  17.538   9.314   9.511
 2817POPC   PO436924  17.443   9.960   9.510
 2817POPC   GL136925  17.536   9.722   9.149
 2817POPC   GL236926  17.688   9.416   9.045
 2817POPC   C1A36927  17.572   9.869   8.767
 2817POPC   D2A36928  17.285   9.919   8.465
 2817POPC   C3A36929  17.328  10.136   8.100
 2817POPC   C4A36930  17.476   9.815   7.869
 2817POPC   C1B36931  17.493   9.399   8.618
 2817POPC   C2B36932  17.353   9.425   8.180
 2817POPC   C3B36933  17.450   9.330   7.726
 2817POPC   C4B36934  17.626   9.365   7.251
 2818POPC   NC336935  14.516  24.886   9.490
 2818POPC   PO436936  14.236  25.461   9.556
 2818POPC   GL136937  14.278  25.473   9.105
 2818POPC   GL236938  14.351  25.149   9.097
 2818POPC   C1A36939  14.426  25.400   8.643
 2818POPC   D2A36940  14.748  25.553   8.302
 2818POPC   C3A36941  14.652  25.416   7.876
 2818POPC   C4A36942  14.271  25.432   7.650
 2818POPC   C1B36943  14.106  24.973   8.782
 2818POPC   C2B36944  14.044  25.128   8.381
 2818POPC   C3B36945  14.157  25.045   7.971
 2818POPC   C4B36946  14.197  24.821   7.595
 2819POPC   NC336947  13.460  35.139   9.432
 2819POPC   PO436948  13.913  35.675   9.460
 2819POPC   GL136949  13.660  35.507   9.133
 2819POPC   GL236950  13.387  35.717   9.040
 2819POPC   C1A36951  13.731  35.213   8.785
 2819POPC   D2A36952  14.022  35.098   8.439
 2819POPC   C3A36953  13.821  35.179   8.013
 2819POPC   C4A36954  13.825  35.009   7.564
 2819POPC   C1B36955  13.626  35.759   8.690
 2819POPC   C2B36956  13.546  35.529   8.365
 2819POPC   C3B36957  13.494  35.596   7.979
 2819POPC   C4B36958  13.434  35.301   7.689
 2820POPC   NC336959  33.633   0.042   9.531
 2820POPC   PO436960  34.206   0.379   9.497
 2820POPC   GL136961  33.816   0.405   9.190
 2820POPC   GL236962  33.578   0.137   9.033
 2820POPC   C1A36963  33.653   0.610   8.836
 2820POPC   D2A36964  33.765   0.488   8.448
 2820POPC   C3A36965  33.586   0.570   8.082
 2820POPC   C4A36966  33.548   0.346   7.752
 2820POPC   C1B36967  33.983   0.062   8.860
 2820POPC   C2B36968  34.145   0.158   8.476
 2820POPC   C3B36969  33.935   0.142   8.063
 2820POPC   C4B36970  34.028   0.084   7.634
 2821POPC   NC336971  24.650  34.821   9.820
 2821POPC   PO436972  24.546  35.355   9.490
 2821POPC   GL136973  24.506  35.524   9.104
 2821POPC   GL236974  24.557  35.261   8.898
 2821POPC   C1A36975  24.519  35.715   8.698
 2821POPC   D2A36976  24.627  35.380   8.375
 2821POPC   C3A36977  24.460  35.533   7.999
 2821POPC   C4A36978  24.309  35.617   7.585
 2821POPC   C1B36979  24.923  35.107   8.707
 2821POPC   C2B36980  25.146  35.160   8.311
 2821POPC   C3B36981  24.955  35.097   7.927
 2821POPC   C4B36982  24.604  35.192   7.651
 2822POPC   NC336983  23.477   1.242   9.634
 2822POPC   PO436984  23.580   0.677   9.498
 2822POPC   GL136985  23.547   1.040   9.175
 2822POPC   GL236986  23.831   1.285   9.223
 2822POPC   C1A36987  23.560   1.304   8.787
 2822POPC   D2A36988  23.445   1.156   8.379
 2822POPC   C3A36989  23.563   1.335   7.981
 2822POPC   C4A36990  23.667   1.175   7.609
 2822POPC   C1B36991  24.003   1.554   8.843
 2822POPC   C2B36992  23.889   1.542   8.360
 2822POPC   C3B36993  24.070   1.301   7.968
 2822POPC   C4B36994  24.125   0.952   7.627
 2823POPC   NC336995  39.521   4.643   9.393
 2823POPC   PO436996  39.372   4.106   9.598
 2823POPC   GL136997  39.171   4.302   9.225
 2823POPC   GL236998  39.447   4.321   9.006
 2823POPC   C1A36999  39.030   4.410   8.783
 2823POPC   D2A37000  39.161   4.253   8.422
 2823POPC   C3A37001  38.899   4.415   8.131
 2823POPC   C4A37002  38.858   4.633   7.763
 2823POPC   C1B37003  39.568   4.021   8.690
 2823POPC   C2B37004  39.471   3.876   8.288
 2823POPC   C3B37005  39.493   4.185   8.002
 2823POPC   C4B37006  39.216   4.293   7.712
 2824POPC   NC337007  20.443   1.934   9.520
 2824POPC   PO437008  20.946   2.241   9.504
 2824POPC   GL137009  20.635   2.252   9.159
 2824POPC   GL237010  20.541   1.899   9.033
 2824POPC   C1A37011  20.449   2.302   8.752
 2824POPC   D2A37012  20.608   2.203   8.356
 2824POPC   C3A37013  20.359   2.303   8.015
 2824POPC   C4A37014  20.364   2.062   7.628
 2824POPC   C1B37015  20.861   1.899   8.717
 2824POPC   C2B37016  20.955   1.836   8.280
 2824POPC   C3B37017  20.767   1.950   7.902
 2824POPC   C4B37018  20.802   1.772   7.475
 2825POPC   NC337019  37.627  33.643   9.821
 2825POPC   PO437020  37.172  33.537   9.350
 2825POPC   GL137021  37.460  33.749   9.085
 2825POPC   GL237022  37.780  33.891   9.120
 2825POPC   C1A37023  37.575  33.812   8.658
 2825POPC   D2A37024  37.627  33.994   8.258
 2825POPC   C3A37025  37.699  33.664   7.981
 2825POPC   C4A37026  37.412  33.485   7.686
 2825POPC   C1B37027  37.947  34.164   8.768
 2825POPC   C2B37028  38.056  34.253   8.325
 2825POPC   C3B37029  37.965  34.123   7.853
 2825POPC   C4B37030  37.982  34.199   7.384
 2826POPC   NC337031  40.118   3.304   9.552
 2826POPC   PO437032  40.099   3.953   9.601
 2826POPC   GL137033  40.171   3.686   9.191
 2826POPC   GL237034  40.380   3.380   9.093
 2826POPC   C1A37035  40.011   3.558   8.775
 2826POPC   D2A37036  39.835   3.574   8.391
 2826POPC   C3A37037  39.912   3.439   7.989
 2826POPC   C4A37038  39.984   3.541   7.566
 2826POPC   C1B37039  40.340   3.160   8.743
 2826POPC   C2B37040  40.281   3.289   8.347
 2826POPC   C3B37041  40.350   3.132   7.957
 2826POPC   C4B37042  40.466   3.323   7.587
 2827POPC   NC337043  36.565  12.469   9.174
 2827POPC   PO437044  37.140  12.624   9.525
 2827POPC   GL137045  36.988  12.747   9.149
 2827POPC   GL237046  37.078  12.389   9.059
 2827POPC   C1A37047  36.908  13.083   8.825
 2827POPC   D2A37048  36.734  13.252   8.407
 2827POPC   C3A37049  37.060  13.329   8.092
 2827POPC   C4A37050  37.126  13.159   7.705
 2827POPC   C1B37051  37.023  12.597   8.661
 2827POPC   C2B37052  37.061  12.874   8.323
 2827POPC   C3B37053  36.805  12.869   7.990
 2827POPC   C4B37054  36.837  12.436   7.897
 2828POPC   NC337055  18.255  39.102   9.606
 2828POPC   PO437056  17.818  39.453   9.359
 2828POPC   GL137057  18.270  39.424   9.163
 2828POPC   GL237058  18.441  39.080   9.124
 2828POPC   C1A37059  18.482  39.407   8.740
 2828POPC   D2A37060  18.340  39.174   8.393
 2828POPC   C3A37061  18.246  39.376   8.038
 2828POPC   C4A37062  18.414  39.305   7.662
 2828POPC   C1B37063  18.509  38.826   8.737
 2828POPC   C2B37064  18.469  38.680   8.295
 2828POPC   C3B37065  18.223  38.883   7.943
 2828POPC   C4B37066  17.939  39.087   7.618
 2829POPC   NC337067   8.976  14.034   9.363
 2829POPC   PO437068   8.712  14.601   9.575
 2829POPC   GL137069   8.918  14.524   9.174
 2829POPC   GL237070   9.202  14.692   8.990
 2829POPC   C1A37071   8.750  14.541   8.768
 2829POPC   D2A37072   8.578  14.506   8.356
 2829POPC   C3A37073   8.663  14.320   7.945
 2829POPC   C4A37074   9.001  14.475   7.732
 2829POPC   C1B37075   9.173  14.317   8.635
 2829POPC   C2B37076   9.161  14.215   8.164
 2829POPC   C3B37077   9.465  14.335   7.817
 2829POPC   C4B37078   9.439  14.784   7.660
 2830POPC   NC337079  44.106  28.751   9.523
 2830POPC   PO437080  43.691  28.210   9.396
 2830POPC   GL137081  43.717  28.599   9.093
 2830POPC   GL237082  43.910  28.911   9.092
 2830POPC   C1A37083  43.790  28.556   8.662
 2830POPC   D2A37084  43.856  28.187   8.399
 2830POPC   C3A37085  43.877  28.329   7.990
 2830POPC   C4A37086  43.924  28.192   7.557
 2830POPC   C1B37087  44.253  28.770   8.828
 2830POPC   C2B37088  44.269  28.565   8.410
 2830POPC   C3B37089  44.217  28.749   8.002
 2830POPC   C4B37090  43.912  28.713   7.672
 2831POPC   NC337091  25.869  10.787   9.539
 2831POPC   PO437092  26.145  10.342   9.985
 2831POPC   GL137093  26.187  10.388   9.422
 2831POPC   GL237094  26.501  10.299   9.189
 2831POPC   C1A37095  26.118  10.682   8.971
 2831POPC   D2A37096  25.935  10.592   8.533
 2831POPC   C3A37097  25.872  10.756   8.102
 2831POPC   C4A37098  26.110  10.865   7.773
 2831POPC   C1B37099  26.239  10.221   8.822
 2831POPC   C2B37100  26.114  10.116   8.413
 2831POPC   C3B37101  25.968  10.253   8.071
 2831POPC   C4B37102  26.200  10.351   7.737
 2832POPC   NC337103  26.082  40.931   9.652
 2832POPC   PO437104  25.647  41.452   9.416
 2832POPC   GL137105  25.838  41.510   9.026
 2832POPC   GL237106  26.081  41.763   9.010
 2832POPC   C1A37107  25.890  41.553   8.574
 2832POPC   D2A37108  25.835  41.362   8.169
 2832POPC   C3A37109  26.100  41.472   7.825
 2832POPC   C4A37110  26.191  41.456   7.391
 2832POPC   C1B37111  26.152  41.978   8.620
 2832POPC   C2B37112  26.164  41.810   8.215
 2832POPC   C3B37113  26.077  41.989   7.826
 2832POPC   C4B37114  25.880  41.837   7.445
 2833POPC   NC337115   7.742  28.907   9.518
 2833POPC   PO437116   7.042  28.896   9.327
 2833POPC   GL137117   7.365  28.958   9.049
 2833POPC   GL237118   7.454  29.254   9.202
 2833POPC   C1A37119   7.416  28.923   8.602
 2833POPC   D2A37120   7.637  29.015   8.231
 2833POPC   C3A37121   7.329  28.898   7.918
 2833POPC   C4A37122   7.269  29.104   7.539
 2833POPC   C1B37123   7.540  29.379   8.785
 2833POPC   C2B37124   7.330  29.409   8.382
 2833POPC   C3B37125   7.371  29.405   7.937
 2833POPC   C4B37126   7.573  29.521   7.545
 2834POPC   NC337127  35.687  22.611   9.465
 2834POPC   PO437128  36.265  22.942   9.547
 2834POPC   GL137129  36.078  23.101   9.181
 2834POPC   GL237130  35.910  22.821   9.025
 2834POPC   C1A37131  36.162  23.175   8.767
 2834POPC   D2A37132  36.173  22.785   8.534
 2834POPC   C3A37133  36.067  22.836   8.124
 2834POPC   C4A37134  36.240  23.040   7.769
 2834POPC   C1B37135  35.678  22.734   8.668
 2834POPC   C2B37136  35.556  22.740   8.259
 2834POPC   C3B37137  35.660  22.767   7.834
 2834POPC   C4B37138  35.670  23.083   7.560
 2835POPC   NC337139  24.561  28.059   9.384
 2835POPC   PO437140  24.747  28.727   9.469
 2835POPC   GL137141  24.481  28.558   9.166
 2835POPC   GL237142  24.182  28.359   9.250
 2835POPC   C1A37143  24.582  28.392   8.774
 2835POPC   D2A37144  24.634  28.596   8.369
 2835POPC   C3A37145  24.475  28.407   8.013
 2835POPC   C4A37146  24.413  28.341   7.578
 2835POPC   C1B37147  24.123  28.186   8.840
 2835POPC   C2B37148  24.278  28.149   8.407
 2835POPC   C3B37149  24.044  28.144   8.026
 2835POPC   C4B37150  24.101  27.950   7.641
 2836POPC   NC337151  39.741  19.443   9.354
 2836POPC   PO437152  40.131  19.842   9.723
 2836POPC   GL137153  40.081  19.915   9.285
 2836POPC   GL237154  39.768  19.849   9.074
 2836POPC   C1A37155  40.219  19.985   8.869
 2836POPC   D2A37156  40.132  19.756   8.507
 2836POPC   C3A37157  40.178  20.024   8.156
 2836POPC   C4A37158  40.058  19.941   7.708
 2836POPC   C1B37159  39.606  19.742   8.661
 2836POPC   C2B37160  39.709  19.808   8.221
 2836POPC   C3B37161  39.547  20.050   7.899
 2836POPC   C4B37162  39.575  19.888   7.501
 2837POPC   NC337163  25.580  30.659   9.481
 2837POPC   PO437164  24.971  30.566   9.719
 2837POPC   GL137165  25.147  30.471   9.270
 2837POPC   GL237166  25.273  30.756   9.092
 2837POPC   C1A37167  25.072  30.361   8.808
 2837POPC   D2A37168  24.862  30.425   8.398
 2837POPC   C3A37169  25.122  30.375   8.037
 2837POPC   C4A37170  25.127  30.645   7.675
 2837POPC   C1B37171  25.550  30.567   8.776
 2837POPC   C2B37172  25.499  30.560   8.328
 2837POPC   C3B37173  25.578  30.756   7.887
 2837POPC   C4B37174  25.475  30.889   7.403
 2838POPC   NC337175  37.052  16.696   9.906
 2838POPC   PO437176  36.734  16.483   9.370
 2838POPC   GL137177  36.727  16.673   9.001
 2838POPC   GL237178  37.024  16.513   8.882
 2838POPC   C1A37179  36.751  16.789   8.571
 2838POPC   D2A37180  37.125  16.907   8.456
 2838POPC   C3A37181  37.008  16.791   8.071
 2838POPC   C4A37182  36.848  17.002   7.749
 2838POPC   C1B37183  36.703  16.291   8.635
 2838POPC   C2B37184  36.556  16.144   8.255
 2838POPC   C3B37185  36.865  16.290   7.968
 2838POPC   C4B37186  37.034  16.527   7.633
 2839POPC   NC337187  34.684  16.661   9.458
 2839POPC   PO437188  34.277  17.219   9.648
 2839POPC   GL137189  34.352  17.124   9.185
 2839POPC   GL237190  34.271  16.768   9.160
 2839POPC   C1A37191  34.475  17.013   8.714
 2839POPC   D2A37192  34.648  17.253   8.317
 2839POPC   C3A37193  34.624  17.044   7.899
 2839POPC   C4A37194  34.813  16.652   7.735
 2839POPC   C1B37195  34.406  16.487   8.817
 2839POPC   C2B37196  34.604  16.357   8.451
 2839POPC   C3B37197  34.489  16.374   8.052
 2839POPC   C4B37198  34.293  16.669   7.795
 2840POPC   NC337199  39.691   8.903   9.435
 2840POPC   PO437200  40.336   8.754   9.503
 2840POPC   GL137201  40.191   9.070   9.243
 2840POPC   GL237202  39.938   9.054   9.013
 2840POPC   C1A37203  40.375   9.030   8.807
 2840POPC   D2A37204  40.201   8.853   8.457
 2840POPC   C3A37205  40.322   8.889   8.072
 2840POPC   C4A37206  40.183   8.980   7.694
 2840POPC   C1B37207  39.929   9.261   8.629
 2840POPC   C2B37208  39.775   9.076   8.271
 2840POPC   C3B37209  39.739   9.179   7.877
 2840POPC   C4B37210  39.408   9.159   7.626
 2841POPC   NC337211  21.179  23.291   9.492
 2841POPC   PO437212  21.716  22.825   9.619
 2841POPC   GL137213  21.494  22.978   9.250
 2841POPC   GL237214  21.130  22.851   9.231
 2841POPC   C1A37215  21.418  23.054   8.829
 2841POPC   D2A37216  21.513  22.782   8.519
 2841POPC   C3A37217  21.426  22.963   8.175
 2841POPC   C4A37218  21.502  22.914   7.789
 2841POPC   C1B37219  20.920  23.059   8.845
 2841POPC   C2B37220  21.087  23.230   8.454
 2841POPC   C3B37221  20.939  23.080   8.031
 2841POPC   C4B37222  21.052  22.963   7.599
 2842POPC   NC337223  26.708  13.200   9.377
 2842POPC   PO437224  27.076  12.567   9.425
 2842POPC   GL137225  26.821  12.754   9.084
 2842POPC   GL237226  26.996  13.072   8.994
 2842POPC   C1A37227  26.802  12.815   8.617
 2842POPC   D2A37228  26.963  13.103   8.284
 2842POPC   C3A37229  26.898  12.827   7.936
 2842POPC   C4A37230  26.582  12.523   7.877
 2842POPC   C1B37231  26.736  13.318   8.750
 2842POPC   C2B37232  26.458  13.191   8.454
 2842POPC   C3B37233  26.413  13.310   8.040
 2842POPC   C4B37234  26.549  13.095   7.685
 2843POPC   NC337235  42.722  41.672   9.345
 2843POPC   PO437236  42.091  41.864   9.488
 2843POPC   GL137237  42.098  41.971   9.099
 2843POPC   GL237238  42.363  41.742   9.005
 2843POPC   C1A37239  41.924  41.820   8.751
 2843POPC   D2A37240  42.136  41.532   8.543
 2843POPC   C3A37241  41.999  41.585   8.170
 2843POPC   C4A37242  42.120  41.480   7.779
 2843POPC   C1B37243  42.607  41.846   8.671
 2843POPC   C2B37244  42.417  41.866   8.294
 2843POPC   C3B37245  42.498  41.452   8.117
 2843POPC   C4B37246  42.808  41.440   7.795
 2844POPC   NC337247   0.207  34.197   9.162
 2844POPC   PO437248   0.698  33.761   9.351
 2844POPC   GL137249   0.524  33.714   9.004
 2844POPC   GL237250   0.156  33.697   8.963
 2844POPC   C1A37251   0.431  33.916   8.606
 2844POPC   D2A37252   0.124  33.778   8.337
 2844POPC   C3A37253   0.371  33.814   7.985
 2844POPC   C4A37254   0.366  34.131   7.706
 2844POPC   C1B37255  44.963  33.375   8.667
 2844POPC   C2B37256  44.782  33.337   8.239
 2844POPC   C3B37257   0.013  33.450   7.870
 2844POPC   C4B37258  44.999  33.809   7.612
 2845POPC   NC337259  25.483  37.364   9.485
 2845POPC   PO437260  25.018  37.961   9.359
 2845POPC   GL137261  25.129  37.524   9.149
 2845POPC   GL237262  24.879  37.271   9.072
 2845POPC   C1A37263  25.409  37.426   8.786
 2845POPC   D2A37264  25.441  37.650   8.395
 2845POPC   C3A37265  25.428  37.461   7.975
 2845POPC   C4A37266  25.512  37.837   7.750
 2845POPC   C1B37267  24.896  37.463   8.669
 2845POPC   C2B37268  24.959  37.509   8.230
 2845POPC   C3B37269  24.983  37.748   7.842
 2845POPC   C4B37270  25.101  37.586   7.438
 2846POPC   NC337271  18.496  33.660   9.608
 2846POPC   PO437272  18.066  34.111   9.411
 2846POPC   GL137273  18.421  33.970   9.196
 2846POPC   GL237274  18.231  33.687   9.148
 2846POPC   C1A37275  18.427  33.924   8.749
 2846POPC   D2A37276  18.131  33.938   8.409
 2846POPC   C3A37277  18.422  34.009   8.109
 2846POPC   C4A37278  18.288  33.987   7.708
 2846POPC   C1B37279  17.947  33.609   8.792
 2846POPC   C2B37280  18.073  33.422   8.396
 2846POPC   C3B37281  18.135  33.569   7.994
 2846POPC   C4B37282  18.044  33.561   7.564
 2847POPC   NC337283  12.641  42.663   9.382
 2847POPC   PO437284  12.834  43.329   9.550
 2847POPC   GL137285  12.866  43.190   9.143
 2847POPC   GL237286  12.536  43.127   9.024
 2847POPC   C1A37287  12.879  43.427   8.755
 2847POPC   D2A37288  12.793  43.456   8.331
 2847POPC   C3A37289  12.834  43.139   8.065
 2847POPC   C4A37290  12.614  43.152   7.701
 2847POPC   C1B37291  12.610  43.001   8.583
 2847POPC   C2B37292  12.458  42.818   8.195
 2847POPC   C3B37293  12.414  42.699   7.742
 2847POPC   C4B37294  12.515  42.806   7.293
 2848POPC   NC337295  36.674  12.490   9.681
 2848POPC   PO437296  36.817  11.884   9.417
 2848POPC   GL137297  36.972  11.850   9.051
 2848POPC   GL237298  37.313  11.911   9.070
 2848POPC   C1A37299  37.031  12.071   8.671
 2848POPC   D2A37300  36.812  12.185   8.358
 2848POPC   C3A37301  36.948  11.944   8.097
 2848POPC   C4A37302  36.875  11.961   7.714
 2848POPC   C1B37303  37.232  11.604   8.697
 2848POPC   C2B37304  37.083  11.484   8.270
 2848POPC   C3B37305  37.311  11.641   7.874
 2848POPC   C4B37306  37.283  11.848   7.461
 2849POPC   NC337307  43.342  28.537   9.432
 2849POPC   PO437308  42.720  28.381   9.562
 2849POPC   GL137309  42.990  28.268   9.173
 2849POPC   GL237310  42.998  27.862   9.115
 2849POPC   C1A37311  43.259  28.474   8.799
 2849POPC   D2A37312  43.337  28.311   8.379
 2849POPC   C3A37313  43.176  28.497   8.011
 2849POPC   C4A37314  43.465  28.459   7.670
 2849POPC   C1B37315  42.983  28.062   8.688
 2849POPC   C2B37316  42.789  28.333   8.350
 2849POPC   C3B37317  42.717  28.202   7.917
 2849POPC   C4B37318  43.059  28.149   7.629
 2850POPC   NC337319   4.096  22.640   9.493
 2850POPC   PO437320   4.530  23.115   9.553
 2850POPC   GL137321   4.299  23.242   9.188
 2850POPC   GL237322   4.330  22.946   9.038
 2850POPC   C1A37323   4.090  23.304   8.784
 2850POPC   D2A37324   4.093  22.960   8.483
 2850POPC   C3A37325   4.167  23.034   8.065
 2850POPC   C4A37326   4.348  23.045   7.711
 2850POPC   C1B37327   4.580  23.225   8.717
 2850POPC   C2B37328   4.657  23.040   8.292
 2850POPC   C3B37329   4.553  22.660   8.018
 2850POPC   C4B37330   4.543  22.612   7.539
 2851POPC   NC337331   1.765   7.186   9.513
 2851POPC   PO437332   2.087   7.801   9.479
 2851POPC   GL137333   1.928   7.571   9.119
 2851POPC   GL237334   1.851   7.218   9.034
 2851POPC   C1A37335   1.878   7.594   8.694
 2851POPC   D2A37336   1.916   7.338   8.332
 2851POPC   C3A37337   1.898   7.551   7.935
 2851POPC   C4A37338   1.644   7.571   7.577
 2851POPC   C1B37339   2.204   7.159   8.778
 2851POPC   C2B37340   2.382   7.119   8.394
 2851POPC   C3B37341   2.212   7.081   7.984
 2851POPC   C4B37342   2.451   7.055   7.658
 2852POPC   NC337343  13.481  35.910   9.520
 2852POPC   PO437344  13.927  36.486   9.453
 2852POPC   GL137345  13.768  36.283   9.062
 2852POPC   GL237346  13.430  36.228   9.097
 2852POPC   C1A37347  13.635  36.256   8.591
 2852POPC   D2A37348  13.711  36.026   8.201
 2852POPC   C3A37349  13.785  36.210   7.797
 2852POPC   C4A37350  13.907  36.026   7.384
 2852POPC   C1B37351  13.185  36.131   8.761
 2852POPC   C2B37352  13.235  35.987   8.364
 2852POPC   C3B37353  13.247  36.043   7.947
 2852POPC   C4B37354  13.452  35.900   7.572
 2853POPC   NC337355  14.383  36.337   9.461
 2853POPC   PO437356  14.808  35.890   9.815
 2853POPC   GL137357  14.577  35.831   9.377
 2853POPC   GL237358  14.812  35.631   9.210
 2853POPC   C1A37359  14.305  35.916   8.966
 2853POPC   D2A37360  14.101  36.059   8.553
 2853POPC   C3A37361  14.207  36.124   8.085
 2853POPC   C4A37362  14.334  36.138   7.625
 2853POPC   C1B37363  14.631  35.548   8.812
 2853POPC   C2B37364  14.513  35.767   8.435
 2853POPC   C3B37365  14.475  35.709   7.995
 2853POPC   C4B37366  14.704  35.748   7.660
 2854POPC   NC337367  14.030  36.947   9.460
 2854POPC   PO437368  14.562  36.753   9.396
 2854POPC   GL137369  14.277  36.682   9.067
 2854POPC   GL237370  14.115  36.994   8.956
 2854POPC   C1A37371  14.393  36.730   8.606
 2854POPC   D2A37372  14.351  36.895   8.182
 2854POPC   C3A37373  14.398  36.587   7.876
 2854POPC   C4A37374  14.554  36.600   7.452
 2854POPC   C1B37375  13.915  36.645   8.725
 2854POPC   C2B37376  13.992  36.521   8.325
 2854POPC   C3B37377  13.898  36.704   7.962
 2854POPC   C4B37378  13.997  36.611   7.547
 2855POPC   NC337379   4.489  44.159   9.495
 2855POPC   PO437380   4.182  43.508   9.482
 2855POPC   GL137381   4.303  43.554   9.080
 2855POPC   GL237382   4.557  43.812   9.110
 2855POPC   C1A37383   4.329  43.714   8.650
 2855POPC   D2A37384   4.428  43.805   8.223
 2855POPC   C3A37385   4.086  43.936   7.999
 2855POPC   C4A37386   3.989  44.239   7.706
 2855POPC   C1B37387   4.569  44.165   8.813
 2855POPC   C2B37388   4.369  44.293   8.401
 2855POPC   C3B37389   4.487  44.256   7.978
 2855POPC   C4B37390   4.737  44.199   7.641
 2856POPC   NC337391   4.446  21.705   9.552
 2856POPC   PO437392   4.001  21.322   9.322
 2856POPC   GL137393   4.469  21.358   9.153
 2856POPC   GL237394   4.572  21.698   9.045
 2856POPC   C1A37395   4.678  21.260   8.727
 2856POPC   D2A37396   4.508  20.997   8.359
 2856POPC   C3A37397   4.436  21.168   7.932
 2856POPC   C4A37398   4.541  21.596   7.829
 2856POPC   C1B37399   4.240  21.539   8.727
 2856POPC   C2B37400   4.267  21.556   8.283
 2856POPC   C3B37401   4.033  21.568   7.910
 2856POPC   C4B37402   4.134  21.345   7.520
 2857POPC   NC337403   9.884   5.557   9.345
 2857POPC   PO437404   9.369   6.058   9.470
 2857POPC   GL137405   9.572   5.916   9.140
 2857POPC   GL237406   9.401   5.607   9.140
 2857POPC   C1A37407   9.735   5.972   8.727
 2857POPC   D2A37408   9.547   6.155   8.362
 2857POPC   C3A37409   9.762   6.090   7.984
 2857POPC   C4A37410   9.949   5.770   7.708
 2857POPC   C1B37411   9.271   5.737   8.737
 2857POPC   C2B37412   9.456   5.655   8.361
 2857POPC   C3B37413   9.309   5.764   7.988
 2857POPC   C4B37414   9.375   6.011   7.655
 2858POPC   NC337415  27.985   4.497   9.548
 2858POPC   PO437416  27.346   4.498   9.514
 2858POPC   GL137417  27.485   4.195   9.212
 2858POPC   GL237418  27.855   4.141   9.153
 2858POPC   C1A37419  27.417   4.159   8.789
 2858POPC   D2A37420  27.734   4.091   8.525
 2858POPC   C3A37421  27.644   4.190   8.116
 2858POPC   C4A37422  27.247   4.220   7.895
 2858POPC   C1B37423  27.792   4.517   8.861
 2858POPC   C2B37424  27.699   4.675   8.419
 2858POPC   C3B37425  27.870   4.633   7.991
 2858POPC   C4B37426  27.662   4.415   7.643
 2859POPC   NC337427   1.606   3.161   9.484
 2859POPC   PO437428   1.185   3.741   9.545
 2859POPC   GL137429   1.165   3.745   9.130
 2859POPC   GL237430   1.177   3.412   9.103
 2859POPC   C1A37431   0.996   3.715   8.714
 2859POPC   D2A37432   1.222   3.642   8.350
 2859POPC   C3A37433   1.074   3.691   7.939
 2859POPC   C4A37434   0.804   3.511   7.607
 2859POPC   C1B37435   1.309   3.243   8.730
 2859POPC   C2B37436   1.442   3.152   8.337
 2859POPC   C3B37437   1.261   3.222   7.938
 2859POPC   C4B37438   1.180   3.178   7.515
 2860POPC   NC337439   3.126  41.260   9.676
 2860POPC   PO437440   3.700  41.580   9.466
 2860POPC   GL137441   3.582  41.492   9.086
 2860POPC   GL237442   3.340  41.278   9.200
 2860POPC   C1A37443   3.699  41.785   8.775
 2860POPC   D2A37444   4.003  41.958   8.508
 2860POPC   C3A37445   3.801  41.873   8.143
 2860POPC   C4A37446   3.841  41.626   7.795
 2860POPC   C1B37447   3.279  41.251   8.763
 2860POPC   C2B37448   3.480  41.486   8.410
 2860POPC   C3B37449   3.362  41.586   7.992
 2860POPC   C4B37450   3.210  41.323   7.680
 2861POPC   NC337451  22.793  30.844   9.733
 2861POPC   PO437452  23.366  30.866   9.496
 2861POPC   GL137453  23.072  30.698   9.209
 2861POPC   GL237454  22.759  30.892   9.223
 2861POPC   C1A37455  23.099  30.835   8.784
 2861POPC   D2A37456  23.170  31.097   8.423
 2861POPC   C3A37457  23.099  30.790   8.112
 2861POPC   C4A37458  23.252  30.634   7.730
 2861POPC   C1B37459  22.552  30.811   8.869
 2861POPC   C2B37460  22.690  30.864   8.457
 2861POPC   C3B37461  22.644  30.554   8.171
 2861POPC   C4B37462  22.728  30.561   7.756
 2862POPC   NC337463  31.078  35.274   9.556
 2862POPC   PO437464  31.513  35.768   9.776
 2862POPC   GL137465  31.568  35.508   9.329
 2862POPC   GL237466  31.279  35.367   9.108
 2862POPC   C1A37467  31.693  35.497   8.845
 2862POPC   D2A37468  31.439  35.555   8.477
 2862POPC   C3A37469  31.618  35.621   8.057
 2862POPC   C4A37470  31.650  35.434   7.648
 2862POPC   C1B37471  31.365  35.035   8.798
 2862POPC   C2B37472  31.304  34.983   8.338
 2862POPC   C3B37473  31.427  35.052   7.918
 2862POPC   C4B37474  31.202  35.178   7.555
 2863POPC   NC337475   4.913  26.600   9.723
 2863POPC   PO437476   5.462  26.974   9.393
 2863POPC   GL137477   5.249  26.764   9.070
 2863POPC   GL237478   5.042  26.498   9.186
 2863POPC   C1A37479   5.050  26.801   8.691
 2863POPC   D2A37480   4.964  27.113   8.367
 2863POPC   C3A37481   4.953  26.899   7.980
 2863POPC   C4A37482   5.367  26.864   7.832
 2863POPC   C1B37483   4.881  26.330   8.791
 2863POPC   C2B37484   4.963  26.415   8.356
 2863POPC   C3B37485   4.708  26.430   7.989
 2863POPC   C4B37486   4.770  26.494   7.559
 2864POPC   NC337487  13.414  27.986   9.268
 2864POPC   PO437488  13.840  27.341   9.342
 2864POPC   GL137489  13.524  27.500   9.105
 2864POPC   GL237490  13.193  27.319   9.197
 2864POPC   C1A37491  13.592  27.698   8.677
 2864POPC   D2A37492  13.518  27.755   8.226
 2864POPC   C3A37493  13.776  27.523   7.922
 2864POPC   C4A37494  14.111  27.192   7.823
 2864POPC   C1B37495  13.223  27.332   8.755
 2864POPC   C2B37496  13.041  27.417   8.395
 2864POPC   C3B37497  13.189  27.394   8.035
 2864POPC   C4B37498  13.330  27.508   7.678
 2865POPC   NC337499   0.138   7.632   9.385
 2865POPC   PO437500   0.691   7.235   9.403
 2865POPC   GL137501   0.536   7.475   9.110
 2865POPC   GL237502   0.235   7.291   9.048
 2865POPC   C1A37503   0.559   7.525   8.684
 2865POPC   D2A37504   0.698   7.260   8.358
 2865POPC   C3A37505   0.518   7.204   7.931
 2865POPC   C4A37506   0.473   7.558   7.691
 2865POPC   C1B37507   0.048   7.465   8.688
 2865POPC   C2B37508   0.216   7.569   8.287
 2865POPC   C3B37509   0.019   7.422   7.930
 2865POPC   C4B37510   0.087   7.253   7.551
 2866POPC   NC337511  34.110   6.037   9.857
 2866POPC   PO437512  33.597   6.504   9.805
 2866POPC   GL137513  33.646   6.504   9.276
 2866POPC   GL237514  33.966   6.637   9.138
 2866POPC   C1A37515  33.566   6.685   8.822
 2866POPC   D2A37516  33.767   6.840   8.460
 2866POPC   C3A37517  33.598   6.732   8.061
 2866POPC   C4A37518  33.622   6.645   7.626
 2866POPC   C1B37519  34.202   6.655   8.754
 2866POPC   C2B37520  34.136   6.499   8.360
 2866POPC   C3B37521  34.084   6.689   7.999
 2866POPC   C4B37522  34.055   6.970   7.667
 2867POPC   NC337523  27.090  41.253   9.648
 2867POPC   PO437524  27.760  41.460   9.573
 2867POPC   GL137525  27.611  41.517   9.131
 2867POPC   GL237526  27.276  41.344   9.117
 2867POPC   C1A37527  27.741  41.834   8.809
 2867POPC   D2A37528  27.973  41.844   8.410
 2867POPC   C3A37529  27.848  41.499   8.147
 2867POPC   C4A37530  27.676  41.452   7.755
 2867POPC   C1B37531  27.256  41.607   8.742
 2867POPC   C2B37532  27.447  41.770   8.371
 2867POPC   C3B37533  27.375  41.830   7.959
 2867POPC   C4B37534  27.009  41.869   7.713
 2868POPC   NC337535   3.896  21.831   9.298
 2868POPC   PO437536   4.469  22.167   9.580
 2868POPC   GL137537   4.302  22.137   9.170
 2868POPC   GL237538   4.180  22.459   9.004
 2868POPC   C1A37539   4.279  22.039   8.734
 2868POPC   D2A37540   4.370  22.315   8.405
 2868POPC   C3A37541   4.387  22.031   8.087
 2868POPC   C4A37542   4.444  22.143   7.701
 2868POPC   C1B37543   3.903  22.367   8.643
 2868POPC   C2B37544   3.893  22.043   8.305
 2868POPC   C3B37545   3.927  22.170   7.884
 2868POPC   C4B37546   4.098  22.595   7.789
 2869POPC   NC337547  39.275  27.316   9.503
 2869POPC   PO437548  39.126  27.997   9.616
 2869POPC   GL137549  39.164  27.705   9.213
 2869POPC   GL237550  39.225  27.952   9.027
 2869POPC   C1A37551  39.391  27.530   8.824
 2869POPC   D2A37552  39.514  27.822   8.510
 2869POPC   C3A37553  39.305  27.646   8.160
 2869POPC   C4A37554  39.340  27.692   7.741
 2869POPC   C1B37555  38.987  27.809   8.647
 2869POPC   C2B37556  38.808  27.623   8.235
 2869POPC   C3B37557  38.856  27.863   7.823
 2869POPC   C4B37558  39.077  27.954   7.405
 2870POPC   NC337559  21.753  20.943   9.927
 2870POPC   PO437560  22.031  20.491   9.518
 2870POPC   GL137561  21.995  20.801   9.195
 2870POPC   GL237562  22.295  20.660   9.068
 2870POPC   C1A37563  21.960  20.829   8.727
 2870POPC   D2A37564  22.140  20.641   8.365
 2870POPC   C3A37565  21.963  20.753   7.979
 2870POPC   C4A37566  21.710  20.566   7.669
 2870POPC   C1B37567  22.526  20.812   8.725
 2870POPC   C2B37568  22.661  20.649   8.347
 2870POPC   C3B37569  22.487  20.654   7.929
 2870POPC   C4B37570  22.610  21.037   7.723
 2871POPC   NC337571  39.344  43.496   9.406
 2871POPC   PO437572  39.080  44.129   9.388
 2871POPC   GL137573  39.395  44.042   9.056
 2871POPC   GL237574  39.512  43.730   8.991
 2871POPC   C1A37575  39.563  44.186   8.673
 2871POPC   D2A37576  39.399  44.099   8.275
 2871POPC   C3A37577  39.485  44.201   7.862
 2871POPC   C4A37578  39.149  44.018   7.667
 2871POPC   C1B37579  39.381  43.690   8.611
 2871POPC   C2B37580  39.190  43.614   8.226
 2871POPC   C3B37581  39.486  43.687   7.954
 2871POPC   C4B37582  39.574  43.772   7.572
 2872POPC   NC337583  43.679  34.152   9.393
 2872POPC   PO437584  44.179  34.622   9.519
 2872POPC   GL137585  43.976  34.475   9.122
 2872POPC   GL237586  43.969  34.132   8.957
 2872POPC   C1A37587  43.844  34.587   8.713
 2872POPC   D2A37588  43.993  34.557   8.302
 2872POPC   C3A37589  43.814  34.336   7.978
 2872POPC   C4A37590  44.071  34.307   7.625
 2872POPC   C1B37591  43.670  34.115   8.556
 2872POPC   C2B37592  43.468  34.484   8.343
 2872POPC   C3B37593  43.548  34.780   8.005
 2872POPC   C4B37594  43.783  34.761   7.610
 2873POPC   NC337595  17.621  16.021   9.831
 2873POPC   PO437596  17.116  15.603   9.629
 2873POPC   GL137597  17.296  15.786   9.216
 2873POPC   GL237598  17.615  15.979   9.017
 2873POPC   C1A37599  17.180  15.876   8.788
 2873POPC   D2A37600  17.465  15.929   8.517
 2873POPC   C3A37601  17.478  15.976   8.099
 2873POPC   C4A37602  17.803  15.773   7.897
 2873POPC   C1B37603  17.815  16.269   8.718
 2873POPC   C2B37604  17.651  16.423   8.349
 2873POPC   C3B37605  17.729  16.413   7.917
 2873POPC   C4B37606  17.371  16.267   7.663
 2874POPC   NC337607   1.917   2.224   9.329
 2874POPC   PO437608   2.320   1.701   9.489
 2874POPC   GL137609   1.994   1.764   9.126
 2874POPC   GL237610   1.643   1.613   9.093
 2874POPC   C1A37611   1.984   1.979   8.722
 2874POPC   D2A37612   2.245   2.153   8.410
 2874POPC   C3A37613   2.071   2.163   8.037
 2874POPC   C4A37614   2.240   1.969   7.699
 2874POPC   C1B37615   1.528   1.732   8.654
 2874POPC   C2B37616   1.683   1.934   8.278
 2874POPC   C3B37617   1.728   1.858   7.811
 2874POPC   C4B37618   1.898   1.603   7.467
 2875POPC   NC337619  18.092  18.360   9.483
 2875POPC   PO437620  18.683  18.480   9.414
 2875POPC   GL137621  18.413  18.368   9.088
 2875POPC   GL237622  18.161  18.089   9.061
 2875POPC   C1A37623  18.210  18.431   8.703
 2875POPC   D2A37624  18.321  18.203   8.329
 2875POPC   C3A37625  18.253  18.402   7.990
 2875POPC   C4A37626  18.185  18.449   7.601
 2875POPC   C1B37627  17.993  17.959   8.641
 2875POPC   C2B37628  18.007  17.817   8.185
 2875POPC   C3B37629  17.866  18.086   7.838
 2875POPC   C4B37630  17.915  18.091   7.387
 2876POPC   NC337631   2.198   4.781   9.530
 2876POPC   PO437632   1.661   5.208   9.423
 2876POPC   GL137633   1.857   4.922   9.146
 2876POPC   GL237634   2.215   5.015   9.045
 2876POPC   C1A37635   1.839   4.836   8.722
 2876POPC   D2A37636   1.959   5.023   8.359
 2876POPC   C3A37637   1.882   4.876   7.953
 2876POPC   C4A37638   1.590   4.695   7.664
 2876POPC   C1B37639   2.358   5.282   8.664
 2876POPC   C2B37640   2.335   5.306   8.167
 2876POPC   C3B37641   2.337   5.040   7.768
 2876POPC   C4B37642   2.410   5.179   7.353
 2877POPC   NC337643  40.547   2.080   9.637
 2877POPC   PO437644  40.986   1.662   9.398
 2877POPC   GL137645  40.685   1.827   9.155
 2877POPC   GL237646  40.799   2.171   9.164
 2877POPC   C1A37647  40.715   1.891   8.713
 2877POPC   D2A37648  40.942   2.169   8.439
 2877POPC   C3A37649  40.924   1.989   8.035
 2877POPC   C4A37650  40.940   1.749   7.669
 2877POPC   C1B37651  40.449   2.294   8.891
 2877POPC   C2B37652  40.403   2.301   8.475
 2877POPC   C3B37653  40.607   2.374   8.097
 2877POPC   C4B37654  40.580   2.145   7.710
 2878POPC   NC337655  41.855  38.185   9.614
 2878POPC   PO437656  41.267  38.571   9.621
 2878POPC   GL137657  41.587  38.656   9.234
 2878POPC   GL237658  41.371  38.612   8.923
 2878POPC   C1A37659  41.850  38.530   8.823
 2878POPC   D2A37660  41.613  38.556   8.413
 2878POPC   C3A37661  41.728  38.678   7.979
 2878POPC   C4A37662  41.758  38.619   7.503
 2878POPC   C1B37663  41.147  38.261   8.708
 2878POPC   C2B37664  41.155  38.053   8.293
 2878POPC   C3B37665  41.035  38.239   7.924
 2878POPC   C4B37666  41.383  38.371   7.730
 2879POPC   NC337667   8.527  30.855   9.365
 2879POPC   PO437668   9.183  30.705   9.564
 2879POPC   GL137669   9.002  30.639   9.111
 2879POPC   GL237670   8.836  30.948   8.954
 2879POPC   C1A37671   8.730  30.541   8.700
 2879POPC   D2A37672   8.903  30.502   8.256
 2879POPC   C3A37673   9.096  30.787   7.961
 2879POPC   C4A37674   8.940  30.959   7.523
 2879POPC   C1B37675   9.181  30.760   8.656
 2879POPC   C2B37676   9.462  30.959   8.408
 2879POPC   C3B37677   9.427  31.157   8.044
 2879POPC   C4B37678   9.428  31.015   7.635
 2880POPC   NC337679  28.822   8.210   9.561
 2880POPC   PO437680  29.343   7.849   9.316
 2880POPC   GL137681  29.239   8.163   9.050
 2880POPC   GL237682  29.396   8.463   9.083
 2880POPC   C1A37683  28.937   8.411   8.830
 2880POPC   D2A37684  29.024   8.472   8.406
 2880POPC   C3A37685  29.202   8.145   8.182
 2880POPC   C4A37686  29.080   7.852   7.855
 2880POPC   C1B37687  29.592   8.454   8.705
 2880POPC   C2B37688  29.671   8.693   8.341
 2880POPC   C3B37689  29.631   8.450   8.009
 2880POPC   C4B37690  29.359   8.275   7.722
 2881POPC   NC337691  39.320  10.577   9.478
 2881POPC   PO437692  39.193   9.907   9.478
 2881POPC   GL137693  39.193  10.191   9.105
 2881POPC   GL237694  39.044  10.529   9.042
 2881POPC   C1A37695  39.376  10.374   8.692
 2881POPC   D2A37696  39.182  10.511   8.284
 2881POPC   C3A37697  39.416  10.450   7.888
 2881POPC   C4A37698  39.109  10.443   7.578
 2881POPC   C1B37699  39.072  10.823   8.694
 2881POPC   C2B37700  39.248  11.031   8.300
 2881POPC   C3B37701  39.089  10.874   7.885
 2881POPC   C4B37702  38.804  10.854   7.501
 2882POPC   NC337703   0.851  32.352   9.613
 2882POPC   PO437704   1.324  31.875   9.910
 2882POPC   GL137705   1.203  32.046   9.399
 2882POPC   GL237706   1.001  31.845   9.127
 2882POPC   C1A37707   1.228  32.330   8.979
 2882POPC   D2A37708   1.399  32.345   8.521
 2882POPC   C3A37709   1.169  32.150   8.155
 2882POPC   C4A37710   1.115  32.214   7.692
 2882POPC   C1B37711   0.963  32.001   8.690
 2882POPC   C2B37712   0.887  32.422   8.506
 2882POPC   C3B37713   0.794  32.495   8.085
 2882POPC   C4B37714   0.640  32.445   7.679
 2883POPC   NC337715  34.448   2.619   9.320
 2883POPC   PO437716  34.905   2.998   9.633
 2883POPC   GL137717  34.859   2.975   9.121
 2883POPC   GL237718  34.540   2.881   8.892
 2883POPC   C1A37719  34.912   3.043   8.619
 2883POPC   D2A37720  34.615   2.775   8.371
 2883POPC   C3A37721  34.663   2.731   7.954
 2883POPC   C4A37722  34.483   3.061   7.762
 2883POPC   C1B37723  34.692   2.447   8.760
 2883POPC   C2B37724  34.574   2.236   8.369
 2883POPC   C3B37725  34.201   2.302   8.127
 2883POPC   C4B37726  34.154   2.626   7.801
 2884POPC   NC337727  17.278  22.882   9.462
 2884POPC   PO437728  17.874  23.159   9.485
 2884POPC   GL137729  17.864  23.160   9.047
 2884POPC   GL237730  17.624  22.881   9.054
 2884POPC   C1A37731  17.782  23.013   8.600
 2884POPC   D2A37732  17.367  22.815   8.486
 2884POPC   C3A37733  17.235  22.729   8.059
 2884POPC   C4A37734  17.380  22.974   7.698
 2884POPC   C1B37735  17.741  22.534   8.776
 2884POPC   C2B37736  17.800  22.517   8.380
 2884POPC   C3B37737  17.757  22.825   8.041
 2884POPC   C4B37738  17.812  22.742   7.583
 2885POPC   NC337739   4.107  41.385   9.527
 2885POPC   PO437740   4.743  41.278   9.381
 2885POPC   GL137741   4.427  41.343   9.092
 2885POPC   GL237742   4.159  41.070   9.120
 2885POPC   C1A37743   4.404  41.630   8.727
 2885POPC   D2A37744   4.584  41.721   8.313
 2885POPC   C3A37745   4.336  41.554   7.957
 2885POPC   C4A37746   4.294  41.149   7.778
 2885POPC   C1B37747   3.977  41.332   8.806
 2885POPC   C2B37748   4.049  41.444   8.391
 2885POPC   C3B37749   3.877  41.204   8.096
 2885POPC   C4B37750   3.747  41.121   7.724
 2886POPC   NC337751  10.442  12.115   9.622
 2886POPC   PO437752  10.948  12.511   9.330
 2886POPC   GL137753  10.772  12.114   9.208
 2886POPC   GL237754  10.423  12.054   9.137
 2886POPC   C1A37755  10.827  11.951   8.804
 2886POPC   D2A37756  10.936  12.127   8.403
 2886POPC   C3A37757  10.626  12.294   8.118
 2886POPC   C4A37758  10.586  12.119   7.710
 2886POPC   C1B37759  10.301  11.844   8.818
 2886POPC   C2B37760  10.444  11.930   8.432
 2886POPC   C3B37761  10.249  11.953   8.063
 2886POPC   C4B37762  10.152  11.859   7.691
 2887POPC   NC337763  32.755   6.706   9.338
 2887POPC   PO437764  32.077   6.755   9.358
 2887POPC   GL137765  32.314   6.466   9.111
 2887POPC   GL237766  32.580   6.627   8.875
 2887POPC   C1A37767  32.219   6.301   8.718
 2887POPC   D2A37768  32.495   6.367   8.387
 2887POPC   C3A37769  32.239   6.365   8.053
 2887POPC   C4A37770  31.986   6.312   7.722
 2887POPC   C1B37771  32.313   6.980   8.785
 2887POPC   C2B37772  32.166   7.149   8.407
 2887POPC   C3B37773  32.054   6.930   8.041
 2887POPC   C4B37774  32.262   6.727   7.690
 2888POPC   NC337775  15.906  32.612   9.357
 2888POPC   PO437776  16.151  32.100   9.842
 2888POPC   GL137777  16.152  32.182   9.336
 2888POPC   GL237778  16.407  32.472   9.237
 2888POPC   C1A37779  16.151  32.154   8.829
 2888POPC   D2A37780  15.910  31.976   8.459
 2888POPC   C3A37781  15.777  32.210   8.072
 2888POPC   C4A37782  15.818  32.137   7.616
 2888POPC   C1B37783  16.329  32.658   8.806
 2888POPC   C2B37784  16.125  32.509   8.428
 2888POPC   C3B37785  16.276  32.371   8.040
 2888POPC   C4B37786  16.164  32.503   7.644
 2889POPC   NC337787  22.384  17.389   9.630
 2889POPC   PO437788  21.809  17.673   9.611
 2889POPC   GL137789  22.106  17.660   9.293
 2889POPC   GL237790  21.899  17.815   9.064
 2889POPC   C1A37791  22.304  17.490   8.928
 2889POPC   D2A37792  22.168  17.511   8.508
 2889POPC   C3A37793  22.335  17.552   8.094
 2889POPC   C4A37794  22.095  17.783   7.828
 2889POPC   C1B37795  21.811  17.392   8.874
 2889POPC   C2B37796  21.749  17.189   8.451
 2889POPC   C3B37797  21.864  17.358   8.052
 2889POPC   C4B37798  21.989  17.345   7.588
 2890POPC   NC337799   5.682   9.055   9.908
 2890POPC   PO437800   6.203   8.914   9.619
 2890POPC   GL137801   5.990   8.917   9.219
 2890POPC   GL237802   5.709   8.724   9.309
 2890POPC   C1A37803   6.043   9.035   8.763
 2890POPC   D2A37804   6.066   8.867   8.326
 2890POPC   C3A37805   6.007   9.093   7.923
 2890POPC   C4A37806   6.114   8.950   7.482
 2890POPC   C1B37807   5.759   8.637   8.860
 2890POPC   C2B37808   5.632   8.639   8.469
 2890POPC   C3B37809   5.527   8.686   8.065
 2890POPC   C4B37810   5.479   9.097   7.901
 2891POPC   NC337811   7.204  19.530   9.324
 2891POPC   PO437812   7.278  18.920   9.473
 2891POPC   GL137813   7.490  19.136   9.127
 2891POPC   GL237814   7.452  18.840   8.981
 2891POPC   C1A37815   7.415  19.417   8.738
 2891POPC   D2A37816   7.255  19.562   8.349
 2891POPC   C3A37817   7.219  19.309   7.946
 2891POPC   C4A37818   7.418  19.086   7.565
 2891POPC   C1B37819   7.179  18.942   8.677
 2891POPC   C2B37820   7.416  19.056   8.342
 2891POPC   C3B37821   7.448  18.824   7.982
 2891POPC   C4B37822   7.693  18.528   7.781
 2892POPC   NC337823  37.889  21.913   9.602
 2892POPC   PO437824  37.384  21.358   9.534
 2892POPC   GL137825  37.631  21.546   9.224
 2892POPC   GL237826  37.849  21.298   9.059
 2892POPC   C1A37827  37.670  21.715   8.809
 2892POPC   D2A37828  37.916  21.753   8.437
 2892POPC   C3A37829  37.685  21.605   8.066
 2892POPC   C4A37830  37.633  21.289   7.745
 2892POPC   C1B37831  37.965  21.307   8.654
 2892POPC   C2B37832  38.103  21.286   8.243
 2892POPC   C3B37833  38.014  20.966   7.921
 2892POPC   C4B37834  38.111  20.977   7.449
 2893POPC   NC337835   9.689   1.581   9.467
 2893POPC   PO437836   9.364   0.945   9.359
 2893POPC   GL137837   9.737   1.101   9.103
 2893POPC   GL237838   9.902   1.458   9.038
 2893POPC   C1A37839   9.955   0.881   8.758
 2893POPC   D2A37840  10.026   0.737   8.344
 2893POPC   C3A37841   9.811   1.064   8.128
 2893POPC   C4A37842   9.837   1.405   7.840
 2893POPC   C1B37843   9.595   1.407   8.723
 2893POPC   C2B37844   9.480   1.417   8.307
 2893POPC   C3B37845   9.358   1.572   7.904
 2893POPC   C4B37846   9.406   1.574   7.444
 2894POPC   NC337847  21.659  35.480   9.444
 2894POPC   PO437848  21.081  35.829   9.435
 2894POPC   GL137849  21.208  35.566   9.088
 2894POPC   GL237850  21.255  35.192   9.158
 2894POPC   C1A37851  21.428  35.596   8.692
 2894POPC   D2A37852  21.690  35.723   8.325
 2894POPC   C3A37853  21.454  35.622   7.986
 2894POPC   C4A37854  21.649  35.584   7.599
 2894POPC   C1B37855  21.592  35.149   8.846
 2894POPC   C2B37856  21.690  35.215   8.421
 2894POPC   C3B37857  21.549  35.130   8.003
 2894POPC   C4B37858  21.258  35.252   7.654
 2895POPC   NC337859  19.683  38.785   9.408
 2895POPC   PO437860  19.649  39.451   9.548
 2895POPC   GL137861  19.802  39.233   9.216
 2895POPC   GL237862  20.056  39.409   9.161
 2895POPC   C1A37863  19.802  39.040   8.820
 2895POPC   D2A37864  19.725  39.208   8.422
 2895POPC   C3A37865  19.635  39.282   8.001
 2895POPC   C4A37866  19.248  39.058   7.872
 2895POPC   C1B37867  20.084  39.448   8.728
 2895POPC   C2B37868  20.217  39.294   8.321
 2895POPC   C3B37869  20.155  39.501   7.902
 2895POPC   C4B37870  20.107  39.491   7.428
 2896POPC   NC337871  42.930  30.966   9.426
 2896POPC   PO437872  42.731  30.324   9.588
 2896POPC   GL137873  42.881  30.477   9.186
 2896POPC   GL237874  43.247  30.608   9.142
 2896POPC   C1A37875  42.852  30.714   8.802
 2896POPC   D2A37876  43.081  30.685   8.447
 2896POPC   C3A37877  42.834  30.786   8.117
 2896POPC   C4A37878  42.909  30.841   7.722
 2896POPC   C1B37879  43.322  30.983   8.872
 2896POPC   C2B37880  43.370  31.092   8.450
 2896POPC   C3B37881  43.350  30.883   8.031
 2896POPC   C4B37882  43.452  30.785   7.594
 2897POPC   NC337883   2.294   0.585   9.573
 2897POPC   PO437884   1.823   0.161   9.466
 2897POPC   GL137885   1.994   0.430   9.172
 2897POPC   GL237886   2.199   0.732   9.099
 2897POPC   C1A37887   1.854   0.464   8.780
 2897POPC   D2A37888   1.985   0.583   8.384
 2897POPC   C3A37889   1.779   0.397   8.048
 2897POPC   C4A37890   1.821   0.195   7.686
 2897POPC   C1B37891   2.427   0.771   8.717
 2897POPC   C2B37892   2.485   0.617   8.314
 2897POPC   C3B37893   2.219   0.696   7.938
 2897POPC   C4B37894   2.202   0.484   7.593
 2898POPC   NC337895   7.618  20.415   9.185
 2898POPC   PO437896   7.389  20.990   9.583
 2898POPC   GL137897   7.365  20.941   9.136
 2898POPC   GL237898   7.190  20.679   9.214
 2898POPC   C1A37899   7.532  20.867   8.680
 2898POPC   D2A37900   7.533  20.569   8.361
 2898POPC   C3A37901   7.533  20.745   7.955
 2898POPC   C4A37902   7.588  20.421   7.668
 2898POPC   C1B37903   7.099  20.619   8.788
 2898POPC   C2B37904   6.978  20.506   8.378
 2898POPC   C3B37905   7.159  20.382   8.021
 2898POPC   C4B37906   7.096  20.551   7.656
 2899POPC   NC337907  37.404  39.210   9.259
 2899POPC   PO437908  37.910  39.377   9.752
 2899POPC   GL137909  37.917  39.211   9.191
 2899POPC   GL237910  37.909  39.444   8.927
 2899POPC   C1A37911  37.881  39.000   8.724
 2899POPC   D2A37912  37.629  39.069   8.302
 2899POPC   C3A37913  37.845  39.126   7.876
 2899POPC   C4A37914  37.670  39.068   7.429
 2899POPC   C1B37915  37.514  39.463   8.672
 2899POPC   C2B37916  37.421  39.785   8.400
 2899POPC   C3B37917  37.532  39.652   8.030
 2899POPC   C4B37918  37.704  39.553   7.607
 2900POPC   NC337919  13.455  44.939   9.614
 2900POPC   PO437920  13.846  44.461   9.538
 2900POPC   GL137921  13.645  44.389   9.150
 2900POPC   GL237922  13.339  44.519   9.183
 2900POPC   C1A37923  13.425  44.244   8.758
 2900POPC   D2A37924  13.530  44.408   8.359
 2900POPC   C3A37925  13.719  44.248   8.004
 2900POPC   C4A37926  13.703  44.440   7.589
 2900POPC   C1B37927  13.517  44.738   8.799
 2900POPC   C2B37928  13.476  44.909   8.404
 2900POPC   C3B37929  13.669  44.803   8.022
 2900POPC   C4B37930  13.488  44.877   7.650
 2901POPC   NC337931  10.571  41.204   9.537
 2901POPC   PO437932  10.190  40.695   9.261
 2901POPC   GL137933  10.543  40.862   9.105
 2901POPC   GL237934  10.428  41.195   9.051
 2901POPC   C1A37935  10.663  40.950   8.669
 2901POPC   D2A37936  10.829  41.108   8.292
 2901POPC   C3A37937  10.701  40.839   7.999
 2901POPC   C4A37938  10.365  40.589   7.876
 2901POPC   C1B37939  10.142  41.065   8.718
 2901POPC   C2B37940  10.258  40.901   8.325
 2901POPC   C3B37941  10.253  41.081   7.945
 2901POPC   C4B37942   9.933  41.076   7.682
 2902POPC   NC337943  27.678  43.691   9.617
 2902POPC   PO437944  27.165  43.551   9.377
 2902POPC   GL137945  27.535  43.520   9.121
 2902POPC   GL237946  27.900  43.477   9.215
 2902POPC   C1A37947  27.487  43.711   8.719
 2902POPC   D2A37948  27.410  44.096   8.441
 2902POPC   C3A37949  27.609  44.259   8.027
 2902POPC   C4A37950  27.431  44.338   7.570
 2902POPC   C1B37951  27.963  43.809   8.907
 2902POPC   C2B37952  27.894  43.860   8.456
 2902POPC   C3B37953  27.962  43.803   8.025
 2902POPC   C4B37954  27.762  43.951   7.646
 2903POPC   NC337955  40.585  30.405   9.415
 2903POPC   PO437956  40.841  29.789   9.537
 2903POPC   GL137957  41.004  29.779   9.119
 2903POPC   GL237958  41.157  30.128   9.138
 2903POPC   C1A37959  40.737  29.630   8.751
 2903POPC   D2A37960  40.415  29.763   8.449
 2903POPC   C3A37961  40.525  29.685   8.016
 2903POPC   C4A37962  40.566  29.962   7.661
 2903POPC   C1B37963  40.952  30.131   8.729
 2903POPC   C2B37964  40.921  29.904   8.341
 2903POPC   C3B37965  41.011  29.888   7.912
 2903POPC   C4B37966  41.004  29.809   7.457
 2904POPC   NC337967  28.705  40.326   9.505
 2904POPC   PO437968  28.056  40.090   9.454
 2904POPC   GL137969  28.381  40.160   9.127
 2904POPC   GL237970  28.740  40.061   9.077
 2904POPC   C1A37971  28.487  40.316   8.718
 2904POPC   D2A37972  28.269  40.334   8.370
 2904POPC   C3A37973  28.414  40.070   8.103
 2904POPC   C4A37974  28.346  39.965   7.704
 2904POPC   C1B37975  28.555  39.763   8.789
 2904POPC   C2B37976  28.687  39.594   8.374
 2904POPC   C3B37977  28.656  39.648   7.944
 2904POPC   C4B37978  28.774  39.749   7.495
 2905POPC   NC337979  34.197  20.736   9.396
 2905POPC   PO437980  34.718  20.249   9.576
 2905POPC   GL137981  34.721  20.287   9.137
 2905POPC   GL237982  34.696  20.642   9.184
 2905POPC   C1A37983  34.764  20.420   8.701
 2905POPC   D2A37984  34.516  20.706   8.434
 2905POPC   C3A37985  34.565  20.553   8.028
 2905POPC   C4A37986  34.889  20.479   7.734
 2905POPC   C1B37987  34.768  20.918   8.840
 2905POPC   C2B37988  34.812  21.135   8.458
 2905POPC   C3B37989  34.628  21.058   8.067
 2905POPC   C4B37990  34.189  20.919   7.960
 2906POPC   NC337991  42.796  38.195   9.474
 2906POPC   PO437992  42.177  38.521   9.602
 2906POPC   GL137993  42.285  38.608   9.169
 2906POPC   GL237994  42.073  38.875   9.124
 2906POPC   C1A37995  42.577  38.575   8.807
 2906POPC   D2A37996  42.653  38.361   8.405
 2906POPC   C3A37997  42.549  38.611   8.019
 2906POPC   C4A37998  42.150  38.418   7.874
 2906POPC   C1B37999  42.202  38.918   8.736
 2906POPC   C2B38000  42.128  38.725   8.368
 2906POPC   C3B38001  42.163  38.965   8.016
 2906POPC   C4B38002  42.208  38.834   7.616
 2907POPC   NC338003  28.742   0.771   9.484
 2907POPC   PO438004  29.399   0.873   9.582
 2907POPC   GL138005  29.073   1.080   9.221
 2907POPC   GL238006  29.029   1.461   9.157
 2907POPC   C1A38007  28.862   1.145   8.817
 2907POPC   D2A38008  29.089   1.084   8.456
 2907POPC   C3A38009  29.052   1.358   8.139
 2907POPC   C4A38010  29.027   1.250   7.731
 2907POPC   C1B38011  29.322   1.511   8.826
 2907POPC   C2B38012  29.322   1.708   8.420
 2907POPC   C3B38013  29.463   1.655   8.011
 2907POPC   C4B38014  29.455   1.489   7.600
 2908POPC   NC338015  42.006  34.296   9.577
 2908POPC   PO438016  41.846  34.881   9.190
 2908POPC   GL138017  42.111  34.503   9.094
 2908POPC   GL238018  42.483  34.481   9.139
 2908POPC   C1A38019  42.234  34.499   8.673
 2908POPC   D2A38020  42.374  34.269   8.350
 2908POPC   C3A38021  42.226  34.483   8.018
 2908POPC   C4A38022  42.027  34.363   7.674
 2908POPC   C1B38023  42.701  34.675   8.767
 2908POPC   C2B38024  42.626  34.682   8.294
 2908POPC   C3B38025  42.699  34.473   7.862
 2908POPC   C4B38026  42.692  34.802   7.570
 2909POPC   NC338027  25.581  32.330   9.471
 2909POPC   PO438028  26.245  32.505   9.660
 2909POPC   GL138029  26.037  32.556   9.256
 2909POPC   GL238030  25.976  32.254   9.136
 2909POPC   C1A38031  25.912  32.564   8.766
 2909POPC   D2A38032  26.202  32.469   8.445
 2909POPC   C3A38033  25.974  32.561   8.072
 2909POPC   C4A38034  26.011  32.405   7.669
 2909POPC   C1B38035  26.089  32.023   8.789
 2909POPC   C2B38036  26.327  31.935   8.440
 2909POPC   C3B38037  26.154  32.050   8.064
 2909POPC   C4B38038  26.140  31.927   7.653
 2910POPC   NC338039  30.129  31.039   9.438
 2910POPC   PO438040  29.692  30.480   9.494
 2910POPC   GL138041  29.839  30.691   9.161
 2910POPC   GL238042  29.672  30.956   9.122
 2910POPC   C1A38043  30.039  30.767   8.768
 2910POPC   D2A38044  30.211  30.536   8.426
 2910POPC   C3A38045  30.091  30.783   8.099
 2910POPC   C4A38046  29.907  30.565   7.828
 2910POPC   C1B38047  29.523  30.865   8.743
 2910POPC   C2B38048  29.648  30.988   8.351
 2910POPC   C3B38049  29.522  30.895   7.931
 2910POPC   C4B38050  29.716  30.916   7.520
 2911POPC   NC338051  16.389  34.956   9.332
 2911POPC   PO438052  16.774  34.490   9.625
 2911POPC   GL138053  16.849  34.426   9.195
 2911POPC   GL238054  16.533  34.497   9.091
 2911POPC   C1A38055  16.941  34.646   8.800
 2911POPC   D2A38056  16.804  34.522   8.403
 2911POPC   C3A38057  16.849  34.681   8.028
 2911POPC   C4A38058  16.701  34.483   7.672
 2911POPC   C1B38059  16.395  34.681   8.711
 2911POPC   C2B38060  16.395  34.827   8.306
 2911POPC   C3B38061  16.344  34.741   7.906
 2911POPC   C4B38062  16.338  34.783   7.455
 2912POPC   NC338063  22.017   7.246   9.495
 2912POPC   PO438064  22.304   7.847   9.731
 2912POPC   GL138065  22.400   7.507   9.287
 2912POPC   GL238066  22.567   7.167   9.181
 2912POPC   C1A38067  22.082   7.398   8.879
 2912POPC   D2A38068  21.804   7.507   8.492
 2912POPC   C3A38069  21.985   7.368   8.098
 2912POPC   C4A38070  21.997   7.573   7.699
 2912POPC   C1B38071  22.555   7.312   8.758
 2912POPC   C2B38072  22.369   7.595   8.421
 2912POPC   C3B38073  22.503   7.654   7.978
 2912POPC   C4B38074  22.485   7.488   7.558
 2913POPC   NC338075  24.596   1.590   9.457
 2913POPC   PO438076  24.131   2.056   9.468
 2913POPC   GL138077  24.434   2.040   9.155
 2913POPC   GL238078  24.552   2.358   9.147
 2913POPC   C1A38079  24.723   1.998   8.796
 2913POPC   D2A38080  24.907   1.959   8.365
 2913POPC   C3A38081  24.710   1.778   7.985
 2913POPC   C4A38082  24.422   1.962   7.692
 2913POPC   C1B38083  24.698   2.538   8.821
 2913POPC   C2B38084  24.563   2.364   8.461
 2913POPC   C3B38085  24.610   2.264   8.060
 2913POPC   C4B38086  24.623   2.462   7.669
 2914POPC   NC338087   9.044  14.924   9.526
 2914POPC   PO438088   8.847  15.587   9.486
 2914POPC   GL138089   9.008  15.294   9.162
 2914POPC   GL238090   8.772  15.016   9.076
 2914POPC   C1A38091   9.152  15.204   8.738
 2914POPC   D2A38092   9.065  14.822   8.481
 2914POPC   C3A38093   9.087  14.881   8.038
 2914POPC   C4A38094   9.218  15.285   7.869
 2914POPC   C1B38095   8.648  15.139   8.652
 2914POPC   C2B38096   8.866  15.286   8.266
 2914POPC   C3B38097   8.706  15.278   7.823
 2914POPC   C4B38098   8.724  15.174   7.368
 2915POPC   NC338099  28.913  44.786   9.482
 2915POPC   PO438100  29.551   0.110   9.480
 2915POPC   GL138101  29.373  44.824   9.152
 2915POPC   GL238102  29.050  44.841   9.006
 2915POPC   C1A38103  29.327  44.428   8.876
 2915POPC   D2A38104  29.256  44.192   8.462
 2915POPC   C3A38105  29.135  44.460   8.106
 2915POPC   C4A38106  29.081  44.386   7.642
 2915POPC   C1B38107  29.147  44.835   8.598
 2915POPC   C2B38108  28.910  44.898   8.273
 2915POPC   C3B38109  28.934  44.851   7.850
 2915POPC   C4B38110  29.374  44.786   7.774
 2916POPC   NC338111  22.000  34.945   9.527
 2916POPC   PO438112  22.380  34.357   9.561
 2916POPC   GL138113  22.290  34.609   9.233
 2916POPC   GL238114  21.948  34.514   9.199
 2916POPC   C1A38115  22.266  34.553   8.804
 2916POPC   D2A38116  22.471  34.475   8.429
 2916POPC   C3A38117  22.216  34.593   8.077
 2916POPC   C4A38118  22.363  34.683   7.668
 2916POPC   C1B38119  21.871  34.213   8.833
 2916POPC   C2B38120  21.983  34.303   8.435
 2916POPC   C3B38121  21.925  34.148   8.034
 2916POPC   C4B38122  22.051  34.307   7.681
 2917POPC   NC338123  26.742  16.138   9.732
 2917POPC   PO438124  27.062  15.790   9.251
 2917POPC   GL138125  26.846  15.781   8.938
 2917POPC   GL238126  26.574  15.958   9.120
 2917POPC   C1A38127  27.034  15.910   8.549
 2917POPC   D2A38128  27.045  16.177   8.196
 2917POPC   C3A38129  26.904  15.994   7.788
 2917POPC   C4A38130  26.746  16.161   7.397
 2917POPC   C1B38131  26.581  16.120   8.665
 2917POPC   C2B38132  26.562  16.048   8.186
 2917POPC   C3B38133  26.420  15.800   7.781
 2917POPC   C4B38134  26.476  15.723   7.309
 2918POPC   NC338135  24.774  20.706   9.626
 2918POPC   PO438136  24.446  20.160   9.362
 2918POPC   GL138137  24.515  20.563   9.098
 2918POPC   GL238138  24.734  20.874   9.141
 2918POPC   C1A38139  24.551  20.747   8.672
 2918POPC   D2A38140  24.714  20.535   8.292
 2918POPC   C3A38141  24.423  20.393   7.953
 2918POPC   C4A38142  24.545  20.136   7.539
 2918POPC   C1B38143  24.939  21.077   8.806
 2918POPC   C2B38144  24.797  21.099   8.387
 2918POPC   C3B38145  24.836  20.924   7.980
 2918POPC   C4B38146  24.787  20.591   7.690
 2919POPC   NC338147   1.401  38.477   9.592
 2919POPC   PO438148   1.009  38.829   9.256
 2919POPC   GL138149   1.416  38.717   9.114
 2919POPC   GL238150   1.365  38.347   9.089
 2919POPC   C1A38151   1.468  38.623   8.696
 2919POPC   D2A38152   1.423  38.230   8.515
 2919POPC   C3A38153   1.221  38.369   8.173
 2919POPC   C4A38154   1.385  38.659   7.863
 2919POPC   C1B38155   1.003  38.410   8.767
 2919POPC   C2B38156   0.767  38.259   8.427
 2919POPC   C3B38157   0.722  38.256   7.988
 2919POPC   C4B38158   0.976  38.405   7.624
 2920POPC   NC338159   0.838  44.443   9.704
 2920POPC   PO438160   0.198  44.588   9.563
 2920POPC   GL138161   0.335  44.727   9.138
 2920POPC   GL238162   0.654  44.900   9.153
 2920POPC   C1A38163   0.580  44.535   8.771
 2920POPC   D2A38164   0.448  44.408   8.361
 2920POPC   C3A38165   0.246  44.719   8.057
 2920POPC   C4A38166   0.437  44.639   7.657
 2920POPC   C1B38167   0.614   0.038   8.730
 2920POPC   C2B38168   0.676  44.887   8.282
 2920POPC   C3B38169   0.751   0.006   7.828
 2920POPC   C4B38170   0.653  44.975   7.336
 2921POPC   NC338171  20.176  33.336   9.340
 2921POPC   PO438172  20.456  32.785   9.609
 2921POPC   GL138173  20.566  32.920   9.214
 2921POPC   GL238174  20.256  32.807   9.088
 2921POPC   C1A38175  20.631  33.117   8.797
 2921POPC   D2A38176  20.487  33.126   8.344
 2921POPC   C3A38177  20.825  33.253   8.030
 2921POPC   C4A38178  20.945  33.130   7.606
 2921POPC   C1B38179  20.420  32.661   8.683
 2921POPC   C2B38180  20.536  32.563   8.252
 2921POPC   C3B38181  20.598  32.816   7.912
 2921POPC   C4B38182  20.297  33.177   7.855
 2922POPC   NC338183  44.442  34.175   9.471
 2922POPC   PO438184   0.138  33.855   9.454
 2922POPC   GL138185  44.752  33.866   9.215
 2922POPC   GL238186  44.524  33.572   9.248
 2922POPC   C1A38187  44.547  33.958   8.821
 2922POPC   D2A38188  44.538  33.738   8.429
 2922POPC   C3A38189  44.704  33.842   8.036
 2922POPC   C4A38190  44.547  34.057   7.652
 2922POPC   C1B38191  44.464  33.418   8.828
 2922POPC   C2B38192  44.259  33.299   8.430
 2922POPC   C3B38193  44.281  33.493   8.047
 2922POPC   C4B38194  44.545  33.524   7.674
 2923POPC   NC338195  25.229  14.607  10.011
 2923POPC   PO438196  25.264  14.160   9.509
 2923POPC   GL138197  25.199  14.344   9.086
 2923POPC   GL238198  25.146  14.693   9.155
 2923POPC   C1A38199  25.452  14.387   8.707
 2923POPC   D2A38200  25.316  14.161   8.356
 2923POPC   C3A38201  25.380  14.252   7.926
 2923POPC   C4A38202  25.096  14.148   7.575
 2923POPC   C1B38203  25.031  14.673   8.722
 2923POPC   C2B38204  25.106  14.622   8.289
 2923POPC   C3B38205  24.929  14.537   7.883
 2923POPC   C4B38206  24.811  14.786   7.523
 2924POPC   NC338207  27.317  35.126   9.560
 2924POPC   PO438208  27.760  35.610   9.487
 2924POPC   GL138209  27.641  35.313   9.194
 2924POPC   GL238210  27.299  35.355   9.114
 2924POPC   C1A38211  27.633  35.132   8.785
 2924POPC   D2A38212  27.880  35.276   8.450
 2924POPC   C3A38213  27.859  35.109   8.026
 2924POPC   C4A38214  27.691  35.275   7.616
 2924POPC   C1B38215  27.288  35.544   8.704
 2924POPC   C2B38216  27.459  35.531   8.282
 2924POPC   C3B38217  27.426  35.667   7.842
 2924POPC   C4B38218  27.190  35.719   7.394
 2925POPC   NC338219  19.695  35.567   9.493
 2925POPC   PO438220  19.553  34.893   9.496
 2925POPC   GL138221  19.832  35.179   9.158
 2925POPC   GL238222  19.870  35.585   9.031
 2925POPC   C1A38223  19.847  35.188   8.702
 2925POPC   D2A38224  19.635  34.984   8.363
 2925POPC   C3A38225  19.736  35.199   8.015
 2925POPC   C4A38226  19.907  35.332   7.640
 2925POPC   C1B38227  20.162  35.602   8.691
 2925POPC   C2B38228  20.138  35.409   8.299
 2925POPC   C3B38229  20.024  35.681   7.988
 2925POPC   C4B38230  20.094  35.785   7.574
 2926POPC   NC338231   3.186  37.848   9.484
 2926POPC   PO438232   3.718  37.571   9.724
 2926POPC   GL138233   3.621  37.696   9.237
 2926POPC   GL238234   3.867  37.456   9.156
 2926POPC   C1A38235   3.475  37.684   8.730
 2926POPC   D2A38236   3.239  37.509   8.339
 2926POPC   C3A38237   3.355  37.717   7.973
 2926POPC   C4A38238   3.761  37.690   7.808
 2926POPC   C1B38239   3.931  37.484   8.704
 2926POPC   C2B38240   3.751  37.448   8.274
 2926POPC   C3B38241   3.520  37.244   7.922
 2926POPC   C4B38242   3.624  37.341   7.478
 2927POPC   NC338243  27.579  26.058   9.612
 2927POPC   PO438244  27.951  26.468   9.249
 2927POPC   GL138245  27.827  26.014   9.169
 2927POPC   GL238246  27.475  25.907   9.147
 2927POPC   C1A38247  27.814  25.782   8.786
 2927POPC   D2A38248  27.867  26.034   8.432
 2927POPC   C3A38249  27.795  25.862   8.039
 2927POPC   C4A38250  27.875  26.105   7.696
 2927POPC   C1B38251  27.488  26.178   8.787
 2927POPC   C2B38252  27.371  26.200   8.363
 2927POPC   C3B38253  27.417  26.184   7.939
 2927POPC   C4B38254  27.182  25.975   7.674
 2928POPC   NC338255  11.912   7.476   9.497
 2928POPC   PO438256  12.519   7.119   9.262
 2928POPC   GL138257  12.216   7.418   9.047
 2928POPC   GL238258  11.931   7.666   9.044
 2928POPC   C1A38259  12.176   7.550   8.608
 2928POPC   D2A38260  12.192   7.639   8.169
 2928POPC   C3A38261  12.214   7.316   7.820
 2928POPC   C4A38262  12.458   7.579   7.531
 2928POPC   C1B38263  11.712   7.380   8.722
 2928POPC   C2B38264  11.714   7.500   8.284
 2928POPC   C3B38265  11.673   7.274   7.914
 2928POPC   C4B38266  11.724   7.272   7.457
 2929POPC   NC338267  26.893   3.023   9.362
 2929POPC   PO438268  27.011   3.657   9.534
 2929POPC   GL138269  26.945   3.550   9.120
 2929POPC   GL238270  27.099   3.856   9.054
 2929POPC   C1A38271  26.765   3.391   8.724
 2929POPC   D2A38272  26.663   3.620   8.339
 2929POPC   C3A38273  26.795   3.466   7.949
 2929POPC   C4A38274  26.766   3.141   7.657
 2929POPC   C1B38275  27.025   3.846   8.642
 2929POPC   C2B38276  27.294   3.872   8.330
 2929POPC   C3B38277  27.254   3.705   7.993
 2929POPC   C4B38278  27.095   3.801   7.627
 2930POPC   NC338279  22.855   4.963   9.317
 2930POPC   PO438280  23.125   5.468   9.019
 2930POPC   GL138281  22.825   5.199   8.878
 2930POPC   GL238282  22.504   5.218   9.031
 2930POPC   C1A38283  22.952   4.828   8.669
 2930POPC   D2A38284  22.829   4.744   8.258
 2930POPC   C3A38285  23.103   5.016   8.021
 2930POPC   C4A38286  23.119   5.356   7.727
 2930POPC   C1B38287  22.448   4.843   8.736
 2930POPC   C2B38288  22.333   4.594   8.354
 2930POPC   C3B38289  22.385   4.814   7.944
 2930POPC   C4B38290  22.679   5.079   7.743
 2931POPC   NC338291   1.423  36.632   9.269
 2931POPC   PO438292   1.494  37.250   9.555
 2931POPC   GL138293   1.240  37.105   9.174
 2931POPC   GL238294   0.941  36.885   9.238
 2931POPC   C1A38295   1.193  36.970   8.699
 2931POPC   D2A38296   1.435  36.823   8.302
 2931POPC   C3A38297   1.277  36.974   7.882
 2931POPC   C4A38298   1.056  37.364   7.685
 2931POPC   C1B38299   0.781  37.212   8.960
 2931POPC   C2B38300   0.790  37.310   8.547
 2931POPC   C3B38301   0.893  36.998   8.228
 2931POPC   C4B38302   0.777  36.968   7.790
 2932POPC   NC338303  12.242  41.500   9.480
 2932POPC   PO438304  11.698  41.893   9.424
 2932POPC   GL138305  11.979  41.733   9.113
 2932POPC   GL238306  11.817  41.415   9.154
 2932POPC   C1A38307  12.191  41.494   8.759
 2932POPC   D2A38308  12.194  41.713   8.377
 2932POPC   C3A38309  12.147  41.570   7.985
 2932POPC   C4A38310  11.951  41.775   7.647
 2932POPC   C1B38311  11.683  41.476   8.750
 2932POPC   C2B38312  11.849  41.320   8.396
 2932POPC   C3B38313  11.758  41.251   8.017
 2932POPC   C4B38314  11.780  41.308   7.611
 2933POPC   NC338315  41.468  14.791   9.423
 2933POPC   PO438316  41.657  14.191   9.672
 2933POPC   GL138317  41.543  14.284   9.239
 2933POPC   GL238318  41.308  14.041   9.149
 2933POPC   C1A38319  41.584  14.492   8.818
 2933POPC   D2A38320  41.388  14.708   8.442
 2933POPC   C3A38321  41.515  14.600   7.999
 2933POPC   C4A38322  41.660  14.343   7.595
 2933POPC   C1B38323  41.486  13.971   8.780
 2933POPC   C2B38324  41.456  14.195   8.416
 2933POPC   C3B38325  41.466  14.098   8.025
 2933POPC   C4B38326  41.171  14.279   7.774
 2934POPC   NC338327   3.983  17.555   9.487
 2934POPC   PO438328   4.441  17.161   9.680
 2934POPC   GL138329   4.615  17.350   9.270
 2934POPC   GL238330   4.394  17.628   9.167
 2934POPC   C1A38331   4.814  17.584   8.872
 2934POPC   D2A38332   4.854  17.732   8.407
 2934POPC   C3A38333   4.516  17.588   8.085
 2934POPC   C4A38334   4.240  17.643   7.711
 2934POPC   C1B38335   4.371  17.753   8.697
 2934POPC   C2B38336   4.138  17.505   8.422
 2934POPC   C3B38337   4.051  17.313   8.062
 2934POPC   C4B38338   3.882  17.231   7.699
 2935POPC   NC338339  34.620  39.691   9.628
 2935POPC   PO438340  34.958  40.200   9.362
 2935POPC   GL138341  34.733  39.937   9.161
 2935POPC   GL238342  34.861  39.579   9.187
 2935POPC   C1A38343  34.566  40.125   8.757
 2935POPC   D2A38344  34.318  40.275   8.414
 2935POPC   C3A38345  34.370  40.096   8.023
 2935POPC   C4A38346  34.414  40.249   7.607
 2935POPC   C1B38347  34.779  39.659   8.765
 2935POPC   C2B38348  34.915  39.905   8.451
 2935POPC   C3B38349  34.778  39.844   8.089
 2935POPC   C4B38350  34.906  39.638   7.768
 2936POPC   NC338351  44.597  30.970   9.540
 2936POPC   PO438352  44.477  30.309   9.522
 2936POPC   GL138353  44.647  30.625   9.153
 2936POPC   GL238354  44.892  30.982   9.142
 2936POPC   C1A38355  44.692  30.766   8.729
 2936POPC   D2A38356  44.559  30.804   8.327
 2936POPC   C3A38357  44.673  30.527   7.996
 2936POPC   C4A38358  44.537  30.596   7.559
 2936POPC   C1B38359   0.184  30.982   8.831
 2936POPC   C2B38360   0.161  30.788   8.471
 2936POPC   C3B38361   0.004  30.944   8.095
 2936POPC   C4B38362   0.006  30.757   7.686
 2937POPC   NC338363  24.685  30.625   9.355
 2937POPC   PO438364  24.100  30.543   9.228
 2937POPC   GL138365  24.402  30.736   8.937
 2937POPC   GL238366  24.785  30.790   8.894
 2937POPC   C1A38367  24.360  30.611   8.532
 2937POPC   D2A38368  24.019  30.614   8.235
 2937POPC   C3A38369  24.325  30.772   7.987
 2937POPC   C4A38370  24.662  30.546   7.866
 2937POPC   C1B38371  25.143  30.850   8.604
 2937POPC   C2B38372  25.155  30.905   8.155
 2937POPC   C3B38373  24.830  31.033   7.881
 2937POPC   C4B38374  24.523  31.000   7.569
 2938POPC   NC338375  42.658   7.486   9.495
 2938POPC   PO438376  43.216   7.159   9.349
 2938POPC   GL138377  43.119   7.293   8.970
 2938POPC   GL238378  42.772   7.322   9.030
 2938POPC   C1A38379  42.972   7.577   8.654
 2938POPC   D2A38380  42.818   7.460   8.282
 2938POPC   C3A38381  43.149   7.523   7.981
 2938POPC   C4A38382  43.196   7.742   7.582
 2938POPC   C1B38383  42.736   7.048   8.682
 2938POPC   C2B38384  42.544   7.000   8.302
 2938POPC   C3B38385  42.867   7.047   7.983
 2938POPC   C4B38386  42.816   7.334   7.651
 2939POPC   NC338387   3.492  23.434   9.560
 2939POPC   PO438388   3.689  22.819   9.624
 2939POPC   GL138389   3.818  22.990   9.219
 2939POPC   GL238390   3.768  23.353   9.150
 2939POPC   C1A38391   3.725  22.843   8.824
 2939POPC   D2A38392   3.479  22.902   8.464
 2939POPC   C3A38393   3.669  22.960   8.097
 2939POPC   C4A38394   3.585  22.693   7.810
 2939POPC   C1B38395   3.397  23.259   8.889
 2939POPC   C2B38396   3.155  23.307   8.512
 2939POPC   C3B38397   3.343  23.347   8.102
 2939POPC   C4B38398   3.372  23.165   7.677
 2940POPC   NC338399  43.244  43.182   9.754
 2940POPC   PO438400  42.732  43.095   9.334
 2940POPC   GL138401  42.966  43.200   9.076
 2940POPC   GL238402  43.244  43.277   9.216
 2940POPC   C1A38403  43.016  43.060   8.709
 2940POPC   D2A38404  42.896  43.242   8.366
 2940POPC   C3A38405  43.084  43.004   8.028
 2940POPC   C4A38406  42.980  42.980   7.599
 2940POPC   C1B38407  43.260  43.527   8.808
 2940POPC   C2B38408  43.216  43.678   8.409
 2940POPC   C3B38409  43.133  43.528   8.022
 2940POPC   C4B38410  43.286  43.376   7.674
 2941POPC   NC338411  25.023  12.305   9.405
 2941POPC   PO438412  25.473  11.834   9.492
 2941POPC   GL138413  25.383  11.993   9.103
 2941POPC   GL238414  25.495  12.327   9.137
 2941POPC   C1A38415  25.041  12.025   8.796
 2941POPC   D2A38416  24.932  11.824   8.411
 2941POPC   C3A38417  25.288  11.840   8.129
 2941POPC   C4A38418  25.217  11.942   7.744
 2941POPC   C1B38419  25.330  12.447   8.766
 2941POPC   C2B38420  25.225  12.282   8.386
 2941POPC   C3B38421  25.327  12.367   7.985
 2941POPC   C4B38422  25.644  12.190   7.696
 2942POPC   NC338423  31.477  28.416   9.444
 2942POPC   PO438424  31.949  27.962   9.533
 2942POPC   GL138425  31.663  28.034   9.138
 2942POPC   GL238426  31.313  28.183   9.033
 2942POPC   C1A38427  31.699  28.218   8.701
 2942POPC   D2A38428  31.606  28.464   8.335
 2942POPC   C3A38429  31.784  28.280   7.983
 2942POPC   C4A38430  31.562  28.338   7.651
 2942POPC   C1B38431  31.306  28.572   8.758
 2942POPC   C2B38432  31.188  28.789   8.364
 2942POPC   C3B38433  31.186  28.594   7.933
 2942POPC   C4B38434  31.287  28.743   7.511
 2943POPC   NC338435  33.826  23.454   9.972
 2943POPC   PO438436  33.390  23.886   9.593
 2943POPC   GL138437  33.794  23.766   9.245
 2943POPC   GL238438  33.981  24.075   9.035
 2943POPC   C1A38439  33.944  23.620   8.830
 2943POPC   D2A38440  33.870  23.467   8.435
 2943POPC   C3A38441  33.965  23.669   8.056
 2943POPC   C4A38442  33.885  23.491   7.643
 2943POPC   C1B38443  33.640  24.008   8.730
 2943POPC   C2B38444  33.529  23.886   8.325
 2943POPC   C3B38445  33.510  23.810   7.899
 2943POPC   C4B38446  33.830  24.003   7.678
 2944POPC   NC338447  27.687  23.480   9.491
 2944POPC   PO438448  27.203  23.974   9.256
 2944POPC   GL138449  27.611  23.807   9.092
 2944POPC   GL238450  27.559  23.434   9.014
 2944POPC   C1A38451  27.942  23.938   8.799
 2944POPC   D2A38452  27.978  23.816   8.353
 2944POPC   C3A38453  28.028  24.037   7.947
 2944POPC   C4A38454  27.895  23.870   7.530
 2944POPC   C1B38455  27.582  23.602   8.595
 2944POPC   C2B38456  27.278  23.774   8.281
 2944POPC   C3B38457  27.403  23.709   7.840
 2944POPC   C4B38458  27.388  23.264   7.683
 2945POPC   NC338459  20.786  24.207   9.596
 2945POPC   PO438460  20.169  24.499   9.511
 2945POPC   GL138461  20.476  24.354   9.149
 2945POPC   GL238462  20.839  24.195   9.109
 2945POPC   C1A38463  20.632  24.523   8.740
 2945POPC   D2A38464  20.535  24.684   8.332
 2945POPC   C3A38465  20.356  24.401   8.055
 2945POPC   C4A38466  20.504  24.359   7.668
 2945POPC   C1B38467  21.010  24.186   8.727
 2945POPC   C2B38468  21.057  24.467   8.412
 2945POPC   C3B38469  20.899  24.467   8.020
 2945POPC   C4B38470  20.719  24.826   7.818
 2946POPC   NC338471  14.150   5.341   9.401
 2946POPC   PO438472  14.506   4.816   9.601
 2946POPC   GL138473  14.498   5.029   9.160
 2946POPC   GL238474  14.190   4.923   9.124
 2946POPC   C1A38475  14.392   5.323   8.798
 2946POPC   D2A38476  14.279   5.279   8.354
 2946POPC   C3A38477  14.594   5.292   8.032
 2946POPC   C4A38478  14.481   5.158   7.592
 2946POPC   C1B38479  14.162   4.889   8.693
 2946POPC   C2B38480  14.333   4.672   8.357
 2946POPC   C3B38481  14.339   4.830   7.974
 2946POPC   C4B38482  14.047   4.738   7.664
 2947POPC   NC338483  35.973  40.836   9.479
 2947POPC   PO438484  36.642  40.724   9.483
 2947POPC   GL138485  36.344  40.705   9.134
 2947POPC   GL238486  36.134  41.016   9.045
 2947POPC   C1A38487  36.476  40.807   8.717
 2947POPC   D2A38488  36.390  40.984   8.346
 2947POPC   C3A38489  36.274  40.611   8.126
 2947POPC   C4A38490  36.298  40.542   7.708
 2947POPC   C1B38491  35.869  41.168   8.717
 2947POPC   C2B38492  35.895  41.049   8.293
 2947POPC   C3B38493  35.999  40.953   7.862
 2947POPC   C4B38494  35.894  40.812   7.447
 2948POPC   NC338495  27.204  43.099   9.469
 2948POPC   PO438496  26.677  42.753   9.657
 2948POPC   GL138497  26.827  42.804   9.156
 2948POPC   GL238498  27.170  42.860   8.992
 2948POPC   C1A38499  26.653  42.916   8.687
 2948POPC   D2A38500  26.453  42.824   8.225
 2948POPC   C3A38501  26.431  42.993   7.731
 2948POPC   C4A38502  26.356  43.387   7.451
 2948POPC   C1B38503  27.069  43.254   8.761
 2948POPC   C2B38504  27.098  43.458   8.359
 2948POPC   C3B38505  27.236  43.313   7.962
 2948POPC   C4B38506  27.073  43.209   7.543
 2949POPC   NC338507   9.960  14.945   9.427
 2949POPC   PO438508   9.709  15.572   9.640
 2949POPC   GL138509   9.579  15.289   9.284
 2949POPC   GL238510   9.491  15.477   9.056
 2949POPC   C1A38511   9.602  15.012   8.864
 2949POPC   D2A38512   9.787  14.983   8.438
 2949POPC   C3A38513   9.664  15.107   8.013
 2949POPC   C4A38514   9.747  15.277   7.595
 2949POPC   C1B38515   9.731  15.445   8.667
 2949POPC   C2B38516   9.909  15.455   8.280
 2949POPC   C3B38517   9.989  15.613   7.907
 2949POPC   C4B38518   9.876  15.794   7.520
 2950POPC   NC338519  14.284  29.054   9.611
 2950POPC   PO438520  14.523  29.564   9.754
 2950POPC   GL138521  14.492  29.333   9.251
 2950POPC   GL238522  14.168  29.304   9.174
 2950POPC   C1A38523  14.508  29.043   8.875
 2950POPC   D2A38524  14.264  28.936   8.493
 2950POPC   C3A38525  14.484  28.949   8.098
 2950POPC   C4A38526  14.282  28.934   7.694
 2950POPC   C1B38527  14.148  29.432   8.756
 2950POPC   C2B38528  13.894  29.354   8.405
 2950POPC   C3B38529  14.047  29.249   8.016
 2950POPC   C4B38530  14.069  29.392   7.569
 2951POPC   NC338531  32.525  27.067   9.602
 2951POPC   PO438532  32.752  26.441   9.593
 2951POPC   GL138533  32.422  26.660   9.244
 2951POPC   GL238534  32.272  27.014   9.172
 2951POPC   C1A38535  32.535  26.822   8.781
 2951POPC   D2A38536  32.387  26.930   8.329
 2951POPC   C3A38537  32.557  26.708   7.954
 2951POPC   C4A38538  32.494  26.423   7.584
 2951POPC   C1B38539  32.183  27.227   8.782
 2951POPC   C2B38540  32.159  27.387   8.355
 2951POPC   C3B38541  32.082  27.213   7.915
 2951POPC   C4B38542  31.886  27.126   7.473
 2952POPC   NC338543  33.844  40.946   9.418
 2952POPC   PO438544  33.492  40.409   9.426
 2952POPC   GL138545  33.638  40.653   9.039
 2952POPC   GL238546  34.006  40.810   8.965
 2952POPC   C1A38547  33.695  40.697   8.591
 2952POPC   D2A38548  33.904  40.549   8.245
 2952POPC   C3A38549  33.811  40.728   7.832
 2952POPC   C4A38550  33.527  40.700   7.502
 2952POPC   C1B38551  34.115  41.070   8.626
 2952POPC   C2B38552  34.117  41.009   8.200
 2952POPC   C3B38553  34.024  41.182   7.802
 2952POPC   C4B38554  33.914  41.020   7.373
 2953POPC   NC338555  40.835  26.225   9.446
 2953POPC   PO438556  40.407  25.768   9.203
 2953POPC   GL138557  40.821  25.818   9.059
 2953POPC   GL238558  41.030  25.524   9.085
 2953POPC   C1A38559  40.822  26.039   8.679
 2953POPC   D2A38560  40.585  26.279   8.381
 2953POPC   C3A38561  40.791  26.138   8.031
 2953POPC   C4A38562  40.664  26.018   7.655
 2953POPC   C1B38563  41.152  25.655   8.641
 2953POPC   C2B38564  41.005  25.701   8.188
 2953POPC   C3B38565  41.117  25.825   7.717
 2953POPC   C4B38566  40.951  25.954   7.253
 2954POPC   NC338567  10.076  16.888   9.248
 2954POPC   PO438568  10.740  16.788   9.514
 2954POPC   GL138569  10.532  16.665   9.152
 2954POPC   GL238570  10.509  17.003   9.029
 2954POPC   C1A38571  10.638  16.648   8.699
 2954POPC   D2A38572  10.671  16.882   8.310
 2954POPC   C3A38573  10.732  16.660   7.881
 2954POPC   C4A38574  10.717  16.722   7.420
 2954POPC   C1B38575  10.254  16.975   8.637
 2954POPC   C2B38576  10.109  17.110   8.263
 2954POPC   C3B38577  10.322  16.972   7.927
 2954POPC   C4B38578  10.437  17.104   7.548
 2955POPC   NC338579  22.803   1.754   9.321
 2955POPC   PO438580  23.035   1.153   9.732
 2955POPC   GL138581  23.060   1.174   9.298
 2955POPC   GL238582  22.733   1.246   9.227
 2955POPC   C1A38583  23.090   1.100   8.847
 2955POPC   D2A38584  22.935   1.205   8.412
 2955POPC   C3A38585  22.882   0.950   8.056
 2955POPC   C4A38586  23.113   1.161   7.737
 2955POPC   C1B38587  22.670   1.404   8.806
 2955POPC   C2B38588  22.477   1.429   8.403
 2955POPC   C3B38589  22.652   1.400   7.961
 2955POPC   C4B38590  22.582   1.091   7.660
 2956POPC   NC338591  14.915  16.854   9.537
 2956POPC   PO438592  15.556  16.905   9.449
 2956POPC   GL138593  15.250  16.981   9.130
 2956POPC   GL238594  15.092  16.661   9.089
 2956POPC   C1A38595  15.261  16.904   8.690
 2956POPC   D2A38596  15.455  16.703   8.409
 2956POPC   C3A38597  15.229  16.763   8.075
 2956POPC   C4A38598  15.162  16.556   7.717
 2956POPC   C1B38599  15.174  16.400   8.730
 2956POPC   C2B38600  14.966  16.515   8.418
 2956POPC   C3B38601  14.796  16.452   8.055
 2956POPC   C4B38602  14.882  16.128   7.742
 2957POPC   NC338603  44.676  19.471   9.696
 2957POPC   PO438604  44.976  18.884   9.496
 2957POPC   GL138605  44.799  18.897   9.095
 2957POPC   GL238606   0.027  18.719   9.007
 2957POPC   C1A38607  44.594  19.091   8.728
 2957POPC   D2A38608  44.278  19.029   8.417
 2957POPC   C3A38609  44.409  19.149   8.017
 2957POPC   C4A38610  44.330  18.852   7.683
 2957POPC   C1B38611   0.097  18.944   8.643
 2957POPC   C2B38612  44.835  18.957   8.281
 2957POPC   C3B38613  44.821  18.899   7.851
 2957POPC   C4B38614  44.769  19.065   7.434
 2958POPC   NC338615   0.653  33.314   9.426
 2958POPC   PO438616   0.132  32.943   9.450
 2958POPC   GL138617   0.405  32.925   9.118
 2958POPC   GL238618   0.318  33.229   9.029
 2958POPC   C1A38619   0.487  32.903   8.676
 2958POPC   D2A38620   0.682  32.947   8.286
 2958POPC   C3A38621   0.433  32.842   7.965
 2958POPC   C4A38622   0.409  32.939   7.568
 2958POPC   C1B38623   0.490  33.395   8.632
 2958POPC   C2B38624   0.369  33.345   8.229
 2958POPC   C3B38625   0.541  33.343   7.837
 2958POPC   C4B38626   0.789  33.282   7.450
 2959POPC   NC338627   0.864   6.788   9.366
 2959POPC   PO438628   1.523   6.766   9.565
 2959POPC   GL138629   1.340   6.593   9.194
 2959POPC   GL238630   1.062   6.339   9.256
 2959POPC   C1A38631   1.313   6.721   8.768
 2959POPC   D2A38632   1.077   6.932   8.459
 2959POPC   C3A38633   1.167   6.748   8.048
 2959POPC   C4A38634   1.364   6.751   7.648
 2959POPC   C1B38635   0.926   6.385   8.846
 2959POPC   C2B38636   0.978   6.423   8.434
 2959POPC   C3B38637   0.875   6.315   8.039
 2959POPC   C4B38638   1.024   6.217   7.667
 2960POPC   NC338639  28.513   0.155   9.959
 2960POPC   PO438640  28.293   0.640   9.508
 2960POPC   GL138641  28.538   0.480   9.134
 2960POPC   GL238642  28.646   0.140   9.184
 2960POPC   C1A38643  28.621   0.697   8.734
 2960POPC   D2A38644  28.585   0.847   8.309
 2960POPC   C3A38645  28.334   0.581   7.982
 2960POPC   C4A38646  28.396   0.614   7.511
 2960POPC   C1B38647  28.837   0.242   8.773
 2960POPC   C2B38648  28.615   0.300   8.373
 2960POPC   C3B38649  28.505   0.087   8.000
 2960POPC   C4B38650  28.517   0.126   7.559
 2961POPC   NC338651  38.993  33.000   9.597
 2961POPC   PO438652  39.603  32.972   9.418
 2961POPC   GL138653  39.382  33.236   9.114
 2961POPC   GL238654  39.009  33.195   9.139
 2961POPC   C1A38655  39.324  33.212   8.662
 2961POPC   D2A38656  39.473  32.929   8.297
 2961POPC   C3A38657  39.191  32.738   7.966
 2961POPC   C4A38658  38.828  32.797   7.694
 2961POPC   C1B38659  38.831  32.952   8.827
 2961POPC   C2B38660  38.968  32.941   8.404
 2961POPC   C3B38661  38.925  33.164   8.042
 2961POPC   C4B38662  38.644  33.276   7.733
 2962POPC   NC338663  25.913  11.772   9.371
 2962POPC   PO438664  25.816  11.225   9.649
 2962POPC   GL138665  25.999  11.279   9.222
 2962POPC   GL238666  26.304  11.457   9.225
 2962POPC   C1A38667  26.008  11.535   8.793
 2962POPC   D2A38668  25.811  11.571   8.385
 2962POPC   C3A38669  26.045  11.293   8.096
 2962POPC   C4A38670  26.133  11.396   7.680
 2962POPC   C1B38671  26.373  11.141   8.897
 2962POPC   C2B38672  26.344  11.048   8.453
 2962POPC   C3B38673  26.542  11.034   8.037
 2962POPC   C4B38674  26.527  11.046   7.580
 2963POPC   NC338675  27.620  39.900   9.493
 2963POPC   PO438676  27.558  40.565   9.620
 2963POPC   GL138677  27.519  40.316   9.210
 2963POPC   GL238678  27.843  40.314   9.058
 2963POPC   C1A38679  27.476  40.065   8.801
 2963POPC   D2A38680  27.344  40.196   8.395
 2963POPC   C3A38681  27.421  39.987   7.994
 2963POPC   C4A38682  27.259  40.084   7.592
 2963POPC   C1B38683  28.013  40.073   8.753
 2963POPC   C2B38684  27.828  40.045   8.365
 2963POPC   C3B38685  27.909  40.157   7.968
 2963POPC   C4B38686  27.808  39.851   7.671
 2964POPC   NC338687  22.337   0.109   9.477
 2964POPC   PO438688  21.928   0.646   9.519
 2964POPC   GL138689  22.012   0.427   9.153
 2964POPC   GL238690  21.868   0.110   9.157
 2964POPC   C1A38691  22.063   0.641   8.762
 2964POPC   D2A38692  22.303   0.699   8.411
 2964POPC   C3A38693  22.166   0.642   8.004
 2964POPC   C4A38694  22.522   0.591   7.765
 2964POPC   C1B38695  22.139   0.104   8.754
 2964POPC   C2B38696  22.366   0.118   8.325
 2964POPC   C3B38697  22.220   0.149   7.866
 2964POPC   C4B38698  21.918   0.202   7.505
 2965POPC   NC338699  43.789  32.327   9.564
 2965POPC   PO438700  44.397  32.408   9.525
 2965POPC   GL138701  44.109  32.322   9.133
 2965POPC   GL238702  43.732  32.165   9.096
 2965POPC   C1A38703  43.941  32.372   8.688
 2965POPC   D2A38704  43.711  32.114   8.413
 2965POPC   C3A38705  43.921  32.048   8.030
 2965POPC   C4A38706  44.319  32.039   7.891
 2965POPC   C1B38707  43.491  32.504   8.883
 2965POPC   C2B38708  43.509  32.585   8.459
 2965POPC   C3B38709  43.760  32.529   8.112
 2965POPC   C4B38710  43.687  32.470   7.683
 2966POPC   NC338711  15.003  43.178   9.582
 2966POPC   PO438712  15.539  43.206   9.314
 2966POPC   GL138713  15.234  42.924   9.107
 2966POPC   GL238714  14.853  42.985   9.131
 2966POPC   C1A38715  15.268  42.879   8.685
 2966POPC   D2A38716  15.210  43.191   8.401
 2966POPC   C3A38717  15.379  43.097   8.048
 2966POPC   C4A38718  15.313  43.071   7.630
 2966POPC   C1B38719  14.781  42.755   8.771
 2966POPC   C2B38720  14.863  42.785   8.338
 2966POPC   C3B38721  14.860  43.068   7.970
 2966POPC   C4B38722  14.479  43.121   7.739
 2967POPC   NC338723   5.482  17.821   9.439
 2967POPC   PO438724   4.954  18.206   9.695
 2967POPC   GL138725   5.145  18.157   9.236
 2967POPC   GL238726   5.200  18.469   9.065
 2967POPC   C1A38727   5.051  18.063   8.766
 2967POPC   D2A38728   5.115  18.263   8.347
 2967POPC   C3A38729   4.909  18.092   7.995
 2967POPC   C4A38730   5.018  18.173   7.560
 2967POPC   C1B38731   4.927  18.561   8.716
 2967POPC   C2B38732   4.815  18.672   8.276
 2967POPC   C3B38733   4.954  18.593   7.832
 2967POPC   C4B38734   4.912  18.637   7.340
 2968POPC   NC338735  13.982  24.280   9.326
 2968POPC   PO438736  14.621  24.013   9.355
 2968POPC   GL138737  14.415  24.252   9.057
 2968POPC   GL238738  14.418  24.629   9.064
 2968POPC   C1A38739  14.210  24.380   8.685
 2968POPC   D2A38740  14.279  24.671   8.384
 2968POPC   C3A38741  14.286  24.504   7.989
 2968POPC   C4A38742  14.385  24.151   7.730
 2968POPC   C1B38743  14.610  24.912   8.723
 2968POPC   C2B38744  14.576  25.067   8.277
 2968POPC   C3B38745  14.650  24.886   7.870
 2968POPC   C4B38746  14.645  24.609   7.510
 2969POPC   NC338747  24.213  40.592   9.336
 2969POPC   PO438748  24.761  40.363   9.488
 2969POPC   GL138749  24.732  40.675   9.147
 2969POPC   GL238750  24.454  40.962   9.121
 2969POPC   C1A38751  24.728  40.838   8.736
 2969POPC   D2A38752  24.499  40.690   8.333
 2969POPC   C3A38753  24.700  40.902   7.941
 2969POPC   C4A38754  24.873  40.748   7.500
 2969POPC   C1B38755  24.207  40.958   8.741
 2969POPC   C2B38756  24.109  41.058   8.318
 2969POPC   C3B38757  24.204  40.853   7.933
 2969POPC   C4B38758  24.431  40.962   7.520
 2970POPC   NC338759  14.379  26.390   9.589
 2970POPC   PO438760  14.738  26.984   9.464
 2970POPC   GL138761  14.434  26.727   9.203
 2970POPC   GL238762  14.657  26.766   8.958
 2970POPC   C1A38763  14.178  26.587   8.818
 2970POPC   D2A38764  14.083  26.648   8.382
 2970POPC   C3A38765  14.384  26.560   8.072
 2970POPC   C4A38766  14.372  26.718   7.652
 2970POPC   C1B38767  14.577  27.162   8.747
 2970POPC   C2B38768  14.377  27.200   8.336
 2970POPC   C3B38769  14.590  27.367   7.972
 2970POPC   C4B38770  14.628  27.169   7.585
 2971POPC   NC338771  21.930   1.863   9.517
 2971POPC   PO438772  22.427   2.270   9.625
 2971POPC   GL138773  22.502   2.161   9.221
 2971POPC   GL238774  22.304   1.913   9.141
 2971POPC   C1A38775  22.473   2.277   8.796
 2971POPC   D2A38776  22.322   2.066   8.394
 2971POPC   C3A38777  22.368   2.269   7.983
 2971POPC   C4A38778  22.385   2.189   7.507
 2971POPC   C1B38779  22.238   1.710   8.771
 2971POPC   C2B38780  22.004   1.637   8.431
 2971POPC   C3B38781  22.190   1.659   8.038
 2971POPC   C4B38782  22.072   1.876   7.717
 2972POPC   NC338783  37.265  28.290   9.525
 2972POPC   PO438784  36.731  28.705   9.418
 2972POPC   GL138785  36.894  28.374   9.133
 2972POPC   GL238786  37.037  28.040   9.147
 2972POPC   C1A38787  36.842  28.257   8.703
 2972POPC   D2A38788  36.695  28.287   8.278
 2972POPC   C3A38789  36.941  28.481   7.980
 2972POPC   C4A38790  36.742  28.516   7.579
 2972POPC   C1B38791  37.013  27.782   8.779
 2972POPC   C2B38792  37.013  27.693   8.328
 2972POPC   C3B38793  36.904  27.959   7.959
 2972POPC   C4B38794  37.026  28.078   7.524
 2973POPC   NC338795  40.761   4.061   9.689
 2973POPC   PO438796  40.555   3.471   9.539
 2973POPC   GL138797  40.861   3.531   9.217
 2973POPC   GL238798  40.746   3.834   9.155
 2973POPC   C1A38799  40.822   3.403   8.783
 2973POPC   D2A38800  40.730   3.559   8.381
 2973POPC   C3A38801  40.816   3.364   7.989
 2973POPC   C4A38802  40.918   3.600   7.647
 2973POPC   C1B38803  40.485   3.781   8.783
 2973POPC   C2B38804  40.289   3.793   8.395
 2973POPC   C3B38805  40.379   3.662   7.999
 2973POPC   C4B38806  40.423   3.844   7.635
 2974POPC   NC338807  13.543  34.151   9.302
 2974POPC   PO438808  13.814  33.635   9.519
 2974POPC   GL138809  13.728  33.692   9.118
 2974POPC   GL238810  13.391  33.733   9.056
 2974POPC   C1A38811  13.770  33.595   8.717
 2974POPC   D2A38812  13.838  33.857   8.387
 2974POPC   C3A38813  13.723  33.723   8.014
 2974POPC   C4A38814  13.994  33.719   7.688
 2974POPC   C1B38815  13.436  33.999   8.688
 2974POPC   C2B38816  13.456  34.181   8.277
 2974POPC   C3B38817  13.239  33.937   8.020
 2974POPC   C4B38818  13.300  33.835   7.651
 2975POPC   NC338819   1.766  35.290   9.471
 2975POPC   PO438820   1.125  35.158   9.518
 2975POPC   GL138821   1.346  35.279   9.137
 2975POPC   GL238822   1.029  35.380   8.942
 2975POPC   C1A38823   1.493  35.413   8.720
 2975POPC   D2A38824   1.212  35.330   8.372
 2975POPC   C3A38825   1.249  35.530   7.973
 2975POPC   C4A38826   1.370  35.494   7.563
 2975POPC   C1B38827   0.807  35.098   8.648
 2975POPC   C2B38828   0.976  34.888   8.286
 2975POPC   C3B38829   1.100  35.044   7.912
 2975POPC   C4B38830   0.905  35.262   7.592
 2976POPC   NC338831  13.256  17.724   9.378
 2976POPC   PO438832  12.564  17.672   9.390
 2976POPC   GL138833  12.721  17.450   9.048
 2976POPC   GL238834  13.094  17.398   9.009
 2976POPC   C1A38835  12.750  17.375   8.626
 2976POPC   D2A38836  13.038  17.144   8.441
 2976POPC   C3A38837  12.980  17.171   7.996
 2976POPC   C4A38838  12.752  17.510   7.835
 2976POPC   C1B38839  13.283  17.597   8.630
 2976POPC   C2B38840  13.277  17.569   8.170
 2976POPC   C3B38841  13.271  17.676   7.717
 2976POPC   C4B38842  13.309  17.796   7.263
 2977POPC   NC338843  38.167  18.866   9.598
 2977POPC   PO438844  38.721  19.113   9.394
 2977POPC   GL138845  38.284  19.129   9.150
 2977POPC   GL238846  38.092  18.780   9.093
 2977POPC   C1A38847  38.258  19.248   8.683
 2977POPC   D2A38848  38.642  19.276   8.396
 2977POPC   C3A38849  38.588  19.218   7.973
 2977POPC   C4A38850  38.305  19.236   7.661
 2977POPC   C1B38851  38.413  18.780   8.806
 2977POPC   C2B38852  38.412  18.795   8.365
 2977POPC   C3B38853  38.378  18.750   7.923
 2977POPC   C4B38854  38.688  18.832   7.595
 2978POPC   NC338855  17.315  29.970   9.387
 2978POPC   PO438856  17.867  29.698   9.698
 2978POPC   GL138857  17.785  29.662   9.247
 2978POPC   GL238858  17.604  29.902   8.992
 2978POPC   C1A38859  17.833  29.490   8.834
 2978POPC   D2A38860  17.705  29.772   8.526
 2978POPC   C3A38861  17.746  29.660   8.140
 2978POPC   C4A38862  17.737  29.649   7.720
 2978POPC   C1B38863  17.237  30.026   8.739
 2978POPC   C2B38864  17.019  29.993   8.381
 2978POPC   C3B38865  17.032  30.155   7.997
 2978POPC   C4B38866  17.367  30.026   7.732
 2979POPC   NC338867   4.416  32.595   9.961
 2979POPC   PO438868   4.093  32.969   9.472
 2979POPC   GL138869   4.138  33.032   9.070
 2979POPC   GL238870   4.436  33.210   9.050
 2979POPC   C1A38871   3.998  33.062   8.629
 2979POPC   D2A38872   4.206  33.020   8.220
 2979POPC   C3A38873   3.908  33.029   7.872
 2979POPC   C4A38874   3.921  33.048   7.404
 2979POPC   C1B38875   4.450  32.863   8.706
 2979POPC   C2B38876   4.734  32.764   8.385
 2979POPC   C3B38877   4.687  32.929   7.995
 2979POPC   C4B38878   4.371  32.969   7.694
 2980POPC   NC338879  22.719  31.442   9.461
 2980POPC   PO438880  23.293  31.604   9.562
 2980POPC   GL138881  23.072  31.584   9.131
 2980POPC   GL238882  23.148  31.224   9.125
 2980POPC   C1A38883  23.157  31.609   8.654
 2980POPC   D2A38884  23.209  31.885   8.266
 2980POPC   C3A38885  22.968  31.762   7.893
 2980POPC   C4A38886  22.522  31.587   7.881
 2980POPC   C1B38887  22.806  31.262   8.793
 2980POPC   C2B38888  22.763  31.387   8.343
 2980POPC   C3B38889  22.941  31.268   7.970
 2980POPC   C4B38890  22.933  31.004   7.672
 2981POPC   NC338891  19.099  28.064   9.513
 2981POPC   PO438892  19.240  28.711   9.574
 2981POPC   GL138893  19.018  28.602   9.225
 2981POPC   GL238894  19.329  28.454   9.127
 2981POPC   C1A38895  19.015  28.736   8.815
 2981POPC   D2A38896  19.277  28.568   8.513
 2981POPC   C3A38897  19.060  28.511   8.142
 2981POPC   C4A38898  19.172  28.474   7.729
 2981POPC   C1B38899  19.128  28.199   8.835
 2981POPC   C2B38900  19.033  28.052   8.419
 2981POPC   C3B38901  19.166  27.969   7.993
 2981POPC   C4B38902  19.084  28.010   7.538
 2982POPC   NC338903  22.166  37.858   9.660
 2982POPC   PO438904  21.749  37.358   9.570
 2982POPC   GL138905  22.039  37.567   9.244
 2982POPC   GL238906  21.993  37.960   9.212
 2982POPC   C1A38907  22.272  37.381   8.859
 2982POPC   D2A38908  22.511  37.203   8.478
 2982POPC   C3A38909  22.317  37.282   8.060
 2982POPC   C4A38910  22.219  37.502   7.690
 2982POPC   C1B38911  22.241  37.924   8.859
 2982POPC   C2B38912  22.394  37.723   8.484
 2982POPC   C3B38913  22.314  37.813   8.082
 2982POPC   C4B38914  22.259  38.015   7.682
 2983POPC   NC338915  34.675  27.030   9.769
 2983POPC   PO438916  34.368  26.513   9.504
 2983POPC   GL138917  34.428  26.828   9.180
 2983POPC   GL238918  34.778  26.914   9.204
 2983POPC   C1A38919  34.581  26.779   8.738
 2983POPC   D2A38920  34.853  26.878   8.399
 2983POPC   C3A38921  34.611  26.973   8.018
 2983POPC   C4A38922  34.451  26.806   7.632
 2983POPC   C1B38923  34.852  27.203   8.840
 2983POPC   C2B38924  35.018  27.364   8.425
 2983POPC   C3B38925  35.091  27.162   8.026
 2983POPC   C4B38926  34.840  27.160   7.609
 2984POPC   NC338927  21.289  37.390   9.766
 2984POPC   PO438928  21.500  36.833   9.392
 2984POPC   GL138929  21.565  36.878   8.980
 2984POPC   GL238930  21.839  37.138   9.017
 2984POPC   C1A38931  21.286  36.804   8.625
 2984POPC   D2A38932  21.018  37.100   8.391
 2984POPC   C3A38933  21.236  37.281   8.042
 2984POPC   C4A38934  21.384  36.974   7.771
 2984POPC   C1B38935  21.580  37.212   8.626
 2984POPC   C2B38936  21.643  36.982   8.288
 2984POPC   C3B38937  21.855  37.074   7.963
 2984POPC   C4B38938  21.747  37.306   7.644
 2985POPC   NC338939  34.778  35.612   9.449
 2985POPC   PO438940  34.303  35.221   9.348
 2985POPC   GL138941  34.645  35.089   9.084
 2985POPC   GL238942  34.791  35.422   8.982
 2985POPC   C1A38943  34.722  35.050   8.641
 2985POPC   D2A38944  34.433  35.209   8.341
 2985POPC   C3A38945  34.653  35.251   8.016
 2985POPC   C4A38946  34.485  35.312   7.658
 2985POPC   C1B38947  34.414  35.489   8.753
 2985POPC   C2B38948  34.376  35.719   8.352
 2985POPC   C3B38949  34.501  35.735   7.946
 2985POPC   C4B38950  34.390  35.812   7.518
 2986POPC   NC338951   9.634   8.872   9.510
 2986POPC   PO438952   9.541   9.455   9.132
 2986POPC   GL138953   9.734   9.091   9.065
 2986POPC   GL238954  10.049   8.946   9.193
 2986POPC   C1A38955   9.786   8.747   8.797
 2986POPC   D2A38956   9.991   8.629   8.440
 2986POPC   C3A38957   9.742   8.831   8.133
 2986POPC   C4A38958   9.723   8.991   7.722
 2986POPC   C1B38959  10.127   9.133   8.752
 2986POPC   C2B38960  10.019   9.194   8.353
 2986POPC   C3B38961  10.163   9.108   7.946
 2986POPC   C4B38962  10.108   8.665   7.804
 2987POPC   NC338963   3.925  20.867   9.386
 2987POPC   PO438964   4.374  20.371   9.430
 2987POPC   GL138965   4.388  20.555   9.051
 2987POPC   GL238966   4.727  20.689   9.009
 2987POPC   C1A38967   4.189  20.398   8.673
 2987POPC   D2A38968   4.026  20.153   8.321
 2987POPC   C3A38969   4.116  20.322   7.914
 2987POPC   C4A38970   4.025  20.779   7.846
 2987POPC   C1B38971   4.939  20.604   8.598
 2987POPC   C2B38972   4.886  20.699   8.192
 2987POPC   C3B38973   4.529  20.624   7.976
 2987POPC   C4B38974   4.549  20.442   7.592
 2988POPC   NC338975  27.000  24.899   9.387
 2988POPC   PO438976  26.505  24.320   9.431
 2988POPC   GL138977  26.660  24.601   9.156
 2988POPC   GL238978  26.987  24.434   9.201
 2988POPC   C1A38979  26.651  24.737   8.745
 2988POPC   D2A38980  26.561  24.427   8.430
 2988POPC   C3A38981  26.669  24.453   8.000
 2988POPC   C4A38982  26.427  24.301   7.658
 2988POPC   C1B38983  27.024  24.401   8.775
 2988POPC   C2B38984  27.088  24.286   8.372
 2988POPC   C3B38985  27.128  24.211   7.979
 2988POPC   C4B38986  27.058  24.473   7.658
 2989POPC   NC338987   9.429  44.145   9.489
 2989POPC   PO438988   9.888  43.631   9.466
 2989POPC   GL138989   9.622  43.818   9.168
 2989POPC   GL238990   9.813  44.127   9.109
 2989POPC   C1A38991   9.486  43.873   8.761
 2989POPC   D2A38992   9.722  43.693   8.418
 2989POPC   C3A38993   9.638  43.737   7.987
 2989POPC   C4A38994   9.667  43.478   7.649
 2989POPC   C1B38995   9.841  44.196   8.595
 2989POPC   C2B38996   9.690  44.245   8.167
 2989POPC   C3B38997   9.797  44.190   7.736
 2989POPC   C4B38998   9.738  44.421   7.309
 2990POPC   NC338999  44.222  22.497   9.577
 2990POPC   PO439000  43.925  23.123   9.529
 2990POPC   GL139001  44.027  22.850   9.205
 2990POPC   GL239002  43.732  22.623   9.254
 2990POPC   C1A39003  44.140  22.978   8.775
 2990POPC   D2A39004  44.309  23.156   8.381
 2990POPC   C3A39005  44.065  23.196   8.020
 2990POPC   C4A39006  44.096  22.889   7.721
 2990POPC   C1B39007  43.624  22.890   8.871
 2990POPC   C2B39008  43.732  23.040   8.455
 2990POPC   C3B39009  43.524  23.104   8.065
 2990POPC   C4B39010  43.605  22.878   7.708
 2991POPC   NC339011  14.216  43.622   9.512
 2991POPC   PO439012  14.500  44.199   9.528
 2991POPC   GL139013  14.459  43.919   9.133
 2991POPC   GL239014  14.178  43.716   9.034
 2991POPC   C1A39015  14.341  44.046   8.688
 2991POPC   D2A39016  14.049  44.002   8.328
 2991POPC   C3A39017  14.260  44.046   7.919
 2991POPC   C4A39018  14.451  43.888   7.513
 2991POPC   C1B39019  14.246  43.518   8.663
 2991POPC   C2B39020  14.463  43.680   8.337
 2991POPC   C3B39021  14.563  43.594   7.958
 2991POPC   C4B39022  14.798  43.519   7.637
 2992POPC   NC339023  38.841  22.223   9.615
 2992POPC   PO439024  38.182  22.283   9.742
 2992POPC   GL139025  38.349  22.037   9.360
 2992POPC   GL239026  38.631  21.806   9.278
 2992POPC   C1A39027  38.295  21.993   8.913
 2992POPC   D2A39028  38.372  21.961   8.481
 2992POPC   C3A39029  38.424  22.246   8.166
 2992POPC   C4A39030  38.308  22.194   7.773
 2992POPC   C1B39031  38.774  21.822   8.808
 2992POPC   C2B39032  38.876  22.003   8.393
 2992POPC   C3B39033  38.762  21.917   7.953
 2992POPC   C4B39034  38.996  21.965   7.599
 2993POPC   NC339035  25.398  11.422   9.684
 2993POPC   PO439036  24.854  11.051   9.438
 2993POPC   GL139037  25.162  11.365   9.221
 2993POPC   GL239038  25.522  11.445   9.160
 2993POPC   C1A39039  25.128  11.532   8.826
 2993POPC   D2A39040  25.299  11.443   8.459
 2993POPC   C3A39041  25.041  11.396   8.109
 2993POPC   C4A39042  25.149  11.444   7.729
 2993POPC   C1B39043  25.689  11.140   8.845
 2993POPC   C2B39044  25.631  11.067   8.412
 2993POPC   C3B39045  25.553  11.300   8.013
 2993POPC   C4B39046  25.684  11.142   7.591
 2994POPC   NC339047  22.633   3.360   9.431
 2994POPC   PO439048  22.035   3.705   9.461
 2994POPC   GL139049  22.161   3.360   9.182
 2994POPC   GL239050  22.427   3.488   8.955
 2994POPC   C1A39051  22.087   3.162   8.768
 2994POPC   D2A39052  22.066   3.411   8.397
 2994POPC   C3A39053  22.260   3.339   8.008
 2994POPC   C4A39054  22.304   3.438   7.578
 2994POPC   C1B39055  22.000   3.701   8.821
 2994POPC   C2B39056  21.833   3.882   8.454
 2994POPC   C3B39057  21.850   3.730   8.067
 2994POPC   C4B39058  22.055   3.839   7.722
 2995POPC   NC339059  30.337   7.008   9.388
 2995POPC   PO439060  30.859   7.571   9.508
 2995POPC   GL139061  30.688   7.335   9.186
 2995POPC   GL239062  30.375   7.496   9.111
 2995POPC   C1A39063  30.832   7.146   8.806
 2995POPC   D2A39064  30.771   7.455   8.499
 2995POPC   C3A39065  30.751   7.406   8.076
 2995POPC   C4A39066  30.741   7.649   7.716
 2995POPC   C1B39067  30.326   7.219   8.715
 2995POPC   C2B39068  30.164   7.090   8.284
 2995POPC   C3B39069  30.315   7.230   7.872
 2995POPC   C4B39070  30.671   7.104   7.635
 2996POPC   NC339071   5.213  44.303   9.548
 2996POPC   PO439072   4.812  43.808   9.620
 2996POPC   GL139073   5.056  43.837   9.226
 2996POPC   GL239074   5.130  44.159   9.088
 2996POPC   C1A39075   4.982  43.825   8.761
 2996POPC   D2A39076   5.201  43.862   8.350
 2996POPC   C3A39077   4.958  43.909   8.001
 2996POPC   C4A39078   5.191  43.657   7.713
 2996POPC   C1B39079   5.371  44.151   8.734
 2996POPC   C2B39080   5.409  44.347   8.381
 2996POPC   C3B39081   5.484  44.431   7.986
 2996POPC   C4B39082   5.308  44.163   7.694
 2997POPC   NC339083  26.585  33.646   9.611
 2997POPC   PO439084  27.147  33.454   9.459
 2997POPC   GL139085  26.857  33.576   9.140
 2997POPC   GL239086  26.732  33.891   9.164
 2997POPC   C1A39087  26.826  33.443   8.709
 2997POPC   D2A39088  26.945  33.621   8.297
 2997POPC   C3A39089  27.056  33.615   7.843
 2997POPC   C4A39090  27.037  33.829   7.426
 2997POPC   C1B39091  26.914  33.955   8.734
 2997POPC   C2B39092  26.960  34.147   8.335
 2997POPC   C3B39093  26.771  34.103   7.951
 2997POPC   C4B39094  26.311  34.119   7.921
 2998POPC   NC339095  36.519   0.842   9.513
 2998POPC   PO439096  36.243   0.252   9.351
 2998POPC   GL139097  36.070   0.538   9.050
 2998POPC   GL239098  36.249   0.852   9.078
 2998POPC   C1A39099  36.026   0.460   8.612
 2998POPC   D2A39100  36.366   0.208   8.429
 2998POPC   C3A39101  36.367   0.271   8.016
 2998POPC   C4A39102  36.013   0.176   7.760
 2998POPC   C1B39103  36.103   1.013   8.672
 2998POPC   C2B39104  35.849   0.854   8.333
 2998POPC   C3B39105  35.981   0.655   7.964
 2998POPC   C4B39106  36.383   0.706   7.746
 2999POPC   NC339107   9.219  42.638   9.510
 2999POPC   PO439108   8.857  42.133   9.670
 2999POPC   GL139109   8.923  42.200   9.221
 2999POPC   GL239110   8.964  42.565   9.071
 2999POPC   C1A39111   8.910  42.118   8.790
 2999POPC   D2A39112   8.891  42.383   8.408
 2999POPC   C3A39113   9.007  42.206   8.016
 2999POPC   C4A39114   9.101  42.026   7.634
 2999POPC   C1B39115   9.264  42.600   8.708
 2999POPC   C2B39116   9.434  42.598   8.293
 2999POPC   C3B39117   9.142  42.698   7.968
 2999POPC   C4B39118   8.963  42.847   7.579
 3000POPC   NC339119  26.054  14.917   9.580
 3000POPC   PO439120  26.193  15.519   9.582
 3000POPC   GL139121  26.047  15.280   9.223
 3000POPC   GL239122  26.002  15.586   9.086
 3000POPC   C1A39123  26.287  15.059   8.862
 3000POPC   D2A39124  26.299  15.213   8.410
 3000POPC   C3A39125  26.338  15.102   7.957
 3000POPC   C4A39126  26.262  15.299   7.536
 3000POPC   C1B39127  25.873  15.334   8.734
 3000POPC   C2B39128  25.872  15.515   8.337
 3000POPC   C3B39129  25.955  15.528   7.920
 3000POPC   C4B39130  25.835  15.137   7.782
 3001POPC   NC339131  31.054  39.084   9.386
 3001POPC   PO439132  30.473  39.487   9.452
 3001POPC   GL139133  30.586  39.126   9.215
 3001POPC   GL239134  30.802  39.399   9.048
 3001POPC   C1A39135  30.771  38.971   8.793
 3001POPC   D2A39136  30.616  38.966   8.402
 3001POPC   C3A39137  30.833  39.017   8.058
 3001POPC   C4A39138  30.700  38.903   7.698
 3001POPC   C1B39139  30.358  39.313   8.827
 3001POPC   C2B39140  30.265  39.354   8.445
 3001POPC   C3B39141  30.558  39.490   8.170
 3001POPC   C4B39142  30.640  39.413   7.779
 3002POPC   NC339143   2.555  27.649   9.453
 3002POPC   PO439144   3.071  27.266   9.505
 3002POPC   GL139145   2.872  27.437   9.135
 3002POPC   GL239146   2.556  27.290   9.096
 3002POPC   C1A39147   2.670  27.694   8.800
 3002POPC   D2A39148   2.514  27.718   8.385
 3002POPC   C3A39149   2.781  27.873   8.054
 3002POPC   C4A39150   2.883  27.711   7.645
 3002POPC   C1B39151   2.510  27.047   8.758
 3002POPC   C2B39152   2.402  27.197   8.370
 3002POPC   C3B39153   2.649  27.335   8.009
 3002POPC   C4B39154   2.484  27.348   7.604
 3003POPC   NC339155  38.364  43.242   9.392
 3003POPC   PO439156  39.005  43.178   9.383
 3003POPC   GL139157  38.745  42.953   9.154
 3003POPC   GL239158  38.696  43.252   8.995
 3003POPC   C1A39159  38.456  42.872   8.806
 3003POPC   D2A39160  38.595  43.081   8.443
 3003POPC   C3A39161  38.364  43.055   8.059
 3003POPC   C4A39162  38.588  42.939   7.693
 3003POPC   C1B39163  38.387  43.418   8.767
 3003POPC   C2B39164  38.173  43.367   8.424
 3003POPC   C3B39165  38.226  43.556   8.041
 3003POPC   C4B39166  38.129  43.382   7.663
 3004POPC   NC339167  23.994  36.278   9.446
 3004POPC   PO439168  23.835  35.740   9.757
 3004POPC   GL139169  23.931  35.857   9.185
 3004POPC   GL239170  23.668  36.122   9.076
 3004POPC   C1A39171  23.768  35.795   8.720
 3004POPC   D2A39172  23.445  35.992   8.414
 3004POPC   C3A39173  23.544  35.864   7.990
 3004POPC   C4A39174  23.960  35.724   7.928
 3004POPC   C1B39175  23.877  36.309   8.749
 3004POPC   C2B39176  23.881  36.399   8.313
 3004POPC   C3B39177  23.849  36.251   7.901
 3004POPC   C4B39178  23.838  36.462   7.555
 3005POPC   NC339179  27.640   1.605   9.398
 3005POPC   PO439180  27.638   1.037   9.592
 3005POPC   GL139181  27.772   1.175   9.127
 3005POPC   GL239182  28.039   1.393   9.063
 3005POPC   C1A39183  27.770   1.261   8.631
 3005POPC   D2A39184  27.754   0.967   8.242
 3005POPC   C3A39185  27.539   0.994   7.822
 3005POPC   C4A39186  27.488   0.986   7.351
 3005POPC   C1B39187  27.981   1.743   8.745
 3005POPC   C2B39188  27.873   1.836   8.324
 3005POPC   C3B39189  27.820   1.460   8.047
 3005POPC   C4B39190  27.816   1.355   7.602
 3006POPC   NC339191  14.182  11.293   9.274
 3006POPC   PO439192  14.549  11.909   9.451
 3006POPC   GL139193  14.633  11.572   9.154
 3006POPC   GL239194  14.779  11.266   9.315
 3006POPC   C1A39195  14.473  11.574   8.726
 3006POPC   D2A39196  14.430  11.753   8.321
 3006POPC   C3A39197  14.377  11.447   7.990
 3006POPC   C4A39198  14.436  11.446   7.556
 3006POPC   C1B39199  14.697  11.074   8.910
 3006POPC   C2B39200  14.489  11.088   8.521
 3006POPC   C3B39201  14.551  10.967   8.111
 3006POPC   C4B39202  14.251  10.910   7.787
 3007POPC   NC339203   4.220   4.119  10.115
 3007POPC   PO439204   4.240   4.300   9.448
 3007POPC   GL139205   4.271   4.105   9.038
 3007POPC   GL239206   3.932   4.088   9.011
 3007POPC   C1A39207   4.373   4.101   8.583
 3007POPC   D2A39208   4.396   4.391   8.218
 3007POPC   C3A39209   4.562   4.207   7.815
 3007POPC   C4A39210   4.487   4.112   7.374
 3007POPC   C1B39211   3.908   4.298   8.609
 3007POPC   C2B39212   3.913   4.220   8.165
 3007POPC   C3B39213   4.089   4.465   7.811
 3007POPC   C4B39214   4.068   4.485   7.362
 3008POPC   NC339215  30.971  30.542   9.654
 3008POPC   PO439216  30.559  30.892   9.369
 3008POPC   GL139217  30.789  30.548   9.184
 3008POPC   GL239218  30.961  30.813   9.045
 3008POPC   C1A39219  30.899  30.290   8.842
 3008POPC   D2A39220  30.708  30.368   8.453
 3008POPC   C3A39221  30.795  30.353   8.032
 3008POPC   C4A39222  30.363  30.346   7.875
 3008POPC   C1B39223  30.605  30.775   8.739
 3008POPC   C2B39224  30.522  30.951   8.345
 3008POPC   C3B39225  30.600  30.816   7.947
 3008POPC   C4B39226  31.010  30.772   7.767
 3009POPC   NC339227  24.358   4.876   9.789
 3009POPC   PO439228  24.593   5.462   9.478
 3009POPC   GL139229  24.510   5.261   9.115
 3009POPC   GL239230  24.335   4.934   9.186
 3009POPC   C1A39231  24.709   5.391   8.722
 3009POPC   D2A39232  24.599   5.218   8.320
 3009POPC   C3A39233  24.669   5.424   7.960
 3009POPC   C4A39234  24.426   5.261   7.638
 3009POPC   C1B39235  24.459   4.930   8.720
 3009POPC   C2B39236  24.438   4.725   8.276
 3009POPC   C3B39237  24.576   4.850   7.884
 3009POPC   C4B39238  24.472   4.753   7.455
 3010POPC   NC339239  28.243  39.668   9.458
 3010POPC   PO439240  28.441  39.090   9.543
 3010POPC   GL139241  28.470  39.302   9.153
 3010POPC   GL239242  28.116  39.275   9.129
 3010POPC   C1A39243  28.409  39.258   8.704
 3010POPC   D2A39244  28.609  39.095   8.350
 3010POPC   C3A39245  28.428  39.192   8.024
 3010POPC   C4A39246  28.532  39.020   7.660
 3010POPC   C1B39247  27.998  39.554   8.812
 3010POPC   C2B39248  28.195  39.700   8.427
 3010POPC   C3B39249  28.140  39.620   8.001
 3010POPC   C4B39250  28.311  39.478   7.592
 3011POPC   NC339251  42.786  16.788   9.446
 3011POPC   PO439252  43.453  16.967   9.597
 3011POPC   GL139253  43.264  16.868   9.193
 3011POPC   GL239254  43.388  16.578   9.041
 3011POPC   C1A39255  42.991  16.914   8.809
 3011POPC   D2A39256  42.791  16.989   8.400
 3011POPC   C3A39257  42.921  16.771   8.039
 3011POPC   C4A39258  43.111  16.880   7.653
 3011POPC   C1B39259  43.253  16.505   8.661
 3011POPC   C2B39260  43.504  16.438   8.328
 3011POPC   C3B39261  43.374  16.524   7.953
 3011POPC   C4B39262  43.522  16.449   7.612
 3012POPC   NC339263  16.331  10.824   9.506
 3012POPC   PO439264  16.511  10.167   9.707
 3012POPC   GL139265  16.618  10.282   9.265
 3012POPC   GL239266  16.532  10.020   9.118
 3012POPC   C1A39267  16.605  10.474   8.826
 3012POPC   D2A39268  16.440  10.489   8.406
 3012POPC   C3A39269  16.689  10.732   8.158
 3012POPC   C4A39270  16.651  10.887   7.762
 3012POPC   C1B39271  16.923  10.089   8.851
 3012POPC   C2B39272  16.921  10.283   8.414
 3012POPC   C3B39273  16.661  10.189   8.044
 3012POPC   C4B39274  16.570  10.342   7.628
 3013POPC   NC339275  25.531  17.324   9.523
 3013POPC   PO439276  24.943  17.636   9.485
 3013POPC   GL139277  25.165  17.392   9.185
 3013POPC   GL239278  25.312  17.695   9.076
 3013POPC   C1A39279  25.137  17.340   8.753
 3013POPC   D2A39280  25.045  17.614   8.421
 3013POPC   C3A39281  25.206  17.559   8.019
 3013POPC   C4A39282  25.237  17.299   7.691
 3013POPC   C1B39283  25.564  17.617   8.737
 3013POPC   C2B39284  25.532  17.375   8.392
 3013POPC   C3B39285  25.691  17.370   7.968
 3013POPC   C4B39286  25.628  17.561   7.574
 3014POPC   NC339287   2.930  30.357   9.525
 3014POPC   PO439288   2.793  29.617   9.560
 3014POPC   GL139289   2.558  29.854   9.222
 3014POPC   GL239290   2.734  30.134   9.127
 3014POPC   C1A39291   2.541  29.855   8.762
 3014POPC   D2A39292   2.824  29.844   8.420
 3014POPC   C3A39293   2.673  29.719   8.052
 3014POPC   C4A39294   2.523  29.930   7.687
 3014POPC   C1B39295   3.048  29.919   8.895
 3014POPC   C2B39296   3.297  29.983   8.505
 3014POPC   C3B39297   3.229  29.871   8.065
 3014POPC   C4B39298   3.013  29.850   7.711
 3015POPC   NC339299  27.367  29.285   9.506
 3015POPC   PO439300  27.876  28.839   9.639
 3015POPC   GL139301  27.636  28.931   9.253
 3015POPC   GL239302  27.795  29.242   9.190
 3015POPC   C1A39303  27.614  29.010   8.790
 3015POPC   D2A39304  27.780  28.854   8.404
 3015POPC   C3A39305  27.628  29.093   8.059
 3015POPC   C4A39306  27.460  29.065   7.633
 3015POPC   C1B39307  27.866  29.541   8.865
 3015POPC   C2B39308  28.022  29.614   8.466
 3015POPC   C3B39309  27.966  29.512   8.063
 3015POPC   C4B39310  27.666  29.517   7.769
 3016POPC   NC339311   8.399   4.232   9.639
 3016POPC   PO439312   8.331   4.819   9.525
 3016POPC   GL139313   8.466   4.487   9.167
 3016POPC   GL239314   8.298   4.168   9.129
 3016POPC   C1A39315   8.480   4.338   8.693
 3016POPC   D2A39316   8.503   4.054   8.335
 3016POPC   C3A39317   8.411   4.288   7.945
 3016POPC   C4A39318   8.128   4.439   7.597
 3016POPC   C1B39319   8.083   3.991   8.745
 3016POPC   C2B39320   7.945   3.917   8.304
 3016POPC   C3B39321   7.885   4.037   7.847
 3016POPC   C4B39322   7.851   3.944   7.393
 3017POPC   NC339323  19.292  25.736   9.843
 3017POPC   PO439324  19.425  25.167   9.493
 3017POPC   GL139325  19.586  25.191   9.115
 3017POPC   GL239326  19.462  24.878   9.069
 3017POPC   C1A39327  19.629  25.467   8.744
 3017POPC   D2A39328  19.540  25.626   8.337
 3017POPC   C3A39329  19.853  25.573   7.993
 3017POPC   C4A39330  19.867  25.348   7.603
 3017POPC   C1B39331  19.715  24.939   8.680
 3017POPC   C2B39332  19.798  25.141   8.270
 3017POPC   C3B39333  19.691  24.904   7.852
 3017POPC   C4B39334  19.797  24.892   7.404
 3018POPC   NC339335  33.266   5.209   9.526
 3018POPC   PO439336  32.615   5.351   9.643
 3018POPC   GL139337  32.707   5.115   9.233
 3018POPC   GL239338  32.982   4.847   9.217
 3018POPC   C1A39339  32.833   5.119   8.787
 3018POPC   D2A39340  32.976   4.894   8.400
 3018POPC   C3A39341  32.750   5.091   8.101
 3018POPC   C4A39342  32.848   5.318   7.729
 3018POPC   C1B39343  33.271   4.842   8.838
 3018POPC   C2B39344  33.486   5.005   8.436
 3018POPC   C3B39345  33.273   5.111   8.021
 3018POPC   C4B39346  33.021   4.840   7.755
 3019POPC   NC339347  17.170  41.286   9.404
 3019POPC   PO439348  16.490  41.503   9.516
 3019POPC   GL139349  16.721  41.535   9.154
 3019POPC   GL239350  16.449  41.745   8.992
 3019POPC   C1A39351  16.860  41.629   8.713
 3019POPC   D2A39352  16.725  41.799   8.322
 3019POPC   C3A39353  16.868  41.631   7.940
 3019POPC   C4A39354  16.933  41.674   7.520
 3019POPC   C1B39355  16.456  41.338   8.764
 3019POPC   C2B39356  16.592  41.302   8.381
 3019POPC   C3B39357  16.429  41.418   8.013
 3019POPC   C4B39358  16.421  41.130   7.717
 3020POPC   NC339359  30.886  10.328   9.541
 3020POPC   PO439360  30.634  10.889   9.466
 3020POPC   GL139361  30.526  10.654   9.104
 3020POPC   GL239362  30.752  10.414   9.064
 3020POPC   C1A39363  30.402  10.786   8.723
 3020POPC   D2A39364  30.570  11.057   8.415
 3020POPC   C3A39365  30.497  10.773   8.099
 3020POPC   C4A39366  30.639  10.519   7.762
 3020POPC   C1B39367  30.681  10.214   8.682
 3020POPC   C2B39368  30.814  10.393   8.306
 3020POPC   C3B39369  31.082  10.307   7.991
 3020POPC   C4B39370  30.943  10.124   7.653
 3021POPC   NC339371  13.045  22.850   9.672
 3021POPC   PO439372  13.578  23.148   9.495
 3021POPC   GL139373  13.212  23.070   9.216
 3021POPC   GL239374  12.823  23.147   9.280
 3021POPC   C1A39375  12.995  22.926   8.843
 3021POPC   D2A39376  12.876  22.662   8.457
 3021POPC   C3A39377  12.972  22.854   8.063
 3021POPC   C4A39378  12.925  22.627   7.721
 3021POPC   C1B39379  12.582  23.219   8.859
 3021POPC   C2B39380  12.766  23.163   8.435
 3021POPC   C3B39381  12.575  23.186   8.048
 3021POPC   C4B39382  12.464  23.096   7.643
 3022POPC   NC339383  35.643  26.579   9.514
 3022POPC   PO439384  35.108  26.912   9.632
 3022POPC   GL139385  35.284  27.030   9.231
 3022POPC   GL239386  35.649  27.131   9.212
 3022POPC   C1A39387  35.209  26.832   8.830
 3022POPC   D2A39388  35.342  26.534   8.530
 3022POPC   C3A39389  35.191  26.601   8.103
 3022POPC   C4A39390  35.184  26.793   7.687
 3022POPC   C1B39391  35.735  26.986   8.775
 3022POPC   C2B39392  35.477  27.003   8.389
 3022POPC   C3B39393  35.575  26.957   7.967
 3022POPC   C4B39394  35.441  27.223   7.638
 3023POPC   NC339395  32.138  21.077   9.505
 3023POPC   PO439396  32.696  21.386   9.565
 3023POPC   GL139397  32.443  21.293   9.176
 3023POPC   GL239398  32.122  21.499   9.200
 3023POPC   C1A39399  32.396  21.398   8.756
 3023POPC   D2A39400  32.436  21.660   8.395
 3023POPC   C3A39401  32.392  21.398   8.044
 3023POPC   C4A39402  32.301  21.147   7.710
 3023POPC   C1B39403  31.880  21.327   8.843
 3023POPC   C2B39404  32.040  21.245   8.421
 3023POPC   C3B39405  31.880  21.333   8.018
 3023POPC   C4B39406  31.951  21.509   7.620
 3024POPC   NC339407  31.587  17.816   9.454
 3024POPC   PO439408  31.182  17.185   9.582
 3024POPC   GL139409  31.483  17.384   9.205
 3024POPC   GL239410  31.567  17.677   8.963
 3024POPC   C1A39411  31.590  17.225   8.756
 3024POPC   D2A39412  31.495  17.432   8.348
 3024POPC   C3A39413  31.695  17.383   7.942
 3024POPC   C4A39414  31.563  17.581   7.562
 3024POPC   C1B39415  31.386  17.887   8.569
 3024POPC   C2B39416  31.133  17.952   8.172
 3024POPC   C3B39417  31.421  18.071   7.837
 3024POPC   C4B39418  31.840  17.918   7.861
 3025POPC   NC339419   2.994  44.118   9.422
 3025POPC   PO439420   2.446  43.625   9.404
 3025POPC   GL139421   2.708  43.857   9.089
 3025POPC   GL239422   3.019  43.774   9.036
 3025POPC   C1A39423   2.769  43.927   8.634
 3025POPC   D2A39424   2.419  43.755   8.412
 3025POPC   C3A39425   2.400  43.858   7.988
 3025POPC   C4A39426   2.671  44.151   7.769
 3025POPC   C1B39427   3.185  43.614   8.660
 3025POPC   C2B39428   3.138  43.826   8.281
 3025POPC   C3B39429   3.143  44.063   7.915
 3025POPC   C4B39430   3.052  43.905   7.507
 3026POPC   NC339431   1.829  16.262   9.515
 3026POPC   PO439432   2.165  15.851   9.274
 3026POPC   GL139433   2.235  16.017   8.966
 3026POPC   GL239434   2.133  16.325   9.063
 3026POPC   C1A39435   2.110  15.900   8.576
 3026POPC   D2A39436   1.905  15.636   8.292
 3026POPC   C3A39437   1.921  15.916   7.956
 3026POPC   C4A39438   1.972  16.121   7.559
 3026POPC   C1B39439   2.275  16.392   8.639
 3026POPC   C2B39440   2.244  16.271   8.198
 3026POPC   C3B39441   2.354  16.383   7.766
 3026POPC   C4B39442   2.434  16.387   7.323
 3027POPC   NC339443  10.143  26.266   9.533
 3027POPC   PO439444  10.741  26.131   9.533
 3027POPC   GL139445  10.806  26.180   9.126
 3027POPC   GL239446  10.483  26.330   9.116
 3027POPC   C1A39447  10.708  25.952   8.770
 3027POPC   D2A39448  10.493  26.055   8.414
 3027POPC   C3A39449  10.719  25.962   8.052
 3027POPC   C4A39450  10.522  25.988   7.671
 3027POPC   C1B39451  10.214  26.458   8.776
 3027POPC   C2B39452  10.273  26.553   8.327
 3027POPC   C3B39453  10.297  26.390   7.904
 3027POPC   C4B39454   9.984  26.075   7.708
 3028POPC   NC339455  28.051   0.267   9.644
 3028POPC   PO439456  28.484  44.707   9.674
 3028POPC   GL139457  28.466  44.668   9.206
 3028POPC   GL239458  28.697  44.484   9.062
 3028POPC   C1A39459  28.532  44.831   8.747
 3028POPC   D2A39460  28.485  44.639   8.335
 3028POPC   C3A39461  28.167  44.728   8.017
 3028POPC   C4A39462  28.351  44.667   7.613
 3028POPC   C1B39463  28.849  44.422   8.656
 3028POPC   C2B39464  28.742  44.192   8.276
 3028POPC   C3B39465  28.624  44.309   7.867
 3028POPC   C4B39466  28.639  44.325   7.389
 3029POPC   NC339467  39.530  41.036   9.460
 3029POPC   PO439468  39.044  41.467   9.556
 3029POPC   GL139469  39.196  41.340   9.177
 3029POPC   GL239470  38.893  41.490   9.071
 3029POPC   C1A39471  39.256  41.349   8.725
 3029POPC   D2A39472  39.525  41.496   8.374
 3029POPC   C3A39473  39.294  41.427   7.989
 3029POPC   C4A39474  39.348  41.646   7.618
 3029POPC   C1B39475  39.014  41.818   8.799
 3029POPC   C2B39476  39.186  41.887   8.394
 3029POPC   C3B39477  39.003  41.860   8.028
 3029POPC   C4B39478  38.821  41.827   7.679
 3030POPC   NC339479   1.636  17.696   9.567
 3030POPC   PO439480   2.215  17.371   9.543
 3030POPC   GL139481   2.058  17.568   9.224
 3030POPC   GL239482   1.755  17.356   9.205
 3030POPC   C1A39483   2.077  17.412   8.805
 3030POPC   D2A39484   2.232  17.259   8.411
 3030POPC   C3A39485   2.057  17.475   8.067
 3030POPC   C4A39486   2.007  17.744   7.723
 3030POPC   C1B39487   1.669  17.714   8.917
 3030POPC   C2B39488   1.781  17.687   8.498
 3030POPC   C3B39489   1.668  17.805   8.099
 3030POPC   C4B39490   1.502  17.823   7.720
 3031POPC   NC339491  35.892  18.479   9.468
 3031POPC   PO439492  36.430  18.127   9.571
 3031POPC   GL139493  36.232  18.199   9.141
 3031POPC   GL239494  35.946  18.448   8.980
 3031POPC   C1A39495  36.384  18.394   8.731
 3031POPC   D2A39496  36.529  18.564   8.322
 3031POPC   C3A39497  36.258  18.372   8.030
 3031POPC   C4A39498  36.237  18.058   7.751
 3031POPC   C1B39499  35.940  18.056   8.761
 3031POPC   C2B39500  36.030  18.027   8.357
 3031POPC   C3B39501  35.804  18.073   8.022
 3031POPC   C4B39502  35.801  18.359   7.707
 3032POPC   NC339503  16.482   2.110   9.379
 3032POPC   PO439504  16.660   1.601   9.670
 3032POPC   GL139505  16.767   1.787   9.133
 3032POPC   GL239506  16.716   2.081   8.958
 3032POPC   C1A39507  16.769   1.646   8.711
 3032POPC   D2A39508  16.961   1.661   8.325
 3032POPC   C3A39509  16.678   1.856   8.061
 3032POPC   C4A39510  16.639   1.796   7.618
 3032POPC   C1B39511  16.571   2.387   8.671
 3032POPC   C2B39512  16.460   2.323   8.262
 3032POPC   C3B39513  16.234   2.418   7.922
 3032POPC   C4B39514  16.276   2.314   7.504
 3033POPC   NC339515  38.835  18.330   9.387
 3033POPC   PO439516  38.209  18.382   9.511
 3033POPC   GL139517  38.402  18.351   9.105
 3033POPC   GL239518  38.524  18.047   9.096
 3033POPC   C1A39519  38.672  18.370   8.693
 3033POPC   D2A39520  38.868  18.521   8.282
 3033POPC   C3A39521  38.657  18.300   7.948
 3033POPC   C4A39522  38.436  18.392   7.565
 3033POPC   C1B39523  38.574  17.876   8.753
 3033POPC   C2B39524  38.410  18.016   8.397
 3033POPC   C3B39525  38.496  17.813   8.070
 3033POPC   C4B39526  38.420  17.914   7.678
 3034POPC   NC339527  36.457   5.795   9.469
 3034POPC   PO439528  36.999   6.222   9.533
 3034POPC   GL139529  36.892   5.953   9.186
 3034POPC   GL239530  36.725   6.204   9.102
 3034POPC   C1A39531  37.015   5.878   8.744
 3034POPC   D2A39532  37.131   5.507   8.486
 3034POPC   C3A39533  36.838   5.502   8.134
 3034POPC   C4A39534  36.925   5.682   7.726
 3034POPC   C1B39535  36.684   6.288   8.690
 3034POPC   C2B39536  37.009   6.336   8.422
 3034POPC   C3B39537  37.108   6.093   8.078
 3034POPC   C4B39538  36.819   6.166   7.772
 3035POPC   NC339539  25.815  29.696   9.353
 3035POPC   PO439540  26.426  29.966   9.448
 3035POPC   GL139541  26.280  30.093   9.074
 3035POPC   GL239542  25.943  29.982   8.957
 3035POPC   C1A39543  26.318  30.042   8.647
 3035POPC   D2A39544  25.988  29.991   8.365
 3035POPC   C3A39545  26.265  30.023   8.016
 3035POPC   C4A39546  26.217  29.750   7.709
 3035POPC   C1B39547  25.842  29.594   8.679
 3035POPC   C2B39548  25.718  29.308   8.321
 3035POPC   C3B39549  25.701  29.533   7.930
 3035POPC   C4B39550  25.782  29.965   7.859
 3036POPC   NC339551  38.263  33.518   9.533
 3036POPC   PO439552  37.893  33.989   9.619
 3036POPC   GL139553  38.254  33.972   9.267
 3036POPC   GL239554  38.588  33.824   9.276
 3036POPC   C1A39555  38.255  33.756   8.849
 3036POPC   D2A39556  38.077  33.719   8.415
 3036POPC   C3A39557  38.363  33.905   8.095
 3036POPC   C4A39558  38.494  33.787   7.691
 3036POPC   C1B39559  38.728  33.983   8.873
 3036POPC   C2B39560  38.779  33.985   8.399
 3036POPC   C3B39561  38.814  34.151   7.931
 3036POPC   C4B39562  38.949  33.961   7.520
 3037POPC   NC339563   1.365  13.631   9.405
 3037POPC   PO439564   0.768  13.390   9.132
 3037POPC   GL139565   1.077  13.672   8.991
 3037POPC   GL239566   0.943  14.014   9.096
 3037POPC   C1A39567   1.389  13.555   8.655
 3037POPC   D2A39568   1.388  13.207   8.317
 3037POPC   C3A39569   1.120  13.303   7.946
 3037POPC   C4A39570   0.959  13.390   7.479
 3037POPC   C1B39571   0.786  13.927   8.670
 3037POPC   C2B39572   0.867  13.821   8.229
 3037POPC   C3B39573   1.009  14.073   7.874
 3037POPC   C4B39574   1.252  13.724   7.711
 3038POPC   NC339575  11.343   1.027   9.787
 3038POPC   PO439576  10.943   1.484   9.757
 3038POPC   GL139577  11.137   1.158   9.350
 3038POPC   GL239578  11.440   0.938   9.282
 3038POPC   C1A39579  11.159   1.072   8.871
 3038POPC   D2A39580  11.086   1.303   8.471
 3038POPC   C3A39581  11.096   1.147   8.036
 3038POPC   C4A39582  11.148   1.159   7.574
 3038POPC   C1B39583  11.658   0.952   8.853
 3038POPC   C2B39584  11.788   1.169   8.469
 3038POPC   C3B39585  11.631   1.072   8.077
 3038POPC   C4B39586  11.651   1.094   7.651
 3039POPC   NC339587   9.846   6.321   9.453
 3039POPC   PO439588   9.400   6.837   9.440
 3039POPC   GL139589   9.741   6.765   9.161
 3039POPC   GL239590  10.070   6.944   9.190
 3039POPC   C1A39591   9.751   6.496   8.812
 3039POPC   D2A39592   9.956   6.449   8.448
 3039POPC   C3A39593   9.695   6.614   8.163
 3039POPC   C4A39594   9.657   6.562   7.766
 3039POPC   C1B39595  10.126   6.852   8.748
 3039POPC   C2B39596   9.966   7.022   8.363
 3039POPC   C3B39597  10.002   6.943   7.916
 3039POPC   C4B39598   9.988   7.159   7.533
 3040POPC   NC339599  12.588  25.695   9.320
 3040POPC   PO439600  12.931  26.294   9.418
 3040POPC   GL139601  12.980  26.104   9.081
 3040POPC   GL239602  13.091  25.753   9.102
 3040POPC   C1A39603  12.906  26.331   8.730
 3040POPC   D2A39604  12.867  26.565   8.367
 3040POPC   C3A39605  12.657  26.385   8.034
 3040POPC   C4A39606  12.894  26.327   7.746
 3040POPC   C1B39607  12.810  25.786   8.724
 3040POPC   C2B39608  12.657  26.034   8.400
 3040POPC   C3B39609  12.797  25.888   7.997
 3040POPC   C4B39610  12.645  25.670   7.655
 3041POPC   NC339611   0.877   5.901   9.441
 3041POPC   PO439612   1.495   6.102   9.185
 3041POPC   GL139613   1.232   5.883   9.011
 3041POPC   GL239614   1.457   5.642   8.867
 3041POPC   C1A39615   0.988   5.921   8.658
 3041POPC   D2A39616   0.740   5.881   8.316
 3041POPC   C3A39617   0.967   5.780   7.944
 3041POPC   C4A39618   1.346   5.543   7.882
 3041POPC   C1B39619   1.506   5.892   8.534
 3041POPC   C2B39620   1.296   6.073   8.215
 3041POPC   C3B39621   1.461   6.321   7.895
 3041POPC   C4B39622   1.475   6.153   7.470
 3042POPC   NC339623   7.122  28.559   9.657
 3042POPC   PO439624   7.772  28.454   9.776
 3042POPC   GL139625   7.489  28.541   9.310
 3042POPC   GL239626   7.227  28.384   9.186
 3042POPC   C1A39627   7.575  28.503   8.845
 3042POPC   D2A39628   7.814  28.596   8.482
 3042POPC   C3A39629   7.645  28.509   8.076
 3042POPC   C4A39630   7.735  28.244   7.730
 3042POPC   C1B39631   7.068  28.495   8.776
 3042POPC   C2B39632   7.021  28.661   8.357
 3042POPC   C3B39633   6.951  28.433   7.981
 3042POPC   C4B39634   7.271  28.437   7.698
 3043POPC   NC339635  42.271  25.653   9.572
 3043POPC   PO439636  42.533  25.053   9.411
 3043POPC   GL139637  42.209  25.309   9.182
 3043POPC   GL239638  42.159  25.014   8.938
 3043POPC   C1A39639  42.091  25.475   8.755
 3043POPC   D2A39640  42.201  25.147   8.414
 3043POPC   C3A39641  42.059  25.143   7.966
 3043POPC   C4A39642  42.205  25.399   7.608
 3043POPC   C1B39643  42.550  25.280   8.803
 3043POPC   C2B39644  42.622  25.465   8.418
 3043POPC   C3B39645  42.440  25.490   8.059
 3043POPC   C4B39646  42.692  25.512   7.740
 3044POPC   NC339647   6.574  24.614   9.409
 3044POPC   PO439648   6.658  24.004   9.382
 3044POPC   GL139649   6.594  24.271   9.022
 3044POPC   GL239650   6.608  24.671   8.917
 3044POPC   C1A39651   6.554  24.262   8.617
 3044POPC   D2A39652   6.738  24.532   8.330
 3044POPC   C3A39653   6.637  24.379   7.896
 3044POPC   C4A39654   6.456  24.407   7.464
 3044POPC   C1B39655   6.957  24.879   8.722
 3044POPC   C2B39656   7.048  24.956   8.301
 3044POPC   C3B39657   6.773  24.881   7.960
 3044POPC   C4B39658   6.866  24.686   7.566
 3045POPC   NC339659   6.234   9.359   9.374
 3045POPC   PO439660   5.694   9.772   9.554
 3045POPC   GL139661   5.799   9.925   9.125
 3045POPC   GL239662   6.149   9.997   8.989
 3045POPC   C1A39663   5.683   9.941   8.685
 3045POPC   D2A39664   5.972   9.864   8.336
 3045POPC   C3A39665   5.795   9.583   8.024
 3045POPC   C4A39666   5.668   9.829   7.658
 3045POPC   C1B39667   6.024   9.573   8.792
 3045POPC   C2B39668   6.117   9.379   8.398
 3045POPC   C3B39669   6.325   9.582   8.093
 3045POPC   C4B39670   6.158   9.662   7.689
 3046POPC   NC339671  35.870  23.351   9.597
 3046POPC   PO439672  36.342  23.795   9.469
 3046POPC   GL139673  36.285  23.576   9.110
 3046POPC   GL239674  35.911  23.586   9.113
 3046POPC   C1A39675  36.413  23.636   8.686
 3046POPC   D2A39676  36.172  23.499   8.359
 3046POPC   C3A39677  36.104  23.758   8.013
 3046POPC   C4A39678  36.296  23.567   7.683
 3046POPC   C1B39679  35.703  23.350   8.790
 3046POPC   C2B39680  35.771  23.179   8.400
 3046POPC   C3B39681  35.861  23.299   7.984
 3046POPC   C4B39682  35.773  23.572   7.627
 3047POPC   NC339683   1.238  15.224   9.628
 3047POPC   PO439684   0.696  14.915   9.483
 3047POPC   GL139685   1.033  15.065   9.163
 3047POPC   GL239686   1.335  15.306   9.140
 3047POPC   C1A39687   1.156  14.989   8.740
 3047POPC   D2A39688   1.017  14.859   8.334
 3047POPC   C3A39689   1.180  15.012   7.941
 3047POPC   C4A39690   1.212  14.957   7.477
 3047POPC   C1B39691   1.145  15.546   8.813
 3047POPC   C2B39692   0.891  15.549   8.422
 3047POPC   C3B39693   0.927  15.698   7.994
 3047POPC   C4B39694   1.196  15.486   7.690
 3048POPC   NC339695  30.260  22.924   9.433
 3048POPC   PO439696  29.872  22.240   9.447
 3048POPC   GL139697  29.855  22.212   9.036
 3048POPC   GL239698  30.234  22.265   9.056
 3048POPC   C1A39699  29.676  22.241   8.646
 3048POPC   D2A39700  29.689  21.995   8.273
 3048POPC   C3A39701  29.671  22.293   7.970
 3048POPC   C4A39702  29.691  22.392   7.518
 3048POPC   C1B39703  30.161  22.078   8.650
 3048POPC   C2B39704  30.208  21.823   8.325
 3048POPC   C3B39705  30.142  22.072   7.987
 3048POPC   C4B39706  30.341  22.290   7.701
 3049POPC   NC339707  10.606  17.953   9.540
 3049POPC   PO439708  10.230  18.482   9.406
 3049POPC   GL139709  10.451  18.328   9.061
 3049POPC   GL239710  10.745  18.083   9.075
 3049POPC   C1A39711  10.429  18.430   8.635
 3049POPC   D2A39712  10.262  18.207   8.278
 3049POPC   C3A39713  10.387  18.463   7.935
 3049POPC   C4A39714  10.750  18.534   7.663
 3049POPC   C1B39715  10.516  17.936   8.719
 3049POPC   C2B39716  10.663  17.880   8.295
 3049POPC   C3B39717  10.725  18.075   7.912
 3049POPC   C4B39718  10.800  18.050   7.459
 3050POPC   NC339719  10.073  40.292   9.451
 3050POPC   PO439720   9.565  40.012   9.882
 3050POPC   GL139721   9.536  40.048   9.302
 3050POPC   GL239722   9.851  40.010   9.097
 3050POPC   C1A39723   9.453  40.198   8.847
 3050POPC   D2A39724   9.613  40.101   8.401
 3050POPC   C3A39725   9.498  40.264   7.971
 3050POPC   C4A39726   9.644  40.045   7.593
 3050POPC   C1B39727   9.935  40.343   8.766
 3050POPC   C2B39728  10.055  40.405   8.332
 3050POPC   C3B39729  10.008  40.239   7.903
 3050POPC   C4B39730   9.986  40.491   7.528
 3051POPC   NC339731  18.488  37.483   9.451
 3051POPC   PO439732  18.693  38.125   9.438
 3051POPC   GL139733  18.519  37.907   9.076
 3051POPC   GL239734  18.151  37.909   8.965
 3051POPC   C1A39735  18.506  37.637   8.705
 3051POPC   D2A39736  18.551  37.426   8.304
 3051POPC   C3A39737  18.411  37.729   7.978
 3051POPC   C4A39738  18.113  37.998   7.736
 3051POPC   C1B39739  18.069  37.441   8.866
 3051POPC   C2B39740  18.105  37.245   8.513
 3051POPC   C3B39741  18.086  37.344   8.082
 3051POPC   C4B39742  18.051  37.495   7.683
 3052POPC   NC339743  37.792  37.503   9.384
 3052POPC   PO439744  37.179  37.950   9.424
 3052POPC   GL139745  37.416  37.761   9.109
 3052POPC   GL239746  37.334  37.444   9.065
 3052POPC   C1A39747  37.643  37.654   8.727
 3052POPC   D2A39748  37.859  37.859   8.429
 3052POPC   C3A39749  37.638  37.854   8.069
 3052POPC   C4A39750  37.884  37.791   7.717
 3052POPC   C1B39751  37.122  37.402   8.711
 3052POPC   C2B39752  37.223  37.634   8.365
 3052POPC   C3B39753  37.231  37.542   7.952
 3052POPC   C4B39754  37.205  37.437   7.527
 3053POPC   NC339755  32.102  15.589   9.817
 3053POPC   PO439756  32.670  15.982   9.602
 3053POPC   GL139757  32.506  15.804   9.202
 3053POPC   GL239758  32.190  15.628   9.289
 3053POPC   C1A39759  32.311  15.944   8.787
 3053POPC   D2A39760  32.099  16.184   8.432
 3053POPC   C3A39761  32.144  16.013   8.022
 3053POPC   C4A39762  32.509  16.207   7.844
 3053POPC   C1B39763  32.045  15.512   8.860
 3053POPC   C2B39764  31.871  15.512   8.432
 3053POPC   C3B39765  31.792  15.599   7.997
 3053POPC   C4B39766  32.063  15.647   7.621
 3054POPC   NC339767   6.259  19.209   9.389
 3054POPC   PO439768   5.541  19.346   9.403
 3054POPC   GL139769   5.793  19.118   9.141
 3054POPC   GL239770   5.961  18.825   9.230
 3054POPC   C1A39771   5.804  19.239   8.751
 3054POPC   D2A39772   5.520  19.245   8.435
 3054POPC   C3A39773   5.700  19.211   8.098
 3054POPC   C4A39774   5.681  19.258   7.711
 3054POPC   C1B39775   6.089  18.813   8.814
 3054POPC   C2B39776   5.866  18.828   8.434
 3054POPC   C3B39777   5.972  18.783   8.016
 3054POPC   C4B39778   5.833  18.569   7.666
 3055POPC   NC339779  19.333  44.971   9.415
 3055POPC   PO439780  18.909   0.505   9.572
 3055POPC   GL139781  18.890   0.264   9.230
 3055POPC   GL239782  18.661   0.462   9.042
 3055POPC   C1A39783  19.083   0.247   8.834
 3055POPC   D2A39784  19.222   0.375   8.422
 3055POPC   C3A39785  19.063   0.213   8.032
 3055POPC   C4A39786  19.190   0.500   7.724
 3055POPC   C1B39787  18.923   0.759   8.768
 3055POPC   C2B39788  19.058   0.862   8.329
 3055POPC   C3B39789  18.916   0.886   7.935
 3055POPC   C4B39790  18.691   0.516   7.790
 3056POPC   NC339791  33.351   6.811   9.542
 3056POPC   PO439792  32.938   6.275   9.440
 3056POPC   GL139793  33.139   6.460   9.081
 3056POPC   GL239794  33.151   6.838   9.020
 3056POPC   C1A39795  33.034   6.525   8.654
 3056POPC   D2A39796  33.223   6.799   8.407
 3056POPC   C3A39797  33.138   6.562   8.055
 3056POPC   C4A39798  33.111   6.499   7.631
 3056POPC   C1B39799  32.872   7.041   8.716
 3056POPC   C2B39800  32.623   6.864   8.385
 3056POPC   C3B39801  32.658   6.669   7.989
 3056POPC   C4B39802  32.733   6.827   7.573
 3057POPC   NC339803  28.796  41.088   9.438
 3057POPC   PO439804  29.394  40.798   9.438
 3057POPC   GL139805  29.107  40.834   9.072
 3057POPC   GL239806  28.800  40.619   9.102
 3057POPC   C1A39807  29.076  40.957   8.616
 3057POPC   D2A39808  29.308  40.882   8.219
 3057POPC   C3A39809  29.067  41.066   7.868
 3057POPC   C4A39810  28.890  41.161   7.417
 3057POPC   C1B39811  28.971  40.466   8.736
 3057POPC   C2B39812  28.883  40.576   8.320
 3057POPC   C3B39813  29.088  40.531   7.920
 3057POPC   C4B39814  29.039  40.703   7.528
 3058POPC   NC339815  19.572   4.138   9.455
 3058POPC   PO439816  20.225   4.044   9.445
 3058POPC   GL139817  20.007   4.364   9.191
 3058POPC   GL239818  19.661   4.487   9.096
 3058POPC   C1A39819  20.024   4.442   8.762
 3058POPC   D2A39820  19.730   4.531   8.441
 3058POPC   C3A39821  19.839   4.347   8.044
 3058POPC   C4A39822  19.590   4.340   7.677
 3058POPC   C1B39823  19.550   4.170   8.811
 3058POPC   C2B39824  19.644   4.023   8.423
 3058POPC   C3B39825  19.435   4.001   8.056
 3058POPC   C4B39826  19.302   3.925   7.675
 3059POPC   NC339827  34.220  18.087   9.377
 3059POPC   PO439828  34.847  18.010   9.426
 3059POPC   GL139829  34.644  18.156   9.087
 3059POPC   GL239830  34.479  18.493   9.164
 3059POPC   C1A39831  34.479  18.008   8.721
 3059POPC   D2A39832  34.435  18.225   8.365
 3059POPC   C3A39833  34.525  18.039   8.003
 3059POPC   C4A39834  34.661  17.864   7.615
 3059POPC   C1B39835  34.592  18.544   8.747
 3059POPC   C2B39836  34.450  18.741   8.368
 3059POPC   C3B39837  34.579  18.722   7.967
 3059POPC   C4B39838  34.634  18.404   7.658
 3060POPC   NC339839  36.528  17.709   9.416
 3060POPC   PO439840  36.128  17.184   9.429
 3060POPC   GL139841  36.120  17.548   9.130
 3060POPC   GL239842  36.424  17.598   8.934
 3060POPC   C1A39843  35.950  17.544   8.730
 3060POPC   D2A39844  36.176  17.547   8.361
 3060POPC   C3A39845  35.924  17.562   8.031
 3060POPC   C4A39846  35.896  17.174   7.875
 3060POPC   C1B39847  36.466  17.903   8.619
 3060POPC   C2B39848  36.524  17.880   8.170
 3060POPC   C3B39849  36.410  17.576   7.820
 3060POPC   C4B39850  36.362  17.737   7.373
 3061POPC   NC339851   5.238   9.877   9.551
 3061POPC   PO439852   4.749   9.465   9.436
 3061POPC   GL139853   4.981   9.768   9.104
 3061POPC   GL239854   5.281  10.014   9.077
 3061POPC   C1A39855   5.133   9.812   8.646
 3061POPC   D2A39856   4.897   9.980   8.322
 3061POPC   C3A39857   4.922   9.804   7.940
 3061POPC   C4A39858   4.811  10.006   7.555
 3061POPC   C1B39859   5.445   9.566   8.966
 3061POPC   C2B39860   5.532   9.429   8.543
 3061POPC   C3B39861   5.308   9.550   8.171
 3061POPC   C4B39862   5.271   9.512   7.721
 3062POPC   NC339863  44.388  37.391   9.734
 3062POPC   PO439864  44.692  37.925   9.509
 3062POPC   GL139865  44.449  37.732   9.223
 3062POPC   GL239866  44.401  37.411   9.217
 3062POPC   C1A39867  44.495  37.738   8.796
 3062POPC   D2A39868  44.741  37.686   8.415
 3062POPC   C3A39869  44.619  37.821   8.000
 3062POPC   C4A39870  44.698  37.942   7.571
 3062POPC   C1B39871  44.751  37.315   8.909
 3062POPC   C2B39872  44.872  37.195   8.473
 3062POPC   C3B39873  44.689  37.308   8.065
 3062POPC   C4B39874  44.523  37.465   7.630
 3063POPC   NC339875  42.892  44.994   9.544
 3063POPC   PO439876  42.193  44.882   9.499
 3063POPC   GL139877  42.226  44.934   9.088
 3063POPC   GL239878  42.203  44.593   8.984
 3063POPC   C1A39879  42.212  44.988   8.657
 3063POPC   D2A39880  42.092  44.783   8.305
 3063POPC   C3A39881  42.395  44.746   8.052
 3063POPC   C4A39882  42.294  44.961   7.675
 3063POPC   C1B39883  42.407  44.510   8.601
 3063POPC   C2B39884  42.546  44.255   8.288
 3063POPC   C3B39885  42.519  44.289   7.863
 3063POPC   C4B39886  42.380  44.466   7.490
 3064POPC   NC339887   4.624   7.985   9.512
 3064POPC   PO439888   3.958   8.185   9.454
 3064POPC   GL139889   4.208   8.322   9.118
 3064POPC   GL239890   4.577   8.370   9.165
 3064POPC   C1A39891   4.270   8.569   8.740
 3064POPC   D2A39892   4.183   8.686   8.331
 3064POPC   C3A39893   4.295   8.343   8.086
 3064POPC   C4A39894   4.412   8.191   7.706
 3064POPC   C1B39895   4.540   8.127   8.781
 3064POPC   C2B39896   4.678   8.190   8.362
 3064POPC   C3B39897   4.741   7.926   7.991
 3064POPC   C4B39898   4.914   7.799   7.587
 3065POPC   NC339899  24.442  42.937   9.425
 3065POPC   PO439900  24.560  43.543   9.561
 3065POPC   GL139901  24.488  43.387   9.069
 3065POPC   GL239902  24.399  43.020   8.926
 3065POPC   C1A39903  24.582  43.337   8.590
 3065POPC   D2A39904  24.604  42.959   8.346
 3065POPC   C3A39905  24.629  42.894   7.915
 3065POPC   C4A39906  24.595  43.133   7.554
 3065POPC   C1B39907  24.066  43.072   8.606
 3065POPC   C2B39908  24.049  42.938   8.194
 3065POPC   C3B39909  24.150  43.069   7.795
 3065POPC   C4B39910  24.111  43.174   7.350
 3066POPC   NC339911  40.511  28.504   9.465
 3066POPC   PO439912  41.059  28.201   9.286
 3066POPC   GL139913  40.799  28.451   9.072
 3066POPC   GL239914  40.450  28.292   9.007
 3066POPC   C1A39915  40.727  28.676   8.741
 3066POPC   D2A39916  40.575  28.760   8.373
 3066POPC   C3A39917  40.801  28.504   8.104
 3066POPC   C4A39918  40.619  28.700   7.777
 3066POPC   C1B39919  40.774  28.146   8.676
 3066POPC   C2B39920  40.673  27.966   8.305
 3066POPC   C3B39921  40.597  28.015   7.861
 3066POPC   C4B39922  40.612  28.044   7.360
 3067POPC   NC339923  36.302  25.890   9.894
 3067POPC   PO439924  36.085  26.452   9.628
 3067POPC   GL139925  35.929  26.257   9.241
 3067POPC   GL239926  36.057  25.949   9.296
 3067POPC   C1A39927  35.876  26.448   8.812
 3067POPC   D2A39928  35.982  26.238   8.418
 3067POPC   C3A39929  36.047  26.349   8.001
 3067POPC   C4A39930  36.329  26.069   7.832
 3067POPC   C1B39931  36.057  25.931   8.841
 3067POPC   C2B39932  36.141  25.745   8.453
 3067POPC   C3B39933  36.331  25.612   8.070
 3067POPC   C4B39934  36.177  25.613   7.665
 3068POPC   NC339935  38.488  16.116   9.577
 3068POPC   PO439936  38.860  15.562   9.506
 3068POPC   GL139937  38.530  15.661   9.169
 3068POPC   GL239938  38.314  15.946   9.139
 3068POPC   C1A39939  38.320  15.625   8.751
 3068POPC   D2A39940  38.534  15.731   8.377
 3068POPC   C3A39941  38.419  15.771   7.955
 3068POPC   C4A39942  38.049  15.718   7.788
 3068POPC   C1B39943  38.357  16.141   8.732
 3068POPC   C2B39944  38.195  16.115   8.310
 3068POPC   C3B39945  38.457  16.271   8.007
 3068POPC   C4B39946  38.574  16.441   7.628
 3069POPC   NC339947  13.764   6.861   9.514
 3069POPC   PO439948  13.816   7.499   9.592
 3069POPC   GL139949  13.713   7.309   9.218
 3069POPC   GL239950  13.900   7.096   9.074
 3069POPC   C1A39951  13.656   7.423   8.766
 3069POPC   D2A39952  13.405   7.223   8.428
 3069POPC   C3A39953  13.510   7.349   8.015
 3069POPC   C4A39954  13.495   7.600   7.641
 3069POPC   C1B39955  14.115   7.187   8.716
 3069POPC   C2B39956  13.908   7.105   8.350
 3069POPC   C3B39957  14.033   7.297   8.007
 3069POPC   C4B39958  13.908   7.290   7.602
 3070POPC   NC339959  33.151  19.425   9.445
 3070POPC   PO439960  32.924  20.011   9.383
 3070POPC   GL139961  33.096  19.979   9.010
 3070POPC   GL239962  33.296  19.764   9.021
 3070POPC   C1A39963  32.875  19.803   8.683
 3070POPC   D2A39964  32.660  19.547   8.411
 3070POPC   C3A39965  32.884  19.590   8.032
 3070POPC   C4A39966  33.081  19.840   7.725
 3070POPC   C1B39967  33.386  19.846   8.569
 3070POPC   C2B39968  33.422  19.579   8.173
 3070POPC   C3B39969  33.299  19.369   7.771
 3070POPC   C4B39970  33.311  19.552   7.336
 3071POPC   NC339971  42.100   6.526   9.555
 3071POPC   PO439972  42.416   7.108   9.364
 3071POPC   GL139973  42.392   6.716   9.125
 3071POPC   GL239974  42.064   6.647   9.033
 3071POPC   C1A39975  42.454   6.603   8.697
 3071POPC   D2A39976  42.198   6.562   8.343
 3071POPC   C3A39977  42.422   6.624   7.971
 3071POPC   C4A39978  42.487   6.935   7.685
 3071POPC   C1B39979  42.029   6.266   8.757
 3071POPC   C2B39980  42.098   6.057   8.334
 3071POPC   C3B39981  42.146   6.194   7.883
 3071POPC   C4B39982  42.185   6.097   7.397
 3072POPC   NC339983  29.016  22.205   9.584
 3072POPC   PO439984  28.685  22.672   9.240
 3072POPC   GL139985  29.090  22.412   9.121
 3072POPC   GL239986  29.181  22.036   9.129
 3072POPC   C1A39987  29.174  22.402   8.716
 3072POPC   D2A39988  28.879  22.386   8.391
 3072POPC   C3A39989  29.168  22.360   8.089
 3072POPC   C4A39990  29.350  22.655   7.798
 3072POPC   C1B39991  29.283  21.895   8.709
 3072POPC   C2B39992  29.260  21.634   8.342
 3072POPC   C3B39993  29.387  21.710   7.929
 3072POPC   C4B39994  29.312  22.097   7.685
 3073POPC   NC339995  33.352  27.522   9.619
 3073POPC   PO439996  33.235  28.115   9.384
 3073POPC   GL139997  33.026  27.818   9.143
 3073POPC   GL239998  33.115  27.494   9.179
 3073POPC   C1A39999  32.824  27.750   8.752
 3073POPC   D2A40000  32.996  27.671   8.332
 3073POPC   C3A40001  32.788  27.819   7.950
 3073POPC   C4A40002  32.956  27.565   7.657
 3073POPC   C1B40003  33.180  27.394   8.769
 3073POPC   C2B40004  33.263  27.197   8.391
 3073POPC   C3B40005  33.306  27.389   8.007
 3073POPC   C4B40006  33.292  27.176   7.671
 3074POPC   NC340007  42.810   2.421   9.290
 3074POPC   PO440008  42.387   2.937   9.527
 3074POPC   GL140009  42.499   2.825   9.137
 3074POPC   GL240010  42.197   2.808   9.026
 3074POPC   C1A40011  42.551   3.030   8.730
 3074POPC   D2A40012  42.730   3.005   8.307
 3074POPC   C3A40013  42.439   2.866   8.017
 3074POPC   C4A40014  42.342   2.660   7.634
 3074POPC   C1B40015  42.039   2.860   8.636
 3074POPC   C2B40016  41.997   3.004   8.225
 3074POPC   C3B40017  41.905   2.840   7.816
 3074POPC   C4B40018  41.887   2.673   7.391
 3075POPC   NC340019  26.969  33.029   9.514
 3075POPC   PO440020  27.676  33.099   9.566
 3075POPC   GL140021  27.502  33.207   9.143
 3075POPC   GL240022  27.155  33.166   9.030
 3075POPC   C1A40023  27.683  33.248   8.704
 3075POPC   D2A40024  27.847  33.486   8.318
 3075POPC   C3A40025  27.717  33.277   7.904
 3075POPC   C4A40026  27.271  33.138   7.782
 3075POPC   C1B40027  27.340  32.752   8.895
 3075POPC   C2B40028  27.312  32.562   8.486
 3075POPC   C3B40029  27.464  32.782   8.134
 3075POPC   C4B40030  27.372  32.625   7.746
 3076POPC   NC340031  11.902   9.829   9.469
 3076POPC   PO440032  12.569   9.724   9.445
 3076POPC   GL140033  12.219   9.625   9.110
 3076POPC   GL240034  12.019   9.886   8.985
 3076POPC   C1A40035  12.044   9.504   8.683
 3076POPC   D2A40036  12.168   9.672   8.294
 3076POPC   C3A40037  12.095   9.504   7.894
 3076POPC   C4A40038  12.024   9.916   7.729
 3076POPC   C1B40039  11.845  10.081   8.634
 3076POPC   C2B40040  11.840  10.118   8.176
 3076POPC   C3B40041  11.573  10.145   7.788
 3076POPC   C4B40042  11.389  10.102   7.351
 3077POPC   NC340043  26.382  19.276   9.567
 3077POPC   PO440044  27.037  19.086   9.467
 3077POPC   GL140045  27.000  19.139   9.083
 3077POPC   GL240046  26.636  19.180   9.111
 3077POPC   C1A40047  26.935  19.008   8.701
 3077POPC   D2A40048  26.859  19.071   8.315
 3077POPC   C3A40049  27.033  18.952   7.945
 3077POPC   C4A40050  27.055  18.871   7.542
 3077POPC   C1B40051  26.436  18.872   8.825
 3077POPC   C2B40052  26.467  18.704   8.400
 3077POPC   C3B40053  26.509  18.898   7.976
 3077POPC   C4B40054  26.421  18.963   7.554
 3078POPC   NC340055  24.471   3.454   9.730
 3078POPC   PO440056  24.257   3.917   9.318
 3078POPC   GL140057  24.397   3.537   9.162
 3078POPC   GL240058  24.690   3.366   9.248
 3078POPC   C1A40059  24.568   3.533   8.760
 3078POPC   D2A40060  24.655   3.812   8.435
 3078POPC   C3A40061  24.605   3.654   8.048
 3078POPC   C4A40062  24.373   3.313   7.801
 3078POPC   C1B40063  24.921   3.181   8.882
 3078POPC   C2B40064  24.943   3.361   8.438
 3078POPC   C3B40065  24.804   3.197   8.028
 3078POPC   C4B40066  24.714   2.977   7.605
 3079POPC   NC340067   6.680  16.653   9.755
 3079POPC   PO440068   6.250  17.058   9.780
 3079POPC   GL140069   6.428  16.946   9.365
 3079POPC   GL240070   6.152  17.014   9.147
 3079POPC   C1A40071   6.693  16.994   8.953
 3079POPC   D2A40072   6.743  16.728   8.561
 3079POPC   C3A40073   6.851  16.839   8.140
 3079POPC   C4A40074   6.886  17.150   7.831
 3079POPC   C1B40075   6.254  16.745   8.775
 3079POPC   C2B40076   6.290  16.676   8.306
 3079POPC   C3B40077   6.433  16.660   7.877
 3079POPC   C4B40078   6.543  16.361   7.545
 3080POPC   NC340079  19.926  12.629   9.383
 3080POPC   PO440080  19.580  13.111   9.274
 3080POPC   GL140081  19.748  12.908   8.977
 3080POPC   GL240082  19.619  12.616   8.985
 3080POPC   C1A40083  19.887  13.097   8.627
 3080POPC   D2A40084  19.661  13.295   8.344
 3080POPC   C3A40085  19.794  13.088   8.001
 3080POPC   C4A40086  20.193  13.063   7.818
 3080POPC   C1B40087  19.611  12.401   8.628
 3080POPC   C2B40088  19.759  12.615   8.243
 3080POPC   C3B40089  20.048  12.564   7.872
 3080POPC   C4B40090  20.185  12.707   7.442
 3081POPC   NC340091  32.532  14.037   9.426
 3081POPC   PO440092  32.197  13.497   9.611
 3081POPC   GL140093  32.188  13.523   9.193
 3081POPC   GL240094  32.155  13.855   9.129
 3081POPC   C1A40095  32.331  13.535   8.726
 3081POPC   D2A40096  32.350  13.754   8.302
 3081POPC   C3A40097  32.498  13.600   7.881
 3081POPC   C4A40098  32.479  13.527   7.426
 3081POPC   C1B40099  32.036  13.954   8.719
 3081POPC   C2B40100  31.886  13.958   8.288
 3081POPC   C3B40101  32.021  13.836   7.878
 3081POPC   C4B40102  32.306  14.003   7.586
 3082POPC   NC340103  44.104   3.822   9.526
 3082POPC   PO440104  43.483   4.281   9.525
 3082POPC   GL140105  43.885   4.232   9.282
 3082POPC   GL240106  43.959   3.924   9.064
 3082POPC   C1A40107  43.932   4.457   8.903
 3082POPC   D2A40108  43.663   4.551   8.542
 3082POPC   C3A40109  43.905   4.471   8.179
 3082POPC   C4A40110  43.780   4.552   7.778
 3082POPC   C1B40111  43.908   4.000   8.633
 3082POPC   C2B40112  43.641   4.040   8.291
 3082POPC   C3B40113  43.833   4.038   7.874
 3082POPC   C4B40114  44.296   4.020   7.803
 3083POPC   NC340115  20.217   8.869   9.529
 3083POPC   PO440116  20.892   9.018   9.538
 3083POPC   GL140117  20.624   8.974   9.180
 3083POPC   GL240118  20.326   9.199   9.164
 3083POPC   C1A40119  20.740   8.898   8.761
 3083POPC   D2A40120  20.820   9.075   8.370
 3083POPC   C3A40121  20.683   8.893   8.006
 3083POPC   C4A40122  20.666   9.161   7.650
 3083POPC   C1B40123  20.226   8.878   8.835
 3083POPC   C2B40124  20.076   8.756   8.411
 3083POPC   C3B40125  20.164   8.880   7.977
 3083POPC   C4B40126  20.334   8.785   7.567
 3084POPC   NC340127  44.613  14.980   9.487
 3084POPC   PO440128  44.218  15.546   9.435
 3084POPC   GL140129  44.418  15.307   9.129
 3084POPC   GL240130  44.735  15.401   9.192
 3084POPC   C1A40131  44.470  15.033   8.764
 3084POPC   D2A40132  44.312  15.009   8.304
 3084POPC   C3A40133  44.596  14.853   8.024
 3084POPC   C4A40134  44.807  14.900   7.662
 3084POPC   C1B40135  44.856  15.412   8.758
 3084POPC   C2B40136  44.828  15.124   8.413
 3084POPC   C3B40137   0.033  15.128   8.056
 3084POPC   C4B40138  44.892  15.412   7.763
 3085POPC   NC340139   8.964  13.168   9.510
 3085POPC   PO440140   8.589  12.580   9.427
 3085POPC   GL140141   8.933  12.771   9.199
 3085POPC   GL240142   9.027  12.538   9.040
 3085POPC   C1A40143   9.039  13.116   8.887
 3085POPC   D2A40144   8.934  13.293   8.505
 3085POPC   C3A40145   8.827  13.068   8.126
 3085POPC   C4A40146   8.693  13.311   7.754
 3085POPC   C1B40147   8.991  12.688   8.621
 3085POPC   C2B40148   9.240  12.771   8.251
 3085POPC   C3B40149   8.997  12.616   7.903
 3085POPC   C4B40150   8.877  12.780   7.496
 3086POPC   NC340151  41.809  40.525   9.467
 3086POPC   PO440152  41.557  39.888   9.526
 3086POPC   GL140153  41.659  39.905   9.119
 3086POPC   GL240154  41.924  40.154   9.091
 3086POPC   C1A40155  41.542  40.014   8.734
 3086POPC   D2A40156  41.529  39.874   8.342
 3086POPC   C3A40157  41.331  40.223   8.122
 3086POPC   C4A40158  41.187  40.195   7.721
 3086POPC   C1B40159  42.008  40.297   8.641
 3086POPC   C2B40160  41.850  40.252   8.197
 3086POPC   C3B40161  41.693  39.971   7.858
 3086POPC   C4B40162  41.795  40.071   7.448
 3087POPC   NC340163  17.817  29.127   9.553
 3087POPC   PO440164  18.453  29.081   9.460
 3087POPC   GL140165  18.247  28.909   9.109
 3087POPC   GL240166  18.535  28.729   9.045
 3087POPC   C1A40167  18.004  28.987   8.759
 3087POPC   D2A40168  18.000  29.251   8.380
 3087POPC   C3A40169  18.105  29.008   8.000
 3087POPC   C4A40170  17.876  29.052   7.602
 3087POPC   C1B40171  18.526  28.900   8.621
 3087POPC   C2B40172  18.596  28.827   8.159
 3087POPC   C3B40173  18.612  29.116   7.775
 3087POPC   C4B40174  18.589  29.384   7.358
 3088POPC   NC340175  37.878  29.668   9.470
 3088POPC   PO440176  37.388  30.095   9.460
 3088POPC   GL140177  37.673  29.968   9.121
 3088POPC   GL240178  37.521  29.648   9.076
 3088POPC   C1A40179  37.767  29.850   8.684
 3088POPC   D2A40180  37.594  29.688   8.295
 3088POPC   C3A40181  37.825  29.750   7.912
 3088POPC   C4A40182  37.890  30.076   7.624
 3088POPC   C1B40183  37.313  29.546   8.697
 3088POPC   C2B40184  37.118  29.473   8.293
 3088POPC   C3B40185  37.206  29.423   7.864
 3088POPC   C4B40186  37.332  29.608   7.491
 3089POPC   NC340187   2.687  21.862   9.573
 3089POPC   PO440188   2.792  21.214   9.568
 3089POPC   GL140189   2.659  21.372   9.137
 3089POPC   GL240190   2.382  21.619   9.098
 3089POPC   C1A40191   2.849  21.408   8.712
 3089POPC   D2A40192   2.823  21.235   8.278
 3089POPC   C3A40193   2.855  21.474   7.868
 3089POPC   C4A40194   3.237  21.568   7.615
 3089POPC   C1B40195   2.329  21.425   8.724
 3089POPC   C2B40196   2.404  21.510   8.315
 3089POPC   C3B40197   2.406  21.234   7.959
 3089POPC   C4B40198   2.456  21.162   7.511
 3090POPC   NC340199  25.727   7.674   9.167
 3090POPC   PO440200  26.238   7.417   9.530
 3090POPC   GL140201  26.223   7.437   9.129
 3090POPC   GL240202  25.942   7.253   8.987
 3090POPC   C1A40203  26.298   7.571   8.739
 3090POPC   D2A40204  26.101   7.670   8.343
 3090POPC   C3A40205  26.314   7.596   7.951
 3090POPC   C4A40206  26.236   7.252   7.679
 3090POPC   C1B40207  25.581   7.259   8.684
 3090POPC   C2B40208  25.731   7.251   8.272
 3090POPC   C3B40209  25.797   7.485   7.911
 3090POPC   C4B40210  25.497   7.341   7.653
 3091POPC   NC340211  33.393  22.647   9.570
 3091POPC   PO440212  32.878  22.930   9.308
 3091POPC   GL140213  33.115  22.613   9.069
 3091POPC   GL240214  33.445  22.730   9.061
 3091POPC   C1A40215  33.036  22.422   8.649
 3091POPC   D2A40216  32.855  22.389   8.224
 3091POPC   C3A40217  32.874  22.671   7.866
 3091POPC   C4A40218  32.611  22.810   7.508
 3091POPC   C1B40219  33.334  22.853   8.621
 3091POPC   C2B40220  33.349  22.895   8.144
 3091POPC   C3B40221  33.530  23.121   7.813
 3091POPC   C4B40222  33.296  23.437   7.613
 3092POPC   NC340223  25.941   7.767   9.667
 3092POPC   PO440224  26.437   8.189   9.544
 3092POPC   GL140225  26.347   7.963   9.134
 3092POPC   GL240226  26.039   8.057   8.984
 3092POPC   C1A40227  26.406   8.049   8.646
 3092POPC   D2A40228  26.089   8.197   8.332
 3092POPC   C3A40229  26.207   8.227   7.921
 3092POPC   C4A40230  26.037   7.911   7.654
 3092POPC   C1B40231  25.934   8.440   8.742
 3092POPC   C2B40232  25.709   8.592   8.370
 3092POPC   C3B40233  25.724   8.455   7.932
 3092POPC   C4B40234  25.891   8.391   7.518
 3093POPC   NC340235  41.829  27.803   9.738
 3093POPC   PO440236  42.086  27.281   9.527
 3093POPC   GL140237  42.170  27.343   9.127
 3093POPC   GL240238  42.354  27.640   9.123
 3093POPC   C1A40239  42.048  27.512   8.741
 3093POPC   D2A40240  42.238  27.602   8.362
 3093POPC   C3A40241  42.070  27.491   8.005
 3093POPC   C4A40242  42.336  27.347   7.690
 3093POPC   C1B40243  42.627  27.650   8.766
 3093POPC   C2B40244  42.675  27.843   8.355
 3093POPC   C3B40245  42.640  27.673   7.958
 3093POPC   C4B40246  42.658  27.809   7.553
 3094POPC   NC340247  37.322  31.657   9.264
 3094POPC   PO440248  36.812  31.444   9.623
 3094POPC   GL140249  36.902  31.367   9.174
 3094POPC   GL240250  37.218  31.194   9.105
 3094POPC   C1A40251  36.951  31.496   8.750
 3094POPC   D2A40252  37.200  31.667   8.437
 3094POPC   C3A40253  36.936  31.675   8.080
 3094POPC   C4A40254  37.028  31.638   7.662
 3094POPC   C1B40255  37.174  31.042   8.704
 3094POPC   C2B40256  36.999  31.172   8.293
 3094POPC   C3B40257  36.999  31.164   7.837
 3094POPC   C4B40258  37.141  31.194   7.402
 3095POPC   NC340259   9.687  17.764   9.534
 3095POPC   PO440260   9.685  17.068   9.381
 3095POPC   GL140261   9.655  17.439   9.138
 3095POPC   GL240262   9.990  17.633   9.116
 3095POPC   C1A40263   9.457  17.540   8.741
 3095POPC   D2A40264   9.407  17.884   8.418
 3095POPC   C3A40265   9.468  17.773   7.986
 3095POPC   C4A40266   9.470  17.425   7.689
 3095POPC   C1B40267   9.949  17.376   8.732
 3095POPC   C2B40268   9.766  17.508   8.340
 3095POPC   C3B40269   9.934  17.560   7.941
 3095POPC   C4B40270  10.167  17.510   7.566
 3096POPC   NC340271   8.424  28.236   9.811
 3096POPC   PO440272   7.994  28.541   9.320
 3096POPC   GL140273   8.376  28.440   9.069
 3096POPC   GL240274   8.389  28.086   8.924
 3096POPC   C1A40275   8.344  28.582   8.631
 3096POPC   D2A40276   8.201  28.408   8.232
 3096POPC   C3A40277   8.096  28.700   7.905
 3096POPC   C4A40278   8.454  28.717   7.650
 3096POPC   C1B40279   8.006  28.077   8.626
 3096POPC   C2B40280   7.904  27.999   8.167
 3096POPC   C3B40281   8.199  28.098   7.806
 3096POPC   C4B40282   8.145  27.971   7.343
 3097POPC   NC340283  37.652  30.398   9.667
 3097POPC   PO440284  37.726  31.035   9.501
 3097POPC   GL140285  37.556  30.828   9.147
 3097POPC   GL240286  37.572  30.471   9.146
 3097POPC   C1A40287  37.671  30.866   8.732
 3097POPC   D2A40288  37.739  30.721   8.329
 3097POPC   C3A40289  37.725  30.955   7.952
 3097POPC   C4A40290  37.419  30.852   7.676
 3097POPC   C1B40291  37.675  30.348   8.735
 3097POPC   C2B40292  37.651  30.211   8.305
 3097POPC   C3B40293  37.656  30.438   7.913
 3097POPC   C4B40294  37.989  30.594   7.635
 3098POPC   NC340295   0.954   1.030   9.596
 3098POPC   PO440296   1.392   1.457   9.562
 3098POPC   GL140297   1.205   1.335   9.187
 3098POPC   GL240298   0.885   1.207   9.109
 3098POPC   C1A40299   1.396   1.253   8.812
 3098POPC   D2A40300   1.531   1.128   8.418
 3098POPC   C3A40301   1.587   1.451   8.122
 3098POPC   C4A40302   1.574   1.291   7.720
 3098POPC   C1B40303   0.975   0.928   8.730
 3098POPC   C2B40304   1.049   0.909   8.294
 3098POPC   C3B40305   1.138   1.213   7.989
 3098POPC   C4B40306   0.937   1.264   7.626
 3099POPC   NC340307  36.012  27.465   9.409
 3099POPC   PO440308  36.608  27.872   9.398
 3099POPC   GL140309  36.269  27.768   9.093
 3099POPC   GL240310  36.207  27.383   8.971
 3099POPC   C1A40311  35.975  27.777   8.754
 3099POPC   D2A40312  36.030  27.714   8.327
 3099POPC   C3A40313  35.864  27.934   8.055
 3099POPC   C4A40314  36.009  27.906   7.638
 3099POPC   C1B40315  36.123  27.287   8.576
 3099POPC   C2B40316  35.959  27.238   8.185
 3099POPC   C3B40317  36.167  27.436   7.853
 3099POPC   C4B40318  36.604  27.517   7.721
 3100POPC   NC340319  18.870  36.871   9.430
 3100POPC   PO440320  19.498  36.791   9.472
 3100POPC   GL140321  19.251  36.941   9.136
 3100POPC   GL240322  19.072  36.648   9.017
 3100POPC   C1A40323  19.104  37.133   8.774
 3100POPC   D2A40324  18.747  36.996   8.550
 3100POPC   C3A40325  18.839  37.006   8.126
 3100POPC   C4A40326  19.038  36.994   7.758
 3100POPC   C1B40327  18.914  36.445   8.668
 3100POPC   C2B40328  18.750  36.539   8.287
 3100POPC   C3B40329  18.797  36.565   7.841
 3100POPC   C4B40330  18.658  36.822   7.476
 3101POPC   NC340331  32.785  10.823   9.444
 3101POPC   PO440332  32.680  11.480   9.408
 3101POPC   GL140333  32.938  11.343   9.073
 3101POPC   GL240334  33.123  11.026   9.122
 3101POPC   C1A40335  33.142  11.539   8.730
 3101POPC   D2A40336  33.246  11.732   8.338
 3101POPC   C3A40337  33.182  11.391   8.044
 3101POPC   C4A40338  32.981  11.439   7.623
 3101POPC   C1B40339  32.836  10.940   8.742
 3101POPC   C2B40340  32.693  11.025   8.293
 3101POPC   C3B40341  32.902  11.002   7.885
 3101POPC   C4B40342  32.777  10.999   7.450
 3102POPC   NC340343  30.113  26.866   9.618
 3102POPC   PO440344  29.599  26.535   9.611
 3102POPC   GL140345  29.791  26.729   9.175
 3102POPC   GL240346  29.829  27.049   9.206
 3102POPC   C1A40347  29.989  27.004   8.738
 3102POPC   D2A40348  29.932  27.277   8.306
 3102POPC   C3A40349  30.064  27.058   7.875
 3102POPC   C4A40350  30.163  26.922   7.413
 3102POPC   C1B40351  29.500  26.997   8.825
 3102POPC   C2B40352  29.463  27.032   8.360
 3102POPC   C3B40353  29.542  27.175   7.939
 3102POPC   C4B40354  29.687  27.081   7.525
 3103POPC   NC340355   8.294  32.894  10.221
 3103POPC   PO440356   7.956  32.871   9.750
 3103POPC   GL140357   7.972  32.835   9.230
 3103POPC   GL240358   8.032  33.167   9.021
 3103POPC   C1A40359   8.065  32.741   8.748
 3103POPC   D2A40360   7.965  32.854   8.306
 3103POPC   C3A40361   8.149  32.773   7.937
 3103POPC   C4A40362   8.220  33.004   7.544
 3103POPC   C1B40363   8.163  33.238   8.549
 3103POPC   C2B40364   8.384  33.175   8.133
 3103POPC   C3B40365   8.573  33.411   7.765
 3103POPC   C4B40366   8.778  33.787   7.476
 3104POPC   NC340367   8.648  31.708   9.533
 3104POPC   PO440368   8.146  31.176   9.552
 3104POPC   GL140369   8.289  31.264   9.141
 3104POPC   GL240370   8.431  31.525   9.119
 3104POPC   C1A40371   8.103  31.457   8.739
 3104POPC   D2A40372   7.948  31.637   8.352
 3104POPC   C3A40373   7.982  31.399   7.954
 3104POPC   C4A40374   8.021  31.466   7.505
 3104POPC   C1B40375   8.603  31.352   8.735
 3104POPC   C2B40376   8.518  31.567   8.369
 3104POPC   C3B40377   8.350  31.782   8.059
 3104POPC   C4B40378   8.466  31.543   7.733
 3105POPC   NC340379   3.616  10.235   9.567
 3105POPC   PO440380   3.491   9.662   9.502
 3105POPC   GL140381   3.404   9.690   9.087
 3105POPC   GL240382   3.761   9.654   9.033
 3105POPC   C1A40383   3.370   9.462   8.693
 3105POPC   D2A40384   3.563   9.457   8.286
 3105POPC   C3A40385   3.477   9.646   7.882
 3105POPC   C4A40386   3.297   9.481   7.499
 3105POPC   C1B40387   3.642   9.899   8.671
 3105POPC   C2B40388   3.799  10.121   8.338
 3105POPC   C3B40389   3.650  10.129   7.943
 3105POPC   C4B40390   3.942  10.133   7.643
 3106POPC   NC340391   8.841  17.233   9.577
 3106POPC   PO440392   9.286  17.693   9.777
 3106POPC   GL140393   9.172  17.646   9.272
 3106POPC   GL240394   8.833  17.517   9.125
 3106POPC   C1A40395   9.070  17.847   8.827
 3106POPC   D2A40396   8.904  17.804   8.370
 3106POPC   C3A40397   8.979  17.654   7.936
 3106POPC   C4A40398   8.676  17.434   7.783
 3106POPC   C1B40399   8.952  17.368   8.676
 3106POPC   C2B40400   9.221  17.360   8.283
 3106POPC   C3B40401   9.105  17.124   7.892
 3106POPC   C4B40402   8.729  16.924   7.681
 3107POPC   NC340403  27.008  17.971   9.463
 3107POPC   PO440404  26.653  17.397   9.521
 3107POPC   GL140405  26.782  17.585   9.156
 3107POPC   GL240406  27.002  17.321   9.100
 3107POPC   C1A40407  26.796  17.550   8.700
 3107POPC   D2A40408  27.038  17.620   8.340
 3107POPC   C3A40409  26.819  17.558   7.904
 3107POPC   C4A40410  26.585  17.245   7.652
 3107POPC   C1B40411  27.214  17.272   8.728
 3107POPC   C2B40412  27.198  17.100   8.336
 3107POPC   C3B40413  27.280  17.336   7.994
 3107POPC   C4B40414  27.328  17.640   7.673
 3108POPC   NC340415  28.449  31.037   9.673
 3108POPC   PO440416  28.277  31.651   9.661
 3108POPC   GL140417  28.358  31.634   9.198
 3108POPC   GL240418  28.381  31.257   9.137
 3108POPC   C1A40419  28.263  31.542   8.744
 3108POPC   D2A40420  28.340  31.279   8.373
 3108POPC   C3A40421  28.177  31.505   8.022
 3108POPC   C4A40422  28.350  31.753   7.682
 3108POPC   C1B40423  28.114  31.016   8.768
 3108POPC   C2B40424  27.911  31.003   8.326
 3108POPC   C3B40425  27.984  31.047   7.881
 3108POPC   C4B40426  28.299  31.235   7.610
 3109POPC   NC340427  23.708  30.543   9.465
 3109POPC   PO440428  24.114  31.055   9.558
 3109POPC   GL140429  23.987  31.005   9.092
 3109POPC   GL240430  23.605  30.842   9.055
 3109POPC   C1A40431  23.920  30.862   8.683
 3109POPC   D2A40432  23.552  30.771   8.500
 3109POPC   C3A40433  23.592  30.937   8.112
 3109POPC   C4A40434  23.924  31.051   7.840
 3109POPC   C1B40435  23.411  30.435   8.889
 3109POPC   C2B40436  23.265  30.326   8.497
 3109POPC   C3B40437  23.487  30.428   8.121
 3109POPC   C4B40438  23.759  30.568   7.791
 3110POPC   NC340439  14.599   4.089   9.490
 3110POPC   PO440440  13.949   4.073   9.230
 3110POPC   GL140441  14.298   4.252   9.101
 3110POPC   GL240442  14.453   4.506   9.204
 3110POPC   C1A40443  14.522   4.164   8.767
 3110POPC   D2A40444  14.327   4.056   8.384
 3110POPC   C3A40445  14.461   3.909   7.990
 3110POPC   C4A40446  14.379   4.151   7.614
 3110POPC   C1B40447  14.615   4.656   8.797
 3110POPC   C2B40448  14.772   4.416   8.407
 3110POPC   C3B40449  14.636   4.413   7.974
 3110POPC   C4B40450  14.538   4.623   7.539
 3111POPC   NC340451   9.390   7.304   9.436
 3111POPC   PO440452   9.899   7.696   9.550
 3111POPC   GL140453   9.987   7.466   9.200
 3111POPC   GL240454   9.692   7.367   9.049
 3111POPC   C1A40455  10.108   7.354   8.776
 3111POPC   D2A40456  10.235   7.575   8.427
 3111POPC   C3A40457  10.070   7.436   8.045
 3111POPC   C4A40458  10.023   7.644   7.663
 3111POPC   C1B40459   9.617   7.048   8.746
 3111POPC   C2B40460   9.430   7.038   8.337
 3111POPC   C3B40461   9.318   7.397   8.090
 3111POPC   C4B40462   9.524   7.532   7.730
 3112POPC   NC340463   8.176  26.497   9.454
 3112POPC   PO440464   8.339  27.124   9.457
 3112POPC   GL140465   8.126  27.082   9.073
 3112POPC   GL240466   8.276  26.776   9.021
 3112POPC   C1A40467   8.159  27.144   8.617
 3112POPC   D2A40468   8.386  27.198   8.250
 3112POPC   C3A40469   8.182  26.927   7.931
 3112POPC   C4A40470   8.204  26.921   7.477
 3112POPC   C1B40471   7.979  26.676   8.710
 3112POPC   C2B40472   7.856  26.759   8.325
 3112POPC   C3B40473   8.051  26.454   8.105
 3112POPC   C4B40474   8.217  26.426   7.718
 3113POPC   NC340475  30.582  31.927   9.508
 3113POPC   PO440476  31.019  32.546   9.488
 3113POPC   GL140477  30.762  32.428   9.134
 3113POPC   GL240478  30.607  32.112   9.049
 3113POPC   C1A40479  30.890  32.349   8.700
 3113POPC   D2A40480  31.118  32.412   8.346
 3113POPC   C3A40481  30.962  32.401   7.959
 3113POPC   C4A40482  30.849  32.234   7.634
 3113POPC   C1B40483  30.573  31.946   8.642
 3113POPC   C2B40484  30.616  32.173   8.262
 3113POPC   C3B40485  30.397  32.128   7.870
 3113POPC   C4B40486  30.457  32.026   7.399
 3114POPC   NC340487  31.728  14.528   9.449
 3114POPC   PO440488  31.271  14.079   9.417
 3114POPC   GL140489  31.492  14.333   9.049
 3114POPC   GL240490  31.675  14.692   8.979
 3114POPC   C1A40491  31.620  14.234   8.646
 3114POPC   D2A40492  31.760  14.458   8.256
 3114POPC   C3A40493  31.612  14.210   7.910
 3114POPC   C4A40494  31.757  14.108   7.510
 3114POPC   C1B40495  31.439  14.711   8.620
 3114POPC   C2B40496  31.226  14.408   8.367
 3114POPC   C3B40497  31.124  14.367   7.946
 3114POPC   C4B40498  31.289  14.676   7.693
 3115POPC   NC340499  31.505  16.831   9.604
 3115POPC   PO440500  31.112  16.407   9.246
 3115POPC   GL140501  31.491  16.593   9.123
 3115POPC   GL240502  31.367  16.908   9.130
 3115POPC   C1A40503  31.763  16.726   8.778
 3115POPC   D2A40504  31.959  16.683   8.354
 3115POPC   C3A40505  31.635  16.781   8.041
 3115POPC   C4A40506  31.444  16.523   7.713
 3115POPC   C1B40507  31.149  16.907   8.776
 3115POPC   C2B40508  31.273  16.960   8.375
 3115POPC   C3B40509  31.129  16.959   7.956
 3115POPC   C4B40510  31.387  17.090   7.640
 3116POPC   NC340511   9.838  21.271   9.711
 3116POPC   PO440512   9.270  21.447   9.554
 3116POPC   GL140513   9.547  21.184   9.291
 3116POPC   GL240514   9.336  21.188   9.042
 3116POPC   C1A40515   9.828  21.099   8.884
 3116POPC   D2A40516   9.758  21.041   8.395
 3116POPC   C3A40517   9.794  21.440   8.147
 3116POPC   C4A40518   9.916  21.549   7.710
 3116POPC   C1B40519   9.404  21.333   8.625
 3116POPC   C2B40520   9.309  21.275   8.196
 3116POPC   C3B40521   9.453  21.333   7.756
 3116POPC   C4B40522   9.531  21.271   7.315
 3117POPC   NC340523  24.966  10.581   9.359
 3117POPC   PO440524  25.632  10.427   9.361
 3117POPC   GL140525  25.392  10.624   9.073
 3117POPC   GL240526  25.426  10.934   9.247
 3117POPC   C1A40527  25.167  10.518   8.679
 3117POPC   D2A40528  25.456  10.485   8.336
 3117POPC   C3A40529  25.339  10.358   7.930
 3117POPC   C4A40530  25.357  10.455   7.483
 3117POPC   C1B40531  25.197  11.024   8.829
 3117POPC   C2B40532  25.115  10.953   8.399
 3117POPC   C3B40533  25.326  10.859   8.016
 3117POPC   C4B40534  25.206  10.949   7.625
 3118POPC   NC340535  26.234  31.304   9.508
 3118POPC   PO440536  25.823  31.893   9.438
 3118POPC   GL140537  26.098  31.672   9.173
 3118POPC   GL240538  25.904  31.351   9.120
 3118POPC   C1A40539  26.266  31.538   8.783
 3118POPC   D2A40540  26.180  31.312   8.425
 3118POPC   C3A40541  26.248  31.532   8.048
 3118POPC   C4A40542  26.144  31.323   7.682
 3118POPC   C1B40543  25.741  31.612   8.771
 3118POPC   C2B40544  25.858  31.693   8.334
 3118POPC   C3B40545  25.783  31.694   7.881
 3118POPC   C4B40546  25.719  31.699   7.404
 3119POPC   NC340547  35.983  41.813   9.425
 3119POPC   PO440548  36.643  41.704   9.682
 3119POPC   GL140549  36.386  41.428   9.279
 3119POPC   GL240550  36.087  41.542   9.030
 3119POPC   C1A40551  36.447  41.325   8.785
 3119POPC   D2A40552  36.188  41.461   8.442
 3119POPC   C3A40553  36.268  41.788   8.152
 3119POPC   C4A40554  36.293  41.651   7.746
 3119POPC   C1B40555  35.789  41.699   8.713
 3119POPC   C2B40556  35.696  41.514   8.306
 3119POPC   C3B40557  35.857  41.442   7.918
 3119POPC   C4B40558  35.959  41.317   7.482
 3120POPC   NC340559  24.566  31.141   9.569
 3120POPC   PO440560  24.195  31.669   9.627
 3120POPC   GL140561  24.336  31.469   9.193
 3120POPC   GL240562  24.539  31.217   9.072
 3120POPC   C1A40563  24.198  31.302   8.726
 3120POPC   D2A40564  24.128  31.120   8.304
 3120POPC   C3A40565  24.361  31.313   7.960
 3120POPC   C4A40566  24.379  31.748   7.925
 3120POPC   C1B40567  24.652  31.568   8.793
 3120POPC   C2B40568  24.611  31.586   8.350
 3120POPC   C3B40569  24.857  31.591   7.978
 3120POPC   C4B40570  24.855  31.421   7.562
 3121POPC   NC340571   8.482  11.287   9.468
 3121POPC   PO440572   7.981  10.843   9.471
 3121POPC   GL140573   8.082  11.084   9.115
 3121POPC   GL240574   8.398  10.974   9.077
 3121POPC   C1A40575   7.919  11.369   8.771
 3121POPC   D2A40576   7.869  11.550   8.353
 3121POPC   C3A40577   7.943  11.284   7.976
 3121POPC   C4A40578   7.982  11.449   7.560
 3121POPC   C1B40579   8.421  11.267   8.739
 3121POPC   C2B40580   8.333  11.292   8.319
 3121POPC   C3B40581   8.500  11.080   7.980
 3121POPC   C4B40582   8.345  11.026   7.620
 3122POPC   NC340583  11.016  25.797   9.664
 3122POPC   PO440584  11.359  26.455   9.560
 3122POPC   GL140585  11.279  26.370   9.153
 3122POPC   GL240586  11.353  26.041   9.220
 3122POPC   C1A40587  11.190  26.206   8.740
 3122POPC   D2A40588  11.243  26.308   8.310
 3122POPC   C3A40589  11.249  26.055   7.976
 3122POPC   C4A40590  11.030  25.934   7.629
 3122POPC   C1B40591  11.629  25.876   8.891
 3122POPC   C2B40592  11.572  25.933   8.459
 3122POPC   C3B40593  11.552  25.656   8.088
 3122POPC   C4B40594  11.503  25.742   7.652
 3123POPC   NC340595  19.261   0.852   9.455
 3123POPC   PO440596  19.803   1.369   9.518
 3123POPC   GL140597  19.917   1.081   9.205
 3123POPC   GL240598  19.904   0.713   9.323
 3123POPC   C1A40599  20.066   1.276   8.846
 3123POPC   D2A40600  19.806   1.433   8.511
 3123POPC   C3A40601  20.029   1.449   8.137
 3123POPC   C4A40602  19.996   1.210   7.777
 3123POPC   C1B40603  19.897   0.694   8.883
 3123POPC   C2B40604  20.029   0.914   8.496
 3123POPC   C3B40605  19.956   0.800   8.083
 3123POPC   C4B40606  19.635   0.735   7.800
 3124POPC   NC340607  23.515   6.496   9.416
 3124POPC   PO440608  23.641   5.773   9.391
 3124POPC   GL140609  23.727   5.730   9.003
 3124POPC   GL240610  23.977   5.988   9.047
 3124POPC   C1A40611  23.507   5.785   8.612
 3124POPC   D2A40612  23.427   6.078   8.345
 3124POPC   C3A40613  23.563   6.006   7.933
 3124POPC   C4A40614  23.520   5.644   7.681
 3124POPC   C1B40615  23.989   5.954   8.610
 3124POPC   C2B40616  23.984   6.208   8.265
 3124POPC   C3B40617  24.112   6.126   7.860
 3124POPC   C4B40618  23.924   5.902   7.557
 3125POPC   NC340619  40.648  43.228   9.262
 3125POPC   PO440620  41.258  43.150   9.458
 3125POPC   GL140621  41.057  42.767   9.224
 3125POPC   GL240622  40.716  42.731   9.132
 3125POPC   C1A40623  41.016  42.862   8.756
 3125POPC   D2A40624  41.105  42.754   8.323
 3125POPC   C3A40625  40.906  43.041   8.027
 3125POPC   C4A40626  41.006  43.212   7.591
 3125POPC   C1B40627  40.529  42.667   8.759
 3125POPC   C2B40628  40.490  42.867   8.367
 3125POPC   C3B40629  40.374  42.756   7.964
 3125POPC   C4B40630  40.644  42.843   7.641
 3126POPC   NC340631  37.478  32.843   9.442
 3126POPC   PO440632  37.937  33.254   9.732
 3126POPC   GL140633  37.898  33.232   9.250
 3126POPC   GL240634  37.527  33.229   9.102
 3126POPC   C1A40635  37.915  33.349   8.783
 3126POPC   D2A40636  37.608  33.338   8.414
 3126POPC   C3A40637  37.738  33.115   8.025
 3126POPC   C4A40638  37.915  32.701   7.933
 3126POPC   C1B40639  37.420  32.885   8.789
 3126POPC   C2B40640  37.350  32.558   8.481
 3126POPC   C3B40641  37.438  32.475   8.062
 3126POPC   C4B40642  37.461  32.747   7.699
 3127POPC   NC340643   3.136  29.407   9.807
 3127POPC   PO440644   2.822  28.858   9.445
 3127POPC   GL140645   2.769  29.040   9.026
 3127POPC   GL240646   2.814  29.435   9.069
 3127POPC   C1A40647   2.487  28.966   8.649
 3127POPC   D2A40648   2.243  29.154   8.278
 3127POPC   C3A40649   2.509  29.203   7.895
 3127POPC   C4A40650   2.821  28.899   7.802
 3127POPC   C1B40651   2.763  29.399   8.649
 3127POPC   C2B40652   2.834  29.181   8.288
 3127POPC   C3B40653   3.016  29.353   7.943
 3127POPC   C4B40654   2.894  29.372   7.542
 3128POPC   NC340655  27.179  25.571   9.700
 3128POPC   PO440656  26.682  25.258   9.456
 3128POPC   GL140657  26.624  25.137   9.075
 3128POPC   GL240658  26.951  25.294   9.032
 3128POPC   C1A40659  26.641  25.254   8.642
 3128POPC   D2A40660  26.969  25.385   8.362
 3128POPC   C3A40661  26.762  25.320   7.968
 3128POPC   C4A40662  26.441  24.976   7.918
 3128POPC   C1B40663  27.121  25.016   8.743
 3128POPC   C2B40664  27.007  24.798   8.372
 3128POPC   C3B40665  26.968  24.866   7.960
 3128POPC   C4B40666  27.188  24.971   7.610
 3129POPC   NC340667  41.103   9.198   9.555
 3129POPC   PO440668  41.807   9.289   9.698
 3129POPC   GL140669  41.634   9.244   9.254
 3129POPC   GL240670  41.935   9.167   9.153
 3129POPC   C1A40671  41.426   9.074   8.820
 3129POPC   D2A40672  41.308   8.829   8.392
 3129POPC   C3A40673  41.389   9.054   7.999
 3129POPC   C4A40674  41.467   8.986   7.562
 3129POPC   C1B40675  41.885   8.836   8.907
 3129POPC   C2B40676  41.804   8.796   8.506
 3129POPC   C3B40677  41.806   8.739   8.062
 3129POPC   C4B40678  41.949   8.893   7.683
 3130POPC   NC340679  37.202  39.305   9.695
 3130POPC   PO440680  36.655  39.460   9.305
 3130POPC   GL140681  36.647  39.216   8.949
 3130POPC   GL240682  36.909  39.043   9.128
 3130POPC   C1A40683  36.883  39.220   8.580
 3130POPC   D2A40684  37.156  39.369   8.282
 3130POPC   C3A40685  36.871  39.415   7.965
 3130POPC   C4A40686  36.617  39.128   7.810
 3130POPC   C1B40687  37.110  38.837   8.810
 3130POPC   C2B40688  37.054  38.735   8.404
 3130POPC   C3B40689  37.053  38.924   8.017
 3130POPC   C4B40690  37.341  39.229   7.813
 3131POPC   NC340691   5.685  44.683   5.375
 3131POPC   PO440692   6.355  44.901   5.361
 3131POPC   GL140693   6.114  44.684   5.731
 3131POPC   GL240694   5.747  44.639   5.883
 3131POPC   C1A40695   6.105  44.798   6.190
 3131POPC   D2A40696   5.962  44.573   6.564
 3131POPC   C3A40697   5.915  44.689   7.002
 3131POPC   C4A40698   6.113  44.353   7.242
 3131POPC   C1B40699   5.542  44.521   6.279
 3131POPC   C2B40700   5.487  44.442   6.736
 3131POPC   C3B40701   5.572  44.354   7.179
 3131POPC   C4B40702   5.487  44.644   7.515
 3132POPC   NC340703  26.388  37.857   5.578
 3132POPC   PO440704  25.831  37.480   5.412
 3132POPC   GL140705  25.881  37.532   5.848
 3132POPC   GL240706  26.211  37.414   5.854
 3132POPC   C1A40707  26.026  37.661   6.302
 3132POPC   D2A40708  26.243  37.745   6.715
 3132POPC   C3A40709  25.965  37.995   7.002
 3132POPC   C4A40710  25.602  38.017   7.256
 3132POPC   C1B40711  25.949  37.170   6.193
 3132POPC   C2B40712  25.752  37.183   6.606
 3132POPC   C3B40713  25.850  37.482   6.926
 3132POPC   C4B40714  26.191  37.611   7.229
 3133POPC   NC340715  41.335  35.033   5.144
 3133POPC   PO440716  41.519  35.597   5.295
 3133POPC   GL140717  41.527  35.357   5.669
 3133POPC   GL240718  41.821  35.193   5.788
 3133POPC   C1A40719  41.553  35.514   6.106
 3133POPC   D2A40720  41.364  35.525   6.499
 3133POPC   C3A40721  41.645  35.355   6.808
 3133POPC   C4A40722  41.506  35.510   7.189
 3133POPC   C1B40723  41.733  35.000   6.186
 3133POPC   C2B40724  41.977  34.954   6.572
 3133POPC   C3B40725  42.126  35.107   6.958
 3133POPC   C4B40726  41.945  35.278   7.302
 3134POPC   NC340727  15.449  17.160   5.430
 3134POPC   PO440728  14.833  16.751   5.395
 3134POPC   GL140729  15.160  16.827   5.723
 3134POPC   GL240730  14.945  17.056   5.864
 3134POPC   C1A40731  15.374  16.927   6.174
 3134POPC   D2A40732  15.399  17.095   6.591
 3134POPC   C3A40733  15.207  16.834   6.893
 3134POPC   C4A40734  15.415  16.689   7.256
 3134POPC   C1B40735  14.947  16.671   6.169
 3134POPC   C2B40736  15.231  16.484   6.490
 3134POPC   C3B40737  15.232  16.310   6.912
 3134POPC   C4B40738  15.001  16.405   7.274
 3135POPC   NC340739  20.266  23.012   5.621
 3135POPC   PO440740  19.945  22.590   5.165
 3135POPC   GL140741  19.874  22.693   5.633
 3135POPC   GL240742  20.157  22.497   5.744
 3135POPC   C1A40743  19.929  22.837   6.119
 3135POPC   D2A40744  19.757  22.815   6.521
 3135POPC   C3A40745  19.955  23.064   6.819
 3135POPC   C4A40746  19.795  23.110   7.220
 3135POPC   C1B40747  20.377  22.563   6.148
 3135POPC   C2B40748  20.293  22.750   6.549
 3135POPC   C3B40749  20.325  22.660   6.983
 3135POPC   C4B40750  20.293  22.692   7.456
 3136POPC   NC340751  14.086  14.863   5.356
 3136POPC   PO440752  14.636  15.206   5.356
 3136POPC   GL140753  14.367  15.209   5.746
 3136POPC   GL240754  14.155  15.487   5.866
 3136POPC   C1A40755  14.497  15.187   6.193
 3136POPC   D2A40756  14.806  14.952   6.487
 3136POPC   C3A40757  14.628  14.942   6.933
 3136POPC   C4A40758  14.625  15.283   7.253
 3136POPC   C1B40759  14.047  15.447   6.286
 3136POPC   C2B40760  14.235  15.466   6.692
 3136POPC   C3B40761  14.152  15.195   7.037
 3136POPC   C4B40762  14.087  15.190   7.467
 3137POPC   NC340763  27.132   5.518   5.335
 3137POPC   PO440764  26.864   6.227   5.409
 3137POPC   GL140765  26.931   5.870   5.710
 3137POPC   GL240766  26.596   5.684   5.771
 3137POPC   C1A40767  26.934   5.931   6.151
 3137POPC   D2A40768  26.692   6.212   6.381
 3137POPC   C3A40769  26.650   6.146   6.834
 3137POPC   C4A40770  26.773   6.069   7.263
 3137POPC   C1B40771  26.457   5.700   6.203
 3137POPC   C2B40772  26.560   5.686   6.649
 3137POPC   C3B40773  26.393   5.776   7.095
 3137POPC   C4B40774  26.506   5.764   7.564
 3138POPC   NC340775  20.865   6.273   5.476
 3138POPC   PO440776  20.200   6.453   5.426
 3138POPC   GL140777  20.467   6.357   5.802
 3138POPC   GL240778  20.624   6.687   5.828
 3138POPC   C1A40779  20.828   6.302   6.120
 3138POPC   D2A40780  20.941   6.529   6.487
 3138POPC   C3A40781  20.768   6.512   6.909
 3138POPC   C4A40782  21.018   6.632   7.300
 3138POPC   C1B40783  20.461   6.620   6.277
 3138POPC   C2B40784  20.375   6.922   6.614
 3138POPC   C3B40785  20.433   7.010   7.039
 3138POPC   C4B40786  20.517   6.697   7.322
 3139POPC   NC340787  34.245  11.748   5.493
 3139POPC   PO440788  34.799  12.113   5.306
 3139POPC   GL140789  34.858  12.063   5.774
 3139POPC   GL240790  34.970  12.382   5.881
 3139POPC   C1A40791  34.917  11.879   6.200
 3139POPC   D2A40792  34.700  11.660   6.548
 3139POPC   C3A40793  34.488  11.901   6.887
 3139POPC   C4A40794  34.654  12.067   7.282
 3139POPC   C1B40795  34.696  12.341   6.254
 3139POPC   C2B40796  34.402  12.346   6.616
 3139POPC   C3B40797  34.395  12.463   7.052
 3139POPC   C4B40798  34.215  12.303   7.423
 3140POPC   NC340799  12.753  16.586   5.302
 3140POPC   PO440800  12.015  16.681   5.431
 3140POPC   GL140801  12.031  16.814   5.846
 3140POPC   GL240802  12.355  16.899   5.913
 3140POPC   C1A40803  11.812  16.891   6.212
 3140POPC   D2A40804  11.700  16.806   6.622
 3140POPC   C3A40805  12.083  16.774   6.872
 3140POPC   C4A40806  12.013  16.662   7.305
 3140POPC   C1B40807  12.326  16.833   6.358
 3140POPC   C2B40808  12.506  17.155   6.634
 3140POPC   C3B40809  12.432  17.245   7.047
 3140POPC   C4B40810  12.313  17.040   7.412
 3141POPC   NC340811  36.666  43.581   5.467
 3141POPC   PO440812  36.935  44.184   5.443
 3141POPC   GL140813  36.882  43.942   5.785
 3141POPC   GL240814  36.534  44.041   5.745
 3141POPC   C1A40815  37.047  43.670   6.144
 3141POPC   D2A40816  37.197  43.466   6.567
 3141POPC   C3A40817  36.973  43.585   6.963
 3141POPC   C4A40818  37.035  43.834   7.312
 3141POPC   C1B40819  36.539  43.830   6.149
 3141POPC   C2B40820  36.684  43.629   6.515
 3141POPC   C3B40821  36.456  43.661   6.877
 3141POPC   C4B40822  36.529  43.817   7.248
 3142POPC   NC340823  44.161  42.277   5.258
 3142POPC   PO440824  43.492  42.084   5.265
 3142POPC   GL140825  43.609  42.087   5.753
 3142POPC   GL240826  43.933  42.217   5.737
 3142POPC   C1A40827  43.953  41.974   6.147
 3142POPC   D2A40828  44.050  41.855   6.566
 3142POPC   C3A40829  43.844  42.138   6.877
 3142POPC   C4A40830  43.958  42.208   7.313
 3142POPC   C1B40831  43.725  42.462   6.097
 3142POPC   C2B40832  43.692  42.606   6.536
 3142POPC   C3B40833  43.469  42.633   6.920
 3142POPC   C4B40834  43.674  42.626   7.297
 3143POPC   NC340835  13.109  16.866   5.603
 3143POPC   PO440836  12.704  16.197   5.563
 3143POPC   GL140837  12.746  16.580   5.810
 3143POPC   GL240838  13.031  16.451   5.887
 3143POPC   C1A40839  12.819  16.847   6.188
 3143POPC   D2A40840  12.764  16.718   6.609
 3143POPC   C3A40841  12.876  16.944   6.950
 3143POPC   C4A40842  12.786  16.865   7.365
 3143POPC   C1B40843  12.801  16.333   6.253
 3143POPC   C2B40844  12.866  16.227   6.658
 3143POPC   C3B40845  12.798  16.418   7.047
 3143POPC   C4B40846  12.958  16.393   7.445
 3144POPC   NC340847  24.075   7.126   5.522
 3144POPC   PO440848  24.557   7.577   5.418
 3144POPC   GL140849  24.355   7.515   5.832
 3144POPC   GL240850  24.377   7.180   5.928
 3144POPC   C1A40851  24.456   7.548   6.300
 3144POPC   D2A40852  24.836   7.562   6.596
 3144POPC   C3A40853  24.754   7.562   7.059
 3144POPC   C4A40854  24.359   7.718   7.200
 3144POPC   C1B40855  24.201   7.080   6.330
 3144POPC   C2B40856  24.355   6.871   6.706
 3144POPC   C3B40857  24.585   7.044   7.048
 3144POPC   C4B40858  24.352   7.238   7.327
 3145POPC   NC340859   4.492  43.640   5.634
 3145POPC   PO440860   3.937  43.924   5.408
 3145POPC   GL140861   4.254  44.090   5.765
 3145POPC   GL240862   4.622  43.985   5.987
 3145POPC   C1A40863   4.183  44.027   6.198
 3145POPC   D2A40864   4.442  44.097   6.549
 3145POPC   C3A40865   4.230  44.042   6.919
 3145POPC   C4A40866   4.332  44.126   7.348
 3145POPC   C1B40867   4.548  43.650   6.323
 3145POPC   C2B40868   4.399  43.577   6.767
 3145POPC   C3B40869   4.416  43.648   7.219
 3145POPC   C4B40870   4.466  43.770   7.701
 3146POPC   NC340871  15.642  28.405   5.330
 3146POPC   PO440872  16.295  28.192   5.153
 3146POPC   GL140873  16.090  28.173   5.611
 3146POPC   GL240874  15.780  28.364   5.807
 3146POPC   C1A40875  16.201  28.257   6.069
 3146POPC   D2A40876  15.978  28.377   6.449
 3146POPC   C3A40877  16.077  28.163   6.812
 3146POPC   C4A40878  16.212  28.308   7.198
 3146POPC   C1B40879  15.980  28.727   6.053
 3146POPC   C2B40880  16.244  28.826   6.440
 3146POPC   C3B40881  16.334  28.709   6.876
 3146POPC   C4B40882  16.150  28.803   7.268
 3147POPC   NC340883  33.271  17.870   5.582
 3147POPC   PO440884  32.724  17.758   5.221
 3147POPC   GL140885  32.836  17.620   5.745
 3147POPC   GL240886  33.204  17.559   5.960
 3147POPC   C1A40887  32.787  17.701   6.192
 3147POPC   D2A40888  33.005  17.744   6.588
 3147POPC   C3A40889  32.737  17.684   6.927
 3147POPC   C4A40890  32.896  17.520   7.279
 3147POPC   C1B40891  33.481  17.825   6.261
 3147POPC   C2B40892  33.486  17.908   6.701
 3147POPC   C3B40893  33.323  17.650   7.006
 3147POPC   C4B40894  33.366  17.650   7.428
 3148POPC   NC340895  28.510  24.355   5.491
 3148POPC   PO440896  27.848  24.279   5.434
 3148POPC   GL140897  28.075  24.413   5.780
 3148POPC   GL240898  28.242  24.096   5.877
 3148POPC   C1A40899  28.292  24.667   6.097
 3148POPC   D2A40900  28.378  24.749   6.538
 3148POPC   C3A40901  28.362  24.412   6.815
 3148POPC   C4A40902  28.362  24.502   7.235
 3148POPC   C1B40903  28.436  24.222   6.299
 3148POPC   C2B40904  28.788  24.447   6.531
 3148POPC   C3B40905  28.843  24.496   6.986
 3148POPC   C4B40906  28.706  24.122   7.165
 3149POPC   NC340907  23.519  10.247   5.460
 3149POPC   PO440908  23.339  10.879   5.318
 3149POPC   GL140909  23.073  10.664   5.650
 3149POPC   GL240910  23.245  10.422   5.836
 3149POPC   C1A40911  22.888  10.662   6.104
 3149POPC   D2A40912  23.005  10.783   6.543
 3149POPC   C3A40913  22.823  10.577   6.909
 3149POPC   C4A40914  22.871  10.426   7.345
 3149POPC   C1B40915  23.389  10.552   6.240
 3149POPC   C2B40916  23.363  10.415   6.674
 3149POPC   C3B40917  23.329  10.571   7.090
 3149POPC   C4B40918  23.358  10.507   7.548
 3150POPC   NC340919  25.534  15.552   5.440
 3150POPC   PO440920  25.220  14.982   5.238
 3150POPC   GL140921  25.239  15.166   5.665
 3150POPC   GL240922  25.098  15.499   5.714
 3150POPC   C1A40923  25.430  15.079   6.066
 3150POPC   D2A40924  25.578  15.052   6.479
 3150POPC   C3A40925  25.306  14.920   6.784
 3150POPC   C4A40926  25.323  14.989   7.212
 3150POPC   C1B40927  25.005  15.604   6.138
 3150POPC   C2B40928  25.109  15.404   6.532
 3150POPC   C3B40929  24.992  15.303   6.960
 3150POPC   C4B40930  24.919  15.252   7.389
 3151POPC   NC340931   3.475   6.080   5.123
 3151POPC   PO440932   3.222   5.554   5.281
 3151POPC   GL140933   3.298   5.733   5.701
 3151POPC   GL240934   3.385   5.414   5.833
 3151POPC   C1A40935   3.277   6.026   6.115
 3151POPC   D2A40936   3.527   6.100   6.531
 3151POPC   C3A40937   3.488   6.260   6.972
 3151POPC   C4A40938   3.697   6.212   7.392
 3151POPC   C1B40939   3.584   5.488   6.227
 3151POPC   C2B40940   3.485   5.598   6.645
 3151POPC   C3B40941   3.654   5.775   6.994
 3151POPC   C4B40942   3.546   5.685   7.378
 3152POPC   NC340943  17.982  35.746   5.394
 3152POPC   PO440944  18.216  36.359   5.162
 3152POPC   GL140945  18.378  36.155   5.569
 3152POPC   GL240946  18.085  36.276   5.742
 3152POPC   C1A40947  18.458  36.079   6.067
 3152POPC   D2A40948  18.600  36.181   6.538
 3152POPC   C3A40949  18.376  36.154   6.962
 3152POPC   C4A40950  18.431  36.294   7.452
 3152POPC   C1B40951  17.904  36.184   6.156
 3152POPC   C2B40952  17.925  36.065   6.568
 3152POPC   C3B40953  17.879  35.950   6.966
 3152POPC   C4B40954  17.937  36.269   7.229
 3153POPC   NC340955  21.462  34.295   5.303
 3153POPC   PO440956  21.213  34.885   5.311
 3153POPC   GL140957  21.249  34.632   5.676
 3153POPC   GL240958  21.580  34.518   5.749
 3153POPC   C1A40959  21.227  34.586   6.128
 3153POPC   D2A40960  21.274  34.856   6.489
 3153POPC   C3A40961  21.327  34.685   6.894
 3153POPC   C4A40962  21.196  34.961   7.205
 3153POPC   C1B40963  21.770  34.566   6.154
 3153POPC   C2B40964  21.693  34.518   6.567
 3153POPC   C3B40965  21.853  34.656   6.937
 3153POPC   C4B40966  21.767  34.553   7.343
 3154POPC   NC340967   2.509   1.369   5.523
 3154POPC   PO440968   2.904   0.841   5.429
 3154POPC   GL140969   2.909   0.927   5.846
 3154POPC   GL240970   2.546   0.933   5.828
 3154POPC   C1A40971   2.984   1.171   6.235
 3154POPC   D2A40972   3.015   1.438   6.627
 3154POPC   C3A40973   3.076   1.176   6.988
 3154POPC   C4A40974   2.956   0.831   7.272
 3154POPC   C1B40975   2.437   1.118   6.204
 3154POPC   C2B40976   2.602   1.119   6.599
 3154POPC   C3B40977   2.564   0.996   6.997
 3154POPC   C4B40978   2.688   1.368   7.232
 3155POPC   NC340979  12.190  26.733   5.295
 3155POPC   PO440980  12.063  27.374   5.232
 3155POPC   GL140981  11.955  27.020   5.650
 3155POPC   GL240982  12.224  26.776   5.798
 3155POPC   C1A40983  11.857  26.876   6.115
 3155POPC   D2A40984  12.141  26.895   6.490
 3155POPC   C3A40985  12.032  26.789   6.924
 3155POPC   C4A40986  12.293  26.791   7.300
 3155POPC   C1B40987  12.248  26.492   6.181
 3155POPC   C2B40988  12.241  26.390   6.636
 3155POPC   C3B40989  12.443  26.368   7.056
 3155POPC   C4B40990  12.399  26.365   7.560
 3156POPC   NC340991  31.430  29.496   5.328
 3156POPC   PO440992  31.575  28.837   5.178
 3156POPC   GL140993  31.549  29.059   5.620
 3156POPC   GL240994  31.280  29.019   5.811
 3156POPC   C1A40995  31.682  29.212   6.076
 3156POPC   D2A40996  31.629  29.097   6.540
 3156POPC   C3A40997  31.614  29.342   6.925
 3156POPC   C4A40998  31.667  29.164   7.339
 3156POPC   C1B40999  31.184  29.028   6.261
 3156POPC   C2B41000  31.074  29.261   6.652
 3156POPC   C3B41001  31.110  29.315   7.103
 3156POPC   C4B41002  31.205  29.230   7.532
 3157POPC   NC341003  33.377  33.613   5.409
 3157POPC   PO441004  33.878  34.107   5.316
 3157POPC   GL141005  33.730  33.858   5.752
 3157POPC   GL241006  33.520  33.536   5.909
 3157POPC   C1A41007  33.683  33.894   6.218
 3157POPC   D2A41008  33.888  34.078   6.574
 3157POPC   C3A41009  33.724  33.855   6.907
 3157POPC   C4A41010  33.869  33.909   7.305
 3157POPC   C1B41011  33.871  33.410   6.241
 3157POPC   C2B41012  34.053  33.246   6.646
 3157POPC   C3B41013  34.050  33.491   7.045
 3157POPC   C4B41014  33.667  33.441   7.351
 3158POPC   NC341015   8.572  20.539   5.521
 3158POPC   PO441016   7.905  20.597   5.473
 3158POPC   GL141017   7.985  20.424   5.819
 3158POPC   GL241018   8.267  20.604   5.907
 3158POPC   C1A41019   7.885  20.525   6.215
 3158POPC   D2A41020   8.037  20.413   6.582
 3158POPC   C3A41021   7.796  20.291   6.910
 3158POPC   C4A41022   7.813  20.564   7.228
 3158POPC   C1B41023   8.594  20.661   6.196
 3158POPC   C2B41024   8.565  20.473   6.597
 3158POPC   C3B41025   8.550  20.733   6.954
 3158POPC   C4B41026   8.306  20.683   7.313
 3159POPC   NC341027  28.601  43.253   5.535
 3159POPC   PO441028  27.918  43.398   5.538
 3159POPC   GL141029  28.124  43.119   5.829
 3159POPC   GL241030  28.381  43.328   5.971
 3159POPC   C1A41031  28.223  42.935   6.244
 3159POPC   D2A41032  28.561  42.858   6.551
 3159POPC   C3A41033  28.458  42.887   7.010
 3159POPC   C4A41034  28.256  43.100   7.373
 3159POPC   C1B41035  28.628  43.381   6.327
 3159POPC   C2B41036  28.525  43.336   6.752
 3159POPC   C3B41037  28.646  43.360   7.141
 3159POPC   C4B41038  28.592  43.465   7.560
 3160POPC   NC341039  32.840  35.795   5.437
 3160POPC   PO441040  33.118  36.420   5.355
 3160POPC   GL141041  32.966  36.209   5.729
 3160POPC   GL241042  32.609  36.160   5.708
 3160POPC   C1A41043  33.052  36.133   6.162
 3160POPC   D2A41044  33.108  36.401   6.517
 3160POPC   C3A41045  33.067  36.155   6.868
 3160POPC   C4A41046  33.047  36.124   7.293
 3160POPC   C1B41047  32.544  36.004   6.118
 3160POPC   C2B41048  32.647  36.127   6.538
 3160POPC   C3B41049  32.656  35.863   6.895
 3160POPC   C4B41050  32.545  36.054   7.263
 3161POPC   NC341051   7.417   2.659   5.372
 3161POPC   PO441052   6.975   3.217   5.407
 3161POPC   GL141053   7.246   2.978   5.757
 3161POPC   GL241054   7.179   2.610   5.810
 3161POPC   C1A41055   7.532   2.826   6.120
 3161POPC   D2A41056   7.609   2.477   6.445
 3161POPC   C3A41057   7.578   2.711   6.864
 3161POPC   C4A41058   7.602   2.912   7.255
 3161POPC   C1B41059   7.179   2.406   6.200
 3161POPC   C2B41060   7.152   2.565   6.645
 3161POPC   C3B41061   7.117   2.711   7.097
 3161POPC   C4B41062   7.060   2.558   7.526
 3162POPC   NC341063  28.498  17.826   5.371
 3162POPC   PO441064  27.944  17.482   5.428
 3162POPC   GL141065  28.273  17.498   5.759
 3162POPC   GL241066  28.332  17.826   5.844
 3162POPC   C1A41067  28.478  17.334   6.140
 3162POPC   D2A41068  28.258  17.290   6.554
 3162POPC   C3A41069  28.438  17.344   6.947
 3162POPC   C4A41070  28.529  17.253   7.351
 3162POPC   C1B41071  28.212  17.770   6.237
 3162POPC   C2B41072  28.365  17.787   6.624
 3162POPC   C3B41073  28.192  17.792   7.019
 3162POPC   C4B41074  28.572  17.805   7.227
 3163POPC   NC341075  33.865  17.879   5.347
 3163POPC   PO441076  33.401  17.409   5.462
 3163POPC   GL141077  33.696  17.484   5.774
 3163POPC   GL241078  33.744  17.800   5.836
 3163POPC   C1A41079  33.695  17.361   6.209
 3163POPC   D2A41080  33.418  17.378   6.566
 3163POPC   C3A41081  33.662  17.266   6.924
 3163POPC   C4A41082  33.774  17.334   7.347
 3163POPC   C1B41083  34.023  17.750   6.212
 3163POPC   C2B41084  33.923  17.667   6.625
 3163POPC   C3B41085  33.913  17.738   7.056
 3163POPC   C4B41086  34.252  17.649   7.375
 3164POPC   NC341087  12.496  35.370   5.437
 3164POPC   PO441088  11.856  35.102   5.497
 3164POPC   GL141089  12.109  35.378   5.776
 3164POPC   GL241090  12.140  35.082   5.981
 3164POPC   C1A41091  12.312  35.504   6.188
 3164POPC   D2A41092  12.252  35.270   6.600
 3164POPC   C3A41093  12.162  35.282   7.053
 3164POPC   C4A41094  12.200  35.546   7.402
 3164POPC   C1B41095  11.844  35.250   6.291
 3164POPC   C2B41096  11.758  35.143   6.768
 3164POPC   C3B41097  11.760  34.947   7.209
 3164POPC   C4B41098  11.703  34.830   7.662
 3165POPC   NC341099  27.048  28.961   5.534
 3165POPC   PO441100  26.394  28.867   5.266
 3165POPC   GL141101  26.532  29.059   5.673
 3165POPC   GL241102  26.763  29.363   5.725
 3165POPC   C1A41103  26.716  29.003   6.098
 3165POPC   D2A41104  26.848  28.834   6.469
 3165POPC   C3A41105  26.641  28.977   6.805
 3165POPC   C4A41106  26.590  29.139   7.203
 3165POPC   C1B41107  26.983  29.438   6.115
 3165POPC   C2B41108  27.080  29.296   6.486
 3165POPC   C3B41109  27.063  29.230   6.916
 3165POPC   C4B41110  27.231  29.361   7.279
 3166POPC   NC341111  14.058  35.727   5.371
 3166POPC   PO441112  14.459  35.132   5.301
 3166POPC   GL141113  14.444  35.177   5.756
 3166POPC   GL241114  14.090  35.164   5.793
 3166POPC   C1A41115  14.547  35.362   6.177
 3166POPC   D2A41116  14.359  35.598   6.517
 3166POPC   C3A41117  14.526  35.453   6.892
 3166POPC   C4A41118  14.610  35.374   7.302
 3166POPC   C1B41119  14.160  35.010   6.236
 3166POPC   C2B41120  14.197  35.120   6.677
 3166POPC   C3B41121  14.139  35.160   7.123
 3166POPC   C4B41122  14.189  34.764   7.292
 3167POPC   NC341123  17.877  16.384   5.453
 3167POPC   PO441124  17.252  16.230   5.556
 3167POPC   GL141125  17.465  16.050   5.914
 3167POPC   GL241126  17.539  15.683   5.864
 3167POPC   C1A41127  17.418  16.055   6.373
 3167POPC   D2A41128  17.595  15.980   6.763
 3167POPC   C3A41129  17.461  16.163   7.141
 3167POPC   C4A41130  17.680  15.954   7.434
 3167POPC   C1B41131  17.310  15.579   6.268
 3167POPC   C2B41132  17.235  15.595   6.763
 3167POPC   C3B41133  17.304  15.688   7.203
 3167POPC   C4B41134  17.477  15.514   7.590
 3168POPC   NC341135  26.981  19.587   5.414
 3168POPC   PO441136  26.938  20.317   5.421
 3168POPC   GL141137  26.948  20.013   5.727
 3168POPC   GL241138  26.621  19.876   5.674
 3168POPC   C1A41139  27.011  19.954   6.164
 3168POPC   D2A41140  26.772  19.861   6.511
 3168POPC   C3A41141  26.951  19.855   6.892
 3168POPC   C4A41142  27.111  19.575   7.232
 3168POPC   C1B41143  26.547  19.685   6.081
 3168POPC   C2B41144  26.442  19.484   6.497
 3168POPC   C3B41145  26.434  19.727   6.872
 3168POPC   C4B41146  26.593  19.866   7.274
 3169POPC   NC341147  27.244  33.013   5.308
 3169POPC   PO441148  27.918  32.664   5.434
 3169POPC   GL141149  27.672  32.908   5.752
 3169POPC   GL241150  27.342  32.793   5.776
 3169POPC   C1A41151  27.735  32.999   6.196
 3169POPC   D2A41152  27.707  32.798   6.611
 3169POPC   C3A41153  27.560  33.060   6.987
 3169POPC   C4A41154  27.636  33.039   7.428
 3169POPC   C1B41155  27.391  32.629   6.177
 3169POPC   C2B41156  27.196  32.648   6.569
 3169POPC   C3B41157  27.358  32.592   6.943
 3169POPC   C4B41158  27.213  32.778   7.301
 3170POPC   NC341159  22.422  34.788   5.362
 3170POPC   PO441160  21.825  34.587   5.253
 3170POPC   GL141161  22.085  34.578   5.673
 3170POPC   GL241162  22.222  34.247   5.761
 3170POPC   C1A41163  22.262  34.620   6.097
 3170POPC   D2A41164  22.159  34.721   6.509
 3170POPC   C3A41165  22.376  34.684   6.866
 3170POPC   C4A41166  22.236  34.442   7.223
 3170POPC   C1B41167  22.569  34.221   6.126
 3170POPC   C2B41168  22.592  34.347   6.546
 3170POPC   C3B41169  22.649  34.274   6.979
 3170POPC   C4B41170  22.729  34.585   7.257
 3171POPC   NC341171  11.542   2.938   5.607
 3171POPC   PO441172  12.165   2.868   5.386
 3171POPC   GL141173  12.022   2.807   5.813
 3171POPC   GL241174  12.064   2.448   5.976
 3171POPC   C1A41175  12.078   2.871   6.247
 3171POPC   D2A41176  12.180   2.685   6.639
 3171POPC   C3A41177  12.087   2.905   7.015
 3171POPC   C4A41178  12.024   2.786   7.477
 3171POPC   C1B41179  11.923   2.319   6.376
 3171POPC   C2B41180  11.730   2.430   6.753
 3171POPC   C3B41181  11.910   2.440   7.135
 3171POPC   C4B41182  11.793   2.320   7.557
 3172POPC   NC341183  16.321   1.760   5.467
 3172POPC   PO441184  16.333   2.364   5.157
 3172POPC   GL141185  16.100   2.248   5.661
 3172POPC   GL241186  15.958   1.959   5.763
 3172POPC   C1A41187  16.150   2.272   6.146
 3172POPC   D2A41188  15.975   2.385   6.581
 3172POPC   C3A41189  16.113   2.326   7.006
 3172POPC   C4A41190  15.746   2.212   7.243
 3172POPC   C1B41191  15.875   1.796   6.161
 3172POPC   C2B41192  15.688   1.912   6.552
 3172POPC   C3B41193  15.868   1.806   6.943
 3172POPC   C4B41194  15.736   1.554   7.272
 3173POPC   NC341195  44.443  18.487   5.654
 3173POPC   PO441196  43.850  18.294   5.454
 3173POPC   GL141197  43.946  18.092   5.840
 3173POPC   GL241198  44.296  18.052   5.849
 3173POPC   C1A41199  43.668  18.109   6.235
 3173POPC   D2A41200  43.482  18.427   6.556
 3173POPC   C3A41201  43.646  18.435   6.993
 3173POPC   C4A41202  43.864  18.104   7.233
 3173POPC   C1B41203  44.143  18.296   6.236
 3173POPC   C2B41204  43.988  18.262   6.636
 3173POPC   C3B41205  44.162  18.507   6.965
 3173POPC   C4B41206  43.991  18.587   7.366
 3174POPC   NC341207  31.687  31.858   5.263
 3174POPC   PO441208  31.416  31.257   5.160
 3174POPC   GL141209  31.440  31.360   5.617
 3174POPC   GL241210  31.157  31.576   5.623
 3174POPC   C1A41211  31.458  31.309   6.105
 3174POPC   D2A41212  31.438  31.440   6.553
 3174POPC   C3A41213  31.415  31.196   6.930
 3174POPC   C4A41214  31.616  31.137   7.309
 3174POPC   C1B41215  31.085  31.656   6.081
 3174POPC   C2B41216  31.055  31.792   6.496
 3174POPC   C3B41217  31.207  31.747   6.903
 3174POPC   C4B41218  31.398  31.621   7.272
 3175POPC   NC341219  10.441  39.149   5.427
 3175POPC   PO441220  11.008  39.138   5.136
 3175POPC   GL141221  10.808  39.485   5.587
 3175POPC   GL241222  10.437  39.475   5.794
 3175POPC   C1A41223  10.792  39.448   6.122
 3175POPC   D2A41224  10.636  39.067   6.373
 3175POPC   C3A41225  10.679  39.066   6.825
 3175POPC   C4A41226  10.635  39.322   7.164
 3175POPC   C1B41227  10.238  39.340   6.208
 3175POPC   C2B41228  10.222  39.263   6.688
 3175POPC   C3B41229  10.186  39.571   7.073
 3175POPC   C4B41230  10.283  39.514   7.530
 3176POPC   NC341231  19.676  40.021   5.340
 3176POPC   PO441232  20.242  40.360   5.471
 3176POPC   GL141233  19.932  40.174   5.778
 3176POPC   GL241234  19.701  39.890   5.835
 3176POPC   C1A41235  19.695  40.299   6.154
 3176POPC   D2A41236  19.645  40.386   6.602
 3176POPC   C3A41237  19.768  40.024   6.803
 3176POPC   C4A41238  19.904  39.888   7.191
 3176POPC   C1B41239  19.706  39.748   6.265
 3176POPC   C2B41240  19.451  39.643   6.659
 3176POPC   C3B41241  19.515  39.572   7.116
 3176POPC   C4B41242  19.635  39.610   7.574
 3177POPC   NC341243  27.908   2.188   5.419
 3177POPC   PO441244  27.309   1.859   5.349
 3177POPC   GL141245  27.537   1.874   5.743
 3177POPC   GL241246  27.635   2.211   5.856
 3177POPC   C1A41247  27.609   1.894   6.220
 3177POPC   D2A41248  27.757   1.980   6.609
 3177POPC   C3A41249  27.496   1.937   6.973
 3177POPC   C4A41250  27.589   1.737   7.330
 3177POPC   C1B41251  28.013   2.245   6.197
 3177POPC   C2B41252  28.076   2.394   6.627
 3177POPC   C3B41253  27.913   2.244   7.026
 3177POPC   C4B41254  27.713   2.217   7.435
 3178POPC   NC341255   3.090  14.653   5.500
 3178POPC   PO441256   2.780  14.102   5.509
 3178POPC   GL141257   2.588  14.209   5.873
 3178POPC   GL241258   2.426  14.540   5.758
 3178POPC   C1A41259   2.625  14.086   6.320
 3178POPC   D2A41260   2.868  13.924   6.699
 3178POPC   C3A41261   2.877  14.101   7.116
 3178POPC   C4A41262   3.090  14.422   7.391
 3178POPC   C1B41263   2.687  14.589   6.156
 3178POPC   C2B41264   2.528  14.552   6.576
 3178POPC   C3B41265   2.696  14.580   7.000
 3178POPC   C4B41266   2.620  14.630   7.437
 3179POPC   NC341267  29.594  22.094   5.186
 3179POPC   PO441268  30.122  21.792   5.539
 3179POPC   GL141269  29.778  22.045   5.718
 3179POPC   GL241270  29.951  22.341   5.858
 3179POPC   C1A41271  29.588  22.128   6.147
 3179POPC   D2A41272  29.799  22.280   6.547
 3179POPC   C3A41273  29.702  22.347   6.992
 3179POPC   C4A41274  29.522  22.012   7.222
 3179POPC   C1B41275  30.094  22.040   6.165
 3179POPC   C2B41276  30.262  22.039   6.575
 3179POPC   C3B41277  30.200  22.298   6.914
 3179POPC   C4B41278  30.054  22.123   7.292
 3180POPC   NC341279   8.714  18.837   5.370
 3180POPC   PO441280   8.860  19.434   5.672
 3180POPC   GL141281   8.864  19.000   5.850
 3180POPC   GL241282   9.203  18.862   5.767
 3180POPC   C1A41283   8.708  18.938   6.275
 3180POPC   D2A41284   8.713  19.160   6.668
 3180POPC   C3A41285   9.115  19.281   6.792
 3180POPC   C4A41286   9.241  19.373   7.189
 3180POPC   C1B41287   9.255  18.958   6.219
 3180POPC   C2B41288   9.069  18.737   6.572
 3180POPC   C3B41289   8.705  18.685   6.843
 3180POPC   C4B41290   8.864  18.930   7.187
 3181POPC   NC341291  31.056  15.030   5.301
 3181POPC   PO441292  30.517  15.411   5.573
 3181POPC   GL141293  30.671  15.238   5.877
 3181POPC   GL241294  30.861  14.987   5.796
 3181POPC   C1A41295  30.663  15.404   6.254
 3181POPC   D2A41296  30.568  15.751   6.473
 3181POPC   C3A41297  30.396  15.582   6.837
 3181POPC   C4A41298  30.531  15.693   7.241
 3181POPC   C1B41299  30.748  14.905   6.266
 3181POPC   C2B41300  30.625  15.126   6.684
 3181POPC   C3B41301  30.737  15.164   7.122
 3181POPC   C4B41302  30.981  15.032   7.480
 3182POPC   NC341303  29.431  34.884   5.431
 3182POPC   PO441304  28.929  34.378   5.453
 3182POPC   GL141305  29.068  34.675   5.728
 3182POPC   GL241306  29.356  34.483   5.809
 3182POPC   C1A41307  29.162  34.802   6.154
 3182POPC   D2A41308  29.121  34.889   6.571
 3182POPC   C3A41309  29.288  34.746   6.946
 3182POPC   C4A41310  28.962  34.817   7.263
 3182POPC   C1B41311  29.086  34.296   6.165
 3182POPC   C2B41312  29.143  34.356   6.627
 3182POPC   C3B41313  29.009  34.329   7.051
 3182POPC   C4B41314  28.842  34.386   7.461
 3183POPC   NC341315  28.479  30.695   5.318
 3183POPC   PO441316  28.008  30.220   5.575
 3183POPC   GL141317  28.188  30.606   5.732
 3183POPC   GL241318  28.561  30.543   5.789
 3183POPC   C1A41319  28.289  30.889   6.080
 3183POPC   D2A41320  28.208  30.758   6.490
 3183POPC   C3A41321  28.426  30.911   6.801
 3183POPC   C4A41322  28.305  30.979   7.179
 3183POPC   C1B41323  28.418  30.410   6.192
 3183POPC   C2B41324  28.486  30.369   6.685
 3183POPC   C3B41325  28.407  30.467   7.126
 3183POPC   C4B41326  28.110  30.247   7.406
 3184POPC   NC341327  14.875   0.116   5.473
 3184POPC   PO441328  15.176  44.434   5.414
 3184POPC   GL141329  15.173  44.767   5.721
 3184POPC   GL241330  15.009  44.569   5.940
 3184POPC   C1A41331  15.341  44.901   6.121
 3184POPC   D2A41332  15.198  44.620   6.457
 3184POPC   C3A41333  15.136  44.719   6.879
 3184POPC   C4A41334  15.228  44.889   7.309
 3184POPC   C1B41335  14.998  44.226   6.207
 3184POPC   C2B41336  15.121  44.122   6.606
 3184POPC   C3B41337  14.958  44.159   6.989
 3184POPC   C4B41338  15.139  44.391   7.258
 3185POPC   NC341339   1.067  25.449   5.361
 3185POPC   PO441340   1.676  25.164   5.196
 3185POPC   GL141341   1.436  25.145   5.649
 3185POPC   GL241342   1.062  25.114   5.732
 3185POPC   C1A41343   1.347  25.213   6.143
 3185POPC   D2A41344   1.149  25.155   6.577
 3185POPC   C3A41345   1.331  25.205   7.016
 3185POPC   C4A41346   1.402  25.289   7.480
 3185POPC   C1B41347   0.867  25.409   6.069
 3185POPC   C2B41348   0.830  25.569   6.523
 3185POPC   C3B41349   0.666  25.422   6.933
 3185POPC   C4B41350   0.937  25.387   7.291
 3186POPC   NC341351  23.487   5.052   5.190
 3186POPC   PO441352  22.971   5.462   5.358
 3186POPC   GL141353  22.872   5.269   5.770
 3186POPC   GL241354  23.195   5.322   5.935
 3186POPC   C1A41355  22.779   5.186   6.227
 3186POPC   D2A41356  23.166   5.333   6.479
 3186POPC   C3A41357  23.163   5.263   6.923
 3186POPC   C4A41358  22.873   5.244   7.294
 3186POPC   C1B41359  23.204   4.912   6.194
 3186POPC   C2B41360  22.965   4.851   6.620
 3186POPC   C3B41361  22.879   4.780   7.094
 3186POPC   C4B41362  23.141   4.857   7.518
 3187POPC   NC341363  15.499   4.500   5.263
 3187POPC   PO441364  15.083   4.033   5.243
 3187POPC   GL141365  15.276   4.135   5.664
 3187POPC   GL241366  14.988   4.210   5.920
 3187POPC   C1A41367  15.503   4.302   6.043
 3187POPC   D2A41368  15.313   4.409   6.450
 3187POPC   C3A41369  15.438   4.443   6.885
 3187POPC   C4A41370  15.450   4.296   7.321
 3187POPC   C1B41371  14.842   4.486   6.271
 3187POPC   C2B41372  14.880   4.454   6.739
 3187POPC   C3B41373  15.010   4.518   7.177
 3187POPC   C4B41374  14.936   4.287   7.575
 3188POPC   NC341375  16.261  22.232   5.291
 3188POPC   PO441376  15.591  22.123   5.377
 3188POPC   GL141377  15.940  22.033   5.690
 3188POPC   GL241378  15.747  22.310   5.832
 3188POPC   C1A41379  16.244  21.875   6.083
 3188POPC   D2A41380  16.214  21.757   6.541
 3188POPC   C3A41381  16.351  22.060   6.927
 3188POPC   C4A41382  16.198  22.244   7.329
 3188POPC   C1B41383  15.804  22.093   6.198
 3188POPC   C2B41384  16.038  22.232   6.548
 3188POPC   C3B41385  15.849  22.143   6.940
 3188POPC   C4B41386  15.696  22.317   7.330
 3189POPC   NC341387  13.708  20.252   5.625
 3189POPC   PO441388  13.466  19.628   5.458
 3189POPC   GL141389  13.589  19.777   5.843
 3189POPC   GL241390  13.916  19.599   5.830
 3189POPC   C1A41391  13.479  19.980   6.259
 3189POPC   D2A41392  13.563  20.170   6.682
 3189POPC   C3A41393  13.487  19.920   7.023
 3189POPC   C4A41394  13.336  19.508   7.124
 3189POPC   C1B41395  13.744  19.518   6.239
 3189POPC   C2B41396  13.713  19.679   6.626
 3189POPC   C3B41397  13.834  19.518   7.003
 3189POPC   C4B41398  14.183  19.438   7.249
 3190POPC   NC341399  43.428   2.898   5.529
 3190POPC   PO441400  42.823   2.605   5.523
 3190POPC   GL141401  43.185   2.552   5.850
 3190POPC   GL241402  43.217   2.904   5.996
 3190POPC   C1A41403  43.311   2.533   6.301
 3190POPC   D2A41404  43.263   2.848   6.613
 3190POPC   C3A41405  43.089   2.667   6.969
 3190POPC   C4A41406  43.202   2.304   7.172
 3190POPC   C1B41407  42.920   3.097   6.300
 3190POPC   C2B41408  42.835   3.069   6.776
 3190POPC   C3B41409  42.894   3.092   7.232
 3190POPC   C4B41410  42.781   3.089   7.688
 3191POPC   NC341411  40.918  17.879   5.148
 3191POPC   PO441412  40.837  18.548   5.308
 3191POPC   GL141413  40.702  18.334   5.646
 3191POPC   GL241414  41.015  18.181   5.795
 3191POPC   C1A41415  40.526  18.446   6.053
 3191POPC   D2A41416  40.744  18.559   6.441
 3191POPC   C3A41417  40.654  18.362   6.844
 3191POPC   C4A41418  40.451  18.191   7.219
 3191POPC   C1B41419  41.173  18.366   6.187
 3191POPC   C2B41420  41.145  18.269   6.642
 3191POPC   C3B41421  41.173  18.422   7.077
 3191POPC   C4B41422  41.082  18.542   7.576
 3192POPC   NC341423  35.452  41.727   5.470
 3192POPC   PO441424  35.283  41.134   5.257
 3192POPC   GL141425  35.232  41.260   5.736
 3192POPC   GL241426  35.131  41.599   5.877
 3192POPC   C1A41427  35.278  41.207   6.218
 3192POPC   D2A41428  35.456  41.374   6.656
 3192POPC   C3A41429  35.305  41.415   7.081
 3192POPC   C4A41430  35.440  41.315   7.539
 3192POPC   C1B41431  35.337  41.702   6.297
 3192POPC   C2B41432  35.449  41.900   6.713
 3192POPC   C3B41433  35.416  41.925   7.166
 3192POPC   C4B41434  35.175  41.749   7.500
 3193POPC   NC341435  41.512  13.315   5.364
 3193POPC   PO441436  41.552  13.962   5.315
 3193POPC   GL141437  41.696  13.747   5.680
 3193POPC   GL241438  41.375  13.701   5.759
 3193POPC   C1A41439  41.737  13.741   6.160
 3193POPC   D2A41440  41.775  13.535   6.591
 3193POPC   C3A41441  41.660  13.605   7.030
 3193POPC   C4A41442  41.674  13.439   7.429
 3193POPC   C1B41443  41.313  14.049   6.050
 3193POPC   C2B41444  41.264  14.045   6.506
 3193POPC   C3B41445  41.222  13.721   6.795
 3193POPC   C4B41446  41.166  13.654   7.229
 3194POPC   NC341447  40.850  23.278   5.662
 3194POPC   PO441448  40.657  22.727   5.430
 3194POPC   GL141449  40.788  22.655   5.816
 3194POPC   GL241450  41.080  22.825   5.774
 3194POPC   C1A41451  40.753  22.898   6.183
 3194POPC   D2A41452  40.578  23.004   6.541
 3194POPC   C3A41453  40.779  23.002   6.900
 3194POPC   C4A41454  40.739  22.767   7.269
 3194POPC   C1B41455  41.236  22.754   6.199
 3194POPC   C2B41456  41.226  22.939   6.606
 3194POPC   C3B41457  41.203  22.753   7.003
 3194POPC   C4B41458  41.208  22.567   7.390
 3195POPC   NC341459  10.822  31.253   5.228
 3195POPC   PO441460  10.698  31.847   5.524
 3195POPC   GL141461  10.673  31.633   5.878
 3195POPC   GL241462  10.642  31.281   5.769
 3195POPC   C1A41463  10.449  31.549   6.230
 3195POPC   D2A41464  10.255  31.744   6.584
 3195POPC   C3A41465  10.414  31.608   6.970
 3195POPC   C4A41466  10.265  31.356   7.290
 3195POPC   C1B41467  10.705  31.116   6.184
 3195POPC   C2B41468  10.564  31.222   6.606
 3195POPC   C3B41469  10.620  31.093   7.011
 3195POPC   C4B41470  10.819  31.413   7.246
 3196POPC   NC341471  28.065  38.886   5.721
 3196POPC   PO441472  28.384  39.442   5.411
 3196POPC   GL141473  28.404  39.277   5.823
 3196POPC   GL241474  28.630  38.987   5.813
 3196POPC   C1A41475  28.380  39.135   6.259
 3196POPC   D2A41476  28.082  39.058   6.549
 3196POPC   C3A41477  28.123  38.879   6.925
 3196POPC   C4A41478  28.229  39.099   7.260
 3196POPC   C1B41479  28.846  39.268   6.121
 3196POPC   C2B41480  28.781  39.522   6.473
 3196POPC   C3B41481  28.632  39.324   6.841
 3196POPC   C4B41482  28.681  39.315   7.262
 3197POPC   NC341483  43.420  10.359   5.400
 3197POPC   PO441484  43.159  10.945   5.445
 3197POPC   GL141485  43.272  10.631   5.799
 3197POPC   GL241486  42.985  10.422   5.700
 3197POPC   C1A41487  43.331  10.658   6.282
 3197POPC   D2A41488  43.487  10.464   6.684
 3197POPC   C3A41489  43.216  10.397   7.030
 3197POPC   C4A41490  43.225  10.710   7.388
 3197POPC   C1B41491  42.973  10.280   6.119
 3197POPC   C2B41492  42.982  10.377   6.547
 3197POPC   C3B41493  42.741  10.306   6.890
 3197POPC   C4B41494  42.773  10.536   7.289
 3198POPC   NC341495  11.098   9.253   5.500
 3198POPC   PO441496  11.490   8.676   5.403
 3198POPC   GL141497  11.282   8.825   5.762
 3198POPC   GL241498  11.493   9.130   5.825
 3198POPC   C1A41499  11.081   8.908   6.164
 3198POPC   D2A41500  11.155   9.062   6.600
 3198POPC   C3A41501  11.168   8.821   7.012
 3198POPC   C4A41502  11.629   8.744   7.192
 3198POPC   C1B41503  11.573   9.005   6.250
 3198POPC   C2B41504  11.664   8.930   6.689
 3198POPC   C3B41505  11.489   9.198   6.990
 3198POPC   C4B41506  11.139   9.257   7.299
 3199POPC   NC341507  39.484  14.384   5.420
 3199POPC   PO441508  38.899  14.548   5.423
 3199POPC   GL141509  39.150  14.737   5.734
 3199POPC   GL241510  39.428  14.521   5.904
 3199POPC   C1A41511  39.046  14.719   6.162
 3199POPC   D2A41512  39.280  14.545   6.505
 3199POPC   C3A41513  39.168  14.645   6.924
 3199POPC   C4A41514  38.995  14.355   7.177
 3199POPC   C1B41515  39.428  14.152   6.224
 3199POPC   C2B41516  39.616  14.078   6.601
 3199POPC   C3B41517  39.651  14.447   6.859
 3199POPC   C4B41518  39.541  14.465   7.289
 3200POPC   NC341519   5.654  31.347   5.080
 3200POPC   PO441520   5.969  31.769   5.532
 3200POPC   GL141521   6.069  31.471   5.888
 3200POPC   GL241522   5.822  31.233   6.059
 3200POPC   C1A41523   6.249  31.509   6.308
 3200POPC   D2A41524   6.497  31.550   6.664
 3200POPC   C3A41525   6.278  31.375   6.982
 3200POPC   C4A41526   5.950  31.572   7.228
 3200POPC   C1B41527   5.733  31.547   6.305
 3200POPC   C2B41528   5.845  31.585   6.713
 3200POPC   C3B41529   5.502  31.636   6.977
 3200POPC   C4B41530   5.456  31.532   7.378
 3201POPC   NC341531  39.626  11.684   5.367
 3201POPC   PO441532  39.328  12.324   5.355
 3201POPC   GL141533  39.309  12.153   5.797
 3201POPC   GL241534  39.475  11.845   5.894
 3201POPC   C1A41535  39.078  12.191   6.196
 3201POPC   D2A41536  39.122  12.107   6.622
 3201POPC   C3A41537  39.266  12.293   6.996
 3201POPC   C4A41538  39.101  12.175   7.386
 3201POPC   C1B41539  39.516  11.941   6.351
 3201POPC   C2B41540  39.554  11.895   6.820
 3201POPC   C3B41541  39.647  12.020   7.237
 3201POPC   C4B41542  39.530  12.081   7.671
 3202POPC   NC341543   2.546  10.630   5.221
 3202POPC   PO441544   3.156  10.875   5.237
 3202POPC   GL141545   2.886  10.736   5.639
 3202POPC   GL241546   2.770  10.383   5.773
 3202POPC   C1A41547   2.527  10.783   5.987
 3202POPC   D2A41548   2.416  10.860   6.451
 3202POPC   C3A41549   2.737  10.740   6.796
 3202POPC   C4A41550   2.685  10.483   7.168
 3202POPC   C1B41551   2.649  10.263   6.241
 3202POPC   C2B41552   2.752  10.227   6.707
 3202POPC   C3B41553   3.058  10.181   7.069
 3202POPC   C4B41554   2.966  10.326   7.563
 3203POPC   NC341555   6.030  18.791   5.464
 3203POPC   PO441556   5.521  19.278   5.408
 3203POPC   GL141557   5.805  19.146   5.778
 3203POPC   GL241558   5.752  18.795   5.893
 3203POPC   C1A41559   5.667  19.179   6.230
 3203POPC   D2A41560   5.570  19.436   6.598
 3203POPC   C3A41561   5.754  19.264   6.953
 3203POPC   C4A41562   5.936  19.424   7.318
 3203POPC   C1B41563   5.828  18.686   6.328
 3203POPC   C2B41564   5.786  18.764   6.788
 3203POPC   C3B41565   6.128  18.890   7.103
 3203POPC   C4B41566   6.133  18.992   7.561
 3204POPC   NC341567  32.594   9.266   5.601
 3204POPC   PO441568  32.004   9.099   5.533
 3204POPC   GL141569  32.079   8.896   5.899
 3204POPC   GL241570  32.401   8.909   5.882
 3204POPC   C1A41571  32.114   9.080   6.285
 3204POPC   D2A41572  32.033   9.336   6.638
 3204POPC   C3A41573  32.063   9.020   6.874
 3204POPC   C4A41574  31.898   8.917   7.253
 3204POPC   C1B41575  32.629   9.045   6.213
 3204POPC   C2B41576  32.526   9.259   6.561
 3204POPC   C3B41577  32.628   9.225   6.976
 3204POPC   C4B41578  32.418   8.956   7.226
 3205POPC   NC341579  18.028  17.863   5.413
 3205POPC   PO441580  18.373  17.339   5.114
 3205POPC   GL141581  18.414  17.508   5.553
 3205POPC   GL241582  18.205  17.309   5.774
 3205POPC   C1A41583  18.553  17.687   5.980
 3205POPC   D2A41584  18.589  17.817   6.436
 3205POPC   C3A41585  18.240  17.678   6.708
 3205POPC   C4A41586  18.130  17.712   7.139
 3205POPC   C1B41587  18.173  17.403   6.236
 3205POPC   C2B41588  18.181  17.128   6.604
 3205POPC   C3B41589  18.260  17.234   7.024
 3205POPC   C4B41590  17.924  17.279   7.322
 3206POPC   NC341591   3.685  21.227   5.316
 3206POPC   PO441592   3.791  21.812   5.448
 3206POPC   GL141593   3.571  21.579   5.816
 3206POPC   GL241594   3.222  21.447   5.854
 3206POPC   C1A41595   3.444  21.522   6.277
 3206POPC   D2A41596   3.257  21.330   6.618
 3206POPC   C3A41597   3.555  21.395   6.933
 3206POPC   C4A41598   3.686  21.522   7.339
 3206POPC   C1B41599   3.162  21.065   6.158
 3206POPC   C2B41600   3.206  20.831   6.569
 3206POPC   C3B41601   3.190  20.996   6.994
 3206POPC   C4B41602   3.381  21.120   7.360
 3207POPC   NC341603  39.803  31.480   5.341
 3207POPC   PO441604  40.205  30.934   5.393
 3207POPC   GL141605  39.872  31.104   5.697
 3207POPC   GL241606  40.067  31.397   5.783
 3207POPC   C1A41607  39.782  31.230   6.140
 3207POPC   D2A41608  40.022  31.155   6.513
 3207POPC   C3A41609  39.811  31.250   6.904
 3207POPC   C4A41610  39.902  31.216   7.328
 3207POPC   C1B41611  40.111  31.660   6.163
 3207POPC   C2B41612  40.222  31.679   6.626
 3207POPC   C3B41613  40.233  31.566   7.087
 3207POPC   C4B41614  40.110  31.669   7.532
 3208POPC   NC341615  32.501  32.809   5.587
 3208POPC   PO441616  32.106  33.384   5.618
 3208POPC   GL141617  32.153  33.022   5.935
 3208POPC   GL241618  32.499  32.898   6.060
 3208POPC   C1A41619  32.122  32.945   6.393
 3208POPC   D2A41620  32.363  33.146   6.725
 3208POPC   C3A41621  32.276  33.108   7.173
 3208POPC   C4A41622  32.064  32.967   7.542
 3208POPC   C1B41623  32.649  32.563   6.272
 3208POPC   C2B41624  32.373  32.529   6.603
 3208POPC   C3B41625  32.512  32.701   6.961
 3208POPC   C4B41626  32.482  32.716   7.410
 3209POPC   NC341627  10.087   3.004   5.237
 3209POPC   PO441628   9.692   2.606   5.562
 3209POPC   GL141629   9.848   2.840   5.925
 3209POPC   GL241630   9.773   3.185   5.776
 3209POPC   C1A41631   9.800   2.629   6.361
 3209POPC   D2A41632   9.470   2.352   6.558
 3209POPC   C3A41633   9.337   2.494   6.960
 3209POPC   C4A41634   9.571   2.635   7.276
 3209POPC   C1B41635   9.902   3.314   6.185
 3209POPC   C2B41636   9.899   3.095   6.558
 3209POPC   C3B41637   9.734   2.929   6.910
 3209POPC   C4B41638   9.748   3.090   7.359
 3210POPC   NC341639  18.984  33.732   5.472
 3210POPC   PO441640  19.495  34.193   5.228
 3210POPC   GL141641  19.253  34.116   5.685
 3210POPC   GL241642  19.182  33.794   5.916
 3210POPC   C1A41643  19.186  34.213   6.177
 3210POPC   D2A41644  19.005  34.012   6.570
 3210POPC   C3A41645  19.025  34.168   7.020
 3210POPC   C4A41646  18.870  33.998   7.420
 3210POPC   C1B41647  19.022  33.582   6.263
 3210POPC   C2B41648  19.026  33.467   6.682
 3210POPC   C3B41649  18.768  33.465   7.012
 3210POPC   C4B41650  18.871  33.491   7.410
 3211POPC   NC341651  41.503  23.935   5.414
 3211POPC   PO441652  41.969  23.521   5.543
 3211POPC   GL141653  41.806  23.795   5.847
 3211POPC   GL241654  41.448  23.766   5.918
 3211POPC   C1A41655  41.791  23.657   6.286
 3211POPC   D2A41656  41.980  23.369   6.584
 3211POPC   C3A41657  41.837  23.544   6.961
 3211POPC   C4A41658  41.765  23.741   7.352
 3211POPC   C1B41659  41.306  23.827   6.349
 3211POPC   C2B41660  41.438  23.886   6.796
 3211POPC   C3B41661  41.256  23.774   7.203
 3211POPC   C4B41662  41.233  23.922   7.652
 3212POPC   NC341663  31.980  34.987   5.321
 3212POPC   PO441664  32.286  34.362   5.422
 3212POPC   GL141665  32.226  34.423   5.861
 3212POPC   GL241666  32.130  34.772   5.783
 3212POPC   C1A41667  32.407  34.450   6.284
 3212POPC   D2A41668  32.568  34.252   6.659
 3212POPC   C3A41669  32.351  34.394   7.016
 3212POPC   C4A41670  32.409  34.398   7.447
 3212POPC   C1B41671  32.278  34.939   6.164
 3212POPC   C2B41672  32.116  34.812   6.551
 3212POPC   C3B41673  32.170  34.871   6.972
 3212POPC   C4B41674  32.249  34.849   7.358
 3213POPC   NC341675  26.502  23.987   5.519
 3213POPC   PO441676  27.132  23.581   5.442
 3213POPC   GL141677  26.890  23.738   5.775
 3213POPC   GL241678  27.153  23.831   5.957
 3213POPC   C1A41679  26.620  23.713   6.160
 3213POPC   D2A41680  26.456  23.592   6.596
 3213POPC   C3A41681  26.492  23.914   6.913
 3213POPC   C4A41682  26.622  23.855   7.319
 3213POPC   C1B41683  27.098  23.570   6.332
 3213POPC   C2B41684  26.941  23.698   6.720
 3213POPC   C3B41685  27.090  23.937   7.067
 3213POPC   C4B41686  27.161  24.026   7.491
 3214POPC   NC341687  36.727  44.602   5.339
 3214POPC   PO441688  37.055   0.176   5.398
 3214POPC   GL141689  36.819  44.910   5.802
 3214POPC   GL241690  36.751  44.520   5.837
 3214POPC   C1A41691  36.931  44.742   6.258
 3214POPC   D2A41692  37.074  44.483   6.602
 3214POPC   C3A41693  37.092  44.677   6.988
 3214POPC   C4A41694  37.065  44.844   7.392
 3214POPC   C1B41695  36.855  44.241   6.187
 3214POPC   C2B41696  36.654  44.144   6.574
 3214POPC   C3B41697  36.837  44.183   6.989
 3214POPC   C4B41698  36.981  44.338   7.405
 3215POPC   NC341699  28.672  18.490   5.498
 3215POPC   PO441700  28.154  18.170   5.360
 3215POPC   GL141701  28.276  18.323   5.764
 3215POPC   GL241702  28.167  18.650   5.823
 3215POPC   C1A41703  28.484  18.226   6.156
 3215POPC   D2A41704  28.634  18.399   6.525
 3215POPC   C3A41705  28.507  18.206   6.888
 3215POPC   C4A41706  28.421  18.350   7.262
 3215POPC   C1B41707  28.258  18.699   6.287
 3215POPC   C2B41708  28.266  18.677   6.750
 3215POPC   C3B41709  28.192  18.812   7.153
 3215POPC   C4B41710  28.042  18.593   7.494
 3216POPC   NC341711  15.617  24.111   5.517
 3216POPC   PO441712  15.486  24.741   5.413
 3216POPC   GL141713  15.346  24.652   5.828
 3216POPC   GL241714  15.008  24.690   5.792
 3216POPC   C1A41715  15.296  24.551   6.288
 3216POPC   D2A41716  15.211  24.436   6.726
 3216POPC   C3A41717  15.387  24.539   7.112
 3216POPC   C4A41718  15.342  24.226   7.404
 3216POPC   C1B41719  14.886  24.849   6.184
 3216POPC   C2B41720  14.848  24.881   6.633
 3216POPC   C3B41721  14.906  24.804   7.085
 3216POPC   C4B41722  14.914  24.376   7.152
 3217POPC   NC341723  17.893  32.298   5.484
 3217POPC   PO441724  17.237  32.112   5.441
 3217POPC   GL141725  17.456  32.358   5.795
 3217POPC   GL241726  17.790  32.341   5.989
 3217POPC   C1A41727  17.330  32.499   6.210
 3217POPC   D2A41728  17.150  32.322   6.590
 3217POPC   C3A41729  17.452  32.410   6.930
 3217POPC   C4A41730  17.399  32.442   7.379
 3217POPC   C1B41731  17.562  32.038   6.261
 3217POPC   C2B41732  17.491  31.951   6.694
 3217POPC   C3B41733  17.512  31.966   7.148
 3217POPC   C4B41734  17.559  31.939   7.586
 3218POPC   NC341735  27.999  16.302   5.411
 3218POPC   PO441736  27.321  16.155   5.401
 3218POPC   GL141737  27.468  15.908   5.740
 3218POPC   GL241738  27.829  15.890   5.729
 3218POPC   C1A41739  27.323  15.933   6.181
 3218POPC   D2A41740  27.314  15.804   6.615
 3218POPC   C3A41741  27.398  16.014   6.995
 3218POPC   C4A41742  27.290  16.022   7.442
 3218POPC   C1B41743  27.789  15.745   6.154
 3218POPC   C2B41744  27.816  15.649   6.588
 3218POPC   C3B41745  27.940  15.881   6.934
 3218POPC   C4B41746  27.782  15.956   7.333
 3219POPC   NC341747  43.841  24.206   5.531
 3219POPC   PO441748  44.272  24.639   5.180
 3219POPC   GL141749  43.944  24.741   5.627
 3219POPC   GL241750  43.566  24.867   5.640
 3219POPC   C1A41751  43.889  24.676   6.139
 3219POPC   D2A41752  43.928  24.466   6.596
 3219POPC   C3A41753  43.967  24.656   7.031
 3219POPC   C4A41754  43.916  24.823   7.465
 3219POPC   C1B41755  43.507  25.024   6.061
 3219POPC   C2B41756  43.487  24.784   6.461
 3219POPC   C3B41757  43.455  24.558   6.848
 3219POPC   C4B41758  43.483  24.816   7.197
 3220POPC   NC341759  19.544   9.208   5.406
 3220POPC   PO441760  19.896   9.841   5.354
 3220POPC   GL141761  19.821   9.843   5.798
 3220POPC   GL241762  20.050  10.138   5.794
 3220POPC   C1A41763  19.893   9.531   6.175
 3220POPC   D2A41764  20.151   9.517   6.582
 3220POPC   C3A41765  19.944   9.580   7.000
 3220POPC   C4A41766  19.990   9.708   7.433
 3220POPC   C1B41767  20.031  10.026   6.241
 3220POPC   C2B41768  20.154  10.054   6.681
 3220POPC   C3B41769  19.961  10.121   7.074
 3220POPC   C4B41770  19.712  10.119   7.439
 3221POPC   NC341771  28.618  36.301   5.460
 3221POPC   PO441772  28.249  35.777   5.424
 3221POPC   GL141773  28.340  35.985   5.786
 3221POPC   GL241774  28.666  35.936   5.856
 3221POPC   C1A41775  28.204  35.895   6.232
 3221POPC   D2A41776  28.152  35.605   6.593
 3221POPC   C3A41777  28.267  35.801   6.986
 3221POPC   C4A41778  28.166  36.206   7.126
 3221POPC   C1B41779  28.523  36.292   6.131
 3221POPC   C2B41780  28.423  36.299   6.560
 3221POPC   C3B41781  28.636  36.237   6.952
 3221POPC   C4B41782  28.505  36.517   7.290
 3222POPC   NC341783  38.137   3.716   5.527
 3222POPC   PO441784  38.765   3.918   5.435
 3222POPC   GL141785  38.625   3.741   5.833
 3222POPC   GL241786  38.319   3.705   5.974
 3222POPC   C1A41787  38.701   3.761   6.296
 3222POPC   D2A41788  38.676   3.920   6.742
 3222POPC   C3A41789  38.823   3.621   7.067
 3222POPC   C4A41790  38.624   3.522   7.458
 3222POPC   C1B41791  38.140   3.604   6.321
 3222POPC   C2B41792  38.395   3.511   6.631
 3222POPC   C3B41793  38.286   3.663   6.987
 3222POPC   C4B41794  38.116   3.602   7.343
 3223POPC   NC341795  22.511   5.393   5.413
 3223POPC   PO441796  22.204   4.808   5.441
 3223POPC   GL141797  22.391   4.953   5.873
 3223POPC   GL241798  22.378   5.326   5.902
 3223POPC   C1A41799  22.370   4.853   6.347
 3223POPC   D2A41800  22.030   5.022   6.662
 3223POPC   C3A41801  22.071   5.091   7.121
 3223POPC   C4A41802  22.333   4.859   7.419
 3223POPC   C1B41803  22.248   5.341   6.317
 3223POPC   C2B41804  22.126   5.538   6.704
 3223POPC   C3B41805  22.251   5.690   7.108
 3223POPC   C4B41806  22.388   5.369   7.426
 3224POPC   NC341807  13.602   3.010   5.353
 3224POPC   PO441808  14.130   2.592   5.315
 3224POPC   GL141809  13.967   2.857   5.694
 3224POPC   GL241810  13.627   2.735   5.794
 3224POPC   C1A41811  13.946   2.756   6.174
 3224POPC   D2A41812  13.714   2.837   6.551
 3224POPC   C3A41813  13.810   2.716   7.003
 3224POPC   C4A41814  13.664   2.908   7.430
 3224POPC   C1B41815  13.482   3.052   6.098
 3224POPC   C2B41816  13.229   3.092   6.492
 3224POPC   C3B41817  13.329   2.930   6.881
 3224POPC   C4B41818  13.292   3.159   7.202
 3225POPC   NC341819  34.859  28.900   5.373
 3225POPC   PO441820  34.461  29.514   5.265
 3225POPC   GL141821  34.590  29.243   5.633
 3225POPC   GL241822  34.918  29.352   5.690
 3225POPC   C1A41823  34.487  29.007   6.052
 3225POPC   D2A41824  34.341  29.148   6.486
 3225POPC   C3A41825  34.619  29.085   6.842
 3225POPC   C4A41826  34.552  29.161   7.240
 3225POPC   C1B41827  34.714  29.476   6.091
 3225POPC   C2B41828  34.711  29.503   6.555
 3225POPC   C3B41829  34.841  29.578   7.033
 3225POPC   C4B41830  34.918  29.395   7.479
 3226POPC   NC341831  11.940  25.316   5.394
 3226POPC   PO441832  12.418  24.907   5.467
 3226POPC   GL141833  12.291  25.229   5.798
 3226POPC   GL241834  12.038  25.532   5.850
 3226POPC   C1A41835  12.347  25.254   6.243
 3226POPC   D2A41836  12.447  25.015   6.605
 3226POPC   C3A41837  12.165  25.053   6.943
 3226POPC   C4A41838  12.139  24.857   7.312
 3226POPC   C1B41839  11.915  25.538   6.302
 3226POPC   C2B41840  12.161  25.520   6.681
 3226POPC   C3B41841  12.086  25.506   7.119
 3226POPC   C4B41842  11.770  25.224   7.305
 3227POPC   NC341843  37.704  15.155   5.221
 3227POPC   PO441844  37.610  14.788   5.733
 3227POPC   GL141845  37.475  15.154   5.887
 3227POPC   GL241846  37.798  15.354   5.756
 3227POPC   C1A41847  37.382  15.047   6.340
 3227POPC   D2A41848  37.673  14.755   6.564
 3227POPC   C3A41849  37.618  14.811   6.999
 3227POPC   C4A41850  37.477  15.121   7.291
 3227POPC   C1B41851  37.737  15.430   6.227
 3227POPC   C2B41852  37.718  15.293   6.672
 3227POPC   C3B41853  37.667  15.544   7.040
 3227POPC   C4B41854  37.844  15.438   7.427
 3228POPC   NC341855  26.276  33.485   5.430
 3228POPC   PO441856  25.902  34.052   5.530
 3228POPC   GL141857  26.206  33.867   5.777
 3228POPC   GL241858  25.928  33.717   5.934
 3228POPC   C1A41859  26.375  33.800   6.190
 3228POPC   D2A41860  26.418  34.065   6.561
 3228POPC   C3A41861  26.275  33.783   6.887
 3228POPC   C4A41862  26.080  33.874   7.274
 3228POPC   C1B41863  25.857  33.674   6.385
 3228POPC   C2B41864  25.710  33.648   6.823
 3228POPC   C3B41865  25.881  33.428   7.154
 3228POPC   C4B41866  25.880  33.396   7.599
 3229POPC   NC341867   1.896  28.550   5.421
 3229POPC   PO441868   2.390  28.061   5.270
 3229POPC   GL141869   2.250  28.271   5.681
 3229POPC   GL241870   2.070  27.957   5.717
 3229POPC   C1A41871   1.948  28.436   6.075
 3229POPC   D2A41872   1.787  28.636   6.508
 3229POPC   C3A41873   2.004  28.479   6.863
 3229POPC   C4A41874   2.107  28.662   7.240
 3229POPC   C1B41875   1.881  27.922   6.124
 3229POPC   C2B41876   1.719  28.127   6.507
 3229POPC   C3B41877   1.669  28.092   6.959
 3229POPC   C4B41878   2.068  28.018   7.142
 3230POPC   NC341879  33.002  12.460   5.334
 3230POPC   PO441880  32.726  13.028   5.319
 3230POPC   GL141881  32.992  12.950   5.679
 3230POPC   GL241882  32.839  13.187   5.891
 3230POPC   C1A41883  33.238  12.733   6.043
 3230POPC   D2A41884  33.141  12.513   6.448
 3230POPC   C3A41885  33.178  12.742   6.843
 3230POPC   C4A41886  33.029  12.676   7.255
 3230POPC   C1B41887  32.928  13.066   6.336
 3230POPC   C2B41888  32.882  13.192   6.779
 3230POPC   C3B41889  32.834  13.145   7.246
 3230POPC   C4B41890  32.652  13.117   7.746
 3231POPC   NC341891   0.143   1.450   5.071
 3231POPC   PO441892   0.502   0.949   5.386
 3231POPC   GL141893   0.527   1.015   5.814
 3231POPC   GL241894   0.587   1.378   5.873
 3231POPC   C1A41895   0.620   0.999   6.248
 3231POPC   D2A41896   0.517   1.321   6.528
 3231POPC   C3A41897   0.526   1.167   6.919
 3231POPC   C4A41898   0.557   1.366   7.317
 3231POPC   C1B41899   0.222   1.511   6.131
 3231POPC   C2B41900   0.125   1.708   6.542
 3231POPC   C3B41901   0.308   1.660   6.947
 3231POPC   C4B41902   0.067   1.524   7.301
 3232POPC   NC341903  14.667  13.499   5.219
 3232POPC   PO441904  15.185  13.872   5.445
 3232POPC   GL141905  15.102  13.723   5.884
 3232POPC   GL241906  15.023  13.388   5.913
 3232POPC   C1A41907  15.332  13.622   6.273
 3232POPC   D2A41908  15.592  13.890   6.556
 3232POPC   C3A41909  15.435  13.874   6.983
 3232POPC   C4A41910  15.403  13.697   7.395
 3232POPC   C1B41911  14.892  13.308   6.318
 3232POPC   C2B41912  15.029  13.446   6.701
 3232POPC   C3B41913  14.980  13.603   7.088
 3232POPC   C4B41914  14.981  13.394   7.464
 3233POPC   NC341915   4.496  17.677   5.255
 3233POPC   PO441916   4.998  17.191   5.361
 3233POPC   GL141917   5.168  17.338   5.786
 3233POPC   GL241918   5.167  17.677   5.787
 3233POPC   C1A41919   5.272  17.457   6.273
 3233POPC   D2A41920   5.165  17.285   6.711
 3233POPC   C3A41921   5.114  17.293   7.199
 3233POPC   C4A41922   4.900  17.146   7.597
 3233POPC   C1B41923   5.004  17.868   6.164
 3233POPC   C2B41924   5.170  17.922   6.561
 3233POPC   C3B41925   5.055  17.733   6.930
 3233POPC   C4B41926   5.214  17.773   7.331
 3234POPC   NC341927  24.425  21.568   5.436
 3234POPC   PO441928  24.392  20.920   5.287
 3234POPC   GL141929  24.322  21.116   5.707
 3234POPC   GL241930  24.657  21.260   5.776
 3234POPC   C1A41931  24.323  21.306   6.156
 3234POPC   D2A41932  24.608  21.432   6.504
 3234POPC   C3A41933  24.407  21.345   6.860
 3234POPC   C4A41934  24.331  21.051   7.157
 3234POPC   C1B41935  24.718  21.654   6.057
 3234POPC   C2B41936  24.838  21.890   6.480
 3234POPC   C3B41937  24.924  21.730   6.899
 3234POPC   C4B41938  24.792  21.412   7.223
 3235POPC   NC341939   1.466  35.882   5.486
 3235POPC   PO441940   0.992  36.537   5.547
 3235POPC   GL141941   1.285  36.309   5.790
 3235POPC   GL241942   1.228  35.980   5.929
 3235POPC   C1A41943   1.381  36.381   6.201
 3235POPC   D2A41944   1.247  36.050   6.453
 3235POPC   C3A41945   1.179  36.188   6.818
 3235POPC   C4A41946   1.369  36.324   7.138
 3235POPC   C1B41947   0.942  35.732   6.199
 3235POPC   C2B41948   0.965  35.643   6.669
 3235POPC   C3B41949   0.967  35.827   7.092
 3235POPC   C4B41950   0.940  35.753   7.550
 3236POPC   NC341951   8.427  21.251   5.286
 3236POPC   PO441952   7.882  21.595   5.408
 3236POPC   GL141953   8.226  21.477   5.740
 3236POPC   GL241954   8.342  21.107   5.787
 3236POPC   C1A41955   8.323  21.441   6.211
 3236POPC   D2A41956   8.404  21.335   6.661
 3236POPC   C3A41957   8.366  21.635   7.037
 3236POPC   C4A41958   7.943  21.695   7.152
 3236POPC   C1B41959   8.008  21.035   6.116
 3236POPC   C2B41960   7.906  21.195   6.547
 3236POPC   C3B41961   7.960  21.033   6.975
 3236POPC   C4B41962   8.334  21.161   7.181
 3237POPC   NC341963  36.781  22.773   5.196
 3237POPC   PO441964  37.174  23.245   5.293
 3237POPC   GL141965  36.901  22.934   5.657
 3237POPC   GL241966  36.646  22.642   5.692
 3237POPC   C1A41967  36.997  22.667   6.062
 3237POPC   D2A41968  37.152  22.808   6.472
 3237POPC   C3A41969  36.845  22.769   6.820
 3237POPC   C4A41970  36.929  22.937   7.212
 3237POPC   C1B41971  36.518  22.547   6.151
 3237POPC   C2B41972  36.366  22.544   6.609
 3237POPC   C3B41973  36.421  22.515   7.075
 3237POPC   C4B41974  36.539  22.726   7.461
 3238POPC   NC341975  34.731  14.143   5.465
 3238POPC   PO441976  34.145  14.502   5.406
 3238POPC   GL141977  34.393  14.423   5.759
 3238POPC   GL241978  34.749  14.525   5.822
 3238POPC   C1A41979  34.368  14.338   6.164
 3238POPC   D2A41980  34.593  14.502   6.513
 3238POPC   C3A41981  34.387  14.346   6.845
 3238POPC   C4A41982  34.290  14.466   7.229
 3238POPC   C1B41983  34.875  14.200   6.124
 3238POPC   C2B41984  35.055  14.255   6.521
 3238POPC   C3B41985  34.916  14.134   6.880
 3238POPC   C4B41986  34.778  14.340   7.191
 3239POPC   NC341987  38.548  18.281   5.361
 3239POPC   PO441988  38.109  18.871   5.308
 3239POPC   GL141989  38.151  18.523   5.665
 3239POPC   GL241990  38.157  18.137   5.681
 3239POPC   C1A41991  38.389  18.386   6.055
 3239POPC   D2A41992  38.343  18.188   6.460
 3239POPC   C3A41993  38.629  18.353   6.778
 3239POPC   C4A41994  38.831  18.481   7.207
 3239POPC   C1B41995  38.197  17.857   6.072
 3239POPC   C2B41996  38.103  17.747   6.525
 3239POPC   C3B41997  38.298  17.778   6.908
 3239POPC   C4B41998  38.451  18.081   7.174
 3240POPC   NC341999  22.117   7.124   5.476
 3240POPC   PO442000  22.343   7.792   5.287
 3240POPC   GL142001  22.182   7.601   5.684
 3240POPC   GL242002  22.547   7.540   5.712
 3240POPC   C1A42003  22.042   7.344   6.091
 3240POPC   D2A42004  22.211   7.001   6.375
 3240POPC   C3A42005  22.212   7.239   6.768
 3240POPC   C4A42006  22.179   7.238   7.223
 3240POPC   C1B42007  22.475   7.682   6.126
 3240POPC   C2B42008  22.423   7.785   6.570
 3240POPC   C3B42009  22.488   7.629   7.001
 3240POPC   C4B42010  22.180   7.757   7.272
 3241POPC   NC342011  19.672  17.743   5.405
 3241POPC   PO442012  20.141  17.299   5.407
 3241POPC   GL142013  19.855  17.393   5.788
 3241POPC   GL242014  19.478  17.393   5.725
 3241POPC   C1A42015  19.948  17.600   6.216
 3241POPC   D2A42016  19.950  17.838   6.622
 3241POPC   C3A42017  20.059  17.680   7.012
 3241POPC   C4A42018  19.774  17.767   7.323
 3241POPC   C1B42019  19.497  17.357   6.181
 3241POPC   C2B42020  19.700  17.359   6.603
 3241POPC   C3B42021  19.580  17.377   7.020
 3241POPC   C4B42022  19.556  16.985   7.188
 3242POPC   NC342023  24.689  27.864   5.437
 3242POPC   PO442024  24.152  27.815   5.781
 3242POPC   GL142025  24.578  27.865   5.927
 3242POPC   GL242026  24.678  27.521   5.842
 3242POPC   C1A42027  24.711  27.927   6.349
 3242POPC   D2A42028  24.522  27.613   6.612
 3242POPC   C3A42029  24.514  27.562   7.048
 3242POPC   C4A42030  24.113  27.666   7.233
 3242POPC   C1B42031  24.869  27.434   6.271
 3242POPC   C2B42032  24.968  27.434   6.741
 3242POPC   C3B42033  24.858  27.160   7.113
 3242POPC   C4B42034  24.833  27.249   7.557
 3243POPC   NC342035   9.002  29.438   5.499
 3243POPC   PO442036   9.125  28.797   5.784
 3243POPC   GL142037   8.990  29.163   5.935
 3243POPC   GL242038   8.672  29.205   5.867
 3243POPC   C1A42039   8.970  29.155   6.349
 3243POPC   D2A42040   9.198  29.299   6.668
 3243POPC   C3A42041   9.222  29.009   6.977
 3243POPC   C4A42042   9.216  29.285   7.271
 3243POPC   C1B42043   8.483  29.270   6.258
 3243POPC   C2B42044   8.627  29.360   6.680
 3243POPC   C3B42045   8.736  29.153   7.060
 3243POPC   C4B42046   8.836  28.905   7.380
 3244POPC   NC342047  36.393  30.855   5.458
 3244POPC   PO442048  35.906  30.411   5.206
 3244POPC   GL142049  36.095  30.409   5.655
 3244POPC   GL242050  36.402  30.524   5.870
 3244POPC   C1A42051  35.981  30.418   6.126
 3244POPC   D2A42052  36.062  30.285   6.578
 3244POPC   C3A42053  35.998  30.593   6.912
 3244POPC   C4A42054  35.886  30.814   7.310
 3244POPC   C1B42055  36.364  30.652   6.360
 3244POPC   C2B42056  36.239  30.996   6.662
 3244POPC   C3B42057  36.335  31.038   7.083
 3244POPC   C4B42058  36.360  30.628   7.276
 3245POPC   NC342059  33.275  16.365   5.368
 3245POPC   PO442060  33.011  15.787   5.523
 3245POPC   GL142061  33.326  15.923   5.849
 3245POPC   GL242062  33.346  16.293   5.876
 3245POPC   C1A42063  33.352  15.873   6.330
 3245POPC   D2A42064  32.962  15.797   6.580
 3245POPC   C3A42065  32.969  15.679   7.006
 3245POPC   C4A42066  33.150  15.937   7.307
 3245POPC   C1B42067  32.995  16.212   6.173
 3245POPC   C2B42068  33.042  16.316   6.599
 3245POPC   C3B42069  32.860  16.188   6.971
 3245POPC   C4B42070  32.716  16.229   7.380
 3246POPC   NC342071  31.124   6.442   5.492
 3246POPC   PO442072  30.428   6.554   5.374
 3246POPC   GL142073  30.701   6.749   5.705
 3246POPC   GL242074  30.714   7.116   5.668
 3246POPC   C1A42075  30.807   6.709   6.153
 3246POPC   D2A42076  30.659   6.695   6.592
 3246POPC   C3A42077  30.546   6.388   6.906
 3246POPC   C4A42078  30.865   6.227   7.161
 3246POPC   C1B42079  30.543   7.179   6.101
 3246POPC   C2B42080  30.494   7.218   6.563
 3246POPC   C3B42081  30.658   7.057   6.930
 3246POPC   C4B42082  30.669   6.770   7.215
 3247POPC   NC342083   1.387  34.923   5.347
 3247POPC   PO442084   1.275  35.533   5.230
 3247POPC   GL142085   1.174  35.513   5.703
 3247POPC   GL242086   1.495  35.539   5.876
 3247POPC   C1A42087   1.074  35.226   6.075
 3247POPC   D2A42088   1.074  34.935   6.468
 3247POPC   C3A42089   0.916  35.088   6.860
 3247POPC   C4A42090   1.161  35.362   7.124
 3247POPC   C1B42091   1.418  35.538   6.318
 3247POPC   C2B42092   1.515  35.279   6.680
 3247POPC   C3B42093   1.669  35.444   7.058
 3247POPC   C4B42094   1.502  35.823   7.187
 3248POPC   NC342095  21.055   5.501   5.516
 3248POPC   PO442096  21.315   6.142   5.428
 3248POPC   GL142097  21.164   6.008   5.819
 3248POPC   GL242098  21.424   5.783   5.809
 3248POPC   C1A42099  21.207   5.948   6.266
 3248POPC   D2A42100  21.038   6.037   6.663
 3248POPC   C3A42101  21.062   5.797   7.032
 3248POPC   C4A42102  21.009   6.139   7.231
 3248POPC   C1B42103  21.683   6.030   6.113
 3248POPC   C2B42104  21.745   5.858   6.534
 3248POPC   C3B42105  21.693   5.697   6.940
 3248POPC   C4B42106  21.499   6.041   7.028
 3249POPC   NC342107   8.626  16.674   5.372
 3249POPC   PO442108   8.019  16.841   5.329
 3249POPC   GL142109   8.162  16.775   5.704
 3249POPC   GL242110   8.410  16.981   5.731
 3249POPC   C1A42111   8.083  16.756   6.115
 3249POPC   D2A42112   8.212  16.525   6.464
 3249POPC   C3A42113   8.158  16.737   6.837
 3249POPC   C4A42114   7.869  16.601   7.154
 3249POPC   C1B42115   8.580  16.751   6.074
 3249POPC   C2B42116   8.532  16.919   6.484
 3249POPC   C3B42117   8.547  17.105   6.867
 3249POPC   C4B42118   8.476  16.827   7.216
 3250POPC   NC342119  42.952  35.369   5.423
 3250POPC   PO442120  43.553  35.052   5.455
 3250POPC   GL142121  43.248  35.120   5.832
 3250POPC   GL242122  42.843  35.111   5.864
 3250POPC   C1A42123  43.261  35.158   6.311
 3250POPC   D2A42124  43.002  35.061   6.683
 3250POPC   C3A42125  43.113  35.196   7.103
 3250POPC   C4A42126  43.485  35.138   7.359
 3250POPC   C1B42127  42.788  35.371   6.270
 3250POPC   C2B42128  43.066  35.571   6.590
 3250POPC   C3B42129  42.994  35.716   6.998
 3250POPC   C4B42130  42.757  35.632   7.370
 3251POPC   NC342131  25.494  20.165   5.569
 3251POPC   PO442132  26.080  20.185   5.267
 3251POPC   GL142133  26.053  19.910   5.709
 3251POPC   GL242134  25.759  19.952   5.947
 3251POPC   C1A42135  26.059  19.592   6.112
 3251POPC   D2A42136  26.002  19.754   6.543
 3251POPC   C3A42137  25.982  19.470   6.903
 3251POPC   C4A42138  26.006  19.687   7.307
 3251POPC   C1B42139  26.169  20.111   6.173
 3251POPC   C2B42140  26.347  20.177   6.609
 3251POPC   C3B42141  26.146  20.112   7.032
 3251POPC   C4B42142  26.201  20.171   7.492
 3252POPC   NC342143   0.290  22.782   5.393
 3252POPC   PO442144  44.906  23.304   5.447
 3252POPC   GL142145   0.252  23.092   5.806
 3252POPC   GL242146   0.304  22.666   5.878
 3252POPC   C1A42147   0.274  22.985   6.263
 3252POPC   D2A42148   0.190  22.654   6.598
 3252POPC   C3A42149   0.058  22.823   7.000
 3252POPC   C4A42150   0.294  23.071   7.304
 3252POPC   C1B42151   0.596  22.613   6.259
 3252POPC   C2B42152   0.662  22.863   6.625
 3252POPC   C3B42153   0.569  22.723   7.025
 3252POPC   C4B42154   0.814  22.571   7.355
 3253POPC   NC342155   6.246  37.108   5.279
 3253POPC   PO442156   6.783  36.799   5.489
 3253POPC   GL142157   6.473  36.915   5.808
 3253POPC   GL242158   6.326  37.249   5.776
 3253POPC   C1A42159   6.523  36.860   6.255
 3253POPC   D2A42160   6.732  36.675   6.597
 3253POPC   C3A42161   6.759  36.819   6.986
 3253POPC   C4A42162   6.478  36.705   7.259
 3253POPC   C1B42163   6.180  37.289   6.198
 3253POPC   C2B42164   6.177  37.068   6.582
 3253POPC   C3B42165   6.380  37.161   6.966
 3253POPC   C4B42166   6.531  37.554   7.132
 3254POPC   NC342167  29.711  14.219   5.423
 3254POPC   PO442168  30.220  14.579   5.293
 3254POPC   GL142169  29.974  14.586   5.702
 3254POPC   GL242170  29.877  14.918   5.718
 3254POPC   C1A42171  29.780  14.372   6.089
 3254POPC   D2A42172  29.922  14.080   6.425
 3254POPC   C3A42173  29.786  14.215   6.833
 3254POPC   C4A42174  30.030  14.489   7.077
 3254POPC   C1B42175  29.767  14.881   6.151
 3254POPC   C2B42176  29.794  14.684   6.572
 3254POPC   C3B42177  29.686  14.869   6.979
 3254POPC   C4B42178  29.531  14.747   7.391
 3255POPC   NC342179  26.446  14.484   5.359
 3255POPC   PO442180  27.012  14.182   5.515
 3255POPC   GL142181  26.981  14.359   5.910
 3255POPC   GL242182  26.892  14.694   5.784
 3255POPC   C1A42183  26.992  14.477   6.362
 3255POPC   D2A42184  26.614  14.521   6.637
 3255POPC   C3A42185  26.607  14.348   7.076
 3255POPC   C4A42186  26.985  14.138   7.180
 3255POPC   C1B42187  26.696  14.874   6.174
 3255POPC   C2B42188  26.940  14.988   6.554
 3255POPC   C3B42189  26.986  14.729   6.931
 3255POPC   C4B42190  26.960  14.636   7.365
 3256POPC   NC342191  13.345  21.555   4.948
 3256POPC   PO442192  13.770  21.493   5.457
 3256POPC   GL142193  13.485  21.443   5.781
 3256POPC   GL242194  13.681  21.146   5.868
 3256POPC   C1A42195  13.437  21.536   6.214
 3256POPC   D2A42196  13.698  21.626   6.624
 3256POPC   C3A42197  13.750  21.455   7.050
 3256POPC   C4A42198  13.475  21.276   7.370
 3256POPC   C1B42199  13.915  21.312   6.257
 3256POPC   C2B42200  13.978  21.134   6.705
 3256POPC   C3B42201  13.820  20.963   7.155
 3256POPC   C4B42202  13.922  21.263   7.573
 3257POPC   NC342203  18.534  22.646   5.451
 3257POPC   PO442204  18.103  22.088   5.566
 3257POPC   GL142205  18.267  22.032   5.965
 3257POPC   GL242206  18.156  21.738   6.074
 3257POPC   C1A42207  18.316  22.224   6.351
 3257POPC   D2A42208  18.522  22.183   6.730
 3257POPC   C3A42209  18.299  22.190   7.063
 3257POPC   C4A42210  18.504  22.248   7.462
 3257POPC   C1B42211  17.872  21.968   6.322
 3257POPC   C2B42212  17.892  22.138   6.700
 3257POPC   C3B42213  17.852  21.904   7.056
 3257POPC   C4B42214  18.101  21.913   7.414
 3258POPC   NC342215  14.608  32.174   5.638
 3258POPC   PO442216  14.004  32.473   5.572
 3258POPC   GL142217  14.161  32.271   5.908
 3258POPC   GL242218  14.264  31.912   5.906
 3258POPC   C1A42219  14.404  32.322   6.250
 3258POPC   D2A42220  14.318  32.264   6.638
 3258POPC   C3A42221  14.585  32.471   6.842
 3258POPC   C4A42222  14.597  32.607   7.228
 3258POPC   C1B42223  14.665  31.899   6.245
 3258POPC   C2B42224  14.779  32.014   6.705
 3258POPC   C3B42225  14.480  32.045   7.072
 3258POPC   C4B42226  14.445  31.906   7.469
 3259POPC   NC342227  41.259   9.760   5.224
 3259POPC   PO442228  41.847  10.076   5.394
 3259POPC   GL142229  41.796   9.797   5.770
 3259POPC   GL242230  41.588   9.475   5.811
 3259POPC   C1A42231  41.901   9.771   6.208
 3259POPC   D2A42232  41.984   9.634   6.643
 3259POPC   C3A42233  41.637   9.572   6.932
 3259POPC   C4A42234  41.529   9.848   7.261
 3259POPC   C1B42235  41.449   9.557   6.252
 3259POPC   C2B42236  41.487   9.906   6.555
 3259POPC   C3B42237  41.238  10.071   6.892
 3259POPC   C4B42238  41.003   9.990   7.253
 3260POPC   NC342239  11.699  35.534   5.455
 3260POPC   PO442240  12.313  35.901   5.365
 3260POPC   GL142241  12.214  35.909   5.757
 3260POPC   GL242242  11.857  35.955   5.720
 3260POPC   C1A42243  12.365  36.016   6.149
 3260POPC   D2A42244  12.132  36.018   6.551
 3260POPC   C3A42245  12.222  35.808   6.948
 3260POPC   C4A42246  12.254  36.066   7.324
 3260POPC   C1B42247  11.884  35.777   6.161
 3260POPC   C2B42248  11.821  35.632   6.628
 3260POPC   C3B42249  11.753  35.605   7.090
 3260POPC   C4B42250  11.750  35.842   7.486
 3261POPC   NC342251  43.757  34.642   5.295
 3261POPC   PO442252  44.321  34.319   5.618
 3261POPC   GL142253  43.884  34.322   5.765
 3261POPC   GL242254  43.833  34.663   5.783
 3261POPC   C1A42255  43.630  34.285   6.176
 3261POPC   D2A42256  43.607  34.342   6.650
 3261POPC   C3A42257  43.962  34.568   6.801
 3261POPC   C4A42258  44.112  34.563   7.193
 3261POPC   C1B42259  43.563  34.788   6.084
 3261POPC   C2B42260  43.687  34.902   6.482
 3261POPC   C3B42261  43.613  35.034   6.873
 3261POPC   C4B42262  43.938  35.027   7.184
 3262POPC   NC342263   7.753  37.896   5.403
 3262POPC   PO442264   8.244  37.421   5.287
 3262POPC   GL142265   8.380  37.415   5.776
 3262POPC   GL242266   8.052  37.511   5.991
 3262POPC   C1A42267   8.471  37.714   6.181
 3262POPC   D2A42268   8.265  37.732   6.618
 3262POPC   C3A42269   8.303  37.530   7.029
 3262POPC   C4A42270   8.169  37.308   7.408
 3262POPC   C1B42271   7.960  37.900   6.250
 3262POPC   C2B42272   7.997  38.172   6.637
 3262POPC   C3B42273   8.058  37.977   7.046
 3262POPC   C4B42274   8.169  37.817   7.486
 3263POPC   NC342275  36.221  21.365   5.319
 3263POPC   PO442276  35.788  20.939   5.621
 3263POPC   GL142277  36.140  21.227   5.815
 3263POPC   GL242278  36.117  21.593   5.777
 3263POPC   C1A42279  36.341  21.361   6.218
 3263POPC   D2A42280  36.339  21.164   6.658
 3263POPC   C3A42281  36.324  21.440   7.029
 3263POPC   C4A42282  35.938  21.301   7.199
 3263POPC   C1B42283  35.936  21.716   6.172
 3263POPC   C2B42284  36.060  21.620   6.592
 3263POPC   C3B42285  35.932  21.789   6.974
 3263POPC   C4B42286  36.038  21.747   7.372
 3264POPC   NC342287  39.802   9.882   5.528
 3264POPC   PO442288  40.336   9.466   5.227
 3264POPC   GL142289  40.211   9.587   5.715
 3264POPC   GL242290  40.233   9.912   5.919
 3264POPC   C1A42291  39.954   9.548   6.120
 3264POPC   D2A42292  40.072   9.322   6.476
 3264POPC   C3A42293  40.023   9.605   6.799
 3264POPC   C4A42294  40.082   9.628   7.228
 3264POPC   C1B42295  39.873  10.059   6.214
 3264POPC   C2B42296  39.728  10.019   6.674
 3264POPC   C3B42297  39.742   9.994   7.148
 3264POPC   C4B42298  39.763  10.116   7.641
 3265POPC   NC342299  19.463  12.882   5.413
 3265POPC   PO442300  20.127  12.844   5.522
 3265POPC   GL142301  19.798  12.936   5.800
 3265POPC   GL242302  19.729  12.588   5.794
 3265POPC   C1A42303  19.667  13.155   6.196
 3265POPC   D2A42304  19.751  13.318   6.636
 3265POPC   C3A42305  19.912  13.111   7.034
 3265POPC   C4A42306  19.785  13.053   7.483
 3265POPC   C1B42307  19.861  12.679   6.249
 3265POPC   C2B42308  19.741  12.759   6.709
 3265POPC   C3B42309  19.731  12.652   7.174
 3265POPC   C4B42310  19.857  12.323   7.437
 3266POPC   NC342311  26.294  13.617   5.508
 3266POPC   PO442312  26.895  13.401   5.408
 3266POPC   GL142313  26.959  13.597   5.819
 3266POPC   GL242314  26.649  13.731   5.887
 3266POPC   C1A42315  27.153  13.526   6.217
 3266POPC   D2A42316  26.947  13.542   6.620
 3266POPC   C3A42317  27.190  13.461   7.015
 3266POPC   C4A42318  26.960  13.258   7.380
 3266POPC   C1B42319  26.843  13.952   6.264
 3266POPC   C2B42320  26.697  13.967   6.724
 3266POPC   C3B42321  26.740  13.679   7.102
 3266POPC   C4B42322  26.636  13.858   7.488
 3267POPC   NC342323  12.207  17.103   5.452
 3267POPC   PO442324  12.023  17.578   4.989
 3267POPC   GL142325  12.041  17.606   5.556
 3267POPC   GL242326  12.281  17.432   5.817
 3267POPC   C1A42327  11.938  17.701   6.054
 3267POPC   D2A42328  12.089  17.759   6.554
 3267POPC   C3A42329  12.061  17.636   7.053
 3267POPC   C4A42330  11.947  17.855   7.487
 3267POPC   C1B42331  12.179  17.304   6.252
 3267POPC   C2B42332  12.004  17.237   6.678
 3267POPC   C3B42333  11.851  17.165   7.125
 3267POPC   C4B42334  11.907  17.333   7.542
 3268POPC   NC342335  17.966  12.171   5.561
 3268POPC   PO442336  18.204  11.563   5.398
 3268POPC   GL142337  18.383  11.876   5.708
 3268POPC   GL242338  18.530  12.236   5.693
 3268POPC   C1A42339  18.357  11.961   6.144
 3268POPC   D2A42340  18.503  11.921   6.559
 3268POPC   C3A42341  18.130  11.924   6.792
 3268POPC   C4A42342  18.036  11.996   7.201
 3268POPC   C1B42343  18.578  12.421   6.111
 3268POPC   C2B42344  18.298  12.406   6.481
 3268POPC   C3B42345  18.165  12.419   6.908
 3268POPC   C4B42346  18.306  12.435   7.315
 3269POPC   NC342347  21.941  29.498   5.544
 3269POPC   PO442348  22.305  28.959   5.410
 3269POPC   GL142349  22.431  29.096   5.854
 3269POPC   GL242350  22.262  29.393   5.914
 3269POPC   C1A42351  22.138  29.072   6.277
 3269POPC   D2A42352  21.872  28.987   6.673
 3269POPC   C3A42353  22.113  28.958   7.082
 3269POPC   C4A42354  22.191  29.107   7.518
 3269POPC   C1B42355  22.159  29.594   6.315
 3269POPC   C2B42356  22.102  29.456   6.759
 3269POPC   C3B42357  22.329  29.455   7.172
 3269POPC   C4B42358  22.540  29.485   7.625
 3270POPC   NC342359  19.573   7.754   5.554
 3270POPC   PO442360  19.052   7.325   5.360
 3270POPC   GL142361  19.228   7.412   5.740
 3270POPC   GL242362  19.324   7.076   5.808
 3270POPC   C1A42363  19.142   7.736   6.070
 3270POPC   D2A42364  18.970   7.823   6.467
 3270POPC   C3A42365  19.212   7.634   6.759
 3270POPC   C4A42366  19.269   7.604   7.191
 3270POPC   C1B42367  19.100   7.222   6.188
 3270POPC   C2B42368  19.351   7.175   6.544
 3270POPC   C3B42369  19.149   7.157   6.915
 3270POPC   C4B42370  19.048   7.025   7.273
 3271POPC   NC342371  11.109  40.743   5.547
 3271POPC   PO442372  10.443  40.575   5.364
 3271POPC   GL142373  10.559  40.671   5.800
 3271POPC   GL242374  10.733  40.960   5.892
 3271POPC   C1A42375  10.357  40.821   6.221
 3271POPC   D2A42376  10.303  41.177   6.475
 3271POPC   C3A42377  10.311  41.039   6.913
 3271POPC   C4A42378  10.318  40.884   7.387
 3271POPC   C1B42379  10.829  40.645   6.252
 3271POPC   C2B42380  10.686  40.782   6.663
 3271POPC   C3B42381  10.751  40.886   7.103
 3271POPC   C4B42382  10.821  40.741   7.524
 3272POPC   NC342383  37.305  10.902   5.215
 3272POPC   PO442384  37.099  10.270   5.477
 3272POPC   GL142385  36.708  10.345   5.702
 3272POPC   GL242386  36.944  10.247   5.955
 3272POPC   C1A42387  36.586  10.560   6.106
 3272POPC   D2A42388  36.806  10.371   6.465
 3272POPC   C3A42389  36.654  10.485   6.847
 3272POPC   C4A42390  36.805  10.624   7.185
 3272POPC   C1B42391  37.214  10.101   6.250
 3272POPC   C2B42392  37.346  10.291   6.601
 3272POPC   C3B42393  37.179  10.377   6.958
 3272POPC   C4B42394  37.113  10.283   7.363
 3273POPC   NC342395  11.978  37.223   5.451
 3273POPC   PO442396  12.178  37.866   5.465
 3273POPC   GL142397  12.134  37.570   5.805
 3273POPC   GL242398  11.759  37.533   5.804
 3273POPC   C1A42399  12.003  37.438   6.240
 3273POPC   D2A42400  12.173  37.477   6.663
 3273POPC   C3A42401  11.955  37.438   7.067
 3273POPC   C4A42402  12.138  37.574   7.465
 3273POPC   C1B42403  11.795  37.923   6.031
 3273POPC   C2B42404  11.920  37.957   6.433
 3273POPC   C3B42405  11.950  37.907   6.877
 3273POPC   C4B42406  11.802  37.925   7.306
 3274POPC   NC342407  14.181  32.987   5.532
 3274POPC   PO442408  14.764  33.450   5.441
 3274POPC   GL142409  14.604  33.131   5.808
 3274POPC   GL242410  14.454  32.759   5.900
 3274POPC   C1A42411  14.463  33.176   6.235
 3274POPC   D2A42412  14.484  33.492   6.542
 3274POPC   C3A42413  14.313  33.413   6.933
 3274POPC   C4A42414  14.400  33.079   7.180
 3274POPC   C1B42415  14.145  32.744   6.232
 3274POPC   C2B42416  14.213  32.804   6.667
 3274POPC   C3B42417  14.110  32.582   7.028
 3274POPC   C4B42418  14.100  32.734   7.406
 3275POPC   NC342419  18.428  39.034   5.468
 3275POPC   PO442420  18.091  39.558   5.336
 3275POPC   GL142421  18.101  39.342   5.718
 3275POPC   GL242422  18.417  39.510   5.794
 3275POPC   C1A42423  18.285  39.148   6.122
 3275POPC   D2A42424  18.366  39.292   6.553
 3275POPC   C3A42425  18.569  39.073   6.880
 3275POPC   C4A42426  18.276  39.092   7.220
 3275POPC   C1B42427  18.581  39.612   6.212
 3275POPC   C2B42428  18.690  39.666   6.667
 3275POPC   C3B42429  18.480  39.545   7.080
 3275POPC   C4B42430  18.096  39.548   7.355
 3276POPC   NC342431   8.282  43.461   5.307
 3276POPC   PO442432   7.940  43.983   5.582
 3276POPC   GL142433   8.038  43.630   5.820
 3276POPC   GL242434   8.397  43.558   5.787
 3276POPC   C1A42435   7.937  43.676   6.248
 3276POPC   D2A42436   8.104  44.031   6.486
 3276POPC   C3A42437   8.073  43.897   6.928
 3276POPC   C4A42438   8.319  43.988   7.321
 3276POPC   C1B42439   8.451  43.712   6.198
 3276POPC   C2B42440   8.312  43.565   6.595
 3276POPC   C3B42441   8.500  43.628   6.991
 3276POPC   C4B42442   8.396  43.441   7.358
 3277POPC   NC342443  16.317  44.090   5.405
 3277POPC   PO442444  15.731  43.628   5.374
 3277POPC   GL142445  15.790  43.885   5.710
 3277POPC   GL242446  16.138  43.852   5.808
 3277POPC   C1A42447  15.787  43.872   6.160
 3277POPC   D2A42448  16.070  43.945   6.488
 3277POPC   C3A42449  16.029  44.155   6.851
 3277POPC   C4A42450  15.883  43.890   7.163
 3277POPC   C1B42451  16.264  43.582   6.151
 3277POPC   C2B42452  16.435  43.595   6.579
 3277POPC   C3B42453  16.227  43.545   6.990
 3277POPC   C4B42454  16.310  43.744   7.417
 3278POPC   NC342455   0.677  15.713   5.530
 3278POPC   PO442456   0.111  15.863   5.626
 3278POPC   GL142457   0.404  16.079   5.866
 3278POPC   GL242458   0.762  16.023   5.927
 3278POPC   C1A42459   0.315  16.054   6.281
 3278POPC   D2A42460   0.239  15.707   6.565
 3278POPC   C3A42461   0.156  15.920   6.939
 3278POPC   C4A42462   0.402  15.948   7.287
 3278POPC   C1B42463   0.625  15.630   6.166
 3278POPC   C2B42464   0.697  15.444   6.578
 3278POPC   C3B42465   0.723  15.675   6.997
 3278POPC   C4B42466   0.798  15.715   7.472
 3279POPC   NC342467   4.740  36.096   5.459
 3279POPC   PO442468   5.130  36.670   5.504
 3279POPC   GL142469   5.087  36.299   5.799
 3279POPC   GL242470   4.740  36.228   5.944
 3279POPC   C1A42471   5.153  36.062   6.197
 3279POPC   D2A42472   4.973  36.186   6.577
 3279POPC   C3A42473   5.220  36.122   6.918
 3279POPC   C4A42474   5.518  36.353   7.133
 3279POPC   C1B42475   4.701  35.816   6.188
 3279POPC   C2B42476   4.882  35.672   6.584
 3279POPC   C3B42477   4.765  35.872   6.965
 3279POPC   C4B42478   4.893  36.178   7.291
 3280POPC   NC342479  41.226  24.801   4.999
 3280POPC   PO442480  40.767  24.777   5.480
 3280POPC   GL142481  40.916  24.466   5.783
 3280POPC   GL242482  40.680  24.167   5.807
 3280POPC   C1A42483  40.897  24.588   6.212
 3280POPC   D2A42484  40.744  24.807   6.566
 3280POPC   C3A42485  40.827  24.573   6.934
 3280POPC   C4A42486  40.629  24.487   7.327
 3280POPC   C1B42487  40.864  24.083   6.206
 3280POPC   C2B42488  41.068  24.241   6.550
 3280POPC   C3B42489  40.963  24.082   6.905
 3280POPC   C4B42490  41.048  24.233   7.298
 3281POPC   NC342491   3.210  30.542   5.453
 3281POPC   PO442492   3.668  30.957   5.491
 3281POPC   GL142493   3.447  30.783   5.819
 3281POPC   GL242494   3.617  30.480   5.807
 3281POPC   C1A42495   3.435  30.682   6.253
 3281POPC   D2A42496   3.643  30.862   6.610
 3281POPC   C3A42497   3.474  30.791   7.022
 3281POPC   C4A42498   3.191  30.668   7.363
 3281POPC   C1B42499   3.661  30.213   6.175
 3281POPC   C2B42500   3.640  30.341   6.599
 3281POPC   C3B42501   3.499  30.289   6.995
 3281POPC   C4B42502   3.612  30.387   7.410
 3282POPC   NC342503  40.413  26.224   5.514
 3282POPC   PO442504  40.876  25.717   5.514
 3282POPC   GL142505  40.757  25.974   5.834
 3282POPC   GL242506  41.048  26.106   5.967
 3282POPC   C1A42507  40.680  25.915   6.280
 3282POPC   D2A42508  40.647  25.766   6.721
 3282POPC   C3A42509  40.591  26.162   6.867
 3282POPC   C4A42510  40.578  26.323   7.267
 3282POPC   C1B42511  41.061  26.264   6.391
 3282POPC   C2B42512  41.094  26.247   6.838
 3282POPC   C3B42513  41.298  26.309   7.240
 3282POPC   C4B42514  41.109  26.327   7.654
 3283POPC   NC342515   9.509   7.446   5.470
 3283POPC   PO442516  10.071   7.637   5.245
 3283POPC   GL142517   9.938   7.538   5.736
 3283POPC   GL242518   9.643   7.700   5.888
 3283POPC   C1A42519   9.749   7.229   6.094
 3283POPC   D2A42520   9.852   7.080   6.550
 3283POPC   C3A42521   9.593   7.152   6.927
 3283POPC   C4A42522   9.633   7.410   7.262
 3283POPC   C1B42523   9.722   7.697   6.315
 3283POPC   C2B42524   9.499   7.666   6.694
 3283POPC   C3B42525   9.768   7.818   6.998
 3283POPC   C4B42526   9.696   7.902   7.386
 3284POPC   NC342527   3.603  27.177   5.069
 3284POPC   PO442528   3.845  26.700   5.572
 3284POPC   GL142529   3.563  26.836   5.872
 3284POPC   GL242530   3.520  26.464   5.930
 3284POPC   C1A42531   3.549  27.019   6.311
 3284POPC   D2A42532   3.278  26.986   6.710
 3284POPC   C3A42533   3.534  26.856   7.108
 3284POPC   C4A42534   3.945  26.934   7.406
 3284POPC   C1B42535   3.695  26.526   6.277
 3284POPC   C2B42536   3.607  26.594   6.682
 3284POPC   C3B42537   3.864  26.459   7.011
 3284POPC   C4B42538   3.905  26.395   7.430
 3285POPC   NC342539   0.900   5.039   5.359
 3285POPC   PO442540   1.576   4.839   5.183
 3285POPC   GL142541   1.505   5.020   5.642
 3285POPC   GL242542   1.365   5.321   5.818
 3285POPC   C1A42543   1.522   4.859   6.087
 3285POPC   D2A42544   1.515   4.840   6.554
 3285POPC   C3A42545   1.197   5.083   6.772
 3285POPC   C4A42546   1.034   5.158   7.174
 3285POPC   C1B42547   1.456   5.356   6.298
 3285POPC   C2B42548   1.672   5.292   6.739
 3285POPC   C3B42549   1.552   5.108   7.155
 3285POPC   C4B42550   1.644   5.202   7.595
 3286POPC   NC342551  43.591  17.915   5.538
 3286POPC   PO442552  44.072  17.362   5.417
 3286POPC   GL142553  44.078  17.583   5.817
 3286POPC   GL242554  43.724  17.634   5.948
 3286POPC   C1A42555  44.110  17.764   6.240
 3286POPC   D2A42556  43.764  17.686   6.499
 3286POPC   C3A42557  43.868  17.701   6.911
 3286POPC   C4A42558  44.192  17.528   7.164
 3286POPC   C1B42559  43.775  17.240   6.172
 3286POPC   C2B42560  43.774  17.099   6.592
 3286POPC   C3B42561  43.765  17.208   7.031
 3286POPC   C4B42562  43.372  17.266   7.222
 3287POPC   NC342563  12.771  35.952   5.448
 3287POPC   PO442564  13.069  36.444   5.187
 3287POPC   GL142565  12.931  36.438   5.681
 3287POPC   GL242566  12.565  36.336   5.739
 3287POPC   C1A42567  12.864  36.286   6.160
 3287POPC   D2A42568  12.584  36.223   6.552
 3287POPC   C3A42569  12.702  36.000   6.974
 3287POPC   C4A42570  13.016  35.964   7.300
 3287POPC   C1B42571  12.443  36.564   6.145
 3287POPC   C2B42572  12.620  36.731   6.570
 3287POPC   C3B42573  12.824  36.489   6.900
 3287POPC   C4B42574  12.687  36.385   7.330
 3288POPC   NC342575  35.740  34.024   5.386
 3288POPC   PO442576  36.418  33.976   5.479
 3288POPC   GL142577  36.224  33.719   5.804
 3288POPC   GL242578  35.876  33.598   5.750
 3288POPC   C1A42579  36.281  33.638   6.242
 3288POPC   D2A42580  36.462  33.822   6.610
 3288POPC   C3A42581  36.290  33.659   6.999
 3288POPC   C4A42582  36.065  33.543   7.375
 3288POPC   C1B42583  35.738  33.622   6.202
 3288POPC   C2B42584  35.901  33.672   6.611
 3288POPC   C3B42585  35.743  33.756   7.010
 3288POPC   C4B42586  35.763  33.935   7.427
 3289POPC   NC342587  24.526   3.221   5.469
 3289POPC   PO442588  24.370   3.918   5.326
 3289POPC   GL142589  24.385   3.659   5.674
 3289POPC   GL242590  24.706   3.626   5.753
 3289POPC   C1A42591  24.326   3.641   6.113
 3289POPC   D2A42592  24.305   3.462   6.511
 3289POPC   C3A42593  24.392   3.630   6.889
 3289POPC   C4A42594  24.421   3.434   7.295
 3289POPC   C1B42595  24.763   3.378   6.168
 3289POPC   C2B42596  24.816   3.481   6.611
 3289POPC   C3B42597  24.812   3.275   6.998
 3289POPC   C4B42598  25.079   2.984   7.216
 3290POPC   NC342599  33.327  38.325   5.451
 3290POPC   PO442600  33.220  38.975   5.301
 3290POPC   GL142601  33.166  38.765   5.705
 3290POPC   GL242602  32.840  38.616   5.718
 3290POPC   C1A42603  33.174  38.580   6.133
 3290POPC   D2A42604  33.064  38.475   6.559
 3290POPC   C3A42605  33.390  38.334   6.839
 3290POPC   C4A42606  33.272  38.218   7.233
 3290POPC   C1B42607  32.618  38.418   6.084
 3290POPC   C2B42608  32.440  38.291   6.496
 3290POPC   C3B42609  32.684  38.315   6.898
 3290POPC   C4B42610  32.993  38.644   7.050
 3291POPC   NC342611  20.129  13.360   5.380
 3291POPC   PO442612  20.756  13.533   5.185
 3291POPC   GL142613  20.538  13.556   5.672
 3291POPC   GL242614  20.250  13.739   5.832
 3291POPC   C1A42615  20.523  13.552   6.196
 3291POPC   D2A42616  20.417  13.715   6.639
 3291POPC   C3A42617  20.681  13.703   7.047
 3291POPC   C4A42618  20.865  13.895   7.420
 3291POPC   C1B42619  20.221  14.014   6.232
 3291POPC   C2B42620  20.238  14.198   6.660
 3291POPC   C3B42621  20.305  14.066   7.081
 3291POPC   C4B42622  20.427  14.215   7.467
 3292POPC   NC342623  42.524   0.713   5.518
 3292POPC   PO442624  41.927   1.063   5.508
 3292POPC   GL142625  42.107   1.205   5.873
 3292POPC   GL242626  42.450   1.127   5.822
 3292POPC   C1A42627  42.042   1.257   6.329
 3292POPC   D2A42628  41.983   1.375   6.764
 3292POPC   C3A42629  42.334   1.301   7.030
 3292POPC   C4A42630  42.341   1.162   7.442
 3292POPC   C1B42631  42.688   1.068   6.223
 3292POPC   C2B42632  42.559   1.001   6.680
 3292POPC   C3B42633  42.654   0.853   7.149
 3292POPC   C4B42634  42.523   0.736   7.628
 3293POPC   NC342635   5.879  27.190   5.242
 3293POPC   PO442636   6.210  27.675   5.460
 3293POPC   GL142637   5.949  27.482   5.748
 3293POPC   GL242638   5.698  27.667   5.850
 3293POPC   C1A42639   5.954  27.425   6.204
 3293POPC   D2A42640   6.197  27.444   6.592
 3293POPC   C3A42641   6.147  27.781   6.890
 3293POPC   C4A42642   6.171  27.574   7.259
 3293POPC   C1B42643   5.463  27.630   6.245
 3293POPC   C2B42644   5.709  27.637   6.635
 3293POPC   C3B42645   5.728  27.424   7.046
 3293POPC   C4B42646   5.758  27.458   7.525
 3294POPC   NC342647  19.220  39.631   5.594
 3294POPC   PO442648  18.922  39.031   5.517
 3294POPC   GL142649  18.911  39.324   5.869
 3294POPC   GL242650  19.247  39.219   5.887
 3294POPC   C1A42651  19.093  39.538   6.260
 3294POPC   D2A42652  19.087  39.282   6.629
 3294POPC   C3A42653  18.974  39.402   7.033
 3294POPC   C4A42654  18.773  39.133   7.357
 3294POPC   C1B42655  19.130  38.947   6.198
 3294POPC   C2B42656  19.215  38.792   6.589
 3294POPC   C3B42657  19.050  38.872   6.999
 3294POPC   C4B42658  19.233  38.875   7.397
 3295POPC   NC342659  14.866  23.450   5.517
 3295POPC   PO442660  15.429  23.709   5.418
 3295POPC   GL142661  15.234  23.839   5.799
 3295POPC   GL242662  14.880  23.758   5.929
 3295POPC   C1A42663  15.387  23.887   6.213
 3295POPC   D2A42664  15.204  23.880   6.624
 3295POPC   C3A42665  15.425  23.903   7.004
 3295POPC   C4A42666  15.040  23.863   7.220
 3295POPC   C1B42667  15.160  23.423   6.113
 3295POPC   C2B42668  15.305  23.363   6.523
 3295POPC   C3B42669  15.181  23.417   6.931
 3295POPC   C4B42670  14.968  23.380   7.321
 3296POPC   NC342671   6.607  41.307   5.178
 3296POPC   PO442672   6.380  40.711   5.324
 3296POPC   GL142673   6.609  40.727   5.725
 3296POPC   GL242674   6.287  40.678   5.869
 3296POPC   C1A42675   6.712  40.835   6.172
 3296POPC   D2A42676   6.515  40.753   6.601
 3296POPC   C3A42677   6.728  40.777   6.993
 3296POPC   C4A42678   6.717  40.832   7.438
 3296POPC   C1B42679   6.416  40.423   6.222
 3296POPC   C2B42680   6.548  40.128   6.502
 3296POPC   C3B42681   6.502  40.272   6.904
 3296POPC   C4B42682   6.492  40.372   7.336
 3297POPC   NC342683  24.584  38.100   5.369
 3297POPC   PO442684  24.697  38.692   5.364
 3297POPC   GL142685  24.505  38.543   5.772
 3297POPC   GL242686  24.230  38.289   5.795
 3297POPC   C1A42687  24.632  38.468   6.208
 3297POPC   D2A42688  24.831  38.296   6.581
 3297POPC   C3A42689  24.657  38.190   6.969
 3297POPC   C4A42690  24.747  38.391   7.370
 3297POPC   C1B42691  24.145  38.544   6.203
 3297POPC   C2B42692  24.275  38.740   6.581
 3297POPC   C3B42693  24.431  38.658   7.002
 3297POPC   C4B42694  24.292  38.633   7.439
 3298POPC   NC342695  42.149  37.706   5.382
 3298POPC   PO442696  42.791  37.493   5.427
 3298POPC   GL142697  42.548  37.747   5.738
 3298POPC   GL242698  42.243  37.961   5.803
 3298POPC   C1A42699  42.564  37.777   6.179
 3298POPC   D2A42700  42.538  37.453   6.491
 3298POPC   C3A42701  42.491  37.396   6.923
 3298POPC   C4A42702  42.601  37.540   7.357
 3298POPC   C1B42703  42.142  38.064   6.225
 3298POPC   C2B42704  42.207  37.831   6.595
 3298POPC   C3B42705  42.354  37.874   7.001
 3298POPC   C4B42706  42.167  37.809   7.410
 3299POPC   NC342707   7.114  29.556   5.485
 3299POPC   PO442708   7.292  28.951   5.405
 3299POPC   GL142709   7.466  29.207   5.756
 3299POPC   GL242710   7.230  29.402   5.947
 3299POPC   C1A42711   7.573  29.178   6.228
 3299POPC   D2A42712   7.329  29.394   6.541
 3299POPC   C3A42713   7.341  29.361   7.012
 3299POPC   C4A42714   7.654  29.117   7.223
 3299POPC   C1B42715   7.153  28.934   6.051
 3299POPC   C2B42716   7.193  28.829   6.465
 3299POPC   C3B42717   7.319  28.875   6.872
 3299POPC   C4B42718   7.261  28.697   7.249
 3300POPC   NC342719  16.817  33.552   5.372
 3300POPC   PO442720  16.601  34.248   5.611
 3300POPC   GL142721  16.588  33.820   5.765
 3300POPC   GL242722  16.915  33.662   5.836
 3300POPC   C1A42723  16.567  33.770   6.198
 3300POPC   D2A42724  16.677  34.053   6.554
 3300POPC   C3A42725  16.461  33.995   6.938
 3300POPC   C4A42726  16.546  33.622   7.112
 3300POPC   C1B42727  17.057  33.950   6.124
 3300POPC   C2B42728  17.199  33.836   6.523
 3300POPC   C3B42729  16.995  33.795   6.902
 3300POPC   C4B42730  17.161  33.941   7.262
 3301POPC   NC342731   3.716   3.621   5.342
 3301POPC   PO442732   3.722   2.975   5.413
 3301POPC   GL142733   3.478   3.314   5.723
 3301POPC   GL242734   3.302   3.673   5.673
 3301POPC   C1A42735   3.372   3.357   6.200
 3301POPC   D2A42736   3.554   3.255   6.627
 3301POPC   C3A42737   3.336   3.370   7.028
 3301POPC   C4A42738   3.222   3.143   7.378
 3301POPC   C1B42739   3.570   3.796   6.043
 3301POPC   C2B42740   3.633   3.761   6.494
 3301POPC   C3B42741   3.734   3.664   6.927
 3301POPC   C4B42742   3.507   3.853   7.280
 3302POPC   NC342743  17.932   8.801   5.277
 3302POPC   PO442744  18.382   9.304   5.322
 3302POPC   GL142745  18.206   9.020   5.647
 3302POPC   GL242746  17.908   9.189   5.622
 3302POPC   C1A42747  18.256   8.892   6.098
 3302POPC   D2A42748  18.350   8.616   6.461
 3302POPC   C3A42749  18.365   8.829   6.874
 3302POPC   C4A42750  18.561   8.882   7.294
 3302POPC   C1B42751  18.142   9.402   5.966
 3302POPC   C2B42752  18.182   9.343   6.423
 3302POPC   C3B42753  18.024   9.299   6.854
 3302POPC   C4B42754  18.095   9.092   7.225
 3303POPC   NC342755  21.438  20.787   5.395
 3303POPC   PO442756  22.013  20.373   5.215
 3303POPC   GL142757  21.783  20.329   5.661
 3303POPC   GL242758  21.419  20.463   5.783
 3303POPC   C1A42759  21.769  20.341   6.133
 3303POPC   D2A42760  21.498  20.441   6.465
 3303POPC   C3A42761  21.589  20.266   6.860
 3303POPC   C4A42762  21.383  20.513   7.176
 3303POPC   C1B42763  21.552  20.815   6.078
 3303POPC   C2B42764  21.850  20.822   6.430
 3303POPC   C3B42765  21.707  20.778   6.860
 3303POPC   C4B42766  21.650  20.918   7.318
 3304POPC   NC342767   1.651  37.427   5.434
 3304POPC   PO442768   2.029  37.853   5.477
 3304POPC   GL142769   2.030  37.600   5.839
 3304POPC   GL242770   1.694  37.742   5.858
 3304POPC   C1A42771   2.168  37.518   6.301
 3304POPC   D2A42772   2.179  37.358   6.737
 3304POPC   C3A42773   2.291  37.396   7.207
 3304POPC   C4A42774   2.019  37.515   7.582
 3304POPC   C1B42775   1.650  37.539   6.229
 3304POPC   C2B42776   1.767  37.729   6.617
 3304POPC   C3B42777   1.924  37.768   7.040
 3304POPC   C4B42778   1.686  37.897   7.400
 3305POPC   NC342779  25.168  38.769   5.374
 3305POPC   PO442780  25.069  38.120   5.312
 3305POPC   GL142781  25.021  38.379   5.702
 3305POPC   GL242782  25.340  38.586   5.829
 3305POPC   C1A42783  25.095  38.260   6.138
 3305POPC   D2A42784  25.328  38.445   6.473
 3305POPC   C3A42785  25.568  38.335   6.832
 3305POPC   C4A42786  25.390  38.499   7.215
 3305POPC   C1B42787  25.531  38.822   6.190
 3305POPC   C2B42788  25.430  38.919   6.650
 3305POPC   C3B42789  25.422  39.014   7.111
 3305POPC   C4B42790  25.665  38.824   7.503
 3306POPC   NC342791  16.571  44.610   5.179
 3306POPC   PO442792  17.012   0.080   5.222
 3306POPC   GL142793  16.812  44.872   5.594
 3306POPC   GL242794  16.921   0.097   5.826
 3306POPC   C1A42795  16.714  44.660   6.035
 3306POPC   D2A42796  16.777  44.617   6.505
 3306POPC   C3A42797  16.532  44.636   6.897
 3306POPC   C4A42798  16.324  44.960   7.147
 3306POPC   C1B42799  16.970   0.051   6.274
 3306POPC   C2B42800  17.021   0.026   6.717
 3306POPC   C3B42801  16.850  44.965   7.119
 3306POPC   C4B42802  16.831  44.919   7.595
 3307POPC   NC342803   4.010   2.601   5.444
 3307POPC   PO442804   4.595   2.855   5.528
 3307POPC   GL142805   4.357   2.834   5.925
 3307POPC   GL242806   4.092   2.581   5.940
 3307POPC   C1A42807   4.325   2.732   6.388
 3307POPC   D2A42808   4.124   2.963   6.739
 3307POPC   C3A42809   4.326   3.036   7.143
 3307POPC   C4A42810   4.400   2.716   7.393
 3307POPC   C1B42811   3.979   2.351   6.308
 3307POPC   C2B42812   4.086   2.434   6.738
 3307POPC   C3B42813   3.979   2.633   7.123
 3307POPC   C4B42814   3.969   2.483   7.558
 3308POPC   NC342815   8.851   4.058   5.403
 3308POPC   PO442816   8.751   4.696   5.478
 3308POPC   GL142817   8.967   4.426   5.775
 3308POPC   GL242818   9.199   4.155   5.771
 3308POPC   C1A42819   9.091   4.470   6.221
 3308POPC   D2A42820   9.128   4.667   6.660
 3308POPC   C3A42821   8.912   4.518   7.057
 3308POPC   C4A42822   8.528   4.310   7.209
 3308POPC   C1B42823   9.121   3.945   6.192
 3308POPC   C2B42824   9.009   4.029   6.651
 3308POPC   C3B42825   8.975   4.009   7.113
 3308POPC   C4B42826   9.248   4.205   7.372
 3309POPC   NC342827  21.066   8.308   5.399
 3309POPC   PO442828  20.524   7.921   5.219
 3309POPC   GL142829  20.572   8.210   5.626
 3309POPC   GL242830  20.810   8.050   5.869
 3309POPC   C1A42831  20.481   8.340   6.110
 3309POPC   D2A42832  20.678   8.291   6.530
 3309POPC   C3A42833  20.519   8.516   6.891
 3309POPC   C4A42834  20.516   8.373   7.301
 3309POPC   C1B42835  20.562   7.855   6.230
 3309POPC   C2B42836  20.395   7.891   6.669
 3309POPC   C3B42837  20.535   7.923   7.072
 3309POPC   C4B42838  20.458   7.930   7.548
 3310POPC   NC342839  26.160   3.476   5.293
 3310POPC   PO442840  25.588   3.701   5.377
 3310POPC   GL142841  25.903   3.515   5.762
 3310POPC   GL242842  26.299   3.487   5.794
 3310POPC   C1A42843  26.016   3.286   6.184
 3310POPC   D2A42844  25.987   3.469   6.620
 3310POPC   C3A42845  25.889   3.358   7.068
 3310POPC   C4A42846  25.672   3.575   7.396
 3310POPC   C1B42847  26.361   3.679   6.234
 3310POPC   C2B42848  26.303   3.894   6.646
 3310POPC   C3B42849  26.213   3.838   7.095
 3310POPC   C4B42850  26.254   4.033   7.514
 3311POPC   NC342851   3.033  16.416   5.359
 3311POPC   PO442852   2.688  16.960   5.201
 3311POPC   GL142853   2.683  16.740   5.613
 3311POPC   GL242854   2.409  16.496   5.711
 3311POPC   C1A42855   2.922  16.803   5.988
 3311POPC   D2A42856   2.947  16.951   6.416
 3311POPC   C3A42857   2.860  16.665   6.756
 3311POPC   C4A42858   2.733  16.773   7.154
 3311POPC   C1B42859   2.408  16.772   6.109
 3311POPC   C2B42860   2.388  16.867   6.583
 3311POPC   C3B42861   2.302  16.998   7.021
 3311POPC   C4B42862   2.367  16.878   7.492
 3312POPC   NC342863  12.991  28.528   5.379
 3312POPC   PO442864  12.477  28.169   5.483
 3312POPC   GL142865  12.783  28.337   5.804
 3312POPC   GL242866  13.125  28.176   5.745
 3312POPC   C1A42867  12.886  28.280   6.253
 3312POPC   D2A42868  12.734  28.115   6.653
 3312POPC   C3A42869  12.685  28.419   6.991
 3312POPC   C4A42870  13.025  28.711   7.134
 3312POPC   C1B42871  13.205  27.917   6.106
 3312POPC   C2B42872  13.261  28.060   6.552
 3312POPC   C3B42873  13.130  28.163   6.988
 3312POPC   C4B42874  13.233  28.308   7.421
 3313POPC   NC342875  22.443  39.989   5.394
 3313POPC   PO442876  21.790  40.152   5.386
 3313POPC   GL142877  22.114  40.148   5.769
 3313POPC   GL242878  22.239  39.796   5.817
 3313POPC   C1A42879  22.262  40.118   6.245
 3313POPC   D2A42880  22.467  39.965   6.648
 3313POPC   C3A42881  22.327  39.954   7.123
 3313POPC   C4A42882  22.521  39.817   7.561
 3313POPC   C1B42883  21.885  39.788   6.118
 3313POPC   C2B42884  21.822  40.004   6.516
 3313POPC   C3B42885  21.713  40.154   6.922
 3313POPC   C4B42886  21.752  40.108   7.342
 3314POPC   NC342887  24.556  43.481   5.445
 3314POPC   PO442888  24.556  42.871   5.352
 3314POPC   GL142889  24.450  42.897   5.790
 3314POPC   GL242890  24.327  43.209   5.914
 3314POPC   C1A42891  24.361  42.815   6.239
 3314POPC   D2A42892  24.198  42.729   6.644
 3314POPC   C3A42893  24.336  42.943   6.966
 3314POPC   C4A42894  24.716  42.888   7.135
 3314POPC   C1B42895  24.465  43.388   6.313
 3314POPC   C2B42896  24.464  43.403   6.770
 3314POPC   C3B42897  24.533  43.506   7.204
 3314POPC   C4B42898  24.906  43.510   7.468
 3315POPC   NC342899   0.005   5.581   5.544
 3315POPC   PO442900   0.457   5.137   5.203
 3315POPC   GL142901   0.286   4.988   5.610
 3315POPC   GL242902   0.023   4.740   5.681
 3315POPC   C1A42903   0.379   5.058   6.064
 3315POPC   D2A42904   0.422   5.354   6.432
 3315POPC   C3A42905   0.639   5.188   6.795
 3315POPC   C4A42906   0.519   5.136   7.202
 3315POPC   C1B42907   0.001   4.719   6.139
 3315POPC   C2B42908   0.240   4.813   6.519
 3315POPC   C3B42909   0.356   4.684   6.941
 3315POPC   C4B42910   0.252   4.686   7.369
 3316POPC   NC342911  16.545  23.756   5.410
 3316POPC   PO442912  17.200  23.421   5.382
 3316POPC   GL142913  17.050  23.522   5.837
 3316POPC   GL242914  16.729  23.722   5.905
 3316POPC   C1A42915  16.948  23.503   6.327
 3316POPC   D2A42916  16.697  23.549   6.720
 3316POPC   C3A42917  16.782  23.800   7.113
 3316POPC   C4A42918  16.868  23.600   7.501
 3316POPC   C1B42919  16.443  23.512   6.250
 3316POPC   C2B42920  16.187  23.493   6.643
 3316POPC   C3B42921  16.320  23.552   7.091
 3316POPC   C4B42922  16.371  23.694   7.524
 3317POPC   NC342923  39.020   1.794   5.296
 3317POPC   PO442924  39.457   2.169   5.589
 3317POPC   GL142925  39.236   2.064   5.935
 3317POPC   GL242926  39.161   1.742   5.820
 3317POPC   C1A42927  39.355   1.806   6.294
 3317POPC   D2A42928  39.473   1.753   6.713
 3317POPC   C3A42929  39.376   2.076   6.994
 3317POPC   C4A42930  39.513   2.190   7.377
 3317POPC   C1B42931  38.927   1.534   6.149
 3317POPC   C2B42932  38.750   1.496   6.572
 3317POPC   C3B42933  38.943   1.784   6.869
 3317POPC   C4B42934  38.992   1.923   7.294
 3318POPC   NC342935  26.404  11.376   5.277
 3318POPC   PO442936  26.977  11.259   5.175
 3318POPC   GL142937  26.977  11.477   5.602
 3318POPC   GL242938  26.652  11.404   5.725
 3318POPC   C1A42939  27.003  11.491   6.090
 3318POPC   D2A42940  26.921  11.217   6.467
 3318POPC   C3A42941  26.982  11.359   6.868
 3318POPC   C4A42942  26.918  11.204   7.266
 3318POPC   C1B42943  26.535  11.244   6.126
 3318POPC   C2B42944  26.421  11.406   6.531
 3318POPC   C3B42945  26.478  11.262   6.945
 3318POPC   C4B42946  26.490  11.465   7.324
 3319POPC   NC342947   1.207  38.207   4.876
 3319POPC   PO442948   0.986  38.484   5.458
 3319POPC   GL142949   1.016  38.298   5.862
 3319POPC   GL242950   1.342  38.362   5.836
 3319POPC   C1A42951   1.078  38.341   6.300
 3319POPC   D2A42952   1.257  38.336   6.699
 3319POPC   C3A42953   1.033  38.420   7.083
 3319POPC   C4A42954   1.030  38.836   7.291
 3319POPC   C1B42955   1.594  38.265   6.195
 3319POPC   C2B42956   1.774  38.292   6.599
 3319POPC   C3B42957   1.633  38.242   7.030
 3319POPC   C4B42958   1.434  38.434   7.386
 3320POPC   NC342959  39.596  24.979   5.430
 3320POPC   PO442960  40.098  25.470   5.212
 3320POPC   GL142961  40.006  25.306   5.653
 3320POPC   GL242962  40.290  25.125   5.803
 3320POPC   C1A42963  39.898  25.217   6.106
 3320POPC   D2A42964  40.077  25.320   6.509
 3320POPC   C3A42965  40.002  25.205   6.948
 3320POPC   C4A42966  39.664  25.469   7.090
 3320POPC   C1B42967  40.359  24.974   6.243
 3320POPC   C2B42968  40.238  24.816   6.647
 3320POPC   C3B42969  40.389  24.856   7.066
 3320POPC   C4B42970  40.271  24.802   7.503
 3321POPC   NC342971  37.162   3.644   5.315
 3321POPC   PO442972  36.503   3.726   5.454
 3321POPC   GL142973  36.807   3.535   5.747
 3321POPC   GL242974  37.174   3.471   5.801
 3321POPC   C1A42975  36.679   3.403   6.149
 3321POPC   D2A42976  36.679   3.660   6.523
 3321POPC   C3A42977  36.767   3.420   6.900
 3321POPC   C4A42978  36.481   3.476   7.202
 3321POPC   C1B42979  37.057   3.752   6.135
 3321POPC   C2B42980  37.163   3.760   6.554
 3321POPC   C3B42981  36.942   3.897   6.926
 3321POPC   C4B42982  37.192   3.964   7.243
 3322POPC   NC342983   4.234  20.996   5.434
 3322POPC   PO442984   4.578  20.496   5.513
 3322POPC   GL142985   4.393  20.702   5.872
 3322POPC   GL242986   4.032  20.774   5.854
 3322POPC   C1A42987   4.205  20.485   6.244
 3322POPC   D2A42988   4.126  20.235   6.589
 3322POPC   C3A42989   4.128  20.487   6.961
 3322POPC   C4A42990   4.095  20.475   7.387
 3322POPC   C1B42991   4.125  20.992   6.226
 3322POPC   C2B42992   4.144  20.864   6.635
 3322POPC   C3B42993   4.257  21.030   7.056
 3322POPC   C4B42994   4.361  20.892   7.475
 3323POPC   NC342995   5.080  34.304   5.643
 3323POPC   PO442996   5.126  34.967   5.467
 3323POPC   GL142997   4.925  34.742   5.820
 3323POPC   GL242998   5.267  34.657   5.938
 3323POPC   C1A42999   4.769  34.496   6.217
 3323POPC   D2A43000   4.914  34.327   6.645
 3323POPC   C3A43001   4.851  34.541   7.050
 3323POPC   C4A43002   5.137  34.799   7.348
 3323POPC   C1B43003   5.279  34.385   6.286
 3323POPC   C2B43004   5.419  34.251   6.678
 3323POPC   C3B43005   5.372  34.405   7.112
 3323POPC   C4B43006   5.481  34.467   7.572
 3324POPC   NC343007  20.714  33.707   5.356
 3324POPC   PO443008  20.088  33.877   5.288
 3324POPC   GL143009  20.324  33.779   5.735
 3324POPC   GL243010  20.673  33.586   5.846
 3324POPC   C1A43011  20.447  33.850   6.202
 3324POPC   D2A43012  20.295  33.682   6.598
 3324POPC   C3A43013  20.396  33.958   6.910
 3324POPC   C4A43014  20.663  33.908   7.258
 3324POPC   C1B43015  20.874  33.485   6.284
 3324POPC   C2B43016  20.913  33.579   6.754
 3324POPC   C3B43017  20.947  33.495   7.215
 3324POPC   C4B43018  20.994  33.652   7.672
 3325POPC   NC343019  23.458   5.714   5.437
 3325POPC   PO443020  24.015   6.119   5.439
 3325POPC   GL143021  23.799   6.023   5.823
 3325POPC   GL243022  23.664   5.714   5.885
 3325POPC   C1A43023  23.956   5.883   6.268
 3325POPC   D2A43024  24.118   5.894   6.713
 3325POPC   C3A43025  23.843   6.069   7.062
 3325POPC   C4A43026  23.467   6.054   7.358
 3325POPC   C1B43027  23.448   5.743   6.251
 3325POPC   C2B43028  23.589   5.890   6.654
 3325POPC   C3B43029  23.497   5.674   7.009
 3325POPC   C4B43030  23.176   5.646   7.276
 3326POPC   NC343031  22.538  42.509   5.493
 3326POPC   PO443032  21.867  42.566   5.454
 3326POPC   GL143033  22.045  42.213   5.719
 3326POPC   GL243034  22.384  42.247   5.916
 3326POPC   C1A43035  21.894  42.039   6.116
 3326POPC   D2A43036  21.981  41.930   6.550
 3326POPC   C3A43037  21.825  42.104   6.913
 3326POPC   C4A43038  22.033  42.480   7.092
 3326POPC   C1B43039  22.491  42.657   6.145
 3326POPC   C2B43040  22.530  42.879   6.559
 3326POPC   C3B43041  22.496  42.732   6.977
 3326POPC   C4B43042  22.435  42.631   7.394
 3327POPC   NC343043   4.692  30.246   5.652
 3327POPC   PO443044   5.235  30.119   5.318
 3327POPC   GL143045   5.147  29.918   5.725
 3327POPC   GL243046   4.853  29.729   5.849
 3327POPC   C1A43047   5.321  29.789   6.120
 3327POPC   D2A43048   5.236  29.809   6.560
 3327POPC   C3A43049   5.473  29.536   6.834
 3327POPC   C4A43050   5.259  29.691   7.173
 3327POPC   C1B43051   4.844  29.964   6.250
 3327POPC   C2B43052   4.764  30.033   6.702
 3327POPC   C3B43053   4.820  29.979   7.148
 3327POPC   C4B43054   4.856  29.635   7.462
 3328POPC   NC343055  43.403  42.503   5.444
 3328POPC   PO443056  42.959  43.084   5.489
 3328POPC   GL143057  43.121  43.148   5.872
 3328POPC   GL243058  43.406  42.936   5.735
 3328POPC   C1A43059  42.971  43.233   6.309
 3328POPC   D2A43060  42.747  42.951   6.643
 3328POPC   C3A43061  42.920  42.966   7.059
 3328POPC   C4A43062  43.009  43.356   7.231
 3328POPC   C1B43063  43.499  42.976   6.172
 3328POPC   C2B43064  43.316  42.974   6.565
 3328POPC   C3B43065  43.384  43.185   6.907
 3328POPC   C4B43066  43.407  43.048   7.294
 3329POPC   NC343067  28.688   8.751   5.271
 3329POPC   PO443068  28.172   9.134   5.185
 3329POPC   GL143069  28.171   9.053   5.647
 3329POPC   GL243070  28.330   8.757   5.801
 3329POPC   C1A43071  28.152   9.180   6.080
 3329POPC   D2A43072  28.315   8.985   6.458
 3329POPC   C3A43073  28.156   9.160   6.839
 3329POPC   C4A43074  28.287   9.118   7.251
 3329POPC   C1B43075  28.650   8.711   6.148
 3329POPC   C2B43076  28.776   8.648   6.562
 3329POPC   C3B43077  28.530   8.732   6.894
 3329POPC   C4B43078  28.687   8.773   7.264
 3330POPC   NC343079  43.858  20.829   5.426
 3330POPC   PO443080  43.653  20.170   5.354
 3330POPC   GL143081  43.803  20.414   5.772
 3330POPC   GL243082  43.969  20.744   5.906
 3330POPC   C1A43083  43.708  20.450   6.220
 3330POPC   D2A43084  43.878  20.302   6.600
 3330POPC   C3A43085  43.717  20.361   7.007
 3330POPC   C4A43086  43.839  20.217   7.373
 3330POPC   C1B43087  43.586  20.936   6.166
 3330POPC   C2B43088  43.436  20.902   6.613
 3330POPC   C3B43089  43.606  20.896   7.053
 3330POPC   C4B43090  43.987  20.731   7.280
 3331POPC   NC343091   3.468  28.085   5.468
 3331POPC   PO443092   3.102  28.750   5.405
 3331POPC   GL143093   3.284  28.522   5.778
 3331POPC   GL243094   3.638  28.437   5.816
 3331POPC   C1A43095   3.312  28.287   6.192
 3331POPC   D2A43096   3.326  27.924   6.489
 3331POPC   C3A43097   3.367  28.027   6.934
 3331POPC   C4A43098   3.409  28.392   7.171
 3331POPC   C1B43099   3.811  28.375   6.229
 3331POPC   C2B43100   3.696  28.473   6.657
 3331POPC   C3B43101   3.871  28.280   7.011
 3331POPC   C4B43102   3.885  28.344   7.421
 3332POPC   NC343103  21.601  42.166   5.417
 3332POPC   PO443104  21.162  42.816   5.356
 3332POPC   GL143105  21.333  42.570   5.679
 3332POPC   GL243106  21.191  42.229   5.719
 3332POPC   C1A43107  21.547  42.481   6.060
 3332POPC   D2A43108  21.588  42.309   6.467
 3332POPC   C3A43109  21.581  42.551   6.829
 3332POPC   C4A43110  21.549  42.388   7.236
 3332POPC   C1B43111  21.211  42.100   6.156
 3332POPC   C2B43112  21.077  42.166   6.584
 3332POPC   C3B43113  21.240  42.021   6.998
 3332POPC   C4B43114  21.182  42.063   7.446
 3333POPC   NC343115   6.351  30.801   5.436
 3333POPC   PO443116   7.027  30.627   5.215
 3333POPC   GL143117   6.820  30.649   5.696
 3333POPC   GL243118   6.519  30.645   5.882
 3333POPC   C1A43119   6.825  30.840   6.192
 3333POPC   D2A43120   6.720  30.531   6.545
 3333POPC   C3A43121   6.500  30.677   6.912
 3333POPC   C4A43122   6.553  30.994   7.213
 3333POPC   C1B43123   6.264  30.539   6.272
 3333POPC   C2B43124   6.017  30.285   6.564
 3333POPC   C3B43125   6.098  30.334   6.996
 3333POPC   C4B43126   6.192  30.605   7.361
 3334POPC   NC343127   7.191  17.716   5.288
 3334POPC   PO443128   7.348  17.141   5.089
 3334POPC   GL143129   7.391  17.337   5.576
 3334POPC   GL243130   7.593  17.659   5.674
 3334POPC   C1A43131   7.271  17.503   6.041
 3334POPC   D2A43132   7.329  17.650   6.508
 3334POPC   C3A43133   7.190  17.581   6.952
 3334POPC   C4A43134   7.371  17.593   7.393
 3334POPC   C1B43135   7.733  17.704   6.136
 3334POPC   C2B43136   7.830  17.591   6.555
 3334POPC   C3B43137   7.725  17.624   6.988
 3334POPC   C4B43138   7.852  17.806   7.352
 3335POPC   NC343139  17.303   2.973   5.603
 3335POPC   PO443140  17.752   2.522   5.461
 3335POPC   GL143141  17.712   2.779   5.851
 3335POPC   GL243142  17.358   2.731   6.035
 3335POPC   C1A43143  17.768   2.884   6.292
 3335POPC   D2A43144  17.402   2.860   6.576
 3335POPC   C3A43145  17.466   2.771   7.012
 3335POPC   C4A43146  17.804   2.661   7.252
 3335POPC   C1B43147  17.026   3.016   6.245
 3335POPC   C2B43148  16.843   3.051   6.683
 3335POPC   C3B43149  17.021   2.998   7.116
 3335POPC   C4B43150  17.387   3.081   7.429
 3336POPC   NC343151   5.320  32.969   5.485
 3336POPC   PO443152   5.802  33.461   5.437
 3336POPC   GL143153   5.784  33.051   5.714
 3336POPC   GL243154   5.973  32.717   5.764
 3336POPC   C1A43155   5.636  32.871   6.113
 3336POPC   D2A43156   5.759  33.063   6.477
 3336POPC   C3A43157   5.646  33.036   6.890
 3336POPC   C4A43158   5.745  33.214   7.296
 3336POPC   C1B43159   6.183  32.885   6.167
 3336POPC   C2B43160   6.243  33.107   6.567
 3336POPC   C3B43161   6.129  33.043   6.993
 3336POPC   C4B43162   6.065  32.743   7.288
 3337POPC   NC343163  17.059  20.354   5.468
 3337POPC   PO443164  16.755  20.987   5.529
 3337POPC   GL143165  16.777  20.658   5.864
 3337POPC   GL243166  16.923  20.342   5.938
 3337POPC   C1A43167  16.687  20.550   6.314
 3337POPC   D2A43168  16.543  20.749   6.649
 3337POPC   C3A43169  16.691  20.675   7.023
 3337POPC   C4A43170  16.409  20.794   7.353
 3337POPC   C1B43171  17.090  20.177   6.311
 3337POPC   C2B43172  16.939  20.240   6.729
 3337POPC   C3B43173  16.626  20.168   7.028
 3337POPC   C4B43174  16.650  20.360   7.432
 3338POPC   NC343175  36.852  37.041   5.213
 3338POPC   PO443176  37.308  36.580   5.437
 3338POPC   GL143177  37.027  36.864   5.670
 3338POPC   GL243178  36.939  36.552   5.798
 3338POPC   C1A43179  36.932  36.948   6.142
 3338POPC   D2A43180  37.180  36.855   6.545
 3338POPC   C3A43181  36.977  36.938   6.954
 3338POPC   C4A43182  36.602  36.765   7.171
 3338POPC   C1B43183  36.862  36.454   6.199
 3338POPC   C2B43184  37.020  36.287   6.543
 3338POPC   C3B43185  36.906  36.443   6.893
 3338POPC   C4B43186  37.096  36.465   7.243
 3339POPC   NC343187  39.178   2.562   5.520
 3339POPC   PO443188  39.567   3.031   5.364
 3339POPC   GL143189  39.414   2.949   5.810
 3339POPC   GL243190  39.075   2.855   5.923
 3339POPC   C1A43191  39.339   3.094   6.267
 3339POPC   D2A43192  39.452   3.001   6.706
 3339POPC   C3A43193  39.382   2.635   6.960
 3339POPC   C4A43194  39.425   2.748   7.413
 3339POPC   C1B43195  39.307   2.552   6.195
 3339POPC   C2B43196  39.139   2.241   6.503
 3339POPC   C3B43197  38.931   2.301   6.887
 3339POPC   C4B43198  39.024   2.439   7.295
 3340POPC   NC343199  10.210  42.188   5.519
 3340POPC   PO443200  10.621  42.613   5.147
 3340POPC   GL143201  10.585  42.539   5.663
 3340POPC   GL243202  10.477  42.298   5.920
 3340POPC   C1A43203  10.813  42.653   6.067
 3340POPC   D2A43204  10.937  42.606   6.525
 3340POPC   C3A43205  10.819  42.210   6.784
 3340POPC   C4A43206  10.651  42.021   7.174
 3340POPC   C1B43207  10.355  42.572   6.253
 3340POPC   C2B43208  10.358  42.367   6.653
 3340POPC   C3B43209  10.368  42.452   7.076
 3340POPC   C4B43210  10.324  42.296   7.513
 3341POPC   NC343211  34.273  31.949   5.496
 3341POPC   PO443212  34.749  32.407   5.379
 3341POPC   GL143213  34.642  32.326   5.777
 3341POPC   GL243214  34.729  31.963   5.799
 3341POPC   C1A43215  34.483  32.543   6.139
 3341POPC   D2A43216  34.686  32.390   6.517
 3341POPC   C3A43217  34.502  32.338   6.920
 3341POPC   C4A43218  34.517  32.503   7.315
 3341POPC   C1B43219  34.438  32.037   6.185
 3341POPC   C2B43220  34.233  32.042   6.611
 3341POPC   C3B43221  34.346  31.842   7.050
 3341POPC   C4B43222  34.564  31.982   7.473
 3342POPC   NC343223   3.804  32.117   5.447
 3342POPC   PO443224   3.355  32.599   5.364
 3342POPC   GL143225   3.322  32.340   5.779
 3342POPC   GL243226   3.588  32.130   5.908
 3342POPC   C1A43227   3.427  32.505   6.201
 3342POPC   D2A43228   3.671  32.273   6.484
 3342POPC   C3A43229   3.653  32.265   6.906
 3342POPC   C4A43230   3.309  32.180   7.175
 3342POPC   C1B43231   3.919  31.943   6.155
 3342POPC   C2B43232   4.127  32.040   6.558
 3342POPC   C3B43233   4.057  31.912   6.986
 3342POPC   C4B43234   3.876  32.086   7.350
 3343POPC   NC343235   4.021  41.470   5.523
 3343POPC   PO443236   4.602  41.781   5.327
 3343POPC   GL143237   4.447  41.699   5.749
 3343POPC   GL243238   4.380  41.356   5.887
 3343POPC   C1A43239   4.306  41.755   6.190
 3343POPC   D2A43240   4.162  41.845   6.596
 3343POPC   C3A43241   4.340  41.686   7.005
 3343POPC   C4A43242   4.372  41.814   7.451
 3343POPC   C1B43243   4.026  41.272   6.183
 3343POPC   C2B43244   3.890  41.399   6.601
 3343POPC   C3B43245   3.961  41.234   7.015
 3343POPC   C4B43246   4.063  41.410   7.398
 3344POPC   NC343247   3.335   5.131   5.406
 3344POPC   PO443248   3.905   4.838   5.424
 3344POPC   GL143249   3.667   4.968   5.774
 3344POPC   GL243250   3.318   4.861   5.844
 3344POPC   C1A43251   3.711   4.966   6.213
 3344POPC   D2A43252   3.562   5.101   6.602
 3344POPC   C3A43253   3.750   5.262   6.960
 3344POPC   C4A43254   3.847   4.899   7.144
 3344POPC   C1B43255   3.215   5.119   6.205
 3344POPC   C2B43256   3.075   5.112   6.643
 3344POPC   C3B43257   3.225   5.324   7.003
 3344POPC   C4B43258   3.433   5.147   7.362
 3345POPC   NC343259  10.501  28.837   5.523
 3345POPC   PO443260  10.183  29.491   5.464
 3345POPC   GL143261  10.353  29.278   5.783
 3345POPC   GL243262  10.173  29.000   5.905
 3345POPC   C1A43263  10.594  29.295   6.152
 3345POPC   D2A43264  10.723  29.083   6.509
 3345POPC   C3A43265  10.549  29.257   6.867
 3345POPC   C4A43266  10.665  29.200   7.281
 3345POPC   C1B43267  10.443  28.761   6.210
 3345POPC   C2B43268  10.539  28.607   6.637
 3345POPC   C3B43269  10.494  28.758   7.078
 3345POPC   C4B43270  10.184  28.792   7.404
 3346POPC   NC343271  36.623   1.552   5.474
 3346POPC   PO443272  37.301   1.584   5.308
 3346POPC   GL143273  37.156   1.280   5.710
 3346POPC   GL243274  36.829   1.305   5.889
 3346POPC   C1A43275  37.190   1.211   6.219
 3346POPC   D2A43276  36.989   1.414   6.629
 3346POPC   C3A43277  36.907   1.158   7.043
 3346POPC   C4A43278  37.209   1.081   7.385
 3346POPC   C1B43279  36.624   1.577   6.180
 3346POPC   C2B43280  36.409   1.631   6.574
 3346POPC   C3B43281  36.612   1.588   6.989
 3346POPC   C4B43282  36.660   1.517   7.461
 3347POPC   NC343283   3.821  33.729   4.981
 3347POPC   PO443284   3.236  33.846   5.292
 3347POPC   GL143285   3.261  33.808   5.731
 3347POPC   GL243286   3.098  34.073   5.857
 3347POPC   C1A43287   3.498  33.567   6.051
 3347POPC   D2A43288   3.538  33.391   6.466
 3347POPC   C3A43289   3.660  33.642   6.780
 3347POPC   C4A43290   3.431  33.633   7.160
 3347POPC   C1B43291   3.165  33.888   6.296
 3347POPC   C2B43292   3.225  33.913   6.761
 3347POPC   C3B43293   2.976  33.881   7.150
 3347POPC   C4B43294   2.931  33.931   7.639
 3348POPC   NC343295  31.849   3.778   5.265
 3348POPC   PO443296  32.344   3.332   5.545
 3348POPC   GL143297  32.254   3.613   5.894
 3348POPC   GL243298  32.514   3.893   5.931
 3348POPC   C1A43299  32.086   3.616   6.346
 3348POPC   D2A43300  31.793   3.634   6.709
 3348POPC   C3A43301  31.915   3.724   7.129
 3348POPC   C4A43302  32.112   3.507   7.484
 3348POPC   C1B43303  32.422   4.008   6.378
 3348POPC   C2B43304  32.285   3.828   6.770
 3348POPC   C3B43305  32.410   3.580   7.100
 3348POPC   C4B43306  32.589   3.702   7.543
 3349POPC   NC343307  44.956   0.311   5.423
 3349POPC   PO443308  44.576   0.891   5.456
 3349POPC   GL143309  44.681   0.585   5.796
 3349POPC   GL243310  44.551   0.246   5.847
 3349POPC   C1A43311  44.939   0.408   6.162
 3349POPC   D2A43312   0.135   0.337   6.578
 3349POPC   C3A43313  44.852   0.279   6.939
 3349POPC   C4A43314  44.852   0.239   7.396
 3349POPC   C1B43315  44.430   0.385   6.259
 3349POPC   C2B43316  44.325   0.321   6.712
 3349POPC   C3B43317  44.384   0.238   7.159
 3349POPC   C4B43318  44.413   0.281   7.629
 3350POPC   NC343319  34.024  37.112   5.402
 3350POPC   PO443320  33.607  36.602   5.615
 3350POPC   GL143321  33.875  36.871   5.823
 3350POPC   GL243322  33.778  36.700   6.097
 3350POPC   C1A43323  33.978  37.185   6.142
 3350POPC   D2A43324  33.819  37.314   6.561
 3350POPC   C3A43325  34.021  37.089   6.918
 3350POPC   C4A43326  33.918  36.973   7.346
 3350POPC   C1B43327  33.485  37.057   6.190
 3350POPC   C2B43328  33.322  37.064   6.594
 3350POPC   C3B43329  33.510  37.055   6.992
 3350POPC   C4B43330  33.357  36.836   7.325
 3351POPC   NC343331  41.068   4.154   5.327
 3351POPC   PO443332  40.586   4.546   5.480
 3351POPC   GL143333  40.703   4.411   5.872
 3351POPC   GL243334  41.002   4.170   5.826
 3351POPC   C1A43335  40.640   4.546   6.298
 3351POPC   D2A43336  40.830   4.774   6.625
 3351POPC   C3A43337  40.769   4.532   6.988
 3351POPC   C4A43338  40.465   4.245   7.092
 3351POPC   C1B43339  40.903   4.078   6.228
 3351POPC   C2B43340  41.022   4.218   6.620
 3351POPC   C3B43341  40.881   4.006   6.964
 3351POPC   C4B43342  40.821   4.065   7.427
 3352POPC   NC343343  25.616   4.301   5.140
 3352POPC   PO443344  25.074   4.603   5.515
 3352POPC   GL143345  25.296   4.560   5.904
 3352POPC   GL243346  25.110   4.234   5.895
 3352POPC   C1A43347  25.549   4.365   6.288
 3352POPC   D2A43348  25.457   4.211   6.715
 3352POPC   C3A43349  25.493   4.469   7.098
 3352POPC   C4A43350  25.821   4.594   7.366
 3352POPC   C1B43351  25.045   4.359   6.307
 3352POPC   C2B43352  25.070   4.546   6.668
 3352POPC   C3B43353  25.036   4.282   7.039
 3352POPC   C4B43354  25.317   3.959   7.171
 3353POPC   NC343355  42.970  25.589   5.107
 3353POPC   PO443356  42.506  25.666   5.601
 3353POPC   GL143357  42.934  25.505   5.754
 3353POPC   GL243358  43.072  25.149   5.807
 3353POPC   C1A43359  42.977  25.502   6.216
 3353POPC   D2A43360  42.835  25.363   6.604
 3353POPC   C3A43361  42.933  25.601   6.959
 3353POPC   C4A43362  43.020  25.494   7.379
 3353POPC   C1B43363  43.047  24.980   6.262
 3353POPC   C2B43364  43.046  24.905   6.710
 3353POPC   C3B43365  43.080  25.101   7.101
 3353POPC   C4B43366  43.189  25.061   7.600
 3354POPC   NC343367  19.623  14.439   5.561
 3354POPC   PO443368  20.010  13.831   5.411
 3354POPC   GL143369  19.963  14.162   5.796
 3354POPC   GL243370  19.886  14.542   5.977
 3354POPC   C1A43371  19.717  14.122   6.199
 3354POPC   D2A43372  19.746  14.356   6.574
 3354POPC   C3A43373  19.818  14.207   6.986
 3354POPC   C4A43374  20.046  14.515   7.230
 3354POPC   C1B43375  19.445  14.593   6.203
 3354POPC   C2B43376  19.261  14.470   6.634
 3354POPC   C3B43377  19.433  14.532   7.056
 3354POPC   C4B43378  19.608  14.351   7.467
 3355POPC   NC343379  34.230  26.423   5.594
 3355POPC   PO443380  33.884  25.992   5.102
 3355POPC   GL143381  33.900  26.039   5.611
 3355POPC   GL243382  33.732  26.344   5.762
 3355POPC   C1A43383  34.020  25.943   6.095
 3355POPC   D2A43384  34.254  25.830   6.529
 3355POPC   C3A43385  34.035  25.777   6.961
 3355POPC   C4A43386  33.864  26.030   7.337
 3355POPC   C1B43387  33.640  26.288   6.249
 3355POPC   C2B43388  33.776  26.422   6.700
 3355POPC   C3B43389  33.560  26.481   7.129
 3355POPC   C4B43390  33.420  26.297   7.548
 3356POPC   NC343391  38.961  30.123   5.348
 3356POPC   PO443392  39.439  29.644   5.434
 3356POPC   GL143393  39.350  29.962   5.740
 3356POPC   GL243394  39.311  30.330   5.681
 3356POPC   C1A43395  39.190  29.981   6.161
 3356POPC   D2A43396  39.232  29.784   6.535
 3356POPC   C3A43397  39.204  30.034   6.851
 3356POPC   C4A43398  39.062  29.938   7.231
 3356POPC   C1B43399  39.592  30.313   6.062
 3356POPC   C2B43400  39.440  30.335   6.488
 3356POPC   C3B43401  39.579  30.378   6.916
 3356POPC   C4B43402  39.333  30.355   7.273
 3357POPC   NC343403  29.568  11.522   5.364
 3357POPC   PO443404  28.879  11.492   5.487
 3357POPC   GL143405  29.111  11.293   5.860
 3357POPC   GL243406  29.409  11.470   5.838
 3357POPC   C1A43407  29.394  11.153   6.254
 3357POPC   D2A43408  29.536  11.003   6.692
 3357POPC   C3A43409  29.203  11.016   6.998
 3357POPC   C4A43410  28.872  11.245   7.152
 3357POPC   C1B43411  29.191  11.616   6.215
 3357POPC   C2B43412  29.073  11.407   6.572
 3357POPC   C3B43413  29.278  11.502   6.902
 3357POPC   C4B43414  29.307  11.723   7.240
 3358POPC   NC343415  40.789   7.005   5.442
 3358POPC   PO443416  40.664   6.411   5.251
 3358POPC   GL143417  40.622   6.494   5.691
 3358POPC   GL243418  40.285   6.352   5.781
 3358POPC   C1A43419  40.924   6.668   6.036
 3358POPC   D2A43420  41.147   6.736   6.468
 3358POPC   C3A43421  40.891   6.600   6.825
 3358POPC   C4A43422  40.972   6.671   7.255
 3358POPC   C1B43423  40.392   6.609   6.152
 3358POPC   C2B43424  40.605   6.906   6.442
 3358POPC   C3B43425  40.524   7.003   6.881
 3358POPC   C4B43426  40.454   6.679   7.185
 3359POPC   NC343427  39.695  25.670   5.093
 3359POPC   PO443428  39.588  26.294   5.349
 3359POPC   GL143429  39.900  26.183   5.688
 3359POPC   GL243430  40.023  25.839   5.597
 3359POPC   C1A43431  40.009  26.180   6.168
 3359POPC   D2A43432  40.150  26.404   6.609
 3359POPC   C3A43433  40.114  26.221   7.044
 3359POPC   C4A43434  39.790  25.953   7.243
 3359POPC   C1B43435  40.214  25.705   6.014
 3359POPC   C2B43436  40.197  25.819   6.474
 3359POPC   C3B43437  40.164  25.706   6.906
 3359POPC   C4B43438  40.449  25.832   7.225
 3360POPC   NC343439  27.087   3.183   5.059
 3360POPC   PO443440  26.589   3.613   5.327
 3360POPC   GL143441  26.858   3.468   5.672
 3360POPC   GL243442  26.767   3.737   5.875
 3360POPC   C1A43443  27.066   3.381   6.100
 3360POPC   D2A43444  26.980   3.227   6.555
 3360POPC   C3A43445  27.135   3.442   6.923
 3360POPC   C4A43446  27.037   3.416   7.335
 3360POPC   C1B43447  26.868   3.829   6.298
 3360POPC   C2B43448  26.771   3.690   6.687
 3360POPC   C3B43449  26.610   3.535   7.064
 3360POPC   C4B43450  26.624   3.665   7.500
 3361POPC   NC343451   2.232  44.642   5.329
 3361POPC   PO443452   1.734  44.228   5.428
 3361POPC   GL143453   1.867  44.551   5.713
 3361POPC   GL243454   2.171  44.396   5.818
 3361POPC   C1A43455   1.927  44.746   6.135
 3361POPC   D2A43456   1.936  44.613   6.586
 3361POPC   C3A43457   1.902  44.904   6.929
 3361POPC   C4A43458   1.672  44.858   7.334
 3361POPC   C1B43459   2.212  44.311   6.258
 3361POPC   C2B43460   2.462  44.423   6.629
 3361POPC   C3B43461   2.426  44.572   7.045
 3361POPC   C4B43462   2.047  44.534   7.239
 3362POPC   NC343463  14.483   8.601   5.394
 3362POPC   PO443464  13.957   9.082   5.409
 3362POPC   GL143465  14.332   9.078   5.742
 3362POPC   GL243466  14.472   8.798   5.859
 3362POPC   C1A43467  14.451   9.239   6.175
 3362POPC   D2A43468  14.225   9.289   6.584
 3362POPC   C3A43469  14.394   9.187   6.979
 3362POPC   C4A43470  14.241   8.833   7.227
 3362POPC   C1B43471  14.330   8.724   6.235
 3362POPC   C2B43472  14.545   8.863   6.593
 3362POPC   C3B43473  14.692   8.781   6.997
 3362POPC   C4B43474  14.734   9.050   7.384
 3363POPC   NC343475  18.090  34.164   5.593
 3363POPC   PO443476  17.969  33.550   5.302
 3363POPC   GL143477  18.129  33.626   5.730
 3363POPC   GL243478  18.483  33.750   5.710
 3363POPC   C1A43479  18.119  33.836   6.158
 3363POPC   D2A43480  18.192  34.095   6.535
 3363POPC   C3A43481  18.097  33.831   6.902
 3363POPC   C4A43482  17.954  33.965   7.299
 3363POPC   C1B43483  18.639  33.905   6.136
 3363POPC   C2B43484  18.575  33.750   6.553
 3363POPC   C3B43485  18.591  33.932   6.932
 3363POPC   C4B43486  18.443  33.746   7.307
 3364POPC   NC343487  19.480  37.693   5.622
 3364POPC   PO443488  20.155  38.009   5.462
 3364POPC   GL143489  19.919  37.909   5.826
 3364POPC   GL243490  19.972  37.550   5.778
 3364POPC   C1A43491  19.829  37.865   6.298
 3364POPC   D2A43492  19.755  37.891   6.775
 3364POPC   C3A43493  19.796  37.805   7.217
 3364POPC   C4A43494  19.708  37.695   7.667
 3364POPC   C1B43495  19.732  37.392   6.150
 3364POPC   C2B43496  19.666  37.174   6.520
 3364POPC   C3B43497  19.614  37.397   6.885
 3364POPC   C4B43498  19.669  37.293   7.299
 3365POPC   NC343499  39.578  27.919   5.043
 3365POPC   PO443500  39.067  27.660   5.402
 3365POPC   GL143501  39.041  27.667   5.840
 3365POPC   GL243502  39.322  27.760   5.883
 3365POPC   C1A43503  38.989  27.894   6.252
 3365POPC   D2A43504  38.991  27.762   6.665
 3365POPC   C3A43505  39.292  27.530   6.873
 3365POPC   C4A43506  39.174  27.456   7.299
 3365POPC   C1B43507  39.435  27.653   6.263
 3365POPC   C2B43508  39.723  27.675   6.540
 3365POPC   C3B43509  39.729  27.795   6.918
 3365POPC   C4B43510  39.562  27.765   7.296
 3366POPC   NC343511   2.840  13.704   5.308
 3366POPC   PO443512   2.954  13.125   5.386
 3366POPC   GL143513   2.661  13.332   5.706
 3366POPC   GL243514   2.638  13.699   5.792
 3366POPC   C1A43515   2.546  13.337   6.132
 3366POPC   D2A43516   2.549  13.585   6.494
 3366POPC   C3A43517   2.715  13.387   6.860
 3366POPC   C4A43518   2.740  13.605   7.225
 3366POPC   C1B43519   2.930  13.683   6.160
 3366POPC   C2B43520   3.113  13.489   6.564
 3366POPC   C3B43521   3.200  13.633   7.022
 3366POPC   C4B43522   3.144  13.790   7.478
 3367POPC   NC343523  38.153  13.841   5.344
 3367POPC   PO443524  37.496  13.870   5.312
 3367POPC   GL143525  37.758  13.877   5.687
 3367POPC   GL243526  37.891  13.558   5.755
 3367POPC   C1A43527  37.735  13.903   6.130
 3367POPC   D2A43528  37.862  13.832   6.531
 3367POPC   C3A43529  37.560  13.833   6.852
 3367POPC   C4A43530  37.840  13.877   7.172
 3367POPC   C1B43531  37.807  13.395   6.190
 3367POPC   C2B43532  37.685  13.346   6.633
 3367POPC   C3B43533  37.677  13.389   7.087
 3367POPC   C4B43534  37.471  13.405   7.461
 3368POPC   NC343535  19.613  30.446   5.471
 3368POPC   PO443536  19.761  31.070   5.428
 3368POPC   GL143537  19.715  30.847   5.821
 3368POPC   GL243538  20.048  30.836   5.972
 3368POPC   C1A43539  19.624  30.837   6.267
 3368POPC   D2A43540  19.985  30.881   6.538
 3368POPC   C3A43541  19.962  30.863   6.967
 3368POPC   C4A43542  19.687  30.669   7.218
 3368POPC   C1B43543  20.021  30.467   6.246
 3368POPC   C2B43544  20.111  30.380   6.686
 3368POPC   C3B43545  20.176  30.423   7.142
 3368POPC   C4B43546  19.902  30.306   7.500
 3369POPC   NC343547  22.666   8.799   5.528
 3369POPC   PO443548  22.598   9.303   5.028
 3369POPC   GL143549  22.757   9.335   5.528
 3369POPC   GL243550  23.066   9.142   5.630
 3369POPC   C1A43551  22.742   9.253   6.028
 3369POPC   D2A43552  22.626   9.119   6.473
 3369POPC   C3A43553  22.826   9.146   6.891
 3369POPC   C4A43554  22.993   8.826   7.170
 3369POPC   C1B43555  23.257   9.157   6.051
 3369POPC   C2B43556  23.202   9.161   6.502
 3369POPC   C3B43557  23.345   9.363   6.888
 3369POPC   C4B43558  23.158   9.291   7.289
 3370POPC   NC343559  10.775  41.438   5.472
 3370POPC   PO443560  10.670  42.080   5.470
 3370POPC   GL143561  10.601  41.754   5.840
 3370POPC   GL243562  10.422  41.389   5.827
 3370POPC   C1A43563  10.764  41.468   6.203
 3370POPC   D2A43564  10.764  41.304   6.632
 3370POPC   C3A43565  10.831  41.545   6.991
 3370POPC   C4A43566  10.575  41.432   7.350
 3370POPC   C1B43567  10.228  41.629   6.170
 3370POPC   C2B43568  10.198  41.808   6.578
 3370POPC   C3B43569  10.313  41.549   6.910
 3370POPC   C4B43570  10.075  41.326   7.238
 3371POPC   NC343571  30.556  21.612   5.440
 3371POPC   PO443572  30.465  21.015   5.254
 3371POPC   GL143573  30.579  21.100   5.735
 3371POPC   GL243574  30.744  21.435   5.888
 3371POPC   C1A43575  30.515  21.121   6.219
 3371POPC   D2A43576  30.361  21.030   6.646
 3371POPC   C3A43577  30.571  21.169   7.036
 3371POPC   C4A43578  30.872  20.953   7.268
 3371POPC   C1B43579  30.905  21.462   6.332
 3371POPC   C2B43580  30.909  21.490   6.787
 3371POPC   C3B43581  30.799  21.700   7.150
 3371POPC   C4B43582  30.661  21.452   7.498
 3372POPC   NC343583   0.315  39.348   5.224
 3372POPC   PO443584  44.942  39.110   5.732
 3372POPC   GL143585   0.196  39.242   5.989
 3372POPC   GL243586   0.434  39.272   5.747
 3372POPC   C1A43587   0.282  39.144   6.408
 3372POPC   D2A43588   0.040  39.118   6.757
 3372POPC   C3A43589   0.333  39.032   7.076
 3372POPC   C4A43590   0.207  38.928   7.506
 3372POPC   C1B43591   0.653  39.379   6.126
 3372POPC   C2B43592   0.752  39.409   6.559
 3372POPC   C3B43593   0.857  39.248   6.957
 3372POPC   C4B43594   0.709  39.247   7.358
 3373POPC   NC343595  20.287  42.530   5.655
 3373POPC   PO443596  19.691  42.404   5.389
 3373POPC   GL143597  19.702  42.410   5.844
 3373POPC   GL243598  19.553  42.711   5.970
 3373POPC   C1A43599  19.830  42.182   6.237
 3373POPC   D2A43600  20.073  42.227   6.614
 3373POPC   C3A43601  19.916  42.084   7.024
 3373POPC   C4A43602  19.884  41.804   7.411
 3373POPC   C1B43603  19.345  42.354   6.238
 3373POPC   C2B43604  19.429  42.124   6.617
 3373POPC   C3B43605  19.451  42.285   7.040
 3373POPC   C4B43606  19.828  42.575   7.101
 3374POPC   NC343607  12.477  15.689   5.649
 3374POPC   PO443608  13.120  15.567   5.385
 3374POPC   GL143609  12.998  15.810   5.778
 3374POPC   GL243610  13.196  15.631   6.003
 3374POPC   C1A43611  12.752  15.825   6.211
 3374POPC   D2A43612  12.888  15.722   6.633
 3374POPC   C3A43613  12.559  15.922   6.897
 3374POPC   C4A43614  12.635  15.985   7.316
 3374POPC   C1B43615  13.214  16.007   6.271
 3374POPC   C2B43616  13.332  16.015   6.684
 3374POPC   C3B43617  13.127  16.005   7.098
 3374POPC   C4B43618  13.087  15.903   7.546
 3375POPC   NC343619   1.897   3.067   5.199
 3375POPC   PO443620   2.053   2.468   5.413
 3375POPC   GL143621   1.844   2.673   5.776
 3375POPC   GL243622   1.717   3.032   5.709
 3375POPC   C1A43623   2.065   2.595   6.185
 3375POPC   D2A43624   2.268   2.531   6.592
 3375POPC   C3A43625   2.123   2.581   7.027
 3375POPC   C4A43626   1.747   2.608   7.238
 3375POPC   C1B43627   1.877   3.079   6.153
 3375POPC   C2B43628   1.903   2.912   6.604
 3375POPC   C3B43629   1.963   3.080   7.048
 3375POPC   C4B43630   1.991   2.966   7.494
 3376POPC   NC343631  32.734  22.512   5.509
 3376POPC   PO443632  33.294  22.869   5.528
 3376POPC   GL143633  33.007  22.800   5.847
 3376POPC   GL243634  33.114  22.475   5.921
 3376POPC   C1A43635  32.883  22.935   6.278
 3376POPC   D2A43636  33.107  23.025   6.684
 3376POPC   C3A43637  32.892  23.038   7.101
 3376POPC   C4A43638  32.815  23.301   7.488
 3376POPC   C1B43639  33.356  22.736   6.240
 3376POPC   C2B43640  33.393  22.604   6.670
 3376POPC   C3B43641  33.355  22.773   7.087
 3376POPC   C4B43642  33.171  22.884   7.505
 3377POPC   NC343643  36.049   1.065   5.327
 3377POPC   PO443644  36.680   1.070   5.471
 3377POPC   GL143645  36.302   1.154   5.779
 3377POPC   GL243646  35.918   1.242   5.786
 3377POPC   C1A43647  36.100   0.976   6.176
 3377POPC   D2A43648  36.272   1.127   6.562
 3377POPC   C3A43649  36.158   0.907   6.937
 3377POPC   C4A43650  36.445   0.858   7.253
 3377POPC   C1B43651  36.082   1.479   6.158
 3377POPC   C2B43652  35.899   1.515   6.576
 3377POPC   C3B43653  36.094   1.429   6.965
 3377POPC   C4B43654  36.192   1.642   7.323
 3378POPC   NC343655  20.281  26.476   5.567
 3378POPC   PO443656  19.693  26.669   5.547
 3378POPC   GL143657  19.683  26.767   6.000
 3378POPC   GL243658  19.887  27.064   6.070
 3378POPC   C1A43659  19.621  26.910   6.464
 3378POPC   D2A43660  19.974  27.102   6.674
 3378POPC   C3A43661  19.881  27.022   7.083
 3378POPC   C4A43662  19.628  26.674   7.174
 3378POPC   C1B43663  20.051  26.683   6.337
 3378POPC   C2B43664  20.006  26.604   6.788
 3378POPC   C3B43665  20.157  26.595   7.210
 3378POPC   C4B43666  20.428  26.828   7.477
 3379POPC   NC343667  38.962  13.313   5.605
 3379POPC   PO443668  39.287  13.952   5.494
 3379POPC   GL143669  39.177  13.976   5.850
 3379POPC   GL243670  38.976  14.264   5.933
 3379POPC   C1A43671  39.176  13.663   6.157
 3379POPC   D2A43672  39.146  13.495   6.551
 3379POPC   C3A43673  39.227  13.601   6.945
 3379POPC   C4A43674  39.095  13.482   7.332
 3379POPC   C1B43675  38.900  14.052   6.329
 3379POPC   C2B43676  39.093  14.071   6.718
 3379POPC   C3B43677  39.387  14.054   7.049
 3379POPC   C4B43678  39.217  13.993   7.427
 3380POPC   NC343679  20.108  23.028   5.141
 3380POPC   PO443680  20.641  22.740   5.524
 3380POPC   GL143681  20.655  22.920   5.920
 3380POPC   GL243682  20.825  23.216   5.897
 3380POPC   C1A43683  20.368  23.154   6.218
 3380POPC   D2A43684  20.357  23.361   6.575
 3380POPC   C3A43685  20.513  23.129   6.853
 3380POPC   C4A43686  20.299  23.138   7.205
 3380POPC   C1B43687  20.845  23.064   6.359
 3380POPC   C2B43688  20.985  22.941   6.731
 3380POPC   C3B43689  21.018  23.121   7.080
 3380POPC   C4B43690  20.720  22.855   7.234
 3381POPC   NC343691  26.569  17.118   5.448
 3381POPC   PO443692  26.565  16.412   5.318
 3381POPC   GL143693  26.609  16.461   5.782
 3381POPC   GL243694  26.740  16.798   5.844
 3381POPC   C1A43695  26.559  16.536   6.248
 3381POPC   D2A43696  26.745  16.651   6.659
 3381POPC   C3A43697  26.581  16.552   7.072
 3381POPC   C4A43698  26.759  16.755   7.457
 3381POPC   C1B43699  26.869  16.977   6.256
 3381POPC   C2B43700  26.822  17.185   6.683
 3381POPC   C3B43701  26.817  17.189   7.158
 3381POPC   C4B43702  27.063  17.204   7.561
 3382POPC   NC343703  27.379  20.268   5.535
 3382POPC   PO443704  27.754  20.769   5.329
 3382POPC   GL143705  27.527  20.709   5.751
 3382POPC   GL243706  27.157  20.800   5.722
 3382POPC   C1A43707  27.648  20.448   6.155
 3382POPC   D2A43708  27.803  20.616   6.572
 3382POPC   C3A43709  27.646  20.402   6.902
 3382POPC   C4A43710  27.523  20.501   7.297
 3382POPC   C1B43711  27.131  20.575   6.113
 3382POPC   C2B43712  27.295  20.622   6.520
 3382POPC   C3B43713  27.167  20.611   6.933
 3382POPC   C4B43714  27.034  20.616   7.352
 3383POPC   NC343715  38.238   6.834   5.319
 3383POPC   PO443716  38.146   6.304   5.741
 3383POPC   GL143717  38.350   6.700   5.799
 3383POPC   GL243718  38.081   6.956   5.797
 3383POPC   C1A43719  38.636   6.720   6.153
 3383POPC   D2A43720  38.637   6.388   6.480
 3383POPC   C3A43721  38.594   6.512   6.883
 3383POPC   C4A43722  38.607   6.530   7.293
 3383POPC   C1B43723  38.099   6.763   6.239
 3383POPC   C2B43724  38.143   6.598   6.658
 3383POPC   C3B43725  38.112   6.564   7.111
 3383POPC   C4B43726  38.279   6.838   7.475
 3384POPC   NC343727  25.439   4.902   5.520
 3384POPC   PO443728  24.945   5.297   5.372
 3384POPC   GL143729  25.060   5.080   5.800
 3384POPC   GL243730  25.420   5.187   5.948
 3384POPC   C1A43731  25.085   4.954   6.243
 3384POPC   D2A43732  25.280   5.052   6.661
 3384POPC   C3A43733  25.085   4.877   7.034
 3384POPC   C4A43734  24.843   5.045   7.360
 3384POPC   C1B43735  25.578   4.874   6.262
 3384POPC   C2B43736  25.643   4.698   6.678
 3384POPC   C3B43737  25.611   4.972   7.069
 3384POPC   C4B43738  25.324   5.205   7.318
 3385POPC   NC343739  38.370   9.368   5.077
 3385POPC   PO443740  38.462   8.756   5.367
 3385POPC   GL143741  38.592   8.895   5.781
 3385POPC   GL243742  38.366   9.164   5.853
 3385POPC   C1A43743  38.564   8.848   6.242
 3385POPC   D2A43744  38.360   8.953   6.621
 3385POPC   C3A43745  38.241   8.654   6.968
 3385POPC   C4A43746  38.324   8.976   7.220
 3385POPC   C1B43747  38.764   9.277   6.069
 3385POPC   C2B43748  38.887   9.254   6.505
 3385POPC   C3B43749  38.714   9.173   6.920
 3385POPC   C4B43750  38.672   9.392   7.288
 3386POPC   NC343751  33.028   5.779   5.511
 3386POPC   PO443752  32.400   5.817   5.574
 3386POPC   GL143753  32.709   5.545   5.857
 3386POPC   GL243754  33.082   5.393   5.833
 3386POPC   C1A43755  32.912   5.702   6.231
 3386POPC   D2A43756  33.002   6.053   6.535
 3386POPC   C3A43757  33.089   5.973   6.976
 3386POPC   C4A43758  33.025   6.065   7.414
 3386POPC   C1B43759  33.348   5.426   6.189
 3386POPC   C2B43760  33.233   5.585   6.608
 3386POPC   C3B43761  33.428   5.577   6.990
 3386POPC   C4B43762  33.446   5.801   7.335
 3387POPC   NC343763  27.732  32.183   5.369
 3387POPC   PO443764  27.153  32.487   5.433
 3387POPC   GL143765  27.364  32.235   5.750
 3387POPC   GL243766  27.685  32.383   5.834
 3387POPC   C1A43767  27.321  32.107   6.174
 3387POPC   D2A43768  27.556  32.272   6.543
 3387POPC   C3A43769  27.502  32.080   6.947
 3387POPC   C4A43770  27.266  32.225   7.289
 3387POPC   C1B43771  27.913  32.498   6.190
 3387POPC   C2B43772  28.055  32.388   6.598
 3387POPC   C3B43773  27.864  32.465   6.983
 3387POPC   C4B43774  27.670  32.526   7.355
 3388POPC   NC343775  29.276   9.928   5.612
 3388POPC   PO443776  28.808   9.440   5.502
 3388POPC   GL143777  28.888   9.672   5.872
 3388POPC   GL243778  28.896  10.055   5.920
 3388POPC   C1A43779  29.027   9.526   6.264
 3388POPC   D2A43780  29.160   9.657   6.651
 3388POPC   C3A43781  29.108   9.464   6.997
 3388POPC   C4A43782  29.260   9.516   7.361
 3388POPC   C1B43783  29.231   9.995   6.255
 3388POPC   C2B43784  29.267  10.142   6.686
 3388POPC   C3B43785  29.254  10.007   7.151
 3388POPC   C4B43786  29.278  10.307   7.517
 3389POPC   NC343787  14.000  18.151   5.492
 3389POPC   PO443788  14.650  18.385   5.440
 3389POPC   GL143789  14.428  18.258   5.791
 3389POPC   GL243790  14.553  17.944   5.943
 3389POPC   C1A43791  14.502  18.371   6.229
 3389POPC   D2A43792  14.604  18.118   6.561
 3389POPC   C3A43793  14.492  18.315   6.913
 3389POPC   C4A43794  14.686  18.466   7.237
 3389POPC   C1B43795  14.138  18.023   6.155
 3389POPC   C2B43796  14.096  18.209   6.569
 3389POPC   C3B43797  14.016  18.113   6.989
 3389POPC   C4B43798  14.293  17.961   7.256
 3390POPC   NC343799  18.957  13.533   5.541
 3390POPC   PO443800  18.509  14.099   5.427
 3390POPC   GL143801  18.777  13.918   5.831
 3390POPC   GL243802  19.132  13.800   5.946
 3390POPC   C1A43803  18.755  13.636   6.224
 3390POPC   D2A43804  18.898  13.390   6.561
 3390POPC   C3A43805  18.771  13.544   6.923
 3390POPC   C4A43806  18.933  13.744   7.272
 3390POPC   C1B43807  19.172  13.315   6.139
 3390POPC   C2B43808  19.292  13.066   6.544
 3390POPC   C3B43809  19.400  13.168   6.978
 3390POPC   C4B43810  19.224  13.331   7.353
 3391POPC   NC343811  35.813   2.879   5.472
 3391POPC   PO443812  36.453   2.727   5.452
 3391POPC   GL143813  36.226   2.869   5.803
 3391POPC   GL243814  36.054   2.558   5.825
 3391POPC   C1A43815  36.215   2.802   6.268
 3391POPC   D2A43816  36.505   2.773   6.646
 3391POPC   C3A43817  36.340   3.015   7.012
 3391POPC   C4A43818  35.951   2.949   7.239
 3391POPC   C1B43819  35.843   2.376   6.160
 3391POPC   C2B43820  35.657   2.464   6.561
 3391POPC   C3B43821  35.854   2.535   6.958
 3391POPC   C4B43822  35.714   2.515   7.385
 3392POPC   NC343823  12.143   3.343   5.244
 3392POPC   PO443824  11.921   3.810   5.614
 3392POPC   GL143825  11.989   3.342   5.743
 3392POPC   GL243826  12.377   3.193   5.708
 3392POPC   C1A43827  11.823   3.311   6.170
 3392POPC   D2A43828  11.957   3.582   6.516
 3392POPC   C3A43829  11.864   3.442   6.931
 3392POPC   C4A43830  12.019   3.740   7.249
 3392POPC   C1B43831  12.340   3.330   6.145
 3392POPC   C2B43832  12.293   3.192   6.588
 3392POPC   C3B43833  12.381   3.357   6.995
 3392POPC   C4B43834  12.145   3.273   7.352
 3393POPC   NC343835  12.599  21.774   5.577
 3393POPC   PO443836  13.125  21.465   5.351
 3393POPC   GL143837  12.942  21.405   5.795
 3393POPC   GL243838  12.658  21.240   5.693
 3393POPC   C1A43839  12.943  21.342   6.294
 3393POPC   D2A43840  13.271  21.333   6.648
 3393POPC   C3A43841  13.262  21.575   6.985
 3393POPC   C4A43842  13.012  21.415   7.286
 3393POPC   C1B43843  12.583  21.003   6.056
 3393POPC   C2B43844  12.557  21.069   6.508
 3393POPC   C3B43845  12.807  21.252   6.854
 3393POPC   C4B43846  12.713  21.013   7.289
 3394POPC   NC343847  10.987   9.958   5.308
 3394POPC   PO443848  11.465   9.572   5.508
 3394POPC   GL143849  11.259   9.841   5.791
 3394POPC   GL243850  11.581   9.819   5.962
 3394POPC   C1A43851  11.156  10.030   6.214
 3394POPC   D2A43852  11.283  10.191   6.636
 3394POPC   C3A43853  11.024  10.034   6.986
 3394POPC   C4A43854  10.858   9.605   7.059
 3394POPC   C1B43855  11.330   9.487   6.171
 3394POPC   C2B43856  11.146   9.558   6.552
 3394POPC   C3B43857  11.373   9.695   6.876
 3394POPC   C4B43858  11.487   9.622   7.269
 3395POPC   NC343859  28.977   6.652   5.196
 3395POPC   PO443860  28.480   6.507   5.523
 3395POPC   GL143861  28.297   6.581   5.881
 3395POPC   GL243862  28.412   6.867   5.998
 3395POPC   C1A43863  28.097   6.359   6.196
 3395POPC   D2A43864  27.887   6.374   6.593
 3395POPC   C3A43865  28.066   6.237   6.944
 3395POPC   C4A43866  28.186   6.387   7.321
 3395POPC   C1B43867  28.229   6.813   6.365
 3395POPC   C2B43868  28.375   6.523   6.642
 3395POPC   C3B43869  28.505   6.665   7.020
 3395POPC   C4B43870  28.241   6.900   7.224
 3396POPC   NC343871  18.766  19.221   5.385
 3396POPC   PO443872  18.152  19.001   5.230
 3396POPC   GL143873  18.256  18.970   5.670
 3396POPC   GL243874  18.424  19.265   5.781
 3396POPC   C1A43875  18.223  18.927   6.141
 3396POPC   D2A43876  18.197  18.707   6.556
 3396POPC   C3A43877  17.976  18.954   6.883
 3396POPC   C4A43878  18.140  18.973   7.308
 3396POPC   C1B43879  18.661  19.207   6.179
 3396POPC   C2B43880  18.677  19.285   6.582
 3396POPC   C3B43881  18.507  19.026   6.883
 3396POPC   C4B43882  18.633  19.088   7.268
 3397POPC   NC343883   9.303  19.603   5.611
 3397POPC   PO443884   8.787  20.128   5.435
 3397POPC   GL143885   8.936  19.963   5.802
 3397POPC   GL243886   9.268  20.099   5.819
 3397POPC   C1A43887   8.781  19.819   6.192
 3397POPC   D2A43888   8.697  19.669   6.577
 3397POPC   C3A43889   8.709  19.993   6.862
 3397POPC   C4A43890   8.665  19.839   7.238
 3397POPC   C1B43891   9.323  19.910   6.205
 3397POPC   C2B43892   9.160  19.879   6.596
 3397POPC   C3B43893   9.141  19.831   7.023
 3397POPC   C4B43894   9.439  19.865   7.288
 3398POPC   NC343895  20.064   8.015   5.297
 3398POPC   PO443896  20.001   8.561   5.747
 3398POPC   GL143897  19.857   8.149   5.805
 3398POPC   GL243898  20.174   7.951   5.833
 3398POPC   C1A43899  19.583   8.020   6.160
 3398POPC   D2A43900  19.651   7.832   6.568
 3398POPC   C3A43901  19.584   7.993   6.983
 3398POPC   C4A43902  19.728   8.189   7.354
 3398POPC   C1B43903  20.079   8.011   6.266
 3398POPC   C2B43904  20.135   8.324   6.586
 3398POPC   C3B43905  20.110   8.204   7.013
 3398POPC   C4B43906  20.048   7.804   7.221
 3399POPC   NC343907   7.255  25.863   5.260
 3399POPC   PO443908   7.844  26.169   5.258
 3399POPC   GL143909   7.561  26.022   5.634
 3399POPC   GL243910   7.545  25.731   5.839
 3399POPC   C1A43911   7.307  26.157   6.026
 3399POPC   D2A43912   7.427  26.311   6.449
 3399POPC   C3A43913   7.299  26.103   6.850
 3399POPC   C4A43914   7.409  26.355   7.205
 3399POPC   C1B43915   7.657  25.857   6.285
 3399POPC   C2B43916   7.783  26.011   6.713
 3399POPC   C3B43917   7.749  25.830   7.149
 3399POPC   C4B43918   7.783  25.688   7.617
 3400POPC   NC343919  28.712  10.289   5.461
 3400POPC   PO443920  28.512  10.904   5.452
 3400POPC   GL143921  28.407  10.642   5.841
 3400POPC   GL243922  28.760  10.586   5.870
 3400POPC   C1A43923  28.131  10.548   6.260
 3400POPC   D2A43924  28.211  10.303   6.644
 3400POPC   C3A43925  28.317  10.526   7.060
 3400POPC   C4A43926  28.061  10.758   7.361
 3400POPC   C1B43927  28.589  10.352   6.203
 3400POPC   C2B43928  28.641  10.538   6.564
 3400POPC   C3B43929  28.790  10.278   6.846
 3400POPC   C4B43930  28.769  10.242   7.250
 3401POPC   NC343931  34.875  15.644   5.580
 3401POPC   PO443932  34.483  16.164   5.365
 3401POPC   GL143933  34.458  15.869   5.739
 3401POPC   GL243934  34.732  15.936   5.976
 3401POPC   C1A43935  34.273  15.866   6.175
 3401POPC   D2A43936  34.440  15.853   6.587
 3401POPC   C3A43937  34.202  15.778   6.968
 3401POPC   C4A43938  34.513  15.765   7.281
 3401POPC   C1B43939  35.013  15.629   6.225
 3401POPC   C2B43940  35.148  15.693   6.662
 3401POPC   C3B43941  35.057  15.657   7.098
 3401POPC   C4B43942  34.975  15.694   7.536
 3402POPC   NC343943  16.311   9.001   5.603
 3402POPC   PO443944  16.833   9.249   5.243
 3402POPC   GL143945  16.787   9.211   5.750
 3402POPC   GL243946  16.731   8.862   5.928
 3402POPC   C1A43947  16.503   9.269   6.154
 3402POPC   D2A43948  16.387   9.035   6.516
 3402POPC   C3A43949  16.714   9.041   6.825
 3402POPC   C4A43950  16.619   9.210   7.234
 3402POPC   C1B43951  16.901   9.016   6.326
 3402POPC   C2B43952  17.233   8.859   6.560
 3402POPC   C3B43953  17.039   8.593   6.839
 3402POPC   C4B43954  16.902   8.786   7.226
 3403POPC   NC343955  40.068  17.762   5.200
 3403POPC   PO443956  40.001  17.273   5.630
 3403POPC   GL143957  39.962  17.471   6.028
 3403POPC   GL243958  39.770  17.799   5.943
 3403POPC   C1A43959  40.066  17.165   6.355
 3403POPC   D2A43960  40.162  17.063   6.794
 3403POPC   C3A43961  39.874  17.290   7.065
 3403POPC   C4A43962  39.876  17.236   7.502
 3403POPC   C1B43963  39.719  17.762   6.402
 3403POPC   C2B43964  39.951  17.853   6.767
 3403POPC   C3B43965  40.138  17.737   7.148
 3403POPC   C4B43966  40.099  17.933   7.535
 3404POPC   NC343967  14.413   2.946   5.376
 3404POPC   PO443968  14.802   2.458   5.518
 3404POPC   GL143969  14.512   2.659   5.799
 3404POPC   GL243970  14.236   2.465   5.822
 3404POPC   C1A43971  14.437   2.895   6.179
 3404POPC   D2A43972  14.614   2.989   6.592
 3404POPC   C3A43973  14.358   2.846   6.958
 3404POPC   C4A43974  14.517   2.741   7.370
 3404POPC   C1B43975  14.253   2.335   6.238
 3404POPC   C2B43976  14.265   2.421   6.676
 3404POPC   C3B43977  14.110   2.317   7.088
 3404POPC   C4B43978  14.060   2.576   7.445
 3405POPC   NC343979   9.895  20.422   5.556
 3405POPC   PO443980   9.375  20.808   5.460
 3405POPC   GL143981   9.533  20.685   5.873
 3405POPC   GL243982   9.688  20.343   6.018
 3405POPC   C1A43983   9.661  20.803   6.299
 3405POPC   D2A43984   9.490  20.599   6.657
 3405POPC   C3A43985   9.618  20.716   7.069
 3405POPC   C4A43986   9.728  20.810   7.478
 3405POPC   C1B43987  10.063  20.478   6.292
 3405POPC   C2B43988  10.089  20.586   6.745
 3405POPC   C3B43989  10.132  20.726   7.168
 3405POPC   C4B43990  10.206  20.701   7.616
 3406POPC   NC343991  18.714  30.582   5.712
 3406POPC   PO443992  18.226  30.609   5.294
 3406POPC   GL143993  18.065  30.604   5.746
 3406POPC   GL243994  18.289  30.890   5.782
 3406POPC   C1A43995  18.149  30.360   6.176
 3406POPC   D2A43996  18.233  30.484   6.643
 3406POPC   C3A43997  18.001  30.426   7.034
 3406POPC   C4A43998  17.950  30.635   7.440
 3406POPC   C1B43999  18.267  30.845   6.223
 3406POPC   C2B44000  18.476  30.929   6.604
 3406POPC   C3B44001  18.239  30.876   6.991
 3406POPC   C4B44002  18.422  30.886   7.381
 3407POPC   NC344003   8.360  44.183   5.599
 3407POPC   PO444004   8.397  44.809   5.327
 3407POPC   GL144005   8.198  44.678   5.720
 3407POPC   GL244006   7.915  44.894   5.848
 3407POPC   C1A44007   8.108  44.476   6.133
 3407POPC   D2A44008   8.289  44.593   6.513
 3407POPC   C3A44009   8.204  44.379   6.867
 3407POPC   C4A44010   7.947  44.308   7.205
 3407POPC   C1B44011   8.222   0.001   6.146
 3407POPC   C2B44012   8.347   0.109   6.552
 3407POPC   C3B44013   8.268  44.913   6.950
 3407POPC   C4B44014   7.999  44.807   7.303
 3408POPC   NC344015  28.980  41.931   5.551
 3408POPC   PO444016  29.333  41.316   5.455
 3408POPC   GL144017  29.179  41.507   5.805
 3408POPC   GL244018  29.422  41.762   5.819
 3408POPC   C1A44019  29.010  41.330   6.170
 3408POPC   D2A44020  29.048  41.118   6.566
 3408POPC   C3A44021  29.132  41.354   6.994
 3408POPC   C4A44022  28.941  41.659   7.327
 3408POPC   C1B44023  29.366  41.662   6.273
 3408POPC   C2B44024  29.008  41.667   6.579
 3408POPC   C3B44025  29.134  41.909   6.947
 3408POPC   C4B44026  29.424  41.773   7.294
 3409POPC   NC344027  10.040   4.622   5.330
 3409POPC   PO444028   9.412   4.315   5.329
 3409POPC   GL144029   9.663   4.486   5.655
 3409POPC   GL244030   9.440   4.638   5.864
 3409POPC   C1A44031   9.901   4.595   6.064
 3409POPC   D2A44032   9.982   4.424   6.484
 3409POPC   C3A44033   9.848   4.068   6.760
 3409POPC   C4A44034   9.822   4.211   7.182
 3409POPC   C1B44035   9.560   4.232   6.092
 3409POPC   C2B44036   9.460   4.228   6.491
 3409POPC   C3B44037   9.396   4.315   6.906
 3409POPC   C4B44038   9.377   4.698   7.153
 3410POPC   NC344039   4.096  35.951   5.172
 3410POPC   PO444040   4.440  36.485   5.341
 3410POPC   GL144041   4.267  36.163   5.618
 3410POPC   GL244042   4.016  36.336   5.704
 3410POPC   C1A44043   4.249  36.019   6.054
 3410POPC   D2A44044   4.044  36.008   6.476
 3410POPC   C3A44045   4.129  35.948   6.917
 3410POPC   C4A44046   4.396  36.168   7.163
 3410POPC   C1B44047   3.916  36.399   6.126
 3410POPC   C2B44048   3.766  36.426   6.571
 3410POPC   C3B44049   4.025  36.492   6.966
 3410POPC   C4B44050   3.998  36.333   7.420
 3411POPC   NC344051  19.233   6.897   5.313
 3411POPC   PO444052  19.006   6.282   5.490
 3411POPC   GL144053  19.194   6.576   5.768
 3411POPC   GL244054  18.903   6.787   5.682
 3411POPC   C1A44055  19.286   6.758   6.217
 3411POPC   D2A44056  18.983   6.811   6.567
 3411POPC   C3A44057  18.908   6.648   6.977
 3411POPC   C4A44058  18.905   6.447   7.402
 3411POPC   C1B44059  18.773   6.740   6.086
 3411POPC   C2B44060  18.621   7.055   6.341
 3411POPC   C3B44061  18.385   7.022   6.729
 3411POPC   C4B44062  18.546   6.992   7.165
 3412POPC   NC344063  13.173  35.176   5.643
 3412POPC   PO444064  13.520  35.552   5.203
 3412POPC   GL144065  13.627  35.410   5.643
 3412POPC   GL244066  13.374  35.610   5.822
 3412POPC   C1A44067  13.656  35.172   6.085
 3412POPC   D2A44068  13.665  35.116   6.567
 3412POPC   C3A44069  13.797  35.476   6.870
 3412POPC   C4A44070  13.773  35.513   7.354
 3412POPC   C1B44071  13.249  35.456   6.228
 3412POPC   C2B44072  13.339  35.643   6.592
 3412POPC   C3B44073  13.094  35.654   6.911
 3412POPC   C4B44074  13.253  35.508   7.276
 3413POPC   NC344075  25.346  21.806   5.189
 3413POPC   PO444076  24.946  22.322   5.413
 3413POPC   GL144077  25.164  22.397   5.828
 3413POPC   GL244078  25.003  22.080   6.025
 3413POPC   C1A44079  25.375  22.347   6.248
 3413POPC   D2A44080  25.364  22.085   6.616
 3413POPC   C3A44081  25.222  22.148   7.042
 3413POPC   C4A44082  25.249  22.322   7.462
 3413POPC   C1B44083  25.225  21.708   6.237
 3413POPC   C2B44084  25.362  21.591   6.582
 3413POPC   C3B44085  25.481  21.680   6.937
 3413POPC   C4B44086  25.262  21.665   7.299
 3414POPC   NC344087  29.589  37.143   5.393
 3414POPC   PO444088  30.146  36.771   5.364
 3414POPC   GL144089  29.956  36.719   5.761
 3414POPC   GL244090  29.621  36.728   5.726
 3414POPC   C1A44091  29.912  36.909   6.173
 3414POPC   D2A44092  29.705  37.099   6.534
 3414POPC   C3A44093  29.928  37.056   6.921
 3414POPC   C4A44094  30.162  37.141   7.322
 3414POPC   C1B44095  29.479  36.623   6.150
 3414POPC   C2B44096  29.640  36.582   6.563
 3414POPC   C3B44097  29.507  36.734   6.966
 3414POPC   C4B44098  29.774  36.793   7.329
 3415POPC   NC344099  23.947   3.766   5.447
 3415POPC   PO444100  24.072   3.110   5.454
 3415POPC   GL144101  23.980   3.370   5.817
 3415POPC   GL244102  23.699   3.603   5.845
 3415POPC   C1A44103  23.861   3.394   6.254
 3415POPC   D2A44104  23.762   3.589   6.589
 3415POPC   C3A44105  23.929   3.401   6.939
 3415POPC   C4A44106  23.670   3.296   7.258
 3415POPC   C1B44107  23.424   3.844   6.162
 3415POPC   C2B44108  23.432   3.992   6.599
 3415POPC   C3B44109  23.286   3.967   7.025
 3415POPC   C4B44110  23.389   3.991   7.509
 3416POPC   NC344111   3.105  34.301   5.381
 3416POPC   PO444112   2.616  34.806   5.571
 3416POPC   GL144113   2.797  34.521   5.838
 3416POPC   GL244114   3.148  34.609   5.796
 3416POPC   C1A44115   2.873  34.763   6.216
 3416POPC   D2A44116   2.864  34.992   6.586
 3416POPC   C3A44117   2.698  34.719   6.883
 3416POPC   C4A44118   2.894  34.709   7.267
 3416POPC   C1B44119   3.243  34.416   6.172
 3416POPC   C2B44120   3.005  34.349   6.543
 3416POPC   C3B44121   3.186  34.413   6.937
 3416POPC   C4B44122   3.175  34.288   7.341
 3417POPC   NC344123   8.370  40.206   5.447
 3417POPC   PO444124   7.867  39.726   5.421
 3417POPC   GL144125   7.837  39.924   5.802
 3417POPC   GL244126   7.831  40.314   5.740
 3417POPC   C1A44127   7.938  39.768   6.215
 3417POPC   D2A44128   8.129  39.944   6.566
 3417POPC   C3A44129   8.052  39.821   6.969
 3417POPC   C4A44130   8.417  39.963   7.175
 3417POPC   C1B44131   7.884  40.280   6.195
 3417POPC   C2B44132   7.898  40.409   6.614
 3417POPC   C3B44133   7.906  40.313   7.059
 3417POPC   C4B44134   8.087  40.229   7.480
 3418POPC   NC344135  33.416  31.304   5.439
 3418POPC   PO444136  32.731  31.418   5.405
 3418POPC   GL144137  32.854  31.451   5.824
 3418POPC   GL244138  33.200  31.372   5.908
 3418POPC   C1A44139  32.762  31.658   6.199
 3418POPC   D2A44140  32.556  31.655   6.565
 3418POPC   C3A44141  32.776  31.401   6.836
 3418POPC   C4A44142  32.789  31.501   7.258
 3418POPC   C1B44143  33.267  31.722   6.171
 3418POPC   C2B44144  33.130  31.821   6.583
 3418POPC   C3B44145  33.230  31.597   6.960
 3418POPC   C4B44146  33.287  31.518   7.395
 3419POPC   NC344147  35.967  43.095   5.357
 3419POPC   PO444148  36.384  43.354   5.744
 3419POPC   GL144149  36.040  43.140   5.858
 3419POPC   GL244150  35.801  43.381   5.760
 3419POPC   C1A44151  36.053  42.857   6.209
 3419POPC   D2A44152  36.401  42.864   6.523
 3419POPC   C3A44153  36.236  43.050   6.916
 3419POPC   C4A44154  35.988  42.842   7.209
 3419POPC   C1B44155  35.701  43.250   6.224
 3419POPC   C2B44156  35.793  43.090   6.648
 3419POPC   C3B44157  35.799  43.297   7.069
 3419POPC   C4B44158  36.107  43.512   7.268
 3420POPC   NC344159  39.459  25.908   5.582
 3420POPC   PO444160  38.908  25.570   5.460
 3420POPC   GL144161  38.830  25.755   5.898
 3420POPC   GL244162  38.982  26.083   5.917
 3420POPC   C1A44163  38.908  25.749   6.352
 3420POPC   D2A44164  38.909  26.108   6.655
 3420POPC   C3A44165  39.200  26.080   6.989
 3420POPC   C4A44166  39.209  25.717   7.216
 3420POPC   C1B44167  39.292  26.116   6.275
 3420POPC   C2B44168  39.644  26.141   6.584
 3420POPC   C3B44169  39.635  26.338   6.959
 3420POPC   C4B44170  39.468  26.647   7.152
 3421POPC   NC344171  20.482  14.874   5.477
 3421POPC   PO444172  20.734  15.434   5.469
 3421POPC   GL144173  20.791  15.186   5.833
 3421POPC   GL244174  20.475  15.192   5.920
 3421POPC   C1A44175  20.805  14.958   6.271
 3421POPC   D2A44176  20.886  15.008   6.752
 3421POPC   C3A44177  20.671  14.798   7.151
 3421POPC   C4A44178  20.407  14.729   7.534
 3421POPC   C1B44179  20.656  15.448   6.279
 3421POPC   C2B44180  20.488  15.444   6.697
 3421POPC   C3B44181  20.639  15.331   7.075
 3421POPC   C4B44182  21.020  15.173   7.260
 3422POPC   NC344183   0.669  43.625   5.409
 3422POPC   PO444184   1.304  43.730   5.355
 3422POPC   GL144185   1.141  43.842   5.785
 3422POPC   GL244186   1.034  44.172   5.869
 3422POPC   C1A44187   1.078  43.643   6.202
 3422POPC   D2A44188   1.119  43.493   6.623
 3422POPC   C3A44189   1.265  43.802   6.945
 3422POPC   C4A44190   1.110  43.682   7.340
 3422POPC   C1B44191   1.255  44.115   6.260
 3422POPC   C2B44192   1.412  44.243   6.660
 3422POPC   C3B44193   1.601  44.221   7.062
 3422POPC   C4B44194   1.311  44.127   7.405
 3423POPC   NC344195   0.601  34.459   5.442
 3423POPC   PO444196   0.541  35.121   5.508
 3423POPC   GL144197   0.392  34.772   5.819
 3423POPC   GL244198   0.514  34.400   5.936
 3423POPC   C1A44199   0.463  34.798   6.267
 3423POPC   D2A44200   0.435  34.540   6.622
 3423POPC   C3A44201   0.419  34.833   6.954
 3423POPC   C4A44202   0.556  34.976   7.346
 3423POPC   C1B44203   0.109  34.439   6.175
 3423POPC   C2B44204  44.934  34.421   6.599
 3423POPC   C3B44205   0.102  34.420   7.017
 3423POPC   C4B44206   0.428  34.483   7.335
 3424POPC   NC344207   7.652  20.154   5.445
 3424POPC   PO444208   7.059  19.743   5.446
 3424POPC   GL144209   7.435  19.782   5.741
 3424POPC   GL244210   7.663  19.534   5.862
 3424POPC   C1A44211   7.393  19.815   6.190
 3424POPC   D2A44212   7.159  19.893   6.543
 3424POPC   C3A44213   7.371  19.927   6.896
 3424POPC   C4A44214   7.170  19.774   7.233
 3424POPC   C1B44215   7.791  19.493   6.261
 3424POPC   C2B44216   7.500  19.472   6.604
 3424POPC   C3B44217   7.621  19.518   7.022
 3424POPC   C4B44218   7.793  19.297   7.303
 3425POPC   NC344219   7.863  38.882   5.534
 3425POPC   PO444220   7.213  38.980   5.550
 3425POPC   GL144221   7.387  39.125   5.901
 3425POPC   GL244222   7.492  39.469   5.784
 3425POPC   C1A44223   7.271  39.013   6.346
 3425POPC   D2A44224   7.509  38.906   6.715
 3425POPC   C3A44225   7.378  39.110   7.063
 3425POPC   C4A44226   7.299  39.004   7.464
 3425POPC   C1B44227   7.293  39.504   6.207
 3425POPC   C2B44228   7.439  39.443   6.611
 3425POPC   C3B44229   7.591  39.566   6.989
 3425POPC   C4B44230   7.338  39.545   7.368
 3426POPC   NC344231   6.827  23.981   5.275
 3426POPC   PO444232   6.231  24.197   5.451
 3426POPC   GL144233   6.503  23.979   5.741
 3426POPC   GL244234   6.485  23.626   5.813
 3426POPC   C1A44235   6.687  23.995   6.172
 3426POPC   D2A44236   6.748  23.706   6.539
 3426POPC   C3A44237   6.584  23.760   6.960
 3426POPC   C4A44238   6.714  23.952   7.356
 3426POPC   C1B44239   6.668  23.334   6.158
 3426POPC   C2B44240   6.761  23.192   6.602
 3426POPC   C3B44241   6.854  23.327   7.049
 3426POPC   C4B44242   6.996  23.508   7.455
 3427POPC   NC344243   5.993  43.728   5.447
 3427POPC   PO444244   5.535  44.227   5.286
 3427POPC   GL144245   5.857  44.195   5.671
 3427POPC   GL244246   5.937  43.856   5.912
 3427POPC   C1A44247   6.018  44.289   6.114
 3427POPC   D2A44248   5.911  43.964   6.418
 3427POPC   C3A44249   5.886  44.105   6.834
 3427POPC   C4A44250   5.897  43.898   7.235
 3427POPC   C1B44251   5.630  43.565   6.066
 3427POPC   C2B44252   5.478  43.484   6.452
 3427POPC   C3B44253   5.648  43.637   6.828
 3427POPC   C4B44254   5.701  43.399   7.180
 3428POPC   NC344255  17.009  22.320   5.373
 3428POPC   PO444256  16.403  22.353   5.713
 3428POPC   GL144257  16.785  22.095   5.793
 3428POPC   GL244258  17.096  22.282   5.910
 3428POPC   C1A44259  16.900  21.878   6.175
 3428POPC   D2A44260  16.695  21.965   6.552
 3428POPC   C3A44261  16.889  22.028   6.935
 3428POPC   C4A44262  16.696  22.154   7.329
 3428POPC   C1B44263  16.782  22.380   6.246
 3428POPC   C2B44264  16.519  22.487   6.612
 3428POPC   C3B44265  16.593  22.567   7.047
 3428POPC   C4B44266  16.824  22.702   7.446
 3429POPC   NC344267  30.969  30.342   5.595
 3429POPC   PO444268  30.714  30.879   5.646
 3429POPC   GL144269  30.755  30.593   5.992
 3429POPC   GL244270  30.547  30.284   5.925
 3429POPC   C1A44271  30.833  30.685   6.410
 3429POPC   D2A44272  31.100  30.811   6.746
 3429POPC   C3A44273  30.801  30.899   7.045
 3429POPC   C4A44274  30.683  31.050   7.459
 3429POPC   C1B44275  30.602  30.201   6.373
 3429POPC   C2B44276  30.512  30.418   6.752
 3429POPC   C3B44277  30.701  30.371   7.138
 3429POPC   C4B44278  30.647  30.539   7.508
 3430POPC   NC344279   8.274  28.132   5.211
 3430POPC   PO444280   7.838  28.546   5.539
 3430POPC   GL144281   8.181  28.371   5.802
 3430POPC   GL244282   8.405  28.051   5.702
 3430POPC   C1A44283   8.180  28.487   6.263
 3430POPC   D2A44284   8.115  28.399   6.695
 3430POPC   C3A44285   8.292  28.612   7.049
 3430POPC   C4A44286   8.079  28.462   7.428
 3430POPC   C1B44287   8.542  28.171   6.122
 3430POPC   C2B44288   8.618  28.318   6.554
 3430POPC   C3B44289   8.515  28.146   6.962
 3430POPC   C4B44290   8.544  28.281   7.389
 3431POPC   NC344291  25.469  39.364   5.549
 3431POPC   PO444292  25.226  39.949   5.341
 3431POPC   GL144293  25.347  39.850   5.788
 3431POPC   GL244294  25.570  40.126   5.859
 3431POPC   C1A44295  25.188  39.770   6.249
 3431POPC   D2A44296  24.869  39.948   6.519
 3431POPC   C3A44297  24.969  39.903   6.957
 3431POPC   C4A44298  25.234  39.946   7.318
 3431POPC   C1B44299  25.672  39.915   6.229
 3431POPC   C2B44300  25.514  39.891   6.665
 3431POPC   C3B44301  25.590  40.161   7.018
 3431POPC   C4B44302  25.652  40.199   7.464
 3432POPC   NC344303   6.450  11.854   5.291
 3432POPC   PO444304   7.115  11.985   5.209
 3432POPC   GL144305   6.963  11.949   5.663
 3432POPC   GL244306   6.615  12.034   5.734
 3432POPC   C1A44307   6.989  11.891   6.126
 3432POPC   D2A44308   6.834  11.707   6.540
 3432POPC   C3A44309   6.726  12.015   6.885
 3432POPC   C4A44310   6.879  12.268   7.258
 3432POPC   C1B44311   6.479  11.836   6.107
 3432POPC   C2B44312   6.326  11.842   6.511
 3432POPC   C3B44313   6.295  11.752   6.936
 3432POPC   C4B44314   6.439  11.994   7.335
 3433POPC   NC344315  19.551  29.781   5.429
 3433POPC   PO444316  20.179  29.673   5.450
 3433POPC   GL144317  19.931  29.840   5.819
 3433POPC   GL244318  19.741  30.150   5.858
 3433POPC   C1A44319  19.921  29.929   6.275
 3433POPC   D2A44320  19.845  29.762   6.691
 3433POPC   C3A44321  19.905  30.019   7.011
 3433POPC   C4A44322  20.125  29.884   7.356
 3433POPC   C1B44323  19.534  30.317   6.262
 3433POPC   C2B44324  19.565  30.386   6.754
 3433POPC   C3B44325  19.472  30.222   7.213
 3433POPC   C4B44326  19.452  30.285   7.703
 3434POPC   NC344327  13.598  29.032   5.127
 3434POPC   PO444328  13.443  28.413   5.394
 3434POPC   GL144329  13.660  28.297   5.783
 3434POPC   GL244330  13.812  28.575   5.988
 3434POPC   C1A44331  13.648  28.129   6.204
 3434POPC   D2A44332  13.728  28.314   6.594
 3434POPC   C3A44333  13.631  28.053   6.953
 3434POPC   C4A44334  13.723  28.178   7.392
 3434POPC   C1B44335  13.347  28.538   6.171
 3434POPC   C2B44336  13.217  28.568   6.630
 3434POPC   C3B44337  13.489  28.527   7.020
 3434POPC   C4B44338  13.466  28.748   7.405
 3435POPC   NC344339  23.082  41.758   5.529
 3435POPC   PO444340  22.731  41.261   5.384
 3435POPC   GL144341  22.865  41.367   5.802
 3435POPC   GL244342  22.771  41.712   5.923
 3435POPC   C1A44343  22.992  41.401   6.259
 3435POPC   D2A44344  23.246  41.477   6.620
 3435POPC   C3A44345  23.060  41.511   7.028
 3435POPC   C4A44346  22.968  41.738   7.425
 3435POPC   C1B44347  22.496  41.355   6.139
 3435POPC   C2B44348  22.642  41.124   6.528
 3435POPC   C3B44349  22.532  41.204   6.947
 3435POPC   C4B44350  22.732  41.288   7.343
 3436POPC   NC344351  37.112  30.613   4.977
 3436POPC   PO444352  36.653  30.458   5.403
 3436POPC   GL144353  36.864  30.727   5.690
 3436POPC   GL244354  37.202  30.763   5.578
 3436POPC   C1A44355  36.780  30.805   6.119
 3436POPC   D2A44356  36.729  30.976   6.542
 3436POPC   C3A44357  36.676  30.709   6.882
 3436POPC   C4A44358  36.822  30.824   7.321
 3436POPC   C1B44359  37.284  30.814   6.017
 3436POPC   C2B44360  37.182  30.776   6.460
 3436POPC   C3B44361  37.143  30.910   6.877
 3436POPC   C4B44362  37.400  30.801   7.179
 3437POPC   NC344363  44.373  37.874   5.461
 3437POPC   PO444364  43.771  37.669   5.334
 3437POPC   GL144365  43.890  37.583   5.746
 3437POPC   GL244366  44.187  37.419   5.710
 3437POPC   C1A44367  43.766  37.625   6.163
 3437POPC   D2A44368  43.728  37.922   6.494
 3437POPC   C3A44369  43.543  37.720   6.834
 3437POPC   C4A44370  43.791  37.791   7.219
 3437POPC   C1B44371  44.210  37.314   6.127
 3437POPC   C2B44372  44.118  37.457   6.517
 3437POPC   C3B44373  43.947  37.413   6.904
 3437POPC   C4B44374  44.093  37.292   7.277
 3438POPC   NC344375   8.892   6.787   5.326
 3438POPC   PO444376   9.172   6.191   5.316
 3438POPC   GL144377   9.120   6.483   5.694
 3438POPC   GL244378   8.851   6.723   5.826
 3438POPC   C1A44379   9.198   6.484   6.158
 3438POPC   D2A44380   9.306   6.254   6.560
 3438POPC   C3A44381   9.114   6.462   6.931
 3438POPC   C4A44382   9.143   6.895   7.122
 3438POPC   C1B44383   8.779   6.808   6.281
 3438POPC   C2B44384   8.786   6.834   6.748
 3438POPC   C3B44385   8.703   6.612   7.178
 3438POPC   C4B44386   8.835   6.183   7.350
 3439POPC   NC344387  14.604  13.203   5.675
 3439POPC   PO444388  14.215  13.657   5.326
 3439POPC   GL144389  14.385  13.661   5.728
 3439POPC   GL244390  14.156  13.413   5.831
 3439POPC   C1A44391  14.628  13.709   6.121
 3439POPC   D2A44392  14.537  13.591   6.562
 3439POPC   C3A44393  14.437  13.849   6.889
 3439POPC   C4A44394  14.552  13.778   7.307
 3439POPC   C1B44395  14.327  13.257   6.241
 3439POPC   C2B44396  14.201  13.174   6.653
 3439POPC   C3B44397  14.453  13.320   7.007
 3439POPC   C4B44398  14.274  13.351   7.392
 3440POPC   NC344399  42.775  14.047   5.513
 3440POPC   PO444400  42.394  13.560   5.382
 3440POPC   GL144401  42.516  13.671   5.821
 3440POPC   GL244402  42.630  13.981   5.998
 3440POPC   C1A44403  42.278  13.676   6.214
 3440POPC   D2A44404  42.139  13.934   6.544
 3440POPC   C3A44405  42.147  13.709   6.933
 3440POPC   C4A44406  42.155  13.402   7.262
 3440POPC   C1B44407  42.809  13.713   6.314
 3440POPC   C2B44408  42.715  13.328   6.547
 3440POPC   C3B44409  42.597  13.345   7.000
 3440POPC   C4B44410  42.561  13.751   7.237
 3441POPC   NC344411  38.035  24.907   5.453
 3441POPC   PO444412  38.271  24.235   5.374
 3441POPC   GL144413  38.422  24.531   5.665
 3441POPC   GL244414  38.125  24.455   5.850
 3441POPC   C1A44415  38.573  24.483   6.080
 3441POPC   D2A44416  38.288  24.435   6.414
 3441POPC   C3A44417  38.454  24.386   6.805
 3441POPC   C4A44418  38.562  24.404   7.235
 3441POPC   C1B44419  38.108  24.055   6.146
 3441POPC   C2B44420  38.115  23.971   6.623
 3441POPC   C3B44421  38.215  24.050   7.094
 3441POPC   C4B44422  38.279  24.035   7.548
 3442POPC   NC344423  38.175   9.587   5.624
 3442POPC   PO444424  38.698   9.661   5.246
 3442POPC   GL144425  38.719   9.653   5.738
 3442POPC   GL244426  38.431   9.656   6.031
 3442POPC   C1A44427  38.885   9.762   6.165
 3442POPC   D2A44428  38.599   9.694   6.533
 3442POPC   C3A44429  38.714   9.810   6.973
 3442POPC   C4A44430  38.405   9.826   7.300
 3442POPC   C1B44431  38.265  10.014   6.217
 3442POPC   C2B44432  38.202  10.228   6.558
 3442POPC   C3B44433  38.233  10.063   6.905
 3442POPC   C4B44434  38.169  10.277   7.282
 3443POPC   NC344435  20.994  43.267   5.401
 3443POPC   PO444436  20.370  42.878   5.355
 3443POPC   GL144437  20.534  43.001   5.756
 3443POPC   GL244438  20.624  43.347   5.769
 3443POPC   C1A44439  20.621  42.943   6.216
 3443POPC   D2A44440  20.634  43.174   6.638
 3443POPC   C3A44441  20.417  43.006   7.036
 3443POPC   C4A44442  20.397  43.086   7.514
 3443POPC   C1B44443  20.283  43.329   6.098
 3443POPC   C2B44444  20.231  43.520   6.513
 3443POPC   C3B44445  20.368  43.531   6.945
 3443POPC   C4B44446  20.734  43.526   7.158
 3444POPC   NC344447  34.163  33.685   5.461
 3444POPC   PO444448  34.649  34.147   5.428
 3444POPC   GL144449  34.533  33.903   5.777
 3444POPC   GL244450  34.209  34.102   5.768
 3444POPC   C1A44451  34.631  33.647   6.183
 3444POPC   D2A44452  34.741  33.812   6.607
 3444POPC   C3A44453  34.652  33.631   7.017
 3444POPC   C4A44454  34.896  33.789   7.366
 3444POPC   C1B44455  34.175  33.859   6.154
 3444POPC   C2B44456  34.240  33.723   6.584
 3444POPC   C3B44457  34.264  33.978   6.958
 3444POPC   C4B44458  34.384  33.912   7.386
 3445POPC   NC344459  36.489  25.587   5.166
 3445POPC   PO444460  36.895  25.027   5.345
 3445POPC   GL144461  37.028  25.316   5.664
 3445POPC   GL244462  37.179  25.075   5.867
 3445POPC   C1A44463  37.039  25.494   6.110
 3445POPC   D2A44464  37.069  25.315   6.502
 3445POPC   C3A44465  37.086  25.530   6.886
 3445POPC   C4A44466  36.919  25.380   7.269
 3445POPC   C1B44467  37.395  24.988   6.275
 3445POPC   C2B44468  37.395  24.923   6.738
 3445POPC   C3B44469  37.374  25.146   7.133
 3445POPC   C4B44470  37.364  24.982   7.560
 3446POPC   NC344471  39.216  12.760   5.249
 3446POPC   PO444472  39.447  13.295   5.551
 3446POPC   GL144473  39.361  12.974   5.823
 3446POPC   GL244474  39.498  12.654   5.715
 3446POPC   C1A44475  39.215  13.068   6.241
 3446POPC   D2A44476  38.880  13.065   6.552
 3446POPC   C3A44477  39.085  13.109   6.932
 3446POPC   C4A44478  39.097  12.949   7.335
 3446POPC   C1B44479  39.406  12.580   6.175
 3446POPC   C2B44480  39.257  12.682   6.626
 3446POPC   C3B44481  39.480  12.760   7.048
 3446POPC   C4B44482  39.423  12.566   7.476
 3447POPC   NC344483   7.743  18.194   5.717
 3447POPC   PO444484   8.195  18.574   5.413
 3447POPC   GL144485   8.275  18.394   5.813
 3447POPC   GL244486   8.442  18.668   5.945
 3447POPC   C1A44487   8.352  18.145   6.194
 3447POPC   D2A44488   8.369  18.305   6.627
 3447POPC   C3A44489   8.093  18.091   6.955
 3447POPC   C4A44490   8.288  18.091   7.370
 3447POPC   C1B44491   8.078  18.585   6.250
 3447POPC   C2B44492   7.914  18.560   6.698
 3447POPC   C3B44493   8.140  18.566   7.090
 3447POPC   C4B44494   8.157  18.562   7.554
 3448POPC   NC344495   4.009  11.116   5.245
 3448POPC   PO444496   4.533  11.528   5.375
 3448POPC   GL144497   4.418  11.270   5.773
 3448POPC   GL244498   4.110  11.059   5.741
 3448POPC   C1A44499   4.357  11.136   6.223
 3448POPC   D2A44500   4.314  11.270   6.609
 3448POPC   C3A44501   4.503  11.148   6.953
 3448POPC   C4A44502   4.319  11.370   7.277
 3448POPC   C1B44503   4.004  10.819   6.107
 3448POPC   C2B44504   3.882  11.023   6.490
 3448POPC   C3B44505   4.011  10.982   6.911
 3448POPC   C4B44506   4.206  10.862   7.283
 3449POPC   NC344507  25.375  34.809   5.483
 3449POPC   PO444508  25.105  34.277   5.092
 3449POPC   GL144509  25.267  34.100   5.682
 3449POPC   GL244510  25.499  34.347   5.772
 3449POPC   C1A44511  25.228  34.244   6.197
 3449POPC   D2A44512  25.100  34.667   6.445
 3449POPC   C3A44513  25.053  34.755   6.912
 3449POPC   C4A44514  24.935  34.484   7.241
 3449POPC   C1B44515  25.563  34.639   6.138
 3449POPC   C2B44516  25.575  34.503   6.578
 3449POPC   C3B44517  25.549  34.597   7.015
 3449POPC   C4B44518  25.512  34.992   7.214
 3450POPC   NC344519  22.972  33.248   5.341
 3450POPC   PO444520  22.971  32.604   5.480
 3450POPC   GL144521  22.949  32.953   5.780
 3450POPC   GL244522  22.728  33.285   5.781
 3450POPC   C1A44523  23.157  32.940   6.209
 3450POPC   D2A44524  23.311  33.010   6.631
 3450POPC   C3A44525  23.115  32.867   7.013
 3450POPC   C4A44526  23.296  33.045   7.423
 3450POPC   C1B44527  22.652  33.039   6.162
 3450POPC   C2B44528  22.788  32.977   6.565
 3450POPC   C3B44529  22.667  33.136   6.932
 3450POPC   C4B44530  22.792  33.094   7.320
 3451POPC   NC344531  43.813  37.210   5.381
 3451POPC   PO444532  43.591  36.711   5.110
 3451POPC   GL144533  43.655  36.893   5.716
 3451POPC   GL244534  43.549  36.608   5.953
 3451POPC   C1A44535  43.988  36.846   6.092
 3451POPC   D2A44536  44.243  36.737   6.485
 3451POPC   C3A44537  44.270  37.006   6.854
 3451POPC   C4A44538  44.246  36.801   7.259
 3451POPC   C1B44539  43.571  36.700   6.351
 3451POPC   C2B44540  43.821  37.008   6.584
 3451POPC   C3B44541  43.804  36.913   7.004
 3451POPC   C4B44542  43.593  36.532   7.114
 3452POPC   NC344543   2.121   8.484   5.563
 3452POPC   PO444544   1.607   7.906   5.497
 3452POPC   GL144545   1.806   7.975   5.913
 3452POPC   GL244546   1.883   8.326   5.970
 3452POPC   C1A44547   2.057   7.984   6.338
 3452POPC   D2A44548   2.009   8.217   6.681
 3452POPC   C3A44549   2.244   8.152   7.027
 3452POPC   C4A44550   2.152   8.279   7.443
 3452POPC   C1B44551   1.715   8.656   6.202
 3452POPC   C2B44552   1.837   8.695   6.619
 3452POPC   C3B44553   1.672   8.706   7.011
 3452POPC   C4B44554   1.770   8.650   7.419
 3453POPC   NC344555   6.641  28.144   4.928
 3453POPC   PO444556   6.416  28.565   5.375
 3453POPC   GL144557   6.506  28.394   5.777
 3453POPC   GL244558   6.713  28.666   5.906
 3453POPC   C1A44559   6.622  28.163   6.163
 3453POPC   D2A44560   6.731  28.325   6.555
 3453POPC   C3A44561   6.793  28.086   6.907
 3453POPC   C4A44562   6.529  27.981   7.211
 3453POPC   C1B44563   6.690  28.796   6.335
 3453POPC   C2B44564   6.620  28.763   6.780
 3453POPC   C3B44565   6.784  28.549   7.121
 3453POPC   C4B44566   7.008  28.240   7.330
 3454POPC   NC344567  38.764  17.425   5.376
 3454POPC   PO444568  38.281  17.887   5.259
 3454POPC   GL144569  38.506  17.756   5.675
 3454POPC   GL244570  38.420  17.412   5.782
 3454POPC   C1A44571  38.718  17.696   6.116
 3454POPC   D2A44572  38.702  17.838   6.562
 3454POPC   C3A44573  38.760  17.568   6.917
 3454POPC   C4A44574  38.621  17.612   7.319
 3454POPC   C1B44575  38.289  17.355   6.219
 3454POPC   C2B44576  38.332  17.303   6.657
 3454POPC   C3B44577  38.425  17.216   7.056
 3454POPC   C4B44578  38.193  17.197   7.408
 3455POPC   NC344579  19.542  16.145   5.369
 3455POPC   PO444580  19.847  15.528   5.426
 3455POPC   GL144581  19.870  15.922   5.718
 3455POPC   GL244582  20.187  16.053   5.754
 3455POPC   C1A44583  19.852  15.995   6.204
 3455POPC   D2A44584  19.968  15.753   6.617
 3455POPC   C3A44585  19.734  15.769   7.025
 3455POPC   C4A44586  19.708  16.069   7.360
 3455POPC   C1B44587  20.219  16.345   6.105
 3455POPC   C2B44588  20.119  16.375   6.554
 3455POPC   C3B44589  20.086  16.171   6.968
 3455POPC   C4B44590  20.209  16.083   7.395
 3456POPC   NC344591  22.878  35.016   5.630
 3456POPC   PO444592  22.640  34.396   5.509
 3456POPC   GL144593  22.714  34.627   5.884
 3456POPC   GL244594  23.068  34.623   5.922
 3456POPC   C1A44595  22.636  34.918   6.269
 3456POPC   D2A44596  22.773  34.987   6.697
 3456POPC   C3A44597  23.032  34.617   6.847
 3456POPC   C4A44598  23.143  34.267   7.152
 3456POPC   C1B44599  23.152  34.976   6.215
 3456POPC   C2B44600  23.271  35.116   6.599
 3456POPC   C3B44601  23.223  35.047   7.037
 3456POPC   C4B44602  23.242  34.737   7.349
 3457POPC   NC344603  20.074  22.132   5.245
 3457POPC   PO444604  19.562  21.701   5.418
 3457POPC   GL144605  19.719  22.038   5.667
 3457POPC   GL244606  19.488  22.340   5.607
 3457POPC   C1A44607  19.829  21.926   6.099
 3457POPC   D2A44608  19.676  21.794   6.510
 3457POPC   C3A44609  19.886  21.865   6.890
 3457POPC   C4A44610  19.757  22.084   7.262
 3457POPC   C1B44611  19.693  22.413   6.015
 3457POPC   C2B44612  19.965  22.343   6.387
 3457POPC   C3B44613  19.889  22.381   6.824
 3457POPC   C4B44614  19.872  22.593   7.188
 3458POPC   NC344615  40.257  34.079   4.865
 3458POPC   PO444616  39.911  33.655   5.163
 3458POPC   GL144617  39.825  33.731   5.665
 3458POPC   GL244618  40.160  33.740   5.770
 3458POPC   C1A44619  39.763  33.878   6.120
 3458POPC   D2A44620  39.780  33.673   6.551
 3458POPC   C3A44621  39.683  33.817   6.933
 3458POPC   C4A44622  39.875  33.695   7.294
 3458POPC   C1B44623  40.270  33.993   6.132
 3458POPC   C2B44624  40.134  34.058   6.553
 3458POPC   C3B44625  40.244  33.896   6.950
 3458POPC   C4B44626  40.175  34.121   7.278
 3459POPC   NC344627   9.362  28.510   5.499
 3459POPC   PO444628  10.052  28.672   5.465
 3459POPC   GL144629   9.772  28.704   5.796
 3459POPC   GL244630   9.747  28.361   5.825
 3459POPC   C1A44631   9.913  28.666   6.241
 3459POPC   D2A44632   9.918  28.372   6.586
 3459POPC   C3A44633  10.076  28.441   6.989
 3459POPC   C4A44634   9.787  28.474   7.328
 3459POPC   C1B44635   9.581  28.246   6.182
 3459POPC   C2B44636   9.457  28.054   6.536
 3459POPC   C3B44637   9.558  28.224   6.912
 3459POPC   C4B44638   9.474  28.070   7.265
 3460POPC   NC344639  30.347  40.375   5.475
 3460POPC   PO444640  30.759  39.808   5.430
 3460POPC   GL144641  30.779  39.766   5.867
 3460POPC   GL244642  31.042  39.536   5.886
 3460POPC   C1A44643  30.577  39.863   6.247
 3460POPC   D2A44644  30.468  40.022   6.628
 3460POPC   C3A44645  30.655  40.042   7.051
 3460POPC   C4A44646  30.649  40.068   7.483
 3460POPC   C1B44647  31.036  39.649   6.320
 3460POPC   C2B44648  30.873  39.712   6.718
 3460POPC   C3B44649  31.055  39.681   7.140
 3460POPC   C4B44650  31.013  39.705   7.604
 3461POPC   NC344651  12.188   6.002   5.570
 3461POPC   PO444652  11.561   5.777   5.388
 3461POPC   GL144653  11.780   5.785   5.786
 3461POPC   GL244654  12.034   5.562   5.823
 3461POPC   C1A44655  11.859   6.073   6.130
 3461POPC   D2A44656  11.723   6.192   6.545
 3461POPC   C3A44657  11.915   5.997   6.862
 3461POPC   C4A44658  11.887   5.912   7.285
 3461POPC   C1B44659  12.219   5.704   6.204
 3461POPC   C2B44660  12.170   5.556   6.625
 3461POPC   C3B44661  12.308   5.720   7.039
 3461POPC   C4B44662  12.674   5.771   7.266
 3462POPC   NC344663  30.888  19.839   5.382
 3462POPC   PO444664  30.301  20.173   5.589
 3462POPC   GL144665  30.686  20.077   5.825
 3462POPC   GL244666  30.798  19.730   5.894
 3462POPC   C1A44667  30.713  20.093   6.274
 3462POPC   D2A44668  30.495  20.100   6.692
 3462POPC   C3A44669  30.796  20.132   7.034
 3462POPC   C4A44670  30.970  19.802   7.305
 3462POPC   C1B44671  30.522  19.609   6.278
 3462POPC   C2B44672  30.586  19.454   6.680
 3462POPC   C3B44673  30.482  19.700   7.043
 3462POPC   C4B44674  30.442  19.985   7.383
 3463POPC   NC344675  42.717  11.019   5.406
 3463POPC   PO444676  43.243  11.522   5.458
 3463POPC   GL144677  42.991  11.312   5.806
 3463POPC   GL244678  43.266  11.125   5.910
 3463POPC   C1A44679  42.995  11.317   6.284
 3463POPC   D2A44680  43.266  11.161   6.606
 3463POPC   C3A44681  43.363  11.423   6.980
 3463POPC   C4A44682  43.329  11.268   7.401
 3463POPC   C1B44683  42.914  10.860   6.070
 3463POPC   C2B44684  42.823  10.863   6.520
 3463POPC   C3B44685  42.983  10.849   6.926
 3463POPC   C4B44686  42.868  11.083   7.287
 3464POPC   NC344687  12.538   5.072   5.460
 3464POPC   PO444688  13.168   4.954   5.372
 3464POPC   GL144689  13.048   5.162   5.786
 3464POPC   GL244690  12.748   5.384   5.835
 3464POPC   C1A44691  12.922   4.942   6.175
 3464POPC   D2A44692  12.844   5.023   6.593
 3464POPC   C3A44693  12.924   4.814   6.945
 3464POPC   C4A44694  13.216   4.971   7.246
 3464POPC   C1B44695  12.647   5.405   6.287
 3464POPC   C2B44696  12.650   5.460   6.746
 3464POPC   C3B44697  12.799   5.281   7.130
 3464POPC   C4B44698  12.598   5.333   7.510
 3465POPC   NC344699  35.288  23.859   5.459
 3465POPC   PO444700  35.895  23.649   5.457
 3465POPC   GL144701  35.657  23.758   5.811
 3465POPC   GL244702  35.374  23.486   5.819
 3465POPC   C1A44703  35.678  23.601   6.218
 3465POPC   D2A44704  35.435  23.551   6.560
 3465POPC   C3A44705  35.663  23.640   6.925
 3465POPC   C4A44706  35.410  23.556   7.273
 3465POPC   C1B44707  35.206  23.806   6.109
 3465POPC   C2B44708  35.063  23.945   6.505
 3465POPC   C3B44709  35.197  23.857   6.909
 3465POPC   C4B44710  35.062  23.947   7.307
 3466POPC   NC344711  38.960  25.098   5.459
 3466POPC   PO444712  39.547  25.458   5.471
 3466POPC   GL144713  39.413  25.220   5.834
 3466POPC   GL244714  39.103  25.323   5.909
 3466POPC   C1A44715  39.471  24.945   6.197
 3466POPC   D2A44716  39.711  24.959   6.597
 3466POPC   C3A44717  39.498  24.969   7.013
 3466POPC   C4A44718  39.354  25.205   7.383
 3466POPC   C1B44719  38.989  25.177   6.328
 3466POPC   C2B44720  39.035  25.122   6.803
 3466POPC   C3B44721  38.875  25.304   7.211
 3466POPC   C4B44722  39.002  25.477   7.610
 3467POPC   NC344723  44.172  29.097   5.346
 3467POPC   PO444724  43.420  29.129   5.274
 3467POPC   GL144725  43.644  29.118   5.719
 3467POPC   GL244726  43.936  29.326   5.781
 3467POPC   C1A44727  43.834  29.006   6.154
 3467POPC   D2A44728  43.663  29.094   6.557
 3467POPC   C3A44729  43.861  29.062   6.958
 3467POPC   C4A44730  43.702  29.087   7.379
 3467POPC   C1B44731  44.028  29.504   6.191
 3467POPC   C2B44732  44.115  29.340   6.588
 3467POPC   C3B44733  43.968  29.550   6.958
 3467POPC   C4B44734  44.192  29.501   7.273
 3468POPC   NC344735  25.162  17.917   5.638
 3468POPC   PO444736  25.409  18.379   5.110
 3468POPC   GL144737  25.437  18.419   5.584
 3468POPC   GL244738  25.133  18.574   5.765
 3468POPC   C1A44739  25.560  18.503   6.032
 3468POPC   D2A44740  25.492  18.222   6.374
 3468POPC   C3A44741  25.559  18.314   6.801
 3468POPC   C4A44742  25.257  18.226   7.144
 3468POPC   C1B44743  25.086  18.574   6.241
 3468POPC   C2B44744  24.856  18.665   6.632
 3468POPC   C3B44745  24.885  18.600   7.121
 3468POPC   C4B44746  25.151  18.641   7.469
 3469POPC   NC344747  18.633  42.376   5.367
 3469POPC   PO444748  18.032  42.070   5.368
 3469POPC   GL144749  18.220  42.264   5.765
 3469POPC   GL244750  18.279  42.592   5.680
 3469POPC   C1A44751  18.179  42.368   6.232
 3469POPC   D2A44752  18.386  42.274   6.645
 3469POPC   C3A44753  18.106  42.329   6.993
 3469POPC   C4A44754  17.860  42.202   7.336
 3469POPC   C1B44755  18.494  42.733   6.061
 3469POPC   C2B44756  18.393  42.795   6.529
 3469POPC   C3B44757  18.447  42.712   6.994
 3469POPC   C4B44758  18.668  42.779   7.387
 3470POPC   NC344759  33.216  40.852   5.341
 3470POPC   PO444760  32.842  41.270   5.475
 3470POPC   GL144761  33.017  40.869   5.806
 3470POPC   GL244762  33.388  40.874   5.854
 3470POPC   C1A44763  33.187  40.569   6.203
 3470POPC   D2A44764  33.260  40.719   6.655
 3470POPC   C3A44765  32.972  40.635   6.992
 3470POPC   C4A44766  33.031  40.684   7.413
 3470POPC   C1B44767  33.174  41.073   6.282
 3470POPC   C2B44768  32.863  41.054   6.689
 3470POPC   C3B44769  32.823  41.185   7.155
 3470POPC   C4B44770  32.610  41.438   7.526
 3471POPC   NC344771   0.944   6.814   5.363
 3471POPC   PO444772   0.252   6.832   5.315
 3471POPC   GL144773   0.228   6.793   5.796
 3471POPC   GL244774   0.359   6.462   5.861
 3471POPC   C1A44775   0.384   6.766   6.258
 3471POPC   D2A44776   0.592   6.636   6.665
 3471POPC   C3A44777   0.389   6.695   7.065
 3471POPC   C4A44778   0.433   6.921   7.456
 3471POPC   C1B44779   0.135   6.313   6.269
 3471POPC   C2B44780   0.122   6.389   6.732
 3471POPC   C3B44781   0.002   6.372   7.166
 3471POPC   C4B44782   0.251   6.293   7.538
 3472POPC   NC344783  25.471  29.576   5.118
 3472POPC   PO444784  25.018  29.964   5.379
 3472POPC   GL144785  25.241  30.128   5.728
 3472POPC   GL244786  25.533  29.916   5.815
 3472POPC   C1A44787  25.177  30.099   6.180
 3472POPC   D2A44788  25.256  29.878   6.580
 3472POPC   C3A44789  25.407  30.063   6.971
 3472POPC   C4A44790  25.128  29.893   7.264
 3472POPC   C1B44791  25.499  29.623   6.190
 3472POPC   C2B44792  25.680  29.547   6.616
 3472POPC   C3B44793  25.531  29.566   7.043
 3472POPC   C4B44794  25.539  29.708   7.482
 3473POPC   NC344795  32.048  36.373   5.244
 3473POPC   PO444796  32.362  35.767   5.393
 3473POPC   GL144797  32.123  36.021   5.735
 3473POPC   GL244798  32.140  36.433   5.742
 3473POPC   C1A44799  32.022  35.881   6.169
 3473POPC   D2A44800  32.290  35.767   6.527
 3473POPC   C3A44801  32.155  35.895   6.946
 3473POPC   C4A44802  31.861  36.171   7.162
 3473POPC   C1B44803  32.184  36.372   6.165
 3473POPC   C2B44804  32.064  36.243   6.568
 3473POPC   C3B44805  32.298  36.378   6.898
 3473POPC   C4B44806  32.237  36.515   7.290
 3474POPC   NC344807  42.159  34.760   5.447
 3474POPC   PO444808  41.936  34.199   5.516
 3474POPC   GL144809  42.247  34.400   5.802
 3474POPC   GL244810  42.530  34.646   5.827
 3474POPC   C1A44811  42.152  34.620   6.201
 3474POPC   D2A44812  42.282  34.514   6.621
 3474POPC   C3A44813  42.074  34.610   7.019
 3474POPC   C4A44814  42.113  34.812   7.428
 3474POPC   C1B44815  42.633  34.429   6.230
 3474POPC   C2B44816  42.783  34.560   6.654
 3474POPC   C3B44817  42.607  34.701   7.054
 3474POPC   C4B44818  42.428  34.421   7.372
 3475POPC   NC344819  14.775   4.576   5.168
 3475POPC   PO444820  14.483   4.059   5.470
 3475POPC   GL144821  14.459   4.281   5.857
 3475POPC   GL244822  14.529   4.619   5.868
 3475POPC   C1A44823  14.425   4.206   6.299
 3475POPC   D2A44824  14.122   4.188   6.602
 3475POPC   C3A44825  14.247   4.047   6.978
 3475POPC   C4A44826  14.610   4.221   7.172
 3475POPC   C1B44827  14.118   4.574   6.127
 3475POPC   C2B44828  13.777   4.551   6.436
 3475POPC   C3B44829  13.912   4.568   6.876
 3475POPC   C4B44830  14.146   4.464   7.240
 3476POPC   NC344831  38.226  15.726   4.940
 3476POPC   PO444832  38.550  16.005   5.433
 3476POPC   GL144833  38.602  15.939   5.834
 3476POPC   GL244834  38.778  15.648   5.871
 3476POPC   C1A44835  38.534  16.080   6.237
 3476POPC   D2A44836  38.455  15.867   6.634
 3476POPC   C3A44837  38.484  16.067   7.044
 3476POPC   C4A44838  38.389  15.982   7.462
 3476POPC   C1B44839  38.579  15.537   6.205
 3476POPC   C2B44840  38.768  15.452   6.576
 3476POPC   C3B44841  38.638  15.503   6.972
 3476POPC   C4B44842  38.791  15.736   7.290
 3477POPC   NC344843   9.152  26.757   5.410
 3477POPC   PO444844   9.799  26.971   5.411
 3477POPC   GL144845   9.711  26.952   5.851
 3477POPC   GL244846   9.333  26.978   5.855
 3477POPC   C1A44847   9.907  26.889   6.285
 3477POPC   D2A44848   9.936  26.627   6.672
 3477POPC   C3A44849   9.837  26.793   7.085
 3477POPC   C4A44850   9.954  26.679   7.516
 3477POPC   C1B44851   9.446  27.192   6.256
 3477POPC   C2B44852   9.575  27.217   6.690
 3477POPC   C3B44853   9.433  27.159   7.131
 3477POPC   C4B44854   9.441  26.797   7.432
 3478POPC   NC344855  16.765  10.965   5.164
 3478POPC   PO444856  16.729  10.422   5.587
 3478POPC   GL144857  16.735  10.511   6.024
 3478POPC   GL244858  17.054  10.440   6.024
 3478POPC   C1A44859  16.771  10.587   6.477
 3478POPC   D2A44860  17.013  10.359   6.784
 3478POPC   C3A44861  16.744  10.290   7.137
 3478POPC   C4A44862  16.658  10.709   7.276
 3478POPC   C1B44863  17.136  10.827   6.250
 3478POPC   C2B44864  17.064  11.011   6.661
 3478POPC   C3B44865  17.110  10.835   7.048
 3478POPC   C4B44866  17.201  10.434   7.282
 3479POPC   NC344867  41.181  28.715   5.421
 3479POPC   PO444868  40.547  28.425   5.359
 3479POPC   GL144869  40.686  28.350   5.756
 3479POPC   GL244870  40.997  28.495   5.879
 3479POPC   C1A44871  40.527  28.428   6.150
 3479POPC   D2A44872  40.689  28.568   6.546
 3479POPC   C3A44873  40.497  28.392   6.906
 3479POPC   C4A44874  40.607  28.569   7.295
 3479POPC   C1B44875  41.000  28.250   6.279
 3479POPC   C2B44876  40.962  28.165   6.740
 3479POPC   C3B44877  41.013  28.293   7.168
 3479POPC   C4B44878  40.940  28.342   7.624
 3480POPC   NC344879  34.960  38.353   5.553
 3480POPC   PO444880  34.345  38.371   5.344
 3480POPC   GL144881  34.481  38.504   5.794
 3480POPC   GL244882  34.157  38.646   5.919
 3480POPC   C1A44883  34.705  38.331   6.201
 3480POPC   D2A44884  34.997  38.263   6.552
 3480POPC   C3A44885  34.838  38.155   6.943
 3480POPC   C4A44886  34.708  38.372   7.285
 3480POPC   C1B44887  34.476  38.781   6.245
 3480POPC   C2B44888  34.645  38.657   6.638
 3480POPC   C3B44889  34.389  38.427   6.906
 3480POPC   C4B44890  34.180  38.526   7.296
 3481POPC   NC344891  27.055  43.444   5.410
 3481POPC   PO444892  26.780  42.903   5.558
 3481POPC   GL144893  26.865  42.929   5.974
 3481POPC   GL244894  27.080  43.188   5.870
 3481POPC   C1A44895  26.544  42.877   6.347
 3481POPC   D2A44896  26.566  42.691   6.771
 3481POPC   C3A44897  26.570  43.026   7.059
 3481POPC   C4A44898  26.997  43.121   7.057
 3481POPC   C1B44899  27.226  43.231   6.271
 3481POPC   C2B44900  27.203  43.514   6.596
 3481POPC   C3B44901  26.949  43.732   6.899
 3481POPC   C4B44902  26.785  43.530   7.240
 3482POPC   NC344903  29.684  16.758   5.423
 3482POPC   PO444904  30.287  17.154   5.536
 3482POPC   GL144905  29.915  17.079   5.775
 3482POPC   GL244906  29.935  16.715   5.859
 3482POPC   C1A44907  29.666  17.041   6.157
 3482POPC   D2A44908  29.735  16.751   6.511
 3482POPC   C3A44909  29.925  16.922   6.862
 3482POPC   C4A44910  29.885  17.064   7.285
 3482POPC   C1B44911  29.703  16.416   6.132
 3482POPC   C2B44912  29.643  16.233   6.584
 3482POPC   C3B44913  29.773  16.319   7.037
 3482POPC   C4B44914  30.049  16.587   7.250
 3483POPC   NC344915  37.761  36.472   5.436
 3483POPC   PO444916  37.932  35.811   5.297
 3483POPC   GL144917  37.617  35.893   5.673
 3483POPC   GL244918  37.510  36.250   5.804
 3483POPC   C1A44919  37.711  35.908   6.144
 3483POPC   D2A44920  38.056  35.856   6.471
 3483POPC   C3A44921  37.981  36.036   6.893
 3483POPC   C4A44922  37.931  36.082   7.353
 3483POPC   C1B44923  37.419  36.348   6.229
 3483POPC   C2B44924  37.501  36.140   6.623
 3483POPC   C3B44925  37.561  36.295   7.028
 3483POPC   C4B44926  37.563  36.471   7.431
 3484POPC   NC344927  38.860  27.279   5.568
 3484POPC   PO444928  38.441  27.700   5.177
 3484POPC   GL144929  38.566  27.751   5.630
 3484POPC   GL244930  38.254  27.848   5.776
 3484POPC   C1A44931  38.604  27.629   6.092
 3484POPC   D2A44932  38.637  27.350   6.431
 3484POPC   C3A44933  38.619  27.426   6.853
 3484POPC   C4A44934  38.758  27.674   7.143
 3484POPC   C1B44935  38.115  27.689   6.193
 3484POPC   C2B44936  38.210  27.601   6.622
 3484POPC   C3B44937  38.268  27.776   7.055
 3484POPC   C4B44938  38.072  27.919   7.424
 3485POPC   NC344939  42.922   4.605   5.505
 3485POPC   PO444940  43.293   4.072   5.425
 3485POPC   GL144941  43.241   4.267   5.827
 3485POPC   GL244942  43.164   4.608   5.950
 3485POPC   C1A44943  43.042   4.202   6.248
 3485POPC   D2A44944  42.799   3.972   6.553
 3485POPC   C3A44945  43.026   4.032   6.905
 3485POPC   C4A44946  43.226   3.966   7.268
 3485POPC   C1B44947  43.055   4.713   6.379
 3485POPC   C2B44948  42.877   4.486   6.720
 3485POPC   C3B44949  43.056   4.481   7.137
 3485POPC   C4B44950  42.850   4.685   7.454
 3486POPC   NC344951   5.346  33.735   5.362
 3486POPC   PO444952   4.743  34.043   5.458
 3486POPC   GL144953   4.920  33.853   5.819
 3486POPC   GL244954   5.234  33.664   5.860
 3486POPC   C1A44955   4.982  33.960   6.260
 3486POPC   D2A44956   5.092  33.810   6.686
 3486POPC   C3A44957   5.049  33.980   7.110
 3486POPC   C4A44958   4.867  33.848   7.527
 3486POPC   C1B44959   5.474  33.384   6.156
 3486POPC   C2B44960   5.443  33.437   6.633
 3486POPC   C3B44961   5.408  33.575   7.085
 3486POPC   C4B44962   5.231  33.471   7.530
 3487POPC   NC344963  11.347  19.669   5.316
 3487POPC   PO444964  11.121  20.236   5.510
 3487POPC   GL144965  11.104  19.889   5.786
 3487POPC   GL244966  11.423  19.722   5.813
 3487POPC   C1A44967  11.032  19.779   6.218
 3487POPC   D2A44968  11.110  19.614   6.637
 3487POPC   C3A44969  11.142  19.844   6.995
 3487POPC   C4A44970  11.238  19.753   7.390
 3487POPC   C1B44971  11.546  19.628   6.229
 3487POPC   C2B44972  11.593  19.385   6.591
 3487POPC   C3B44973  11.485  19.479   7.020
 3487POPC   C4B44974  11.568  19.368   7.458
 3488POPC   NC344975  10.167  21.206   5.477
 3488POPC   PO444976   9.601  21.490   5.447
 3488POPC   GL144977   9.607  21.256   5.845
 3488POPC   GL244978   9.972  21.338   5.946
 3488POPC   C1A44979   9.374  21.233   6.256
 3488POPC   D2A44980   9.406  21.115   6.718
 3488POPC   C3A44981   9.841  21.142   6.917
 3488POPC   C4A44982  10.032  21.191   7.341
 3488POPC   C1B44983  10.024  21.390   6.402
 3488POPC   C2B44984  10.055  21.601   6.791
 3488POPC   C3B44985   9.846  21.638   7.163
 3488POPC   C4B44986   9.686  21.935   7.434
 3489POPC   NC344987   8.294   1.436   5.375
 3489POPC   PO444988   8.153   2.081   5.325
 3489POPC   GL144989   8.421   2.057   5.723
 3489POPC   GL244990   8.388   1.675   5.810
 3489POPC   C1A44991   8.513   2.322   6.132
 3489POPC   D2A44992   8.213   2.263   6.512
 3489POPC   C3A44993   8.308   2.144   6.941
 3489POPC   C4A44994   7.914   2.081   7.161
 3489POPC   C1B44995   8.329   1.865   6.199
 3489POPC   C2B44996   8.608   1.937   6.548
 3489POPC   C3B44997   8.663   1.743   6.940
 3489POPC   C4B44998   8.568   1.868   7.364
 3490POPC   NC344999   4.086  40.623   5.289
 3490POPC   PO445000   4.388  41.206   5.388
 3490POPC   GL145001   4.220  40.893   5.716
 3490POPC   GL245002   4.463  40.616   5.736
 3490POPC   C1A45003   4.063  40.750   6.139
 3490POPC   D2A45004   3.976  40.889   6.575
 3490POPC   C3A45005   4.056  40.693   6.977
 3490POPC   C4A45006   4.127  40.878   7.376
 3490POPC   C1B45007   4.557  40.851   6.137
 3490POPC   C2B45008   4.720  40.846   6.559
 3490POPC   C3B45009   4.557  40.844   6.963
 3490POPC   C4B45010   4.546  40.476   7.172
 3491POPC   NC345011  15.557  15.347   5.286
 3491POPC   PO445012  15.312  14.772   5.163
 3491POPC   GL145013  15.167  15.097   5.560
 3491POPC   GL245014  15.457  15.197   5.800
 3491POPC   C1A45015  14.994  15.260   6.002
 3491POPC   D2A45016  15.164  15.422   6.437
 3491POPC   C3A45017  15.060  15.248   6.862
 3491POPC   C4A45018  15.135  15.420   7.266
 3491POPC   C1B45019  15.358  14.983   6.236
 3491POPC   C2B45020  15.309  14.833   6.683
 3491POPC   C3B45021  15.462  14.981   7.108
 3491POPC   C4B45022  15.415  15.141   7.560
 3492POPC   NC345023  25.173   3.460   5.244
 3492POPC   PO445024  25.262   4.129   5.393
 3492POPC   GL145025  25.401   3.831   5.814
 3492POPC   GL245026  25.194   3.570   5.845
 3492POPC   C1A45027  25.568   3.562   6.178
 3492POPC   D2A45028  25.304   3.329   6.455
 3492POPC   C3A45029  25.301   3.521   6.855
 3492POPC   C4A45030  25.207   3.468   7.263
 3492POPC   C1B45031  25.086   3.804   6.242
 3492POPC   C2B45032  25.034   3.922   6.693
 3492POPC   C3B45033  24.822   3.796   7.128
 3492POPC   C4B45034  24.818   3.571   7.579
 3493POPC   NC345035   1.727   0.885   5.508
 3493POPC   PO445036   2.055   0.173   5.480
 3493POPC   GL145037   2.004   0.534   5.757
 3493POPC   GL245038   1.638   0.524   5.871
 3493POPC   C1A45039   2.174   0.627   6.150
 3493POPC   D2A45040   2.102   0.383   6.555
 3493POPC   C3A45041   2.224   0.559   6.932
 3493POPC   C4A45042   2.109   0.799   7.239
 3493POPC   C1B45043   1.681   0.635   6.319
 3493POPC   C2B45044   1.649   0.868   6.710
 3493POPC   C3B45045   1.602   0.653   7.088
 3493POPC   C4B45046   1.846   0.343   7.209
 3494POPC   NC345047  29.815  20.255   5.597
 3494POPC   PO445048  30.098  20.855   5.684
 3494POPC   GL145049  29.840  20.625   5.969
 3494POPC   GL245050  29.500  20.712   5.924
 3494POPC   C1A45051  29.861  20.527   6.415
 3494POPC   D2A45052  30.212  20.537   6.687
 3494POPC   C3A45053  30.153  20.764   7.073
 3494POPC   C4A45054  29.799  20.967   7.278
 3494POPC   C1B45055  29.449  20.331   6.175
 3494POPC   C2B45056  29.450  20.244   6.608
 3494POPC   C3B45057  29.654  20.503   6.920
 3494POPC   C4B45058  29.709  20.438   7.351
 3495POPC   NC345059  11.410  11.529   5.431
 3495POPC   PO445060  10.816  11.177   5.419
 3495POPC   GL145061  11.161  11.193   5.735
 3495POPC   GL245062  11.197  11.530   5.904
 3495POPC   C1A45063  11.301  11.076   6.137
 3495POPC   D2A45064  11.144  11.285   6.496
 3495POPC   C3A45065  11.345  11.210   6.881
 3495POPC   C4A45066  11.220  10.997   7.235
 3495POPC   C1B45067  11.245  11.762   6.297
 3495POPC   C2B45068  11.282  11.717   6.743
 3495POPC   C3B45069  11.405  11.790   7.138
 3495POPC   C4B45070  11.351  11.489   7.418
 3496POPC   NC345071  21.321  11.884   5.366
 3496POPC   PO445072  20.634  12.156   5.375
 3496POPC   GL145073  20.567  12.058   5.865
 3496POPC   GL245074  20.293  11.823   5.941
 3496POPC   C1A45075  20.590  11.905   6.332
 3496POPC   D2A45076  20.496  11.963   6.791
 3496POPC   C3A45077  20.844  12.021   7.073
 3496POPC   C4A45078  21.066  12.375   7.288
 3496POPC   C1B45079  20.096  12.182   6.136
 3496POPC   C2B45080  19.954  12.290   6.560
 3496POPC   C3B45081  20.118  12.391   6.978
 3496POPC   C4B45082  20.418  12.233   7.266
 3497POPC   NC345083   4.410  32.702   4.971
 3497POPC   PO445084   4.119  33.240   5.294
 3497POPC   GL145085   4.024  33.082   5.733
 3497POPC   GL245086   4.337  33.182   5.881
 3497POPC   C1A45087   4.020  32.984   6.198
 3497POPC   D2A45088   4.030  33.223   6.576
 3497POPC   C3A45089   4.289  33.014   6.852
 3497POPC   C4A45090   4.386  33.194   7.222
 3497POPC   C1B45091   4.502  33.180   6.318
 3497POPC   C2B45092   4.725  32.883   6.576
 3497POPC   C3B45093   4.709  32.690   6.937
 3497POPC   C4B45094   4.797  32.933   7.262
 3498POPC   NC345095  27.774  10.114   5.409
 3498POPC   PO445096  27.779   9.493   5.541
 3498POPC   GL145097  27.632   9.845   5.844
 3498POPC   GL245098  27.365  10.065   5.741
 3498POPC   C1A45099  27.472   9.724   6.253
 3498POPC   D2A45100  27.542   9.779   6.673
 3498POPC   C3A45101  27.419   9.525   7.046
 3498POPC   C4A45102  27.559   9.627   7.434
 3498POPC   C1B45103  27.284  10.216   6.176
 3498POPC   C2B45104  27.178  10.134   6.628
 3498POPC   C3B45105  27.372  10.053   7.056
 3498POPC   C4B45106  27.136  10.007   7.433
 3499POPC   NC345107  39.265   0.832   5.413
 3499POPC   PO445108  38.950   1.404   5.512
 3499POPC   GL145109  39.017   1.092   5.818
 3499POPC   GL245110  39.351   1.210   5.934
 3499POPC   C1A45111  38.975   1.041   6.267
 3499POPC   D2A45112  39.246   1.331   6.513
 3499POPC   C3A45113  39.218   1.339   6.942
 3499POPC   C4A45114  39.370   1.602   7.252
 3499POPC   C1B45115  39.474   0.938   6.308
 3499POPC   C2B45116  39.190   0.808   6.683
 3499POPC   C3B45117  38.970   0.915   7.072
 3499POPC   C4B45118  39.174   1.104   7.446
 3500POPC   NC345119   5.881   2.505   5.375
 3500POPC   PO445120   6.081   3.179   5.462
 3500POPC   GL145121   6.033   2.827   5.771
 3500POPC   GL245122   6.246   2.621   6.021
 3500POPC   C1A45123   5.762   2.702   6.113
 3500POPC   D2A45124   5.651   2.801   6.572
 3500POPC   C3A45125   5.660   2.605   7.003
 3500POPC   C4A45126   5.782   2.918   7.325
 3500POPC   C1B45127   6.184   2.716   6.425
 3500POPC   C2B45128   6.104   2.542   6.794
 3500POPC   C3B45129   6.132   2.552   7.205
 3500POPC   C4B45130   6.196   2.707   7.602
 3501POPC   NC345131  41.936  14.220   5.319
 3501POPC   PO445132  41.374  14.626   5.349
 3501POPC   GL145133  41.500  14.470   5.767
 3501POPC   GL245134  41.780  14.226   5.855
 3501POPC   C1A45135  41.716  14.673   6.125
 3501POPC   D2A45136  41.786  14.696   6.579
 3501POPC   C3A45137  41.527  14.533   6.956
 3501POPC   C4A45138  41.210  14.479   7.297
 3501POPC   C1B45139  41.738  14.216   6.342
 3501POPC   C2B45140  41.703  14.060   6.777
 3501POPC   C3B45141  41.477  14.062   7.167
 3501POPC   C4B45142  41.445  13.882   7.571
 3502POPC   NC345143  19.445  26.951   5.294
 3502POPC   PO445144  18.910  27.296   5.330
 3502POPC   GL145145  19.213  27.200   5.677
 3502POPC   GL245146  19.236  26.841   5.769
 3502POPC   C1A45147  19.359  27.185   6.118
 3502POPC   D2A45148  19.146  27.130   6.519
 3502POPC   C3A45149  19.343  27.014   6.911
 3502POPC   C4A45150  19.138  26.844   7.265
 3502POPC   C1B45151  19.240  26.629   6.183
 3502POPC   C2B45152  19.431  26.440   6.558
 3502POPC   C3B45153  19.237  26.409   6.966
 3502POPC   C4B45154  19.286  26.315   7.403
 3503POPC   NC345155  10.745  22.013   5.356
 3503POPC   PO445156  10.952  22.549   5.503
 3503POPC   GL145157  10.783  22.234   5.821
 3503POPC   GL245158  10.431  22.034   5.855
 3503POPC   C1A45159  10.668  22.253   6.246
 3503POPC   D2A45160  10.690  22.066   6.634
 3503POPC   C3A45161  10.630  22.315   7.035
 3503POPC   C4A45162  10.830  22.482   7.451
 3503POPC   C1B45163  10.263  21.925   6.316
 3503POPC   C2B45164  10.204  22.094   6.757
 3503POPC   C3B45165  10.129  22.090   7.205
 3503POPC   C4B45166  10.125  22.036   7.683
 3504POPC   NC345167  37.552  31.955   5.750
 3504POPC   PO445168  37.347  32.458   5.334
 3504POPC   GL145169  37.423  32.472   5.806
 3504POPC   GL245170  37.777  32.466   5.786
 3504POPC   C1A45171  37.488  32.344   6.265
 3504POPC   D2A45172  37.375  32.336   6.675
 3504POPC   C3A45173  37.663  32.126   6.852
 3504POPC   C4A45174  37.721  31.922   7.204
 3504POPC   C1B45175  37.977  32.373   6.175
 3504POPC   C2B45176  38.003  32.000   6.455
 3504POPC   C3B45177  38.139  31.959   6.883
 3504POPC   C4B45178  38.119  32.229   7.237
 3505POPC   NC345179  38.102  44.161   5.325
 3505POPC   PO445180  38.770  43.900   5.395
 3505POPC   GL145181  38.702  43.805   5.813
 3505POPC   GL245182  38.337  43.831   5.742
 3505POPC   C1A45183  38.535  43.955   6.210
 3505POPC   D2A45184  38.311  43.865   6.594
 3505POPC   C3A45185  38.573  43.991   6.931
 3505POPC   C4A45186  38.376  44.242   7.247
 3505POPC   C1B45187  38.259  43.502   6.043
 3505POPC   C2B45188  38.109  43.410   6.441
 3505POPC   C3B45189  38.133  43.420   6.876
 3505POPC   C4B45190  38.280  43.655   7.216
 3506POPC   NC345191  38.764  11.549   4.992
 3506POPC   PO445192  38.356  11.178   5.304
 3506POPC   GL145193  38.186  11.458   5.616
 3506POPC   GL245194  38.105  11.148   5.769
 3506POPC   C1A45195  38.321  11.521   6.065
 3506POPC   D2A45196  38.689  11.379   6.318
 3506POPC   C3A45197  38.725  11.350   6.775
 3506POPC   C4A45198  38.585  11.453   7.170
 3506POPC   C1B45199  38.310  11.002   6.100
 3506POPC   C2B45200  38.190  11.219   6.459
 3506POPC   C3B45201  38.212  11.163   6.867
 3506POPC   C4B45202  38.276  11.060   7.284
 3507POPC   NC345203  22.674  21.996   5.609
 3507POPC   PO445204  23.320  21.907   5.368
 3507POPC   GL145205  23.248  22.114   5.792
 3507POPC   GL245206  23.000  22.392   5.789
 3507POPC   C1A45207  23.056  22.083   6.211
 3507POPC   D2A45208  23.098  22.352   6.574
 3507POPC   C3A45209  23.079  22.097   6.927
 3507POPC   C4A45210  22.866  22.069   7.305
 3507POPC   C1B45211  22.770  22.506   6.186
 3507POPC   C2B45212  22.579  22.462   6.625
 3507POPC   C3B45213  22.675  22.474   7.080
 3507POPC   C4B45214  22.629  22.442   7.584
 3508POPC   NC345215   7.331  21.655   5.332
 3508POPC   PO445216   7.144  21.046   5.658
 3508POPC   GL145217   7.437  21.374   5.752
 3508POPC   GL245218   7.269  21.673   5.850
 3508POPC   C1A45219   7.623  21.442   6.160
 3508POPC   D2A45220   7.390  21.257   6.512
 3508POPC   C3A45221   7.515  21.388   6.918
 3508POPC   C4A45222   7.241  21.288   7.257
 3508POPC   C1B45223   7.090  21.846   6.250
 3508POPC   C2B45224   7.238  21.780   6.661
 3508POPC   C3B45225   7.194  21.767   7.125
 3508POPC   C4B45226   7.407  21.670   7.538
 3509POPC   NC345227  24.554  10.900   5.262
 3509POPC   PO445228  24.807  10.292   5.482
 3509POPC   GL145229  24.489  10.556   5.733
 3509POPC   GL245230  24.321  10.909   5.709
 3509POPC   C1A45231  24.397  10.461   6.192
 3509POPC   D2A45232  24.274  10.244   6.587
 3509POPC   C3A45233  24.480  10.256   6.992
 3509POPC   C4A45234  24.468  10.440   7.403
 3509POPC   C1B45235  24.526  10.947   6.135
 3509POPC   C2B45236  24.604  10.777   6.583
 3509POPC   C3B45237  24.612  10.926   7.028
 3509POPC   C4B45238  24.600  10.905   7.524
 3510POPC   NC345239   3.222   1.285   5.446
 3510POPC   PO445240   3.652   0.734   5.575
 3510POPC   GL145241   3.440   0.936   5.877
 3510POPC   GL245242   3.509   1.254   5.864
 3510POPC   C1A45243   3.594   0.957   6.293
 3510POPC   D2A45244   3.480   1.139   6.670
 3510POPC   C3A45245   3.775   1.091   6.986
 3510POPC   C4A45246   3.799   1.037   7.443
 3510POPC   C1B45247   3.423   1.448   6.263
 3510POPC   C2B45248   3.476   1.651   6.666
 3510POPC   C3B45249   3.473   1.498   7.077
 3510POPC   C4B45250   3.143   1.603   7.343
 3511POPC   NC345251  29.317   1.964   5.310
 3511POPC   PO445252  28.654   1.825   5.496
 3511POPC   GL145253  28.902   2.052   5.816
 3511POPC   GL245254  29.289   2.108   5.791
 3511POPC   C1A45255  29.013   1.954   6.247
 3511POPC   D2A45256  28.831   1.764   6.613
 3511POPC   C3A45257  28.923   1.869   7.008
 3511POPC   C4A45258  29.278   1.728   7.202
 3511POPC   C1B45259  29.366   2.341   6.153
 3511POPC   C2B45260  29.165   2.360   6.511
 3511POPC   C3B45261  29.340   2.081   6.797
 3511POPC   C4B45262  29.515   2.190   7.169
 3512POPC   NC345263   7.136  16.871   5.394
 3512POPC   PO445264   6.449  16.777   5.472
 3512POPC   GL145265   6.777  16.761   5.789
 3512POPC   GL245266   6.674  16.450   5.901
 3512POPC   C1A45267   6.928  16.792   6.231
 3512POPC   D2A45268   6.722  16.818   6.646
 3512POPC   C3A45269   6.904  16.907   7.044
 3512POPC   C4A45270   6.738  16.823   7.446
 3512POPC   C1B45271   6.421  16.687   6.212
 3512POPC   C2B45272   6.260  16.586   6.643
 3512POPC   C3B45273   6.410  16.667   7.067
 3512POPC   C4B45274   6.186  16.757   7.442
 3513POPC   NC345275  23.682  43.922   5.239
 3513POPC   PO445276  24.119  43.475   5.541
 3513POPC   GL145277  23.777  43.653   5.844
 3513POPC   GL245278  23.434  43.811   5.839
 3513POPC   C1A45279  23.644  43.699   6.303
 3513POPC   D2A45280  23.654  44.008   6.655
 3513POPC   C3A45281  23.864  43.869   7.032
 3513POPC   C4A45282  23.752  43.569   7.309
 3513POPC   C1B45283  23.299  44.065   6.263
 3513POPC   C2B45284  23.146  44.085   6.731
 3513POPC   C3B45285  23.378  44.108   7.106
 3513POPC   C4B45286  23.597  44.016   7.471
 3514POPC   NC345287  34.186  22.337   5.043
 3514POPC   PO445288  33.661  21.945   5.422
 3514POPC   GL145289  33.790  22.136   5.813
 3514POPC   GL245290  34.135  22.083   5.822
 3514POPC   C1A45291  33.577  22.296   6.183
 3514POPC   D2A45292  33.559  22.129   6.613
 3514POPC   C3A45293  33.655  22.320   7.000
 3514POPC   C4A45294  33.722  21.975   7.217
 3514POPC   C1B45295  34.014  22.078   6.283
 3514POPC   C2B45296  34.009  22.374   6.633
 3514POPC   C3B45297  34.154  22.185   6.979
 3514POPC   C4B45298  34.186  22.028   7.374
 3515POPC   NC345299  41.776  17.573   5.432
 3515POPC   PO445300  41.082  17.719   5.544
 3515POPC   GL145301  41.209  17.497   5.886
 3515POPC   GL245302  41.544  17.406   5.855
 3515POPC   C1A45303  41.230  17.483   6.331
 3515POPC   D2A45304  41.367  17.791   6.617
 3515POPC   C3A45305  41.390  17.704   7.060
 3515POPC   C4A45306  41.577  17.357   7.209
 3515POPC   C1B45307  41.737  17.547   6.247
 3515POPC   C2B45308  41.757  17.439   6.664
 3515POPC   C3B45309  41.914  17.741   6.941
 3515POPC   C4B45310  41.869  17.743   7.348
 3516POPC   NC345311  27.948  43.870   5.554
 3516POPC   PO445312  28.609  43.710   5.655
 3516POPC   GL145313  28.490  43.827   6.033
 3516POPC   GL245314  28.214  44.038   5.991
 3516POPC   C1A45315  28.419  43.830   6.478
 3516POPC   D2A45316  28.660  44.139   6.695
 3516POPC   C3A45317  28.405  44.148   6.985
 3516POPC   C4A45318  28.351  43.781   7.223
 3516POPC   C1B45319  28.030  43.633   6.167
 3516POPC   C2B45320  28.106  43.367   6.494
 3516POPC   C3B45321  28.076  43.467   6.938
 3516POPC   C4B45322  27.816  43.748   7.182
 3517POPC   NC345323  38.546   6.264   5.513
 3517POPC   PO445324  38.338   5.597   5.433
 3517POPC   GL145325  38.324   5.821   5.819
 3517POPC   GL245326  38.669   5.867   5.818
 3517POPC   C1A45327  38.414   5.980   6.272
 3517POPC   D2A45328  38.410   5.959   6.756
 3517POPC   C3A45329  38.311   6.038   7.217
 3517POPC   C4A45330  38.063   5.886   7.639
 3517POPC   C1B45331  38.802   5.631   6.184
 3517POPC   C2B45332  38.703   5.557   6.626
 3517POPC   C3B45333  38.760   5.621   7.084
 3517POPC   C4B45334  38.669   5.350   7.412
 3518POPC   NC345335  17.790  20.053   5.514
 3518POPC   PO445336  17.302  19.516   5.470
 3518POPC   GL145337  17.475  19.781   5.832
 3518POPC   GL245338  17.401  20.157   5.851
 3518POPC   C1A45339  17.518  19.866   6.287
 3518POPC   D2A45340  17.607  19.767   6.715
 3518POPC   C3A45341  17.380  20.038   6.974
 3518POPC   C4A45342  17.522  19.839   7.339
 3518POPC   C1B45343  17.585  20.375   6.214
 3518POPC   C2B45344  17.746  20.240   6.622
 3518POPC   C3B45345  17.868  20.164   7.055
 3518POPC   C4B45346  17.560  20.334   7.378
 3519POPC   NC345347   5.955  19.433   5.356
 3519POPC   PO445348   5.681  19.996   5.563
 3519POPC   GL145349   5.793  19.668   5.793
 3519POPC   GL245350   6.169  19.714   5.761
 3519POPC   C1A45351   5.912  19.614   6.208
 3519POPC   D2A45352   6.197  19.628   6.529
 3519POPC   C3A45353   5.953  19.720   6.887
 3519POPC   C4A45354   5.550  19.754   7.095
 3519POPC   C1B45355   6.163  20.053   6.103
 3519POPC   C2B45356   5.941  20.086   6.502
 3519POPC   C3B45357   6.110  20.192   6.918
 3519POPC   C4B45358   5.950  20.036   7.301
 3520POPC   NC345359  17.021  11.845   5.565
 3520POPC   PO445360  17.524  12.303   5.442
 3520POPC   GL145361  17.400  12.103   5.807
 3520POPC   GL245362  17.136  12.307   5.857
 3520POPC   C1A45363  17.389  11.786   6.167
 3520POPC   D2A45364  17.674  11.826   6.525
 3520POPC   C3A45365  17.610  12.035   6.918
 3520POPC   C4A45366  17.549  11.966   7.352
 3520POPC   C1B45367  17.287  12.269   6.279
 3520POPC   C2B45368  17.202  12.026   6.606
 3520POPC   C3B45369  17.109  11.960   7.028
 3520POPC   C4B45370  17.245  12.346   7.219
 3521POPC   NC345371  44.151  43.166   5.421
 3521POPC   PO445372  43.874  42.587   5.428
 3521POPC   GL145373  43.954  42.830   5.797
 3521POPC   GL245374  43.838  43.181   5.825
 3521POPC   C1A45375  43.998  42.903   6.245
 3521POPC   D2A45376  43.810  43.145   6.590
 3521POPC   C3A45377  43.886  42.995   7.001
 3521POPC   C4A45378  43.915  43.137   7.429
 3521POPC   C1B45379  43.923  43.428   6.183
 3521POPC   C2B45380  44.196  43.603   6.506
 3521POPC   C3B45381  44.271  43.478   6.923
 3521POPC   C4B45382  44.083  43.639   7.364
 3522POPC   NC345383  14.126  31.193   5.375
 3522POPC   PO445384  14.594  31.714   5.552
 3522POPC   GL145385  14.365  31.375   5.796
 3522POPC   GL245386  14.618  31.407   6.031
 3522POPC   C1A45387  14.225  31.096   6.177
 3522POPC   D2A45388  14.380  31.208   6.605
 3522POPC   C3A45389  14.245  31.079   7.028
 3522POPC   C4A45390  14.568  31.245   7.280
 3522POPC   C1B45391  14.281  31.582   6.268
 3522POPC   C2B45392  14.354  31.739   6.646
 3522POPC   C3B45393  14.265  31.588   7.039
 3522POPC   C4B45394  14.151  31.472   7.450
 3523POPC   NC345395  22.838   7.148   5.521
 3523POPC   PO445396  23.057   7.710   5.332
 3523POPC   GL145397  23.048   7.736   5.807
 3523POPC   GL245398  23.005   7.391   5.941
 3523POPC   C1A45399  22.958   7.768   6.281
 3523POPC   D2A45400  22.812   7.460   6.574
 3523POPC   C3A45401  23.066   7.423   6.899
 3523POPC   C4A45402  22.916   7.359   7.323
 3523POPC   C1B45403  22.875   7.083   6.245
 3523POPC   C2B45404  22.697   6.940   6.617
 3523POPC   C3B45405  22.650   7.116   6.989
 3523POPC   C4B45406  22.585   7.003   7.406
 3524POPC   NC345407  34.969   5.329   5.319
 3524POPC   PO445408  34.262   5.309   5.206
 3524POPC   GL145409  34.360   5.229   5.656
 3524POPC   GL245410  34.716   5.302   5.768
 3524POPC   C1A45411  34.363   5.042   6.105
 3524POPC   D2A45412  34.532   4.919   6.520
 3524POPC   C3A45413  34.418   5.197   6.859
 3524POPC   C4A45414  34.418   5.029   7.247
 3524POPC   C1B45415  34.896   5.123   6.161
 3524POPC   C2B45416  34.956   5.235   6.585
 3524POPC   C3B45417  34.884   5.046   6.970
 3524POPC   C4B45418  34.762   5.416   7.199
 3525POPC   NC345419  20.002  29.172   5.474
 3525POPC   PO445420  20.678  28.911   5.446
 3525POPC   GL145421  20.656  29.106   5.860
 3525POPC   GL245422  20.497  29.393   5.754
 3525POPC   C1A45423  20.630  28.995   6.304
 3525POPC   D2A45424  20.338  28.907   6.656
 3525POPC   C3A45425  20.538  29.080   6.989
 3525POPC   C4A45426  20.979  28.967   7.052
 3525POPC   C1B45427  20.258  29.440   6.154
 3525POPC   C2B45428  20.438  29.407   6.577
 3525POPC   C3B45429  20.297  29.554   6.969
 3525POPC   C4B45430  20.309  29.399   7.363
 3526POPC   NC345431  40.061  41.580   5.317
 3526POPC   PO445432  39.709  41.110   5.563
 3526POPC   GL145433  39.861  41.452   5.803
 3526POPC   GL245434  40.226  41.447   5.813
 3526POPC   C1A45435  39.906  41.652   6.201
 3526POPC   D2A45436  39.715  41.537   6.589
 3526POPC   C3A45437  39.822  41.799   6.953
 3526POPC   C4A45438  39.809  41.629   7.385
 3526POPC   C1B45439  40.251  41.294   6.244
 3526POPC   C2B45440  40.175  41.319   6.684
 3526POPC   C3B45441  40.212  41.486   7.095
 3526POPC   C4B45442  40.302  41.592   7.527
 3527POPC   NC345443   4.559  33.607   5.371
 3527POPC   PO445444   4.162  34.193   5.143
 3527POPC   GL145445   4.252  33.973   5.607
 3527POPC   GL245446   4.124  33.610   5.672
 3527POPC   C1A45447   4.452  33.791   6.036
 3527POPC   D2A45448   4.603  33.679   6.465
 3527POPC   C3A45449   4.424  33.530   6.831
 3527POPC   C4A45450   4.448  33.705   7.264
 3527POPC   C1B45451   4.025  33.516   6.129
 3527POPC   C2B45452   4.075  33.813   6.475
 3527POPC   C3B45453   4.086  33.908   6.920
 3527POPC   C4B45454   3.990  33.509   7.145
 3528POPC   NC345455  24.976  14.708   5.534
 3528POPC   PO445456  25.476  14.278   5.595
 3528POPC   GL145457  25.309  14.263   5.943
 3528POPC   GL245458  24.957  14.272   5.852
 3528POPC   C1A45459  25.386  14.191   6.375
 3528POPC   D2A45460  25.444  14.078   6.793
 3528POPC   C3A45461  25.386  14.413   7.125
 3528POPC   C4A45462  25.301  14.613   7.546
 3528POPC   C1B45463  25.023  14.547   6.246
 3528POPC   C2B45464  25.073  14.456   6.704
 3528POPC   C3B45465  24.873  14.471   7.133
 3528POPC   C4B45466  24.618  14.318   7.490
 3529POPC   NC345467  31.544  21.606   5.287
 3529POPC   PO445468  30.966  21.295   5.449
 3529POPC   GL145469  31.389  21.312   5.681
 3529POPC   GL245470  31.234  21.296   5.980
 3529POPC   C1A45471  31.733  21.365   6.035
 3529POPC   D2A45472  31.883  21.186   6.453
 3529POPC   C3A45473  31.837  21.369   6.835
 3529POPC   C4A45474  31.656  21.430   7.217
 3529POPC   C1B45475  31.375  21.289   6.429
 3529POPC   C2B45476  31.330  21.237   6.879
 3529POPC   C3B45477  31.148  21.374   7.286
 3529POPC   C4B45478  31.097  21.647   7.664
 3530POPC   NC345479  27.843  29.072   5.474
 3530POPC   PO445480  27.241  29.378   5.397
 3530POPC   GL145481  27.393  29.291   5.798
 3530POPC   GL245482  27.497  28.925   5.828
 3530POPC   C1A45483  27.499  29.472   6.201
 3530POPC   D2A45484  27.545  29.376   6.651
 3530POPC   C3A45485  27.881  29.355   6.916
 3530POPC   C4A45486  27.728  29.359   7.303
 3530POPC   C1B45487  27.585  28.980   6.267
 3530POPC   C2B45488  27.374  28.913   6.641
 3530POPC   C3B45489  27.512  28.993   7.038
 3530POPC   C4B45490  27.777  28.817   7.324
 3531POPC   NC345491   0.767  40.322   5.337
 3531POPC   PO445492   0.488  39.717   5.471
 3531POPC   GL145493   0.414  39.766   5.925
 3531POPC   GL245494   0.099  39.754   6.079
 3531POPC   C1A45495   0.571  39.843   6.332
 3531POPC   D2A45496   0.760  40.224   6.450
 3531POPC   C3A45497   0.747  40.183   6.884
 3531POPC   C4A45498   0.425  39.908   7.104
 3531POPC   C1B45499   0.158  40.128   6.286
 3531POPC   C2B45500   0.291  40.342   6.669
 3531POPC   C3B45501   0.142  40.327   7.074
 3531POPC   C4B45502   0.257  40.237   7.488
 3532POPC   NC345503   9.439   9.861   5.602
 3532POPC   PO445504   9.041   9.542   5.133
 3532POPC   GL145505   8.957   9.637   5.633
 3532POPC   GL245506   8.638   9.608   5.849
 3532POPC   C1A45507   9.092   9.704   6.118
 3532POPC   D2A45508   9.072   9.510   6.540
 3532POPC   C3A45509   9.210   9.689   6.934
 3532POPC   C4A45510   9.056   9.443   7.243
 3532POPC   C1B45511   8.629   9.710   6.328
 3532POPC   C2B45512   8.781   9.909   6.713
 3532POPC   C3B45513   8.731   9.842   7.183
 3532POPC   C4B45514   8.670  10.019   7.629
 3533POPC   NC345515  33.482  28.724   5.306
 3533POPC   PO445516  32.873  28.449   5.417
 3533POPC   GL145517  32.975  28.331   5.792
 3533POPC   GL245518  33.304  28.317   5.658
 3533POPC   C1A45519  33.058  28.457   6.215
 3533POPC   D2A45520  33.218  28.662   6.593
 3533POPC   C3A45521  32.935  28.592   6.940
 3533POPC   C4A45522  32.816  28.252   7.168
 3533POPC   C1B45523  33.390  28.091   6.046
 3533POPC   C2B45524  33.459  28.139   6.480
 3533POPC   C3B45525  33.255  28.198   6.840
 3533POPC   C4B45526  33.315  28.343   7.221
 3534POPC   NC345527  29.555   7.425   5.452
 3534POPC   PO445528  28.936   7.022   5.476
 3534POPC   GL145529  28.913   7.191   5.906
 3534POPC   GL245530  29.234   7.417   5.890
 3534POPC   C1A45531  29.051   7.243   6.350
 3534POPC   D2A45532  28.843   7.406   6.725
 3534POPC   C3A45533  29.069   7.374   7.124
 3534POPC   C4A45534  29.377   7.046   7.251
 3534POPC   C1B45535  29.547   7.571   6.204
 3534POPC   C2B45536  29.647   7.731   6.604
 3534POPC   C3B45537  29.375   7.737   6.988
 3534POPC   C4B45538  29.369   7.610   7.452
 3535POPC   NC345539   2.487  37.796   5.412
 3535POPC   PO445540   3.049  37.734   5.157
 3535POPC   GL145541   2.958  37.604   5.609
 3535POPC   GL245542   2.605  37.498   5.792
 3535POPC   C1A45543   3.024  37.577   6.081
 3535POPC   D2A45544   3.041  37.487   6.541
 3535POPC   C3A45545   2.984  37.764   6.906
 3535POPC   C4A45546   2.843  37.630   7.303
 3535POPC   C1B45547   2.564  37.803   6.159
 3535POPC   C2B45548   2.570  37.684   6.615
 3535POPC   C3B45549   2.444  37.832   7.033
 3535POPC   C4B45550   2.428  37.842   7.505
 3536POPC   NC345551  29.371  44.669   4.942
 3536POPC   PO445552  28.815  44.261   5.037
 3536POPC   GL145553  28.755  44.328   5.590
 3536POPC   GL245554  28.732  44.676   5.728
 3536POPC   C1A45555  28.908  44.343   6.099
 3536POPC   D2A45556  28.951  44.524   6.558
 3536POPC   C3A45557  29.032  44.407   7.028
 3536POPC   C4A45558  29.331  44.663   7.289
 3536POPC   C1B45559  28.763  44.937   6.106
 3536POPC   C2B45560  28.766  44.990   6.565
 3536POPC   C3B45561  29.018  44.923   6.944
 3536POPC   C4B45562  28.852  44.792   7.360
 3537POPC   NC345563  22.622  19.266   5.456
 3537POPC   PO445564  23.099  18.908   5.226
 3537POPC   GL145565  23.011  18.964   5.671
 3537POPC   GL245566  22.745  18.746   5.779
 3537POPC   C1A45567  23.238  18.850   6.053
 3537POPC   D2A45568  23.394  18.738   6.471
 3537POPC   C3A45569  23.221  18.968   6.839
 3537POPC   C4A45570  23.025  19.022   7.259
 3537POPC   C1B45571  22.753  18.886   6.217
 3537POPC   C2B45572  22.728  18.879   6.677
 3537POPC   C3B45573  22.569  19.052   7.057
 3537POPC   C4B45574  22.664  19.384   7.342
 3538POPC   NC345575  30.276  28.186   5.397
 3538POPC   PO445576  29.856  28.769   5.432
 3538POPC   GL145577  29.992  28.460   5.767
 3538POPC   GL245578  29.661  28.414   5.835
 3538POPC   C1A45579  29.948  28.140   6.151
 3538POPC   D2A45580  30.083  28.194   6.603
 3538POPC   C3A45581  29.850  28.298   6.992
 3538POPC   C4A45582  29.555  28.310   7.324
 3538POPC   C1B45583  29.736  28.592   6.253
 3538POPC   C2B45584  29.846  28.714   6.661
 3538POPC   C3B45585  29.670  28.799   7.064
 3538POPC   C4B45586  29.912  28.662   7.416
 3539POPC   NC345587  44.505  41.347   5.386
 3539POPC   PO445588   0.140  41.521   5.393
 3539POPC   GL145589  44.865  41.462   5.743
 3539POPC   GL245590  44.766  41.797   5.785
 3539POPC   C1A45591  44.753  41.307   6.170
 3539POPC   D2A45592  44.954  41.329   6.613
 3539POPC   C3A45593  44.791  41.615   6.935
 3539POPC   C4A45594  44.589  41.565   7.317
 3539POPC   C1B45595  44.533  41.916   6.190
 3539POPC   C2B45596  44.548  42.018   6.660
 3539POPC   C3B45597  44.306  41.915   7.040
 3539POPC   C4B45598  44.324  41.927   7.547
 3540POPC   NC345599  32.434  33.698   5.451
 3540POPC   PO445600  32.358  33.056   5.209
 3540POPC   GL145601  32.577  33.286   5.726
 3540POPC   GL245602  32.625  33.664   5.901
 3540POPC   C1A45603  32.434  33.361   6.230
 3540POPC   D2A45604  32.361  33.672   6.564
 3540POPC   C3A45605  32.242  33.572   6.965
 3540POPC   C4A45606  32.612  33.506   7.190
 3540POPC   C1B45607  32.284  33.931   6.128
 3540POPC   C2B45608  31.966  33.985   6.500
 3540POPC   C3B45609  31.959  34.046   6.966
 3540POPC   C4B45610  32.293  33.944   7.281
 3541POPC   NC345611  24.486  22.356   5.311
 3541POPC   PO445612  24.106  21.834   5.174
 3541POPC   GL145613  24.528  22.010   5.651
 3541POPC   GL245614  24.629  22.378   5.798
 3541POPC   C1A45615  24.475  22.086   6.143
 3541POPC   D2A45616  24.466  22.244   6.524
 3541POPC   C3A45617  24.405  21.873   6.749
 3541POPC   C4A45618  24.450  21.774   7.136
 3541POPC   C1B45619  24.840  22.504   6.216
 3541POPC   C2B45620  24.944  22.376   6.619
 3541POPC   C3B45621  24.715  22.232   6.975
 3541POPC   C4B45622  24.774  22.460   7.328
 3542POPC   NC345623  18.754  30.884   5.206
 3542POPC   PO445624  19.166  30.545   5.630
 3542POPC   GL145625  19.111  30.736   6.018
 3542POPC   GL245626  18.768  30.874   6.129
 3542POPC   C1A45627  19.149  30.673   6.430
 3542POPC   D2A45628  18.985  30.888   6.756
 3542POPC   C3A45629  19.182  30.623   7.059
 3542POPC   C4A45630  19.229  30.683   7.502
 3542POPC   C1B45631  18.650  30.498   6.330
 3542POPC   C2B45632  18.747  30.428   6.690
 3542POPC   C3B45633  18.663  30.598   7.040
 3542POPC   C4B45634  18.756  30.469   7.431
 3543POPC   NC345635   1.686  42.098   5.657
 3543POPC   PO445636   2.126  42.558   5.447
 3543POPC   GL145637   2.252  42.494   5.858
 3543POPC   GL245638   2.341  42.141   5.869
 3543POPC   C1A45639   2.097  42.597   6.272
 3543POPC   D2A45640   1.838  42.533   6.611
 3543POPC   C3A45641   2.064  42.584   6.965
 3543POPC   C4A45642   2.104  42.379   7.319
 3543POPC   C1B45643   2.051  42.082   6.229
 3543POPC   C2B45644   1.720  42.011   6.532
 3543POPC   C3B45645   1.817  42.115   6.954
 3543POPC   C4B45646   2.031  41.887   7.271
 3544POPC   NC345647  39.194  37.483   5.406
 3544POPC   PO445648  38.708  37.929   5.443
 3544POPC   GL145649  39.043  37.840   5.768
 3544POPC   GL245650  39.414  37.767   5.766
 3544POPC   C1A45651  39.161  37.852   6.218
 3544POPC   D2A45652  39.050  37.860   6.663
 3544POPC   C3A45653  39.236  37.694   7.028
 3544POPC   C4A45654  39.054  37.621   7.408
 3544POPC   C1B45655  39.595  37.599   6.124
 3544POPC   C2B45656  39.506  37.629   6.562
 3544POPC   C3B45657  39.418  37.263   6.831
 3544POPC   C4B45658  39.455  37.311   7.299
 3545POPC   NC345659  15.358  22.634   5.441
 3545POPC   PO445660  14.733  23.000   5.534
 3545POPC   GL145661  15.138  23.022   5.739
 3545POPC   GL245662  15.058  22.688   5.856
 3545POPC   C1A45663  15.436  22.974   6.100
 3545POPC   D2A45664  15.377  22.800   6.506
 3545POPC   C3A45665  15.452  22.967   6.906
 3545POPC   C4A45666  15.336  23.021   7.311
 3545POPC   C1B45667  14.946  22.907   6.227
 3545POPC   C2B45668  14.927  23.044   6.630
 3545POPC   C3B45669  14.900  22.932   7.028
 3545POPC   C4B45670  14.578  23.090   7.264
 3546POPC   NC345671  38.563  34.011   5.336
 3546POPC   PO445672  38.626  33.410   5.457
 3546POPC   GL145673  38.517  33.655   5.823
 3546POPC   GL245674  38.313  33.950   5.786
 3546POPC   C1A45675  38.394  33.527   6.239
 3546POPC   D2A45676  38.270  33.690   6.631
 3546POPC   C3A45677  38.653  33.754   6.879
 3546POPC   C4A45678  38.727  33.549   7.290
 3546POPC   C1B45679  38.170  34.183   6.142
 3546POPC   C2B45680  37.931  34.167   6.519
 3546POPC   C3B45681  37.968  33.997   6.922
 3546POPC   C4B45682  38.297  33.845   7.213
 3547POPC   NC345683  31.726  15.203   5.530
 3547POPC   PO445684  31.426  14.725   5.277
 3547POPC   GL145685  31.357  14.989   5.752
 3547POPC   GL245686  31.653  15.094   5.996
 3547POPC   C1A45687  31.184  15.181   6.152
 3547POPC   D2A45688  31.121  15.060   6.578
 3547POPC   C3A45689  31.212  15.210   6.954
 3547POPC   C4A45690  31.434  15.141   7.298
 3547POPC   C1B45691  31.674  14.917   6.341
 3547POPC   C2B45692  31.637  15.074   6.717
 3547POPC   C3B45693  31.780  14.851   7.049
 3547POPC   C4B45694  31.721  14.712   7.444
 3548POPC   NC345695   3.294  12.815   5.353
 3548POPC   PO445696   2.583  12.620   5.330
 3548POPC   GL145697   2.739  12.766   5.707
 3548POPC   GL245698   2.992  12.562   5.838
 3548POPC   C1A45699   2.626  12.758   6.154
 3548POPC   D2A45700   2.648  12.991   6.524
 3548POPC   C3A45701   2.755  12.839   6.943
 3548POPC   C4A45702   2.798  13.111   7.300
 3548POPC   C1B45703   3.097  12.914   6.121
 3548POPC   C2B45704   3.153  12.925   6.564
 3548POPC   C3B45705   3.207  13.126   6.968
 3548POPC   C4B45706   3.367  13.250   7.395
 3549POPC   NC345707  12.316  40.501   5.214
 3549POPC   PO445708  12.125  41.014   5.533
 3549POPC   GL145709  12.011  41.036   5.926
 3549POPC   GL245710  12.028  40.664   5.947
 3549POPC   C1A45711  12.073  41.083   6.344
 3549POPC   D2A45712  12.030  40.742   6.597
 3549POPC   C3A45713  12.143  40.777   7.004
 3549POPC   C4A45714  12.040  41.010   7.318
 3549POPC   C1B45715  11.820  40.341   6.201
 3549POPC   C2B45716  11.829  40.283   6.652
 3549POPC   C3B45717  11.646  40.597   6.940
 3549POPC   C4B45718  11.690  40.656   7.395
 3550POPC   NC345719  42.855  30.677   5.374
 3550POPC   PO445720  43.473  30.604   5.155
 3550POPC   GL145721  43.226  30.487   5.645
 3550POPC   GL245722  43.056  30.761   5.840
 3550POPC   C1A45723  43.061  30.333   6.106
 3550POPC   D2A45724  43.042  30.635   6.470
 3550POPC   C3A45725  43.146  30.680   6.912
 3550POPC   C4A45726  43.070  30.516   7.357
 3550POPC   C1B45727  43.096  31.041   6.181
 3550POPC   C2B45728  43.221  31.120   6.562
 3550POPC   C3B45729  43.091  31.227   6.931
 3550POPC   C4B45730  43.105  31.032   7.301
 3551POPC   NC345731  30.197  37.932   5.487
 3551POPC   PO445732  29.613  37.598   5.256
 3551POPC   GL145733  29.883  37.527   5.678
 3551POPC   GL245734  29.867  37.836   5.879
 3551POPC   C1A45735  30.014  37.437   6.176
 3551POPC   D2A45736  30.222  37.381   6.624
 3551POPC   C3A45737  30.000  37.547   7.027
 3551POPC   C4A45738  29.637  37.328   7.259
 3551POPC   C1B45739  29.893  38.088   6.257
 3551POPC   C2B45740  29.750  37.957   6.641
 3551POPC   C3B45741  29.476  37.760   6.898
 3551POPC   C4B45742  29.632  37.835   7.279
 3552POPC   NC345743  35.795  29.986   5.102
 3552POPC   PO445744  35.174  30.008   5.442
 3552POPC   GL145745  35.090  29.830   5.857
 3552POPC   GL245746  35.415  29.953   5.934
 3552POPC   C1A45747  35.134  29.711   6.312
 3552POPC   D2A45748  35.314  29.948   6.664
 3552POPC   C3A45749  35.310  29.783   7.078
 3552POPC   C4A45750  35.646  29.841   7.346
 3552POPC   C1B45751  35.596  30.136   6.277
 3552POPC   C2B45752  35.565  30.412   6.628
 3552POPC   C3B45753  35.610  30.230   6.999
 3552POPC   C4B45754  35.875  30.294   7.320
 3553POPC   NC345755  34.273   7.973   5.059
 3553POPC   PO445756  34.823   8.291   5.212
 3553POPC   GL145757  34.736   8.167   5.668
 3553POPC   GL245758  34.781   7.841   5.836
 3553POPC   C1A45759  34.527   8.209   6.081
 3553POPC   D2A45760  34.616   8.137   6.509
 3553POPC   C3A45761  34.493   8.367   6.865
 3553POPC   C4A45762  34.617   8.235   7.236
 3553POPC   C1B45763  34.932   7.773   6.207
 3553POPC   C2B45764  35.136   8.036   6.475
 3553POPC   C3B45765  35.032   8.110   6.887
 3553POPC   C4B45766  34.958   7.806   7.181
 3554POPC   NC345767  16.902  24.786   5.451
 3554POPC   PO445768  16.865  24.134   5.344
 3554POPC   GL145769  16.861  24.260   5.767
 3554POPC   GL245770  16.569  24.483   5.706
 3554POPC   C1A45771  16.996  24.219   6.221
 3554POPC   D2A45772  17.197  24.469   6.560
 3554POPC   C3A45773  16.965  24.632   6.921
 3554POPC   C4A45774  16.772  24.355   7.203
 3554POPC   C1B45775  16.725  24.649   6.109
 3554POPC   C2B45776  16.578  24.707   6.545
 3554POPC   C3B45777  16.413  24.645   6.976
 3554POPC   C4B45778  16.613  24.822   7.341
 3555POPC   NC345779  34.785  42.213   5.230
 3555POPC   PO445780  34.198  42.401   5.551
 3555POPC   GL145781  34.586  42.244   5.789
 3555POPC   GL245782  34.951  42.115   5.731
 3555POPC   C1A45783  34.662  42.275   6.255
 3555POPC   D2A45784  34.580  42.523   6.665
 3555POPC   C3A45785  34.629  42.336   7.067
 3555POPC   C4A45786  34.510  42.290   7.502
 3555POPC   C1B45787  34.993  42.536   5.975
 3555POPC   C2B45788  35.042  42.624   6.480
 3555POPC   C3B45789  34.959  42.736   6.973
 3555POPC   C4B45790  34.784  42.713   7.427
 3556POPC   NC345791  15.414  43.253   5.432
 3556POPC   PO445792  14.716  43.143   5.387
 3556POPC   GL145793  14.977  43.141   5.799
 3556POPC   GL245794  15.291  42.943   5.829
 3556POPC   C1A45795  15.103  43.255   6.256
 3556POPC   D2A45796  15.147  43.549   6.625
 3556POPC   C3A45797  15.204  43.327   7.004
 3556POPC   C4A45798  14.946  43.175   7.309
 3556POPC   C1B45799  15.504  42.912   6.227
 3556POPC   C2B45800  15.485  43.098   6.633
 3556POPC   C3B45801  15.448  42.889   7.044
 3556POPC   C4B45802  15.704  42.810   7.390
 3557POPC   NC345803  34.086  15.871   5.364
 3557POPC   PO445804  33.731  16.468   5.389
 3557POPC   GL145805  33.815  16.156   5.720
 3557POPC   GL245806  34.127  16.233   5.788
 3557POPC   C1A45807  33.788  15.795   6.045
 3557POPC   D2A45808  33.897  15.619   6.498
 3557POPC   C3A45809  33.676  15.802   6.892
 3557POPC   C4A45810  33.431  16.197   6.967
 3557POPC   C1B45811  33.936  16.272   6.208
 3557POPC   C2B45812  33.999  16.134   6.629
 3557POPC   C3B45813  33.971  16.264   7.060
 3557POPC   C4B45814  34.170  16.110   7.450
 3558POPC   NC345815  11.945   6.758   5.041
 3558POPC   PO445816  12.247   6.476   5.591
 3558POPC   GL145817  12.013   6.576   5.927
 3558POPC   GL245818  12.045   6.939   5.812
 3558POPC   C1A45819  12.203   6.413   6.333
 3558POPC   D2A45820  12.311   6.330   6.784
 3558POPC   C3A45821  12.045   6.517   7.100
 3558POPC   C4A45822  12.020   6.401   7.547
 3558POPC   C1B45823  12.285   6.918   6.201
 3558POPC   C2B45824  12.191   6.833   6.636
 3558POPC   C3B45825  12.371   6.907   7.037
 3558POPC   C4B45826  12.202   6.898   7.463
 3559POPC   NC345827   7.730   0.783   5.602
 3559POPC   PO445828   7.271   1.272   5.376
 3559POPC   GL145829   7.217   1.101   5.749
 3559POPC   GL245830   7.522   1.172   5.843
 3559POPC   C1A45831   7.108   1.019   6.175
 3559POPC   D2A45832   7.351   0.967   6.550
 3559POPC   C3A45833   7.117   0.941   6.925
 3559POPC   C4A45834   6.974   1.056   7.302
 3559POPC   C1B45835   7.462   1.396   6.188
 3559POPC   C2B45836   7.645   1.383   6.578
 3559POPC   C3B45837   7.541   1.219   6.974
 3559POPC   C4B45838   7.228   1.460   7.139
 3560POPC   NC345839  15.043  20.030   5.371
 3560POPC   PO445840  15.586  19.616   5.395
 3560POPC   GL145841  15.303  19.747   5.730
 3560POPC   GL245842  14.972  19.614   5.709
 3560POPC   C1A45843  15.233  20.033   6.101
 3560POPC   D2A45844  15.407  20.007   6.525
 3560POPC   C3A45845  15.196  20.095   6.900
 3560POPC   C4A45846  15.304  19.969   7.310
 3560POPC   C1B45847  15.119  19.546   6.167
 3560POPC   C2B45848  15.016  19.669   6.577
 3560POPC   C3B45849  15.082  19.609   7.003
 3560POPC   C4B45850  15.268  19.457   7.364
 3561POPC   NC345851   1.025  31.868   5.487
 3561POPC   PO445852   1.294  31.173   5.415
 3561POPC   GL145853   1.263  31.252   5.835
 3561POPC   GL245854   1.255  31.588   5.833
 3561POPC   C1A45855   1.110  31.287   6.267
 3561POPC   D2A45856   1.216  31.466   6.666
 3561POPC   C3A45857   1.356  31.349   7.067
 3561POPC   C4A45858   1.210  31.311   7.475
 3561POPC   C1B45859   1.348  31.740   6.205
 3561POPC   C2B45860   1.532  31.874   6.544
 3561POPC   C3B45861   1.281  31.947   6.882
 3561POPC   C4B45862   1.254  31.811   7.312
 3562POPC   NC345863   6.102  23.672   5.427
 3562POPC   PO445864   5.369  23.795   5.250
 3562POPC   GL145865   5.664  23.857   5.693
 3562POPC   GL245866   5.951  23.645   5.917
 3562POPC   C1A45867   5.623  23.924   6.174
 3562POPC   D2A45868   5.872  23.784   6.501
 3562POPC   C3A45869   6.067  23.763   6.888
 3562POPC   C4A45870   5.808  23.701   7.209
 3562POPC   C1B45871   6.286  23.692   6.260
 3562POPC   C2B45872   6.349  24.044   6.569
 3562POPC   C3B45873   6.372  24.218   6.998
 3562POPC   C4B45874   6.218  23.963   7.395
 3563POPC   NC345875  15.332  12.581   5.338
 3563POPC   PO445876  15.008  13.207   5.441
 3563POPC   GL145877  15.266  12.960   5.742
 3563POPC   GL245878  15.051  12.659   5.750
 3563POPC   C1A45879  15.324  13.057   6.194
 3563POPC   D2A45880  15.156  12.936   6.621
 3563POPC   C3A45881  15.404  12.823   6.997
 3563POPC   C4A45882  15.502  12.682   7.440
 3563POPC   C1B45883  14.871  12.363   6.065
 3563POPC   C2B45884  14.712  12.362   6.497
 3563POPC   C3B45885  14.770  12.532   6.921
 3563POPC   C4B45886  14.997  12.615   7.313
 3564POPC   NC345887   9.951  29.908   5.532
 3564POPC   PO445888   9.390  29.698   5.486
 3564POPC   GL145889   9.523  29.909   5.868
 3564POPC   GL245890   9.693  30.185   5.922
 3564POPC   C1A45891   9.546  29.846   6.303
 3564POPC   D2A45892   9.739  29.507   6.539
 3564POPC   C3A45893   9.626  29.415   6.966
 3564POPC   C4A45894   9.780  29.568   7.366
 3564POPC   C1B45895  10.016  30.002   6.207
 3564POPC   C2B45896  10.101  29.907   6.665
 3564POPC   C3B45897   9.927  29.984   7.090
 3564POPC   C4B45898  10.035  29.977   7.544
 3565POPC   NC345899   5.322  10.411   5.415
 3565POPC   PO445900   4.680  10.124   5.456
 3565POPC   GL145901   4.999  10.241   5.771
 3565POPC   GL245902   5.063  10.623   5.825
 3565POPC   C1A45903   5.242  10.325   6.165
 3565POPC   D2A45904   5.132  10.508   6.548
 3565POPC   C3A45905   5.358  10.283   6.880
 3565POPC   C4A45906   5.190  10.109   7.252
 3565POPC   C1B45907   4.976  10.889   6.163
 3565POPC   C2B45908   4.752  10.975   6.520
 3565POPC   C3B45909   4.784  10.724   6.871
 3565POPC   C4B45910   5.124  10.651   7.142
 3566POPC   NC345911   7.257  30.409   5.532
 3566POPC   PO445912   7.726  30.739   5.482
 3566POPC   GL145913   7.579  30.678   5.837
 3566POPC   GL245914   7.265  30.827   5.821
 3566POPC   C1A45915   7.642  30.549   6.231
 3566POPC   D2A45916   7.660  30.345   6.594
 3566POPC   C3A45917   7.631  30.681   6.906
 3566POPC   C4A45918   7.505  30.777   7.352
 3566POPC   C1B45919   7.158  30.494   6.137
 3566POPC   C2B45920   7.229  30.603   6.549
 3566POPC   C3B45921   7.055  30.736   6.925
 3566POPC   C4B45922   7.052  30.521   7.313
 3567POPC   NC345923  30.314  28.972   5.470
 3567POPC   PO445924  31.031  29.214   5.399
 3567POPC   GL145925  30.816  29.230   5.830
 3567POPC   GL245926  30.717  28.890   5.833
 3567POPC   C1A45927  30.683  29.232   6.271
 3567POPC   D2A45928  30.580  29.043   6.648
 3567POPC   C3A45929  30.588  29.341   6.940
 3567POPC   C4A45930  30.656  29.241   7.330
 3567POPC   C1B45931  30.774  28.731   6.264
 3567POPC   C2B45932  30.973  28.743   6.698
 3567POPC   C3B45933  30.873  28.808   7.164
 3567POPC   C4B45934  30.820  28.889   7.647
 3568POPC   NC345935  43.615  31.042   5.212
 3568POPC   PO445936  43.895  31.674   5.189
 3568POPC   GL145937  43.768  31.637   5.659
 3568POPC   GL245938  43.639  31.319   5.665
 3568POPC   C1A45939  43.843  31.605   6.148
 3568POPC   D2A45940  44.002  31.637   6.609
 3568POPC   C3A45941  44.059  31.333   6.975
 3568POPC   C4A45942  44.007  31.499   7.423
 3568POPC   C1B45943  43.581  31.167   6.100
 3568POPC   C2B45944  43.712  31.225   6.548
 3568POPC   C3B45945  43.563  31.449   6.940
 3568POPC   C4B45946  43.483  31.405   7.408
 3569POPC   NC345947  38.739   5.356   5.535
 3569POPC   PO445948  38.355   4.822   5.408
 3569POPC   GL145949  38.485   4.997   5.801
 3569POPC   GL245950  38.299   5.292   5.847
 3569POPC   C1A45951  38.665   5.119   6.199
 3569POPC   D2A45952  38.644   4.929   6.583
 3569POPC   C3A45953  38.606   5.144   6.952
 3569POPC   C4A45954  38.367   4.983   7.254
 3569POPC   C1B45955  38.292   5.493   6.231
 3569POPC   C2B45956  38.096   5.554   6.612
 3569POPC   C3B45957  38.253   5.534   7.037
 3569POPC   C4B45958  38.186   5.428   7.461
 3570POPC   NC345959   5.744  42.934   5.419
 3570POPC   PO445960   6.279  43.348   5.480
 3570POPC   GL145961   6.053  43.310   5.864
 3570POPC   GL245962   5.842  43.004   5.910
 3570POPC   C1A45963   5.950  43.263   6.320
 3570POPC   D2A45964   5.763  43.134   6.709
 3570POPC   C3A45965   6.028  43.024   7.035
 3570POPC   C4A45966   5.917  42.983   7.447
 3570POPC   C1B45967   5.532  42.936   6.268
 3570POPC   C2B45968   5.529  42.672   6.647
 3570POPC   C3B45969   5.573  42.771   7.104
 3570POPC   C4B45970   5.486  42.731   7.570
 3571POPC   NC345971  40.209   6.543   5.268
 3571POPC   PO445972  39.638   6.885   5.357
 3571POPC   GL145973  39.868   6.626   5.638
 3571POPC   GL245974  40.039   6.891   5.782
 3571POPC   C1A45975  39.870   6.541   6.106
 3571POPC   D2A45976  39.751   6.485   6.531
 3571POPC   C3A45977  40.096   6.499   6.817
 3571POPC   C4A45978  40.001   6.452   7.222
 3571POPC   C1B45979  40.171   7.095   6.153
 3571POPC   C2B45980  40.081   6.928   6.557
 3571POPC   C3B45981  39.999   6.958   7.001
 3571POPC   C4B45982  40.155   7.243   7.248
 3572POPC   NC345983  31.106  37.519   5.540
 3572POPC   PO445984  31.859  37.396   5.501
 3572POPC   GL145985  31.610  37.544   5.865
 3572POPC   GL245986  31.656  37.915   5.768
 3572POPC   C1A45987  31.200  37.549   6.174
 3572POPC   D2A45988  31.116  37.789   6.553
 3572POPC   C3A45989  31.108  37.593   6.979
 3572POPC   C4A45990  31.402  37.421   7.251
 3572POPC   C1B45991  31.555  37.914   6.208
 3572POPC   C2B45992  31.618  37.583   6.451
 3572POPC   C3B45993  31.616  37.630   6.846
 3572POPC   C4B45994  31.901  37.791   7.113
 3573POPC   NC345995  13.449   6.689   5.165
 3573POPC   PO445996  13.970   6.851   5.550
 3573POPC   GL145997  13.795   6.525   5.810
 3573POPC   GL245998  13.970   6.215   5.918
 3573POPC   C1A45999  13.521   6.524   6.165
 3573POPC   D2A46000  13.568   6.831   6.486
 3573POPC   C3A46001  13.597   6.731   6.927
 3573POPC   C4A46002  13.604   6.830   7.364
 3573POPC   C1B46003  13.942   6.309   6.314
 3573POPC   C2B46004  13.673   6.331   6.622
 3573POPC   C3B46005  13.884   6.287   6.992
 3573POPC   C4B46006  13.889   6.399   7.407
 3574POPC   NC346007  34.399   3.761   5.391
 3574POPC   PO446008  34.682   3.188   5.339
 3574POPC   GL146009  34.662   3.463   5.737
 3574POPC   GL246010  34.306   3.536   5.842
 3574POPC   C1A46011  34.889   3.564   6.153
 3574POPC   D2A46012  34.824   3.795   6.550
 3574POPC   C3A46013  34.762   3.589   6.933
 3574POPC   C4A46014  34.739   3.772   7.348
 3574POPC   C1B46015  34.410   3.752   6.238
 3574POPC   C2B46016  34.325   3.878   6.684
 3574POPC   C3B46017  34.275   3.754   7.150
 3574POPC   C4B46018  34.321   3.659   7.629
 3575POPC   NC346019  20.544  36.432   5.192
 3575POPC   PO446020  20.518  37.143   5.369
 3575POPC   GL146021  20.581  36.886   5.750
 3575POPC   GL246022  20.375  36.586   5.811
 3575POPC   C1A46023  20.582  36.978   6.210
 3575POPC   D2A46024  20.768  36.896   6.630
 3575POPC   C3A46025  20.483  37.035   6.960
 3575POPC   C4A46026  20.507  37.212   7.335
 3575POPC   C1B46027  20.267  36.549   6.249
 3575POPC   C2B46028  20.340  36.615   6.702
 3575POPC   C3B46029  20.301  36.593   7.180
 3575POPC   C4B46030  20.384  36.693   7.648
 3576POPC   NC346031  17.984  17.149   5.302
 3576POPC   PO446032  18.598  16.999   5.562
 3576POPC   GL146033  18.313  16.649   5.678
 3576POPC   GL246034  18.009  16.819   5.714
 3576POPC   C1A46035  18.150  16.430   6.076
 3576POPC   D2A46036  18.075  16.586   6.527
 3576POPC   C3A46037  18.428  16.575   6.847
 3576POPC   C4A46038  18.599  16.613   7.278
 3576POPC   C1B46039  17.973  16.928   6.139
 3576POPC   C2B46040  17.683  16.930   6.482
 3576POPC   C3B46041  17.770  16.960   6.931
 3576POPC   C4B46042  18.110  16.794   7.198
 3577POPC   NC346043  36.035  18.925   5.007
 3577POPC   PO446044  36.422  19.290   5.313
 3577POPC   GL146045  36.305  19.388   5.740
 3577POPC   GL246046  36.306  19.019   5.805
 3577POPC   C1A46047  36.317  19.410   6.202
 3577POPC   D2A46048  36.470  19.456   6.652
 3577POPC   C3A46049  36.282  19.129   7.009
 3577POPC   C4A46050  36.033  19.028   7.383
 3577POPC   C1B46051  35.997  19.006   6.149
 3577POPC   C2B46052  36.013  19.154   6.570
 3577POPC   C3B46053  35.808  18.940   6.916
 3577POPC   C4B46054  35.778  18.602   7.196
 3578POPC   NC346055  27.941  37.022   5.605
 3578POPC   PO446056  27.315  36.802   5.539
 3578POPC   GL146057  27.558  36.733   5.951
 3578POPC   GL246058  27.878  36.886   6.081
 3578POPC   C1A46059  27.487  36.685   6.406
 3578POPC   D2A46060  27.329  37.001   6.728
 3578POPC   C3A46061  27.534  36.998   7.133
 3578POPC   C4A46062  27.399  36.610   7.334
 3578POPC   C1B46063  27.692  37.156   6.363
 3578POPC   C2B46064  27.856  37.173   6.759
 3578POPC   C3B46065  28.007  37.330   7.140
 3578POPC   C4B46066  27.780  37.288   7.531
 3579POPC   NC346067  36.042   3.837   5.335
 3579POPC   PO446068  35.916   4.497   5.357
 3579POPC   GL146069  35.940   4.222   5.700
 3579POPC   GL246070  36.277   4.212   5.742
 3579POPC   C1A46071  35.966   4.221   6.153
 3579POPC   D2A46072  35.751   4.132   6.523
 3579POPC   C3A46073  35.989   4.304   6.815
 3579POPC   C4A46074  35.955   4.224   7.221
 3579POPC   C1B46075  36.497   4.331   6.127
 3579POPC   C2B46076  36.445   4.407   6.540
 3579POPC   C3B46077  36.547   4.256   6.908
 3579POPC   C4B46078  36.514   4.451   7.265
 3580POPC   NC346079  16.812   2.314   5.205
 3580POPC   PO446080  16.821   2.896   5.545
 3580POPC   GL146081  16.825   2.669   5.900
 3580POPC   GL246082  17.009   2.405   5.680
 3580POPC   C1A46083  16.550   2.693   6.279
 3580POPC   D2A46084  16.516   2.444   6.668
 3580POPC   C3A46085  16.608   2.656   7.063
 3580POPC   C4A46086  16.817   2.682   7.479
 3580POPC   C1B46087  17.108   2.284   6.067
 3580POPC   C2B46088  17.024   2.530   6.389
 3580POPC   C3B46089  17.024   2.571   6.781
 3580POPC   C4B46090  17.117   2.413   7.128
 3581POPC   NC346091  17.756   0.954   5.446
 3581POPC   PO446092  17.329   1.414   5.362
 3581POPC   GL146093  17.451   1.433   5.790
 3581POPC   GL246094  17.397   1.079   5.806
 3581POPC   C1A46095  17.326   1.374   6.231
 3581POPC   D2A46096  17.550   1.316   6.605
 3581POPC   C3A46097  17.338   1.448   6.972
 3581POPC   C4A46098  17.460   1.677   7.315
 3581POPC   C1B46099  17.463   0.884   6.188
 3581POPC   C2B46100  17.250   0.907   6.574
 3581POPC   C3B46101  17.426   0.914   6.964
 3581POPC   C4B46102  17.514   0.605   7.240
 3582POPC   NC346103  17.161   4.205   5.534
 3582POPC   PO446104  17.770   4.164   5.266
 3582POPC   GL146105  17.635   4.412   5.689
 3582POPC   GL246106  17.359   4.323   5.961
 3582POPC   C1A46107  17.800   4.385   6.139
 3582POPC   D2A46108  17.612   4.182   6.497
 3582POPC   C3A46109  17.691   4.304   6.914
 3582POPC   C4A46110  17.351   4.483   7.202
 3582POPC   C1B46111  17.154   4.062   6.203
 3582POPC   C2B46112  17.211   3.872   6.562
 3582POPC   C3B46113  17.202   4.098   6.905
 3582POPC   C4B46114  17.125   3.925   7.268
 3583POPC   NC346115  16.153  29.264   5.360
 3583POPC   PO446116  15.614  28.870   5.425
 3583POPC   GL146117  15.785  29.126   5.754
 3583POPC   GL246118  15.612  29.421   5.819
 3583POPC   C1A46119  16.088  29.242   6.093
 3583POPC   D2A46120  16.283  29.355   6.500
 3583POPC   C3A46121  16.086  29.161   6.861
 3583POPC   C4A46122  16.223  29.327   7.250
 3583POPC   C1B46123  15.591  29.218   6.257
 3583POPC   C2B46124  15.730  28.828   6.500
 3583POPC   C3B46125  15.818  28.620   6.899
 3583POPC   C4B46126  15.689  28.935   7.194
 3584POPC   NC346127   6.231   0.425   5.665
 3584POPC   PO446128   5.730   0.157   5.272
 3584POPC   GL146129   5.846   0.125   5.805
 3584POPC   GL246130   6.062   0.302   6.108
 3584POPC   C1A46131   5.664   0.040   6.258
 3584POPC   D2A46132   5.977   0.095   6.622
 3584POPC   C3A46133   5.820   0.219   7.035
 3584POPC   C4A46134   5.675   0.123   7.446
 3584POPC   C1B46135   6.160   0.706   6.331
 3584POPC   C2B46136   6.064   0.730   6.755
 3584POPC   C3B46137   5.997   0.680   7.178
 3584POPC   C4B46138   6.227   0.711   7.562
 3585POPC   NC346139   3.856  24.622   5.321
 3585POPC   PO446140   3.211  24.524   5.303
 3585POPC   GL146141   3.527  24.379   5.680
 3585POPC   GL246142   3.793  24.642   5.831
 3585POPC   C1A46143   3.595  24.304   6.156
 3585POPC   D2A46144   3.708  24.469   6.578
 3585POPC   C3A46145   3.442  24.373   6.914
 3585POPC   C4A46146   3.597  24.303   7.307
 3585POPC   C1B46147   3.673  24.864   6.241
 3585POPC   C2B46148   3.586  24.980   6.713
 3585POPC   C3B46149   3.691  24.792   7.141
 3585POPC   C4B46150   3.760  24.695   7.606
 3586POPC   NC346151  36.760  21.791   5.383
 3586POPC   PO446152  37.120  22.442   5.330
 3586POPC   GL146153  36.933  22.203   5.686
 3586POPC   GL246154  37.118  21.906   5.737
 3586POPC   C1A46155  36.865  22.133   6.132
 3586POPC   D2A46156  36.877  22.376   6.481
 3586POPC   C3A46157  36.808  22.217   6.863
 3586POPC   C4A46158  36.902  22.399   7.229
 3586POPC   C1B46159  37.269  21.781   6.140
 3586POPC   C2B46160  37.205  21.982   6.565
 3586POPC   C3B46161  37.222  21.968   7.028
 3586POPC   C4B46162  37.319  22.223   7.452
 3587POPC   NC346163  18.012  35.038   5.546
 3587POPC   PO446164  18.391  35.550   5.490
 3587POPC   GL146165  18.441  35.288   5.821
 3587POPC   GL246166  18.100  35.393   5.911
 3587POPC   C1A46167  18.567  35.521   6.177
 3587POPC   D2A46168  18.351  35.745   6.520
 3587POPC   C3A46169  18.437  35.633   6.952
 3587POPC   C4A46170  18.120  35.388   7.129
 3587POPC   C1B46171  18.168  35.259   6.315
 3587POPC   C2B46172  18.411  35.217   6.663
 3587POPC   C3B46173  18.420  34.975   7.031
 3587POPC   C4B46174  18.407  35.134   7.471
 3588POPC   NC346175  35.186  15.382   5.144
 3588POPC   PO446176  35.754  14.997   5.293
 3588POPC   GL146177  35.512  15.074   5.707
 3588POPC   GL246178  35.163  15.231   5.696
 3588POPC   C1A46179  35.443  15.310   6.114
 3588POPC   D2A46180  35.285  15.230   6.522
 3588POPC   C3A46181  35.472  15.364   6.926
 3588POPC   C4A46182  35.559  15.584   7.300
 3588POPC   C1B46183  34.945  15.091   6.108
 3588POPC   C2B46184  34.901  14.911   6.539
 3588POPC   C3B46185  34.992  15.152   6.938
 3588POPC   C4B46186  35.201  15.211   7.350
 3589POPC   NC346187  11.280   7.404   5.241
 3589POPC   PO446188  11.744   7.693   5.686
 3589POPC   GL146189  11.370   7.498   5.770
 3589POPC   GL246190  11.305   7.164   5.711
 3589POPC   C1A46191  11.344   7.403   6.165
 3589POPC   D2A46192  11.492   7.561   6.519
 3589POPC   C3A46193  11.478   7.364   6.919
 3589POPC   C4A46194  11.259   7.402   7.259
 3589POPC   C1B46195  11.096   6.968   6.095
 3589POPC   C2B46196  11.218   7.089   6.536
 3589POPC   C3B46197  11.018   7.097   6.933
 3589POPC   C4B46198  10.821   7.172   7.346
 3590POPC   NC346199  11.974  38.279   5.487
 3590POPC   PO446200  11.772  38.972   5.425
 3590POPC   GL146201  11.919  38.705   5.787
 3590POPC   GL246202  12.235  38.799   5.912
 3590POPC   C1A46203  12.040  38.395   6.144
 3590POPC   D2A46204  12.081  38.421   6.593
 3590POPC   C3A46205  11.852  38.377   6.994
 3590POPC   C4A46206  12.186  38.248   7.306
 3590POPC   C1B46207  12.064  38.911   6.285
 3590POPC   C2B46208  12.026  38.918   6.723
 3590POPC   C3B46209  12.249  38.703   6.998
 3590POPC   C4B46210  11.976  38.733   7.324
 3591POPC   NC346211  28.076  29.789   5.395
 3591POPC   PO446212  28.696  29.781   5.194
 3591POPC   GL146213  28.517  29.671   5.651
 3591POPC   GL246214  28.474  30.027   5.787
 3591POPC   C1A46215  28.375  29.646   6.122
 3591POPC   D2A46216  28.237  30.009   6.412
 3591POPC   C3A46217  28.144  30.032   6.876
 3591POPC   C4A46218  27.890  29.826   7.184
 3591POPC   C1B46219  28.740  30.029   6.188
 3591POPC   C2B46220  28.667  29.861   6.619
 3591POPC   C3B46221  28.646  30.009   7.055
 3591POPC   C4B46222  28.577  29.833   7.445
 3592POPC   NC346223   0.617   3.942   5.556
 3592POPC   PO446224   0.140   3.408   5.493
 3592POPC   GL146225   0.397   3.561   5.884
 3592POPC   GL246226   0.247   3.878   5.912
 3592POPC   C1A46227   0.707   3.461   6.252
 3592POPC   D2A46228   0.773   3.625   6.707
 3592POPC   C3A46229   0.554   3.446   7.104
 3592POPC   C4A46230   0.364   3.284   7.538
 3592POPC   C1B46231   0.280   3.710   6.366
 3592POPC   C2B46232   0.208   3.673   6.798
 3592POPC   C3B46233   0.105   3.595   7.238
 3592POPC   C4B46234  44.991   3.667   7.620
 3593POPC   NC346235  20.866  30.935   5.365
 3593POPC   PO446236  21.582  30.890   5.434
 3593POPC   GL146237  21.242  30.767   5.698
 3593POPC   GL246238  21.142  31.074   5.774
 3593POPC   C1A46239  21.213  30.526   6.090
 3593POPC   D2A46240  21.570  30.412   6.353
 3593POPC   C3A46241  21.620  30.536   6.812
 3593POPC   C4A46242  21.529  30.599   7.248
 3593POPC   C1B46243  20.990  30.973   6.200
 3593POPC   C2B46244  21.218  30.754   6.549
 3593POPC   C3B46245  21.121  30.665   6.960
 3593POPC   C4B46246  21.190  31.054   7.183
 3594POPC   NC346247  28.640  19.272   5.423
 3594POPC   PO446248  28.000  18.972   5.423
 3594POPC   GL146249  28.248  19.163   5.751
 3594POPC   GL246250  28.564  18.978   5.829
 3594POPC   C1A46251  28.347  19.247   6.199
 3594POPC   D2A46252  28.224  19.174   6.628
 3594POPC   C3A46253  28.518  19.185   6.985
 3594POPC   C4A46254  28.230  19.315   7.293
 3594POPC   C1B46255  28.764  18.757   6.160
 3594POPC   C2B46256  28.731  18.901   6.585
 3594POPC   C3B46257  28.722  18.673   6.969
 3594POPC   C4B46258  28.658  18.788   7.365
 3595POPC   NC346259  28.072  28.198   5.647
 3595POPC   PO446260  28.781  28.214   5.483
 3595POPC   GL146261  28.555  28.334   5.819
 3595POPC   GL246262  28.312  28.637   5.825
 3595POPC   C1A46263  28.484  28.320   6.237
 3595POPC   D2A46264  28.404  28.602   6.551
 3595POPC   C3A46265  28.590  28.401   6.876
 3595POPC   C4A46266  28.466  28.404   7.256
 3595POPC   C1B46267  28.040  28.760   6.197
 3595POPC   C2B46268  28.011  28.913   6.659
 3595POPC   C3B46269  28.060  28.561   6.990
 3595POPC   C4B46270  28.013  28.381   7.457
 3596POPC   NC346271  42.915   7.432   5.481
 3596POPC   PO446272  43.608   7.231   5.437
 3596POPC   GL146273  43.314   7.376   5.806
 3596POPC   GL246274  42.979   7.225   5.932
 3596POPC   C1A46275  43.077   7.698   6.077
 3596POPC   D2A46276  43.076   7.793   6.500
 3596POPC   C3A46277  42.962   7.442   6.758
 3596POPC   C4A46278  42.918   7.444   7.175
 3596POPC   C1B46279  43.357   7.090   6.223
 3596POPC   C2B46280  43.307   7.051   6.658
 3596POPC   C3B46281  43.368   7.061   7.097
 3596POPC   C4B46282  43.268   7.239   7.487
 3597POPC   NC346283  13.593  28.810   5.583
 3597POPC   PO446284  13.397  29.432   5.329
 3597POPC   GL146285  13.367  29.278   5.730
 3597POPC   GL246286  13.702  29.258   5.787
 3597POPC   C1A46287  13.399  29.059   6.151
 3597POPC   D2A46288  13.566  29.207   6.526
 3597POPC   C3A46289  13.536  29.013   6.912
 3597POPC   C4A46290  13.538  29.234   7.277
 3597POPC   C1B46291  13.931  29.110   6.177
 3597POPC   C2B46292  14.079  29.328   6.563
 3597POPC   C3B46293  13.987  29.267   7.015
 3597POPC   C4B46294  13.956  28.898   7.266
 3598POPC   NC346295   5.503  36.981   5.586
 3598POPC   PO446296   5.999  36.697   5.197
 3598POPC   GL146297   5.981  36.738   5.690
 3598POPC   GL246298   5.854  36.992   5.958
 3598POPC   C1A46299   6.114  36.604   6.119
 3598POPC   D2A46300   6.207  36.544   6.568
 3598POPC   C3A46301   5.873  36.727   6.829
 3598POPC   C4A46302   5.993  36.884   7.217
 3598POPC   C1B46303   5.657  36.842   6.345
 3598POPC   C2B46304   5.508  37.087   6.699
 3598POPC   C3B46305   5.838  37.274   6.912
 3598POPC   C4B46306   6.031  37.405   7.252
 3599POPC   NC346307  19.166  41.341   5.231
 3599POPC   PO446308  19.410  40.689   5.376
 3599POPC   GL146309  19.194  40.834   5.817
 3599POPC   GL246310  18.852  40.760   5.941
 3599POPC   C1A46311  19.175  40.824   6.320
 3599POPC   D2A46312  18.866  40.658   6.620
 3599POPC   C3A46313  18.989  40.518   7.032
 3599POPC   C4A46314  19.410  40.520   7.086
 3599POPC   C1B46315  18.672  41.034   6.263
 3599POPC   C2B46316  18.846  41.179   6.643
 3599POPC   C3B46317  19.197  40.968   6.877
 3599POPC   C4B46318  19.193  40.922   7.325
 3600POPC   NC346319  13.899  14.119   5.380
 3600POPC   PO446320  14.447  14.542   5.365
 3600POPC   GL146321  14.384  14.698   5.762
 3600POPC   GL246322  14.065  14.556   5.804
 3600POPC   C1A46323  14.455  14.676   6.202
 3600POPC   D2A46324  14.655  14.384   6.484
 3600POPC   C3A46325  14.466  14.398   6.875
 3600POPC   C4A46326  14.692  14.511   7.235
 3600POPC   C1B46327  14.296  14.222   6.060
 3600POPC   C2B46328  14.177  14.144   6.510
 3600POPC   C3B46329  13.995  14.098   6.920
 3600POPC   C4B46330  14.240  14.193   7.286
 3601POPC   NC346331  31.337   2.744   5.267
 3601POPC   PO446332  31.792   2.546   5.700
 3601POPC   GL146333  31.489   2.850   5.794
 3601POPC   GL246334  31.264   2.590   5.750
 3601POPC   C1A46335  31.527   2.923   6.235
 3601POPC   D2A46336  31.707   2.664   6.580
 3601POPC   C3A46337  31.683   2.805   7.009
 3601POPC   C4A46338  31.466   2.988   7.376
 3601POPC   C1B46339  31.287   2.474   6.175
 3601POPC   C2B46340  31.178   2.685   6.549
 3601POPC   C3B46341  31.163   2.802   6.961
 3601POPC   C4B46342  31.234   2.557   7.270
 3602POPC   NC346343  24.203  24.749   5.096
 3602POPC   PO446344  23.674  24.516   5.449
 3602POPC   GL146345  23.519  24.359   5.817
 3602POPC   GL246346  23.517  24.678   5.989
 3602POPC   C1A46347  23.730  24.220   6.202
 3602POPC   D2A46348  23.774  24.448   6.585
 3602POPC   C3A46349  23.680  24.212   6.941
 3602POPC   C4A46350  23.766  24.351   7.360
 3602POPC   C1B46351  23.303  24.457   6.348
 3602POPC   C2B46352  23.271  24.581   6.790
 3602POPC   C3B46353  23.395  24.761   7.211
 3602POPC   C4B46354  23.468  24.662   7.669
 3603POPC   NC346355  16.904   0.542   5.320
 3603POPC   PO446356  16.247   0.616   5.445
 3603POPC   GL146357  16.601   0.545   5.802
 3603POPC   GL246358  17.003   0.600   5.826
 3603POPC   C1A46359  16.547   0.351   6.227
 3603POPC   D2A46360  16.516   0.085   6.606
 3603POPC   C3A46361  16.548   0.372   6.939
 3603POPC   C4A46362  16.627   0.339   7.357
 3603POPC   C1B46363  16.906   0.727   6.227
 3603POPC   C2B46364  16.904   0.514   6.612
 3603POPC   C3B46365  17.016   0.591   7.056
 3603POPC   C4B46366  17.095   0.768   7.504
 3604POPC   NC346367  39.890  23.526   5.533
 3604POPC   PO446368  40.370  23.946   5.412
 3604POPC   GL146369  40.136  24.046   5.830
 3604POPC   GL246370  39.780  23.899   5.859
 3604POPC   C1A46371  39.947  24.120   6.274
 3604POPC   D2A46372  40.059  24.000   6.705
 3604POPC   C3A46373  39.815  23.963   7.095
 3604POPC   C4A46374  39.963  23.921   7.550
 3604POPC   C1B46375  39.948  23.613   6.164
 3604POPC   C2B46376  39.778  23.610   6.538
 3604POPC   C3B46377  39.862  23.451   6.894
 3604POPC   C4B46378  39.843  23.498   7.306
 3605POPC   NC346379  35.078  34.120   5.578
 3605POPC   PO446380  35.442  33.519   5.450
 3605POPC   GL146381  35.194  33.667   5.789
 3605POPC   GL246382  35.463  33.879   5.881
 3605POPC   C1A46383  35.119  33.817   6.228
 3605POPC   D2A46384  35.386  33.830   6.573
 3605POPC   C3A46385  35.164  33.728   6.910
 3605POPC   C4A46386  35.334  33.540   7.253
 3605POPC   C1B46387  35.643  34.133   6.239
 3605POPC   C2B46388  35.555  34.323   6.623
 3605POPC   C3B46389  35.681  34.271   7.024
 3605POPC   C4B46390  35.339  34.089   7.197
 3606POPC   NC346391  21.650  21.778   5.484
 3606POPC   PO446392  21.247  21.231   5.312
 3606POPC   GL146393  21.326  21.393   5.737
 3606POPC   GL246394  21.209  21.720   5.772
 3606POPC   C1A46395  21.292  21.284   6.197
 3606POPC   D2A46396  21.543  21.220   6.588
 3606POPC   C3A46397  21.339  21.119   6.984
 3606POPC   C4A46398  21.319  21.280   7.442
 3606POPC   C1B46399  21.480  21.772   6.137
 3606POPC   C2B46400  21.621  21.816   6.557
 3606POPC   C3B46401  21.581  21.597   6.959
 3606POPC   C4B46402  21.487  21.754   7.359
 3607POPC   NC346403  38.376  30.376   5.516
 3607POPC   PO446404  38.401  31.024   5.238
 3607POPC   GL146405  38.310  30.890   5.665
 3607POPC   GL246406  38.600  30.705   5.843
 3607POPC   C1A46407  38.286  31.004   6.116
 3607POPC   D2A46408  38.486  31.104   6.533
 3607POPC   C3A46409  38.509  30.781   6.853
 3607POPC   C4A46410  38.278  30.764   7.232
 3607POPC   C1B46411  38.879  30.357   6.010
 3607POPC   C2B46412  38.917  30.293   6.489
 3607POPC   C3B46413  38.749  30.261   6.937
 3607POPC   C4B46414  38.720  30.514   7.318
 3608POPC   NC346415   6.217   8.129   5.244
 3608POPC   PO446416   5.537   8.298   5.406
 3608POPC   GL146417   5.731   8.309   5.816
 3608POPC   GL246418   5.823   7.977   5.898
 3608POPC   C1A46419   5.995   8.361   6.203
 3608POPC   D2A46420   6.049   8.150   6.596
 3608POPC   C3A46421   6.122   8.344   6.989
 3608POPC   C4A46422   6.279   8.047   7.256
 3608POPC   C1B46423   5.590   8.061   6.312
 3608POPC   C2B46424   5.649   7.850   6.730
 3608POPC   C3B46425   5.698   8.016   7.118
 3608POPC   C4B46426   5.421   8.332   7.271
 3609POPC   NC346427  12.427   4.079   5.456
 3609POPC   PO446428  11.892   4.111   5.142
 3609POPC   GL146429  12.014   4.288   5.669
 3609POPC   GL246430  11.916   4.588   5.805
 3609POPC   C1A46431  12.086   4.170   6.166
 3609POPC   D2A46432  12.318   4.061   6.589
 3609POPC   C3A46433  12.216   4.172   7.042
 3609POPC   C4A46434  12.289   4.104   7.511
 3609POPC   C1B46435  12.177   4.676   6.173
 3609POPC   C2B46436  12.135   4.546   6.597
 3609POPC   C3B46437  12.156   4.682   7.012
 3609POPC   C4B46438  11.987   4.507   7.414
 3610POPC   NC346439  19.374  25.047   5.504
 3610POPC   PO446440  19.365  25.742   5.367
 3610POPC   GL146441  19.288  25.490   5.787
 3610POPC   GL246442  19.108  25.155   5.942
 3610POPC   C1A46443  19.206  25.590   6.224
 3610POPC   D2A46444  19.094  25.261   6.508
 3610POPC   C3A46445  19.146  25.214   6.946
 3610POPC   C4A46446  18.994  25.425   7.283
 3610POPC   C1B46447  18.808  24.914   6.245
 3610POPC   C2B46448  18.921  24.813   6.696
 3610POPC   C3B46449  18.875  24.761   7.161
 3610POPC   C4B46450  18.886  24.994   7.538
 3611POPC   NC346451  10.778   2.296   5.386
 3611POPC   PO446452  10.226   1.794   5.358
 3611POPC   GL146453  10.451   1.908   5.743
 3611POPC   GL246454  10.817   1.999   5.809
 3611POPC   C1A46455  10.611   1.677   6.124
 3611POPC   D2A46456  10.647   1.894   6.479
 3611POPC   C3A46457  10.662   1.791   6.912
 3611POPC   C4A46458  10.343   1.851   7.241
 3611POPC   C1B46459  10.563   2.260   6.109
 3611POPC   C2B46460  10.582   2.401   6.555
 3611POPC   C3B46461  10.637   2.339   6.994
 3611POPC   C4B46462  10.882   2.506   7.350
 3612POPC   NC346463  22.359   6.514   5.390
 3612POPC   PO446464  22.478   7.015   5.758
 3612POPC   GL146465  22.222   6.681   5.867
 3612POPC   GL246466  21.920   6.867   5.890
 3612POPC   C1A46467  22.205   6.434   6.248
 3612POPC   D2A46468  22.413   6.507   6.648
 3612POPC   C3A46469  22.287   6.758   6.971
 3612POPC   C4A46470  22.255   6.644   7.393
 3612POPC   C1B46471  21.769   6.701   6.277
 3612POPC   C2B46472  21.837   6.664   6.733
 3612POPC   C3B46473  21.828   6.833   7.183
 3612POPC   C4B46474  21.848   6.719   7.661
 3613POPC   NC346475  44.786  18.596   5.018
 3613POPC   PO446476  44.673  18.123   5.457
 3613POPC   GL146477  44.856  18.181   5.841
 3613POPC   GL246478  44.887  18.548   5.925
 3613POPC   C1A46479  44.993  18.128   6.251
 3613POPC   D2A46480  44.958  18.385   6.644
 3613POPC   C3A46481  44.811  18.220   7.052
 3613POPC   C4A46482  44.986  18.082   7.468
 3613POPC   C1B46483  44.617  18.448   6.270
 3613POPC   C2B46484  44.505  18.097   6.555
 3613POPC   C3B46485  44.300  18.019   6.961
 3613POPC   C4B46486  44.347  18.209   7.379
 3614POPC   NC346487  41.780  27.005   5.450
 3614POPC   PO446488  41.212  26.657   5.446
 3614POPC   GL146489  41.286  26.928   5.805
 3614POPC   GL246490  41.582  26.774   5.838
 3614POPC   C1A46491  41.412  26.914   6.282
 3614POPC   D2A46492  41.226  26.706   6.667
 3614POPC   C3A46493  41.419  26.796   7.058
 3614POPC   C4A46494  41.642  27.113   7.232
 3614POPC   C1B46495  41.921  26.865   6.121
 3614POPC   C2B46496  41.964  26.656   6.501
 3614POPC   C3B46497  41.929  26.875   6.857
 3614POPC   C4B46498  41.942  26.705   7.228
 3615POPC   NC346499  33.275  18.502   5.297
 3615POPC   PO446500  32.856  18.106   5.595
 3615POPC   GL146501  33.023  18.101   5.944
 3615POPC   GL246502  33.155  18.438   5.833
 3615POPC   C1A46503  33.113  18.159   6.322
 3615POPC   D2A46504  33.375  18.378   6.525
 3615POPC   C3A46505  33.167  18.267   6.908
 3615POPC   C4A46506  33.013  18.006   7.225
 3615POPC   C1B46507  32.829  18.522   6.141
 3615POPC   C2B46508  32.917  18.597   6.552
 3615POPC   C3B46509  32.773  18.615   6.941
 3615POPC   C4B46510  32.944  18.516   7.329
 3616POPC   NC346511  36.255  27.148   5.140
 3616POPC   PO446512  36.038  27.708   5.554
 3616POPC   GL146513  36.094  27.748   5.980
 3616POPC   GL246514  36.092  27.415   6.178
 3616POPC   C1A46515  36.107  27.873   6.417
 3616POPC   D2A46516  35.898  27.581   6.677
 3616POPC   C3A46517  35.845  27.721   7.093
 3616POPC   C4A46518  35.852  27.443   7.443
 3616POPC   C1B46519  36.506  27.601   6.242
 3616POPC   C2B46520  36.629  27.884   6.552
 3616POPC   C3B46521  36.377  27.787   6.905
 3616POPC   C4B46522  36.306  27.635   7.317
 3617POPC   NC346523  12.833  23.327   5.452
 3617POPC   PO446524  12.659  23.938   5.522
 3617POPC   GL146525  12.767  24.045   5.935
 3617POPC   GL246526  12.901  23.711   5.969
 3617POPC   C1A46527  12.865  24.131   6.395
 3617POPC   D2A46528  12.907  23.798   6.730
 3617POPC   C3A46529  12.667  23.821   7.131
 3617POPC   C4A46530  12.771  23.909   7.579
 3617POPC   C1B46531  13.274  23.535   6.213
 3617POPC   C2B46532  13.374  23.249   6.544
 3617POPC   C3B46533  13.202  23.250   6.945
 3617POPC   C4B46534  13.128  23.591   7.240
 3618POPC   NC346535  43.982   8.525   5.293
 3618POPC   PO446536  43.633   9.091   5.390
 3618POPC   GL146537  43.783   9.279   5.833
 3618POPC   GL246538  44.155   9.247   5.833
 3618POPC   C1A46539  43.786   9.197   6.287
 3618POPC   D2A46540  43.508   9.033   6.609
 3618POPC   C3A46541  43.744   8.971   6.968
 3618POPC   C4A46542  44.085   9.247   7.093
 3618POPC   C1B46543  44.275   9.069   6.231
 3618POPC   C2B46544  44.159   8.900   6.665
 3618POPC   C3B46545  44.229   8.776   7.132
 3618POPC   C4B46546  44.319   8.651   7.579
 3619POPC   NC346547  18.697   9.057   5.555
 3619POPC   PO446548  19.237   8.785   5.332
 3619POPC   GL146549  19.091   8.773   5.766
 3619POPC   GL246550  18.789   8.598   5.768
 3619POPC   C1A46551  19.041   9.032   6.187
 3619POPC   D2A46552  18.701   9.019   6.525
 3619POPC   C3A46553  18.893   8.989   6.933
 3619POPC   C4A46554  19.211   9.067   7.248
 3619POPC   C1B46555  18.771   8.613   6.188
 3619POPC   C2B46556  19.059   8.648   6.544
 3619POPC   C3B46557  19.193   8.564   6.951
 3619POPC   C4B46558  19.014   8.607   7.386
 3620POPC   NC346559  33.618  20.853   5.327
 3620POPC   PO446560  34.187  20.462   5.235
 3620POPC   GL146561  34.084  20.684   5.682
 3620POPC   GL246562  33.879  21.001   5.776
 3620POPC   C1A46563  33.815  20.551   6.077
 3620POPC   D2A46564  33.542  20.351   6.410
 3620POPC   C3A46565  33.546  20.552   6.821
 3620POPC   C4A46566  33.699  20.447   7.209
 3620POPC   C1B46567  34.147  20.930   6.158
 3620POPC   C2B46568  34.014  20.775   6.590
 3620POPC   C3B46569  34.073  20.742   7.060
 3620POPC   C4B46570  34.033  20.712   7.515
 3621POPC   NC346571  19.452  43.827   5.375
 3621POPC   PO446572  20.110  43.941   5.378
 3621POPC   GL146573  19.881  43.859   5.768
 3621POPC   GL246574  19.605  44.109   5.773
 3621POPC   C1A46575  20.012  43.878   6.226
 3621POPC   D2A46576  20.200  44.009   6.654
 3621POPC   C3A46577  19.969  43.840   7.029
 3621POPC   C4A46578  19.878  43.726   7.475
 3621POPC   C1B46579  19.515  43.927   6.176
 3621POPC   C2B46580  19.640  43.783   6.597
 3621POPC   C3B46581  19.507  44.023   6.922
 3621POPC   C4B46582  19.349  44.013   7.283
 3622POPC   NC346583   8.899  38.783   5.514
 3622POPC   PO446584   8.852  38.115   5.308
 3622POPC   GL146585   8.739  38.328   5.713
 3622POPC   GL246586   9.073  38.378   5.810
 3622POPC   C1A46587   8.726  38.568   6.141
 3622POPC   D2A46588   8.848  38.425   6.572
 3622POPC   C3A46589   8.796  38.694   6.940
 3622POPC   C4A46590   8.750  38.441   7.323
 3622POPC   C1B46591   9.224  38.443   6.225
 3622POPC   C2B46592   9.296  38.631   6.628
 3622POPC   C3B46593   9.267  38.457   7.046
 3622POPC   C4B46594   9.618  38.272   7.286
 3623POPC   NC346595  22.059  38.090   5.277
 3623POPC   PO446596  22.403  38.642   5.386
 3623POPC   GL146597  22.178  38.486   5.715
 3623POPC   GL246598  22.392  38.189   5.673
 3623POPC   C1A46599  22.094  38.662   6.145
 3623POPC   D2A46600  21.939  38.613   6.587
 3623POPC   C3A46601  22.000  38.714   7.047
 3623POPC   C4A46602  21.881  38.797   7.486
 3623POPC   C1B46603  22.249  38.117   6.083
 3623POPC   C2B46604  22.040  38.128   6.465
 3623POPC   C3B46605  22.162  38.214   6.856
 3623POPC   C4B46606  22.022  38.093   7.252
 3624POPC   NC346607  20.897   2.534   5.081
 3624POPC   PO446608  20.469   2.959   5.450
 3624POPC   GL146609  20.384   2.890   5.865
 3624POPC   GL246610  20.229   2.576   5.827
 3624POPC   C1A46611  20.521   3.041   6.272
 3624POPC   D2A46612  20.378   3.179   6.677
 3624POPC   C3A46613  20.711   3.111   6.947
 3624POPC   C4A46614  20.861   2.834   7.207
 3624POPC   C1B46615  20.188   2.663   6.281
 3624POPC   C2B46616  20.281   2.655   6.729
 3624POPC   C3B46617  20.334   2.674   7.191
 3624POPC   C4B46618  20.224   2.558   7.607
 3625POPC   NC346619  25.748  14.630   5.451
 3625POPC   PO446620  26.088  14.031   5.357
 3625POPC   GL146621  25.975  14.250   5.765
 3625POPC   GL246622  26.058  14.575   5.854
 3625POPC   C1A46623  25.881  14.156   6.221
 3625POPC   D2A46624  26.017  13.974   6.621
 3625POPC   C3A46625  25.884  14.210   6.994
 3625POPC   C4A46626  26.114  14.486   7.213
 3625POPC   C1B46627  25.675  14.618   6.150
 3625POPC   C2B46628  25.667  14.546   6.611
 3625POPC   C3B46629  25.734  14.760   6.988
 3625POPC   C4B46630  25.760  14.796   7.419
 3626POPC   NC346631  28.381  37.390   5.238
 3626POPC   PO446632  28.332  36.762   5.543
 3626POPC   GL146633  28.384  36.842   5.922
 3626POPC   GL246634  28.308  37.195   5.939
 3626POPC   C1A46635  28.348  36.768   6.320
 3626POPC   D2A46636  28.329  37.053   6.617
 3626POPC   C3A46637  28.265  36.861   6.978
 3626POPC   C4A46638  28.133  36.872   7.372
 3626POPC   C1B46639  28.676  37.140   6.236
 3626POPC   C2B46640  28.746  37.351   6.622
 3626POPC   C3B46641  28.565  37.288   7.027
 3626POPC   C4B46642  28.676  36.980   7.291
 3627POPC   NC346643  44.979  15.558   5.303
 3627POPC   PO446644  44.543  15.034   5.543
 3627POPC   GL146645  44.586  15.136   5.939
 3627POPC   GL246646  44.304  15.320   5.904
 3627POPC   C1A46647  44.767  15.024   6.326
 3627POPC   D2A46648  44.828  14.767   6.682
 3627POPC   C3A46649  44.727  15.056   6.989
 3627POPC   C4A46650  44.579  15.246   7.362
 3627POPC   C1B46651  44.220  15.115   6.299
 3627POPC   C2B46652  44.320  15.185   6.692
 3627POPC   C3B46653  44.212  14.983   7.070
 3627POPC   C4B46654  44.310  14.869   7.499
 3628POPC   NC346655  22.270   3.535   5.427
 3628POPC   PO446656  21.646   3.645   5.270
 3628POPC   GL146657  21.850   3.471   5.721
 3628POPC   GL246658  21.924   3.690   6.032
 3628POPC   C1A46659  21.968   3.192   6.119
 3628POPC   D2A46660  22.044   3.355   6.545
 3628POPC   C3A46661  22.032   3.066   6.886
 3628POPC   C4A46662  21.837   3.082   7.258
 3628POPC   C1B46663  22.339   3.686   6.262
 3628POPC   C2B46664  22.429   3.821   6.697
 3628POPC   C3B46665  22.279   3.525   7.005
 3628POPC   C4B46666  21.910   3.609   7.259
 3629POPC   NC346667  18.811  26.872   5.481
 3629POPC   PO446668  18.165  27.005   5.467
 3629POPC   GL146669  18.071  26.776   5.860
 3629POPC   GL246670  18.366  26.547   5.839
 3629POPC   C1A46671  18.132  26.828   6.327
 3629POPC   D2A46672  18.104  26.921   6.815
 3629POPC   C3A46673  18.504  27.088   7.006
 3629POPC   C4A46674  18.691  27.036   7.421
 3629POPC   C1B46675  18.515  26.432   6.258
 3629POPC   C2B46676  18.537  26.690   6.649
 3629POPC   C3B46677  18.421  26.596   7.077
 3629POPC   C4B46678  18.793  26.473   7.264
 3630POPC   NC346679  40.451  27.953   5.376
 3630POPC   PO446680  40.865  27.478   5.315
 3630POPC   GL146681  40.786  27.733   5.723
 3630POPC   GL246682  41.047  27.980   5.825
 3630POPC   C1A46683  40.717  27.758   6.180
 3630POPC   D2A46684  40.536  28.027   6.480
 3630POPC   C3A46685  40.570  27.867   6.886
 3630POPC   C4A46686  40.584  27.531   7.184
 3630POPC   C1B46687  41.221  27.797   6.205
 3630POPC   C2B46688  41.012  27.675   6.614
 3630POPC   C3B46689  41.045  27.765   7.073
 3630POPC   C4B46690  41.398  27.715   7.338
 3631POPC   NC346691  17.270  15.127   4.943
 3631POPC   PO446692  17.610  15.302   5.445
 3631POPC   GL146693  17.531  15.154   5.818
 3631POPC   GL246694  17.851  15.076   5.855
 3631POPC   C1A46695  17.485  15.099   6.235
 3631POPC   D2A46696  17.324  15.137   6.574
 3631POPC   C3A46697  17.606  15.059   6.874
 3631POPC   C4A46698  17.358  15.193   7.174
 3631POPC   C1B46699  17.868  15.419   6.167
 3631POPC   C2B46700  17.711  15.508   6.595
 3631POPC   C3B46701  17.786  15.512   7.063
 3631POPC   C4B46702  17.992  15.566   7.485
 3632POPC   NC346703  40.791  26.892   5.355
 3632POPC   PO446704  40.788  26.154   5.253
 3632POPC   GL146705  40.799  26.479   5.698
 3632POPC   GL246706  40.694  26.851   5.859
 3632POPC   C1A46707  40.644  26.441   6.143
 3632POPC   D2A46708  40.656  26.785   6.472
 3632POPC   C3A46709  40.551  26.686   6.897
 3632POPC   C4A46710  40.940  26.641   7.142
 3632POPC   C1B46711  40.580  27.216   6.188
 3632POPC   C2B46712  40.597  27.336   6.633
 3632POPC   C3B46713  40.803  27.122   6.990
 3632POPC   C4B46714  40.662  26.972   7.385
 3633POPC   NC346715  28.849  41.204   5.523
 3633POPC   PO446716  29.050  40.544   5.452
 3633POPC   GL146717  29.068  40.739   5.811
 3633POPC   GL246718  29.351  40.503   5.855
 3633POPC   C1A46719  28.797  40.863   6.146
 3633POPC   D2A46720  28.780  40.646   6.520
 3633POPC   C3A46721  28.898  40.809   6.939
 3633POPC   C4A46722  28.681  40.596   7.209
 3633POPC   C1B46723  29.248  40.613   6.283
 3633POPC   C2B46724  29.219  40.466   6.699
 3633POPC   C3B46725  29.262  40.490   7.135
 3633POPC   C4B46726  29.421  40.898   7.184
 3634POPC   NC346727  18.896  25.937   5.257
 3634POPC   PO446728  19.156  26.576   5.342
 3634POPC   GL146729  19.140  26.322   5.772
 3634POPC   GL246730  19.070  25.959   5.762
 3634POPC   C1A46731  19.365  26.105   6.145
 3634POPC   D2A46732  19.439  25.922   6.558
 3634POPC   C3A46733  19.072  25.816   6.757
 3634POPC   C4A46734  18.943  26.005   7.139
 3634POPC   C1B46735  18.858  25.966   6.203
 3634POPC   C2B46736  18.603  25.757   6.546
 3634POPC   C3B46737  18.627  25.621   6.979
 3634POPC   C4B46738  18.632  25.746   7.422
 3635POPC   NC346739  26.526  41.625   5.570
 3635POPC   PO446740  25.908  41.483   5.324
 3635POPC   GL146741  26.035  41.570   5.751
 3635POPC   GL246742  26.284  41.336   5.920
 3635POPC   C1A46743  26.130  41.800   6.139
 3635POPC   D2A46744  26.174  41.994   6.549
 3635POPC   C3A46745  26.065  41.846   6.951
 3635POPC   C4A46746  25.794  41.519   7.054
 3635POPC   C1B46747  25.895  41.362   6.201
 3635POPC   C2B46748  26.049  41.459   6.599
 3635POPC   C3B46749  26.262  41.265   6.925
 3635POPC   C4B46750  26.575  41.150   7.227
 3636POPC   NC346751  24.450   8.949   5.213
 3636POPC   PO446752  24.841   9.303   5.627
 3636POPC   GL146753  24.673   8.906   5.770
 3636POPC   GL246754  24.308   8.913   5.787
 3636POPC   C1A46755  24.602   8.751   6.203
 3636POPC   D2A46756  24.724   8.955   6.593
 3636POPC   C3A46757  24.599   8.740   6.979
 3636POPC   C4A46758  24.664   8.469   7.316
 3636POPC   C1B46759  24.422   9.227   6.145
 3636POPC   C2B46760  24.442   9.416   6.570
 3636POPC   C3B46761  24.452   9.223   6.976
 3636POPC   C4B46762  24.836   9.176   7.212
 3637POPC   NC346763  21.919  43.883   5.390
 3637POPC   PO446764  22.612  43.792   5.351
 3637POPC   GL146765  22.440  43.849   5.793
 3637POPC   GL246766  22.084  43.766   5.847
 3637POPC   C1A46767  22.328  43.896   6.263
 3637POPC   D2A46768  22.107  43.700   6.607
 3637POPC   C3A46769  22.322  43.718   6.955
 3637POPC   C4A46770  22.330  44.021   7.260
 3637POPC   C1B46771  21.816  43.840   6.214
 3637POPC   C2B46772  21.657  43.970   6.639
 3637POPC   C3B46773  21.850  43.900   7.056
 3637POPC   C4B46774  21.713  43.767   7.504
 3638POPC   NC346775  20.013   6.193   5.102
 3638POPC   PO446776  19.654   6.696   5.374
 3638POPC   GL146777  19.712   6.662   5.810
 3638POPC   GL246778  20.058   6.671   5.942
 3638POPC   C1A46779  19.614   6.385   6.162
 3638POPC   D2A46780  19.689   6.480   6.583
 3638POPC   C3A46781  19.426   6.720   6.834
 3638POPC   C4A46782  19.365   6.550   7.226
 3638POPC   C1B46783  19.787   6.894   6.281
 3638POPC   C2B46784  19.866   6.947   6.718
 3638POPC   C3B46785  20.066   6.658   6.936
 3638POPC   C4B46786  20.018   6.763   7.308
 3639POPC   NC346787  15.002   3.604   5.104
 3639POPC   PO446788  15.469   3.653   5.558
 3639POPC   GL146789  15.306   3.437   5.887
 3639POPC   GL246790  15.171   3.721   5.978
 3639POPC   C1A46791  15.011   3.328   6.246
 3639POPC   D2A46792  14.850   3.486   6.638
 3639POPC   C3A46793  15.055   3.411   7.006
 3639POPC   C4A46794  14.968   3.369   7.420
 3639POPC   C1B46795  15.386   3.846   6.290
 3639POPC   C2B46796  15.195   3.929   6.642
 3639POPC   C3B46797  15.095   4.039   7.026
 3639POPC   C4B46798  15.139   3.856   7.390
 3640POPC   NC346799  18.793  24.263   5.723
 3640POPC   PO446800  18.963  24.844   5.545
 3640POPC   GL146801  19.199  24.581   5.837
 3640POPC   GL246802  19.301  24.192   5.753
 3640POPC   C1A46803  19.244  24.682   6.284
 3640POPC   D2A46804  19.297  24.463   6.683
 3640POPC   C3A46805  19.347  24.741   7.016
 3640POPC   C4A46806  19.313  24.741   7.460
 3640POPC   C1B46807  19.212  24.182   6.205
 3640POPC   C2B46808  18.826  24.369   6.425
 3640POPC   C3B46809  18.763  24.346   6.873
 3640POPC   C4B46810  19.112  24.316   7.200
 3641POPC   NC346811  13.562  24.752   5.295
 3641POPC   PO446812  13.849  24.258   5.668
 3641POPC   GL146813  13.642  24.664   5.790
 3641POPC   GL246814  13.412  24.433   5.820
 3641POPC   C1A46815  13.561  24.907   6.169
 3641POPC   D2A46816  13.646  24.774   6.591
 3641POPC   C3A46817  13.979  24.710   6.854
 3641POPC   C4A46818  13.837  24.735   7.252
 3641POPC   C1B46819  13.638  24.374   6.253
 3641POPC   C2B46820  13.805  24.247   6.653
 3641POPC   C3B46821  13.783  24.254   7.096
 3641POPC   C4B46822  13.594  24.028   7.422
 3642POPC   NC346823  30.792  38.184   5.159
 3642POPC   PO446824  30.619  37.647   5.462
 3642POPC   GL146825  30.545  37.849   5.861
 3642POPC   GL246826  30.787  38.073   5.734
 3642POPC   C1A46827  30.544  37.742   6.326
 3642POPC   D2A46828  30.753  37.433   6.608
 3642POPC   C3A46829  30.589  37.390   7.028
 3642POPC   C4A46830  30.455  37.558   7.414
 3642POPC   C1B46831  30.888  38.099   6.167
 3642POPC   C2B46832  30.811  38.214   6.570
 3642POPC   C3B46833  30.715  37.905   6.893
 3642POPC   C4B46834  30.849  37.904   7.326
 3643POPC   NC346835   7.514  13.202   5.332
 3643POPC   PO446836   7.195  12.706   5.412
 3643POPC   GL146837   7.572  12.762   5.705
 3643POPC   GL246838   7.419  13.066   5.832
 3643POPC   C1A46839   7.752  12.891   6.166
 3643POPC   D2A46840   7.550  12.953   6.573
 3643POPC   C3A46841   7.611  12.737   6.963
 3643POPC   C4A46842   7.533  12.888   7.403
 3643POPC   C1B46843   7.257  12.752   6.190
 3643POPC   C2B46844   7.210  12.582   6.662
 3643POPC   C3B46845   7.117  12.726   7.121
 3643POPC   C4B46846   7.052  13.027   7.509
 3644POPC   NC346847  28.606  34.033   5.345
 3644POPC   PO446848  28.409  33.418   5.519
 3644POPC   GL146849  28.503  33.713   5.771
 3644POPC   GL246850  28.252  33.959   5.743
 3644POPC   C1A46851  28.415  33.657   6.192
 3644POPC   D2A46852  28.527  33.486   6.565
 3644POPC   C3A46853  28.274  33.649   6.862
 3644POPC   C4A46854  28.224  33.468   7.217
 3644POPC   C1B46855  28.573  34.129   6.090
 3644POPC   C2B46856  28.742  34.018   6.550
 3644POPC   C3B46857  28.585  34.048   7.004
 3644POPC   C4B46858  28.192  34.003   7.260
 3645POPC   NC346859  34.389  40.348   5.547
 3645POPC   PO446860  34.609  40.882   5.141
 3645POPC   GL146861  34.631  40.814   5.612
 3645POPC   GL246862  34.903  40.880   5.839
 3645POPC   C1A46863  34.421  40.917   6.002
 3645POPC   D2A46864  34.353  40.720   6.391
 3645POPC   C3A46865  34.563  40.776   6.775
 3645POPC   C4A46866  34.404  40.988   7.149
 3645POPC   C1B46867  34.721  40.508   6.081
 3645POPC   C2B46868  34.756  40.376   6.497
 3645POPC   C3B46869  34.889  40.398   6.916
 3645POPC   C4B46870  34.594  40.532   7.241
 3646POPC   NC346871  14.804  35.393   5.464
 3646POPC   PO446872  15.449  35.580   5.494
 3646POPC   GL146873  15.322  35.317   5.865
 3646POPC   GL246874  14.970  35.195   5.889
 3646POPC   C1A46875  15.221  35.371   6.304
 3646POPC   D2A46876  14.906  35.496   6.529
 3646POPC   C3A46877  15.032  35.547   6.936
 3646POPC   C4A46878  15.083  35.696   7.332
 3646POPC   C1B46879  15.136  34.904   6.166
 3646POPC   C2B46880  15.325  34.909   6.541
 3646POPC   C3B46881  15.254  35.067   6.934
 3646POPC   C4B46882  15.055  35.173   7.296
 3647POPC   NC346883  22.758  18.560   5.289
 3647POPC   PO446884  23.022  17.919   5.353
 3647POPC   GL146885  22.871  18.232   5.680
 3647POPC   GL246886  23.172  18.362   5.845
 3647POPC   C1A46887  22.735  18.368   6.124
 3647POPC   D2A46888  22.727  18.257   6.593
 3647POPC   C3A46889  22.990  18.493   6.925
 3647POPC   C4A46890  23.328  18.617   7.221
 3647POPC   C1B46891  23.159  18.107   6.244
 3647POPC   C2B46892  23.175  17.820   6.583
 3647POPC   C3B46893  23.020  17.976   6.965
 3647POPC   C4B46894  23.081  17.807   7.358
 3648POPC   NC346895  22.308  40.547   5.359
 3648POPC   PO446896  22.017  41.126   5.366
 3648POPC   GL146897  22.107  41.046   5.768
 3648POPC   GL246898  22.128  40.677   5.815
 3648POPC   C1A46899  21.983  41.051   6.179
 3648POPC   D2A46900  22.168  40.940   6.569
 3648POPC   C3A46901  21.996  41.137   6.909
 3648POPC   C4A46902  22.183  40.929   7.231
 3648POPC   C1B46903  21.993  40.549   6.245
 3648POPC   C2B46904  22.105  40.418   6.678
 3648POPC   C3B46905  22.143  40.429   7.136
 3648POPC   C4B46906  21.922  40.593   7.493
 3649POPC   NC346907  42.875  41.907   5.587
 3649POPC   PO446908  43.460  41.555   5.449
 3649POPC   GL146909  43.275  41.688   5.848
 3649POPC   GL246910  42.970  41.508   5.876
 3649POPC   C1A46911  43.193  41.557   6.311
 3649POPC   D2A46912  43.196  41.156   6.566
 3649POPC   C3A46913  43.347  41.276   6.989
 3649POPC   C4A46914  43.187  41.640   7.211
 3649POPC   C1B46915  42.746  41.830   6.195
 3649POPC   C2B46916  42.596  41.951   6.599
 3649POPC   C3B46917  42.842  41.904   6.957
 3649POPC   C4B46918  42.709  41.717   7.362
 3650POPC   NC346919  20.672  40.118   5.353
 3650POPC   PO446920  20.615  39.462   5.235
 3650POPC   GL146921  20.476  39.606   5.706
 3650POPC   GL246922  20.453  39.980   5.809
 3650POPC   C1A46923  20.506  39.659   6.204
 3650POPC   D2A46924  20.870  39.831   6.493
 3650POPC   C3A46925  20.778  40.058   6.888
 3650POPC   C4A46926  20.714  40.306   7.293
 3650POPC   C1B46927  20.211  40.133   6.198
 3650POPC   C2B46928  20.175  40.328   6.617
 3650POPC   C3B46929  20.304  40.167   7.025
 3650POPC   C4B46930  20.409  39.901   7.406
 3651POPC   NC346931  26.037  38.539   4.937
 3651POPC   PO446932  26.384  38.312   5.530
 3651POPC   GL146933  26.021  38.459   5.799
 3651POPC   GL246934  25.847  38.763   5.774
 3651POPC   C1A46935  25.832  38.416   6.218
 3651POPC   D2A46936  26.030  38.206   6.551
 3651POPC   C3A46937  26.247  38.435   6.877
 3651POPC   C4A46938  26.392  38.455   7.305
 3651POPC   C1B46939  26.051  38.913   6.150
 3651POPC   C2B46940  25.939  38.804   6.577
 3651POPC   C3B46941  25.843  38.754   6.994
 3651POPC   C4B46942  25.893  38.439   7.254
 3652POPC   NC346943  30.110  13.234   5.312
 3652POPC   PO446944  29.549  12.954   5.554
 3652POPC   GL146945  29.813  13.090   5.825
 3652POPC   GL246946  30.037  12.810   5.791
 3652POPC   C1A46947  29.773  12.909   6.237
 3652POPC   D2A46948  30.036  12.694   6.504
 3652POPC   C3A46949  29.860  12.891   6.860
 3652POPC   C4A46950  29.784  12.808   7.259
 3652POPC   C1B46951  30.241  13.072   6.132
 3652POPC   C2B46952  30.219  13.162   6.568
 3652POPC   C3B46953  30.357  12.881   6.908
 3652POPC   C4B46954  30.272  12.972   7.324
 3653POPC   NC346955  44.795  44.453   5.255
 3653POPC   PO446956  44.574   0.059   5.378
 3653POPC   GL146957  44.618  44.755   5.704
 3653POPC   GL246958  44.786  44.465   5.821
 3653POPC   C1A46959  44.850  44.904   6.078
 3653POPC   D2A46960  44.708   0.026   6.497
 3653POPC   C3A46961  44.750  44.767   6.867
 3653POPC   C4A46962  44.618  44.811   7.300
 3653POPC   C1B46963  44.775  44.455   6.289
 3653POPC   C2B46964  44.958  44.324   6.682
 3653POPC   C3B46965  44.969  44.378   7.149
 3653POPC   C4B46966  44.947  44.557   7.604
 3654POPC   NC346967   4.080  34.472   5.517
 3654POPC   PO446968   3.424  34.771   5.386
 3654POPC   GL146969   3.662  34.661   5.732
 3654POPC   GL246970   3.575  34.293   5.771
 3654POPC   C1A46971   3.784  34.563   6.164
 3654POPC   D2A46972   3.515  34.588   6.557
 3654POPC   C3A46973   3.708  34.598   6.968
 3654POPC   C4A46974   3.420  34.738   7.287
 3654POPC   C1B46975   3.650  34.070   6.195
 3654POPC   C2B46976   3.699  34.133   6.649
 3654POPC   C3B46977   3.613  34.102   7.090
 3654POPC   C4B46978   3.713  34.327   7.453
 3655POPC   NC346979  19.592   8.612   5.558
 3655POPC   PO446980  20.005   9.104   5.380
 3655POPC   GL146981  19.871   9.056   5.825
 3655POPC   GL246982  19.504   9.045   5.888
 3655POPC   C1A46983  19.816   8.982   6.291
 3655POPC   D2A46984  19.476   8.945   6.612
 3655POPC   C3A46985  19.658   9.071   6.988
 3655POPC   C4A46986  19.911   8.981   7.344
 3655POPC   C1B46987  19.417   8.679   6.163
 3655POPC   C2B46988  19.656   8.470   6.464
 3655POPC   C3B46989  19.722   8.532   6.908
 3655POPC   C4B46990  19.535   8.649   7.296
 3656POPC   NC346991  40.025  42.456   5.625
 3656POPC   PO446992  39.945  41.997   5.165
 3656POPC   GL146993  39.892  41.963   5.680
 3656POPC   GL246994  40.227  41.980   5.823
 3656POPC   C1A46995  39.893  42.157   6.172
 3656POPC   D2A46996  40.019  42.264   6.631
 3656POPC   C3A46997  39.893  42.404   7.079
 3656POPC   C4A46998  39.677  42.112   7.377
 3656POPC   C1B46999  40.442  42.256   6.151
 3656POPC   C2B47000  40.572  42.206   6.584
 3656POPC   C3B47001  40.330  41.937   6.859
 3656POPC   C4B47002  40.177  42.004   7.264
 3657POPC   NC347003  32.152  14.830   5.358
 3657POPC   PO447004  32.104  15.485   5.478
 3657POPC   GL147005  32.163  15.159   5.787
 3657POPC   GL247006  32.424  15.342   5.942
 3657POPC   C1A47007  32.205  14.920   6.197
 3657POPC   D2A47008  32.106  14.897   6.641
 3657POPC   C3A47009  32.232  15.087   7.036
 3657POPC   C4A47010  32.240  14.833   7.415
 3657POPC   C1B47011  32.053  15.405   6.219
 3657POPC   C2B47012  32.014  15.422   6.663
 3657POPC   C3B47013  31.824  15.391   7.080
 3657POPC   C4B47014  31.906  15.208   7.452
 3658POPC   NC347015  16.928  37.010   4.947
 3658POPC   PO447016  16.666  36.720   5.386
 3658POPC   GL147017  16.919  36.798   5.747
 3658POPC   GL247018  16.808  37.152   5.837
 3658POPC   C1A47019  16.881  36.810   6.199
 3658POPC   D2A47020  16.696  36.865   6.604
 3658POPC   C3A47021  16.852  36.847   7.013
 3658POPC   C4A47022  16.564  36.861   7.389
 3658POPC   C1B47023  16.532  37.195   6.242
 3658POPC   C2B47024  16.488  37.360   6.689
 3658POPC   C3B47025  16.670  37.319   7.116
 3658POPC   C4B47026  16.687  37.333   7.571
 3659POPC   NC347027  20.986  39.218   5.048
 3659POPC   PO447028  20.608  38.995   5.566
 3659POPC   GL147029  20.417  39.097   5.886
 3659POPC   GL247030  20.720  39.249   6.002
 3659POPC   C1A47031  20.414  39.023   6.316
 3659POPC   D2A47032  20.764  38.925   6.531
 3659POPC   C3A47033  20.728  39.164   6.882
 3659POPC   C4A47034  20.513  39.201   7.264
 3659POPC   C1B47035  20.991  39.355   6.314
 3659POPC   C2B47036  21.205  39.293   6.690
 3659POPC   C3B47037  21.155  39.342   7.117
 3659POPC   C4B47038  20.797  39.635   7.188
 3660POPC   NC347039  26.282  27.455   5.534
 3660POPC   PO447040  25.618  27.462   5.501
 3660POPC   GL147041  25.879  27.632   5.788
 3660POPC   GL247042  25.876  27.977   5.689
 3660POPC   C1A47043  26.070  27.475   6.188
 3660POPC   D2A47044  25.974  27.259   6.576
 3660POPC   C3A47045  26.133  27.439   6.941
 3660POPC   C4A47046  26.122  27.319   7.390
 3660POPC   C1B47047  25.867  27.970   6.150
 3660POPC   C2B47048  25.821  27.769   6.552
 3660POPC   C3B47049  25.856  27.877   6.991
 3660POPC   C4B47050  26.175  27.833   7.298
 3661POPC   NC347051   4.708  42.197   5.520
 3661POPC   PO447052   4.049  42.334   5.333
 3661POPC   GL147053   4.255  42.432   5.755
 3661POPC   GL247054   4.579  42.646   5.770
 3661POPC   C1A47055   4.159  42.271   6.196
 3661POPC   D2A47056   3.969  42.317   6.605
 3661POPC   C3A47057   4.148  42.182   6.983
 3661POPC   C4A47058   4.294  42.299   7.354
 3661POPC   C1B47059   4.527  42.644   6.205
 3661POPC   C2B47060   4.334  42.747   6.581
 3661POPC   C3B47061   4.378  42.648   6.976
 3661POPC   C4B47062   4.724  42.570   7.196
 3662POPC   NC347063  26.905   3.964   5.420
 3662POPC   PO447064  26.777   4.571   5.547
 3662POPC   GL147065  26.920   4.449   5.932
 3662POPC   GL247066  27.069   4.157   5.900
 3662POPC   C1A47067  26.679   4.320   6.302
 3662POPC   D2A47068  26.756   4.194   6.731
 3662POPC   C3A47069  26.847   4.475   7.092
 3662POPC   C4A47070  26.559   4.809   7.214
 3662POPC   C1B47071  27.185   4.235   6.361
 3662POPC   C2B47072  27.219   3.942   6.721
 3662POPC   C3B47073  26.970   3.942   7.125
 3662POPC   C4B47074  27.236   4.220   7.396
 3663POPC   NC347075  34.521  39.428   5.460
 3663POPC   PO447076  35.075  39.057   5.434
 3663POPC   GL147077  34.799  38.958   5.834
 3663POPC   GL247078  34.453  39.141   5.884
 3663POPC   C1A47079  34.831  39.156   6.261
 3663POPC   D2A47080  34.921  39.276   6.673
 3663POPC   C3A47081  34.565  39.129   6.851
 3663POPC   C4A47082  34.539  38.845   7.188
 3663POPC   C1B47083  34.216  39.466   6.127
 3663POPC   C2B47084  34.045  39.447   6.566
 3663POPC   C3B47085  34.082  39.567   7.013
 3663POPC   C4B47086  34.347  39.315   7.266
 3664POPC   NC347087  34.778  30.787   5.617
 3664POPC   PO447088  34.317  30.503   5.298
 3664POPC   GL147089  34.322  30.597   5.795
 3664POPC   GL247090  34.597  30.377   5.940
 3664POPC   C1A47091  34.360  30.662   6.283
 3664POPC   D2A47092  34.539  30.391   6.610
 3664POPC   C3A47093  34.372  30.520   7.017
 3664POPC   C4A47094  34.329  30.904   7.179
 3664POPC   C1B47095  34.862  30.674   6.232
 3664POPC   C2B47096  34.767  30.868   6.618
 3664POPC   C3B47097  34.847  30.745   7.026
 3664POPC   C4B47098  34.804  30.944   7.413
 3665POPC   NC347099  40.660  44.380   5.428
 3665POPC   PO447100  41.040  44.845   5.515
 3665POPC   GL147101  40.891  44.696   5.866
 3665POPC   GL247102  41.019  44.378   5.781
 3665POPC   C1A47103  40.636  44.482   6.151
 3665POPC   D2A47104  40.505  44.475   6.585
 3665POPC   C3A47105  40.727  44.786   6.820
 3665POPC   C4A47106  40.574  44.646   7.168
 3665POPC   C1B47107  41.166  44.343   6.170
 3665POPC   C2B47108  41.020  44.486   6.522
 3665POPC   C3B47109  40.972  44.348   6.918
 3665POPC   C4B47110  41.092  44.488   7.295
 3666POPC   NC347111  10.624  11.907   5.481
 3666POPC   PO447112  10.659  12.547   5.639
 3666POPC   GL147113  10.331  12.397   5.876
 3666POPC   GL247114  10.231  12.075   5.768
 3666POPC   C1A47115  10.337  12.362   6.305
 3666POPC   D2A47116  10.648  12.325   6.579
 3666POPC   C3A47117  10.451  12.213   6.925
 3666POPC   C4A47118  10.398  12.398   7.316
 3666POPC   C1B47119  10.372  11.867   6.125
 3666POPC   C2B47120  10.272  11.858   6.535
 3666POPC   C3B47121  10.425  11.684   6.914
 3666POPC   C4B47122  10.490  11.860   7.291
 3667POPC   NC347123  22.713  29.211   5.389
 3667POPC   PO447124  23.317  28.998   5.417
 3667POPC   GL147125  23.211  29.200   5.813
 3667POPC   GL247126  22.883  29.390   5.841
 3667POPC   C1A47127  23.060  29.127   6.250
 3667POPC   D2A47128  23.008  29.324   6.685
 3667POPC   C3A47129  23.183  29.017   7.012
 3667POPC   C4A47130  23.156  28.832   7.447
 3667POPC   C1B47131  22.673  29.468   6.237
 3667POPC   C2B47132  22.519  29.232   6.580
 3667POPC   C3B47133  22.641  29.093   6.987
 3667POPC   C4B47134  22.606  28.823   7.325
 3668POPC   NC347135  42.038  32.427   5.362
 3668POPC   PO447136  42.527  31.987   5.425
 3668POPC   GL147137  42.222  32.095   5.717
 3668POPC   GL247138  42.413  32.350   5.817
 3668POPC   C1A47139  42.103  32.133   6.152
 3668POPC   D2A47140  42.148  32.286   6.583
 3668POPC   C3A47141  42.250  32.093   6.975
 3668POPC   C4A47142  42.194  32.362   7.339
 3668POPC   C1B47143  42.590  32.229   6.219
 3668POPC   C2B47144  42.646  32.460   6.594
 3668POPC   C3B47145  42.542  32.603   7.017
 3668POPC   C4B47146  42.702  32.498   7.446
 3669POPC   NC347147   4.717  35.243   5.508
 3669POPC   PO447148   5.101  35.796   5.552
 3669POPC   GL147149   4.987  35.507   5.898
 3669POPC   GL247150   5.143  35.172   5.924
 3669POPC   C1A47151   5.242  35.472   6.285
 3669POPC   D2A47152   5.268  35.282   6.675
 3669POPC   C3A47153   5.215  35.572   7.008
 3669POPC   C4A47154   5.345  35.409   7.384
 3669POPC   C1B47155   5.022  34.947   6.313
 3669POPC   C2B47156   4.842  34.967   6.743
 3669POPC   C3B47157   4.884  35.199   7.156
 3669POPC   C4B47158   4.962  35.187   7.635
 3670POPC   NC347159  29.567   3.528   5.410
 3670POPC   PO447160  28.915   3.353   5.269
 3670POPC   GL147161  29.130   3.408   5.705
 3670POPC   GL247162  29.388   3.138   5.758
 3670POPC   C1A47163  29.299   3.622   6.103
 3670POPC   D2A47164  29.376   3.822   6.520
 3670POPC   C3A47165  29.222   3.630   6.895
 3670POPC   C4A47166  29.103   3.530   7.305
 3670POPC   C1B47167  29.576   3.193   6.172
 3670POPC   C2B47168  29.505   3.324   6.601
 3670POPC   C3B47169  29.493   3.187   7.061
 3670POPC   C4B47170  29.298   3.120   7.503
 3671POPC   NC347171  10.989  42.408   5.358
 3671POPC   PO447172  11.616  42.348   5.254
 3671POPC   GL147173  11.497  42.419   5.692
 3671POPC   GL247174  11.777  42.167   5.756
 3671POPC   C1A47175  11.317  42.485   6.142
 3671POPC   D2A47176  11.295  42.237   6.547
 3671POPC   C3A47177  11.232  42.428   6.975
 3671POPC   C4A47178  11.331  42.195   7.369
 3671POPC   C1B47179  11.824  42.475   6.102
 3671POPC   C2B47180  11.766  42.438   6.524
 3671POPC   C3B47181  11.745  42.415   6.961
 3671POPC   C4B47182  11.555  42.637   7.313
 3672POPC   NC347183  25.854  41.011   5.244
 3672POPC   PO447184  26.260  40.520   5.417
 3672POPC   GL147185  25.898  40.678   5.690
 3672POPC   GL247186  25.897  41.037   5.760
 3672POPC   C1A47187  25.672  40.574   6.089
 3672POPC   D2A47188  25.665  40.368   6.498
 3672POPC   C3A47189  25.956  40.466   6.823
 3672POPC   C4A47190  25.821  40.596   7.215
 3672POPC   C1B47191  26.066  40.894   6.161
 3672POPC   C2B47192  25.818  40.875   6.533
 3672POPC   C3B47193  25.821  41.026   6.967
 3672POPC   C4B47194  25.861  41.059   7.444
 3673POPC   NC347195   0.859  12.597   5.525
 3673POPC   PO447196   0.277  12.674   5.780
 3673POPC   GL147197   0.635  12.824   5.943
 3673POPC   GL247198   0.842  12.533   6.033
 3673POPC   C1A47199   0.561  13.140   6.248
 3673POPC   D2A47200   0.425  13.402   6.598
 3673POPC   C3A47201   0.340  13.176   6.975
 3673POPC   C4A47202   0.537  12.876   7.197
 3673POPC   C1B47203   0.676  12.638   6.428
 3673POPC   C2B47204   0.313  12.810   6.613
 3673POPC   C3B47205   0.119  12.633   6.970
 3673POPC   C4B47206   0.300  12.410   7.324
 3674POPC   NC347207   5.525  38.660   5.404
 3674POPC   PO447208   6.074  38.331   5.624
 3674POPC   GL147209   5.812  38.124   5.858
 3674POPC   GL247210   5.576  38.368   5.849
 3674POPC   C1A47211   5.861  38.261   6.286
 3674POPC   D2A47212   6.102  38.527   6.544
 3674POPC   C3A47213   5.983  38.388   6.941
 3674POPC   C4A47214   6.108  38.513   7.348
 3674POPC   C1B47215   5.560  38.679   6.216
 3674POPC   C2B47216   5.619  38.761   6.677
 3674POPC   C3B47217   5.605  38.721   7.131
 3674POPC   C4B47218   5.605  38.341   7.291
 3675POPC   NC347219  37.337  40.133   5.413
 3675POPC   PO447220  37.821  39.719   5.207
 3675POPC   GL147221  37.734  39.819   5.700
 3675POPC   GL247222  37.542  40.103   5.868
 3675POPC   C1A47223  37.645  39.700   6.165
 3675POPC   D2A47224  37.796  39.556   6.586
 3675POPC   C3A47225  37.921  39.899   6.883
 3675POPC   C4A47226  37.999  39.942   7.335
 3675POPC   C1B47227  37.393  40.259   6.259
 3675POPC   C2B47228  37.391  40.118   6.680
 3675POPC   C3B47229  37.552  40.206   7.079
 3675POPC   C4B47230  37.498  39.969   7.408
 3676POPC   NC347231   3.455  29.574   5.516
 3676POPC   PO447232   3.671  30.236   5.349
 3676POPC   GL147233   3.691  29.976   5.717
 3676POPC   GL247234   3.332  30.047   5.731
 3676POPC   C1A47235   3.867  29.732   6.090
 3676POPC   D2A47236   3.717  29.465   6.455
 3676POPC   C3A47237   3.640  29.631   6.879
 3676POPC   C4A47238   3.746  29.709   7.307
 3676POPC   C1B47239   3.334  29.798   6.108
 3676POPC   C2B47240   3.380  29.893   6.518
 3676POPC   C3B47241   3.178  29.905   6.908
 3676POPC   C4B47242   3.298  29.960   7.326
 3677POPC   NC347243   1.322  42.982   5.364
 3677POPC   PO447244   0.631  43.114   5.415
 3677POPC   GL147245   0.944  43.186   5.728
 3677POPC   GL247246   1.278  43.350   5.740
 3677POPC   C1A47247   0.923  43.151   6.171
 3677POPC   D2A47248   0.825  43.057   6.607
 3677POPC   C3A47249   1.194  42.895   6.855
 3677POPC   C4A47250   1.572  42.683   7.035
 3677POPC   C1B47251   1.424  43.266   6.174
 3677POPC   C2B47252   1.537  43.184   6.618
 3677POPC   C3B47253   1.435  43.316   7.045
 3677POPC   C4B47254   1.690  43.307   7.410
 3678POPC   NC347255  23.384  32.752   5.610
 3678POPC   PO447256  23.845  32.284   5.433
 3678POPC   GL147257  23.579  32.290   5.798
 3678POPC   GL247258  23.431  31.956   5.809
 3678POPC   C1A47259  23.717  32.325   6.226
 3678POPC   D2A47260  23.647  32.105   6.618
 3678POPC   C3A47261  23.955  32.152   6.934
 3678POPC   C4A47262  23.817  32.398   7.249
 3678POPC   C1B47263  23.288  32.068   6.223
 3678POPC   C2B47264  23.239  32.430   6.491
 3678POPC   C3B47265  23.316  32.398   6.940
 3678POPC   C4B47266  23.358  32.541   7.365
 3679POPC   NC347267  39.944  32.466   5.426
 3679POPC   PO447268  40.109  31.798   5.481
 3679POPC   GL147269  39.890  31.994   5.812
 3679POPC   GL247270  40.184  32.179   5.891
 3679POPC   C1A47271  39.753  31.996   6.283
 3679POPC   D2A47272  39.911  32.153   6.684
 3679POPC   C3A47273  39.902  31.983   7.124
 3679POPC   C4A47274  39.754  32.067   7.577
 3679POPC   C1B47275  40.268  32.468   6.218
 3679POPC   C2B47276  40.162  32.594   6.614
 3679POPC   C3B47277  40.227  32.432   6.989
 3679POPC   C4B47278  40.383  32.605   7.362
 3680POPC   NC347279  16.123  15.716   5.436
 3680POPC   PO447280  15.698  16.253   5.343
 3680POPC   GL147281  15.876  16.105   5.774
 3680POPC   GL247282  16.226  16.029   5.813
 3680POPC   C1A47283  15.956  15.929   6.221
 3680POPC   D2A47284  16.107  16.078   6.617
 3680POPC   C3A47285  16.046  15.812   6.936
 3680POPC   C4A47286  15.934  15.816   7.352
 3680POPC   C1B47287  16.409  16.188   6.183
 3680POPC   C2B47288  16.576  16.270   6.550
 3680POPC   C3B47289  16.533  16.034   6.899
 3680POPC   C4B47290  16.382  16.032   7.305
 3681POPC   NC347291  33.938  21.562   5.414
 3681POPC   PO447292  33.367  21.225   5.190
 3681POPC   GL147293  33.481  21.338   5.661
 3681POPC   GL247294  33.649  21.630   5.824
 3681POPC   C1A47295  33.531  21.295   6.167
 3681POPC   D2A47296  33.680  21.533   6.578
 3681POPC   C3A47297  33.499  21.392   6.990
 3681POPC   C4A47298  33.601  20.994   7.225
 3681POPC   C1B47299  33.994  21.572   6.140
 3681POPC   C2B47300  34.130  21.305   6.513
 3681POPC   C3B47301  33.982  21.222   6.901
 3681POPC   C4B47302  33.950  21.526   7.207
 3682POPC   NC347303  44.832  16.225   5.689
 3682POPC   PO447304  44.529  15.795   5.249
 3682POPC   GL147305  44.454  15.829   5.710
 3682POPC   GL247306  44.707  15.608   5.781
 3682POPC   C1A47307  44.494  15.930   6.169
 3682POPC   D2A47308  44.794  15.978   6.500
 3682POPC   C3A47309  44.635  16.002   6.898
 3682POPC   C4A47310  44.811  16.234   7.207
 3682POPC   C1B47311  44.835  15.537   6.214
 3682POPC   C2B47312  44.773  15.466   6.661
 3682POPC   C3B47313  44.812  15.579   7.090
 3682POPC   C4B47314  44.956  15.795   7.445
 3683POPC   NC347315  42.891  40.363   5.440
 3683POPC   PO447316  43.248  39.810   5.337
 3683POPC   GL147317  43.230  40.064   5.678
 3683POPC   GL247318  43.518  39.920   5.791
 3683POPC   C1A47319  43.182  40.275   6.079
 3683POPC   D2A47320  43.056  40.107   6.466
 3683POPC   C3A47321  42.982  40.289   6.868
 3683POPC   C4A47322  43.101  40.164   7.264
 3683POPC   C1B47323  43.253  39.767   6.118
 3683POPC   C2B47324  43.332  39.629   6.517
 3683POPC   C3B47325  43.247  39.834   6.886
 3683POPC   C4B47326  43.272  39.643   7.294
 3684POPC   NC347327  43.432   5.269   5.222
 3684POPC   PO447328  43.371   4.676   5.482
 3684POPC   GL147329  43.130   5.042   5.651
 3684POPC   GL247330  43.282   5.333   5.762
 3684POPC   C1A47331  42.946   5.084   6.060
 3684POPC   D2A47332  43.100   5.237   6.470
 3684POPC   C3A47333  43.010   4.994   6.853
 3684POPC   C4A47334  43.021   5.117   7.300
 3684POPC   C1B47335  43.449   4.996   6.107
 3684POPC   C2B47336  43.513   4.933   6.582
 3684POPC   C3B47337  43.450   4.765   7.024
 3684POPC   C4B47338  43.349   4.785   7.519
 3685POPC   NC347339   5.751  41.554   5.310
 3685POPC   PO447340   6.322  41.691   5.203
 3685POPC   GL147341   5.999  41.836   5.647
 3685POPC   GL247342   5.653  41.973   5.696
 3685POPC   C1A47343   5.764  41.599   6.037
 3685POPC   D2A47344   5.653  41.537   6.492
 3685POPC   C3A47345   6.036  41.489   6.789
 3685POPC   C4A47346   6.054  41.305   7.206
 3685POPC   C1B47347   5.766  42.075   6.152
 3685POPC   C2B47348   5.904  41.976   6.594
 3685POPC   C3B47349   5.712  41.816   6.992
 3685POPC   C4B47350   5.977  41.799   7.341
 3686POPC   NC347351  28.125  13.919   5.320
 3686POPC   PO447352  28.548  13.378   5.281
 3686POPC   GL147353  28.392  13.550   5.711
 3686POPC   GL247354  28.080  13.744   5.790
 3686POPC   C1A47355  28.242  13.431   6.152
 3686POPC   D2A47356  28.421  13.610   6.546
 3686POPC   C3A47357  28.184  13.510   6.934
 3686POPC   C4A47358  28.409  13.492   7.291
 3686POPC   C1B47359  28.356  13.927   6.116
 3686POPC   C2B47360  28.232  14.086   6.525
 3686POPC   C3B47361  28.383  14.017   6.929
 3686POPC   C4B47362  28.239  13.947   7.343
 3687POPC   NC347363  32.254  31.332   5.293
 3687POPC   PO447364  31.997  31.866   5.632
 3687POPC   GL147365  32.251  31.518   5.772
 3687POPC   GL247366  32.002  31.239   5.801
 3687POPC   C1A47367  32.401  31.297   6.142
 3687POPC   D2A47368  32.367  31.168   6.590
 3687POPC   C3A47369  32.325  31.350   7.023
 3687POPC   C4A47370  32.369  31.097   7.426
 3687POPC   C1B47371  31.926  31.458   6.201
 3687POPC   C2B47372  31.953  31.598   6.617
 3687POPC   C3B47373  31.835  31.529   7.032
 3687POPC   C4B47374  32.046  31.476   7.431
 3688POPC   NC347375  43.023  14.532   5.542
 3688POPC   PO447376  42.357  14.556   5.293
 3688POPC   GL147377  42.315  14.328   5.705
 3688POPC   GL247378  42.619  14.453   5.830
 3688POPC   C1A47379  42.244  14.308   6.185
 3688POPC   D2A47380  42.520  14.315   6.587
 3688POPC   C3A47381  42.347  14.176   6.977
 3688POPC   C4A47382  41.952  14.307   7.163
 3688POPC   C1B47383  42.619  14.662   6.216
 3688POPC   C2B47384  42.323  14.807   6.495
 3688POPC   C3B47385  42.192  14.677   6.899
 3688POPC   C4B47386  42.446  14.582   7.261
 3689POPC   NC347387  26.495  15.291   5.533
 3689POPC   PO447388  27.163  15.169   5.466
 3689POPC   GL147389  26.935  15.275   5.838
 3689POPC   GL247390  27.134  15.066   6.033
 3689POPC   C1A47391  26.604  15.387   6.174
 3689POPC   D2A47392  26.434  15.194   6.536
 3689POPC   C3A47393  26.497  15.351   6.949
 3689POPC   C4A47394  26.665  15.061   7.254
 3689POPC   C1B47395  27.095  15.453   6.296
 3689POPC   C2B47396  26.927  15.492   6.710
 3689POPC   C3B47397  27.094  15.226   7.044
 3689POPC   C4B47398  27.151  15.156   7.485
 3690POPC   NC347399  41.049  39.136   5.608
 3690POPC   PO447400  40.424  39.548   5.474
 3690POPC   GL147401  40.702  39.489   5.843
 3690POPC   GL247402  40.774  39.122   6.018
 3690POPC   C1A47403  40.801  39.565   6.267
 3690POPC   D2A47404  41.096  39.281   6.449
 3690POPC   C3A47405  41.074  39.351   6.862
 3690POPC   C4A47406  41.005  39.512   7.223
 3690POPC   C1B47407  40.498  39.115   6.333
 3690POPC   C2B47408  40.549  39.324   6.691
 3690POPC   C3B47409  40.611  39.209   7.098
 3690POPC   C4B47410  40.962  38.971   7.207
 3691POPC   NC347411   1.853  33.442   5.529
 3691POPC   PO447412   1.951  34.071   5.756
 3691POPC   GL147413   2.199  33.789   6.034
 3691POPC   GL247414   2.272  33.484   5.850
 3691POPC   C1A47415   2.199  33.777   6.489
 3691POPC   D2A47416   1.840  33.789   6.797
 3691POPC   C3A47417   1.999  33.975   7.169
 3691POPC   C4A47418   2.068  33.834   7.568
 3691POPC   C1B47419   2.294  33.282   6.246
 3691POPC   C2B47420   2.457  33.384   6.678
 3691POPC   C3B47421   2.183  33.488   7.039
 3691POPC   C4B47422   2.155  33.338   7.465
 3692POPC   NC347423  18.935  12.350   5.389
 3692POPC   PO447424  18.989  13.049   5.564
 3692POPC   GL147425  18.913  12.706   5.825
 3692POPC   GL247426  19.207  12.524   5.787
 3692POPC   C1A47427  18.901  12.806   6.272
 3692POPC   D2A47428  18.838  12.733   6.688
 3692POPC   C3A47429  18.911  13.006   7.056
 3692POPC   C4A47430  18.826  12.606   7.319
 3692POPC   C1B47431  19.370  12.725   6.130
 3692POPC   C2B47432  19.320  12.550   6.534
 3692POPC   C3B47433  19.276  12.660   6.948
 3692POPC   C4B47434  19.290  12.819   7.358
 3693POPC   NC347435   6.645  25.938   5.289
 3693POPC   PO447436   7.138  26.336   5.391
 3693POPC   GL147437   6.787  26.261   5.699
 3693POPC   GL247438   6.406  26.222   5.653
 3693POPC   C1A47439   6.704  26.032   6.111
 3693POPC   D2A47440   6.921  25.793   6.442
 3693POPC   C3A47441   6.831  25.832   6.883
 3693POPC   C4A47442   6.928  26.138   7.215
 3693POPC   C1B47443   6.280  26.330   6.086
 3693POPC   C2B47444   6.417  26.283   6.505
 3693POPC   C3B47445   6.257  26.174   6.910
 3693POPC   C4B47446   6.450  25.939   7.218
 3694POPC   NC347447   2.504  13.081   5.294
 3694POPC   PO447448   1.869  12.908   5.361
 3694POPC   GL147449   1.899  12.744   5.797
 3694POPC   GL247450   2.241  12.736   5.840
 3694POPC   C1A47451   1.987  12.559   6.234
 3694POPC   D2A47452   2.237  12.654   6.606
 3694POPC   C3A47453   1.958  12.861   6.877
 3694POPC   C4A47454   1.909  12.921   7.311
 3694POPC   C1B47455   2.185  13.016   6.237
 3694POPC   C2B47456   2.235  13.237   6.674
 3694POPC   C3B47457   2.320  13.162   7.121
 3694POPC   C4B47458   2.344  13.058   7.577
 3695POPC   NC347459  24.147  28.198   5.525
 3695POPC   PO447460  24.737  28.443   5.268
 3695POPC   GL147461  24.671  28.509   5.740
 3695POPC   GL247462  24.379  28.667   5.857
 3695POPC   C1A47463  24.828  28.560   6.196
 3695POPC   D2A47464  24.507  28.643   6.559
 3695POPC   C3A47465  24.516  28.403   6.940
 3695POPC   C4A47466  24.596  28.043   7.194
 3695POPC   C1B47467  24.403  28.293   6.137
 3695POPC   C2B47468  24.214  27.991   6.411
 3695POPC   C3B47469  24.234  27.977   6.843
 3695POPC   C4B47470  24.100  28.229   7.195
 3696POPC   NC347471  40.043   5.516   5.398
 3696POPC   PO447472  39.945   6.159   5.298
 3696POPC   GL147473  39.967   5.948   5.681
 3696POPC   GL247474  39.734   6.157   5.809
 3696POPC   C1A47475  39.962   5.849   6.137
 3696POPC   D2A47476  40.097   6.116   6.472
 3696POPC   C3A47477  40.005   6.017   6.894
 3696POPC   C4A47478  39.718   5.769   7.053
 3696POPC   C1B47479  39.526   6.140   6.179
 3696POPC   C2B47480  39.595   5.974   6.560
 3696POPC   C3B47481  39.489   6.187   6.905
 3696POPC   C4B47482  39.528   6.249   7.331
 3697POPC   NC347483  36.367  11.094   5.505
 3697POPC   PO447484  36.046  11.678   5.512
 3697POPC   GL147485  35.911  11.454   5.886
 3697POPC   GL247486  36.027  11.089   5.899
 3697POPC   C1A47487  35.992  11.349   6.333
 3697POPC   D2A47488  36.177  11.156   6.677
 3697POPC   C3A47489  36.125  11.373   7.071
 3697POPC   C4A47490  35.912  11.724   7.231
 3697POPC   C1B47491  36.419  11.067   6.216
 3697POPC   C2B47492  36.655  10.997   6.651
 3697POPC   C3B47493  36.437  10.956   7.071
 3697POPC   C4B47494  36.038  10.947   7.333
 3698POPC   NC347495  24.558  39.776   5.522
 3698POPC   PO447496  24.748  40.379   5.533
 3698POPC   GL147497  24.819  40.243   5.927
 3698POPC   GL247498  24.829  39.893   5.934
 3698POPC   C1A47499  24.498  40.200   6.246
 3698POPC   D2A47500  24.334  40.404   6.607
 3698POPC   C3A47501  24.493  40.195   6.961
 3698POPC   C4A47502  24.259  40.001   7.289
 3698POPC   C1B47503  24.535  39.683   6.232
 3698POPC   C2B47504  24.407  39.761   6.659
 3698POPC   C3B47505  24.537  39.639   7.066
 3698POPC   C4B47506  24.775  39.748   7.413
 3699POPC   NC347507   5.099  22.520   5.485
 3699POPC   PO447508   4.772  21.957   5.320
 3699POPC   GL147509   4.951  21.948   5.725
 3699POPC   GL247510   5.310  21.928   5.741
 3699POPC   C1A47511   4.922  22.195   6.109
 3699POPC   D2A47512   4.747  22.408   6.482
 3699POPC   C3A47513   4.919  22.314   6.889
 3699POPC   C4A47514   4.774  22.214   7.287
 3699POPC   C1B47515   5.330  21.895   6.205
 3699POPC   C2B47516   5.273  22.210   6.521
 3699POPC   C3B47517   5.388  22.572   6.768
 3699POPC   C4B47518   5.430  22.534   7.193
 3700POPC   NC347519  37.437  28.316   5.554
 3700POPC   PO447520  38.018  28.131   5.391
 3700POPC   GL147521  37.847  28.162   5.836
 3700POPC   GL247522  37.733  28.503   5.936
 3700POPC   C1A47523  37.920  28.173   6.294
 3700POPC   D2A47524  38.030  28.075   6.716
 3700POPC   C3A47525  37.735  27.929   7.015
 3700POPC   C4A47526  37.421  28.135   7.218
 3700POPC   C1B47527  37.634  28.602   6.349
 3700POPC   C2B47528  37.825  28.554   6.727
 3700POPC   C3B47529  37.838  28.590   7.137
 3700POPC   C4B47530  37.487  28.785   7.277
 3701POPC   NC347531  19.475  11.884   5.345
 3701POPC   PO447532  18.777  11.894   5.371
 3701POPC   GL147533  19.027  12.015   5.765
 3701POPC   GL247534  18.827  11.848   5.976
 3701POPC   C1A47535  19.065  12.246   6.203
 3701POPC   D2A47536  18.939  12.201   6.673
 3701POPC   C3A47537  19.127  12.207   7.112
 3701POPC   C4A47538  19.348  12.310   7.491
 3701POPC   C1B47539  19.189  11.733   6.232
 3701POPC   C2B47540  19.184  11.634   6.666
 3701POPC   C3B47541  18.959  11.741   7.022
 3701POPC   C4B47542  18.616  12.084   7.096
 3702POPC   NC347543  34.561   1.859   5.500
 3702POPC   PO447544  34.194   2.394   5.647
 3702POPC   GL147545  34.435   2.163   5.904
 3702POPC   GL247546  34.305   1.886   5.978
 3702POPC   C1A47547  34.760   2.185   6.197
 3702POPC   D2A47548  34.638   2.277   6.614
 3702POPC   C3A47549  34.873   2.120   6.957
 3702POPC   C4A47550  34.859   2.209   7.395
 3702POPC   C1B47551  34.615   1.673   6.207
 3702POPC   C2B47552  34.750   1.689   6.643
 3702POPC   C3B47553  34.536   1.731   7.029
 3702POPC   C4B47554  34.511   1.826   7.476
 3703POPC   NC347555  34.017  10.957   5.277
 3703POPC   PO447556  33.740  11.604   5.492
 3703POPC   GL147557  33.646  11.368   5.845
 3703POPC   GL247558  33.926  11.136   5.791
 3703POPC   C1A47559  33.654  11.194   6.280
 3703POPC   D2A47560  33.890  11.055   6.657
 3703POPC   C3A47561  33.679  11.123   7.029
 3703POPC   C4A47562  33.687  11.438   7.313
 3703POPC   C1B47563  34.110  11.383   6.112
 3703POPC   C2B47564  34.244  11.401   6.549
 3703POPC   C3B47565  34.032  11.542   6.935
 3703POPC   C4B47566  34.005  11.849   7.281
 3704POPC   NC347567  38.384  22.707   5.158
 3704POPC   PO447568  38.083  23.256   5.457
 3704POPC   GL147569  38.343  23.158   5.802
 3704POPC   GL247570  38.706  23.150   5.853
 3704POPC   C1A47571  38.375  23.170   6.233
 3704POPC   D2A47572  38.426  22.968   6.611
 3704POPC   C3A47573  38.472  23.134   7.007
 3704POPC   C4A47574  38.130  23.122   7.306
 3704POPC   C1B47575  38.789  22.827   6.210
 3704POPC   C2B47576  38.774  22.610   6.615
 3704POPC   C3B47577  38.935  22.636   7.031
 3704POPC   C4B47578  38.586  22.746   7.306
 3705POPC   NC347579  37.746  41.042   5.333
 3705POPC   PO447580  37.485  40.539   5.592
 3705POPC   GL147581  37.521  40.918   5.816
 3705POPC   GL247582  37.873  40.925   5.847
 3705POPC   C1A47583  37.564  40.798   6.253
 3705POPC   D2A47584  37.365  40.635   6.614
 3705POPC   C3A47585  37.563  40.715   6.984
 3705POPC   C4A47586  37.729  40.769   7.354
 3705POPC   C1B47587  38.073  40.797   6.239
 3705POPC   C2B47588  37.901  40.880   6.636
 3705POPC   C3B47589  38.083  40.925   7.017
 3705POPC   C4B47590  38.070  41.141   7.398
 3706POPC   NC347591  20.931  39.397   5.571
 3706POPC   PO447592  21.568  39.183   5.354
 3706POPC   GL147593  21.369  39.178   5.753
 3706POPC   GL247594  21.132  38.926   5.588
 3706POPC   C1A47595  21.492  39.303   6.213
 3706POPC   D2A47596  21.644  39.523   6.631
 3706POPC   C3A47597  21.663  39.200   6.975
 3706POPC   C4A47598  21.452  38.907   7.228
 3706POPC   C1B47599  21.085  38.891   6.054
 3706POPC   C2B47600  21.275  38.824   6.456
 3706POPC   C3B47601  21.130  38.822   6.867
 3706POPC   C4B47602  20.935  38.889   7.259
 3707POPC   NC347603  40.315  10.733   5.476
 3707POPC   PO447604  40.228  10.022   5.421
 3707POPC   GL147605  40.045  10.351   5.724
 3707POPC   GL247606  39.752  10.596   5.750
 3707POPC   C1A47607  40.059  10.540   6.145
 3707POPC   D2A47608  39.790  10.524   6.499
 3707POPC   C3A47609  39.989  10.444   6.906
 3707POPC   C4A47610  40.121  10.304   7.326
 3707POPC   C1B47611  39.711  10.925   6.103
 3707POPC   C2B47612  39.606  11.008   6.554
 3707POPC   C3B47613  39.728  10.907   7.003
 3707POPC   C4B47614  40.138  10.835   7.221
 3708POPC   NC347615   6.119  29.543   5.384
 3708POPC   PO447616   6.163  30.150   5.139
 3708POPC   GL147617   5.940  29.955   5.593
 3708POPC   GL247618   6.173  29.765   5.826
 3708POPC   C1A47619   5.794  30.013   6.072
 3708POPC   D2A47620   5.736  29.830   6.504
 3708POPC   C3A47621   5.689  30.019   6.929
 3708POPC   C4A47622   5.860  30.078   7.371
 3708POPC   C1B47623   6.137  29.639   6.255
 3708POPC   C2B47624   6.180  29.762   6.722
 3708POPC   C3B47625   6.265  29.810   7.164
 3708POPC   C4B47626   6.141  29.691   7.594
 3709POPC   NC347627   9.370  37.002   5.437
 3709POPC   PO447628   8.745  36.695   5.459
 3709POPC   GL147629   8.845  37.035   5.766
 3709POPC   GL247630   9.188  37.111   5.899
 3709POPC   C1A47631   8.826  37.073   6.235
 3709POPC   D2A47632   9.093  37.103   6.601
 3709POPC   C3A47633   9.003  36.841   6.973
 3709POPC   C4A47634   9.013  36.988   7.406
 3709POPC   C1B47635   9.165  36.711   6.199
 3709POPC   C2B47636   9.106  36.449   6.612
 3709POPC   C3B47637   9.029  36.312   7.081
 3709POPC   C4B47638   9.221  36.509   7.480
 3710POPC   NC347639  39.547  43.062   5.436
 3710POPC   PO447640  39.018  43.404   5.557
 3710POPC   GL147641  39.186  43.075   5.815
 3710POPC   GL247642  39.535  43.049   5.944
 3710POPC   C1A47643  39.039  42.866   6.195
 3710POPC   D2A47644  39.139  42.609   6.581
 3710POPC   C3A47645  39.043  42.818   6.981
 3710POPC   C4A47646  38.948  43.069   7.343
 3710POPC   C1B47647  39.521  42.932   6.387
 3710POPC   C2B47648  39.575  42.769   6.823
 3710POPC   C3B47649  39.694  42.940   7.219
 3710POPC   C4B47650  39.541  43.299   7.449
 3711POPC   NC347651  12.002  43.731   5.202
 3711POPC   PO447652  11.945  44.269   5.612
 3711POPC   GL147653  12.017  43.863   5.743
 3711POPC   GL247654  12.220  43.562   5.662
 3711POPC   C1A47655  12.133  43.828   6.148
 3711POPC   D2A47656  12.156  44.103   6.463
 3711POPC   C3A47657  12.028  44.005   6.864
 3711POPC   C4A47658  12.273  44.015   7.205
 3711POPC   C1B47659  12.354  43.374   6.070
 3711POPC   C2B47660  12.467  43.621   6.479
 3711POPC   C3B47661  12.391  43.606   6.907
 3711POPC   C4B47662  12.542  43.446   7.289
 3712POPC   NC347663   7.408  40.477   5.474
 3712POPC   PO447664   7.295  40.966   5.009
 3712POPC   GL147665   7.320  40.999   5.533
 3712POPC   GL247666   7.614  40.889   5.729
 3712POPC   C1A47667   7.216  40.833   6.026
 3712POPC   D2A47668   7.103  40.932   6.498
 3712POPC   C3A47669   7.257  40.803   6.921
 3712POPC   C4A47670   7.203  40.909   7.355
 3712POPC   C1B47671   7.733  40.770   6.122
 3712POPC   C2B47672   7.615  40.838   6.542
 3712POPC   C3B47673   7.816  40.882   6.916
 3712POPC   C4B47674   7.690  40.746   7.287
 3713POPC   NC347675  16.454   2.571   5.557
 3713POPC   PO447676  15.767   2.705   5.422
 3713POPC   GL147677  16.013   2.746   5.809
 3713POPC   GL247678  16.317   3.014   5.817
 3713POPC   C1A47679  15.782   2.651   6.196
 3713POPC   D2A47680  15.680   2.908   6.564
 3713POPC   C3A47681  15.745   2.711   6.980
 3713POPC   C4A47682  15.463   2.669   7.316
 3713POPC   C1B47683  16.119   3.022   6.242
 3713POPC   C2B47684  16.188   2.847   6.654
 3713POPC   C3B47685  16.174   2.946   7.080
 3713POPC   C4B47686  16.311   2.808   7.452
 3714POPC   NC347687  34.246  18.266   5.264
 3714POPC   PO447688  33.569  18.203   5.517
 3714POPC   GL147689  33.600  18.278   5.986
 3714POPC   GL247690  33.926  18.235   6.048
 3714POPC   C1A47691  33.736  18.662   6.255
 3714POPC   D2A47692  33.905  18.715   6.680
 3714POPC   C3A47693  33.678  18.397   6.924
 3714POPC   C4A47694  33.548  18.077   7.206
 3714POPC   C1B47695  33.869  18.184   6.475
 3714POPC   C2B47696  34.149  18.200   6.826
 3714POPC   C3B47697  34.038  18.227   7.251
 3714POPC   C4B47698  34.219  18.095   7.614
 3715POPC   NC347699  30.216  15.754   5.475
 3715POPC   PO447700  29.937  16.384   5.320
 3715POPC   GL147701  29.963  16.207   5.742
 3715POPC   GL247702  29.835  15.892   5.794
 3715POPC   C1A47703  30.107  16.094   6.174
 3715POPC   D2A47704  30.048  15.758   6.459
 3715POPC   C3A47705  30.026  15.929   6.849
 3715POPC   C4A47706  30.000  15.747   7.244
 3715POPC   C1B47707  29.628  15.887   6.176
 3715POPC   C2B47708  29.528  15.669   6.548
 3715POPC   C3B47709  29.530  15.783   6.974
 3715POPC   C4B47710  29.330  15.580   7.314
 3716POPC   NC347711  25.513   6.566   5.587
 3716POPC   PO447712  26.161   6.262   5.452
 3716POPC   GL147713  26.041   6.655   5.726
 3716POPC   GL247714  25.864   6.552   6.030
 3716POPC   C1A47715  26.196   6.963   6.054
 3716POPC   D2A47716  25.970   6.925   6.460
 3716POPC   C3A47717  26.069   6.796   6.907
 3716POPC   C4A47718  25.794   6.544   7.171
 3716POPC   C1B47719  26.281   6.513   6.262
 3716POPC   C2B47720  26.516   6.631   6.656
 3716POPC   C3B47721  26.475   6.535   7.103
 3716POPC   C4B47722  26.273   6.687   7.492
 3717POPC   NC347723  13.012  44.846   5.148
 3717POPC   PO447724  12.838  44.407   5.569
 3717POPC   GL147725  13.025  44.565   5.881
 3717POPC   GL247726  12.784  44.834   5.837
 3717POPC   C1A47727  12.929  44.604   6.283
 3717POPC   D2A47728  12.720  44.539   6.660
 3717POPC   C3A47729  13.025  44.574   7.007
 3717POPC   C4A47730  13.190  44.503   7.458
 3717POPC   C1B47731  12.479  44.776   6.179
 3717POPC   C2B47732  12.408  44.956   6.613
 3717POPC   C3B47733  12.585  44.891   7.007
 3717POPC   C4B47734  12.657   0.075   7.377
 3718POPC   NC347735  39.262  41.148   5.456
 3718POPC   PO447736  39.015  41.777   5.294
 3718POPC   GL147737  39.331  41.664   5.672
 3718POPC   GL247738  39.120  41.429   5.831
 3718POPC   C1A47739  39.403  41.687   6.157
 3718POPC   D2A47740  39.187  41.610   6.569
 3718POPC   C3A47741  39.323  41.720   6.934
 3718POPC   C4A47742  39.088  41.858   7.239
 3718POPC   C1B47743  38.940  41.420   6.189
 3718POPC   C2B47744  38.920  41.150   6.571
 3718POPC   C3B47745  38.939  41.370   6.986
 3718POPC   C4B47746  38.938  41.393   7.457
 3719POPC   NC347747   1.082   7.988   5.526
 3719POPC   PO447748   1.067   8.685   5.386
 3719POPC   GL147749   1.050   8.464   5.801
 3719POPC   GL247750   1.383   8.289   5.873
 3719POPC   C1A47751   1.067   8.343   6.258
 3719POPC   D2A47752   1.342   8.508   6.601
 3719POPC   C3A47753   1.228   8.322   6.971
 3719POPC   C4A47754   0.978   8.181   7.296
 3719POPC   C1B47755   1.567   8.159   6.321
 3719POPC   C2B47756   1.562   7.994   6.748
 3719POPC   C3B47757   1.721   8.198   7.135
 3719POPC   C4B47758   1.428   8.308   7.453
 3720POPC   NC347759  10.364  11.090   5.467
 3720POPC   PO447760  10.138  11.724   5.413
 3720POPC   GL147761  10.325  11.508   5.767
 3720POPC   GL247762  10.684  11.497   5.785
 3720POPC   C1A47763  10.303  11.272   6.157
 3720POPC   D2A47764  10.068  11.367   6.561
 3720POPC   C3A47765  10.155  11.237   6.951
 3720POPC   C4A47766  10.475  11.308   7.280
 3720POPC   C1B47767  10.765  11.525   6.202
 3720POPC   C2B47768  10.603  11.345   6.574
 3720POPC   C3B47769  10.825  11.182   6.894
 3720POPC   C4B47770  10.947  11.494   7.122
 3721POPC   NC347771  38.137  30.652   5.140
 3721POPC   PO447772  37.506  30.557   5.208
 3721POPC   GL147773  37.719  30.729   5.638
 3721POPC   GL247774  37.640  30.473   5.876
 3721POPC   C1A47775  37.794  30.869   6.134
 3721POPC   D2A47776  38.027  30.857   6.552
 3721POPC   C3A47777  37.907  31.019   6.965
 3721POPC   C4A47778  37.828  30.991   7.393
 3721POPC   C1B47779  37.562  30.461   6.314
 3721POPC   C2B47780  37.603  30.603   6.733
 3721POPC   C3B47781  37.846  30.515   7.091
 3721POPC   C4B47782  37.587  30.397   7.405
 3722POPC   NC347783  26.894  18.032   5.205
 3722POPC   PO447784  26.442  18.437   5.384
 3722POPC   GL147785  26.653  18.249   5.731
 3722POPC   GL247786  26.410  17.981   5.753
 3722POPC   C1A47787  26.870  18.245   6.157
 3722POPC   D2A47788  27.083  18.358   6.547
 3722POPC   C3A47789  26.970  18.176   6.955
 3722POPC   C4A47790  27.089  18.424   7.294
 3722POPC   C1B47791  26.383  18.076   6.191
 3722POPC   C2B47792  26.608  18.086   6.586
 3722POPC   C3B47793  26.457  18.226   6.989
 3722POPC   C4B47794  26.639  18.129   7.391
 3723POPC   NC347795   3.056  27.534   5.451
 3723POPC   PO447796   2.439  27.195   5.369
 3723POPC   GL147797   2.647  27.366   5.729
 3723POPC   GL247798   2.573  27.754   5.769
 3723POPC   C1A47799   2.785  27.418   6.144
 3723POPC   D2A47800   2.782  27.769   6.426
 3723POPC   C3A47801   2.996  27.640   6.805
 3723POPC   C4A47802   2.778  27.477   7.182
 3723POPC   C1B47803   2.412  28.052   6.113
 3723POPC   C2B47804   2.288  28.017   6.558
 3723POPC   C3B47805   2.539  27.857   6.901
 3723POPC   C4B47806   2.881  27.980   7.185
 3724POPC   NC347807  15.264   2.510   5.437
 3724POPC   PO447808  15.175   3.185   5.204
 3724POPC   GL147809  15.231   2.970   5.668
 3724POPC   GL247810  15.068   2.667   5.888
 3724POPC   C1A47811  15.386   2.972   6.115
 3724POPC   D2A47812  15.149   2.897   6.496
 3724POPC   C3A47813  15.288   2.962   6.911
 3724POPC   C4A47814  14.999   2.876   7.233
 3724POPC   C1B47815  15.288   2.457   6.256
 3724POPC   C2B47816  15.385   2.471   6.717
 3724POPC   C3B47817  15.144   2.357   7.107
 3724POPC   C4B47818  14.910   2.440   7.511
 3725POPC   NC347819   5.380  42.125   5.285
 3725POPC   PO447820   5.012  42.553   5.487
 3725POPC   GL147821   5.265  42.312   5.757
 3725POPC   GL247822   4.983  42.236   5.941
 3725POPC   C1A47823   5.396  42.408   6.191
 3725POPC   D2A47824   5.055  42.320   6.480
 3725POPC   C3A47825   5.111  42.497   6.877
 3725POPC   C4A47826   5.223  42.393   7.258
 3725POPC   C1B47827   4.657  42.133   6.216
 3725POPC   C2B47828   4.536  42.242   6.643
 3725POPC   C3B47829   4.677  42.082   7.061
 3725POPC   C4B47830   4.768  42.178   7.494
 3726POPC   NC347831  25.327  16.070   5.109
 3726POPC   PO447832  24.851  15.879   5.481
 3726POPC   GL147833  25.070  16.039   5.817
 3726POPC   GL247834  25.381  15.923   5.744
 3726POPC   C1A47835  25.275  16.019   6.226
 3726POPC   D2A47836  25.364  16.184   6.583
 3726POPC   C3A47837  25.186  16.012   6.945
 3726POPC   C4A47838  25.263  16.135   7.384
 3726POPC   C1B47839  25.498  15.590   6.072
 3726POPC   C2B47840  25.582  15.609   6.512
 3726POPC   C3B47841  25.490  15.416   6.890
 3726POPC   C4B47842  25.486  15.689   7.221
 3727POPC   NC347843   3.234  38.088   5.412
 3727POPC   PO447844   3.456  38.852   5.364
 3727POPC   GL147845   3.511  38.693   5.806
 3727POPC   GL247846   3.813  38.496   5.926
 3727POPC   C1A47847   3.406  38.572   6.237
 3727POPC   D2A47848   3.399  38.340   6.619
 3727POPC   C3A47849   3.574  38.598   6.954
 3727POPC   C4A47850   3.268  38.882   7.164
 3727POPC   C1B47851   3.795  38.187   6.297
 3727POPC   C2B47852   3.860  38.187   6.765
 3727POPC   C3B47853   3.968  38.328   7.203
 3727POPC   C4B47854   3.806  38.584   7.574
 3728POPC   NC347855  14.602  42.671   5.388
 3728POPC   PO447856  14.364  42.016   5.454
 3728POPC   GL147857  14.560  42.250   5.775
 3728POPC   GL247858  14.268  42.430   5.837
 3728POPC   C1A47859  14.762  42.181   6.194
 3728POPC   D2A47860  14.907  42.363   6.599
 3728POPC   C3A47861  14.591  42.493   6.874
 3728POPC   C4A47862  14.460  42.350   7.250
 3728POPC   C1B47863  14.130  42.276   6.210
 3728POPC   C2B47864  14.297  42.215   6.597
 3728POPC   C3B47865  14.328  41.945   6.956
 3728POPC   C4B47866  13.960  41.888   7.192
 3729POPC   NC347867  11.466  14.649   5.337
 3729POPC   PO447868  11.077  14.119   5.366
 3729POPC   GL147869  11.154  14.324   5.778
 3729POPC   GL247870  11.484  14.410   5.814
 3729POPC   C1A47871  11.054  14.524   6.203
 3729POPC   D2A47872  10.830  14.489   6.624
 3729POPC   C3A47873  11.103  14.562   6.982
 3729POPC   C4A47874  11.310  14.391   7.310
 3729POPC   C1B47875  11.522  14.753   6.131
 3729POPC   C2B47876  11.692  14.711   6.562
 3729POPC   C3B47877  11.814  14.689   6.996
 3729POPC   C4B47878  11.632  14.779   7.380
 3730POPC   NC347879  15.771  25.775   5.388
 3730POPC   PO447880  15.906  26.360   5.212
 3730POPC   GL147881  15.992  26.248   5.687
 3730POPC   GL247882  16.057  25.935   5.764
 3730POPC   C1A47883  15.881  26.213   6.164
 3730POPC   D2A47884  16.133  26.234   6.578
 3730POPC   C3A47885  16.062  26.009   6.978
 3730POPC   C4A47886  15.959  25.911   7.432
 3730POPC   C1B47887  16.336  26.012   6.103
 3730POPC   C2B47888  16.303  25.747   6.453
 3730POPC   C3B47889  16.123  25.546   6.788
 3730POPC   C4B47890  16.242  25.569   7.206
 3731POPC   NC347891  32.828  35.166   5.189
 3731POPC   PO447892  33.274  35.589   5.422
 3731POPC   GL147893  32.988  35.465   5.789
 3731POPC   GL247894  32.855  35.109   5.713
 3731POPC   C1A47895  32.897  35.593   6.258
 3731POPC   D2A47896  33.142  35.674   6.676
 3731POPC   C3A47897  33.039  35.621   7.137
 3731POPC   C4A47898  33.186  35.749   7.600
 3731POPC   C1B47899  33.182  35.076   6.021
 3731POPC   C2B47900  33.159  35.188   6.457
 3731POPC   C3B47901  32.909  35.193   6.834
 3731POPC   C4B47902  33.037  35.126   7.259
 3732POPC   NC347903  44.981   8.160   5.492
 3732POPC   PO447904  44.338   8.376   5.538
 3732POPC   GL147905  44.660   8.229   5.877
 3732POPC   GL247906  44.869   7.886   5.889
 3732POPC   C1A47907  44.830   8.198   6.292
 3732POPC   D2A47908  44.518   8.201   6.565
 3732POPC   C3A47909  44.505   8.536   6.791
 3732POPC   C4A47910  44.538   8.382   7.183
 3732POPC   C1B47911  44.510   7.818   6.173
 3732POPC   C2B47912  44.696   7.723   6.559
 3732POPC   C3B47913  44.616   7.906   6.981
 3732POPC   C4B47914  44.970   8.083   7.199
 3733POPC   NC347915   8.814  28.936   5.461
 3733POPC   PO447916   8.725  28.245   5.311
 3733POPC   GL147917   8.876  28.308   5.734
 3733POPC   GL247918   8.658  28.581   5.822
 3733POPC   C1A47919   9.039  28.305   6.185
 3733POPC   D2A47920   9.133  28.449   6.617
 3733POPC   C3A47921   9.046  28.102   6.898
 3733POPC   C4A47922   8.980  28.042   7.339
 3733POPC   C1B47923   8.623  28.762   6.233
 3733POPC   C2B47924   8.729  28.820   6.667
 3733POPC   C3B47925   8.815  28.566   7.011
 3733POPC   C4B47926   9.219  28.521   7.182
 3734POPC   NC347927  17.233  30.951   5.292
 3734POPC   PO447928  16.626  30.653   5.141
 3734POPC   GL147929  16.717  30.810   5.654
 3734POPC   GL247930  17.035  30.936   5.808
 3734POPC   C1A47931  16.574  30.927   6.102
 3734POPC   D2A47932  16.582  30.714   6.541
 3734POPC   C3A47933  16.661  30.776   7.008
 3734POPC   C4A47934  16.579  30.544   7.415
 3734POPC   C1B47935  16.950  30.569   6.124
 3734POPC   C2B47936  17.095  30.549   6.553
 3734POPC   C3B47937  17.160  30.790   6.933
 3734POPC   C4B47938  17.031  30.834   7.362
 3735POPC   NC347939  33.844  29.452   5.396
 3735POPC   PO447940  33.817  28.831   5.609
 3735POPC   GL147941  33.968  29.133   5.888
 3735POPC   GL247942  33.755  29.423   5.900
 3735POPC   C1A47943  33.865  29.066   6.316
 3735POPC   D2A47944  33.554  29.156   6.628
 3735POPC   C3A47945  33.754  29.088   7.015
 3735POPC   C4A47946  34.166  28.861   6.978
 3735POPC   C1B47947  33.711  29.550   6.310
 3735POPC   C2B47948  33.900  29.515   6.704
 3735POPC   C3B47949  33.892  29.564   7.150
 3735POPC   C4B47950  33.639  29.337   7.478
 3736POPC   NC347951  10.778  12.887   5.352
 3736POPC   PO447952  10.143  12.718   5.300
 3736POPC   GL147953  10.249  12.908   5.742
 3736POPC   GL247954  10.589  13.047   5.790
 3736POPC   C1A47955  10.393  12.872   6.218
 3736POPC   D2A47956  10.552  12.832   6.663
 3736POPC   C3A47957  10.259  12.795   7.002
 3736POPC   C4A47958  10.165  13.117   7.279
 3736POPC   C1B47959  10.873  13.133   6.135
 3736POPC   C2B47960  10.921  13.236   6.558
 3736POPC   C3B47961  10.982  13.081   6.975
 3736POPC   C4B47962  10.678  12.926   7.235
 3737POPC   NC347963  31.485   4.714   5.386
 3737POPC   PO447964  31.438   4.000   5.377
 3737POPC   GL147965  31.357   4.337   5.712
 3737POPC   GL247966  31.460   4.154   5.953
 3737POPC   C1A47967  31.179   4.483   6.159
 3737POPC   D2A47968  31.306   4.315   6.577
 3737POPC   C3A47969  31.082   4.473   6.952
 3737POPC   C4A47970  31.189   4.707   7.343
 3737POPC   C1B47971  31.713   4.474   6.169
 3737POPC   C2B47972  31.735   4.616   6.619
 3737POPC   C3B47973  31.593   4.522   7.031
 3737POPC   C4B47974  31.802   4.300   7.385
 3738POPC   NC347975  36.063  16.824   5.471
 3738POPC   PO447976  36.304  16.147   5.522
 3738POPC   GL147977  36.200  16.490   5.826
 3738POPC   GL247978  36.367  16.854   5.853
 3738POPC   C1A47979  36.076  16.637   6.233
 3738POPC   D2A47980  35.795  16.795   6.544
 3738POPC   C3A47981  35.999  16.651   6.886
 3738POPC   C4A47982  36.054  16.863   7.217
 3738POPC   C1B47983  36.563  16.871   6.194
 3738POPC   C2B47984  36.454  16.723   6.597
 3738POPC   C3B47985  36.512  16.857   7.003
 3738POPC   C4B47986  36.488  16.790   7.457
 3739POPC   NC347987  27.613  40.317   5.428
 3739POPC   PO447988  27.406  39.647   5.431
 3739POPC   GL147989  27.690  39.888   5.725
 3739POPC   GL247990  27.436  40.060   5.849
 3739POPC   C1A47991  27.890  40.061   6.104
 3739POPC   D2A47992  27.945  39.916   6.520
 3739POPC   C3A47993  27.975  40.152   6.895
 3739POPC   C4A47994  27.679  40.104   7.247
 3739POPC   C1B47995  27.288  40.395   6.086
 3739POPC   C2B47996  27.413  40.602   6.459
 3739POPC   C3B47997  27.522  40.429   6.849
 3739POPC   C4B47998  27.332  40.473   7.218
 3740POPC   NC347999  18.002  30.192   5.236
 3740POPC   PO448000  18.434  29.747   5.367
 3740POPC   GL148001  18.187  29.891   5.739
 3740POPC   GL248002  18.364  30.197   5.715
 3740POPC   C1A48003  18.084  29.769   6.199
 3740POPC   D2A48004  17.909  29.645   6.619
 3740POPC   C3A48005  18.164  29.721   6.959
 3740POPC   C4A48006  18.151  29.786   7.392
 3740POPC   C1B48007  18.534  30.028   6.130
 3740POPC   C2B48008  18.363  30.010   6.568
 3740POPC   C3B48009  18.446  30.142   7.015
 3740POPC   C4B48010  18.295  30.257   7.434
 3741POPC   NC348011   8.492  10.165   5.507
 3741POPC   PO448012   8.198  10.844   5.507
 3741POPC   GL148013   8.207  10.512   5.754
 3741POPC   GL248014   7.928  10.341   5.646
 3741POPC   C1A48015   8.399  10.462   6.154
 3741POPC   D2A48016   8.390  10.789   6.476
 3741POPC   C3A48017   8.336  10.562   6.847
 3741POPC   C4A48018   8.368  10.700   7.235
 3741POPC   C1B48019   7.895  10.271   6.094
 3741POPC   C2B48020   8.083  10.192   6.480
 3741POPC   C3B48021   7.985  10.176   6.889
 3741POPC   C4B48022   8.284  10.156   7.222
 3742POPC   NC348023  13.388  41.579   5.638
 3742POPC   PO448024  12.841  41.531   5.291
 3742POPC   GL148025  12.782  41.569   5.792
 3742POPC   GL248026  13.018  41.404   5.961
 3742POPC   C1A48027  12.571  41.809   6.154
 3742POPC   D2A48028  12.631  41.901   6.587
 3742POPC   C3A48029  12.716  41.573   6.858
 3742POPC   C4A48030  12.763  41.490   7.305
 3742POPC   C1B48031  12.957  41.437   6.399
 3742POPC   C2B48032  13.067  41.200   6.753
 3742POPC   C3B48033  13.223  41.436   7.090
 3742POPC   C4B48034  13.207  41.457   7.567
 3743POPC   NC348035  26.919   7.401   5.371
 3743POPC   PO448036  26.268   7.383   5.341
 3743POPC   GL148037  26.593   7.183   5.709
 3743POPC   GL248038  26.969   7.257   5.844
 3743POPC   C1A48039  26.589   7.287   6.171
 3743POPC   D2A48040  26.641   7.571   6.542
 3743POPC   C3A48041  26.688   7.404   6.981
 3743POPC   C4A48042  26.409   7.104   7.204
 3743POPC   C1B48043  27.105   7.465   6.247
 3743POPC   C2B48044  27.125   7.605   6.690
 3743POPC   C3B48045  27.178   7.494   7.100
 3743POPC   C4B48046  27.132   7.165   7.351
 3744POPC   NC348047  44.189   2.749   5.402
 3744POPC   PO448048  43.760   3.199   5.319
 3744POPC   GL148049  43.969   3.029   5.757
 3744POPC   GL248050  43.748   2.782   5.908
 3744POPC   C1A48051  44.193   2.944   6.169
 3744POPC   D2A48052  44.103   3.039   6.618
 3744POPC   C3A48053  44.194   2.775   6.957
 3744POPC   C4A48054  44.021   2.650   7.332
 3744POPC   C1B48055  43.697   2.891   6.335
 3744POPC   C2B48056  43.736   2.679   6.740
 3744POPC   C3B48057  43.565   2.668   7.150
 3744POPC   C4B48058  43.584   2.352   7.501
 3745POPC   NC348059  40.779   7.646   5.330
 3745POPC   PO448060  40.337   7.072   5.417
 3745POPC   GL148061  40.616   7.376   5.743
 3745POPC   GL248062  40.647   7.752   5.814
 3745POPC   C1A48063  40.959   7.465   6.100
 3745POPC   D2A48064  40.836   7.372   6.559
 3745POPC   C3A48065  41.041   7.469   6.963
 3745POPC   C4A48066  41.232   7.097   7.151
 3745POPC   C1B48067  40.494   7.615   6.201
 3745POPC   C2B48068  40.452   7.715   6.610
 3745POPC   C3B48069  40.521   7.512   6.998
 3745POPC   C4B48070  40.462   7.606   7.414
 3746POPC   NC348071   1.760  43.733   5.394
 3746POPC   PO448072   2.449  43.504   5.453
 3746POPC   GL148073   2.230  43.740   5.827
 3746POPC   GL248074   1.913  43.947   5.821
 3746POPC   C1A48075   2.041  43.817   6.282
 3746POPC   D2A48076   1.913  44.095   6.637
 3746POPC   C3A48077   2.148  44.086   7.022
 3746POPC   C4A48078   2.255  43.771   7.299
 3746POPC   C1B48079   1.577  43.758   6.080
 3746POPC   C2B48080   1.581  43.698   6.540
 3746POPC   C3B48081   1.783  43.698   6.979
 3746POPC   C4B48082   1.767  43.876   7.409
 3747POPC   NC348083  36.773  38.238   5.344
 3747POPC   PO448084  36.559  38.869   5.473
 3747POPC   GL148085  36.763  38.665   5.837
 3747POPC   GL248086  37.058  38.522   5.712
 3747POPC   C1A48087  36.677  38.463   6.239
 3747POPC   D2A48088  36.485  38.648   6.581
 3747POPC   C3A48089  36.745  38.820   6.881
 3747POPC   C4A48090  36.845  38.568   7.231
 3747POPC   C1B48091  37.165  38.430   6.146
 3747POPC   C2B48092  37.062  38.528   6.581
 3747POPC   C3B48093  37.268  38.418   6.956
 3747POPC   C4B48094  37.359  38.388   7.358
 3748POPC   NC348095  34.526  20.756   5.392
 3748POPC   PO448096  34.341  20.221   5.754
 3748POPC   GL148097  34.555  20.575   5.953
 3748POPC   GL248098  34.575  20.924   5.874
 3748POPC   C1A48099  34.596  20.614   6.397
 3748POPC   D2A48100  34.398  20.482   6.778
 3748POPC   C3A48101  34.550  20.516   7.185
 3748POPC   C4A48102  34.411  20.364   7.567
 3748POPC   C1B48103  34.847  21.038   6.254
 3748POPC   C2B48104  34.876  20.942   6.709
 3748POPC   C3B48105  34.744  20.996   7.154
 3748POPC   C4B48106  34.563  20.839   7.589
 3749POPC   NC348107  17.060  15.818   5.621
 3749POPC   PO448108  16.470  16.249   5.422
 3749POPC   GL148109  16.733  16.178   5.784
 3749POPC   GL248110  16.680  15.820   5.961
 3749POPC   C1A48111  16.955  16.176   6.186
 3749POPC   D2A48112  16.905  15.878   6.508
 3749POPC   C3A48113  17.038  16.061   6.897
 3749POPC   C4A48114  16.983  16.055   7.369
 3749POPC   C1B48115  16.443  15.693   6.338
 3749POPC   C2B48116  16.534  15.537   6.760
 3749POPC   C3B48117  16.795  15.653   7.115
 3749POPC   C4B48118  16.647  15.665   7.558
 3750POPC   NC348119  26.909   2.157   5.387
 3750POPC   PO448120  26.388   1.744   5.420
 3750POPC   GL148121  26.677   1.838   5.793
 3750POPC   GL248122  27.038   1.916   5.842
 3750POPC   C1A48123  26.650   2.005   6.256
 3750POPC   D2A48124  26.851   1.891   6.684
 3750POPC   C3A48125  26.689   1.842   7.120
 3750POPC   C4A48126  26.941   1.804   7.511
 3750POPC   C1B48127  27.136   2.157   6.246
 3750POPC   C2B48128  26.873   2.386   6.573
 3750POPC   C3B48129  26.919   2.308   7.033
 3750POPC   C4B48130  27.228   2.198   7.346
 3751POPC   NC348131  29.831  44.297   5.568
 3751POPC   PO448132  29.687  44.853   5.211
 3751POPC   GL148133  29.770  44.853   5.679
 3751POPC   GL248134  30.098  44.991   5.762
 3751POPC   C1A48135  29.695  44.933   6.146
 3751POPC   D2A48136  29.510  44.992   6.604
 3751POPC   C3A48137  29.714  44.779   6.980
 3751POPC   C4A48138  29.808  44.532   7.425
 3751POPC   C1B48139  30.209   0.093   6.216
 3751POPC   C2B48140  30.083   0.052   6.690
 3751POPC   C3B48141  30.193  44.831   7.138
 3751POPC   C4B48142  30.286  44.381   7.305
 3752POPC   NC348143   3.888  29.848   5.210
 3752POPC   PO448144   4.575  29.819   5.436
 3752POPC   GL148145   4.318  29.692   5.750
 3752POPC   GL248146   4.203  30.014   5.781
 3752POPC   C1A48147   4.424  29.634   6.164
 3752POPC   D2A48148   4.251  29.507   6.534
 3752POPC   C3A48149   4.354  29.732   6.896
 3752POPC   C4A48150   4.256  29.694   7.314
 3752POPC   C1B48151   4.189  30.113   6.223
 3752POPC   C2B48152   3.953  29.940   6.568
 3752POPC   C3B48153   3.954  30.048   6.999
 3752POPC   C4B48154   4.042  30.135   7.445
 3753POPC   NC348155  16.290  26.100   5.273
 3753POPC   PO448156  16.897  25.919   5.278
 3753POPC   GL148157  16.715  26.122   5.677
 3753POPC   GL248158  16.531  25.804   5.651
 3753POPC   C1A48159  16.751  26.318   6.141
 3753POPC   D2A48160  16.687  26.082   6.545
 3753POPC   C3A48161  16.623  26.266   6.967
 3753POPC   C4A48162  16.365  26.192   7.352
 3753POPC   C1B48163  16.675  25.650   6.039
 3753POPC   C2B48164  16.796  25.567   6.451
 3753POPC   C3B48165  16.632  25.626   6.843
 3753POPC   C4B48166  16.680  25.828   7.221
 3754POPC   NC348167  24.170  16.935   4.979
 3754POPC   PO448168  24.744  16.738   5.332
 3754POPC   GL148169  24.552  16.773   5.750
 3754POPC   GL248170  24.559  17.113   5.888
 3754POPC   C1A48171  24.716  16.746   6.180
 3754POPC   D2A48172  24.544  16.734   6.565
 3754POPC   C3A48173  24.778  16.825   6.944
 3754POPC   C4A48174  24.707  16.646   7.333
 3754POPC   C1B48175  24.226  16.957   6.183
 3754POPC   C2B48176  24.060  16.928   6.612
 3754POPC   C3B48177  24.245  16.776   6.982
 3754POPC   C4B48178  24.398  17.054   7.254
 3755POPC   NC348179   6.892  18.001   5.731
 3755POPC   PO448180   6.407  18.473   5.466
 3755POPC   GL148181   6.617  18.447   5.858
 3755POPC   GL248182   6.524  18.140   6.037
 3755POPC   C1A48183   6.503  18.585   6.283
 3755POPC   D2A48184   6.475  18.346   6.667
 3755POPC   C3A48185   6.555  18.518   7.070
 3755POPC   C4A48186   6.288  18.513   7.411
 3755POPC   C1B48187   6.865  18.206   6.351
 3755POPC   C2B48188   7.074  18.124   6.747
 3755POPC   C3B48189   6.947  18.183   7.171
 3755POPC   C4B48190   7.042  17.950   7.523
 3756POPC   NC348191  23.253  16.904   5.534
 3756POPC   PO448192  22.930  16.630   5.054
 3756POPC   GL148193  22.752  16.820   5.469
 3756POPC   GL248194  22.886  16.587   5.710
 3756POPC   C1A48195  22.697  16.996   5.936
 3756POPC   D2A48196  22.970  16.868   6.310
 3756POPC   C3A48197  22.854  16.826   6.757
 3756POPC   C4A48198  23.032  16.840   7.184
 3756POPC   C1B48199  22.782  16.418   6.119
 3756POPC   C2B48200  22.947  16.332   6.521
 3756POPC   C3B48201  22.829  16.360   6.933
 3756POPC   C4B48202  22.966  16.368   7.351
 3757POPC   NC348203  43.139  12.588   5.583
 3757POPC   PO448204  42.812  13.205   5.464
 3757POPC   GL148205  42.993  13.039   5.814
 3757POPC   GL248206  43.372  12.981   5.861
 3757POPC   C1A48207  42.964  12.881   6.214
 3757POPC   D2A48208  43.205  12.939   6.553
 3757POPC   C3A48209  42.925  12.979   6.851
 3757POPC   C4A48210  42.964  13.004   7.252
 3757POPC   C1B48211  43.437  12.637   6.191
 3757POPC   C2B48212  43.424  12.454   6.610
 3757POPC   C3B48213  43.284  12.644   6.992
 3757POPC   C4B48214  43.206  12.557   7.423
 3758POPC   NC348215  12.344  17.845   5.205
 3758POPC   PO448216  11.983  18.359   5.410
 3758POPC   GL148217  12.059  18.113   5.753
 3758POPC   GL248218  12.374  18.019   5.693
 3758POPC   C1A48219  12.011  18.165   6.215
 3758POPC   D2A48220  12.046  18.386   6.596
 3758POPC   C3A48221  12.070  18.150   6.962
 3758POPC   C4A48222  11.793  18.304   7.249
 3758POPC   C1B48223  12.484  18.292   6.039
 3758POPC   C2B48224  12.542  18.247   6.483
 3758POPC   C3B48225  12.501  18.396   6.883
 3758POPC   C4B48226  12.286  18.527   7.274
 3759POPC   NC348227  27.967  37.930   5.612
 3759POPC   PO448228  28.588  37.648   5.558
 3759POPC   GL148229  28.360  37.732   5.893
 3759POPC   GL248230  28.016  37.627   6.019
 3759POPC   C1A48231  28.444  37.585   6.285
 3759POPC   D2A48232  28.242  37.563   6.663
 3759POPC   C3A48233  28.560  37.778   6.862
 3759POPC   C4A48234  28.588  37.738   7.277
 3759POPC   C1B48235  28.133  37.984   6.288
 3759POPC   C2B48236  28.141  38.067   6.707
 3759POPC   C3B48237  28.105  37.846   7.119
 3759POPC   C4B48238  28.046  37.734   7.567
 3760POPC   NC348239  21.686  24.105   5.638
 3760POPC   PO448240  21.142  23.761   5.379
 3760POPC   GL148241  21.186  23.606   5.807
 3760POPC   GL248242  21.212  23.937   5.881
 3760POPC   C1A48243  21.438  23.658   6.227
 3760POPC   D2A48244  21.285  23.800   6.656
 3760POPC   C3A48245  21.330  23.533   7.024
 3760POPC   C4A48246  21.528  23.537   7.422
 3760POPC   C1B48247  21.070  24.064   6.278
 3760POPC   C2B48248  20.842  24.129   6.681
 3760POPC   C3B48249  20.968  23.935   7.052
 3760POPC   C4B48250  21.403  24.083   7.093
 3761POPC   NC348251  37.360  21.209   5.372
 3761POPC   PO448252  36.682  21.314   5.378
 3761POPC   GL148253  36.909  21.435   5.782
 3761POPC   GL248254  36.778  21.190   5.971
 3761POPC   C1A48255  36.812  21.608   6.257
 3761POPC   D2A48256  36.965  21.512   6.693
 3761POPC   C3A48257  36.811  21.651   7.088
 3761POPC   C4A48258  36.930  21.912   7.438
 3761POPC   C1B48259  37.144  21.244   6.280
 3761POPC   C2B48260  37.268  21.098   6.704
 3761POPC   C3B48261  37.146  21.187   7.131
 3761POPC   C4B48262  37.177  21.004   7.538
 3762POPC   NC348263  24.097  24.594   5.661
 3762POPC   PO448264  24.655  24.323   5.421
 3762POPC   GL148265  24.631  24.408   5.861
 3762POPC   GL248266  24.628  24.042   5.981
 3762POPC   C1A48267  24.480  24.635   6.253
 3762POPC   D2A48268  24.253  24.757   6.648
 3762POPC   C3A48269  24.235  24.573   7.072
 3762POPC   C4A48270  24.484  24.726   7.396
 3762POPC   C1B48271  24.751  24.227   6.350
 3762POPC   C2B48272  24.580  24.327   6.761
 3762POPC   C3B48273  24.675  24.299   7.217
 3762POPC   C4B48274  24.741  24.199   7.649
 3763POPC   NC348275  15.267  33.665   5.444
 3763POPC   PO448276  14.914  34.249   5.414
 3763POPC   GL148277  15.169  34.090   5.739
 3763POPC   GL248278  14.955  33.819   5.843
 3763POPC   C1A48279  15.275  34.045   6.195
 3763POPC   D2A48280  15.202  33.719   6.500
 3763POPC   C3A48281  15.219  33.875   6.904
 3763POPC   C4A48282  14.989  34.184   7.157
 3763POPC   C1B48283  14.907  33.450   6.104
 3763POPC   C2B48284  14.948  33.257   6.494
 3763POPC   C3B48285  14.837  33.441   6.923
 3763POPC   C4B48286  14.900  33.710   7.290
 3764POPC   NC348287   3.066  20.727   5.419
 3764POPC   PO448288   3.794  20.781   5.409
 3764POPC   GL148289   3.529  20.715   5.710
 3764POPC   GL248290   3.388  21.009   5.689
 3764POPC   C1A48291   3.488  20.646   6.154
 3764POPC   D2A48292   3.721  20.553   6.536
 3764POPC   C3A48293   3.442  20.485   6.874
 3764POPC   C4A48294   3.405  20.612   7.275
 3764POPC   C1B48295   3.667  21.120   6.028
 3764POPC   C2B48296   3.671  21.065   6.488
 3764POPC   C3B48297   3.718  20.912   6.929
 3764POPC   C4B48298   3.845  20.906   7.360
 3765POPC   NC348299  22.628  17.742   5.549
 3765POPC   PO448300  23.190  17.379   5.363
 3765POPC   GL148301  22.989  17.441   5.762
 3765POPC   GL248302  23.037  17.791   5.866
 3765POPC   C1A48303  23.041  17.438   6.221
 3765POPC   D2A48304  23.049  17.273   6.616
 3765POPC   C3A48305  23.002  17.462   6.969
 3765POPC   C4A48306  23.166  17.310   7.333
 3765POPC   C1B48307  22.723  17.850   6.234
 3765POPC   C2B48308  22.648  17.735   6.678
 3765POPC   C3B48309  22.602  17.728   7.142
 3765POPC   C4B48310  22.607  17.956   7.553
 3766POPC   NC348311  42.051  31.695   5.423
 3766POPC   PO448312  42.514  31.289   5.429
 3766POPC   GL148313  42.261  31.376   5.813
 3766POPC   GL248314  41.999  31.656   5.921
 3766POPC   C1A48315  42.388  31.227   6.228
 3766POPC   D2A48316  42.718  31.309   6.541
 3766POPC   C3A48317  42.581  31.155   6.963
 3766POPC   C4A48318  42.197  31.198   7.197
 3766POPC   C1B48319  42.175  31.678   6.353
 3766POPC   C2B48320  42.203  31.572   6.795
 3766POPC   C3B48321  41.921  31.695   7.137
 3766POPC   C4B48322  42.003  31.888   7.545
 3767POPC   NC348323   2.392  21.719   5.304
 3767POPC   PO448324   2.894  21.204   5.508
 3767POPC   GL148325   2.728  21.258   5.899
 3767POPC   GL248326   2.438  21.436   5.798
 3767POPC   C1A48327   2.876  21.470   6.304
 3767POPC   D2A48328   2.834  21.604   6.748
 3767POPC   C3A48329   3.073  21.513   7.080
 3767POPC   C4A48330   2.911  21.274   7.377
 3767POPC   C1B48331   2.387  21.589   6.212
 3767POPC   C2B48332   2.363  21.442   6.630
 3767POPC   C3B48333   2.494  21.416   7.054
 3767POPC   C4B48334   2.648  21.696   7.328
 3768POPC   NC348335  39.776   8.865   5.447
 3768POPC   PO448336  40.432   8.791   5.496
 3768POPC   GL148337  40.214   8.968   5.861
 3768POPC   GL248338  39.904   9.152   5.830
 3768POPC   C1A48339  40.067   8.792   6.261
 3768POPC   D2A48340  40.074   8.550   6.639
 3768POPC   C3A48341  40.080   8.782   7.010
 3768POPC   C4A48342  39.906   8.662   7.378
 3768POPC   C1B48343  39.681   9.104   6.219
 3768POPC   C2B48344  39.743   9.002   6.678
 3768POPC   C3B48345  39.699   9.303   7.024
 3768POPC   C4B48346  39.879   9.183   7.376
 3769POPC   NC348347  13.337  18.513   5.408
 3769POPC   PO448348  13.620  17.887   5.502
 3769POPC   GL148349  13.435  18.170   5.781
 3769POPC   GL248350  13.662  18.428   5.808
 3769POPC   C1A48351  13.369  18.333   6.197
 3769POPC   D2A48352  13.604  18.159   6.514
 3769POPC   C3A48353  13.486  18.180   6.901
 3769POPC   C4A48354  13.397  18.290   7.260
 3769POPC   C1B48355  13.903  18.499   6.176
 3769POPC   C2B48356  13.784  18.637   6.588
 3769POPC   C3B48357  13.812  18.563   7.012
 3769POPC   C4B48358  14.175  18.575   7.257
 3770POPC   NC348359   1.710  24.714   5.147
 3770POPC   PO448360   1.143  24.318   5.189
 3770POPC   GL148361   1.150  24.476   5.591
 3770POPC   GL248362   1.174  24.174   5.748
 3770POPC   C1A48363   1.272  24.712   5.962
 3770POPC   D2A48364   1.189  24.671   6.412
 3770POPC   C3A48365   1.459  24.749   6.746
 3770POPC   C4A48366   1.400  24.709   7.172
 3770POPC   C1B48367   1.316  24.237   6.149
 3770POPC   C2B48368   1.191  24.176   6.560
 3770POPC   C3B48369   1.165  24.286   6.988
 3770POPC   C4B48370   1.055  24.051   7.354
 3771POPC   NC348371  38.358  32.093   5.480
 3771POPC   PO448372  38.121  32.646   5.459
 3771POPC   GL148373  38.376  32.425   5.850
 3771POPC   GL248374  38.763  32.334   5.864
 3771POPC   C1A48375  38.461  32.310   6.282
 3771POPC   D2A48376  38.214  32.424   6.650
 3771POPC   C3A48377  38.372  32.598   7.008
 3771POPC   C4A48378  38.594  32.469   7.370
 3771POPC   C1B48379  38.899  32.035   6.212
 3771POPC   C2B48380  38.662  31.913   6.578
 3771POPC   C3B48381  38.605  32.128   6.956
 3771POPC   C4B48382  38.853  32.016   7.276
 3772POPC   NC348383  14.179  10.259   5.396
 3772POPC   PO448384  14.756  10.681   5.428
 3772POPC   GL148385  14.423  10.589   5.712
 3772POPC   GL248386  14.534  10.288   5.841
 3772POPC   C1A48387  14.339  10.712   6.129
 3772POPC   D2A48388  14.583  10.593   6.496
 3772POPC   C3A48389  14.428  10.715   6.904
 3772POPC   C4A48390  14.060  10.585   7.130
 3772POPC   C1B48391  14.573  10.102   6.272
 3772POPC   C2B48392  14.472  10.168   6.731
 3772POPC   C3B48393  14.425  10.191   7.154
 3772POPC   C4B48394  14.478  10.112   7.587
 3773POPC   NC348395  33.181   2.678   5.354
 3773POPC   PO448396  33.862   2.631   5.205
 3773POPC   GL148397  33.828   2.740   5.697
 3773POPC   GL248398  34.142   2.838   5.882
 3773POPC   C1A48399  33.706   2.647   6.143
 3773POPC   D2A48400  33.697   2.803   6.581
 3773POPC   C3A48401  33.692   2.591   6.973
 3773POPC   C4A48402  33.677   2.803   7.393
 3773POPC   C1B48403  34.102   2.945   6.279
 3773POPC   C2B48404  34.215   2.791   6.665
 3773POPC   C3B48405  34.022   2.976   7.017
 3773POPC   C4B48406  34.164   2.965   7.395
 3774POPC   NC348407  12.530  31.381   5.305
 3774POPC   PO448408  11.840  31.693   5.363
 3774POPC   GL148409  11.954  31.740   5.829
 3774POPC   GL248410  12.304  31.654   5.738
 3774POPC   C1A48411  11.910  31.662   6.324
 3774POPC   D2A48412  11.964  31.363   6.703
 3774POPC   C3A48413  12.004  31.575   7.120
 3774POPC   C4A48414  12.042  31.679   7.583
 3774POPC   C1B48415  12.321  31.408   6.109
 3774POPC   C2B48416  12.412  31.534   6.514
 3774POPC   C3B48417  12.464  31.472   6.937
 3774POPC   C4B48418  12.473  31.651   7.346
 3775POPC   NC348419   9.653   6.457   5.427
 3775POPC   PO448420   9.235   7.066   5.452
 3775POPC   GL148421   9.505   6.828   5.815
 3775POPC   GL248422   9.882   6.688   5.830
 3775POPC   C1A48423   9.641   6.716   6.266
 3775POPC   D2A48424   9.437   6.743   6.664
 3775POPC   C3A48425   9.585   6.605   7.084
 3775POPC   C4A48426   9.561   6.915   7.421
 3775POPC   C1B48427  10.141   6.501   6.194
 3775POPC   C2B48428  10.209   6.665   6.601
 3775POPC   C3B48429  10.085   6.630   7.021
 3775POPC   C4B48430  10.036   6.646   7.461
 3776POPC   NC348431  27.670  18.644   5.358
 3776POPC   PO448432  27.161  19.131   5.362
 3776POPC   GL148433  27.410  19.310   5.687
 3776POPC   GL248434  27.722  19.133   5.824
 3776POPC   C1A48435  27.420  19.375   6.152
 3776POPC   D2A48436  27.568  19.114   6.490
 3776POPC   C3A48437  27.260  19.006   6.809
 3776POPC   C4A48438  27.348  19.096   7.225
 3776POPC   C1B48439  27.754  18.764   6.117
 3776POPC   C2B48440  27.789  18.641   6.566
 3776POPC   C3B48441  27.707  18.767   7.005
 3776POPC   C4B48442  27.537  18.633   7.410
 3777POPC   NC348443  27.985  12.401   5.475
 3777POPC   PO448444  28.245  11.804   5.475
 3777POPC   GL148445  28.330  11.886   5.863
 3777POPC   GL248446  28.274  12.240   5.869
 3777POPC   C1A48447  28.267  11.938   6.302
 3777POPC   D2A48448  28.209  12.070   6.703
 3777POPC   C3A48449  28.536  12.149   6.966
 3777POPC   C4A48450  28.352  11.993   7.300
 3777POPC   C1B48451  27.993  12.394   6.217
 3777POPC   C2B48452  27.988  12.543   6.665
 3777POPC   C3B48453  28.099  12.407   7.100
 3777POPC   C4B48454  28.098  12.595   7.514
 3778POPC   NC348455  40.228  43.482   5.342
 3778POPC   PO448456  40.252  42.783   5.386
 3778POPC   GL148457  40.003  42.971   5.717
 3778POPC   GL248458  39.931  43.321   5.736
 3778POPC   C1A48459  40.050  43.063   6.177
 3778POPC   D2A48460  39.958  43.082   6.616
 3778POPC   C3A48461  40.209  43.059   6.972
 3778POPC   C4A48462  40.182  42.863   7.389
 3778POPC   C1B48463  39.752  43.489   6.124
 3778POPC   C2B48464  39.856  43.586   6.553
 3778POPC   C3B48465  39.790  43.407   6.987
 3778POPC   C4B48466  40.039  43.348   7.362
 3779POPC   NC348467  32.603  19.145   5.091
 3779POPC   PO448468  33.237  18.978   5.288
 3779POPC   GL148469  33.145  19.186   5.711
 3779POPC   GL248470  32.982  18.925   5.844
 3779POPC   C1A48471  32.992  19.309   6.190
 3779POPC   D2A48472  32.920  19.097   6.615
 3779POPC   C3A48473  32.995  19.275   7.024
 3779POPC   C4A48474  33.127  19.004   7.408
 3779POPC   C1B48475  33.237  18.812   6.195
 3779POPC   C2B48476  33.404  18.886   6.591
 3779POPC   C3B48477  33.280  18.751   6.985
 3779POPC   C4B48478  33.450  18.574   7.357
 3780POPC   NC348479  10.167  37.606   5.406
 3780POPC   PO448480  10.842  37.374   5.400
 3780POPC   GL148481  10.719  37.511   5.804
 3780POPC   GL248482  10.419  37.738   5.821
 3780POPC   C1A48483  10.776  37.757   6.194
 3780POPC   D2A48484  10.511  37.760   6.551
 3780POPC   C3A48485  10.713  37.770   6.912
 3780POPC   C4A48486  10.547  37.828   7.298
 3780POPC   C1B48487  10.334  37.460   6.171
 3780POPC   C2B48488  10.158  37.388   6.616
 3780POPC   C3B48489  10.328  37.421   7.047
 3780POPC   C4B48490  10.353  37.173   7.453
 3781POPC   NC348491  12.468  41.323   5.499
 3781POPC   PO448492  11.943  41.734   5.476
 3781POPC   GL148493  11.980  41.550   5.839
 3781POPC   GL248494  12.275  41.483   5.924
 3781POPC   C1A48495  11.898  41.552   6.244
 3781POPC   D2A48496  12.225  41.587   6.493
 3781POPC   C3A48497  12.044  41.390   6.792
 3781POPC   C4A48498  11.970  41.503   7.190
 3781POPC   C1B48499  12.521  41.279   6.200
 3781POPC   C2B48500  12.520  41.137   6.627
 3781POPC   C3B48501  12.420  41.221   7.070
 3781POPC   C4B48502  12.327  41.387   7.528
 3782POPC   NC348503  41.670  12.502   5.447
 3782POPC   PO448504  41.597  13.105   5.779
 3782POPC   GL148505  41.729  12.682   5.936
 3782POPC   GL248506  41.375  12.540   5.894
 3782POPC   C1A48507  41.879  12.727   6.369
 3782POPC   D2A48508  41.557  12.910   6.664
 3782POPC   C3A48509  41.571  13.095   7.053
 3782POPC   C4A48510  41.488  12.969   7.466
 3782POPC   C1B48511  41.395  12.530   6.341
 3782POPC   C2B48512  41.669  12.414   6.712
 3782POPC   C3B48513  41.596  12.570   7.128
 3782POPC   C4B48514  41.158  12.702   7.211
 3783POPC   NC348515  23.116  21.140   5.341
 3783POPC   PO448516  22.659  21.535   5.508
 3783POPC   GL148517  22.745  21.338   5.874
 3783POPC   GL248518  23.052  21.202   5.859
 3783POPC   C1A48519  22.878  21.587   6.220
 3783POPC   D2A48520  23.088  21.696   6.586
 3783POPC   C3A48521  22.863  21.649   6.962
 3783POPC   C4A48522  22.810  21.558   7.365
 3783POPC   C1B48523  23.258  21.241   6.232
 3783POPC   C2B48524  23.017  21.196   6.603
 3783POPC   C3B48525  23.015  21.172   7.036
 3783POPC   C4B48526  22.585  21.125   7.218
 3784POPC   NC348527   5.054  19.002   5.414
 3784POPC   PO448528   4.826  19.620   5.552
 3784POPC   GL148529   5.090  19.352   5.834
 3784POPC   GL248530   5.301  19.047   5.845
 3784POPC   C1A48531   5.151  19.310   6.280
 3784POPC   D2A48532   4.831  19.285   6.595
 3784POPC   C3A48533   4.834  18.956   6.917
 3784POPC   C4A48534   4.861  19.138   7.319
 3784POPC   C1B48535   5.318  18.822   6.244
 3784POPC   C2B48536   5.303  18.987   6.669
 3784POPC   C3B48537   5.325  19.045   7.105
 3784POPC   C4B48538   5.679  18.928   7.330
 3785POPC   NC348539  38.329  15.591   5.524
 3785POPC   PO448540  38.174  15.034   5.277
 3785POPC   GL148541  38.269  15.058   5.728
 3785POPC   GL248542  38.606  15.141   5.845
 3785POPC   C1A48543  38.176  15.197   6.155
 3785POPC   D2A48544  38.230  15.413   6.561
 3785POPC   C3A48545  38.146  15.338   7.004
 3785POPC   C4A48546  38.350  15.479   7.415
 3785POPC   C1B48547  38.611  14.977   6.282
 3785POPC   C2B48548  38.545  15.018   6.732
 3785POPC   C3B48549  38.518  15.020   7.165
 3785POPC   C4B48550  38.537  15.064   7.614
 3786POPC   NC348551  18.384  41.779   5.229
 3786POPC   PO448552  17.921  41.310   5.310
 3786POPC   GL148553  18.101  41.407   5.714
 3786POPC   GL248554  18.196  41.760   5.752
 3786POPC   C1A48555  18.165  41.473   6.178
 3786POPC   D2A48556  17.911  41.572   6.559
 3786POPC   C3A48557  18.133  41.487   6.957
 3786POPC   C4A48558  18.531  41.312   7.057
 3786POPC   C1B48559  18.415  41.920   6.169
 3786POPC   C2B48560  18.416  41.742   6.579
 3786POPC   C3B48561  18.554  41.854   6.974
 3786POPC   C4B48562  18.251  41.891   7.255
 3787POPC   NC348563  30.189  18.401   5.418
 3787POPC   PO448564  29.656  17.930   5.532
 3787POPC   GL148565  29.944  18.055   5.845
 3787POPC   GL248566  29.915  18.406   5.862
 3787POPC   C1A48567  29.855  18.033   6.307
 3787POPC   D2A48568  29.979  18.183   6.752
 3787POPC   C3A48569  29.997  17.916   7.153
 3787POPC   C4A48570  29.820  18.067   7.574
 3787POPC   C1B48571  30.039  18.531   6.278
 3787POPC   C2B48572  29.835  18.708   6.657
 3787POPC   C3B48573  29.992  18.735   7.063
 3787POPC   C4B48574  30.071  18.391   7.283
 3788POPC   NC348575  27.778  26.813   5.083
 3788POPC   PO448576  27.776  26.292   5.505
 3788POPC   GL148577  27.631  26.621   5.790
 3788POPC   GL248578  27.876  26.870   5.899
 3788POPC   C1A48579  27.351  26.789   6.124
 3788POPC   D2A48580  27.187  27.015   6.499
 3788POPC   C3A48581  27.425  26.930   6.888
 3788POPC   C4A48582  27.290  26.774   7.298
 3788POPC   C1B48583  27.870  26.831   6.337
 3788POPC   C2B48584  27.977  26.932   6.766
 3788POPC   C3B48585  27.832  26.837   7.223
 3788POPC   C4B48586  27.833  26.956   7.702
 3789POPC   NC348587  42.778  38.744   5.681
 3789POPC   PO448588  42.394  38.389   5.229
 3789POPC   GL148589  42.343  38.468   5.684
 3789POPC   GL248590  42.648  38.268   5.793
 3789POPC   C1A48591  42.300  38.600   6.139
 3789POPC   D2A48592  42.270  38.795   6.580
 3789POPC   C3A48593  42.081  38.520   6.901
 3789POPC   C4A48594  42.192  38.383   7.357
 3789POPC   C1B48595  42.730  38.291   6.241
 3789POPC   C2B48596  42.478  38.291   6.602
 3789POPC   C3B48597  42.559  38.336   7.024
 3789POPC   C4B48598  42.622  38.065   7.396
 3790POPC   NC348599  22.044  10.447   5.294
 3790POPC   PO448600  22.417  10.999   5.302
 3790POPC   GL148601  22.300  10.689   5.675
 3790POPC   GL248602  21.911  10.642   5.767
 3790POPC   C1A48603  22.384  10.444   6.070
 3790POPC   D2A48604  22.504  10.595   6.486
 3790POPC   C3A48605  22.210  10.535   6.831
 3790POPC   C4A48606  22.319  10.249   7.183
 3790POPC   C1B48607  21.880  10.326   6.086
 3790POPC   C2B48608  22.025  10.174   6.509
 3790POPC   C3B48609  21.856  10.180   6.946
 3790POPC   C4B48610  21.860  10.261   7.395
 3791POPC   NC348611  14.755  41.804   5.637
 3791POPC   PO448612  14.346  41.398   5.192
 3791POPC   GL148613  14.323  41.492   5.652
 3791POPC   GL248614  14.321  41.788   5.908
 3791POPC   C1A48615  14.253  41.324   6.093
 3791POPC   D2A48616  14.008  41.402   6.463
 3791POPC   C3A48617  14.285  41.442   6.795
 3791POPC   C4A48618  14.253  41.469   7.234
 3791POPC   C1B48619  14.371  41.778   6.358
 3791POPC   C2B48620  14.727  41.884   6.632
 3791POPC   C3B48621  14.847  42.046   7.045
 3791POPC   C4B48622  14.607  41.870   7.398
 3792POPC   NC348623  16.140  13.135   5.139
 3792POPC   PO448624  15.792  12.596   5.338
 3792POPC   GL148625  15.776  12.795   5.683
 3792POPC   GL248626  16.120  12.880   5.717
 3792POPC   C1A48627  15.791  12.804   6.109
 3792POPC   D2A48628  15.624  12.781   6.504
 3792POPC   C3A48629  15.862  12.948   6.795
 3792POPC   C4A48630  15.894  12.914   7.213
 3792POPC   C1B48631  16.218  13.097   6.092
 3792POPC   C2B48632  16.230  13.174   6.508
 3792POPC   C3B48633  16.281  13.191   6.963
 3792POPC   C4B48634  16.247  13.206   7.427
 3793POPC   NC348635  37.091  27.408   5.445
 3793POPC   PO448636  36.516  27.868   5.250
 3793POPC   GL148637  36.574  27.751   5.722
 3793POPC   GL248638  36.683  27.378   5.802
 3793POPC   C1A48639  36.903  27.860   6.068
 3793POPC   D2A48640  37.163  27.777   6.451
 3793POPC   C3A48641  37.040  27.920   6.884
 3793POPC   C4A48642  36.802  27.715   7.248
 3793POPC   C1B48643  36.948  27.346   6.195
 3793POPC   C2B48644  36.836  27.411   6.648
 3793POPC   C3B48645  36.650  27.271   7.055
 3793POPC   C4B48646  36.922  27.205   7.435
 3794POPC   NC348647  32.580   3.722   5.387
 3794POPC   PO448648  33.032   3.185   5.267
 3794POPC   GL148649  33.016   3.380   5.697
 3794POPC   GL248650  33.002   3.757   5.714
 3794POPC   C1A48651  33.069   3.299   6.161
 3794POPC   D2A48652  32.880   3.085   6.539
 3794POPC   C3A48653  33.033   3.287   6.890
 3794POPC   C4A48654  32.871   3.449   7.227
 3794POPC   C1B48655  33.262   3.790   6.109
 3794POPC   C2B48656  33.400   3.775   6.565
 3794POPC   C3B48657  33.127   3.792   6.936
 3794POPC   C4B48658  33.111   3.903   7.386
 3795POPC   NC348659   1.009  29.261   5.544
 3795POPC   PO448660   1.521  28.847   5.375
 3795POPC   GL148661   1.421  28.987   5.782
 3795POPC   GL248662   1.074  28.873   5.907
 3795POPC   C1A48663   1.518  29.059   6.219
 3795POPC   D2A48664   1.197  29.024   6.532
 3795POPC   C3A48665   1.296  29.158   6.967
 3795POPC   C4A48666   1.039  29.070   7.314
 3795POPC   C1B48667   0.794  29.163   6.199
 3795POPC   C2B48668   0.854  29.435   6.600
 3795POPC   C3B48669   0.892  29.510   7.063
 3795POPC   C4B48670   0.786  29.456   7.521
 3796POPC   NC348671  16.721  35.344   5.235
 3796POPC   PO448672  17.177  35.152   5.671
 3796POPC   GL148673  16.746  35.282   5.795
 3796POPC   GL248674  16.750  35.625   5.826
 3796POPC   C1A48675  16.566  35.430   6.235
 3796POPC   D2A48676  16.719  35.453   6.657
 3796POPC   C3A48677  16.406  35.492   6.991
 3796POPC   C4A48678  16.437  35.279   7.362
 3796POPC   C1B48679  17.070  35.475   6.199
 3796POPC   C2B48680  17.272  35.328   6.565
 3796POPC   C3B48681  17.119  35.432   6.982
 3796POPC   C4B48682  16.954  35.266   7.347
 3797POPC   NC348683  34.941  16.380   5.265
 3797POPC   PO448684  35.656  16.588   5.403
 3797POPC   GL148685  35.455  16.576   5.828
 3797POPC   GL248686  35.130  16.651   5.759
 3797POPC   C1A48687  35.341  16.869   6.216
 3797POPC   D2A48688  35.313  17.073   6.651
 3797POPC   C3A48689  35.456  16.855   7.034
 3797POPC   C4A48690  35.625  17.002   7.423
 3797POPC   C1B48691  34.946  16.541   6.168
 3797POPC   C2B48692  34.925  16.670   6.615
 3797POPC   C3B48693  34.964  16.639   7.085
 3797POPC   C4B48694  35.234  16.608   7.455
 3798POPC   NC348695  21.671  43.002   5.416
 3798POPC   PO448696  21.334  43.539   5.539
 3798POPC   GL148697  21.344  43.186   5.792
 3798POPC   GL248698  21.043  43.004   5.843
 3798POPC   C1A48699  21.527  43.291   6.179
 3798POPC   D2A48700  21.661  43.451   6.556
 3798POPC   C3A48701  21.583  43.083   6.815
 3798POPC   C4A48702  21.381  42.901   7.159
 3798POPC   C1B48703  20.976  43.338   6.152
 3798POPC   C2B48704  21.147  43.427   6.541
 3798POPC   C3B48705  21.091  43.248   6.926
 3798POPC   C4B48706  20.885  43.059   7.257
 3799POPC   NC348707  43.756  19.717   5.389
 3799POPC   PO448708  44.414  19.904   5.383
 3799POPC   GL148709  44.081  19.935   5.744
 3799POPC   GL248710  43.685  19.932   5.847
 3799POPC   C1A48711  44.056  20.018   6.201
 3799POPC   D2A48712  44.230  19.829   6.585
 3799POPC   C3A48713  44.123  19.988   6.985
 3799POPC   C4A48714  44.152  19.816   7.415
 3799POPC   C1B48715  43.496  20.010   6.291
 3799POPC   C2B48716  43.616  19.897   6.730
 3799POPC   C3B48717  43.684  19.779   7.174
 3799POPC   C4B48718  43.695  19.623   7.626
 3800POPC   NC348719  36.300   8.308   5.066
 3800POPC   PO448720  35.840   7.915   5.370
 3800POPC   GL148721  35.960   8.138   5.768
 3800POPC   GL248722  36.314   8.234   5.795
 3800POPC   C1A48723  36.052   8.088   6.218
 3800POPC   D2A48724  36.302   8.086   6.591
 3800POPC   C3A48725  36.029   8.013   6.926
 3800POPC   C4A48726  35.927   8.252   7.257
 3800POPC   C1B48727  36.457   8.411   6.211
 3800POPC   C2B48728  36.374   8.606   6.625
 3800POPC   C3B48729  36.363   8.445   7.048
 3800POPC   C4B48730  36.406   8.395   7.506
 3801POPC   NC348731  30.590  29.432   5.427
 3801POPC   PO448732  30.958  29.951   5.365
 3801POPC   GL148733  30.791  29.839   5.746
 3801POPC   GL248734  31.032  29.996   5.960
 3801POPC   C1A48735  30.623  29.745   6.139
 3801POPC   D2A48736  30.512  29.656   6.538
 3801POPC   C3A48737  30.635  29.920   6.853
 3801POPC   C4A48738  30.756  29.753   7.217
 3801POPC   C1B48739  31.101  30.284   6.273
 3801POPC   C2B48740  31.009  30.297   6.714
 3801POPC   C3B48741  31.230  30.301   7.097
 3801POPC   C4B48742  31.090  30.273   7.520
 3802POPC   NC348743  22.585  23.982   5.535
 3802POPC   PO448744  23.182  23.649   5.663
 3802POPC   GL148745  22.962  23.719   5.978
 3802POPC   GL248746  22.784  23.430   5.912
 3802POPC   C1A48747  23.089  23.813   6.379
 3802POPC   D2A48748  23.114  24.084   6.717
 3802POPC   C3A48749  23.017  23.843   7.068
 3802POPC   C4A48750  22.795  24.079   7.346
 3802POPC   C1B48751  23.076  23.316   6.300
 3802POPC   C2B48752  23.023  23.350   6.765
 3802POPC   C3B48753  22.781  23.389   7.162
 3802POPC   C4B48754  22.768  23.288   7.617
 3803POPC   NC348755   0.446   7.217   5.560
 3803POPC   PO448756   0.906   7.623   5.259
 3803POPC   GL148757   0.690   7.683   5.694
 3803POPC   GL248758   0.354   7.600   5.871
 3803POPC   C1A48759   0.771   7.670   6.157
 3803POPC   D2A48760   0.882   7.382   6.512
 3803POPC   C3A48761   0.683   7.430   6.903
 3803POPC   C4A48762   0.726   7.326   7.331
 3803POPC   C1B48763   0.437   7.279   6.235
 3803POPC   C2B48764   0.266   7.072   6.643
 3803POPC   C3B48765   0.252   7.191   7.066
 3803POPC   C4B48766   0.279   7.609   7.215
 3804POPC   NC348767  16.541   3.969   5.320
 3804POPC   PO448768  16.834   4.480   5.391
 3804POPC   GL148769  16.780   4.339   5.833
 3804POPC   GL248770  16.790   3.995   5.800
 3804POPC   C1A48771  16.938   4.536   6.207
 3804POPC   D2A48772  17.187   4.513   6.597
 3804POPC   C3A48773  16.881   4.531   6.959
 3804POPC   C4A48774  16.750   4.270   7.297
 3804POPC   C1B48775  16.663   3.974   6.204
 3804POPC   C2B48776  16.778   4.167   6.571
 3804POPC   C3B48777  16.721   3.954   6.926
 3804POPC   C4B48778  16.628   3.754   7.327
 3805POPC   NC348779   0.143  33.603   5.319
 3805POPC   PO448780   0.707  33.937   5.527
 3805POPC   GL148781   0.416  33.740   5.789
 3805POPC   GL248782   0.166  34.017   5.796
 3805POPC   C1A48783   0.552  33.555   6.194
 3805POPC   D2A48784   0.516  33.440   6.623
 3805POPC   C3A48785   0.657  33.651   7.041
 3805POPC   C4A48786   0.595  33.753   7.505
 3805POPC   C1B48787   0.344  34.002   6.236
 3805POPC   C2B48788   0.704  33.985   6.542
 3805POPC   C3B48789   0.592  34.154   6.954
 3805POPC   C4B48790   0.258  33.972   7.207
 3806POPC   NC348791   2.409  20.983   5.520
 3806POPC   PO448792   2.744  20.403   5.359
 3806POPC   GL148793   2.772  20.517   5.802
 3806POPC   GL248794   2.529  20.741   5.946
 3806POPC   C1A48795   2.913  20.598   6.229
 3806POPC   D2A48796   2.660  20.608   6.621
 3806POPC   C3A48797   2.952  20.552   6.942
 3806POPC   C4A48798   3.012  20.265   7.309
 3806POPC   C1B48799   2.578  21.027   6.311
 3806POPC   C2B48800   2.767  21.105   6.706
 3806POPC   C3B48801   2.613  20.930   7.074
 3806POPC   C4B48802   2.543  20.533   7.224
 3807POPC   NC348803  29.636   8.343   5.245
 3807POPC   PO448804  30.135   8.088   5.580
 3807POPC   GL148805  29.943   8.275   5.899
 3807POPC   GL248806  29.641   8.305   5.756
 3807POPC   C1A48807  29.914   8.540   6.243
 3807POPC   D2A48808  30.168   8.625   6.600
 3807POPC   C3A48809  30.002   8.509   7.000
 3807POPC   C4A48810  30.050   8.106   7.274
 3807POPC   C1B48811  29.554   8.092   6.161
 3807POPC   C2B48812  29.621   8.254   6.551
 3807POPC   C3B48813  29.694   8.122   6.921
 3807POPC   C4B48814  29.543   8.105   7.294
 3808POPC   NC348815  38.137   2.170   5.618
 3808POPC   PO448816  38.575   1.844   5.247
 3808POPC   GL148817  38.648   1.818   5.713
 3808POPC   GL248818  38.707   2.148   5.856
 3808POPC   C1A48819  38.475   1.775   6.174
 3808POPC   D2A48820  38.300   1.973   6.576
 3808POPC   C3A48821  38.490   2.064   6.963
 3808POPC   C4A48822  38.469   1.817   7.304
 3808POPC   C1B48823  38.425   2.301   6.214
 3808POPC   C2B48824  38.376   2.491   6.646
 3808POPC   C3B48825  38.109   2.434   7.018
 3808POPC   C4B48826  38.248   2.252   7.406
 3809POPC   NC348827  34.325  22.477   5.532
 3809POPC   PO448828  34.610  21.978   5.173
 3809POPC   GL148829  34.677  21.906   5.667
 3809POPC   GL248830  34.659  22.228   5.805
 3809POPC   C1A48831  34.489  21.855   6.147
 3809POPC   D2A48832  34.328  21.795   6.614
 3809POPC   C3A48833  34.613  21.938   6.996
 3809POPC   C4A48834  34.671  21.968   7.489
 3809POPC   C1B48835  34.412  22.360   6.166
 3809POPC   C2B48836  34.497  22.269   6.555
 3809POPC   C3B48837  34.518  22.546   6.877
 3809POPC   C4B48838  34.542  22.384   7.256
 3810POPC   NC348839  37.824  24.363   5.286
 3810POPC   PO448840  37.588  24.922   5.622
 3810POPC   GL148841  37.602  24.474   5.721
 3810POPC   GL248842  37.301  24.261   5.682
 3810POPC   C1A48843  37.717  24.372   6.122
 3810POPC   D2A48844  37.836  24.710   6.405
 3810POPC   C3A48845  37.835  24.552   6.824
 3810POPC   C4A48846  37.626  24.694   7.190
 3810POPC   C1B48847  37.232  24.519   6.066
 3810POPC   C2B48848  37.380  24.485   6.471
 3810POPC   C3B48849  37.339  24.394   6.875
 3810POPC   C4B48850  37.329  24.275   7.266
 3811POPC   NC348851  39.500   5.990   5.400
 3811POPC   PO448852  38.920   5.624   5.216
 3811POPC   GL148853  39.119   5.658   5.698
 3811POPC   GL248854  39.203   5.984   5.802
 3811POPC   C1A48855  39.316   5.659   6.173
 3811POPC   D2A48856  39.472   5.470   6.558
 3811POPC   C3A48857  39.224   5.690   6.816
 3811POPC   C4A48858  39.238   5.840   7.198
 3811POPC   C1B48859  38.996   6.135   6.156
 3811POPC   C2B48860  39.116   6.186   6.553
 3811POPC   C3B48861  38.883   6.070   6.876
 3811POPC   C4B48862  38.828   6.095   7.293
 3812POPC   NC348863  44.381  34.777   5.656
 3812POPC   PO448864   0.051  34.560   5.395
 3812POPC   GL148865  44.798  34.459   5.769
 3812POPC   GL248866  44.865  34.787   5.894
 3812POPC   C1A48867  44.571  34.507   6.217
 3812POPC   D2A48868  44.462  34.733   6.619
 3812POPC   C3A48869  44.591  34.512   6.985
 3812POPC   C4A48870  44.540  34.522   7.428
 3812POPC   C1B48871  44.901  34.875   6.355
 3812POPC   C2B48872  44.925  34.909   6.826
 3812POPC   C3B48873  44.991  34.834   7.299
 3812POPC   C4B48874  44.824  34.799   7.764
 3813POPC   NC348875  35.521   5.639   5.580
 3813POPC   PO448876  35.134   4.956   5.544
 3813POPC   GL148877  35.263   5.259   5.798
 3813POPC   GL248878  35.531   5.013   5.903
 3813POPC   C1A48879  35.353   5.391   6.214
 3813POPC   D2A48880  35.417   5.044   6.468
 3813POPC   C3A48881  35.409   5.077   6.921
 3813POPC   C4A48882  35.215   5.159   7.331
 3813POPC   C1B48883  35.673   4.671   6.200
 3813POPC   C2B48884  35.514   4.565   6.638
 3813POPC   C3B48885  35.707   4.667   7.037
 3813POPC   C4B48886  35.640   4.904   7.427
 3814POPC   NC348887  20.379  20.568   5.459
 3814POPC   PO448888  21.037  20.561   5.409
 3814POPC   GL148889  20.874  20.699   5.835
 3814POPC   GL248890  20.539  20.887   5.863
 3814POPC   C1A48891  21.032  20.805   6.279
 3814POPC   D2A48892  20.899  20.929   6.726
 3814POPC   C3A48893  20.891  20.621   7.076
 3814POPC   C4A48894  20.757  20.591   7.507
 3814POPC   C1B48895  20.514  20.697   6.267
 3814POPC   C2B48896  20.546  20.495   6.657
 3814POPC   C3B48897  20.405  20.465   7.070
 3814POPC   C4B48898  20.437  20.876   7.223
 3815POPC   NC348899   6.528   3.105   5.484
 3815POPC   PO448900   6.327   2.470   5.560
 3815POPC   GL148901   6.684   2.453   5.822
 3815POPC   GL248902   6.722   2.816   5.867
 3815POPC   C1A48903   6.676   2.480   6.279
 3815POPC   D2A48904   6.747   2.288   6.669
 3815POPC   C3A48905   6.633   2.572   6.969
 3815POPC   C4A48906   6.589   2.453   7.359
 3815POPC   C1B48907   6.992   2.881   6.235
 3815POPC   C2B48908   6.874   2.987   6.677
 3815POPC   C3B48909   6.798   3.121   7.099
 3815POPC   C4B48910   6.724   2.919   7.448
 3816POPC   NC348911   7.599  28.215   5.310
 3816POPC   PO448912   6.943  28.026   5.258
 3816POPC   GL148913   7.014  28.305   5.676
 3816POPC   GL248914   7.319  28.548   5.725
 3816POPC   C1A48915   7.086  28.410   6.154
 3816POPC   D2A48916   7.416  28.369   6.474
 3816POPC   C3A48917   7.268  28.353   6.882
 3816POPC   C4A48918   7.526  28.249   7.261
 3816POPC   C1B48919   7.593  28.682   6.119
 3816POPC   C2B48920   7.736  28.784   6.571
 3816POPC   C3B48921   7.768  28.659   7.046
 3816POPC   C4B48922   7.666  28.711   7.536
 3817POPC   NC348923  13.548  36.014   5.123
 3817POPC   PO448924  13.984  36.299   5.525
 3817POPC   GL148925  13.723  36.186   5.833
 3817POPC   GL248926  13.370  36.136   5.731
 3817POPC   C1A48927  13.825  36.223   6.252
 3817POPC   D2A48928  13.725  36.002   6.623
 3817POPC   C3A48929  13.764  36.297   6.954
 3817POPC   C4A48930  13.568  36.389   7.340
 3817POPC   C1B48931  13.300  36.004   6.187
 3817POPC   C2B48932  13.068  36.084   6.592
 3817POPC   C3B48933  13.261  36.209   6.947
 3817POPC   C4B48934  13.527  35.878   7.077
 3818POPC   NC348935  15.432   1.531   5.320
 3818POPC   PO448936  14.918   1.182   5.224
 3818POPC   GL148937  15.119   1.254   5.632
 3818POPC   GL248938  15.034   1.622   5.681
 3818POPC   C1A48939  15.283   1.207   6.067
 3818POPC   D2A48940  15.283   0.991   6.478
 3818POPC   C3A48941  15.111   1.199   6.844
 3818POPC   C4A48942  15.415   1.151   7.202
 3818POPC   C1B48943  14.875   1.518   6.127
 3818POPC   C2B48944  14.753   1.564   6.599
 3818POPC   C3B48945  14.699   1.531   7.071
 3818POPC   C4B48946  15.048   1.480   7.331
 3819POPC   NC348947  19.310   2.455   5.172
 3819POPC   PO448948  19.150   2.714   5.749
 3819POPC   GL148949  18.950   2.955   6.033
 3819POPC   GL248950  19.177   3.229   6.090
 3819POPC   C1A48951  18.733   2.822   6.347
 3819POPC   D2A48952  18.912   2.534   6.585
 3819POPC   C3A48953  18.905   2.716   6.973
 3819POPC   C4A48954  18.886   2.515   7.378
 3819POPC   C1B48955  19.322   2.892   6.382
 3819POPC   C2B48956  19.408   2.770   6.793
 3819POPC   C3B48957  19.338   2.515   7.135
 3819POPC   C4B48958  19.359   2.501   7.581
 3820POPC   NC348959  44.741   3.806   5.512
 3820POPC   PO448960  44.474   3.129   5.495
 3820POPC   GL148961  44.536   3.450   5.805
 3820POPC   GL248962  44.881   3.511   5.916
 3820POPC   C1A48963  44.376   3.648   6.186
 3820POPC   D2A48964  44.379   3.464   6.579
 3820POPC   C3A48965  44.421   3.622   6.969
 3820POPC   C4A48966  44.382   3.216   7.168
 3820POPC   C1B48967  44.829   3.844   6.196
 3820POPC   C2B48968  44.762   3.860   6.623
 3820POPC   C3B48969  44.835   3.949   7.038
 3820POPC   C4B48970  44.582   3.879   7.398
 3821POPC   NC348971   3.595  44.087   5.682
 3821POPC   PO448972   3.124  43.709   5.287
 3821POPC   GL148973   3.360  43.608   5.703
 3821POPC   GL248974   3.721  43.529   5.704
 3821POPC   C1A48975   3.463  43.616   6.174
 3821POPC   D2A48976   3.411  43.756   6.640
 3821POPC   C3A48977   3.687  44.059   6.816
 3821POPC   C4A48978   3.838  44.121   7.227
 3821POPC   C1B48979   3.968  43.550   6.087
 3821POPC   C2B48980   3.974  43.698   6.527
 3821POPC   C3B48981   3.905  43.631   6.963
 3821POPC   C4B48982   3.516  43.694   7.191
 3822POPC   NC348983  10.722  19.048   5.429
 3822POPC   PO448984  10.080  19.150   5.227
 3822POPC   GL148985  10.256  19.023   5.735
 3822POPC   GL248986  10.603  18.918   5.890
 3822POPC   C1A48987  10.193  18.831   6.157
 3822POPC   D2A48988  10.323  18.933   6.581
 3822POPC   C3A48989  10.326  19.162   6.954
 3822POPC   C4A48990  10.352  18.801   7.198
 3822POPC   C1B48991  10.570  19.221   6.215
 3822POPC   C2B48992  10.710  19.283   6.628
 3822POPC   C3B48993  10.767  18.917   6.902
 3822POPC   C4B48994  10.854  18.866   7.308
 3823POPC   NC348995  25.427  11.379   5.150
 3823POPC   PO448996  25.031  10.924   5.363
 3823POPC   GL148997  25.215  11.194   5.662
 3823POPC   GL248998  24.971  11.090   5.884
 3823POPC   C1A48999  25.353  11.375   6.078
 3823POPC   D2A49000  25.244  11.424   6.508
 3823POPC   C3A49001  25.509  11.363   6.860
 3823POPC   C4A49002  25.371  11.463   7.284
 3823POPC   C1B49003  25.002  11.006   6.313
 3823POPC   C2B49004  25.131  10.943   6.718
 3823POPC   C3B49005  25.002  11.281   6.944
 3823POPC   C4B49006  24.909  11.241   7.326
 3824POPC   NC349007  28.762  27.868   5.198
 3824POPC   PO449008  28.964  27.249   5.299
 3824POPC   GL149009  28.956  27.395   5.740
 3824POPC   GL249010  28.816  27.739   5.714
 3824POPC   C1A49011  29.086  27.447   6.176
 3824POPC   D2A49012  29.317  27.411   6.553
 3824POPC   C3A49013  29.114  27.525   6.914
 3824POPC   C4A49014  28.907  27.532   7.281
 3824POPC   C1B49015  28.888  27.939   6.122
 3824POPC   C2B49016  29.117  27.888   6.515
 3824POPC   C3B49017  28.941  28.004   6.895
 3824POPC   C4B49018  28.622  27.935   7.211
 3825POPC   NC349019  14.557  12.496   5.328
 3825POPC   PO449020  14.224  13.031   5.463
 3825POPC   GL149021  14.243  12.723   5.763
 3825POPC   GL249022  14.555  12.707   5.825
 3825POPC   C1A49023  14.164  12.767   6.221
 3825POPC   D2A49024  14.256  12.556   6.644
 3825POPC   C3A49025  14.339  12.810   7.026
 3825POPC   C4A49026  14.200  12.835   7.441
 3825POPC   C1B49027  14.705  12.826   6.241
 3825POPC   C2B49028  14.664  12.982   6.662
 3825POPC   C3B49029  14.869  13.046   7.081
 3825POPC   C4B49030  14.666  12.997   7.523
 3826POPC   NC349031  27.196   4.699   5.424
 3826POPC   PO449032  26.680   5.244   5.396
 3826POPC   GL149033  26.925   5.294   5.757
 3826POPC   GL249034  26.989   4.962   5.847
 3826POPC   C1A49035  26.888   5.412   6.183
 3826POPC   D2A49036  27.002   5.180   6.523
 3826POPC   C3A49037  26.771   5.127   6.859
 3826POPC   C4A49038  26.833   5.502   7.039
 3826POPC   C1B49039  26.782   4.832   6.234
 3826POPC   C2B49040  26.986   4.674   6.630
 3826POPC   C3B49041  27.215   4.932   6.944
 3826POPC   C4B49042  27.005   5.074   7.315
 3827POPC   NC349043  13.287  21.052   5.509
 3827POPC   PO449044  12.720  20.635   5.305
 3827POPC   GL149045  12.867  20.703   5.734
 3827POPC   GL249046  12.666  20.434   5.851
 3827POPC   C1A49047  12.916  20.671   6.218
 3827POPC   D2A49048  13.048  20.885   6.547
 3827POPC   C3A49049  12.791  20.750   6.870
 3827POPC   C4A49050  12.943  20.517   7.256
 3827POPC   C1B49051  13.040  20.219   6.034
 3827POPC   C2B49052  13.102  20.265   6.481
 3827POPC   C3B49053  12.810  20.263   6.806
 3827POPC   C4B49054  12.451  20.466   7.128
 3828POPC   NC349055  44.767  38.677   5.724
 3828POPC   PO449056  44.733  39.267   5.282
 3828POPC   GL149057  44.457  39.163   5.729
 3828POPC   GL249058  44.536  39.480   5.925
 3828POPC   C1A49059  44.467  39.057   6.198
 3828POPC   D2A49060  44.379  39.369   6.534
 3828POPC   C3A49061  44.522  39.158   6.887
 3828POPC   C4A49062  44.796  39.061   7.211
 3828POPC   C1B49063  44.831  39.397   6.304
 3828POPC   C2B49064   0.114  39.613   6.573
 3828POPC   C3B49065   0.012  39.595   7.006
 3828POPC   C4B49066   0.242  39.452   7.331
 3829POPC   NC349067  44.230   6.240   5.582
 3829POPC   PO449068  44.767   5.960   5.381
 3829POPC   GL149069  44.601   5.941   5.780
 3829POPC   GL249070  44.570   5.583   5.793
 3829POPC   C1A49071  44.552   6.211   6.161
 3829POPC   D2A49072  44.726   6.135   6.537
 3829POPC   C3A49073  44.770   5.977   6.915
 3829POPC   C4A49074  44.536   5.865   7.264
 3829POPC   C1B49075  44.748   5.704   6.209
 3829POPC   C2B49076  44.656   5.553   6.635
 3829POPC   C3B49077  44.829   5.480   7.059
 3829POPC   C4B49078  44.820   5.559   7.530
 3830POPC   NC349079  17.343  23.952   5.327
 3830POPC   PO449080  17.908  23.606   5.281
 3830POPC   GL149081  17.630  23.587   5.663
 3830POPC   GL249082  17.453  23.856   5.824
 3830POPC   C1A49083  17.756  23.568   6.118
 3830POPC   D2A49084  17.822  23.810   6.506
 3830POPC   C3A49085  17.506  23.655   6.790
 3830POPC   C4A49086  17.348  23.603   7.213
 3830POPC   C1B49087  17.339  23.835   6.297
 3830POPC   C2B49088  17.113  23.969   6.710
 3830POPC   C3B49089  17.227  24.104   7.166
 3830POPC   C4B49090  17.195  23.968   7.614
 3831POPC   NC349091  37.136  11.733   5.106
 3831POPC   PO449092  36.718  12.135   5.461
 3831POPC   GL149093  36.881  12.088   5.865
 3831POPC   GL249094  37.222  12.207   5.848
 3831POPC   C1A49095  36.854  11.806   6.223
 3831POPC   D2A49096  36.943  11.782   6.670
 3831POPC   C3A49097  36.914  12.168   6.889
 3831POPC   C4A49098  36.704  12.005   7.214
 3831POPC   C1B49099  37.127  12.237   6.298
 3831POPC   C2B49100  37.328  12.401   6.646
 3831POPC   C3B49101  37.294  12.488   7.080
 3831POPC   C4B49102  37.041  12.333   7.413
 3832POPC   NC349103  37.177  14.853   5.554
 3832POPC   PO449104  37.046  15.574   5.480
 3832POPC   GL149105  36.773  15.396   5.791
 3832POPC   GL249106  36.732  15.039   5.711
 3832POPC   C1A49107  36.774  15.467   6.256
 3832POPC   D2A49108  36.951  15.582   6.665
 3832POPC   C3A49109  37.138  15.247   6.922
 3832POPC   C4A49110  36.965  15.133   7.342
 3832POPC   C1B49111  36.911  14.999   6.116
 3832POPC   C2B49112  36.821  14.982   6.538
 3832POPC   C3B49113  36.667  15.041   6.927
 3832POPC   C4B49114  36.543  14.848   7.299
 3833POPC   NC349115  41.929  38.513   5.361
 3833POPC   PO449116  41.310  38.728   5.636
 3833POPC   GL149117  41.712  38.649   5.858
 3833POPC   GL249118  41.869  38.330   5.864
 3833POPC   C1A49119  41.811  38.609   6.303
 3833POPC   D2A49120  41.457  38.514   6.576
 3833POPC   C3A49121  41.576  38.490   7.001
 3833POPC   C4A49122  41.268  38.537   7.274
 3833POPC   C1B49123  41.640  38.152   6.212
 3833POPC   C2B49124  41.786  38.125   6.651
 3833POPC   C3B49125  41.888  38.082   7.089
 3833POPC   C4B49126  41.804  38.121   7.573
 3834POPC   NC349127  38.136   7.550   5.455
 3834POPC   PO449128  38.675   7.179   5.451
 3834POPC   GL149129  38.421   7.321   5.805
 3834POPC   GL249130  38.486   7.613   5.983
 3834POPC   C1A49131  38.344   7.213   6.243
 3834POPC   D2A49132  38.569   7.007   6.577
 3834POPC   C3A49133  38.400   6.983   6.973
 3834POPC   C4A49134  38.721   7.017   7.266
 3834POPC   C1B49135  38.310   7.777   6.348
 3834POPC   C2B49136  38.334   7.509   6.687
 3834POPC   C3B49137  38.622   7.442   6.983
 3834POPC   C4B49138  38.627   7.685   7.336
 3835POPC   NC349139   9.033  30.931   5.429
 3835POPC   PO449140   8.782  30.245   5.374
 3835POPC   GL149141   8.895  30.507   5.784
 3835POPC   GL249142   9.123  30.774   5.888
 3835POPC   C1A49143   8.945  30.523   6.290
 3835POPC   D2A49144   8.994  30.367   6.761
 3835POPC   C3A49145   8.811  30.558   7.170
 3835POPC   C4A49146   8.443  30.790   7.371
 3835POPC   C1B49147   9.159  30.982   6.285
 3835POPC   C2B49148   9.277  30.790   6.672
 3835POPC   C3B49149   9.247  30.860   7.107
 3835POPC   C4B49150   9.255  31.289   7.248
 3836POPC   NC349151   0.182  23.770   5.282
 3836POPC   PO449152   0.771  23.807   5.473
 3836POPC   GL149153   0.515  23.697   5.833
 3836POPC   GL249154   0.247  23.914   5.769
 3836POPC   C1A49155   0.387  23.516   6.271
 3836POPC   D2A49156   0.558  23.424   6.709
 3836POPC   C3A49157   0.345  23.544   7.110
 3836POPC   C4A49158   0.489  23.453   7.580
 3836POPC   C1B49159   0.342  24.020   6.196
 3836POPC   C2B49160   0.269  23.887   6.653
 3836POPC   C3B49161   0.273  24.068   7.069
 3836POPC   C4B49162   0.130  23.886   7.425
 3837POPC   NC349163  13.210  39.614   5.407
 3837POPC   PO449164  12.609  39.246   5.357
 3837POPC   GL149165  12.828  39.405   5.689
 3837POPC   GL249166  12.659  39.700   5.799
 3837POPC   C1A49167  13.002  39.292   6.052
 3837POPC   D2A49168  12.957  39.158   6.461
 3837POPC   C3A49169  13.093  39.264   6.860
 3837POPC   C4A49170  13.070  39.223   7.291
 3837POPC   C1B49171  12.631  39.602   6.260
 3837POPC   C2B49172  12.637  39.472   6.712
 3837POPC   C3B49173  12.631  39.556   7.145
 3837POPC   C4B49174  12.283  39.626   7.442
 3838POPC   NC349175  37.134   8.497   5.460
 3838POPC   PO449176  36.982   9.193   5.445
 3838POPC   GL149177  37.139   9.054   5.836
 3838POPC   GL249178  36.810   8.995   5.961
 3838POPC   C1A49179  37.174   8.854   6.269
 3838POPC   D2A49180  36.853   8.661   6.525
 3838POPC   C3A49181  36.734   8.803   6.935
 3838POPC   C4A49182  37.091   8.915   7.083
 3838POPC   C1B49183  36.498   8.921   6.229
 3838POPC   C2B49184  36.548   9.119   6.579
 3838POPC   C3B49185  36.661   9.316   6.928
 3838POPC   C4B49186  36.765   9.194   7.330
 3839POPC   NC349187  12.222  39.509   5.292
 3839POPC   PO449188  12.123  40.157   5.487
 3839POPC   GL149189  12.170  40.110   5.902
 3839POPC   GL249190  12.191  39.763   5.995
 3839POPC   C1A49191  12.317  40.210   6.300
 3839POPC   D2A49192  12.429  39.922   6.628
 3839POPC   C3A49193  12.246  39.971   7.034
 3839POPC   C4A49194  11.956  40.269   7.182
 3839POPC   C1B49195  11.958  39.866   6.342
 3839POPC   C2B49196  11.807  39.777   6.690
 3839POPC   C3B49197  11.725  39.787   7.077
 3839POPC   C4B49198  11.683  39.480   7.357
 3840POPC   NC349199  31.625  19.168   5.294
 3840POPC   PO449200  32.255  19.325   5.350
 3840POPC   GL149201  31.953  19.245   5.693
 3840POPC   GL249202  31.796  18.900   5.700
 3840POPC   C1A49203  31.693  19.227   6.103
 3840POPC   D2A49204  31.434  19.440   6.433
 3840POPC   C3A49205  31.407  19.227   6.849
 3840POPC   C4A49206  31.373  19.466   7.216
 3840POPC   C1B49207  31.688  18.666   6.073
 3840POPC   C2B49208  31.582  18.481   6.469
 3840POPC   C3B49209  31.739  18.609   6.862
 3840POPC   C4B49210  31.644  18.772   7.241
 3841POPC   NC349211   3.435  18.727   5.393
 3841POPC   PO449212   3.974  18.225   5.394
 3841POPC   GL149213   3.793  18.256   5.797
 3841POPC   GL249214   3.439  18.359   5.802
 3841POPC   C1A49215   3.737  18.382   6.232
 3841POPC   D2A49216   3.663  18.554   6.636
 3841POPC   C3A49217   3.913  18.412   6.966
 3841POPC   C4A49218   3.733  18.116   7.191
 3841POPC   C1B49219   3.240  18.243   6.230
 3841POPC   C2B49220   3.149  18.407   6.681
 3841POPC   C3B49221   3.200  18.307   7.169
 3841POPC   C4B49222   3.110  18.283   7.647
 3842POPC   NC349223  36.584  31.829   5.578
 3842POPC   PO449224  36.963  31.395   5.244
 3842POPC   GL149225  37.042  31.403   5.742
 3842POPC   GL249226  36.968  31.731   5.896
 3842POPC   C1A49227  36.944  31.283   6.187
 3842POPC   D2A49228  37.082  31.354   6.638
 3842POPC   C3A49229  36.808  31.272   7.022
 3842POPC   C4A49230  36.657  31.309   7.464
 3842POPC   C1B49231  36.961  31.783   6.339
 3842POPC   C2B49232  37.223  31.842   6.690
 3842POPC   C3B49233  36.869  31.775   6.892
 3842POPC   C4B49234  36.756  31.790   7.263
 3843POPC   NC349235  16.988  43.775   5.019
 3843POPC   PO449236  16.519  43.683   5.482
 3843POPC   GL149237  16.665  43.841   5.842
 3843POPC   GL249238  16.556  44.195   5.840
 3843POPC   C1A49239  16.826  43.678   6.238
 3843POPC   D2A49240  16.927  43.841   6.645
 3843POPC   C3A49241  16.687  43.759   7.028
 3843POPC   C4A49242  16.804  43.875   7.455
 3843POPC   C1B49243  16.504  44.079   6.270
 3843POPC   C2B49244  16.516  44.142   6.715
 3843POPC   C3B49245  16.462  44.206   7.178
 3843POPC   C4B49246  16.829  44.387   7.400
 3844POPC   NC349247  44.116  21.731   5.502
 3844POPC   PO449248  43.753  21.211   5.174
 3844POPC   GL149249  43.699  21.355   5.663
 3844POPC   GL249250  43.670  21.725   5.745
 3844POPC   C1A49251  43.842  21.376   6.161
 3844POPC   D2A49252  43.744  21.322   6.642
 3844POPC   C3A49253  44.063  21.127   6.943
 3844POPC   C4A49254  44.196  21.215   7.375
 3844POPC   C1B49255  43.596  21.806   6.213
 3844POPC   C2B49256  43.926  21.798   6.571
 3844POPC   C3B49257  43.992  21.660   7.004
 3844POPC   C4B49258  43.688  21.398   7.184
 3845POPC   NC349259  42.877  28.768   5.512
 3845POPC   PO449260  43.231  28.226   5.359
 3845POPC   GL149261  43.155  28.225   5.791
 3845POPC   GL249262  43.184  28.546   5.858
 3845POPC   C1A49263  43.324  28.089   6.196
 3845POPC   D2A49264  43.160  28.095   6.606
 3845POPC   C3A49265  43.335  28.312   6.919
 3845POPC   C4A49266  43.167  28.483   7.266
 3845POPC   C1B49267  43.014  28.516   6.297
 3845POPC   C2B49268  42.820  28.488   6.742
 3845POPC   C3B49269  42.728  28.726   7.142
 3845POPC   C4B49270  42.827  28.627   7.633
 3846POPC   NC349271   4.738  41.369   5.155
 3846POPC   PO449272   5.307  41.642   5.367
 3846POPC   GL149273   5.014  41.767   5.679
 3846POPC   GL249274   5.279  41.632   5.884
 3846POPC   C1A49275   4.829  41.634   6.101
 3846POPC   D2A49276   5.080  41.551   6.501
 3846POPC   C3A49277   4.864  41.617   6.907
 3846POPC   C4A49278   4.706  41.462   7.306
 3846POPC   C1B49279   5.282  41.909   6.174
 3846POPC   C2B49280   5.411  41.988   6.570
 3846POPC   C3B49281   5.218  41.997   6.940
 3846POPC   C4B49282   5.092  41.853   7.328
 3847POPC   NC349283  32.230  16.665   5.318
 3847POPC   PO449284  32.471  17.193   5.456
 3847POPC   GL149285  32.394  16.896   5.798
 3847POPC   GL249286  32.089  16.683   5.805
 3847POPC   C1A49287  32.351  16.796   6.243
 3847POPC   D2A49288  32.600  16.614   6.579
 3847POPC   C3A49289  32.461  16.735   7.007
 3847POPC   C4A49290  32.332  16.564   7.411
 3847POPC   C1B49291  31.938  16.410   6.137
 3847POPC   C2B49292  32.078  16.453   6.568
 3847POPC   C3B49293  31.860  16.420   6.949
 3847POPC   C4B49294  31.844  16.426   7.365
 3848POPC   NC349295   5.271  27.043   5.511
 3848POPC   PO449296   4.831  26.533   5.534
 3848POPC   GL149297   4.963  26.821   5.862
 3848POPC   GL249298   4.869  27.195   5.790
 3848POPC   C1A49299   5.282  26.723   6.187
 3848POPC   D2A49300   5.523  26.613   6.565
 3848POPC   C3A49301   5.367  26.490   6.983
 3848POPC   C4A49302   5.237  26.645   7.397
 3848POPC   C1B49303   5.095  27.194   6.197
 3848POPC   C2B49304   4.980  26.947   6.571
 3848POPC   C3B49305   4.853  27.085   6.979
 3848POPC   C4B49306   4.869  26.987   7.444
 3849POPC   NC349307  31.177  36.523   5.586
 3849POPC   PO449308  30.869  35.864   5.662
 3849POPC   GL149309  30.549  36.092   5.912
 3849POPC   GL249310  30.334  36.360   5.738
 3849POPC   C1A49311  30.448  35.961   6.337
 3849POPC   D2A49312  30.793  35.779   6.605
 3849POPC   C3A49313  30.907  36.128   6.835
 3849POPC   C4A49314  30.948  36.252   7.248
 3849POPC   C1B49315  30.439  36.523   6.168
 3849POPC   C2B49316  30.614  36.453   6.552
 3849POPC   C3B49317  30.483  36.373   6.950
 3849POPC   C4B49318  30.468  36.056   7.231
 3850POPC   NC349319  44.494  20.193   5.036
 3850POPC   PO449320  44.900  19.714   5.390
 3850POPC   GL149321  44.653  19.709   5.810
 3850POPC   GL249322  44.897  19.528   5.919
 3850POPC   C1A49323  44.586  19.961   6.190
 3850POPC   D2A49324  44.848  20.105   6.529
 3850POPC   C3A49325  44.649  20.146   6.940
 3850POPC   C4A49326  44.671  19.920   7.330
 3850POPC   C1B49327  44.733  19.504   6.339
 3850POPC   C2B49328  44.712  19.658   6.767
 3850POPC   C3B49329  44.960  19.506   7.127
 3850POPC   C4B49330  44.982  19.512   7.566
 3851POPC   NC349331  10.849  18.154   5.370
 3851POPC   PO449332  10.401  18.604   5.525
 3851POPC   GL149333  10.602  18.319   5.815
 3851POPC   GL249334  10.475  18.001   5.703
 3851POPC   C1A49335  10.738  18.242   6.274
 3851POPC   D2A49336  10.611  18.490   6.662
 3851POPC   C3A49337  10.682  18.404   7.105
 3851POPC   C4A49338  10.362  18.341   7.434
 3851POPC   C1B49339  10.267  18.088   6.134
 3851POPC   C2B49340  10.346  18.060   6.565
 3851POPC   C3B49341  10.261  18.157   6.946
 3851POPC   C4B49342  10.258  17.886   7.271
 3852POPC   NC349343  19.939  34.289   5.109
 3852POPC   PO449344  19.704  34.822   5.525
 3852POPC   GL149345  19.871  34.629   5.854
 3852POPC   GL249346  19.545  34.473   5.888
 3852POPC   C1A49347  20.090  34.770   6.229
 3852POPC   D2A49348  20.334  34.923   6.601
 3852POPC   C3A49349  20.029  34.954   6.921
 3852POPC   C4A49350  19.849  34.602   7.180
 3852POPC   C1B49351  19.596  34.582   6.303
 3852POPC   C2B49352  19.860  34.542   6.646
 3852POPC   C3B49353  19.923  34.183   6.867
 3852POPC   C4B49354  19.697  34.071   7.231
 3853POPC   NC349355  26.272   7.831   5.476
 3853POPC   PO449356  25.922   8.302   5.143
 3853POPC   GL149357  25.932   8.307   5.640
 3853POPC   GL249358  26.250   8.301   5.722
 3853POPC   C1A49359  25.885   8.370   6.115
 3853POPC   D2A49360  25.818   8.170   6.527
 3853POPC   C3A49361  25.902   8.321   6.934
 3853POPC   C4A49362  25.791   7.997   7.202
 3853POPC   C1B49363  26.347   8.566   6.067
 3853POPC   C2B49364  26.229   8.499   6.515
 3853POPC   C3B49365  26.421   8.304   6.886
 3853POPC   C4B49366  26.287   8.183   7.295
 3854POPC   NC349367   0.120  35.334   5.481
 3854POPC   PO449368  44.572  35.178   5.750
 3854POPC   GL149369  44.640  35.435   6.043
 3854POPC   GL249370  44.777  35.680   5.849
 3854POPC   C1A49371  44.677  35.330   6.462
 3854POPC   D2A49372  44.636  35.346   6.902
 3854POPC   C3A49373  44.494  35.002   7.117
 3854POPC   C4A49374  44.676  35.190   7.480
 3854POPC   C1B49375   0.007  35.741   6.241
 3854POPC   C2B49376  44.950  35.709   6.673
 3854POPC   C3B49377  44.972  35.740   7.095
 3854POPC   C4B49378   0.118  35.426   7.327
 3855POPC   NC349379   5.322  43.822   5.235
 3855POPC   PO449380   4.737  44.086   5.503
 3855POPC   GL149381   5.088  43.912   5.745
 3855POPC   GL249382   5.455  43.874   5.705
 3855POPC   C1A49383   5.098  43.757   6.166
 3855POPC   D2A49384   5.007  43.642   6.602
 3855POPC   C3A49385   4.774  43.882   6.909
 3855POPC   C4A49386   4.879  43.838   7.326
 3855POPC   C1B49387   5.517  44.067   6.077
 3855POPC   C2B49388   5.417  44.000   6.490
 3855POPC   C3B49389   5.276  43.996   6.892
 3855POPC   C4B49390   5.392  43.868   7.273
 3856POPC   NC349391  26.901  16.093   5.245
 3856POPC   PO449392  26.340  15.733   5.395
 3856POPC   GL149393  26.654  15.881   5.723
 3856POPC   GL249394  26.972  16.105   5.770
 3856POPC   C1A49395  26.758  15.885   6.182
 3856POPC   D2A49396  26.708  16.147   6.545
 3856POPC   C3A49397  26.883  15.990   6.924
 3856POPC   C4A49398  26.987  15.682   7.226
 3856POPC   C1B49399  27.037  16.357   6.179
 3856POPC   C2B49400  27.181  16.326   6.641
 3856POPC   C3B49401  27.079  16.440   7.104
 3856POPC   C4B49402  27.152  16.468   7.589
 3857POPC   NC349403  23.998  19.893   5.499
 3857POPC   PO449404  23.344  19.586   5.453
 3857POPC   GL149405  23.596  19.683   5.845
 3857POPC   GL249406  23.813  19.982   5.950
 3857POPC   C1A49407  23.468  19.831   6.268
 3857POPC   D2A49408  23.706  19.977   6.644
 3857POPC   C3A49409  23.689  19.800   7.063
 3857POPC   C4A49410  23.978  19.466   7.254
 3857POPC   C1B49411  23.738  20.315   6.234
 3857POPC   C2B49412  23.611  20.471   6.639
 3857POPC   C3B49413  23.822  20.343   7.027
 3857POPC   C4B49414  23.620  20.351   7.433
 3858POPC   NC349415  31.176  12.082   5.381
 3858POPC   PO449416  31.838  12.257   5.405
 3858POPC   GL149417  31.609  12.137   5.741
 3858POPC   GL249418  31.498  11.790   5.697
 3858POPC   C1A49419  31.279  12.125   6.060
 3858POPC   D2A49420  31.156  11.836   6.340
 3858POPC   C3A49421  31.160  11.905   6.776
 3858POPC   C4A49422  31.165  11.847   7.242
 3858POPC   C1B49423  31.669  11.811   6.136
 3858POPC   C2B49424  31.608  12.013   6.552
 3858POPC   C3B49425  31.597  11.794   6.977
 3858POPC   C4B49426  31.574  12.182   7.234
 3859POPC   NC349427  25.961   1.844   5.346
 3859POPC   PO449428  26.423   2.403   5.462
 3859POPC   GL149429  26.383   2.244   5.880
 3859POPC   GL249430  26.165   1.948   5.853
 3859POPC   C1A49431  26.173   2.256   6.280
 3859POPC   D2A49432  25.801   2.283   6.531
 3859POPC   C3A49433  25.961   2.247   6.922
 3859POPC   C4A49434  25.852   2.265   7.307
 3859POPC   C1B49435  26.206   1.748   6.291
 3859POPC   C2B49436  26.301   1.891   6.736
 3859POPC   C3B49437  26.151   1.837   7.176
 3859POPC   C4B49438  26.090   1.468   7.465
 3860POPC   NC349439  26.951  39.584   5.272
 3860POPC   PO449440  26.592  40.163   5.127
 3860POPC   GL149441  26.745  40.038   5.579
 3860POPC   GL249442  26.495  39.863   5.786
 3860POPC   C1A49443  26.959  39.936   6.017
 3860POPC   D2A49444  26.687  39.802   6.416
 3860POPC   C3A49445  26.805  39.844   6.886
 3860POPC   C4A49446  27.231  39.935   7.094
 3860POPC   C1B49447  26.557  40.214   6.094
 3860POPC   C2B49448  26.892  40.347   6.405
 3860POPC   C3B49449  26.996  40.320   6.846
 3860POPC   C4B49450  26.885  40.249   7.292
 3861POPC   NC349451   2.902  12.300   5.418
 3861POPC   PO449452   2.330  12.032   5.501
 3861POPC   GL149453   2.492  12.292   5.792
 3861POPC   GL249454   2.751  12.087   5.847
 3861POPC   C1A49455   2.441  12.303   6.241
 3861POPC   D2A49456   2.725  12.456   6.571
 3861POPC   C3A49457   2.530  12.351   6.932
 3861POPC   C4A49458   2.471  12.058   7.252
 3861POPC   C1B49459   2.970  12.198   6.194
 3861POPC   C2B49460   2.938  11.977   6.555
 3861POPC   C3B49461   2.878  11.942   6.970
 3861POPC   C4B49462   2.933  12.324   7.260
 3862POPC   NC349463  37.388  30.221   5.522
 3862POPC   PO449464  37.010  29.695   5.309
 3862POPC   GL149465  36.815  29.885   5.707
 3862POPC   GL249466  36.815  30.219   5.806
 3862POPC   C1A49467  36.904  29.885   6.164
 3862POPC   D2A49468  36.808  29.715   6.536
 3862POPC   C3A49469  36.850  29.905   6.929
 3862POPC   C4A49470  36.527  29.746   7.165
 3862POPC   C1B49471  37.061  30.365   6.155
 3862POPC   C2B49472  37.186  30.222   6.565
 3862POPC   C3B49473  37.125  30.413   6.940
 3862POPC   C4B49474  36.811  30.333   7.216
 3863POPC   NC349475  11.341   6.407   5.281
 3863POPC   PO449476  11.553   7.013   5.210
 3863POPC   GL149477  11.604   6.770   5.599
 3863POPC   GL249478  11.275   6.656   5.716
 3863POPC   C1A49479  11.598   6.890   6.068
 3863POPC   D2A49480  11.583   6.668   6.464
 3863POPC   C3A49481  11.349   6.702   6.854
 3863POPC   C4A49482  11.494   6.866   7.228
 3863POPC   C1B49483  11.250   6.466   6.120
 3863POPC   C2B49484  11.182   6.336   6.522
 3863POPC   C3B49485  10.957   6.351   6.886
 3863POPC   C4B49486  11.086   6.214   7.262
 3864POPC   NC349487  30.432  11.624   5.620
 3864POPC   PO449488  30.714  11.113   5.221
 3864POPC   GL149489  30.707  11.172   5.674
 3864POPC   GL249490  30.952  11.443   5.727
 3864POPC   C1A49491  30.485  11.095   6.096
 3864POPC   D2A49492  30.631  11.033   6.505
 3864POPC   C3A49493  30.508  11.235   6.869
 3864POPC   C4A49494  30.466  11.149   7.295
 3864POPC   C1B49495  30.815  11.484   6.164
 3864POPC   C2B49496  30.985  11.403   6.564
 3864POPC   C3B49497  30.923  11.502   6.971
 3864POPC   C4B49498  30.883  11.416   7.397
 3865POPC   NC349499  17.624  37.252   5.563
 3865POPC   PO449500  17.309  36.779   5.127
 3865POPC   GL149501  17.436  36.740   5.586
 3865POPC   GL249502  17.807  36.709   5.538
 3865POPC   C1A49503  17.370  36.868   6.056
 3865POPC   D2A49504  17.261  36.732   6.511
 3865POPC   C3A49505  17.353  36.927   6.882
 3865POPC   C4A49506  17.256  37.077   7.283
 3865POPC   C1B49507  17.836  36.663   5.984
 3865POPC   C2B49508  17.761  36.607   6.421
 3865POPC   C3B49509  17.749  36.570   6.858
 3865POPC   C4B49510  17.746  36.871   7.205
 3866POPC   NC349511   0.366  42.967   5.072
 3866POPC   PO449512   0.269  43.464   5.576
 3866POPC   GL149513   0.460  43.227   5.904
 3866POPC   GL249514   0.531  42.863   5.884
 3866POPC   C1A49515   0.459  43.325   6.309
 3866POPC   D2A49516   0.207  43.243   6.652
 3866POPC   C3A49517   0.486  43.154   6.985
 3866POPC   C4A49518   0.919  43.283   7.068
 3866POPC   C1B49519   0.175  42.900   6.204
 3866POPC   C2B49520  44.881  42.860   6.569
 3866POPC   C3B49521  44.986  42.922   7.003
 3866POPC   C4B49522   0.275  42.840   7.336
 3867POPC   NC349523  35.204  35.928   5.538
 3867POPC   PO449524  35.285  35.280   5.260
 3867POPC   GL149525  35.193  35.178   5.690
 3867POPC   GL249526  35.325  35.486   5.832
 3867POPC   C1A49527  35.252  35.080   6.143
 3867POPC   D2A49528  35.636  35.087   6.446
 3867POPC   C3A49529  35.563  35.039   6.867
 3867POPC   C4A49530  35.209  35.049   7.138
 3867POPC   C1B49531  35.473  35.525   6.258
 3867POPC   C2B49532  35.210  35.357   6.583
 3867POPC   C3B49533  35.065  35.560   6.903
 3867POPC   C4B49534  35.231  35.515   7.280
 3868POPC   NC349535  13.736  21.945   5.516
 3868POPC   PO449536  13.464  22.362   5.067
 3868POPC   GL149537  13.425  22.322   5.619
 3868POPC   GL249538  13.752  22.252   5.929
 3868POPC   C1A49539  13.296  22.207   6.074
 3868POPC   D2A49540  13.351  21.983   6.471
 3868POPC   C3A49541  13.427  22.189   6.858
 3868POPC   C4A49542  13.366  22.023   7.245
 3868POPC   C1B49543  13.869  21.859   6.177
 3868POPC   C2B49544  14.186  21.706   6.489
 3868POPC   C3B49545  14.137  21.781   6.940
 3868POPC   C4B49546  13.881  22.100   7.170
 3869POPC   NC349547  15.418  20.957   5.369
 3869POPC   PO449548  15.026  20.467   5.234
 3869POPC   GL149549  14.965  20.657   5.656
 3869POPC   GL249550  15.262  20.793   5.840
 3869POPC   C1A49551  14.941  20.471   6.090
 3869POPC   D2A49552  15.255  20.463   6.432
 3869POPC   C3A49553  15.232  20.597   6.854
 3869POPC   C4A49554  14.980  20.587   7.246
 3869POPC   C1B49555  15.552  20.783   6.175
 3869POPC   C2B49556  15.544  20.969   6.554
 3869POPC   C3B49557  15.646  20.868   6.937
 3869POPC   C4B49558  15.376  20.943   7.278
 3870POPC   NC349559  29.016  26.088   5.514
 3870POPC   PO449560  29.605  26.041   5.363
 3870POPC   GL149561  29.452  26.173   5.766
 3870POPC   GL249562  29.400  25.857   5.902
 3870POPC   C1A49563  29.166  26.264   6.143
 3870POPC   D2A49564  29.095  26.540   6.504
 3870POPC   C3A49565  29.183  26.381   6.960
 3870POPC   C4A49566  28.917  26.247   7.370
 3870POPC   C1B49567  29.343  25.844   6.359
 3870POPC   C2B49568  29.338  25.926   6.804
 3870POPC   C3B49569  29.030  25.809   7.128
 3870POPC   C4B49570  29.011  25.422   7.413
 3871POPC   NC349571  35.264   2.364   5.437
 3871POPC   PO449572  35.143   1.665   5.527
 3871POPC   GL149573  35.278   1.800   5.888
 3871POPC   GL249574  35.455   2.084   5.809
 3871POPC   C1A49575  35.129   1.822   6.277
 3871POPC   D2A49576  35.413   1.909   6.550
 3871POPC   C3A49577  35.268   1.788   6.903
 3871POPC   C4A49578  35.327   2.072   7.218
 3871POPC   C1B49579  35.326   2.286   6.178
 3871POPC   C2B49580  35.139   2.355   6.560
 3871POPC   C3B49581  35.292   2.495   6.934
 3871POPC   C4B49582  35.184   2.586   7.314
 3872POPC   NC349583   6.774  22.933   5.371
 3872POPC   PO449584   6.611  23.575   5.306
 3872POPC   GL149585   6.332  23.214   5.568
 3872POPC   GL249586   6.501  22.954   5.796
 3872POPC   C1A49587   6.189  23.211   6.053
 3872POPC   D2A49588   6.368  22.902   6.400
 3872POPC   C3A49589   6.370  22.990   6.861
 3872POPC   C4A49590   6.367  22.748   7.239
 3872POPC   C1B49591   6.784  22.787   6.100
 3872POPC   C2B49592   6.874  22.687   6.517
 3872POPC   C3B49593   6.667  22.533   6.845
 3872POPC   C4B49594   6.851  22.822   7.083
 3873POPC   NC349595  43.139  41.776   5.170
 3873POPC   PO449596  42.953  42.362   5.482
 3873POPC   GL149597  43.081  42.525   5.863
 3873POPC   GL249598  43.114  42.171   5.967
 3873POPC   C1A49599  43.222  42.526   6.306
 3873POPC   D2A49600  43.063  42.244   6.624
 3873POPC   C3A49601  42.917  42.447   6.996
 3873POPC   C4A49602  43.169  42.596   7.346
 3873POPC   C1B49603  43.430  42.016   6.263
 3873POPC   C2B49604  43.422  41.875   6.712
 3873POPC   C3B49605  43.320  42.144   7.077
 3873POPC   C4B49606  43.007  42.125   7.401
 3874POPC   NC349607   3.155  44.564   5.531
 3874POPC   PO449608   2.586  44.376   5.193
 3874POPC   GL149609   2.654  44.465   5.661
 3874POPC   GL249610   2.523  44.779   5.809
 3874POPC   C1A49611   2.707  44.431   6.154
 3874POPC   D2A49612   2.924  44.647   6.527
 3874POPC   C3A49613   2.933  44.480   6.997
 3874POPC   C4A49614   3.014  44.453   7.488
 3874POPC   C1B49615   2.801   0.011   6.125
 3874POPC   C2B49616   2.945   0.238   6.502
 3874POPC   C3B49617   2.922   0.002   6.885
 3874POPC   C4B49618   2.834  44.905   7.289
 3875POPC   NC349619  28.228  17.088   5.455
 3875POPC   PO449620  28.636  16.600   5.556
 3875POPC   GL149621  28.447  16.843   5.853
 3875POPC   GL249622  28.125  16.645   5.795
 3875POPC   C1A49623  28.187  16.926   6.215
 3875POPC   D2A49624  28.045  16.785   6.617
 3875POPC   C3A49625  28.346  16.825   6.936
 3875POPC   C4A49626  28.314  16.789   7.355
 3875POPC   C1B49627  28.313  16.440   6.157
 3875POPC   C2B49628  28.194  16.286   6.558
 3875POPC   C3B49629  28.281  16.309   6.982
 3875POPC   C4B49630  28.060  16.362   7.334
 3876POPC   NC349631  40.411  12.296   5.297
 3876POPC   PO449632  40.947  12.026   5.308
 3876POPC   GL149633  40.683  11.998   5.699
 3876POPC   GL249634  40.362  12.160   5.791
 3876POPC   C1A49635  40.728  11.813   6.123
 3876POPC   D2A49636  40.988  11.670   6.460
 3876POPC   C3A49637  40.957  11.879   6.848
 3876POPC   C4A49638  40.746  12.063   7.191
 3876POPC   C1B49639  40.349  12.128   6.223
 3876POPC   C2B49640  40.509  11.979   6.599
 3876POPC   C3B49641  40.343  12.218   6.920
 3876POPC   C4B49642  40.368  12.391   7.315
 3877POPC   NC349643  20.966  29.287   5.473
 3877POPC   PO449644  21.638  29.188   5.399
 3877POPC   GL149645  21.443  29.141   5.812
 3877POPC   GL249646  21.141  29.292   5.949
 3877POPC   C1A49647  21.570  29.172   6.257
 3877POPC   D2A49648  21.329  29.111   6.656
 3877POPC   C3A49649  21.491  28.882   7.028
 3877POPC   C4A49650  21.718  28.932   7.420
 3877POPC   C1B49651  21.177  29.523   6.339
 3877POPC   C2B49652  21.289  29.611   6.767
 3877POPC   C3B49653  21.383  29.367   7.106
 3877POPC   C4B49654  21.242  29.135   7.457
 3878POPC   NC349655   7.900  41.232   5.512
 3878POPC   PO449656   8.490  41.319   5.325
 3878POPC   GL149657   8.508  41.544   5.736
 3878POPC   GL249658   8.153  41.584   5.830
 3878POPC   C1A49659   8.500  41.590   6.219
 3878POPC   D2A49660   8.255  41.673   6.600
 3878POPC   C3A49661   8.457  41.643   7.023
 3878POPC   C4A49662   8.303  41.489   7.437
 3878POPC   C1B49663   8.052  41.290   6.171
 3878POPC   C2B49664   7.904  41.283   6.586
 3878POPC   C3B49665   7.971  41.428   6.994
 3878POPC   C4B49666   7.915  41.185   7.355
 3879POPC   NC349667  11.557  32.911   5.442
 3879POPC   PO449668  11.150  33.365   5.603
 3879POPC   GL149669  11.044  33.007   5.860
 3879POPC   GL249670  11.241  32.711   5.836
 3879POPC   C1A49671  11.214  32.986   6.272
 3879POPC   D2A49672  11.469  32.946   6.612
 3879POPC   C3A49673  11.403  33.224   6.952
 3879POPC   C4A49674  11.344  33.404   7.359
 3879POPC   C1B49675  10.944  32.557   6.180
 3879POPC   C2B49676  10.992  32.674   6.614
 3879POPC   C3B49677  11.215  32.715   6.992
 3879POPC   C4B49678  11.046  33.010   7.252
 3880POPC   NC349679   5.332  24.247   5.356
 3880POPC   PO449680   4.909  23.702   5.543
 3880POPC   GL149681   4.921  23.885   5.896
 3880POPC   GL249682   5.232  23.728   5.935
 3880POPC   C1A49683   4.884  23.831   6.324
 3880POPC   D2A49684   5.037  23.918   6.729
 3880POPC   C3A49685   4.908  24.024   7.142
 3880POPC   C4A49686   5.143  23.795   7.399
 3880POPC   C1B49687   5.294  23.513   6.292
 3880POPC   C2B49688   5.441  23.624   6.691
 3880POPC   C3B49689   5.389  23.457   7.062
 3880POPC   C4B49690   5.512  23.052   7.174
 3881POPC   NC349691  22.323  41.474   5.429
 3881POPC   PO449692  21.768  41.713   5.497
 3881POPC   GL149693  21.966  41.541   5.820
 3881POPC   GL249694  22.260  41.746   5.865
 3881POPC   C1A49695  21.996  41.537   6.248
 3881POPC   D2A49696  22.231  41.458   6.583
 3881POPC   C3A49697  22.102  41.641   6.955
 3881POPC   C4A49698  22.209  41.430   7.286
 3881POPC   C1B49699  22.445  41.846   6.286
 3881POPC   C2B49700  22.698  41.641   6.634
 3881POPC   C3B49701  22.593  41.719   7.083
 3881POPC   C4B49702  22.484  41.737   7.555
 3882POPC   NC349703  39.649  29.275   5.662
 3882POPC   PO449704  40.067  28.890   5.367
 3882POPC   GL149705  40.251  29.000   5.754
 3882POPC   GL249706  40.251  29.370   5.786
 3882POPC   C1A49707  40.092  29.020   6.174
 3882POPC   D2A49708  39.831  28.967   6.533
 3882POPC   C3A49709  40.090  29.004   6.889
 3882POPC   C4A49710  39.996  29.076   7.289
 3882POPC   C1B49711  40.315  29.482   6.235
 3882POPC   C2B49712  40.029  29.436   6.578
 3882POPC   C3B49713  39.788  29.431   6.971
 3882POPC   C4B49714  39.898  29.553   7.408
 3883POPC   NC349715  14.073   3.819   5.407
 3883POPC   PO449716  13.579   3.403   5.121
 3883POPC   GL149717  13.590   3.573   5.544
 3883POPC   GL249718  13.865   3.371   5.660
 3883POPC   C1A49719  13.581   3.580   6.035
 3883POPC   D2A49720  13.645   3.376   6.465
 3883POPC   C3A49721  13.591   3.641   6.855
 3883POPC   C4A49722  13.322   3.690   7.202
 3883POPC   C1B49723  14.021   3.264   6.091
 3883POPC   C2B49724  14.110   3.162   6.547
 3883POPC   C3B49725  13.830   3.195   6.914
 3883POPC   C4B49726  13.752   3.408   7.277
 3884POPC   NC349727  37.531   0.199   5.365
 3884POPC   PO449728  37.808  44.498   5.502
 3884POPC   GL149729  37.577  44.639   5.842
 3884POPC   GL249730  37.311  44.826   5.697
 3884POPC   C1A49731  37.456  44.568   6.265
 3884POPC   D2A49732  37.564  44.291   6.619
 3884POPC   C3A49733  37.597  44.529   6.997
 3884POPC   C4A49734  37.879  44.528   7.340
 3884POPC   C1B49735  37.296   0.037   6.111
 3884POPC   C2B49736  37.294   0.004   6.577
 3884POPC   C3B49737  37.284   0.169   7.026
 3884POPC   C4B49738  37.579  44.961   7.330
 3885POPC   NC349739  36.080  29.054   5.427
 3885POPC   PO449740  36.080  29.653   5.210
 3885POPC   GL149741  36.100  29.556   5.633
 3885POPC   GL249742  36.448  29.520   5.675
 3885POPC   C1A49743  35.957  29.424   6.067
 3885POPC   D2A49744  35.793  29.480   6.518
 3885POPC   C3A49745  36.051  29.374   6.891
 3885POPC   C4A49746  35.937  29.108   7.262
 3885POPC   C1B49747  36.481  29.574   6.142
 3885POPC   C2B49748  36.445  29.320   6.543
 3885POPC   C3B49749  36.441  29.047   6.912
 3885POPC   C4B49750  36.425  29.259   7.289
 3886POPC   NC349751  43.692  14.063   5.469
 3886POPC   PO449752  43.763  13.412   5.336
 3886POPC   GL149753  43.858  13.307   5.775
 3886POPC   GL249754  43.887  13.666   5.895
 3886POPC   C1A49755  43.955  13.307   6.247
 3886POPC   D2A49756  43.742  13.568   6.590
 3886POPC   C3A49757  43.687  13.364   7.007
 3886POPC   C4A49758  43.693  13.596   7.430
 3886POPC   C1B49759  44.210  13.758   6.228
 3886POPC   C2B49760  44.235  13.668   6.668
 3886POPC   C3B49761  44.132  13.590   7.129
 3886POPC   C4B49762  44.124  13.852   7.521
 3887POPC   NC349763  26.427  20.477   5.390
 3887POPC   PO449764  26.888  21.034   5.318
 3887POPC   GL149765  26.591  20.902   5.645
 3887POPC   GL249766  26.698  20.561   5.806
 3887POPC   C1A49767  26.603  20.949   6.100
 3887POPC   D2A49768  26.792  20.801   6.464
 3887POPC   C3A49769  26.522  20.747   6.829
 3887POPC   C4A49770  26.536  20.715   7.291
 3887POPC   C1B49771  26.659  20.343   6.204
 3887POPC   C2B49772  26.849  20.337   6.621
 3887POPC   C3B49773  26.749  20.303   7.042
 3887POPC   C4B49774  27.082  20.112   7.286
 3888POPC   NC349775  18.269   5.616   4.959
 3888POPC   PO449776  18.217   4.961   5.156
 3888POPC   GL149777  18.317   5.157   5.630
 3888POPC   GL249778  18.650   5.108   5.784
 3888POPC   C1A49779  18.226   5.096   6.122
 3888POPC   D2A49780  18.030   5.202   6.516
 3888POPC   C3A49781  18.059   4.927   6.864
 3888POPC   C4A49782  18.165   5.060   7.273
 3888POPC   C1B49783  18.694   4.872   6.173
 3888POPC   C2B49784  18.491   4.951   6.563
 3888POPC   C3B49785  18.548   4.847   6.983
 3888POPC   C4B49786  18.715   4.525   7.186
 3889POPC   NC349787  41.878  36.774   5.622
 3889POPC   PO449788  41.797  37.408   5.441
 3889POPC   GL149789  41.570  37.299   5.816
 3889POPC   GL249790  41.174  37.324   5.774
 3889POPC   C1A49791  41.705  37.163   6.233
 3889POPC   D2A49792  41.753  36.857   6.578
 3889POPC   C3A49793  41.906  36.988   6.971
 3889POPC   C4A49794  41.744  36.832   7.360
 3889POPC   C1B49795  41.247  36.988   6.057
 3889POPC   C2B49796  41.233  36.949   6.504
 3889POPC   C3B49797  41.184  36.721   6.863
 3889POPC   C4B49798  41.244  36.716   7.275
 3890POPC   NC349799   5.869  21.166   5.503
 3890POPC   PO449800   6.269  21.783   5.640
 3890POPC   GL149801   6.021  21.461   5.923
 3890POPC   GL249802   6.114  21.097   5.938
 3890POPC   C1A49803   5.679  21.523   6.249
 3890POPC   D2A49804   5.472  21.578   6.637
 3890POPC   C3A49805   5.869  21.593   6.866
 3890POPC   C4A49806   6.014  21.504   7.264
 3890POPC   C1B49807   5.719  21.021   6.207
 3890POPC   C2B49808   5.572  21.063   6.641
 3890POPC   C3B49809   5.694  21.100   7.082
 3890POPC   C4B49810   5.489  21.156   7.489
 3891POPC   NC349811   3.059   6.690   5.415
 3891POPC   PO449812   3.703   6.431   5.273
 3891POPC   GL149813   3.558   6.760   5.640
 3891POPC   GL249814   3.756   7.093   5.724
 3891POPC   C1A49815   3.350   6.739   6.080
 3891POPC   D2A49816   3.124   6.708   6.495
 3891POPC   C3A49817   3.332   6.749   6.911
 3891POPC   C4A49818   3.328   6.628   7.333
 3891POPC   C1B49819   3.745   7.112   6.214
 3891POPC   C2B49820   3.742   6.888   6.644
 3891POPC   C3B49821   3.812   6.669   7.089
 3891POPC   C4B49822   3.766   6.685   7.569
 3892POPC   NC349823  21.147  43.949   5.439
 3892POPC   PO449824  21.704  44.297   5.468
 3892POPC   GL149825  21.557  43.966   5.783
 3892POPC   GL249826  21.295  44.176   5.854
 3892POPC   C1A49827  21.329  43.786   6.197
 3892POPC   D2A49828  21.131  43.993   6.538
 3892POPC   C3A49829  21.121  43.772   6.916
 3892POPC   C4A49830  21.504  43.543   7.029
 3892POPC   C1B49831  21.465  44.291   6.224
 3892POPC   C2B49832  21.418  44.441   6.623
 3892POPC   C3B49833  21.535  44.366   7.038
 3892POPC   C4B49834  21.366  44.030   7.256
 3893POPC   NC349835  33.357  15.452   5.512
 3893POPC   PO449836  33.203  14.806   5.547
 3893POPC   GL149837  33.098  15.143   5.844
 3893POPC   GL249838  33.180  14.945   6.089
 3893POPC   C1A49839  33.115  15.402   6.268
 3893POPC   D2A49840  33.388  15.417   6.668
 3893POPC   C3A49841  33.246  15.254   7.093
 3893POPC   C4A49842  32.968  15.430   7.473
 3893POPC   C1B49843  32.736  15.013   6.225
 3893POPC   C2B49844  32.576  15.176   6.642
 3893POPC   C3B49845  32.732  15.173   7.092
 3893POPC   C4B49846  32.804  14.892   7.469
 3894POPC   NC349847  37.549  41.766   5.438
 3894POPC   PO449848  38.111  41.298   5.412
 3894POPC   GL149849  37.743  41.399   5.747
 3894POPC   GL249850  37.779  41.717   5.883
 3894POPC   C1A49851  37.503  41.317   6.180
 3894POPC   D2A49852  37.451  41.148   6.657
 3894POPC   C3A49853  37.662  41.255   7.097
 3894POPC   C4A49854  37.691  41.415   7.581
 3894POPC   C1B49855  37.778  41.748   6.286
 3894POPC   C2B49856  37.724  41.978   6.641
 3894POPC   C3B49857  37.721  41.774   6.998
 3894POPC   C4B49858  37.801  42.078   7.252
 3895POPC   NC349859  28.048  10.743   5.513
 3895POPC   PO449860  27.457  10.434   5.399
 3895POPC   GL149861  27.639  10.500   5.810
 3895POPC   GL249862  27.932  10.328   5.851
 3895POPC   C1A49863  27.624  10.663   6.244
 3895POPC   D2A49864  27.684  10.781   6.690
 3895POPC   C3A49865  27.400  10.564   6.970
 3895POPC   C4A49866  27.545  10.421   7.374
 3895POPC   C1B49867  27.801  10.144   6.223
 3895POPC   C2B49868  27.674  10.274   6.606
 3895POPC   C3B49869  27.850  10.300   6.994
 3895POPC   C4B49870  27.846  10.009   7.296
 3896POPC   NC349871  23.823  33.533   5.435
 3896POPC   PO449872  23.606  34.160   5.613
 3896POPC   GL149873  23.815  33.839   5.892
 3896POPC   GL249874  23.601  33.538   5.897
 3896POPC   C1A49875  23.897  33.729   6.342
 3896POPC   D2A49876  23.970  33.690   6.792
 3896POPC   C3A49877  23.646  33.914   7.009
 3896POPC   C4A49878  23.757  33.890   7.398
 3896POPC   C1B49879  23.499  33.345   6.283
 3896POPC   C2B49880  23.481  33.511   6.710
 3896POPC   C3B49881  23.607  33.400   7.138
 3896POPC   C4B49882  23.585  33.451   7.600
 3897POPC   NC349883  39.437  10.899   5.378
 3897POPC   PO449884  38.784  10.874   5.565
 3897POPC   GL149885  39.205  10.682   5.850
 3897POPC   GL249886  39.375  10.326   5.943
 3897POPC   C1A49887  39.297  10.668   6.325
 3897POPC   D2A49888  38.983  10.630   6.685
 3897POPC   C3A49889  39.123  10.737   7.100
 3897POPC   C4A49890  39.356  10.869   7.447
 3897POPC   C1B49891  39.065  10.231   6.218
 3897POPC   C2B49892  39.244  10.215   6.602
 3897POPC   C3B49893  39.467  10.432   6.881
 3897POPC   C4B49894  39.524  10.420   7.290
 3898POPC   NC349895  39.796  37.761   5.431
 3898POPC   PO449896  40.149  38.235   5.631
 3898POPC   GL149897  39.891  38.001   5.902
 3898POPC   GL249898  40.047  37.684   5.860
 3898POPC   C1A49899  39.966  37.857   6.344
 3898POPC   D2A49900  39.862  38.027   6.719
 3898POPC   C3A49901  39.965  37.940   7.124
 3898POPC   C4A49902  39.735  37.720   7.401
 3898POPC   C1B49903  40.060  37.379   6.155
 3898POPC   C2B49904  39.852  37.270   6.512
 3898POPC   C3B49905  39.878  37.457   6.925
 3898POPC   C4B49906  40.148  37.422   7.268
 3899POPC   NC349907  12.998  30.369   5.014
 3899POPC   PO449908  12.742  30.901   5.399
 3899POPC   GL149909  12.766  30.803   5.840
 3899POPC   GL249910  12.737  30.491   5.851
 3899POPC   C1A49911  12.931  30.711   6.261
 3899POPC   D2A49912  12.845  30.763   6.664
 3899POPC   C3A49913  13.007  30.600   6.991
 3899POPC   C4A49914  13.012  30.827   7.342
 3899POPC   C1B49915  12.677  30.279   6.160
 3899POPC   C2B49916  12.492  30.446   6.500
 3899POPC   C3B49917  12.575  30.352   6.906
 3899POPC   C4B49918  12.693  30.408   7.343
 3900POPC   NC349919  36.585  25.665   5.663
 3900POPC   PO449920  36.029  25.524   5.313
 3900POPC   GL149921  36.171  25.202   5.648
 3900POPC   GL249922  36.539  25.133   5.711
 3900POPC   C1A49923  36.072  25.049   6.067
 3900POPC   D2A49924  36.160  25.218   6.480
 3900POPC   C3A49925  35.921  25.195   6.870
 3900POPC   C4A49926  36.050  25.385   7.237
 3900POPC   C1B49927  36.551  25.285   6.157
 3900POPC   C2B49928  36.582  25.535   6.542
 3900POPC   C3B49929  36.462  25.325   6.916
 3900POPC   C4B49930  36.512  25.055   7.240
 3901POPC   NC349931  14.915  36.875   5.273
 3901POPC   PO449932  14.407  36.794   5.524
 3901POPC   GL149933  14.244  36.895   5.948
 3901POPC   GL249934  13.962  37.138   5.932
 3901POPC   C1A49935  14.183  36.639   6.346
 3901POPC   D2A49936  14.031  36.695   6.776
 3901POPC   C3A49937  14.269  36.887   7.123
 3901POPC   C4A49938  14.303  37.028   7.581
 3901POPC   C1B49939  14.132  37.164   6.382
 3901POPC   C2B49940  14.277  37.346   6.799
 3901POPC   C3B49941  14.464  37.406   7.227
 3901POPC   C4B49942  14.364  37.536   7.649
 3902POPC   NC349943  21.985   8.521   5.434
 3902POPC   PO449944  22.312   9.087   5.472
 3902POPC   GL149945  22.071   8.894   5.787
 3902POPC   GL249946  22.140   8.566   5.907
 3902POPC   C1A49947  21.896   8.969   6.203
 3902POPC   D2A49948  22.122   9.164   6.544
 3902POPC   C3A49949  22.147   9.043   6.975
 3902POPC   C4A49950  22.406   8.925   7.307
 3902POPC   C1B49951  22.383   8.750   6.198
 3902POPC   C2B49952  22.370   8.679   6.621
 3902POPC   C3B49953  22.569   8.582   6.986
 3902POPC   C4B49954  22.418   8.399   7.381
 3903POPC   NC349955  28.566  40.490   5.582
 3903POPC   PO449956  28.363  41.089   5.538
 3903POPC   GL149957  28.230  41.001   5.934
 3903POPC   GL249958  28.230  40.632   5.932
 3903POPC   C1A49959  28.321  40.905   6.367
 3903POPC   D2A49960  28.545  41.081   6.679
 3903POPC   C3A49961  28.396  41.025   7.077
 3903POPC   C4A49962  28.431  40.938   7.502
 3903POPC   C1B49963  28.228  40.404   6.336
 3903POPC   C2B49964  28.360  40.533   6.767
 3903POPC   C3B49965  28.188  40.541   7.148
 3903POPC   C4B49966  28.063  40.309   7.498
 3904POPC   NC349967  18.016  39.945   5.090
 3904POPC   PO449968  18.435  40.494   5.266
 3904POPC   GL149969  18.439  40.153   5.639
 3904POPC   GL249970  18.127  39.932   5.680
 3904POPC   C1A49971  18.343  40.068   6.106
 3904POPC   D2A49972  18.135  40.175   6.507
 3904POPC   C3A49973  18.247  39.949   6.891
 3904POPC   C4A49974  18.310  40.015   7.325
 3904POPC   C1B49975  18.021  39.680   6.100
 3904POPC   C2B49976  17.976  39.655   6.582
 3904POPC   C3B49977  17.781  39.779   7.027
 3904POPC   C4B49978  17.733  39.892   7.494
 3905POPC   NC349979  43.208  22.162   5.346
 3905POPC   PO449980  42.603  22.103   5.568
 3905POPC   GL149981  42.983  22.317   5.780
 3905POPC   GL249982  43.290  22.071   5.820
 3905POPC   C1A49983  43.053  22.509   6.192
 3905POPC   D2A49984  43.198  22.517   6.655
 3905POPC   C3A49985  43.265  22.221   6.972
 3905POPC   C4A49986  43.037  22.148   7.344
 3905POPC   C1B49987  43.075  21.989   6.166
 3905POPC   C2B49988  43.221  21.950   6.544
 3905POPC   C3B49989  43.473  21.755   6.834
 3905POPC   C4B49990  43.291  21.732   7.225
 3906POPC   NC349991  15.686  21.602   5.474
 3906POPC   PO449992  16.309  21.763   5.230
 3906POPC   GL149993  16.145  21.537   5.691
 3906POPC   GL249994  16.266  21.169   5.774
 3906POPC   C1A49995  15.907  21.510   6.140
 3906POPC   D2A49996  15.943  21.314   6.584
 3906POPC   C3A49997  16.035  21.535   6.982
 3906POPC   C4A49998  15.827  21.781   7.292
 3906POPC   C1B49999  16.039  21.010   6.174
 3906POPC   C2B50000  16.050  20.819   6.585
 3906POPC   C3B50001  16.140  21.017   6.984
 3906POPC   C4B50002  15.834  21.154   7.319
 3907POPC   NC350003   0.969   0.997   5.408
 3907POPC   PO450004   1.496   1.336   5.400
 3907POPC   GL150005   1.372   1.089   5.820
 3907POPC   GL250006   1.029   1.022   5.909
 3907POPC   C1A50007   1.363   1.034   6.298
 3907POPC   D2A50008   1.018   1.027   6.633
 3907POPC   C3A50009   1.264   1.023   6.999
 3907POPC   C4A50010   1.305   0.910   7.442
 3907POPC   C1B50011   0.985   1.345   6.206
 3907POPC   C2B50012   1.141   1.517   6.583
 3907POPC   C3B50013   0.984   1.439   6.985
 3907POPC   C4B50014   1.287   1.414   7.318
 3908POPC   NC350015  21.791   2.422   5.437
 3908POPC   PO450016  22.092   3.102   5.432
 3908POPC   GL150017  21.957   2.824   5.725
 3908POPC   GL250018  22.218   2.554   5.737
 3908POPC   C1A50019  21.876   2.644   6.116
 3908POPC   D2A50020  22.050   2.744   6.491
 3908POPC   C3A50021  22.103   2.453   6.822
 3908POPC   C4A50022  22.103   2.630   7.237
 3908POPC   C1B50023  22.404   2.759   6.108
 3908POPC   C2B50024  22.544   2.906   6.528
 3908POPC   C3B50025  22.507   2.799   6.949
 3908POPC   C4B50026  22.406   3.075   7.259
 3909POPC   NC350027  12.030  28.129   5.629
 3909POPC   PO450028  11.666  28.753   5.511
 3909POPC   GL150029  11.849  28.569   5.875
 3909POPC   GL250030  12.231  28.589   5.871
 3909POPC   C1A50031  11.922  28.559   6.315
 3909POPC   D2A50032  12.175  28.714   6.670
 3909POPC   C3A50033  11.953  28.568   7.032
 3909POPC   C4A50034  11.834  28.189   7.223
 3909POPC   C1B50035  12.372  28.346   6.260
 3909POPC   C2B50036  12.239  28.215   6.690
 3909POPC   C3B50037  12.335  28.044   7.091
 3909POPC   C4B50038  12.310  28.218   7.487
 3910POPC   NC350039  36.000  22.441   5.357
 3910POPC   PO450040  36.301  21.842   5.351
 3910POPC   GL150041  36.370  22.081   5.753
 3910POPC   GL250042  36.576  21.819   5.864
 3910POPC   C1A50043  36.100  22.269   6.129
 3910POPC   D2A50044  35.881  22.130   6.523
 3910POPC   C3A50045  35.981  22.295   6.925
 3910POPC   C4A50046  36.019  22.252   7.378
 3910POPC   C1B50047  36.405  21.900   6.283
 3910POPC   C2B50048  36.360  22.025   6.706
 3910POPC   C3B50049  36.421  22.008   7.143
 3910POPC   C4B50050  36.528  22.225   7.538
 3911POPC   NC350051  25.887  17.468   5.442
 3911POPC   PO450052  26.584  17.592   5.423
 3911POPC   GL150053  26.285  17.471   5.757
 3911POPC   GL250054  26.005  17.238   5.869
 3911POPC   C1A50055  26.208  17.579   6.186
 3911POPC   D2A50056  26.043  17.369   6.534
 3911POPC   C3A50057  26.035  17.645   6.872
 3911POPC   C4A50058  26.001  17.656   7.280
 3911POPC   C1B50059  25.697  17.088   6.172
 3911POPC   C2B50060  25.548  17.220   6.572
 3911POPC   C3B50061  25.731  17.255   6.977
 3911POPC   C4B50062  25.620  17.101   7.363
 3912POPC   NC350063   3.286   2.785   5.329
 3912POPC   PO450064   3.675   2.286   5.521
 3912POPC   GL150065   3.561   2.627   5.780
 3912POPC   GL250066   3.200   2.535   5.768
 3912POPC   C1A50067   3.670   2.818   6.196
 3912POPC   D2A50068   3.629   2.658   6.624
 3912POPC   C3A50069   3.545   2.894   6.990
 3912POPC   C4A50070   3.843   3.195   7.115
 3912POPC   C1B50071   3.166   2.632   6.209
 3912POPC   C2B50072   3.074   2.723   6.642
 3912POPC   C3B50073   3.263   2.468   6.935
 3912POPC   C4B50074   3.536   2.441   7.278
 3913POPC   NC350075  38.390  10.719   5.389
 3913POPC   PO450076  38.361  10.016   5.568
 3913POPC   GL150077  38.377  10.394   5.797
 3913POPC   GL250078  38.040  10.621   5.738
 3913POPC   C1A50079  38.586  10.430   6.221
 3913POPC   D2A50080  38.714  10.188   6.612
 3913POPC   C3A50081  38.589  10.438   6.969
 3913POPC   C4A50082  38.645  10.891   6.993
 3913POPC   C1B50083  38.079  10.540   6.166
 3913POPC   C2B50084  38.289  10.722   6.552
 3913POPC   C3B50085  38.118  10.661   6.950
 3913POPC   C4B50086  37.892  10.699   7.324
 3914POPC   NC350087   3.967  16.519   5.526
 3914POPC   PO450088   4.511  16.563   5.634
 3914POPC   GL150089   4.266  16.841   5.855
 3914POPC   GL250090   4.020  16.639   6.016
 3914POPC   C1A50091   4.425  17.001   6.212
 3914POPC   D2A50092   4.601  16.890   6.595
 3914POPC   C3A50093   4.363  16.939   6.933
 3914POPC   C4A50094   4.542  16.927   7.288
 3914POPC   C1B50095   4.335  16.510   6.316
 3914POPC   C2B50096   4.325  16.448   6.769
 3914POPC   C3B50097   4.304  16.456   7.226
 3914POPC   C4B50098   4.184  16.290   7.655
 3915POPC   NC350099  25.106   9.084   5.322
 3915POPC   PO450100  25.573   8.639   5.477
 3915POPC   GL150101  25.183   8.785   5.714
 3915POPC   GL250102  25.367   9.085   5.787
 3915POPC   C1A50103  25.047   8.992   6.156
 3915POPC   D2A50104  25.335   9.077   6.476
 3915POPC   C3A50105  25.167   9.035   6.840
 3915POPC   C4A50106  25.323   8.984   7.213
 3915POPC   C1B50107  25.474   8.721   6.110
 3915POPC   C2B50108  25.653   8.652   6.476
 3915POPC   C3B50109  25.564   8.699   6.873
 3915POPC   C4B50110  25.834   8.801   7.208
 3916POPC   NC350111  17.823  43.273   5.244
 3916POPC   PO450112  17.304  42.942   5.595
 3916POPC   GL150113  17.477  43.098   5.922
 3916POPC   GL250114  17.630  43.344   5.738
 3916POPC   C1A50115  17.507  43.102   6.366
 3916POPC   D2A50116  17.503  43.167   6.834
 3916POPC   C3A50117  17.411  42.912   7.182
 3916POPC   C4A50118  17.383  42.825   7.629
 3916POPC   C1B50119  17.863  43.379   6.121
 3916POPC   C2B50120  17.960  43.217   6.569
 3916POPC   C3B50121  17.895  43.399   7.013
 3916POPC   C4B50122  17.843  43.185   7.419
 3917POPC   NC350123  44.433  25.960   5.121
 3917POPC   PO450124  44.189  26.237   5.706
 3917POPC   GL150125  44.537  26.180   5.969
 3917POPC   GL250126  44.844  26.143   5.770
 3917POPC   C1A50127  44.621  25.875   6.278
 3917POPC   D2A50128  44.414  25.712   6.654
 3917POPC   C3A50129  44.611  25.885   7.030
 3917POPC   C4A50130  44.481  26.271   7.240
 3917POPC   C1B50131   0.034  26.208   6.207
 3917POPC   C2B50132  44.922  26.076   6.645
 3917POPC   C3B50133   0.002  26.241   7.046
 3917POPC   C4B50134  44.984  26.398   7.452
 3918POPC   NC350135  34.717  19.141   5.378
 3918POPC   PO450136  34.706  18.497   5.373
 3918POPC   GL150137  34.594  18.800   5.772
 3918POPC   GL250138  34.499  19.212   5.837
 3918POPC   C1A50139  34.455  18.860   6.214
 3918POPC   D2A50140  34.315  19.126   6.563
 3918POPC   C3A50141  34.479  19.052   6.949
 3918POPC   C4A50142  34.384  18.645   7.130
 3918POPC   C1B50143  34.676  19.336   6.254
 3918POPC   C2B50144  34.563  19.553   6.656
 3918POPC   C3B50145  34.762  19.529   7.028
 3918POPC   C4B50146  34.903  19.167   7.226
 3919POPC   NC350147   8.769  41.670   5.283
 3919POPC   PO450148   9.318  41.301   5.314
 3919POPC   GL150149   9.121  41.555   5.632
 3919POPC   GL250150   9.317  41.875   5.614
 3919POPC   C1A50151   8.951  41.415   6.038
 3919POPC   D2A50152   8.938  41.179   6.436
 3919POPC   C3A50153   8.864  41.405   6.824
 3919POPC   C4A50154   8.776  41.320   7.288
 3919POPC   C1B50155   9.292  41.827   6.063
 3919POPC   C2B50156   9.247  41.592   6.441
 3919POPC   C3B50157   9.306  41.739   6.842
 3919POPC   C4B50158   9.018  41.807   7.154
 3920POPC   NC350159  33.868  14.055   5.046
 3920POPC   PO450160  33.609  13.424   5.306
 3920POPC   GL150161  33.792  13.579   5.684
 3920POPC   GL250162  34.141  13.440   5.707
 3920POPC   C1A50163  33.594  13.688   6.085
 3920POPC   D2A50164  33.679  13.578   6.512
 3920POPC   C3A50165  33.631  13.827   6.890
 3920POPC   C4A50166  33.748  13.710   7.312
 3920POPC   C1B50167  34.106  13.671   6.108
 3920POPC   C2B50168  34.194  13.595   6.519
 3920POPC   C3B50169  34.095  13.612   6.939
 3920POPC   C4B50170  34.133  13.996   7.149
 3921POPC   NC350171  13.541   6.998   5.639
 3921POPC   PO450172  13.818   7.444   5.263
 3921POPC   GL150173  13.811   7.573   5.730
 3921POPC   GL250174  14.116   7.808   5.781
 3921POPC   C1A50175  13.797   7.294   6.133
 3921POPC   D2A50176  13.913   7.205   6.549
 3921POPC   C3A50177  13.572   7.226   6.829
 3921POPC   C4A50178  13.544   7.301   7.227
 3921POPC   C1B50179  13.992   7.742   6.218
 3921POPC   C2B50180  13.752   7.695   6.578
 3921POPC   C3B50181  13.966   7.549   6.931
 3921POPC   C4B50182  13.876   7.664   7.294
 3922POPC   NC350183   6.697  20.991   5.584
 3922POPC   PO450184   6.897  21.533   5.245
 3922POPC   GL150185   6.832  21.477   5.708
 3922POPC   GL250186   6.535  21.405   5.890
 3922POPC   C1A50187   6.950  21.368   6.176
 3922POPC   D2A50188   6.837  21.490   6.596
 3922POPC   C3A50189   6.854  21.190   6.913
 3922POPC   C4A50190   6.506  20.968   7.088
 3922POPC   C1B50191   6.463  21.226   6.327
 3922POPC   C2B50192   6.360  21.366   6.776
 3922POPC   C3B50193   6.526  21.495   7.193
 3922POPC   C4B50194   6.369  21.535   7.631
 3923POPC   NC350195  40.498  25.412   5.434
 3923POPC   PO450196  41.078  25.224   5.162
 3923POPC   GL150197  40.900  25.234   5.680
 3923POPC   GL250198  40.672  25.463   5.903
 3923POPC   C1A50199  40.910  25.096   6.146
 3923POPC   D2A50200  40.994  25.277   6.573
 3923POPC   C3A50201  40.907  25.072   7.000
 3923POPC   C4A50202  40.752  25.001   7.442
 3923POPC   C1B50203  40.555  25.432   6.331
 3923POPC   C2B50204  40.507  25.256   6.742
 3923POPC   C3B50205  40.483  25.342   7.164
 3923POPC   C4B50206  40.779  25.516   7.468
 3924POPC   NC350207  17.968  26.513   5.083
 3924POPC   PO450208  18.438  26.065   5.259
 3924POPC   GL150209  18.233  26.067   5.692
 3924POPC   GL250210  17.936  26.292   5.681
 3924POPC   C1A50211  18.352  25.920   6.106
 3924POPC   D2A50212  18.125  25.930   6.487
 3924POPC   C3A50213  18.249  25.979   6.920
 3924POPC   C4A50214  18.162  25.656   7.254
 3924POPC   C1B50215  18.021  26.308   6.147
 3924POPC   C2B50216  18.120  26.413   6.601
 3924POPC   C3B50217  17.940  26.413   6.977
 3924POPC   C4B50218  17.987  26.521   7.400
 3925POPC   NC350219   4.431   0.314   5.310
 3925POPC   PO450220   4.500   0.976   5.251
 3925POPC   GL150221   4.378   0.627   5.710
 3925POPC   GL250222   4.387   0.242   5.804
 3925POPC   C1A50223   4.113   0.592   6.133
 3925POPC   D2A50224   3.993   0.747   6.580
 3925POPC   C3A50225   4.388   0.699   6.837
 3925POPC   C4A50226   4.486   0.499   7.244
 3925POPC   C1B50227   4.253  44.951   6.145
 3925POPC   C2B50228   4.240  44.908   6.593
 3925POPC   C3B50229   4.499   0.012   6.971
 3925POPC   C4B50230   4.246   0.035   7.326
 3926POPC   NC350231  15.933  32.650   5.482
 3926POPC   PO450232  15.522  32.082   5.490
 3926POPC   GL150233  15.876  32.225   5.813
 3926POPC   GL250234  16.149  31.966   5.837
 3926POPC   C1A50235  16.213  32.421   6.128
 3926POPC   D2A50236  16.132  32.707   6.496
 3926POPC   C3A50237  16.080  32.430   6.857
 3926POPC   C4A50238  15.859  32.495   7.251
 3926POPC   C1B50239  15.962  31.968   6.262
 3926POPC   C2B50240  15.751  31.964   6.668
 3926POPC   C3B50241  15.793  32.035   7.096
 3926POPC   C4B50242  16.234  32.111   7.232
 3927POPC   NC350243  42.452   5.075   5.251
 3927POPC   PO450244  42.996   5.496   5.338
 3927POPC   GL150245  42.659   5.280   5.689
 3927POPC   GL250246  42.579   4.899   5.727
 3927POPC   C1A50247  42.445   5.167   6.151
 3927POPC   D2A50248  42.595   5.312   6.587
 3927POPC   C3A50249  42.580   5.225   7.058
 3927POPC   C4A50250  42.606   5.343   7.528
 3927POPC   C1B50251  42.623   4.660   6.121
 3927POPC   C2B50252  42.490   4.785   6.541
 3927POPC   C3B50253  42.163   5.050   6.721
 3927POPC   C4B50254  42.087   5.130   7.149
 3928POPC   NC350255  41.077  14.828   5.063
 3928POPC   PO450256  41.116  15.375   5.432
 3928POPC   GL150257  40.910  15.152   5.747
 3928POPC   GL250258  40.539  15.046   5.690
 3928POPC   C1A50259  40.898  15.258   6.160
 3928POPC   D2A50260  40.876  14.976   6.485
 3928POPC   C3A50261  40.912  15.237   6.807
 3928POPC   C4A50262  40.886  15.424   7.181
 3928POPC   C1B50263  40.498  14.946   6.135
 3928POPC   C2B50264  40.410  15.119   6.602
 3928POPC   C3B50265  40.514  15.031   7.072
 3928POPC   C4B50266  40.310  14.886   7.499
 3929POPC   NC350267  37.372  22.782   5.544
 3929POPC   PO450268  37.941  22.578   5.262
 3929POPC   GL150269  37.852  22.788   5.718
 3929POPC   GL250270  37.829  23.123   5.906
 3929POPC   C1A50271  37.720  22.722   6.189
 3929POPC   D2A50272  37.915  22.924   6.574
 3929POPC   C3A50273  37.779  22.864   7.005
 3929POPC   C4A50274  37.414  22.835   7.287
 3929POPC   C1B50275  37.629  23.288   6.335
 3929POPC   C2B50276  37.447  23.171   6.736
 3929POPC   C3B50277  37.502  23.312   7.146
 3929POPC   C4B50278  37.701  23.306   7.547
 3930POPC   NC350279  22.360  31.775   5.513
 3930POPC   PO450280  21.966  31.387   5.201
 3930POPC   GL150281  22.043  31.396   5.641
 3930POPC   GL250282  21.916  31.730   5.754
 3930POPC   C1A50283  22.004  31.247   6.067
 3930POPC   D2A50284  22.112  31.437   6.460
 3930POPC   C3A50285  21.902  31.468   6.843
 3930POPC   C4A50286  22.138  31.246   7.162
 3930POPC   C1B50287  21.795  31.746   6.169
 3930POPC   C2B50288  21.971  31.950   6.530
 3930POPC   C3B50289  21.801  31.997   6.925
 3930POPC   C4B50290  21.845  31.792   7.298
 3931POPC   NC350291  31.728  28.457   4.967
 3931POPC   PO450292  31.343  28.182   5.434
 3931POPC   GL150293  31.531  28.495   5.774
 3931POPC   GL250294  31.179  28.545   5.945
 3931POPC   C1A50295  31.601  28.727   6.187
 3931POPC   D2A50296  31.542  28.587   6.637
 3931POPC   C3A50297  31.385  28.855   6.971
 3931POPC   C4A50298  31.238  28.443   7.118
 3931POPC   C1B50299  31.419  28.263   6.219
 3931POPC   C2B50300  31.512  27.977   6.522
 3931POPC   C3B50301  31.540  28.050   6.961
 3931POPC   C4B50302  31.800  28.017   7.325
 3932POPC   NC350303  16.890  16.356   5.299
 3932POPC   PO450304  16.705  17.045   5.367
 3932POPC   GL150305  16.631  16.710   5.656
 3932POPC   GL250306  16.485  16.983   5.842
 3932POPC   C1A50307  16.698  16.607   6.097
 3932POPC   D2A50308  16.674  16.786   6.505
 3932POPC   C3A50309  16.888  16.562   6.817
 3932POPC   C4A50310  16.717  16.425   7.169
 3932POPC   C1B50311  16.821  17.126   6.153
 3932POPC   C2B50312  16.777  17.293   6.577
 3932POPC   C3B50313  16.735  17.055   6.965
 3932POPC   C4B50314  16.701  16.886   7.393
 3933POPC   NC350315  14.074   2.153   5.440
 3933POPC   PO450316  13.496   1.842   5.502
 3933POPC   GL150317  13.785   1.893   5.819
 3933POPC   GL250318  13.776   2.238   5.835
 3933POPC   C1A50319  13.937   1.927   6.247
 3933POPC   D2A50320  13.874   1.679   6.628
 3933POPC   C3A50321  13.823   1.891   7.017
 3933POPC   C4A50322  13.482   1.891   7.289
 3933POPC   C1B50323  13.614   2.341   6.205
 3933POPC   C2B50324  13.755   2.303   6.618
 3933POPC   C3B50325  13.500   2.317   6.962
 3933POPC   C4B50326  13.592   2.394   7.353
 3934POPC   NC350327  30.657   8.005   5.494
 3934POPC   PO450328  30.232   8.479   5.200
 3934POPC   GL150329  30.470   8.437   5.719
 3934POPC   GL250330  30.782   8.247   5.909
 3934POPC   C1A50331  30.386   8.303   6.202
 3934POPC   D2A50332  30.642   8.127   6.581
 3934POPC   C3A50333  30.489   8.205   7.025
 3934POPC   C4A50334  30.346   8.522   7.363
 3934POPC   C1B50335  31.028   8.015   6.206
 3934POPC   C2B50336  31.182   7.959   6.629
 3934POPC   C3B50337  31.158   8.132   7.045
 3934POPC   C4B50338  30.892   7.998   7.347
 3935POPC   NC350339  39.703  20.172   5.442
 3935POPC   PO450340  40.249  19.784   5.358
 3935POPC   GL150341  40.002  19.797   5.740
 3935POPC   GL250342  39.785  19.536   5.847
 3935POPC   C1A50343  40.051  20.038   6.107
 3935POPC   D2A50344  39.948  20.162   6.501
 3935POPC   C3A50345  40.180  19.996   6.814
 3935POPC   C4A50346  40.010  19.998   7.217
 3935POPC   C1B50347  39.603  19.762   6.136
 3935POPC   C2B50348  39.806  19.673   6.495
 3935POPC   C3B50349  39.804  19.651   6.911
 3935POPC   C4B50350  39.867  19.529   7.333
 3936POPC   NC350351  20.884   7.449   5.209
 3936POPC   PO450352  21.641   7.394   5.363
 3936POPC   GL150353  21.653   7.568   5.781
 3936POPC   GL250354  21.303   7.451   5.813
 3936POPC   C1A50355  21.502   7.678   6.211
 3936POPC   D2A50356  21.293   7.376   6.484
 3936POPC   C3A50357  21.247   7.433   6.896
 3936POPC   C4A50358  21.075   7.495   7.278
 3936POPC   C1B50359  21.553   7.161   6.104
 3936POPC   C2B50360  21.753   7.168   6.537
 3936POPC   C3B50361  21.738   7.313   7.002
 3936POPC   C4B50362  21.717   7.218   7.501
 3937POPC   NC350363   7.428  19.515   5.302
 3937POPC   PO450364   7.544  18.878   5.317
 3937POPC   GL150365   7.437  19.128   5.679
 3937POPC   GL250366   7.148  19.347   5.768
 3937POPC   C1A50367   7.486  19.108   6.135
 3937POPC   D2A50368   7.768  19.028   6.497
 3937POPC   C3A50369   7.583  18.985   6.913
 3937POPC   C4A50370   7.724  18.786   7.305
 3937POPC   C1B50371   7.084  19.404   6.235
 3937POPC   C2B50372   7.137  19.122   6.608
 3937POPC   C3B50373   7.170  19.287   7.031
 3937POPC   C4B50374   6.979  19.306   7.435
 3938POPC   NC350375  39.144   0.028   5.358
 3938POPC   PO450376  38.851   0.661   5.285
 3938POPC   GL150377  39.015   0.570   5.779
 3938POPC   GL250378  39.365   0.679   5.893
 3938POPC   C1A50379  39.078   0.516   6.265
 3938POPC   D2A50380  39.252   0.251   6.602
 3938POPC   C3A50381  39.361   0.374   7.009
 3938POPC   C4A50382  39.189   0.585   7.385
 3938POPC   C1B50383  39.576   0.448   6.257
 3938POPC   C2B50384  39.673   0.633   6.684
 3938POPC   C3B50385  39.718   0.716   7.130
 3938POPC   C4B50386  39.647   0.390   7.464
 3939POPC   NC350387  23.364   6.664   5.505
 3939POPC   PO450388  22.725   6.767   5.293
 3939POPC   GL150389  22.750   6.576   5.735
 3939POPC   GL250390  22.995   6.788   5.844
 3939POPC   C1A50391  22.744   6.563   6.239
 3939POPC   D2A50392  22.989   6.511   6.667
 3939POPC   C3A50393  22.773   6.611   7.068
 3939POPC   C4A50394  23.001   6.754   7.475
 3939POPC   C1B50395  23.237   6.704   6.198
 3939POPC   C2B50396  23.244   6.924   6.553
 3939POPC   C3B50397  23.150   6.931   6.961
 3939POPC   C4B50398  23.353   7.153   7.244
 3940POPC   NC350399  10.001  17.829   5.611
 3940POPC   PO450400  10.589  17.663   5.244
 3940POPC   GL150401  10.421  17.491   5.621
 3940POPC   GL250402  10.720  17.430   5.784
 3940POPC   C1A50403  10.255  17.411   6.062
 3940POPC   D2A50404  10.080  17.671   6.399
 3940POPC   C3A50405  10.149  17.607   6.854
 3940POPC   C4A50406  10.201  17.199   7.100
 3940POPC   C1B50407  10.656  17.740   6.108
 3940POPC   C2B50408  10.716  17.727   6.543
 3940POPC   C3B50409  10.694  17.848   6.969
 3940POPC   C4B50410  10.592  17.495   7.223
 3941POPC   NC350411   7.184  38.417   5.427
 3941POPC   PO450412   7.883  38.360   5.351
 3941POPC   GL150413   7.647  38.275   5.811
 3941POPC   GL250414   7.250  38.256   5.910
 3941POPC   C1A50415   7.528  38.449   6.285
 3941POPC   D2A50416   7.541  38.365   6.754
 3941POPC   C3A50417   7.399  38.596   7.135
 3941POPC   C4A50418   7.485  38.555   7.611
 3941POPC   C1B50419   6.979  38.072   6.232
 3941POPC   C2B50420   7.090  38.071   6.679
 3941POPC   C3B50421   7.054  38.234   7.104
 3941POPC   C4B50422   7.213  38.123   7.535
 3942POPC   NC350423  13.286  31.831   5.029
 3942POPC   PO450424  13.784  31.527   5.336
 3942POPC   GL150425  13.869  31.513   5.773
 3942POPC   GL250426  13.866  31.151   5.820
 3942POPC   C1A50427  13.769  31.572   6.229
 3942POPC   D2A50428  13.931  31.427   6.629
 3942POPC   C3A50429  13.723  31.422   7.013
 3942POPC   C4A50430  13.651  31.610   7.391
 3942POPC   C1B50431  13.533  31.134   6.141
 3942POPC   C2B50432  13.293  31.011   6.498
 3942POPC   C3B50433  13.354  30.969   6.936
 3942POPC   C4B50434  13.306  31.232   7.300
 3943POPC   NC350435  19.489  20.094   5.339
 3943POPC   PO450436  18.992  19.589   5.195
 3943POPC   GL150437  19.103  19.963   5.606
 3943POPC   GL250438  18.814  20.081   5.868
 3943POPC   C1A50439  19.288  20.012   6.025
 3943POPC   D2A50440  19.239  20.130   6.475
 3943POPC   C3A50441  19.198  19.860   6.853
 3943POPC   C4A50442  18.909  19.994   7.165
 3943POPC   C1B50443  18.855  19.838   6.278
 3943POPC   C2B50444  18.685  19.791   6.691
 3943POPC   C3B50445  18.705  19.541   7.053
 3943POPC   C4B50446  18.783  19.620   7.486
 3944POPC   NC350447  25.769  30.277   5.283
 3944POPC   PO450448  26.282  30.713   5.512
 3944POPC   GL150449  26.095  30.572   5.889
 3944POPC   GL250450  25.808  30.371   5.811
 3944POPC   C1A50451  25.943  30.807   6.254
 3944POPC   D2A50452  25.747  31.045   6.573
 3944POPC   C3A50453  25.781  30.850   6.948
 3944POPC   C4A50454  26.169  30.840   7.109
 3944POPC   C1B50455  25.901  30.290   6.270
 3944POPC   C2B50456  26.062  30.509   6.647
 3944POPC   C3B50457  26.090  30.358   7.045
 3944POPC   C4B50458  25.735  30.463   7.285
 3945POPC   NC350459   3.711   8.337   5.552
 3945POPC   PO450460   3.193   7.820   5.433
 3945POPC   GL150461   3.375   8.040   5.813
 3945POPC   GL250462   3.725   8.035   5.969
 3945POPC   C1A50463   3.308   8.223   6.247
 3945POPC   D2A50464   3.157   8.364   6.677
 3945POPC   C3A50465   3.334   8.236   7.057
 3945POPC   C4A50466   3.519   8.015   7.452
 3945POPC   C1B50467   3.779   8.451   6.222
 3945POPC   C2B50468   3.691   8.476   6.682
 3945POPC   C3B50469   3.840   8.162   7.023
 3945POPC   C4B50470   4.034   8.009   7.427
 3946POPC   NC350471  19.764  17.035   5.413
 3946POPC   PO450472  19.976  16.353   5.387
 3946POPC   GL150473  19.848  16.498   5.770
 3946POPC   GL250474  20.049  16.799   5.805
 3946POPC   C1A50475  19.765  16.566   6.211
 3946POPC   D2A50476  19.746  16.794   6.610
 3946POPC   C3A50477  19.651  16.512   6.945
 3946POPC   C4A50478  19.532  16.534   7.395
 3946POPC   C1B50479  19.964  17.059   6.177
 3946POPC   C2B50480  20.157  17.094   6.575
 3946POPC   C3B50481  20.027  17.129   7.012
 3946POPC   C4B50482  20.007  16.715   7.232
 3947POPC   NC350483  25.233  28.622   5.298
 3947POPC   PO450484  24.998  28.132   5.646
 3947POPC   GL150485  25.188  28.498   5.794
 3947POPC   GL250486  25.499  28.354   5.784
 3947POPC   C1A50487  25.372  28.718   6.143
 3947POPC   D2A50488  25.333  28.626   6.588
 3947POPC   C3A50489  24.962  28.644   6.834
 3947POPC   C4A50490  24.987  28.353   7.186
 3947POPC   C1B50491  25.406  28.201   6.203
 3947POPC   C2B50492  25.498  28.148   6.645
 3947POPC   C3B50493  25.458  28.198   7.052
 3947POPC   C4B50494  25.457  27.884   7.343
 3948POPC   NC350495  24.092  35.502   5.473
 3948POPC   PO450496  23.417  35.648   5.395
 3948POPC   GL150497  23.661  35.417   5.745
 3948POPC   GL250498  23.971  35.204   5.873
 3948POPC   C1A50499  23.582  35.319   6.168
 3948POPC   D2A50500  23.773  35.316   6.526
 3948POPC   C3A50501  23.587  35.400   6.894
 3948POPC   C4A50502  23.661  35.128   7.257
 3948POPC   C1B50503  24.058  35.584   6.140
 3948POPC   C2B50504  24.098  35.688   6.567
 3948POPC   C3B50505  24.136  35.382   6.901
 3948POPC   C4B50506  23.931  35.561   7.233
 3949POPC   NC350507  37.654  19.527   5.491
 3949POPC   PO450508  37.474  20.097   5.699
 3949POPC   GL150509  37.889  19.928   5.803
 3949POPC   GL250510  37.908  19.604   5.948
 3949POPC   C1A50511  38.112  20.021   6.198
 3949POPC   D2A50512  38.301  19.915   6.613
 3949POPC   C3A50513  38.074  20.093   6.982
 3949POPC   C4A50514  37.605  20.180   7.070
 3949POPC   C1B50515  37.682  19.709   6.338
 3949POPC   C2B50516  37.525  19.732   6.777
 3949POPC   C3B50517  37.704  19.677   7.185
 3949POPC   C4B50518  37.581  19.350   7.468
 3950POPC   NC350519   5.110  25.524   5.260
 3950POPC   PO450520   5.586  25.109   5.483
 3950POPC   GL150521   5.249  25.233   5.809
 3950POPC   GL250522   4.968  25.441   5.771
 3950POPC   C1A50523   5.144  25.207   6.263
 3950POPC   D2A50524   5.341  25.224   6.680
 3950POPC   C3A50525   5.083  25.023   7.031
 3950POPC   C4A50526   5.116  25.056   7.504
 3950POPC   C1B50527   4.721  25.589   6.143
 3950POPC   C2B50528   4.563  25.469   6.553
 3950POPC   C3B50529   4.574  25.627   6.981
 3950POPC   C4B50530   4.705  25.295   7.250
 3951POPC   NC350531  26.327  31.106   5.242
 3951POPC   PO450532  26.733  31.629   5.415
 3951POPC   GL150533  26.877  31.704   5.822
 3951POPC   GL250534  26.851  31.350   5.896
 3951POPC   C1A50535  27.006  31.647   6.261
 3951POPC   D2A50536  26.999  31.266   6.498
 3951POPC   C3A50537  26.974  31.442   6.897
 3951POPC   C4A50538  26.890  31.516   7.301
 3951POPC   C1B50539  26.472  31.094   6.086
 3951POPC   C2B50540  26.320  31.026   6.530
 3951POPC   C3B50541  26.585  31.071   6.888
 3951POPC   C4B50542  26.463  31.207   7.283
 3952POPC   NC350543  14.171  21.590   5.648
 3952POPC   PO450544  14.519  21.097   5.354
 3952POPC   GL150545  14.550  21.307   5.762
 3952POPC   GL250546  14.719  21.648   5.736
 3952POPC   C1A50547  14.428  21.316   6.192
 3952POPC   D2A50548  14.595  21.186   6.535
 3952POPC   C3A50549  14.447  21.358   6.867
 3952POPC   C4A50550  14.224  21.242   7.172
 3952POPC   C1B50551  14.599  21.794   6.137
 3952POPC   C2B50552  14.688  21.687   6.531
 3952POPC   C3B50553  14.660  21.815   6.944
 3952POPC   C4B50554  14.690  21.562   7.295
 3953POPC   NC350555  13.918  32.023   5.480
 3953POPC   PO450556  13.318  32.238   5.247
 3953POPC   GL150557  13.530  32.281   5.729
 3953POPC   GL250558  13.709  31.995   5.940
 3953POPC   C1A50559  13.715  32.434   6.171
 3953POPC   D2A50560  13.847  32.445   6.604
 3953POPC   C3A50561  13.660  32.308   7.007
 3953POPC   C4A50562  13.493  32.079   7.390
 3953POPC   C1B50563  13.988  32.016   6.333
 3953POPC   C2B50564  13.916  31.932   6.788
 3953POPC   C3B50565  13.985  31.968   7.243
 3953POPC   C4B50566  14.011  31.874   7.715
 3954POPC   NC350567  12.548  42.905   5.345
 3954POPC   PO450568  12.975  43.418   5.516
 3954POPC   GL150569  12.724  43.128   5.765
 3954POPC   GL250570  12.905  42.819   5.718
 3954POPC   C1A50571  12.715  42.971   6.176
 3954POPC   D2A50572  12.915  43.241   6.491
 3954POPC   C3A50573  12.776  43.191   6.911
 3954POPC   C4A50574  12.957  43.129   7.297
 3954POPC   C1B50575  13.196  42.816   6.086
 3954POPC   C2B50576  13.226  42.818   6.545
 3954POPC   C3B50577  13.278  42.804   7.003
 3954POPC   C4B50578  13.384  42.748   7.445
 3955POPC   NC350579  40.155   2.528   5.309
 3955POPC   PO450580  40.331   3.111   5.635
 3955POPC   GL150581  39.948   2.927   5.845
 3955POPC   GL250582  39.809   2.591   5.755
 3955POPC   C1A50583  39.809   2.911   6.287
 3955POPC   D2A50584  39.909   2.696   6.654
 3955POPC   C3A50585  39.932   2.837   7.072
 3955POPC   C4A50586  40.341   2.856   7.257
 3955POPC   C1B50587  39.805   2.409   6.192
 3955POPC   C2B50588  39.640   2.266   6.604
 3955POPC   C3B50589  39.842   2.342   7.028
 3955POPC   C4B50590  39.870   2.539   7.483
 3956POPC   NC350591  33.253  10.011   5.493
 3956POPC   PO450592  32.928   9.432   5.339
 3956POPC   GL150593  32.949   9.647   5.728
 3956POPC   GL250594  33.251   9.702   5.907
 3956POPC   C1A50595  32.817   9.551   6.179
 3956POPC   D2A50596  32.990   9.469   6.591
 3956POPC   C3A50597  33.033   9.858   6.765
 3956POPC   C4A50598  32.991  10.108   7.109
 3956POPC   C1B50599  33.504   9.745   6.295
 3956POPC   C2B50600  33.482   9.617   6.731
 3956POPC   C3B50601  33.322   9.694   7.173
 3956POPC   C4B50602  33.402   9.611   7.645
 3957POPC   NC350603   1.414   4.543   5.500
 3957POPC   PO450604   0.805   4.203   5.230
 3957POPC   GL150605   1.079   4.137   5.630
 3957POPC   GL250606   1.430   4.041   5.714
 3957POPC   C1A50607   1.053   4.175   6.083
 3957POPC   D2A50608   1.210   4.201   6.513
 3957POPC   C3A50609   1.139   4.547   6.825
 3957POPC   C4A50610   1.272   4.698   7.226
 3957POPC   C1B50611   1.577   4.061   6.147
 3957POPC   C2B50612   1.656   3.959   6.586
 3957POPC   C3B50613   1.507   4.188   6.929
 3957POPC   C4B50614   1.201   4.188   7.228
 3958POPC   NC350615  25.776  24.752   5.538
 3958POPC   PO450616  26.422  24.506   5.350
 3958POPC   GL150617  26.131  24.406   5.700
 3958POPC   GL250618  26.142  24.727   5.903
 3958POPC   C1A50619  26.011  24.297   6.138
 3958POPC   D2A50620  25.863  24.320   6.576
 3958POPC   C3A50621  26.185  24.393   6.855
 3958POPC   C4A50622  26.304  24.579   7.223
 3958POPC   C1B50623  25.839  24.789   6.268
 3958POPC   C2B50624  25.906  24.830   6.728
 3958POPC   C3B50625  25.841  24.840   7.182
 3958POPC   C4B50626  25.623  24.588   7.485
 3959POPC   NC350627   6.797  25.061   5.337
 3959POPC   PO450628   6.901  25.657   5.040
 3959POPC   GL150629   6.691  25.523   5.570
 3959POPC   GL250630   6.810  25.240   5.782
 3959POPC   C1A50631   6.598  25.518   6.102
 3959POPC   D2A50632   6.700  25.331   6.507
 3959POPC   C3A50633   6.432  25.215   6.847
 3959POPC   C4A50634   6.502  25.367   7.254
 3959POPC   C1B50635   6.876  25.004   6.150
 3959POPC   C2B50636   6.938  24.872   6.566
 3959POPC   C3B50637   6.953  25.135   6.922
 3959POPC   C4B50638   6.964  25.154   7.360
 3960POPC   NC350639  29.393  28.645   5.459
 3960POPC   PO450640  28.877  28.890   5.183
 3960POPC   GL150641  28.968  28.651   5.689
 3960POPC   GL250642  29.148  28.309   5.791
 3960POPC   C1A50643  29.221  28.650   6.129
 3960POPC   D2A50644  29.086  28.399   6.495
 3960POPC   C3A50645  29.287  28.413   6.898
 3960POPC   C4A50646  29.014  28.367   7.243
 3960POPC   C1B50647  29.387  28.145   6.150
 3960POPC   C2B50648  29.570  28.189   6.544
 3960POPC   C3B50649  29.479  27.924   6.900
 3960POPC   C4B50650  29.259  27.903   7.286
 3961POPC   NC350651  21.154  18.036   5.429
 3961POPC   PO450652  21.544  18.556   5.389
 3961POPC   GL150653  21.441  18.345   5.772
 3961POPC   GL250654  21.498  18.007   5.807
 3961POPC   C1A50655  21.374  18.313   6.237
 3961POPC   D2A50656  21.474  18.216   6.709
 3961POPC   C3A50657  21.453  18.505   7.110
 3961POPC   C4A50658  21.343  18.494   7.563
 3961POPC   C1B50659  21.763  17.977   6.161
 3961POPC   C2B50660  21.742  17.779   6.550
 3961POPC   C3B50661  21.717  17.747   6.974
 3961POPC   C4B50662  21.460  17.999   7.188
 3962POPC   NC350663  30.344  34.478   5.385
 3962POPC   PO450664  29.698  34.476   5.402
 3962POPC   GL150665  29.835  34.707   5.750
 3962POPC   GL250666  30.191  34.835   5.726
 3962POPC   C1A50667  29.681  34.666   6.166
 3962POPC   D2A50668  29.641  34.850   6.568
 3962POPC   C3A50669  29.797  34.638   6.954
 3962POPC   C4A50670  29.786  34.792   7.370
 3962POPC   C1B50671  30.200  34.566   6.092
 3962POPC   C2B50672  30.107  34.566   6.522
 3962POPC   C3B50673  30.313  34.633   6.911
 3962POPC   C4B50674  30.272  34.533   7.336
 3963POPC   NC350675   2.001  23.312   5.399
 3963POPC   PO450676   1.761  22.683   5.514
 3963POPC   GL150677   1.911  22.762   5.898
 3963POPC   GL250678   2.057  23.103   5.877
 3963POPC   C1A50679   1.859  22.869   6.326
 3963POPC   D2A50680   1.975  23.017   6.724
 3963POPC   C3A50681   1.855  22.803   7.100
 3963POPC   C4A50682   1.994  23.177   7.286
 3963POPC   C1B50683   2.354  22.871   6.148
 3963POPC   C2B50684   2.442  22.858   6.581
 3963POPC   C3B50685   2.351  22.854   7.033
 3963POPC   C4B50686   2.607  22.848   7.381
 3964POPC   NC350687   9.886  13.045   5.111
 3964POPC   PO450688   9.559  12.698   5.625
 3964POPC   GL150689   9.689  12.902   5.939
 3964POPC   GL250690   9.928  12.663   6.071
 3964POPC   C1A50691   9.664  13.051   6.344
 3964POPC   D2A50692   9.906  12.837   6.634
 3964POPC   C3A50693   9.747  12.938   7.041
 3964POPC   C4A50694   9.698  13.026   7.484
 3964POPC   C1B50695   9.572  12.531   6.335
 3964POPC   C2B50696   9.497  12.553   6.790
 3964POPC   C3B50697   9.508  12.528   7.245
 3964POPC   C4B50698   9.478  12.583   7.689
 3965POPC   NC350699  37.530  37.753   5.369
 3965POPC   PO450700  37.988  37.220   5.460
 3965POPC   GL150701  37.682  37.460   5.769
 3965POPC   GL250702  37.733  37.844   5.828
 3965POPC   C1A50703  37.714  37.534   6.227
 3965POPC   D2A50704  37.713  37.791   6.591
 3965POPC   C3A50705  37.773  37.626   7.001
 3965POPC   C4A50706  37.737  37.436   7.405
 3965POPC   C1B50707  37.484  38.011   6.178
 3965POPC   C2B50708  37.281  38.060   6.580
 3965POPC   C3B50709  37.330  37.898   6.986
 3965POPC   C4B50710  37.445  37.862   7.410
 3966POPC   NC350711  31.311  14.297   5.446
 3966POPC   PO450712  31.818  14.758   5.653
 3966POPC   GL150713  31.525  14.525   5.889
 3966POPC   GL250714  31.151  14.549   5.850
 3966POPC   C1A50715  31.488  14.205   6.204
 3966POPC   D2A50716  31.779  13.890   6.397
 3966POPC   C3A50717  31.836  13.986   6.836
 3966POPC   C4A50718  31.663  14.346   7.061
 3966POPC   C1B50719  31.229  14.671   6.275
 3966POPC   C2B50720  31.378  14.639   6.719
 3966POPC   C3B50721  31.265  14.652   7.167
 3966POPC   C4B50722  31.278  14.248   7.421
 3967POPC   NC350723  15.839  30.969   5.552
 3967POPC   PO450724  16.301  30.441   5.596
 3967POPC   GL150725  16.049  30.625   5.876
 3967POPC   GL250726  15.764  30.423   5.874
 3967POPC   C1A50727  16.108  30.765   6.312
 3967POPC   D2A50728  15.899  30.739   6.714
 3967POPC   C3A50729  16.184  30.661   7.065
 3967POPC   C4A50730  16.147  30.789   7.535
 3967POPC   C1B50731  15.624  30.657   6.210
 3967POPC   C2B50732  15.511  30.428   6.561
 3967POPC   C3B50733  15.723  30.329   6.978
 3967POPC   C4B50734  15.737  30.685   7.259
 3968POPC   NC350735  39.015  29.376   5.462
 3968POPC   PO450736  39.384  28.900   5.706
 3968POPC   GL150737  39.153  29.072   5.995
 3968POPC   GL250738  39.244  29.455   5.915
 3968POPC   C1A50739  39.025  28.837   6.388
 3968POPC   D2A50740  38.743  28.792   6.755
 3968POPC   C3A50741  39.020  28.958   7.082
 3968POPC   C4A50742  39.456  29.067   7.216
 3968POPC   C1B50743  38.975  29.462   6.242
 3968POPC   C2B50744  38.998  29.292   6.625
 3968POPC   C3B50745  39.228  29.444   6.932
 3968POPC   C4B50746  38.965  29.439   7.257
 3969POPC   NC350747   6.260  27.094   5.645
 3969POPC   PO450748   5.688  26.819   5.433
 3969POPC   GL150749   5.791  26.958   5.818
 3969POPC   GL250750   5.547  27.183   5.911
 3969POPC   C1A50751   5.888  26.679   6.161
 3969POPC   D2A50752   6.033  26.603   6.582
 3969POPC   C3A50753   5.845  26.893   6.895
 3969POPC   C4A50754   6.013  27.044   7.287
 3969POPC   C1B50755   5.592  27.102   6.341
 3969POPC   C2B50756   5.367  27.258   6.680
 3969POPC   C3B50757   5.343  27.010   7.021
 3969POPC   C4B50758   5.510  27.060   7.393
 3970POPC   NC350759  40.631  21.674   5.431
 3970POPC   PO450760  41.069  21.137   5.462
 3970POPC   GL150761  40.822  21.214   5.832
 3970POPC   GL250762  40.543  21.425   5.874
 3970POPC   C1A50763  40.916  21.270   6.264
 3970POPC   D2A50764  41.101  21.031   6.598
 3970POPC   C3A50765  40.831  21.186   6.894
 3970POPC   C4A50766  40.857  21.201   7.327
 3970POPC   C1B50767  40.301  21.458   6.263
 3970POPC   C2B50768  40.454  21.537   6.681
 3970POPC   C3B50769  40.407  21.388   7.106
 3970POPC   C4B50770  40.501  21.460   7.564
 3971POPC   NC350771  21.194  23.280   5.360
 3971POPC   PO450772  21.829  22.974   5.290
 3971POPC   GL150773  21.439  22.945   5.638
 3971POPC   GL250774  21.133  22.780   5.666
 3971POPC   C1A50775  21.297  23.142   6.075
 3971POPC   D2A50776  21.301  23.276   6.533
 3971POPC   C3A50777  21.490  23.025   6.856
 3971POPC   C4A50778  21.502  23.036   7.298
 3971POPC   C1B50779  21.072  22.679   6.092
 3971POPC   C2B50780  21.340  22.710   6.429
 3971POPC   C3B50781  21.257  22.511   6.796
 3971POPC   C4B50782  21.177  22.667   7.181
 3972POPC   NC350783   5.254  29.566   5.347
 3972POPC   PO450784   4.765  28.998   5.428
 3972POPC   GL150785   5.064  29.006   5.774
 3972POPC   GL250786   5.206  29.345   5.799
 3972POPC   C1A50787   5.375  28.976   6.118
 3972POPC   D2A50788   5.488  29.010   6.558
 3972POPC   C3A50789   5.140  28.893   6.845
 3972POPC   C4A50790   5.048  29.120   7.223
 3972POPC   C1B50791   4.999  29.357   6.189
 3972POPC   C2B50792   5.046  29.343   6.622
 3972POPC   C3B50793   4.790  29.472   6.969
 3972POPC   C4B50794   4.535  29.266   7.306
 3973POPC   NC350795  38.109  21.840   5.573
 3973POPC   PO450796  37.426  21.725   5.353
 3973POPC   GL150797  37.558  21.474   5.765
 3973POPC   GL250798  37.945  21.429   5.820
 3973POPC   C1A50799  37.631  21.372   6.215
 3973POPC   D2A50800  37.462  21.554   6.558
 3973POPC   C3A50801  37.519  21.498   6.971
 3973POPC   C4A50802  37.676  21.183   7.233
 3973POPC   C1B50803  38.133  21.494   6.234
 3973POPC   C2B50804  37.958  21.412   6.663
 3973POPC   C3B50805  38.026  21.564   7.093
 3973POPC   C4B50806  37.972  21.650   7.550
 3974POPC   NC350807   9.918  12.415   5.544
 3974POPC   PO450808   9.421  11.928   5.396
 3974POPC   GL150809   9.697  11.997   5.751
 3974POPC   GL250810   9.843  11.715   5.812
 3974POPC   C1A50811   9.912  12.135   6.155
 3974POPC   D2A50812   9.863  12.211   6.593
 3974POPC   C3A50813   9.956  12.388   6.970
 3974POPC   C4A50814   9.968  12.117   7.302
 3974POPC   C1B50815   9.908  11.622   6.160
 3974POPC   C2B50816   9.708  11.734   6.511
 3974POPC   C3B50817   9.910  11.778   6.896
 3974POPC   C4B50818  10.050  11.606   7.271
 3975POPC   NC350819  27.894  34.732   5.284
 3975POPC   PO450820  27.381  34.367   5.397
 3975POPC   GL150821  27.359  34.619   5.769
 3975POPC   GL250822  27.710  34.670   5.774
 3975POPC   C1A50823  27.436  34.401   6.178
 3975POPC   D2A50824  27.477  34.179   6.579
 3975POPC   C3A50825  27.341  34.403   6.948
 3975POPC   C4A50826  27.468  34.456   7.365
 3975POPC   C1B50827  27.599  34.893   6.161
 3975POPC   C2B50828  27.661  34.705   6.557
 3975POPC   C3B50829  27.805  34.642   6.964
 3975POPC   C4B50830  27.694  34.909   7.266
 3976POPC   NC350831   0.202  31.163   5.506
 3976POPC   PO450832   0.576  31.694   5.522
 3976POPC   GL150833   0.441  31.475   5.861
 3976POPC   GL250834   0.744  31.275   5.870
 3976POPC   C1A50835   0.448  31.360   6.282
 3976POPC   D2A50836   0.696  31.283   6.610
 3976POPC   C3A50837   0.418  31.433   6.935
 3976POPC   C4A50838   0.544  31.510   7.389
 3976POPC   C1B50839   0.839  31.691   6.121
 3976POPC   C2B50840   0.906  31.846   6.535
 3976POPC   C3B50841   0.860  31.675   6.974
 3976POPC   C4B50842   0.861  31.236   7.091
 3977POPC   NC350843  14.282  28.560   5.278
 3977POPC   PO450844  14.554  28.048   5.507
 3977POPC   GL150845  14.245  28.279   5.774
 3977POPC   GL250846  14.360  28.609   5.804
 3977POPC   C1A50847  14.145  28.206   6.221
 3977POPC   D2A50848  14.302  28.089   6.625
 3977POPC   C3A50849  14.092  28.237   6.989
 3977POPC   C4A50850  14.211  28.029   7.357
 3977POPC   C1B50851  14.270  28.709   6.237
 3977POPC   C2B50852  14.368  28.582   6.650
 3977POPC   C3B50853  14.573  28.361   6.997
 3977POPC   C4B50854  14.358  28.534   7.356
 3978POPC   NC350855  40.359  39.047   5.356
 3978POPC   PO450856  39.763  39.207   5.391
 3978POPC   GL150857  39.953  39.246   5.802
 3978POPC   GL250858  40.292  39.176   5.852
 3978POPC   C1A50859  40.104  39.494   6.180
 3978POPC   D2A50860  40.045  39.312   6.561
 3978POPC   C3A50861  40.094  39.455   6.904
 3978POPC   C4A50862  40.172  39.401   7.256
 3978POPC   C1B50863  40.024  38.959   6.207
 3978POPC   C2B50864  40.075  38.787   6.644
 3978POPC   C3B50865  40.065  38.854   7.121
 3978POPC   C4B50866  40.358  38.928   7.478
 3979POPC   NC350867   2.790   5.569   5.455
 3979POPC   PO450868   2.889   6.224   5.413
 3979POPC   GL150869   2.837   5.924   5.842
 3979POPC   GL250870   2.893   5.523   5.932
 3979POPC   C1A50871   2.625   5.805   6.246
 3979POPC   D2A50872   2.393   5.891   6.589
 3979POPC   C3A50873   2.649   5.989   6.927
 3979POPC   C4A50874   2.738   5.961   7.358
 3979POPC   C1B50875   3.092   5.599   6.304
 3979POPC   C2B50876   3.067   5.881   6.612
 3979POPC   C3B50877   3.144   5.853   7.024
 3979POPC   C4B50878   3.220   6.092   7.375
 3980POPC   NC350879  30.904  31.839   5.274
 3980POPC   PO450880  30.580  32.420   5.506
 3980POPC   GL150881  30.652  32.229   5.911
 3980POPC   GL250882  30.775  31.918   5.768
 3980POPC   C1A50883  30.759  32.201   6.386
 3980POPC   D2A50884  31.041  32.240   6.785
 3980POPC   C3A50885  30.753  32.333   7.121
 3980POPC   C4A50886  30.312  32.486   7.064
 3980POPC   C1B50887  30.575  31.761   6.149
 3980POPC   C2B50888  30.563  31.600   6.563
 3980POPC   C3B50889  30.679  31.811   6.943
 3980POPC   C4B50890  30.943  31.866   7.311
 3981POPC   NC350891  14.635  17.176   5.379
 3981POPC   PO450892  14.311  17.796   5.504
 3981POPC   GL150893  14.227  17.560   5.877
 3981POPC   GL250894  14.548  17.410   5.839
 3981POPC   C1A50895  14.265  17.552   6.312
 3981POPC   D2A50896  14.656  17.617   6.521
 3981POPC   C3A50897  14.575  17.592   6.963
 3981POPC   C4A50898  14.163  17.459   7.127
 3981POPC   C1B50899  14.606  17.183   6.218
 3981POPC   C2B50900  14.385  17.121   6.605
 3981POPC   C3B50901  14.513  17.070   7.009
 3981POPC   C4B50902  14.494  17.085   7.449
 3982POPC   NC350903  19.390  38.861   5.504
 3982POPC   PO450904  19.309  38.115   5.461
 3982POPC   GL150905  19.265  38.375   5.792
 3982POPC   GL250906  18.917  38.321   5.874
 3982POPC   C1A50907  19.262  38.421   6.228
 3982POPC   D2A50908  19.064  38.241   6.568
 3982POPC   C3A50909  19.248  38.406   6.901
 3982POPC   C4A50910  19.258  38.364   7.296
 3982POPC   C1B50911  18.776  38.567   6.225
 3982POPC   C2B50912  18.719  38.620   6.663
 3982POPC   C3B50913  18.782  38.425   7.057
 3982POPC   C4B50914  18.830  38.605   7.450
 3983POPC   NC350915   2.837   8.119   5.438
 3983POPC   PO450916   2.293   8.101   5.768
 3983POPC   GL150917   2.668   8.297   5.892
 3983POPC   GL250918   2.872   7.977   5.963
 3983POPC   C1A50919   2.807   8.379   6.292
 3983POPC   D2A50920   2.621   8.143   6.610
 3983POPC   C3A50921   2.809   8.064   6.967
 3983POPC   C4A50922   2.672   8.431   7.150
 3983POPC   C1B50923   2.546   7.780   6.267
 3983POPC   C2B50924   2.361   7.709   6.685
 3983POPC   C3B50925   2.432   7.693   7.118
 3983POPC   C4B50926   2.556   7.992   7.419
 3984POPC   NC350927   1.821  29.395   5.401
 3984POPC   PO450928   2.352  28.829   5.429
 3984POPC   GL150929   2.006  28.924   5.765
 3984POPC   GL250930   1.867  29.273   5.891
 3984POPC   C1A50931   2.058  28.941   6.216
 3984POPC   D2A50932   1.906  29.209   6.543
 3984POPC   C3A50933   1.812  28.999   6.933
 3984POPC   C4A50934   1.556  28.690   7.120
 3984POPC   C1B50935   2.281  29.392   6.103
 3984POPC   C2B50936   2.386  29.429   6.562
 3984POPC   C3B50937   2.163  29.384   6.999
 3984POPC   C4B50938   2.011  29.129   7.401
 3985POPC   NC350939  11.379   5.935   4.985
 3985POPC   PO450940  10.977   6.270   5.551
 3985POPC   GL150941  11.315   6.046   5.808
 3985POPC   GL250942  11.302   5.638   5.821
 3985POPC   C1A50943  11.379   5.944   6.238
 3985POPC   D2A50944  11.191   5.846   6.634
 3985POPC   C3A50945  11.421   5.912   7.016
 3985POPC   C4A50946  11.580   6.324   7.168
 3985POPC   C1B50947  11.142   5.494   6.199
 3985POPC   C2B50948  11.029   5.377   6.578
 3985POPC   C3B50949  11.275   5.418   6.913
 3985POPC   C4B50950  11.072   5.511   7.256
 3986POPC   NC350951  30.803   9.784   5.444
 3986POPC   PO450952  30.392   9.248   5.471
 3986POPC   GL150953  30.432   9.494   5.871
 3986POPC   GL250954  30.402   9.825   5.889
 3986POPC   C1A50955  30.856   9.645   6.069
 3986POPC   D2A50956  31.058   9.690   6.440
 3986POPC   C3A50957  30.790   9.677   6.794
 3986POPC   C4A50958  30.830   9.845   7.198
 3986POPC   C1B50959  30.443   9.786   6.338
 3986POPC   C2B50960  30.575  10.108   6.613
 3986POPC   C3B50961  30.478  10.208   7.023
 3986POPC   C4B50962  30.486  10.101   7.460
 3987POPC   NC350963   7.851  16.425   5.482
 3987POPC   PO450964   8.178  15.862   5.387
 3987POPC   GL150965   8.272  15.928   5.833
 3987POPC   GL250966   8.346  16.296   5.792
 3987POPC   C1A50967   8.559  15.715   6.168
 3987POPC   D2A50968   8.684  15.789   6.591
 3987POPC   C3A50969   8.364  15.837   6.923
 3987POPC   C4A50970   8.014  15.584   7.103
 3987POPC   C1B50971   8.561  16.235   6.188
 3987POPC   C2B50972   8.667  16.310   6.622
 3987POPC   C3B50973   8.455  16.357   7.006
 3987POPC   C4B50974   8.245  16.135   7.335
 3988POPC   NC350975  29.518  18.374   5.510
 3988POPC   PO450976  28.900  18.064   5.466
 3988POPC   GL150977  29.097  18.270   5.813
 3988POPC   GL250978  29.231  18.621   5.852
 3988POPC   C1A50979  29.022  18.225   6.237
 3988POPC   D2A50980  28.915  17.989   6.628
 3988POPC   C3A50981  29.009  18.163   7.029
 3988POPC   C4A50982  29.056  17.852   7.379
 3988POPC   C1B50983  29.506  18.444   6.212
 3988POPC   C2B50984  29.431  18.132   6.578
 3988POPC   C3B50985  29.513  18.038   7.017
 3988POPC   C4B50986  29.581  18.435   7.177
 3989POPC   NC350987  40.580  35.635   5.401
 3989POPC   PO450988  40.209  35.079   5.626
 3989POPC   GL150989  40.657  35.203   5.737
 3989POPC   GL250990  41.009  35.162   5.566
 3989POPC   C1A50991  40.794  35.427   6.138
 3989POPC   D2A50992  40.830  35.533   6.591
 3989POPC   C3A50993  40.474  35.459   6.873
 3989POPC   C4A50994  40.702  35.293   7.198
 3989POPC   C1B50995  41.198  35.141   6.004
 3989POPC   C2B50996  41.202  35.028   6.459
 3989POPC   C3B50997  41.127  35.150   6.902
 3989POPC   C4B50998  41.006  34.863   7.243
 3990POPC   NC350999  21.692  35.046   5.302
 3990POPC   PO451000  21.277  35.559   5.358
 3990POPC   GL151001  21.601  35.464   5.616
 3990POPC   GL251002  21.407  35.163   5.714
 3990POPC   C1A51003  21.700  35.499   6.052
 3990POPC   D2A51004  21.394  35.400   6.386
 3990POPC   C3A51005  21.452  35.605   6.772
 3990POPC   C4A51006  21.361  35.445   7.183
 3990POPC   C1B51007  21.555  35.004   6.072
 3990POPC   C2B51008  21.755  35.037   6.474
 3990POPC   C3B51009  21.583  35.120   6.845
 3990POPC   C4B51010  21.693  35.058   7.253
 3991POPC   NC351011  19.601   1.623   5.068
 3991POPC   PO451012  19.748   1.177   5.590
 3991POPC   GL151013  19.913   1.210   5.955
 3991POPC   GL251014  20.101   0.903   5.954
 3991POPC   C1A51015  19.755   1.320   6.336
 3991POPC   D2A51016  19.563   1.387   6.693
 3991POPC   C3A51017  19.813   1.164   6.958
 3991POPC   C4A51018  19.810   1.312   7.327
 3991POPC   C1B51019  19.747   0.815   6.219
 3991POPC   C2B51020  19.683   0.832   6.589
 3991POPC   C3B51021  19.506   0.711   6.928
 3991POPC   C4B51022  19.625   0.817   7.314
 3992POPC   NC351023   7.834   7.286   5.382
 3992POPC   PO451024   8.384   7.569   5.301
 3992POPC   GL151025   8.217   7.454   5.713
 3992POPC   GL251026   8.510   7.515   5.871
 3992POPC   C1A51027   8.271   7.124   6.052
 3992POPC   D2A51028   8.353   7.068   6.490
 3992POPC   C3A51029   8.182   7.392   6.754
 3992POPC   C4A51030   8.202   7.413   7.186
 3992POPC   C1B51031   8.304   7.624   6.260
 3992POPC   C2B51032   8.480   7.823   6.630
 3992POPC   C3B51033   8.463   7.834   7.072
 3992POPC   C4B51034   8.324   7.807   7.519
 3993POPC   NC351035  44.154  22.538   5.133
 3993POPC   PO451036  43.672  22.105   5.363
 3993POPC   GL151037  43.793  22.242   5.799
 3993POPC   GL251038  43.543  22.505   5.896
 3993POPC   C1A51039  44.005  22.143   6.207
 3993POPC   D2A51040  44.257  22.260   6.599
 3993POPC   C3A51041  44.301  22.100   7.048
 3993POPC   C4A51042  44.080  21.996   7.433
 3993POPC   C1B51043  43.501  22.303   6.242
 3993POPC   C2B51044  43.647  22.236   6.590
 3993POPC   C3B51045  43.815  22.148   6.933
 3993POPC   C4B51046  43.661  22.230   7.291
 3994POPC   NC351047  17.258  40.893   5.341
 3994POPC   PO451048  17.775  40.503   5.417
 3994POPC   GL151049  17.846  40.773   5.792
 3994POPC   GL251050  17.682  41.064   5.687
 3994POPC   C1A51051  17.706  40.725   6.226
 3994POPC   D2A51052  17.887  40.633   6.627
 3994POPC   C3A51053  17.735  40.721   7.023
 3994POPC   C4A51054  17.385  40.472   7.216
 3994POPC   C1B51055  17.735  41.225   6.119
 3994POPC   C2B51056  17.679  41.111   6.579
 3994POPC   C3B51057  17.326  40.949   6.858
 3994POPC   C4B51058  17.383  40.981   7.309
 3995POPC   NC351059  21.441  37.809   5.401
 3995POPC   PO451060  21.404  37.177   5.634
 3995POPC   GL151061  21.268  37.577   5.813
 3995POPC   GL251062  21.583  37.767   5.879
 3995POPC   C1A51063  21.190  37.858   6.181
 3995POPC   D2A51064  21.051  37.799   6.608
 3995POPC   C3A51065  21.296  37.991   6.910
 3995POPC   C4A51066  21.555  37.906   7.239
 3995POPC   C1B51067  21.511  37.444   6.227
 3995POPC   C2B51068  21.643  37.394   6.623
 3995POPC   C3B51069  21.445  37.479   6.993
 3995POPC   C4B51070  21.391  37.224   7.318
 3996POPC   NC351071  26.512   6.513   5.585
 3996POPC   PO451072  27.009   6.797   5.293
 3996POPC   GL151073  26.925   6.739   5.773
 3996POPC   GL251074  26.947   6.389   5.890
 3996POPC   C1A51075  26.749   6.786   6.203
 3996POPC   D2A51076  26.825   7.073   6.564
 3996POPC   C3A51077  26.889   6.903   6.965
 3996POPC   C4A51078  26.768   6.814   7.391
 3996POPC   C1B51079  27.166   6.462   6.263
 3996POPC   C2B51080  27.032   6.447   6.674
 3996POPC   C3B51081  27.056   6.433   7.083
 3996POPC   C4B51082  27.303   6.686   7.297
 3997POPC   NC351083  29.452  19.881   5.112
 3997POPC   PO451084  28.974  19.595   5.499
 3997POPC   GL151085  29.275  19.813   5.769
 3997POPC   GL251086  29.029  19.755   6.006
 3997POPC   C1A51087  29.483  19.832   6.211
 3997POPC   D2A51088  29.573  19.703   6.648
 3997POPC   C3A51089  29.453  19.931   7.047
 3997POPC   C4A51090  29.411  19.866   7.504
 3997POPC   C1B51091  28.768  19.550   6.336
 3997POPC   C2B51092  28.949  19.625   6.710
 3997POPC   C3B51093  28.896  19.983   6.906
 3997POPC   C4B51094  28.949  20.040   7.316
 3998POPC   NC351095  27.172  16.586   5.542
 3998POPC   PO451096  27.826  16.803   5.396
 3998POPC   GL151097  27.616  16.770   5.756
 3998POPC   GL251098  27.619  16.411   5.754
 3998POPC   C1A51099  27.709  16.760   6.191
 3998POPC   D2A51100  27.532  16.702   6.595
 3998POPC   C3A51101  27.666  16.882   6.993
 3998POPC   C4A51102  27.335  16.878   7.306
 3998POPC   C1B51103  27.827  16.255   6.104
 3998POPC   C2B51104  27.696  16.154   6.516
 3998POPC   C3B51105  27.778  16.365   6.888
 3998POPC   C4B51106  27.559  16.430   7.237
 3999POPC   NC351107  43.483  29.560   5.468
 3999POPC   PO451108  44.133  29.560   5.385
 3999POPC   GL151109  44.032  29.847   5.736
 3999POPC   GL251110  43.711  29.787   5.873
 3999POPC   C1A51111  44.180  29.989   6.153
 3999POPC   D2A51112  44.144  29.845   6.576
 3999POPC   C3A51113  43.901  30.067   6.878
 3999POPC   C4A51114  43.810  29.932   7.292
 3999POPC   C1B51115  43.537  29.463   6.143
 3999POPC   C2B51116  43.663  29.607   6.556
 3999POPC   C3B51117  43.474  29.781   6.910
 3999POPC   C4B51118  43.448  29.563   7.324
 4000POPC   NC351119  26.508  36.262   5.510
 4000POPC   PO451120  27.119  36.269   5.375
 4000POPC   GL151121  27.030  35.971   5.730
 4000POPC   GL251122  26.681  35.847   5.814
 4000POPC   C1A51123  27.093  35.871   6.188
 4000POPC   D2A51124  27.187  36.032   6.624
 4000POPC   C3A51125  26.871  35.990   6.952
 4000POPC   C4A51126  26.518  36.240   7.055
 4000POPC   C1B51127  26.651  36.149   6.163
 4000POPC   C2B51128  26.695  36.319   6.562
 4000POPC   C3B51129  26.935  36.524   6.862
 4000POPC   C4B51130  26.948  36.418   7.275
 4001POPC   NC351131  22.816  38.386   5.405
 4001POPC   PO451132  23.147  38.967   5.325
 4001POPC   GL151133  23.163  38.812   5.734
 4001POPC   GL251134  22.805  38.825   5.751
 4001POPC   C1A51135  23.108  38.552   6.125
 4001POPC   D2A51136  22.885  38.198   6.345
 4001POPC   C3A51137  22.770  38.211   6.797
 4001POPC   C4A51138  22.929  38.432   7.157
 4001POPC   C1B51139  22.589  38.525   6.041
 4001POPC   C2B51140  22.442  38.465   6.467
 4001POPC   C3B51141  22.485  38.625   6.883
 4001POPC   C4B51142  22.409  38.414   7.253
 4002POPC   NC351143  35.628   1.620   5.538
 4002POPC   PO451144  35.576   0.982   5.354
 4002POPC   GL151145  35.426   1.035   5.791
 4002POPC   GL251146  35.070   0.912   5.833
 4002POPC   C1A51147  35.604   1.191   6.208
 4002POPC   D2A51148  35.778   1.011   6.601
 4002POPC   C3A51149  35.660   1.139   7.010
 4002POPC   C4A51150  35.307   1.354   7.210
 4002POPC   C1B51151  35.142   0.931   6.274
 4002POPC   C2B51152  35.237   1.071   6.698
 4002POPC   C3B51153  35.067   0.905   7.077
 4002POPC   C4B51154  34.993   0.811   7.504
 4003POPC   NC351155   4.250  28.057   5.354
 4003POPC   PO451156   4.504  27.451   5.523
 4003POPC   GL151157   4.451  27.661   5.874
 4003POPC   GL251158   4.117  27.784   5.819
 4003POPC   C1A51159   4.290  27.468   6.248
 4003POPC   D2A51160   4.140  27.528   6.664
 4003POPC   C3A51161   4.450  27.472   6.988
 4003POPC   C4A51162   4.755  27.464   7.337
 4003POPC   C1B51163   4.228  27.980   6.235
 4003POPC   C2B51164   4.494  27.914   6.594
 4003POPC   C3B51165   4.290  27.985   6.962
 4003POPC   C4B51166   4.179  27.786   7.312
 4004POPC   NC351167  35.605  20.564   5.412
 4004POPC   PO451168  34.991  20.900   5.413
 4004POPC   GL151169  35.090  20.826   5.856
 4004POPC   GL251170  35.435  20.684   5.883
 4004POPC   C1A51171  35.129  20.620   6.274
 4004POPC   D2A51172  35.431  20.393   6.499
 4004POPC   C3A51173  35.391  20.451   6.919
 4004POPC   C4A51174  35.060  20.519   7.244
 4004POPC   C1B51175  35.704  20.752   6.241
 4004POPC   C2B51176  35.867  20.673   6.635
 4004POPC   C3B51177  35.787  20.827   7.034
 4004POPC   C4B51178  35.548  20.628   7.374
 4005POPC   NC351179  22.580  17.737   5.040
 4005POPC   PO451180  22.202  17.411   5.516
 4005POPC   GL151181  22.217  17.700   5.877
 4005POPC   GL251182  22.491  17.485   5.972
 4005POPC   C1A51183  22.218  17.755   6.341
 4005POPC   D2A51184  22.121  17.468   6.677
 4005POPC   C3A51185  22.146  17.508   7.114
 4005POPC   C4A51186  22.128  17.875   7.342
 4005POPC   C1B51187  22.562  17.322   6.371
 4005POPC   C2B51188  22.552  17.235   6.791
 4005POPC   C3B51189  22.601  17.228   7.195
 4005POPC   C4B51190  22.469  17.467   7.578
 4006POPC   NC351191  35.788  40.939   5.246
 4006POPC   PO451192  35.923  41.595   5.489
 4006POPC   GL151193  35.983  41.575   5.911
 4006POPC   GL251194  35.638  41.521   5.928
 4006POPC   C1A51195  36.267  41.384   6.254
 4006POPC   D2A51196  36.516  41.524   6.580
 4006POPC   C3A51197  36.302  41.560   6.946
 4006POPC   C4A51198  36.422  41.432   7.325
 4006POPC   C1B51199  35.774  41.260   6.256
 4006POPC   C2B51200  35.951  41.269   6.672
 4006POPC   C3B51201  35.803  41.551   7.037
 4006POPC   C4B51202  35.926  41.994   7.133
 4007POPC   NC351203  11.674  17.920   5.372
 4007POPC   PO451204  11.249  18.408   5.340
 4007POPC   GL151205  11.549  18.330   5.706
 4007POPC   GL251206  11.576  18.010   5.868
 4007POPC   C1A51207  11.568  18.430   6.173
 4007POPC   D2A51208  11.511  18.280   6.610
 4007POPC   C3A51209  11.165  18.464   6.882
 4007POPC   C4A51210  11.156  18.451   7.329
 4007POPC   C1B51211  11.475  17.867   6.292
 4007POPC   C2B51212  11.189  17.854   6.675
 4007POPC   C3B51213  11.189  17.990   7.121
 4007POPC   C4B51214  11.444  18.057   7.508
 4008POPC   NC351215  29.474  40.864   5.503
 4008POPC   PO451216  30.052  41.043   5.348
 4008POPC   GL151217  30.043  40.851   5.789
 4008POPC   GL251218  29.986  40.499   5.811
 4008POPC   C1A51219  30.127  40.719   6.244
 4008POPC   D2A51220  30.228  40.863   6.662
 4008POPC   C3A51221  29.931  40.926   7.010
 4008POPC   C4A51222  29.861  41.064   7.465
 4008POPC   C1B51223  29.726  40.448   6.157
 4008POPC   C2B51224  29.689  40.668   6.544
 4008POPC   C3B51225  29.712  40.475   6.930
 4008POPC   C4B51226  29.790  40.567   7.360
 4009POPC   NC351227  18.841   9.918   5.446
 4009POPC   PO451228  19.104   9.278   5.591
 4009POPC   GL151229  19.066   9.666   5.856
 4009POPC   GL251230  19.269   9.974   5.814
 4009POPC   C1A51231  18.952   9.779   6.272
 4009POPC   D2A51232  19.159   9.655   6.657
 4009POPC   C3A51233  18.918   9.652   7.026
 4009POPC   C4A51234  18.809   9.364   7.360
 4009POPC   C1B51235  19.469   9.840   6.207
 4009POPC   C2B51236  19.668   9.824   6.616
 4009POPC   C3B51237  19.478   9.887   7.028
 4009POPC   C4B51238  19.231   9.794   7.405
 4010POPC   NC351239  10.513  44.205   5.667
 4010POPC   PO451240  10.540  43.596   5.312
 4010POPC   GL151241  10.636  43.684   5.750
 4010POPC   GL251242  10.296  43.540   5.790
 4010POPC   C1A51243  10.801  43.610   6.210
 4010POPC   D2A51244  10.723  43.879   6.607
 4010POPC   C3A51245  10.842  43.851   7.075
 4010POPC   C4A51246  10.577  43.792   7.457
 4010POPC   C1B51247  10.301  43.751   6.184
 4010POPC   C2B51248  10.286  43.603   6.611
 4010POPC   C3B51249  10.346  43.797   7.002
 4010POPC   C4B51250  10.123  44.076   7.296
 4011POPC   NC351251  35.560  36.850   5.388
 4011POPC   PO451252  34.956  37.146   5.378
 4011POPC   GL151253  35.208  37.175   5.749
 4011POPC   GL251254  35.222  36.803   5.775
 4011POPC   C1A51255  35.194  37.275   6.220
 4011POPC   D2A51256  35.209  37.358   6.693
 4011POPC   C3A51257  35.271  37.061   7.035
 4011POPC   C4A51258  35.229  36.933   7.465
 4011POPC   C1B51259  35.464  36.812   6.163
 4011POPC   C2B51260  35.548  36.906   6.611
 4011POPC   C3B51261  35.692  36.739   7.022
 4011POPC   C4B51262  35.704  36.727   7.490
 4012POPC   NC351263  31.003  38.511   5.610
 4012POPC   PO451264  30.366  38.374   5.288
 4012POPC   GL151265  30.345  38.329   5.764
 4012POPC   GL251266  30.548  38.543   5.859
 4012POPC   C1A51267  30.366  38.314   6.255
 4012POPC   D2A51268  30.405  38.605   6.629
 4012POPC   C3A51269  30.575  38.388   6.983
 4012POPC   C4A51270  31.035  38.306   7.073
 4012POPC   C1B51271  30.698  38.744   6.204
 4012POPC   C2B51272  31.028  38.755   6.503
 4012POPC   C3B51273  30.943  38.776   6.918
 4012POPC   C4B51274  30.634  38.832   7.197
 4013POPC   NC351275  17.691  11.133   5.359
 4013POPC   PO451276  17.043  11.432   5.347
 4013POPC   GL151277  17.238  11.265   5.679
 4013POPC   GL251278  17.066  11.458   5.884
 4013POPC   C1A51279  17.562  11.300   6.009
 4013POPC   D2A51280  17.638  11.303   6.475
 4013POPC   C3A51281  17.595  11.503   6.915
 4013POPC   C4A51282  17.682  11.191   7.231
 4013POPC   C1B51283  17.133  11.336   6.264
 4013POPC   C2B51284  17.184  11.530   6.612
 4013POPC   C3B51285  17.096  11.431   7.011
 4013POPC   C4B51286  17.319  11.521   7.369
 4014POPC   NC351287   0.229  17.122   5.517
 4014POPC   PO451288   0.596  17.712   5.487
 4014POPC   GL151289   0.418  17.473   5.847
 4014POPC   GL251290   0.083  17.604   5.954
 4014POPC   C1A51291   0.280  17.245   6.243
 4014POPC   D2A51292   0.150  17.413   6.675
 4014POPC   C3A51293   0.320  17.318   7.047
 4014POPC   C4A51294   0.359  16.934   7.166
 4014POPC   C1B51295   0.333  17.749   6.313
 4014POPC   C2B51296   0.201  17.936   6.695
 4014POPC   C3B51297   0.083  17.774   7.068
 4014POPC   C4B51298   0.343  17.703   7.395
 4015POPC   NC351299   5.974  28.712   5.411
 4015POPC   PO451300   5.679  29.332   5.373
 4015POPC   GL151301   5.695  29.523   5.786
 4015POPC   GL251302   5.958  29.298   5.858
 4015POPC   C1A51303   5.642  29.408   6.247
 4015POPC   D2A51304   5.944  29.285   6.586
 4015POPC   C3A51305   5.950  29.379   7.020
 4015POPC   C4A51306   5.728  29.574   7.318
 4015POPC   C1B51307   5.919  28.961   6.166
 4015POPC   C2B51308   6.191  28.847   6.505
 4015POPC   C3B51309   6.046  28.843   6.918
 4015POPC   C4B51310   6.333  28.761   7.204
 4016POPC   NC351311  44.463  17.055   5.462
 4016POPC   PO451312   0.089  16.655   5.626
 4016POPC   GL151313  44.734  16.791   5.870
 4016POPC   GL251314  44.350  16.799   5.893
 4016POPC   C1A51315  44.740  16.917   6.299
 4016POPC   D2A51316  44.678  16.669   6.677
 4016POPC   C3A51317  44.788  16.774   7.133
 4016POPC   C4A51318  44.799  16.593   7.555
 4016POPC   C1B51319  44.435  16.469   6.203
 4016POPC   C2B51320  44.329  16.260   6.586
 4016POPC   C3B51321  44.373  16.459   7.009
 4016POPC   C4B51322  44.330  16.424   7.430
 4017POPC   NC351323  38.224  26.687   5.448
 4017POPC   PO451324  37.744  27.174   5.342
 4017POPC   GL151325  37.629  27.013   5.754
 4017POPC   GL251326  37.972  26.948   5.828
 4017POPC   C1A51327  37.410  26.937   6.173
 4017POPC   D2A51328  37.261  27.094   6.596
 4017POPC   C3A51329  37.482  26.967   6.983
 4017POPC   C4A51330  37.512  26.512   7.105
 4017POPC   C1B51331  37.868  26.686   6.162
 4017POPC   C2B51332  37.698  26.694   6.583
 4017POPC   C3B51333  37.967  26.765   6.944
 4017POPC   C4B51334  38.217  27.082   7.130
 4018POPC   NC351335  13.956  36.752   5.528
 4018POPC   PO451336  13.485  37.153   5.379
 4018POPC   GL151337  13.487  36.802   5.732
 4018POPC   GL251338  13.777  36.669   5.985
 4018POPC   C1A51339  13.309  36.538   6.079
 4018POPC   D2A51340  13.434  36.421   6.507
 4018POPC   C3A51341  13.504  36.714   6.833
 4018POPC   C4A51342  13.733  36.849   7.189
 4018POPC   C1B51343  13.704  36.858   6.378
 4018POPC   C2B51344  13.776  37.139   6.748
 4018POPC   C3B51345  13.485  37.287   7.035
 4018POPC   C4B51346  13.460  37.409   7.459
 4019POPC   NC351347  16.555  17.265   4.964
 4019POPC   PO451348  16.776  17.762   5.372
 4019POPC   GL151349  16.831  17.499   5.764
 4019POPC   GL251350  16.528  17.481   5.946
 4019POPC   C1A51351  16.932  17.630   6.209
 4019POPC   D2A51352  16.840  17.842   6.604
 4019POPC   C3A51353  16.852  17.588   6.996
 4019POPC   C4A51354  16.703  17.391   7.379
 4019POPC   C1B51355  16.315  17.248   6.254
 4019POPC   C2B51356  16.167  17.441   6.585
 4019POPC   C3B51357  16.328  17.421   6.981
 4019POPC   C4B51358  16.213  17.423   7.407
 4020POPC   NC351359  10.180  42.559   5.072
 4020POPC   PO451360   9.731  42.112   5.352
 4020POPC   GL151361   9.654  42.272   5.754
 4020POPC   GL251362   9.948  42.416   5.927
 4020POPC   C1A51363   9.505  42.302   6.184
 4020POPC   D2A51364   9.215  42.162   6.495
 4020POPC   C3A51365   9.380  42.251   6.917
 4020POPC   C4A51366   9.479  42.017   7.288
 4020POPC   C1B51367  10.001  42.222   6.318
 4020POPC   C2B51368   9.882  42.251   6.746
 4020POPC   C3B51369   9.894  42.294   7.166
 4020POPC   C4B51370   9.662  42.629   7.195
 4021POPC   NC351371  22.719  44.220   5.530
 4021POPC   PO451372  23.206  43.823   5.327
 4021POPC   GL151373  22.952  43.691   5.707
 4021POPC   GL251374  22.945  44.002   5.915
 4021POPC   C1A51375  22.834  43.582   6.141
 4021POPC   D2A51376  23.092  43.651   6.491
 4021POPC   C3A51377  22.868  43.627   6.885
 4021POPC   C4A51378  22.667  43.617   7.303
 4021POPC   C1B51379  22.793  44.043   6.360
 4021POPC   C2B51380  22.628  44.077   6.781
 4021POPC   C3B51381  22.863  44.069   7.187
 4021POPC   C4B51382  23.120  44.084   7.583
 4022POPC   NC351383  18.567  43.363   5.397
 4022POPC   PO451384  18.282  43.982   5.451
 4022POPC   GL151385  18.331  43.961   5.868
 4022POPC   GL251386  18.648  43.764   5.772
 4022POPC   C1A51387  18.102  43.833   6.257
 4022POPC   D2A51388  18.162  43.676   6.670
 4022POPC   C3A51389  18.133  43.868   7.067
 4022POPC   C4A51390  18.011  43.662   7.434
 4022POPC   C1B51391  18.577  43.640   6.180
 4022POPC   C2B51392  18.662  43.798   6.593
 4022POPC   C3B51393  18.588  43.660   7.010
 4022POPC   C4B51394  18.502  43.775   7.454
 4023POPC   NC351395  36.348  34.429   5.386
 4023POPC   PO451396  35.725  34.435   5.165
 4023POPC   GL151397  35.926  34.551   5.620
 4023POPC   GL251398  36.004  34.221   5.792
 4023POPC   C1A51399  36.034  34.679   6.084
 4023POPC   D2A51400  35.916  34.666   6.552
 4023POPC   C3A51401  36.146  34.624   6.934
 4023POPC   C4A51402  36.238  34.804   7.316
 4023POPC   C1B51403  36.165  34.155   6.231
 4023POPC   C2B51404  36.066  34.154   6.686
 4023POPC   C3B51405  36.164  34.135   7.135
 4023POPC   C4B51406  36.023  34.374   7.476
 4024POPC   NC351407  41.816  23.107   5.470
 4024POPC   PO451408  41.465  22.600   5.474
 4024POPC   GL151409  41.585  22.845   5.845
 4024POPC   GL251410  41.448  23.201   5.820
 4024POPC   C1A51411  41.723  23.004   6.254
 4024POPC   D2A51412  41.929  22.838   6.628
 4024POPC   C3A51413  41.692  22.936   6.983
 4024POPC   C4A51414  41.739  23.194   7.320
 4024POPC   C1B51415  41.292  23.315   6.218
 4024POPC   C2B51416  41.478  23.383   6.616
 4024POPC   C3B51417  41.332  23.304   7.023
 4024POPC   C4B51418  41.060  23.148   7.328
 4025POPC   NC351419  34.420  42.769   5.408
 4025POPC   PO451420  34.575  43.369   5.596
 4025POPC   GL151421  34.615  43.003   5.824
 4025POPC   GL251422  34.943  43.000   5.789
 4025POPC   C1A51423  34.635  42.821   6.234
 4025POPC   D2A51424  34.741  43.036   6.637
 4025POPC   C3A51425  34.519  42.995   7.046
 4025POPC   C4A51426  34.273  42.714   7.287
 4025POPC   C1B51427  34.943  43.238   6.202
 4025POPC   C2B51428  34.966  43.488   6.626
 4025POPC   C3B51429  34.837  43.403   7.070
 4025POPC   C4B51430  34.974  43.495   7.498
 4026POPC   NC351431  39.855  13.193   5.759
 4026POPC   PO451432  40.206  12.715   5.328
 4026POPC   GL151433  40.137  12.652   5.770
 4026POPC   GL251434  39.887  12.777   6.034
 4026POPC   C1A51435  40.369  12.629   6.147
 4026POPC   D2A51436  40.170  12.529   6.540
 4026POPC   C3A51437  40.272  12.752   6.893
 4026POPC   C4A51438  40.102  12.812   7.278
 4026POPC   C1B51439  40.154  13.059   6.307
 4026POPC   C2B51440  40.139  13.277   6.644
 4026POPC   C3B51441  39.883  13.105   6.918
 4026POPC   C4B51442  39.821  13.223   7.291
 4027POPC   NC351443  12.237  33.788   5.300
 4027POPC   PO451444  11.711  34.182   5.475
 4027POPC   GL151445  12.096  34.016   5.739
 4027POPC   GL251446  12.163  33.609   5.809
 4027POPC   C1A51447  12.237  33.977   6.185
 4027POPC   D2A51448  12.080  33.733   6.550
 4027POPC   C3A51449  12.174  33.672   7.007
 4027POPC   C4A51450  12.100  34.063   7.253
 4027POPC   C1B51451  11.910  33.356   6.149
 4027POPC   C2B51452  11.767  33.349   6.597
 4027POPC   C3B51453  11.662  33.673   6.923
 4027POPC   C4B51454  11.599  33.857   7.344
 4028POPC   NC351455  18.746   2.203   5.448
 4028POPC   PO451456  18.192   1.842   5.373
 4028POPC   GL151457  18.405   1.937   5.746
 4028POPC   GL251458  18.284   2.263   5.786
 4028POPC   C1A51459  18.381   1.906   6.177
 4028POPC   D2A51460  18.135   2.088   6.515
 4028POPC   C3A51461  18.278   1.857   6.867
 4028POPC   C4A51462  18.479   1.939   7.235
 4028POPC   C1B51463  17.978   2.409   6.099
 4028POPC   C2B51464  17.581   2.379   6.335
 4028POPC   C3B51465  17.618   2.349   6.770
 4028POPC   C4B51466  18.000   2.260   7.011
 4029POPC   NC351467  38.985  15.843   5.465
 4029POPC   PO451468  39.543  15.614   5.431
 4029POPC   GL151469  39.355  15.721   5.828
 4029POPC   GL251470  39.469  16.046   5.913
 4029POPC   C1A51471  39.380  15.703   6.300
 4029POPC   D2A51472  39.590  15.923   6.672
 4029POPC   C3A51473  39.400  16.100   7.069
 4029POPC   C4A51474  39.276  15.807   7.388
 4029POPC   C1B51475  39.048  16.081   6.096
 4029POPC   C2B51476  38.943  16.231   6.503
 4029POPC   C3B51477  38.946  16.013   6.871
 4029POPC   C4B51478  38.927  16.241   7.267
 4030POPC   NC351479  29.242   4.470   5.494
 4030POPC   PO451480  29.764   4.716   5.783
 4030POPC   GL151481  29.353   4.516   5.987
 4030POPC   GL251482  29.112   4.189   5.898
 4030POPC   C1A51483  29.156   4.345   6.368
 4030POPC   D2A51484  29.082   4.544   6.721
 4030POPC   C3A51485  29.262   4.374   7.024
 4030POPC   C4A51486  29.141   4.021   7.223
 4030POPC   C1B51487  28.701   4.262   6.146
 4030POPC   C2B51488  28.603   4.406   6.559
 4030POPC   C3B51489  28.724   4.277   6.992
 4030POPC   C4B51490  28.719   4.190   7.455
 4031POPC   NC351491  30.057  21.234   5.426
 4031POPC   PO451492  29.691  21.651   5.199
 4031POPC   GL151493  29.777  21.490   5.738
 4031POPC   GL251494  29.709  21.168   5.847
 4031POPC   C1A51495  29.918  21.544   6.156
 4031POPC   D2A51496  29.819  21.493   6.585
 4031POPC   C3A51497  29.871  21.818   6.882
 4031POPC   C4A51498  29.805  21.610   7.277
 4031POPC   C1B51499  29.847  21.032   6.283
 4031POPC   C2B51500  29.829  20.989   6.731
 4031POPC   C3B51501  30.065  21.277   6.998
 4031POPC   C4B51502  30.157  21.307   7.459
 4032POPC   NC351503  20.226   5.510   5.377
 4032POPC   PO451504  20.741   5.844   5.552
 4032POPC   GL151505  20.723   5.629   5.899
 4032POPC   GL251506  20.383   5.544   5.920
 4032POPC   C1A51507  20.723   5.824   6.280
 4032POPC   D2A51508  20.553   6.139   6.531
 4032POPC   C3A51509  20.579   6.041   6.953
 4032POPC   C4A51510  20.289   6.252   7.207
 4032POPC   C1B51511  20.230   5.762   6.316
 4032POPC   C2B51512  20.236   5.701   6.774
 4032POPC   C3B51513  20.337   5.669   7.212
 4032POPC   C4B51514  20.456   5.472   7.651
 4033POPC   NC351515  36.045  20.314   5.465
 4033POPC   PO451516  36.119  20.923   5.180
 4033POPC   GL151517  36.239  20.738   5.691
 4033POPC   GL251518  35.998  20.515   5.911
 4033POPC   C1A51519  36.236  20.850   6.175
 4033POPC   D2A51520  36.358  20.537   6.475
 4033POPC   C3A51521  36.300  20.605   6.897
 4033POPC   C4A51522  36.298  20.944   7.178
 4033POPC   C1B51523  35.890  20.258   6.298
 4033POPC   C2B51524  35.820  20.135   6.722
 4033POPC   C3B51525  35.867  20.330   7.102
 4033POPC   C4B51526  36.213  20.454   7.381
 4034POPC   NC351527  42.241   9.805   5.403
 4034POPC   PO451528  42.756   9.369   5.463
 4034POPC   GL151529  42.523   9.654   5.826
 4034POPC   GL251530  42.294   9.946   5.873
 4034POPC   C1A51531  42.377   9.624   6.285
 4034POPC   D2A51532  42.570   9.531   6.695
 4034POPC   C3A51533  42.446   9.620   7.094
 4034POPC   C4A51534  42.051   9.712   7.197
 4034POPC   C1B51535  42.266  10.130   6.265
 4034POPC   C2B51536  42.361   9.996   6.694
 4034POPC   C3B51537  42.224  10.187   7.064
 4034POPC   C4B51538  41.937  10.136   7.426
 4035POPC   NC351539  32.620  19.214   5.615
 4035POPC   PO451540  32.485  18.708   5.199
 4035POPC   GL151541  32.286  18.829   5.602
 4035POPC   GL251542  32.512  18.708   5.813
 4035POPC   C1A51543  32.144  18.968   6.068
 4035POPC   D2A51544  31.953  18.872   6.471
 4035POPC   C3A51545  31.941  19.073   6.887
 4035POPC   C4A51546  32.156  18.953   7.267
 4035POPC   C1B51547  32.620  18.975   6.208
 4035POPC   C2B51548  32.466  19.304   6.474
 4035POPC   C3B51549  32.461  19.157   6.883
 4035POPC   C4B51550  32.655  18.991   7.244
 4036POPC   NC351551  38.373  35.892   5.119
 4036POPC   PO451552  38.618  36.533   5.208
 4036POPC   GL151553  38.663  36.222   5.520
 4036POPC   GL251554  38.892  36.422   5.733
 4036POPC   C1A51555  38.489  36.138   5.935
 4036POPC   D2A51556  38.452  36.230   6.401
 4036POPC   C3A51557  38.490  35.955   6.766
 4036POPC   C4A51558  38.427  35.973   7.208
 4036POPC   C1B51559  38.928  36.350   6.202
 4036POPC   C2B51560  38.813  36.514   6.633
 4036POPC   C3B51561  38.589  36.444   7.027
 4036POPC   C4B51562  38.774  36.302   7.416
 4037POPC   NC351563  17.480   3.778   5.282
 4037POPC   PO451564  17.685   3.191   5.481
 4037POPC   GL151565  17.470   3.439   5.785
 4037POPC   GL251566  17.353   3.807   5.778
 4037POPC   C1A51567  17.457   3.300   6.211
 4037POPC   D2A51568  17.256   3.356   6.586
 4037POPC   C3A51569  17.481   3.286   6.960
 4037POPC   C4A51570  17.665   3.491   7.328
 4037POPC   C1B51571  17.579   3.799   6.137
 4037POPC   C2B51572  17.690   3.665   6.541
 4037POPC   C3B51573  17.592   3.787   6.932
 4037POPC   C4B51574  17.633   3.999   7.326
 4038POPC   NC351575   8.117  15.409   5.425
 4038POPC   PO451576   8.210  14.840   5.150
 4038POPC   GL151577   8.289  14.932   5.626
 4038POPC   GL251578   8.019  15.051   5.824
 4038POPC   C1A51579   8.439  14.984   6.123
 4038POPC   D2A51580   8.379  15.264   6.479
 4038POPC   C3A51581   8.433  15.202   6.931
 4038POPC   C4A51582   8.191  15.152   7.307
 4038POPC   C1B51583   7.901  14.950   6.279
 4038POPC   C2B51584   7.762  14.824   6.741
 4038POPC   C3B51585   7.673  15.114   7.140
 4038POPC   C4B51586   7.714  15.153   7.615
 4039POPC   NC351587  19.601   5.328   5.386
 4039POPC   PO451588  20.038   4.776   5.303
 4039POPC   GL151589  20.078   4.843   5.756
 4039POPC   GL251590  20.046   5.185   5.730
 4039POPC   C1A51591  19.885   4.897   6.203
 4039POPC   D2A51592  20.125   4.817   6.593
 4039POPC   C3A51593  20.019   4.793   7.033
 4039POPC   C4A51594  19.584   4.830   7.094
 4039POPC   C1B51595  19.919   5.399   6.087
 4039POPC   C2B51596  19.827   5.480   6.505
 4039POPC   C3B51597  19.948   5.273   6.866
 4039POPC   C4B51598  19.807   5.255   7.259
 4040POPC   NC351599  12.578  24.369   5.344
 4040POPC   PO451600  13.207  24.337   5.235
 4040POPC   GL151601  12.938  24.457   5.673
 4040POPC   GL251602  13.041  24.772   5.814
 4040POPC   C1A51603  12.680  24.549   6.105
 4040POPC   D2A51604  12.813  24.660   6.577
 4040POPC   C3A51605  12.792  24.349   6.910
 4040POPC   C4A51606  12.607  24.337   7.334
 4040POPC   C1B51607  13.168  24.578   6.224
 4040POPC   C2B51608  13.270  24.420   6.619
 4040POPC   C3B51609  13.329  24.547   7.005
 4040POPC   C4B51610  13.000  24.658   7.295
 4041POPC   NC351611   0.540  26.475   5.278
 4041POPC   PO451612   0.759  25.807   5.322
 4041POPC   GL151613   0.555  25.899   5.690
 4041POPC   GL251614   0.644  26.231   5.773
 4041POPC   C1A51615   0.642  25.882   6.149
 4041POPC   D2A51616   0.380  25.913   6.484
 4041POPC   C3A51617   0.455  25.913   6.917
 4041POPC   C4A51618   0.149  25.619   7.055
 4041POPC   C1B51619   0.555  26.412   6.207
 4041POPC   C2B51620   0.336  26.390   6.621
 4041POPC   C3B51621   0.491  26.432   7.040
 4041POPC   C4B51622   0.430  26.649   7.422
 4042POPC   NC351623  40.905   6.022   5.383
 4042POPC   PO451624  40.601   5.521   5.702
 4042POPC   GL151625  40.650   5.954   5.865
 4042POPC   GL251626  40.972   6.151   5.885
 4042POPC   C1A51627  40.566   6.047   6.298
 4042POPC   D2A51628  40.547   6.198   6.751
 4042POPC   C3A51629  40.463   5.890   7.095
 4042POPC   C4A51630  40.421   5.872   7.564
 4042POPC   C1B51631  41.017   6.263   6.331
 4042POPC   C2B51632  41.204   6.174   6.718
 4042POPC   C3B51633  40.962   6.115   7.076
 4042POPC   C4B51634  40.685   6.257   7.355
 4043POPC   NC351635  34.861  27.834   5.662
 4043POPC   PO451636  34.362  27.557   5.175
 4043POPC   GL151637  34.459  27.509   5.677
 4043POPC   GL251638  34.459  27.782   5.945
 4043POPC   C1A51639  34.620  27.320   6.089
 4043POPC   D2A51640  34.957  27.323   6.442
 4043POPC   C3A51641  34.934  27.621   6.814
 4043POPC   C4A51642  34.850  27.537   7.249
 4043POPC   C1B51643  34.418  28.035   6.343
 4043POPC   C2B51644  34.420  27.854   6.750
 4043POPC   C3B51645  34.278  27.815   7.169
 4043POPC   C4B51646  34.545  27.773   7.574
 4044POPC   NC351647  42.751  17.364   5.498
 4044POPC   PO451648  43.190  17.775   5.367
 4044POPC   GL151649  43.216  17.636   5.803
 4044POPC   GL251650  42.888  17.701   5.872
 4044POPC   C1A51651  43.314  17.511   6.263
 4044POPC   D2A51652  43.383  17.454   6.737
 4044POPC   C3A51653  43.041  17.598   6.992
 4044POPC   C4A51654  43.179  17.721   7.401
 4044POPC   C1B51655  42.784  17.421   6.231
 4044POPC   C2B51656  42.667  17.119   6.570
 4044POPC   C3B51657  42.638  17.235   7.014
 4044POPC   C4B51658  42.898  17.295   7.400
 4045POPC   NC351659  36.277  23.398   5.484
 4045POPC   PO451660  36.311  22.781   5.301
 4045POPC   GL151661  36.210  22.924   5.752
 4045POPC   GL251662  36.482  23.128   5.872
 4045POPC   C1A51663  36.117  22.862   6.219
 4045POPC   D2A51664  35.825  22.675   6.536
 4045POPC   C3A51665  35.995  22.792   6.936
 4045POPC   C4A51666  36.026  22.750   7.397
 4045POPC   C1B51667  36.667  23.039   6.259
 4045POPC   C2B51668  36.446  23.071   6.633
 4045POPC   C3B51669  36.425  23.024   7.056
 4045POPC   C4B51670  36.124  23.249   7.320
 4046POPC   NC351671  29.345  32.542   5.355
 4046POPC   PO451672  29.154  31.938   5.299
 4046POPC   GL151673  29.209  32.010   5.733
 4046POPC   GL251674  29.389  32.311   5.823
 4046POPC   C1A51675  29.139  31.989   6.193
 4046POPC   D2A51676  29.160  32.184   6.623
 4046POPC   C3A51677  28.946  32.055   6.998
 4046POPC   C4A51678  29.199  32.136   7.341
 4046POPC   C1B51679  29.166  32.590   6.131
 4046POPC   C2B51680  28.879  32.586   6.497
 4046POPC   C3B51681  28.901  32.587   6.946
 4046POPC   C4B51682  28.781  32.416   7.344
 4047POPC   NC351683  38.111   5.208   5.364
 4047POPC   PO451684  37.517   4.960   5.420
 4047POPC   GL151685  37.780   5.164   5.761
 4047POPC   GL251686  37.989   4.870   5.854
 4047POPC   C1A51687  37.772   5.358   6.188
 4047POPC   D2A51688  37.696   5.170   6.608
 4047POPC   C3A51689  37.506   5.345   6.991
 4047POPC   C4A51690  37.576   5.291   7.485
 4047POPC   C1B51691  38.139   5.007   6.290
 4047POPC   C2B51692  38.162   5.055   6.750
 4047POPC   C3B51693  37.929   5.145   7.123
 4047POPC   C4B51694  37.959   4.961   7.562
 4048POPC   NC351695  25.107  27.039   5.274
 4048POPC   PO451696  25.311  26.517   5.622
 4048POPC   GL151697  25.308  26.942   5.754
 4048POPC   GL251698  24.968  26.905   5.850
 4048POPC   C1A51699  25.268  27.141   6.164
 4048POPC   D2A51700  25.085  26.987   6.571
 4048POPC   C3A51701  25.330  27.107   6.937
 4048POPC   C4A51702  25.370  26.986   7.339
 4048POPC   C1B51703  25.224  26.648   6.217
 4048POPC   C2B51704  25.288  26.486   6.615
 4048POPC   C3B51705  25.173  26.602   7.027
 4048POPC   C4B51706  25.411  26.369   7.313
 4049POPC   NC351707  44.498  14.556   5.372
 4049POPC   PO451708  44.129  14.041   5.632
 4049POPC   GL151709  44.357  14.311   5.881
 4049POPC   GL251710  44.565  14.622   5.879
 4049POPC   C1A51711  44.239  14.456   6.260
 4049POPC   D2A51712  44.320  14.689   6.609
 4049POPC   C3A51713  44.439  14.511   6.985
 4049POPC   C4A51714  44.769  14.622   7.252
 4049POPC   C1B51715  44.772  14.505   6.214
 4049POPC   C2B51716   0.032  14.259   6.440
 4049POPC   C3B51717  44.931  14.285   6.868
 4049POPC   C4B51718   0.214  14.280   7.188
 4050POPC   NC351719  22.017  18.513   5.368
 4050POPC   PO451720  22.506  18.130   5.295
 4050POPC   GL151721  22.353  18.269   5.727
 4050POPC   GL251722  21.991  18.184   5.757
 4050POPC   C1A51723  22.241  18.269   6.196
 4050POPC   D2A51724  21.977  18.223   6.556
 4050POPC   C3A51725  22.223  17.986   6.841
 4050POPC   C4A51726  22.543  18.218   7.090
 4050POPC   C1B51727  21.839  18.543   6.025
 4050POPC   C2B51728  21.695  18.660   6.420
 4050POPC   C3B51729  21.822  18.647   6.820
 4050POPC   C4B51730  21.898  18.270   7.111
 4051POPC   NC351731  24.680  20.565   5.209
 4051POPC   PO451732  24.066  20.222   5.180
 4051POPC   GL151733  24.239  20.339   5.620
 4051POPC   GL251734  24.495  20.597   5.686
 4051POPC   C1A51735  24.228  20.410   6.081
 4051POPC   D2A51736  24.088  20.591   6.487
 4051POPC   C3A51737  24.328  20.603   6.878
 4051POPC   C4A51738  24.459  20.576   7.296
 4051POPC   C1B51739  24.559  20.841   6.082
 4051POPC   C2B51740  24.478  20.937   6.511
 4051POPC   C3B51741  24.737  20.932   6.873
 4051POPC   C4B51742  24.850  20.893   7.278
 4052POPC   NC351743  25.966  18.464   5.410
 4052POPC   PO451744  25.658  17.882   5.662
 4052POPC   GL151745  25.943  18.211   5.885
 4052POPC   GL251746  26.195  18.483   5.850
 4052POPC   C1A51747  25.984  18.397   6.316
 4052POPC   D2A51748  26.081  18.102   6.640
 4052POPC   C3A51749  25.951  18.128   7.070
 4052POPC   C4A51750  26.133  18.114   7.473
 4052POPC   C1B51751  26.473  18.606   6.157
 4052POPC   C2B51752  26.403  18.557   6.576
 4052POPC   C3B51753  26.079  18.579   6.861
 4052POPC   C4B51754  26.128  18.609   7.294
 4053POPC   NC351755  42.225  18.501   5.328
 4053POPC   PO451756  42.041  17.941   5.546
 4053POPC   GL151757  42.225  18.255   5.787
 4053POPC   GL251758  42.088  18.618   5.807
 4053POPC   C1A51759  42.178  18.217   6.209
 4053POPC   D2A51760  42.411  18.256   6.569
 4053POPC   C3A51761  42.154  18.263   6.927
 4053POPC   C4A51762  42.260  18.063   7.314
 4053POPC   C1B51763  42.429  18.641   6.108
 4053POPC   C2B51764  42.605  18.744   6.511
 4053POPC   C3B51765  42.654  18.555   6.915
 4053POPC   C4B51766  42.459  18.521   7.285
 4054POPC   NC351767  35.171  40.289   5.487
 4054POPC   PO451768  35.638  39.790   5.516
 4054POPC   GL151769  35.428  39.979   5.821
 4054POPC   GL251770  35.106  39.852   5.795
 4054POPC   C1A51771  35.509  40.166   6.210
 4054POPC   D2A51772  35.308  40.336   6.526
 4054POPC   C3A51773  35.503  40.209   6.889
 4054POPC   C4A51774  35.226  40.121   7.192
 4054POPC   C1B51775  35.013  40.022   6.208
 4054POPC   C2B51776  34.913  39.916   6.640
 4054POPC   C3B51777  35.106  39.675   6.955
 4054POPC   C4B51778  35.251  39.671   7.387
 4055POPC   NC351779  13.071  17.603   5.395
 4055POPC   PO451780  12.662  17.005   5.502
 4055POPC   GL151781  12.808  17.304   5.792
 4055POPC   GL251782  12.724  17.664   5.775
 4055POPC   C1A51783  12.759  17.368   6.230
 4055POPC   D2A51784  13.039  17.290   6.591
 4055POPC   C3A51785  12.990  17.450   7.027
 4055POPC   C4A51786  13.037  17.295   7.464
 4055POPC   C1B51787  12.467  17.785   6.158
 4055POPC   C2B51788  12.641  17.739   6.584
 4055POPC   C3B51789  12.570  17.745   7.019
 4055POPC   C4B51790  12.825  17.789   7.415
 4056POPC   NC351791  42.350   6.959   5.131
 4056POPC   PO451792  42.321   7.644   5.256
 4056POPC   GL151793  42.241   7.676   5.714
 4056POPC   GL251794  42.446   7.395   5.836
 4056POPC   C1A51795  42.324   7.810   6.132
 4056POPC   D2A51796  42.608   7.617   6.400
 4056POPC   C3A51797  42.457   7.384   6.737
 4056POPC   C4A51798  42.446   7.667   7.071
 4056POPC   C1B51799  42.211   7.271   6.241
 4056POPC   C2B51800  42.070   7.017   6.630
 4056POPC   C3B51801  42.273   6.873   7.004
 4056POPC   C4B51802  42.512   7.160   7.224
 4057POPC   NC351803  17.311  41.872   5.465
 4057POPC   PO451804  17.383  42.514   5.232
 4057POPC   GL151805  17.343  42.407   5.710
 4057POPC   GL251806  17.686  42.244   5.769
 4057POPC   C1A51807  17.439  42.604   6.170
 4057POPC   D2A51808  17.364  42.710   6.648
 4057POPC   C3A51809  17.594  42.473   6.971
 4057POPC   C4A51810  17.402  42.379   7.386
 4057POPC   C1B51811  17.428  42.090   6.114
 4057POPC   C2B51812  17.346  42.229   6.520
 4057POPC   C3B51813  17.217  42.148   6.928
 4057POPC   C4B51814  17.315  41.837   7.202
 4058POPC   NC351815  27.253  26.217   5.488
 4058POPC   PO451816  27.476  25.609   5.299
 4058POPC   GL151817  27.589  25.769   5.779
 4058POPC   GL251818  27.502  26.103   5.905
 4058POPC   C1A51819  27.696  25.834   6.266
 4058POPC   D2A51820  27.679  25.971   6.701
 4058POPC   C3A51821  27.676  25.674   7.071
 4058POPC   C4A51822  27.663  25.645   7.552
 4058POPC   C1B51823  27.634  26.359   6.255
 4058POPC   C2B51824  27.795  26.460   6.678
 4058POPC   C3B51825  27.558  26.417   7.041
 4058POPC   C4B51826  27.523  26.091   7.325
 4059POPC   NC351827   8.011   8.904   5.556
 4059POPC   PO451828   8.453   9.343   5.452
 4059POPC   GL151829   8.448   9.054   5.796
 4059POPC   GL251830   8.520   8.711   5.656
 4059POPC   C1A51831   8.196   8.899   6.194
 4059POPC   D2A51832   8.060   8.937   6.634
 4059POPC   C3A51833   8.159   9.263   6.929
 4059POPC   C4A51834   8.091   9.155   7.349
 4059POPC   C1B51835   8.656   8.704   6.103
 4059POPC   C2B51836   8.505   8.655   6.529
 4059POPC   C3B51837   8.501   8.862   6.914
 4059POPC   C4B51838   8.382   8.729   7.301
 4060POPC   NC351839  30.782  12.984   5.426
 4060POPC   PO451840  30.151  12.698   5.253
 4060POPC   GL151841  30.483  12.622   5.646
 4060POPC   GL251842  30.663  12.905   5.900
 4060POPC   C1A51843  30.416  12.535   6.118
 4060POPC   D2A51844  30.595  12.780   6.459
 4060POPC   C3A51845  30.780  12.604   6.849
 4060POPC   C4A51846  30.731  12.727   7.275
 4060POPC   C1B51847  30.959  13.081   6.236
 4060POPC   C2B51848  31.139  12.931   6.656
 4060POPC   C3B51849  31.109  13.042   7.131
 4060POPC   C4B51850  31.084  13.111   7.630
 4061POPC   NC351851   2.411   6.238   5.316
 4061POPC   PO451852   2.603   6.894   5.292
 4061POPC   GL151853   2.648   6.757   5.724
 4061POPC   GL251854   2.899   6.995   5.795
 4061POPC   C1A51855   2.898   6.470   6.040
 4061POPC   D2A51856   2.800   6.268   6.435
 4061POPC   C3A51857   3.001   6.347   6.827
 4061POPC   C4A51858   2.885   6.429   7.206
 4061POPC   C1B51859   2.769   6.934   6.195
 4061POPC   C2B51860   2.621   6.844   6.581
 4061POPC   C3B51861   2.850   6.887   6.954
 4061POPC   C4B51862   3.144   7.133   7.213
 4062POPC   NC351863   2.877  23.358   5.493
 4062POPC   PO451864   2.574  23.963   5.423
 4062POPC   GL151865   2.684  23.731   5.782
 4062POPC   GL251866   3.010  23.751   5.834
 4062POPC   C1A51867   2.638  23.850   6.215
 4062POPC   D2A51868   2.708  23.669   6.598
 4062POPC   C3A51869   2.589  23.773   6.979
 4062POPC   C4A51870   2.880  23.749   7.296
 4062POPC   C1B51871   3.008  23.510   6.214
 4062POPC   C2B51872   3.203  23.533   6.583
 4062POPC   C3B51873   3.125  23.322   6.948
 4062POPC   C4B51874   2.959  23.230   7.356
 4063POPC   NC351875  19.009  31.846   5.307
 4063POPC   PO451876  18.974  32.568   5.412
 4063POPC   GL151877  18.927  32.277   5.721
 4063POPC   GL251878  19.191  32.045   5.757
 4063POPC   C1A51879  18.845  32.215   6.154
 4063POPC   D2A51880  19.077  32.228   6.555
 4063POPC   C3A51881  18.888  32.325   6.945
 4063POPC   C4A51882  18.952  32.619   7.295
 4063POPC   C1B51883  19.401  32.040   6.190
 4063POPC   C2B51884  19.552  31.984   6.619
 4063POPC   C3B51885  19.366  32.124   6.977
 4063POPC   C4B51886  19.095  32.014   7.296
 4064POPC   NC351887  10.289  31.610   5.526
 4064POPC   PO451888   9.613  31.357   5.423
 4064POPC   GL151889   9.588  31.377   5.843
 4064POPC   GL251890   9.728  31.706   5.890
 4064POPC   C1A51891   9.645  31.064   6.169
 4064POPC   D2A51892   9.767  30.860   6.535
 4064POPC   C3A51893   9.666  31.078   6.917
 4064POPC   C4A51894   9.772  31.248   7.311
 4064POPC   C1B51895   9.949  31.476   6.210
 4064POPC   C2B51896  10.032  31.306   6.642
 4064POPC   C3B51897   9.883  31.572   6.947
 4064POPC   C4B51898   9.426  31.707   7.027
 4065POPC   NC351899  43.722  38.494   5.516
 4065POPC   PO451900  44.419  38.357   5.553
 4065POPC   GL151901  44.121  38.419   5.866
 4065POPC   GL251902  44.160  38.755   5.934
 4065POPC   C1A51903  44.027  38.349   6.307
 4065POPC   D2A51904  44.197  38.458   6.718
 4065POPC   C3A51905  43.936  38.346   7.070
 4065POPC   C4A51906  43.521  38.205   6.939
 4065POPC   C1B51907  43.758  38.770   6.173
 4065POPC   C2B51908  43.673  38.636   6.610
 4065POPC   C3B51909  43.392  38.687   6.968
 4065POPC   C4B51910  43.713  38.788   7.268
 4066POPC   NC351911  23.723  21.694   5.460
 4066POPC   PO451912  23.558  21.035   5.301
 4066POPC   GL151913  23.547  21.289   5.727
 4066POPC   GL251914  23.324  21.603   5.776
 4066POPC   C1A51915  23.784  21.362   6.138
 4066POPC   D2A51916  24.027  21.606   6.510
 4066POPC   C3A51917  23.915  21.487   6.972
 4066POPC   C4A51918  23.646  21.165   7.199
 4066POPC   C1B51919  23.437  21.724   6.193
 4066POPC   C2B51920  23.535  21.472   6.600
 4066POPC   C3B51921  23.374  21.565   7.022
 4066POPC   C4B51922  23.586  21.610   7.425
 4067POPC   NC351923   7.550   1.671   5.446
 4067POPC   PO451924   7.172   2.256   5.409
 4067POPC   GL151925   7.406   2.136   5.784
 4067POPC   GL251926   7.649   2.397   5.864
 4067POPC   C1A51927   7.366   1.914   6.182
 4067POPC   D2A51928   7.218   2.037   6.593
 4067POPC   C3A51929   7.482   2.209   6.894
 4067POPC   C4A51930   7.508   2.403   7.279
 4067POPC   C1B51931   7.854   2.104   6.155
 4067POPC   C2B51932   7.739   1.914   6.551
 4067POPC   C3B51933   7.649   1.714   6.959
 4067POPC   C4B51934   7.560   1.794   7.404
 4068POPC   NC351935  28.678  35.564   5.396
 4068POPC   PO451936  28.215  35.067   5.335
 4068POPC   GL151937  28.443  35.208   5.688
 4068POPC   GL251938  28.300  35.487   5.855
 4068POPC   C1A51939  28.457  35.086   6.120
 4068POPC   D2A51940  28.673  35.120   6.498
 4068POPC   C3A51941  28.512  35.329   6.851
 4068POPC   C4A51942  28.597  35.193   7.255
 4068POPC   C1B51943  28.605  35.575   6.211
 4068POPC   C2B51944  28.636  35.819   6.603
 4068POPC   C3B51945  28.795  35.737   7.033
 4068POPC   C4B51946  28.651  35.677   7.464
 4069POPC   NC351947  22.353  35.782   5.445
 4069POPC   PO451948  22.174  35.161   5.349
 4069POPC   GL151949  22.285  35.370   5.750
 4069POPC   GL251950  22.410  35.048   5.822
 4069POPC   C1A51951  22.262  35.602   6.181
 4069POPC   D2A51952  21.911  35.568   6.518
 4069POPC   C3A51953  21.962  35.626   6.973
 4069POPC   C4A51954  22.044  35.404   7.366
 4069POPC   C1B51955  22.138  35.110   6.155
 4069POPC   C2B51956  22.274  35.213   6.560
 4069POPC   C3B51957  22.089  35.119   6.913
 4069POPC   C4B51958  22.244  34.952   7.270
 4070POPC   NC351959  13.543  37.653   5.390
 4070POPC   PO451960  14.125  37.890   5.523
 4070POPC   GL151961  13.761  37.713   5.863
 4070POPC   GL251962  13.527  37.410   5.838
 4070POPC   C1A51963  13.412  37.811   6.207
 4070POPC   D2A51964  13.210  37.825   6.665
 4070POPC   C3A51965  13.412  37.806   7.103
 4070POPC   C4A51966  13.755  38.079   7.296
 4070POPC   C1B51967  13.652  37.369   6.282
 4070POPC   C2B51968  13.684  37.634   6.649
 4070POPC   C3B51969  13.893  37.633   7.028
 4070POPC   C4B51970  13.981  37.288   7.230
 4071POPC   NC351971  20.947  32.780   5.376
 4071POPC   PO451972  21.559  33.046   5.397
 4071POPC   GL151973  21.226  33.060   5.753
 4071POPC   GL251974  21.178  32.705   5.863
 4071POPC   C1A51975  21.288  33.104   6.238
 4071POPC   D2A51976  21.603  32.966   6.608
 4071POPC   C3A51977  21.658  33.202   7.016
 4071POPC   C4A51978  21.362  33.281   7.349
 4071POPC   C1B51979  21.311  32.575   6.292
 4071POPC   C2B51980  21.100  32.809   6.614
 4071POPC   C3B51981  21.156  33.117   6.901
 4071POPC   C4B51982  21.254  32.806   7.222
 4072POPC   NC351983  35.493   4.663   5.462
 4072POPC   PO451984  35.299   3.974   5.301
 4072POPC   GL151985  35.433   4.120   5.705
 4072POPC   GL251986  35.197   4.394   5.781
 4072POPC   C1A51987  35.386   4.103   6.169
 4072POPC   D2A51988  35.141   4.201   6.544
 4072POPC   C3A51989  35.196   3.979   6.950
 4072POPC   C4A51990  35.445   4.091   7.318
 4072POPC   C1B51991  35.165   4.641   6.167
 4072POPC   C2B51992  35.012   4.722   6.564
 4072POPC   C3B51993  35.036   4.525   6.940
 4072POPC   C4B51994  35.290   4.568   7.284
 4073POPC   NC351995  11.834  15.077   5.191
 4073POPC   PO451996  12.030  15.569   5.594
 4073POPC   GL151997  12.106  15.164   5.810
 4073POPC   GL251998  12.429  15.006   5.903
 4073POPC   C1A51999  11.924  15.074   6.236
 4073POPC   D2A52000  11.883  15.397   6.564
 4073POPC   C3A52001  11.885  15.193   6.945
 4073POPC   C4A52002  12.148  15.010   7.236
 4073POPC   C1B52003  12.344  15.360   6.211
 4073POPC   C2B52004  12.444  15.481   6.602
 4073POPC   C3B52005  12.238  15.536   6.970
 4073POPC   C4B52006  12.242  15.493   7.386
 4074POPC   NC352007  20.613   0.130   5.383
 4074POPC   PO452008  20.314   0.759   5.492
 4074POPC   GL152009  20.508   0.608   5.845
 4074POPC   GL252010  20.803   0.460   5.804
 4074POPC   C1A52011  20.634   0.620   6.279
 4074POPC   D2A52012  20.638   0.735   6.723
 4074POPC   C3A52013  20.503   0.402   7.007
 4074POPC   C4A52014  20.387   0.349   7.458
 4074POPC   C1B52015  20.969   0.184   6.139
 4074POPC   C2B52016  20.963   0.353   6.571
 4074POPC   C3B52017  20.998   0.205   6.985
 4074POPC   C4B52018  20.881   0.318   7.375
 4075POPC   NC352019  42.848  24.239   5.483
 4075POPC   PO452020  42.868  23.521   5.516
 4075POPC   GL152021  43.128  23.852   5.685
 4075POPC   GL252022  43.423  23.668   5.716
 4075POPC   C1A52023  43.090  24.067   6.086
 4075POPC   D2A52024  43.139  23.928   6.490
 4075POPC   C3A52025  42.873  23.667   6.717
 4075POPC   C4A52026  42.838  23.721   7.129
 4075POPC   C1B52027  43.271  23.533   6.151
 4075POPC   C2B52028  43.431  23.524   6.608
 4075POPC   C3B52029  43.295  23.507   7.040
 4075POPC   C4B52030  42.964  23.239   7.243
 4076POPC   NC352031  23.178  23.177   5.519
 4076POPC   PO452032  22.535  23.137   5.355
 4076POPC   GL152033  22.763  22.959   5.750
 4076POPC   GL252034  23.098  22.881   5.917
 4076POPC   C1A52035  22.711  23.003   6.188
 4076POPC   D2A52036  22.879  22.881   6.563
 4076POPC   C3A52037  22.591  22.964   6.913
 4076POPC   C4A52038  22.605  22.892   7.351
 4076POPC   C1B52039  23.339  22.763   6.278
 4076POPC   C2B52040  23.392  23.019   6.657
 4076POPC   C3B52041  23.110  22.916   7.020
 4076POPC   C4B52042  23.173  22.509   7.192
 4077POPC   NC352043  26.275  22.142   5.514
 4077POPC   PO452044  25.566  22.202   5.380
 4077POPC   GL152045  25.741  22.238   5.791
 4077POPC   GL252046  25.849  21.917   5.788
 4077POPC   C1A52047  26.096  22.234   6.141
 4077POPC   D2A52048  26.335  22.451   6.475
 4077POPC   C3A52049  26.236  22.281   6.874
 4077POPC   C4A52050  26.400  21.934   7.112
 4077POPC   C1B52051  25.695  21.932   6.221
 4077POPC   C2B52052  25.874  22.030   6.602
 4077POPC   C3B52053  25.736  22.208   6.991
 4077POPC   C4B52054  25.668  21.944   7.332
 4078POPC   NC352055  12.886  32.147   5.388
 4078POPC   PO452056  12.844  32.858   5.235
 4078POPC   GL152057  12.819  32.609   5.639
 4078POPC   GL252058  13.114  32.604   5.834
 4078POPC   C1A52059  12.699  32.408   6.074
 4078POPC   D2A52060  12.748  32.186   6.507
 4078POPC   C3A52061  12.720  32.483   6.882
 4078POPC   C4A52062  12.496  32.560   7.284
 4078POPC   C1B52063  13.216  32.278   6.158
 4078POPC   C2B52064  13.492  32.037   6.466
 4078POPC   C3B52065  13.402  31.886   6.888
 4078POPC   C4B52066  13.126  32.211   7.065
 4079POPC   NC352067  27.706   7.750   5.705
 4079POPC   PO452068  27.560   8.365   5.378
 4079POPC   GL152069  27.489   8.217   5.793
 4079POPC   GL252070  27.819   8.344   5.835
 4079POPC   C1A52071  27.660   8.102   6.239
 4079POPC   D2A52072  27.796   8.305   6.568
 4079POPC   C3A52073  27.788   8.078   6.919
 4079POPC   C4A52074  27.836   8.256   7.305
 4079POPC   C1B52075  27.476   8.582   6.140
 4079POPC   C2B52076  27.299   8.583   6.567
 4079POPC   C3B52077  27.441   8.466   6.972
 4079POPC   C4B52078  27.497   8.601   7.381
 4080POPC   NC352079  16.603   3.305   5.444
 4080POPC   PO452080  17.005   3.813   5.364
 4080POPC   GL152081  16.943   3.514   5.740
 4080POPC   GL252082  16.579   3.535   5.895
 4080POPC   C1A52083  17.011   3.562   6.176
 4080POPC   D2A52084  16.780   3.602   6.569
 4080POPC   C3A52085  16.989   3.518   6.979
 4080POPC   C4A52086  16.991   3.410   7.422
 4080POPC   C1B52087  16.573   3.251   6.265
 4080POPC   C2B52088  16.387   3.314   6.720
 4080POPC   C3B52089  16.552   3.272   7.156
 4080POPC   C4B52090  16.576   3.208   7.619
 4081POPC   NC352091  39.907  39.664   5.522
 4081POPC   PO452092  40.237  40.286   5.517
 4081POPC   GL152093  39.953  40.173   5.847
 4081POPC   GL252094  39.591  40.301   5.804
 4081POPC   C1A52095  39.933  39.978   6.264
 4081POPC   D2A52096  39.835  39.842   6.708
 4081POPC   C3A52097  40.068  39.920   7.118
 4081POPC   C4A52098  40.019  39.827   7.581
 4081POPC   C1B52099  39.753  40.489   6.206
 4081POPC   C2B52100  39.992  40.367   6.588
 4081POPC   C3B52101  39.801  40.331   6.996
 4081POPC   C4B52102  39.868  40.310   7.446
 4082POPC   NC352103  14.830   7.836   5.380
 4082POPC   PO452104  14.221   8.178   5.382
 4082POPC   GL152105  14.375   8.272   5.789
 4082POPC   GL252106  14.624   8.028   5.861
 4082POPC   C1A52107  14.266   8.194   6.215
 4082POPC   D2A52108  14.432   8.371   6.600
 4082POPC   C3A52109  14.422   8.283   7.027
 4082POPC   C4A52110  14.142   8.305   7.383
 4082POPC   C1B52111  14.761   8.064   6.336
 4082POPC   C2B52112  14.839   7.953   6.806
 4082POPC   C3B52113  14.723   7.904   7.247
 4082POPC   C4B52114  14.328   7.848   7.288
 4083POPC   NC352115  16.973  27.057   5.488
 4083POPC   PO452116  16.501  26.542   5.328
 4083POPC   GL152117  16.662  26.653   5.752
 4083POPC   GL252118  17.010  26.694   5.846
 4083POPC   C1A52119  16.660  26.860   6.175
 4083POPC   D2A52120  16.825  27.056   6.561
 4083POPC   C3A52121  16.719  26.921   6.988
 4083POPC   C4A52122  16.592  26.983   7.438
 4083POPC   C1B52123  17.144  26.696   6.279
 4083POPC   C2B52124  17.003  26.483   6.647
 4083POPC   C3B52125  17.053  26.549   7.078
 4083POPC   C4B52126  17.115  26.931   7.336
 4084POPC   NC352127  36.361  14.735   5.340
 4084POPC   PO452128  35.941  14.188   5.372
 4084POPC   GL152129  36.104  14.390   5.722
 4084POPC   GL252130  36.423  14.547   5.790
 4084POPC   C1A52131  36.219  14.230   6.124
 4084POPC   D2A52132  36.093  14.352   6.521
 4084POPC   C3A52133  36.230  14.108   6.852
 4084POPC   C4A52134  36.218  13.954   7.262
 4084POPC   C1B52135  36.522  14.672   6.183
 4084POPC   C2B52136  36.298  14.841   6.518
 4084POPC   C3B52137  36.277  14.646   6.902
 4084POPC   C4B52138  36.082  14.634   7.276
 4085POPC   NC352139  39.990  36.893   5.270
 4085POPC   PO452140  40.159  37.488   5.400
 4085POPC   GL152141  39.982  37.170   5.702
 4085POPC   GL252142  40.201  36.863   5.736
 4085POPC   C1A52143  39.827  36.926   6.085
 4085POPC   D2A52144  39.731  36.645   6.461
 4085POPC   C3A52145  39.748  36.873   6.837
 4085POPC   C4A52146  39.852  37.006   7.243
 4085POPC   C1B52147  40.342  36.964   6.154
 4085POPC   C2B52148  40.189  36.898   6.559
 4085POPC   C3B52149  40.239  36.766   6.996
 4085POPC   C4B52150  40.338  36.968   7.398
 4086POPC   NC352151   5.421  24.755   5.720
 4086POPC   PO452152   4.912  24.505   5.382
 4086POPC   GL152153   5.031  24.412   5.792
 4086POPC   GL252154   5.310  24.230   5.862
 4086POPC   C1A52155   5.011  24.682   6.185
 4086POPC   D2A52156   5.017  24.786   6.585
 4086POPC   C3A52157   5.079  24.450   6.870
 4086POPC   C4A52158   5.105  24.561   7.287
 4086POPC   C1B52159   5.215  24.222   6.298
 4086POPC   C2B52160   5.496  24.163   6.651
 4086POPC   C3B52161   5.417  24.026   7.050
 4086POPC   C4B52162   5.424  24.217   7.454
 4087POPC   NC352163  26.131  15.486   5.049
 4087POPC   PO452164  26.203  14.918   5.405
 4087POPC   GL152165  26.116  15.080   5.841
 4087POPC   GL252166  25.818  15.291   5.791
 4087POPC   C1A52167  26.097  14.882   6.294
 4087POPC   D2A52168  26.179  14.757   6.740
 4087POPC   C3A52169  26.145  15.022   7.112
 4087POPC   C4A52170  25.801  15.271   7.274
 4087POPC   C1B52171  25.922  15.347   6.235
 4087POPC   C2B52172  25.962  15.299   6.709
 4087POPC   C3B52173  25.957  15.662   6.988
 4087POPC   C4B52174  25.984  15.722   7.438
 4088POPC   NC352175  42.881  37.041   5.534
 4088POPC   PO452176  42.323  36.624   5.585
 4088POPC   GL152177  42.337  36.988   5.870
 4088POPC   GL252178  42.236  37.316   5.716
 4088POPC   C1A52179  42.456  36.986   6.317
 4088POPC   D2A52180  42.765  36.941   6.658
 4088POPC   C3A52181  42.603  36.869   7.047
 4088POPC   C4A52182  42.329  37.084   7.290
 4088POPC   C1B52183  42.147  37.461   6.138
 4088POPC   C2B52184  42.049  37.330   6.580
 4088POPC   C3B52185  41.953  37.525   6.970
 4088POPC   C4B52186  41.921  37.346   7.377
 4089POPC   NC352187  27.005   8.414   5.445
 4089POPC   PO452188  26.732   7.810   5.462
 4089POPC   GL152189  26.733   8.158   5.814
 4089POPC   GL252190  26.948   8.471   5.948
 4089POPC   C1A52191  26.637   8.205   6.253
 4089POPC   D2A52192  26.816   8.049   6.613
 4089POPC   C3A52193  26.942   8.279   6.941
 4089POPC   C4A52194  26.749   7.983   7.190
 4089POPC   C1B52195  27.155   8.178   6.242
 4089POPC   C2B52196  27.341   8.061   6.660
 4089POPC   C3B52197  27.333   7.977   7.124
 4089POPC   C4B52198  27.139   8.222   7.436
 4090POPC   NC352199  32.702  34.312   5.174
 4090POPC   PO452200  32.909  33.646   5.376
 4090POPC   GL152201  33.092  33.823   5.778
 4090POPC   GL252202  32.854  34.115   5.737
 4090POPC   C1A52203  33.188  33.784   6.245
 4090POPC   D2A52204  32.887  33.630   6.571
 4090POPC   C3A52205  33.002  33.768   6.994
 4090POPC   C4A52206  33.338  33.859   7.291
 4090POPC   C1B52207  32.787  34.086   6.200
 4090POPC   C2B52208  33.077  34.197   6.558
 4090POPC   C3B52209  33.051  34.297   7.000
 4090POPC   C4B52210  32.823  34.115   7.349
 4091POPC   NC352211   1.269  40.716   5.337
 4091POPC   PO452212   0.813  41.171   5.582
 4091POPC   GL152213   1.137  40.962   5.826
 4091POPC   GL252214   1.504  41.006   5.750
 4091POPC   C1A52215   1.210  40.715   6.206
 4091POPC   D2A52216   1.126  40.544   6.622
 4091POPC   C3A52217   1.007  40.856   6.971
 4091POPC   C4A52218   0.917  40.734   7.405
 4091POPC   C1B52219   1.602  41.036   6.195
 4091POPC   C2B52220   1.430  40.979   6.613
 4091POPC   C3B52221   1.482  40.691   6.945
 4091POPC   C4B52222   1.518  40.889   7.280
 4092POPC   NC352223   4.199  19.336   5.387
 4092POPC   PO452224   4.665  18.838   5.182
 4092POPC   GL152225   4.608  19.130   5.598
 4092POPC   GL252226   4.337  18.937   5.714
 4092POPC   C1A52227   4.617  19.261   6.082
 4092POPC   D2A52228   4.337  19.421   6.460
 4092POPC   C3A52229   4.371  19.269   6.903
 4092POPC   C4A52230   4.028  19.235   7.232
 4092POPC   C1B52231   4.031  18.737   5.973
 4092POPC   C2B52232   3.996  18.845   6.387
 4092POPC   C3B52233   4.015  18.890   6.822
 4092POPC   C4B52234   4.273  18.815   7.149
 4093POPC   NC352235  37.922   0.701   5.761
 4093POPC   PO452236  37.996   0.188   5.350
 4093POPC   GL152237  37.710   0.128   5.819
 4093POPC   GL252238  37.524   0.394   5.861
 4093POPC   C1A52239  37.690   0.269   6.331
 4093POPC   D2A52240  37.687   0.600   6.663
 4093POPC   C3A52241  37.766   0.380   7.033
 4093POPC   C4A52242  38.103   0.179   7.222
 4093POPC   C1B52243  37.314   0.584   6.221
 4093POPC   C2B52244  37.171   0.527   6.611
 4093POPC   C3B52245  37.262   0.785   6.936
 4093POPC   C4B52246  37.425   0.639   7.296
 4094POPC   NC352247   4.726  31.245   5.500
 4094POPC   PO452248   4.126  31.715   5.472
 4094POPC   GL152249   4.387  31.655   5.881
 4094POPC   GL252250   4.440  31.289   5.971
 4094POPC   C1A52251   4.291  31.604   6.354
 4094POPC   D2A52252   4.034  31.457   6.732
 4094POPC   C3A52253   4.261  31.462   7.122
 4094POPC   C4A52254   4.537  31.779   7.321
 4094POPC   C1B52255   4.115  31.125   6.309
 4094POPC   C2B52256   4.127  30.952   6.748
 4094POPC   C3B52257   3.911  31.052   7.150
 4094POPC   C4B52258   4.030  31.177   7.566
 4095POPC   NC352259  39.737  35.202   5.721
 4095POPC   PO452260  40.157  35.514   5.263
 4095POPC   GL152261  40.076  35.587   5.757
 4095POPC   GL252262  40.295  35.472   5.973
 4095POPC   C1A52263  39.841  35.584   6.225
 4095POPC   D2A52264  39.796  35.361   6.632
 4095POPC   C3A52265  39.679  35.539   7.041
 4095POPC   C4A52266  39.955  35.523   7.422
 4095POPC   C1B52267  40.318  35.314   6.385
 4095POPC   C2B52268  40.170  35.012   6.686
 4095POPC   C3B52269  40.005  35.109   7.077
 4095POPC   C4B52270  40.270  35.129   7.416
 4096POPC   NC352271  13.434  31.215   5.411
 4096POPC   PO452272  12.882  31.696   5.237
 4096POPC   GL152273  12.819  31.645   5.687
 4096POPC   GL252274  12.716  31.308   5.767
 4096POPC   C1A52275  12.760  31.697   6.150
 4096POPC   D2A52276  13.037  31.740   6.518
 4096POPC   C3A52277  12.895  31.741   6.947
 4096POPC   C4A52278  13.141  31.711   7.308
 4096POPC   C1B52279  12.973  31.204   6.100
 4096POPC   C2B52280  12.834  31.253   6.506
 4096POPC   C3B52281  12.908  31.202   6.926
 4096POPC   C4B52282  12.784  31.280   7.312
 4097POPC   NC352283   8.807   7.505   5.456
 4097POPC   PO452284   9.271   7.844   5.561
 4097POPC   GL152285   9.122   7.574   5.874
 4097POPC   GL252286   8.961   7.235   5.869
 4097POPC   C1A52287   9.275   7.426   6.261
 4097POPC   D2A52288   9.164   7.192   6.632
 4097POPC   C3A52289   9.139   7.409   7.031
 4097POPC   C4A52290   9.180   7.294   7.469
 4097POPC   C1B52291   8.759   7.322   6.290
 4097POPC   C2B52292   8.689   7.363   6.747
 4097POPC   C3B52293   8.654   7.159   7.117
 4097POPC   C4B52294   8.782   7.001   7.496
 4098POPC   NC352295  15.035  25.690   5.546
 4098POPC   PO452296  15.521  26.159   5.496
 4098POPC   GL152297  15.175  26.289   5.732
 4098POPC   GL252298  15.433  26.384   5.953
 4098POPC   C1A52299  15.006  26.059   6.105
 4098POPC   D2A52300  15.132  25.775   6.478
 4098POPC   C3A52301  15.133  26.000   6.887
 4098POPC   C4A52302  14.886  26.036   7.270
 4098POPC   C1B52303  15.429  26.171   6.366
 4098POPC   C2B52304  15.622  26.181   6.760
 4098POPC   C3B52305  15.555  26.049   7.178
 4098POPC   C4B52306  15.622  26.251   7.616
 4099POPC   NC352307  34.984   7.006   5.618
 4099POPC   PO452308  34.850   7.620   5.388
 4099POPC   GL152309  35.152   7.483   5.760
 4099POPC   GL252310  35.452   7.212   5.745
 4099POPC   C1A52311  35.219   7.342   6.203
 4099POPC   D2A52312  35.138   7.520   6.613
 4099POPC   C3A52313  35.096   7.305   6.995
 4099POPC   C4A52314  35.313   7.431   7.325
 4099POPC   C1B52315  35.730   7.170   6.116
 4099POPC   C2B52316  35.599   7.238   6.543
 4099POPC   C3B52317  35.597   7.170   6.974
 4099POPC   C4B52318  35.822   7.425   7.261
 4100POPC   NC352319  25.143  12.348   5.399
 4100POPC   PO452320  25.358  11.708   5.456
 4100POPC   GL152321  25.302  12.006   5.787
 4100POPC   GL252322  24.973  12.132   5.838
 4100POPC   C1A52323  25.215  11.887   6.221
 4100POPC   D2A52324  25.478  11.872   6.569
 4100POPC   C3A52325  25.240  11.802   6.931
 4100POPC   C4A52326  25.345  12.046   7.280
 4100POPC   C1B52327  24.969  12.340   6.246
 4100POPC   C2B52328  25.106  12.229   6.662
 4100POPC   C3B52329  24.891  12.169   7.067
 4100POPC   C4B52330  24.872  12.246   7.520
 4101POPC   NC352331   8.360  39.450   5.410
 4101POPC   PO452332   8.307  38.848   5.611
 4101POPC   GL152333   8.159  39.056   5.917
 4101POPC   GL252334   7.994  39.369   5.800
 4101POPC   C1A52335   8.404  38.982   6.243
 4101POPC   D2A52336   8.485  39.279   6.480
 4101POPC   C3A52337   8.396  39.146   6.840
 4101POPC   C4A52338   8.301  39.425   7.174
 4101POPC   C1B52339   7.790  39.283   6.215
 4101POPC   C2B52340   7.958  39.408   6.629
 4101POPC   C3B52341   7.904  39.155   6.988
 4101POPC   C4B52342   7.787  38.871   7.299
 4102POPC   NC352343   7.413  39.751   5.329
 4102POPC   PO452344   7.028  40.246   5.582
 4102POPC   GL152345   7.333  40.035   5.769
 4102POPC   GL252346   7.108  39.794   5.824
 4102POPC   C1A52347   7.460  39.975   6.188
 4102POPC   D2A52348   7.611  39.960   6.611
 4102POPC   C3A52349   7.444  40.335   6.813
 4102POPC   C4A52350   7.424  40.335   7.255
 4102POPC   C1B52351   6.905  39.838   6.214
 4102POPC   C2B52352   7.085  39.962   6.601
 4102POPC   C3B52353   7.237  39.923   7.009
 4102POPC   C4B52354   6.915  39.903   7.274
 4103POPC   NC352355   9.457  15.316   5.225
 4103POPC   PO452356   9.775  14.823   5.633
 4103POPC   GL152357   9.767  15.233   5.878
 4103POPC   GL252358  10.076  15.398   5.970
 4103POPC   C1A52359   9.578  15.244   6.315
 4103POPC   D2A52360   9.443  14.921   6.655
 4103POPC   C3A52361   9.614  15.023   7.071
 4103POPC   C4A52362   9.694  15.488   7.141
 4103POPC   C1B52363  10.073  15.037   6.261
 4103POPC   C2B52364   9.940  15.123   6.678
 4103POPC   C3B52365  10.107  15.206   7.075
 4103POPC   C4B52366  10.327  14.965   7.338
 4104POPC   NC352367  11.657  40.320   5.445
 4104POPC   PO452368  11.477  40.901   5.315
 4104POPC   GL152369  11.531  40.935   5.808
 4104POPC   GL252370  11.225  40.858   6.017
 4104POPC   C1A52371  11.635  40.817   6.267
 4104POPC   D2A52372  11.372  40.464   6.454
 4104POPC   C3A52373  11.124  40.560   6.812
 4104POPC   C4A52374  11.218  40.713   7.210
 4104POPC   C1B52375  11.144  41.011   6.432
 4104POPC   C2B52376  11.157  41.094   6.872
 4104POPC   C3B52377  11.082  41.234   7.312
 4104POPC   C4B52378  10.854  41.249   7.734
 4105POPC   NC352379  40.584  38.366   5.539
 4105POPC   PO452380  40.986  37.818   5.379
 4105POPC   GL152381  40.858  37.741   5.787
 4105POPC   GL252382  40.526  37.876   5.758
 4105POPC   C1A52383  40.945  37.821   6.213
 4105POPC   D2A52384  40.797  37.700   6.604
 4105POPC   C3A52385  40.932  37.785   7.012
 4105POPC   C4A52386  41.139  37.571   7.340
 4105POPC   C1B52387  40.442  37.728   6.184
 4105POPC   C2B52388  40.315  37.520   6.581
 4105POPC   C3B52389  40.412  37.720   6.968
 4105POPC   C4B52390  40.547  38.070   7.201
 4106POPC   NC352391  44.548  30.841   5.385
 4106POPC   PO452392  44.330  30.281   5.557
 4106POPC   GL152393  44.625  30.564   5.804
 4106POPC   GL252394  44.952  30.744   5.747
 4106POPC   C1A52395  44.643  30.754   6.206
 4106POPC   D2A52396  44.660  30.718   6.646
 4106POPC   C3A52397  44.503  30.556   7.019
 4106POPC   C4A52398  44.256  30.863   7.208
 4106POPC   C1B52399   0.069  31.033   6.136
 4106POPC   C2B52400  44.901  31.208   6.537
 4106POPC   C3B52401  44.594  31.158   6.887
 4106POPC   C4B52402  44.747  30.938   7.250
 4107POPC   NC352403  37.272  13.448   5.371
 4107POPC   PO452404  36.727  13.646   5.173
 4107POPC   GL152405  36.900  13.644   5.696
 4107POPC   GL252406  37.275  13.729   5.840
 4107POPC   C1A52407  36.785  13.532   6.187
 4107POPC   D2A52408  36.538  13.770   6.536
 4107POPC   C3A52409  36.676  13.859   6.980
 4107POPC   C4A52410  36.633  13.708   7.395
 4107POPC   C1B52411  37.318  13.567   6.297
 4107POPC   C2B52412  37.146  13.236   6.619
 4107POPC   C3B52413  37.064  13.263   7.087
 4107POPC   C4B52414  37.143  13.676   7.162
 4108POPC   NC352415   6.053  32.234   5.555
 4108POPC   PO452416   5.465  32.525   5.537
 4108POPC   GL152417   5.667  32.289   5.904
 4108POPC   GL252418   5.638  31.892   5.904
 4108POPC   C1A52419   5.923  32.446   6.280
 4108POPC   D2A52420   5.974  32.638   6.707
 4108POPC   C3A52421   5.666  32.528   7.053
 4108POPC   C4A52422   5.828  32.343   7.464
 4108POPC   C1B52423   6.022  31.949   6.175
 4108POPC   C2B52424   6.091  32.036   6.627
 4108POPC   C3B52425   5.883  32.042   7.044
 4108POPC   C4B52426   5.455  32.085   7.249
 4109POPC   NC352427  24.205   6.500   5.257
 4109POPC   PO452428  24.618   6.915   5.486
 4109POPC   GL152429  24.474   6.702   5.786
 4109POPC   GL252430  24.353   6.421   5.732
 4109POPC   C1A52431  24.532   6.705   6.208
 4109POPC   D2A52432  24.750   6.471   6.491
 4109POPC   C3A52433  24.794   6.605   6.883
 4109POPC   C4A52434  24.585   6.582   7.285
 4109POPC   C1B52435  24.154   6.347   6.114
 4109POPC   C2B52436  24.242   6.396   6.552
 4109POPC   C3B52437  24.152   6.478   6.997
 4109POPC   C4B52438  24.263   6.217   7.369
 4110POPC   NC352439  18.687  28.162   5.612
 4110POPC   PO452440  18.043  28.560   5.447
 4110POPC   GL152441  17.994  28.420   5.879
 4110POPC   GL252442  18.334  28.452   5.853
 4110POPC   C1A52443  17.926  28.362   6.346
 4110POPC   D2A52444  18.087  28.240   6.747
 4110POPC   C3A52445  17.963  28.308   7.163
 4110POPC   C4A52446  18.045  28.586   7.515
 4110POPC   C1B52447  18.433  28.394   6.293
 4110POPC   C2B52448  18.595  28.339   6.717
 4110POPC   C3B52449  18.446  28.456   7.126
 4110POPC   C4B52450  18.364  28.222   7.515
 4111POPC   NC352451   4.306  37.926   5.293
 4111POPC   PO452452   3.852  37.483   5.099
 4111POPC   GL152453   4.072  37.608   5.587
 4111POPC   GL252454   4.459  37.546   5.662
 4111POPC   C1A52455   4.134  37.762   6.032
 4111POPC   D2A52456   4.123  37.813   6.489
 4111POPC   C3A52457   4.369  38.077   6.785
 4111POPC   C4A52458   4.337  37.959   7.215
 4111POPC   C1B52459   4.638  37.324   6.051
 4111POPC   C2B52460   4.645  37.338   6.522
 4111POPC   C3B52461   4.411  37.518   6.878
 4111POPC   C4B52462   4.572  37.502   7.297
 4112POPC   NC352463   8.394   2.489   5.388
 4112POPC   PO452464   7.826   3.013   5.402
 4112POPC   GL152465   8.041   2.715   5.707
 4112POPC   GL252466   8.416   2.730   5.810
 4112POPC   C1A52467   8.055   2.601   6.158
 4112POPC   D2A52468   8.009   2.718   6.592
 4112POPC   C3A52469   8.017   2.561   7.040
 4112POPC   C4A52470   7.961   2.645   7.472
 4112POPC   C1B52471   8.557   2.875   6.161
 4112POPC   C2B52472   8.511   2.691   6.520
 4112POPC   C3B52473   8.380   2.878   6.896
 4112POPC   C4B52474   8.445   2.731   7.304
 4113POPC   NC352475   2.219  31.931   5.430
 4113POPC   PO452476   2.391  32.487   5.125
 4113POPC   GL152477   2.142  32.489   5.593
 4113POPC   GL252478   2.211  32.259   5.867
 4113POPC   C1A52479   1.799  32.498   5.983
 4113POPC   D2A52480   1.927  32.266   6.394
 4113POPC   C3A52481   1.782  32.206   6.846
 4113POPC   C4A52482   1.503  32.250   7.204
 4113POPC   C1B52483   2.085  31.888   6.092
 4113POPC   C2B52484   2.045  31.776   6.527
 4113POPC   C3B52485   2.172  31.850   6.958
 4113POPC   C4B52486   1.970  32.039   7.315
 4114POPC   NC352487   2.137  12.450   5.423
 4114POPC   PO452488   1.755  11.962   5.194
 4114POPC   GL152489   1.834  11.910   5.714
 4114POPC   GL252490   1.966  12.228   5.841
 4114POPC   C1A52491   2.029  11.899   6.198
 4114POPC   D2A52492   2.007  12.184   6.584
 4114POPC   C3A52493   1.987  11.972   6.987
 4114POPC   C4A52494   2.057  11.757   7.386
 4114POPC   C1B52495   1.633  12.203   6.178
 4114POPC   C2B52496   1.480  12.358   6.573
 4114POPC   C3B52497   1.704  12.428   6.965
 4114POPC   C4B52498   2.077  12.440   7.183
 4115POPC   NC352499  21.180  16.481   5.421
 4115POPC   PO452500  21.832  16.797   5.331
 4115POPC   GL152501  21.607  16.612   5.728
 4115POPC   GL252502  21.291  16.773   5.814
 4115POPC   C1A52503  21.541  16.534   6.202
 4115POPC   D2A52504  21.595  16.763   6.635
 4115POPC   C3A52505  21.589  16.577   7.087
 4115POPC   C4A52506  21.620  16.573   7.621
 4115POPC   C1B52507  21.385  17.020   6.177
 4115POPC   C2B52508  21.200  17.078   6.581
 4115POPC   C3B52509  21.244  17.000   6.995
 4115POPC   C4B52510  21.276  16.868   7.405
 4116POPC   NC352511  13.271   9.836   5.370
 4116POPC   PO452512  12.732   9.949   5.622
 4116POPC   GL152513  12.791   9.680   5.971
 4116POPC   GL252514  13.110   9.607   5.851
 4116POPC   C1A52515  12.540   9.415   6.281
 4116POPC   D2A52516  12.647   9.497   6.722
 4116POPC   C3A52517  12.672   9.953   6.775
 4116POPC   C4A52518  12.682  10.044   7.190
 4116POPC   C1B52519  13.242   9.831   6.236
 4116POPC   C2B52520  13.117   9.748   6.693
 4116POPC   C3B52521  13.086   9.591   7.130
 4116POPC   C4B52522  13.347   9.529   7.566
 4117POPC   NC352523  15.484  27.418   5.474
 4117POPC   PO452524  14.888  27.524   5.390
 4117POPC   GL152525  15.091  27.534   5.813
 4117POPC   GL252526  15.210  27.861   5.926
 4117POPC   C1A52527  14.892  27.564   6.242
 4117POPC   D2A52528  14.864  27.401   6.659
 4117POPC   C3A52529  15.041  27.630   7.017
 4117POPC   C4A52530  15.049  27.364   7.364
 4117POPC   C1B52531  15.406  27.620   6.234
 4117POPC   C2B52532  15.377  27.478   6.639
 4117POPC   C3B52533  15.477  27.340   7.041
 4117POPC   C4B52534  15.481  27.625   7.357
 4118POPC   NC352535  42.501  44.922   5.490
 4118POPC   PO452536  41.927   0.250   5.296
 4118POPC   GL152537  42.171   0.332   5.701
 4118POPC   GL252538  42.070   0.666   5.785
 4118POPC   C1A52539  42.305   0.143   6.134
 4118POPC   D2A52540  42.486   0.437   6.437
 4118POPC   C3A52541  42.504   0.282   6.859
 4118POPC   C4A52542  42.394   0.399   7.263
 4118POPC   C1B52543  42.228   0.792   6.177
 4118POPC   C2B52544  42.089   0.778   6.604
 4118POPC   C3B52545  42.154   0.824   7.038
 4118POPC   C4B52546  41.994   0.676   7.424
 4119POPC   NC352547  19.979   3.082   5.476
 4119POPC   PO452548  19.730   2.388   5.387
 4119POPC   GL152549  19.712   2.701   5.762
 4119POPC   GL252550  19.557   3.048   5.780
 4119POPC   C1A52551  19.686   2.576   6.208
 4119POPC   D2A52552  19.885   2.341   6.525
 4119POPC   C3A52553  19.815   2.487   6.932
 4119POPC   C4A52554  19.799   2.652   7.358
 4119POPC   C1B52555  19.846   3.074   6.150
 4119POPC   C2B52556  19.854   2.930   6.582
 4119POPC   C3B52557  19.977   2.987   7.003
 4119POPC   C4B52558  20.296   3.205   7.213
 4120POPC   NC352559  31.995  11.824   5.429
 4120POPC   PO452560  32.536  12.308   5.263
 4120POPC   GL152561  32.268  12.404   5.647
 4120POPC   GL252562  32.191  12.079   5.808
 4120POPC   C1A52563  32.246  12.478   6.109
 4120POPC   D2A52564  32.215  12.194   6.453
 4120POPC   C3A52565  32.324  12.375   6.844
 4120POPC   C4A52566  32.069  12.401   7.214
 4120POPC   C1B52567  32.181  11.773   6.148
 4120POPC   C2B52568  31.990  11.688   6.537
 4120POPC   C3B52569  32.050  11.961   6.878
 4120POPC   C4B52570  31.985  11.913   7.289
 4121POPC   NC352571  40.933  32.686   5.551
 4121POPC   PO452572  41.429  32.999   5.288
 4121POPC   GL152573  41.336  33.011   5.763
 4121POPC   GL252574  41.434  32.674   5.876
 4121POPC   C1A52575  41.582  33.098   6.172
 4121POPC   D2A52576  41.688  32.959   6.608
 4121POPC   C3A52577  41.528  33.199   6.953
 4121POPC   C4A52578  41.565  33.144   7.370
 4121POPC   C1B52579  41.398  32.588   6.298
 4121POPC   C2B52580  41.184  32.560   6.665
 4121POPC   C3B52581  41.373  32.721   7.033
 4121POPC   C4B52582  41.338  32.695   7.446
 4122POPC   NC352583  18.139   4.461   5.096
 4122POPC   PO452584  18.296   4.649   5.676
 4122POPC   GL152585  18.239   4.303   5.914
 4122POPC   GL252586  17.967   4.036   5.780
 4122POPC   C1A52587  18.259   4.529   6.326
 4122POPC   D2A52588  18.510   4.441   6.673
 4122POPC   C3A52589  18.222   4.424   6.994
 4122POPC   C4A52590  18.432   4.125   7.200
 4122POPC   C1B52591  18.040   3.953   6.221
 4122POPC   C2B52592  18.118   4.111   6.571
 4122POPC   C3B52593  18.078   3.925   6.884
 4122POPC   C4B52594  18.070   3.781   7.231
 4123POPC   NC352595  18.550  23.440   5.534
 4123POPC   PO452596  18.061  22.882   5.439
 4123POPC   GL152597  18.222  22.832   5.828
 4123POPC   GL252598  18.135  22.521   5.930
 4123POPC   C1A52599  18.544  22.967   6.085
 4123POPC   D2A52600  18.622  23.177   6.475
 4123POPC   C3A52601  18.384  23.095   6.844
 4123POPC   C4A52602  18.287  23.245   7.256
 4123POPC   C1B52603  18.184  22.712   6.338
 4123POPC   C2B52604  18.175  22.587   6.760
 4123POPC   C3B52605  18.433  22.670   7.121
 4123POPC   C4B52606  18.309  22.733   7.522
 4124POPC   NC352607  30.501   8.844   5.288
 4124POPC   PO452608  30.989   8.606   5.621
 4124POPC   GL152609  30.670   8.908   5.775
 4124POPC   GL252610  30.835   9.218   5.796
 4124POPC   C1A52611  30.391   8.820   6.130
 4124POPC   D2A52612  30.656   8.666   6.479
 4124POPC   C3A52613  30.560   8.725   6.923
 4124POPC   C4A52614  30.804   8.820   7.282
 4124POPC   C1B52615  30.739   9.181   6.237
 4124POPC   C2B52616  30.520   9.170   6.617
 4124POPC   C3B52617  30.621   9.254   7.043
 4124POPC   C4B52618  30.436   9.554   7.310
 4125POPC   NC352619  30.291   1.741   5.346
 4125POPC   PO452620  29.974   2.289   5.445
 4125POPC   GL152621  29.847   2.137   5.823
 4125POPC   GL252622  29.869   1.796   5.769
 4125POPC   C1A52623  29.864   2.174   6.244
 4125POPC   D2A52624  29.817   1.894   6.578
 4125POPC   C3A52625  29.932   2.133   6.887
 4125POPC   C4A52626  30.033   2.177   7.267
 4125POPC   C1B52627  30.138   1.740   6.155
 4125POPC   C2B52628  30.259   1.609   6.583
 4125POPC   C3B52629  30.176   1.698   6.980
 4125POPC   C4B52630  29.800   1.726   7.236
 4126POPC   NC352631   1.440  14.336   5.386
 4126POPC   PO452632   0.797  14.052   5.564
 4126POPC   GL152633   1.164  14.255   5.815
 4126POPC   GL252634   1.479  14.077   5.853
 4126POPC   C1A52635   1.296  14.438   6.231
 4126POPC   D2A52636   1.036  14.423   6.602
 4126POPC   C3A52637   1.124  14.661   6.968
 4126POPC   C4A52638   1.074  14.444   7.342
 4126POPC   C1B52639   1.713  14.136   6.250
 4126POPC   C2B52640   1.708  14.259   6.699
 4126POPC   C3B52641   1.741  14.283   7.135
 4126POPC   C4B52642   1.556  14.622   7.314
 4127POPC   NC352643  42.236  20.254   5.413
 4127POPC   PO452644  42.045  19.576   5.564
 4127POPC   GL152645  42.338  19.875   5.753
 4127POPC   GL252646  42.697  19.944   5.643
 4127POPC   C1A52647  42.270  20.014   6.146
 4127POPC   D2A52648  42.079  19.901   6.582
 4127POPC   C3A52649  42.268  19.895   7.008
 4127POPC   C4A52650  42.401  19.992   7.436
 4127POPC   C1B52651  42.741  19.712   6.039
 4127POPC   C2B52652  42.575  19.773   6.454
 4127POPC   C3B52653  42.701  19.732   6.825
 4127POPC   C4B52654  42.757  19.660   7.215
 4128POPC   NC352655  36.651  40.014   5.145
 4128POPC   PO452656  37.093  40.454   5.176
 4128POPC   GL152657  36.896  40.239   5.622
 4128POPC   GL252658  36.607  39.961   5.687
 4128POPC   C1A52659  36.989  39.988   6.038
 4128POPC   D2A52660  36.788  39.963   6.469
 4128POPC   C3A52661  36.969  39.869   6.843
 4128POPC   C4A52662  36.950  39.876   7.260
 4128POPC   C1B52663  36.411  40.037   6.136
 4128POPC   C2B52664  36.358  40.234   6.575
 4128POPC   C3B52665  36.572  40.190   6.992
 4128POPC   C4B52666  36.651  40.292   7.433
 4129POPC   NC352667  27.631   1.516   5.348
 4129POPC   PO452668  28.035   1.053   5.351
 4129POPC   GL152669  27.778   1.120   5.719
 4129POPC   GL252670  27.794   1.447   5.852
 4129POPC   C1A52671  27.723   1.081   6.193
 4129POPC   D2A52672  27.769   1.458   6.470
 4129POPC   C3A52673  27.687   1.456   6.904
 4129POPC   C4A52674  27.915   1.168   7.140
 4129POPC   C1B52675  27.385   1.465   6.124
 4129POPC   C2B52676  27.291   1.633   6.586
 4129POPC   C3B52677  27.162   1.557   7.069
 4129POPC   C4B52678  27.267   1.411   7.535
 4130POPC   NC352679   0.862  21.955   5.029
 4130POPC   PO452680   1.052  21.986   5.616
 4130POPC   GL152681   1.224  22.259   5.945
 4130POPC   GL252682   1.572  22.356   5.927
 4130POPC   C1A52683   1.067  22.398   6.346
 4130POPC   D2A52684   1.109  22.135   6.714
 4130POPC   C3A52685   1.205  22.320   7.119
 4130POPC   C4A52686   1.196  22.267   7.578
 4130POPC   C1B52687   1.509  22.131   6.364
 4130POPC   C2B52688   1.621  22.046   6.812
 4130POPC   C3B52689   1.522  21.948   7.264
 4130POPC   C4B52690   1.436  21.816   7.700
 4131POPC   NC352691  22.216  36.517   5.447
 4131POPC   PO452692  21.884  35.929   5.460
 4131POPC   GL152693  22.108  36.000   5.854
 4131POPC   GL252694  22.176  36.339   5.907
 4131POPC   C1A52695  21.998  36.057   6.302
 4131POPC   D2A52696  21.751  36.045   6.683
 4131POPC   C3A52697  21.991  36.200   7.028
 4131POPC   C4A52698  22.004  35.967   7.373
 4131POPC   C1B52699  22.465  36.324   6.255
 4131POPC   C2B52700  22.644  36.199   6.675
 4131POPC   C3B52701  22.540  36.362   7.090
 4131POPC   C4B52702  22.516  36.199   7.503
 4132POPC   NC352703   9.147  43.953   5.404
 4132POPC   PO452704   8.746  43.461   5.300
 4132POPC   GL152705   8.923  43.569   5.712
 4132POPC   GL252706   8.787  43.892   5.813
 4132POPC   C1A52707   8.976  43.619   6.182
 4132POPC   D2A52708   8.812  43.597   6.597
 4132POPC   C3A52709   9.044  43.708   6.975
 4132POPC   C4A52710   9.460  43.552   7.057
 4132POPC   C1B52711   8.771  44.123   6.212
 4132POPC   C2B52712   8.596  44.086   6.641
 4132POPC   C3B52713   8.745  44.125   7.061
 4132POPC   C4B52714   9.121  44.091   7.333
 4133POPC   NC352715   3.404  37.463   5.192
 4133POPC   PO452716   3.626  37.910   5.600
 4133POPC   GL152717   3.470  37.532   5.823
 4133POPC   GL252718   3.638  37.225   5.945
 4133POPC   C1A52719   3.493  37.557   6.299
 4133POPC   D2A52720   3.500  37.799   6.672
 4133POPC   C3A52721   3.445  37.563   7.055
 4133POPC   C4A52722   3.328  37.764   7.468
 4133POPC   C1B52723   3.935  37.311   6.272
 4133POPC   C2B52724   3.876  37.413   6.708
 4133POPC   C3B52725   3.939  37.737   6.968
 4133POPC   C4B52726   3.829  37.855   7.349
 4134POPC   NC352727  36.766  15.487   5.122
 4134POPC   PO452728  36.977  16.052   5.256
 4134POPC   GL152729  37.031  16.072   5.740
 4134POPC   GL252730  37.211  16.342   5.825
 4134POPC   C1A52731  36.826  15.960   6.145
 4134POPC   D2A52732  36.824  16.114   6.589
 4134POPC   C3A52733  36.551  15.850   6.858
 4134POPC   C4A52734  36.697  15.511   7.129
 4134POPC   C1B52735  37.172  16.306   6.236
 4134POPC   C2B52736  37.280  16.383   6.639
 4134POPC   C3B52737  37.037  16.376   6.989
 4134POPC   C4B52738  36.993  15.956   7.108
 4135POPC   NC352739  29.586  31.788   5.414
 4135POPC   PO452740  30.159  31.567   5.634
 4135POPC   GL152741  29.807  31.386   5.812
 4135POPC   GL252742  29.813  31.026   5.787
 4135POPC   C1A52743  29.745  31.411   6.250
 4135POPC   D2A52744  30.066  31.357   6.602
 4135POPC   C3A52745  29.882  31.542   6.989
 4135POPC   C4A52746  29.553  31.357   7.259
 4135POPC   C1B52747  29.898  30.929   6.230
 4135POPC   C2B52748  29.687  30.944   6.642
 4135POPC   C3B52749  29.864  31.023   7.041
 4135POPC   C4B52750  30.082  31.247   7.361
 4136POPC   NC352751  42.097  41.806   5.331
 4136POPC   PO452752  42.744  41.518   5.326
 4136POPC   GL152753  42.488  41.523   5.735
 4136POPC   GL252754  42.133  41.498   5.738
 4136POPC   C1A52755  42.567  41.350   6.168
 4136POPC   D2A52756  42.753  41.451   6.583
 4136POPC   C3A52757  42.483  41.517   6.936
 4136POPC   C4A52758  42.307  41.385   7.329
 4136POPC   C1B52759  42.204  41.712   6.140
 4136POPC   C2B52760  42.148  41.618   6.562
 4136POPC   C3B52761  41.986  41.666   6.983
 4136POPC   C4B52762  42.074  41.846   7.407
 4137POPC   NC352763  18.004  38.124   5.254
 4137POPC   PO452764  18.206  38.634   5.444
 4137POPC   GL152765  18.413  38.539   5.831
 4137POPC   GL252766  18.419  38.191   5.793
 4137POPC   C1A52767  18.290  38.428   6.283
 4137POPC   D2A52768  18.128  38.379   6.716
 4137POPC   C3A52769  18.337  38.615   7.033
 4137POPC   C4A52770  18.335  38.680   7.499
 4137POPC   C1B52771  18.627  38.053   6.200
 4137POPC   C2B52772  18.578  38.123   6.654
 4137POPC   C3B52773  18.354  38.033   7.028
 4137POPC   C4B52774  18.065  38.280   7.303
 4138POPC   NC352775   0.604   8.699   5.493
 4138POPC   PO452776   0.177   9.324   5.423
 4138POPC   GL152777   0.470   9.141   5.752
 4138POPC   GL252778   0.295   8.872   5.911
 4138POPC   C1A52779   0.703   9.005   6.158
 4138POPC   D2A52780   0.467   8.885   6.573
 4138POPC   C3A52781   0.695   9.032   6.953
 4138POPC   C4A52782   0.682   8.955   7.408
 4138POPC   C1B52783   0.260   9.229   6.205
 4138POPC   C2B52784   0.109   9.342   6.559
 4138POPC   C3B52785   0.231   9.290   6.950
 4138POPC   C4B52786   0.256   8.916   7.160
 4139POPC   NC352787  42.786  29.704   5.597
 4139POPC   PO452788  43.368  30.016   5.554
 4139POPC   GL152789  43.202  29.850   5.899
 4139POPC   GL252790  43.060  29.532   5.983
 4139POPC   C1A52791  43.345  29.919   6.311
 4139POPC   D2A52792  43.329  30.241   6.626
 4139POPC   C3A52793  43.075  30.182   6.975
 4139POPC   C4A52794  43.291  30.050   7.309
 4139POPC   C1B52795  42.847  29.839   6.244
 4139POPC   C2B52796  42.952  29.845   6.632
 4139POPC   C3B52797  42.989  29.650   6.974
 4139POPC   C4B52798  42.842  29.826   7.288
 4140POPC   NC352799  27.954  31.543   5.394
 4140POPC   PO452800  28.059  30.891   5.293
 4140POPC   GL152801  28.113  31.174   5.700
 4140POPC   GL252802  28.434  31.382   5.754
 4140POPC   C1A52803  28.058  31.466   6.092
 4140POPC   D2A52804  28.228  31.258   6.449
 4140POPC   C3A52805  28.120  31.344   6.862
 4140POPC   C4A52806  28.199  31.586   7.221
 4140POPC   C1B52807  28.600  31.524   6.186
 4140POPC   C2B52808  28.522  31.628   6.633
 4140POPC   C3B52809  28.611  31.382   6.988
 4140POPC   C4B52810  28.679  31.478   7.386
 4141POPC   NC352811  27.861  24.841   5.401
 4141POPC   PO452812  27.127  24.967   5.351
 4141POPC   GL152813  27.253  24.628   5.672
 4141POPC   GL252814  27.564  24.549   5.743
 4141POPC   C1A52815  27.240  24.667   6.129
 4141POPC   D2A52816  27.462  24.543   6.526
 4141POPC   C3A52817  27.275  24.420   6.917
 4141POPC   C4A52818  27.078  24.712   7.187
 4141POPC   C1B52819  27.772  24.703   6.103
 4141POPC   C2B52820  27.962  24.467   6.454
 4141POPC   C3B52821  27.873  24.554   6.895
 4141POPC   C4B52822  27.880  24.825   7.231
 4142POPC   NC352823  28.985  14.232   5.498
 4142POPC   PO452824  29.514  14.649   5.452
 4142POPC   GL152825  29.289  14.576   5.779
 4142POPC   GL252826  29.372  14.242   5.830
 4142POPC   C1A52827  29.262  14.710   6.187
 4142POPC   D2A52828  29.049  14.700   6.549
 4142POPC   C3A52829  29.246  14.632   6.907
 4142POPC   C4A52830  29.099  14.511   7.281
 4142POPC   C1B52831  29.097  14.206   6.163
 4142POPC   C2B52832  29.263  14.213   6.563
 4142POPC   C3B52833  29.082  14.123   6.935
 4142POPC   C4B52834  29.145  14.003   7.353
 4143POPC   NC352835  38.158  42.558   5.134
 4143POPC   PO452836  37.853  42.127   5.558
 4143POPC   GL152837  37.498  42.150   5.785
 4143POPC   GL252838  37.500  42.483   5.798
 4143POPC   C1A52839  37.650  42.230   6.204
 4143POPC   D2A52840  37.875  42.510   6.429
 4143POPC   C3A52841  37.898  42.438   6.868
 4143POPC   C4A52842  37.716  42.590   7.269
 4143POPC   C1B52843  37.192  42.409   6.166
 4143POPC   C2B52844  37.266  42.208   6.558
 4143POPC   C3B52845  37.414  42.261   6.963
 4143POPC   C4B52846  37.184  42.558   7.173
 4144POPC   NC352847  32.344  29.727   5.469
 4144POPC   PO452848  31.770  29.815   5.106
 4144POPC   GL152849  31.898  30.053   5.557
 4144POPC   GL252850  32.253  30.193   5.654
 4144POPC   C1A52851  32.043  29.934   6.030
 4144POPC   D2A52852  32.369  29.903   6.357
 4144POPC   C3A52853  32.194  29.758   6.738
 4144POPC   C4A52854  32.174  29.846   7.174
 4144POPC   C1B52855  32.528  30.304   6.027
 4144POPC   C2B52856  32.558  30.369   6.486
 4144POPC   C3B52857  32.421  30.210   6.852
 4144POPC   C4B52858  32.576  30.139   7.224
 4145POPC   NC352859  11.571  20.388   5.435
 4145POPC   PO452860  11.233  21.039   5.338
 4145POPC   GL152861  11.273  20.917   5.801
 4145POPC   GL252862  11.342  20.535   5.868
 4145POPC   C1A52863  11.255  20.818   6.271
 4145POPC   D2A52864  11.582  20.831   6.604
 4145POPC   C3A52865  11.402  20.804   6.964
 4145POPC   C4A52866  11.503  20.834   7.380
 4145POPC   C1B52867  11.448  20.137   6.104
 4145POPC   C2B52868  11.409  20.029   6.536
 4145POPC   C3B52869  11.320  20.303   6.886
 4145POPC   C4B52870  11.392  20.236   7.319
 4146POPC   NC352871   0.516  41.284   5.232
 4146POPC   PO452872   0.577  41.903   5.383
 4146POPC   GL152873   0.319  41.804   5.770
 4146POPC   GL252874   0.488  41.496   5.878
 4146POPC   C1A52875   0.353  41.855   6.217
 4146POPC   D2A52876   0.678  41.654   6.463
 4146POPC   C3A52877   0.605  41.679   6.897
 4146POPC   C4A52878   0.731  41.430   7.240
 4146POPC   C1B52879   0.376  41.256   6.280
 4146POPC   C2B52880   0.484  41.205   6.734
 4146POPC   C3B52881   0.234  41.377   7.069
 4146POPC   C4B52882  44.956  41.214   7.350
 4147POPC   NC352883  15.540  36.100   5.369
 4147POPC   PO452884  14.949  36.423   5.294
 4147POPC   GL152885  14.822  36.101   5.711
 4147POPC   GL252886  15.006  35.758   5.764
 4147POPC   C1A52887  14.793  35.932   6.199
 4147POPC   D2A52888  14.709  35.929   6.685
 4147POPC   C3A52889  15.051  36.074   6.984
 4147POPC   C4A52890  15.353  36.175   7.352
 4147POPC   C1B52891  15.315  35.828   6.118
 4147POPC   C2B52892  15.356  35.804   6.595
 4147POPC   C3B52893  15.495  35.780   7.046
 4147POPC   C4B52894  15.588  35.757   7.539
 4148POPC   NC352895  27.237  29.703   5.050
 4148POPC   PO452896  26.718  29.805   5.471
 4148POPC   GL152897  26.791  30.042   5.852
 4148POPC   GL252898  27.058  30.305   5.830
 4148POPC   C1A52899  26.736  29.858   6.281
 4148POPC   D2A52900  26.683  29.565   6.630
 4148POPC   C3A52901  26.769  29.630   7.048
 4148POPC   C4A52902  26.429  29.654   7.278
 4148POPC   C1B52903  26.892  30.342   6.254
 4148POPC   C2B52904  26.921  30.165   6.679
 4148POPC   C3B52905  27.043  30.254   7.110
 4148POPC   C4B52906  26.846  30.435   7.522
 4149POPC   NC352907   9.974   2.211   5.487
 4149POPC   PO452908   9.443   1.768   5.252
 4149POPC   GL152909   9.539   1.812   5.715
 4149POPC   GL252910   9.901   1.738   5.751
 4149POPC   C1A52911   9.642   2.016   6.158
 4149POPC   D2A52912   9.958   2.145   6.525
 4149POPC   C3A52913   9.821   2.291   6.958
 4149POPC   C4A52914   9.500   2.075   7.240
 4149POPC   C1B52915  10.117   1.782   6.174
 4149POPC   C2B52916  10.189   1.683   6.649
 4149POPC   C3B52917   9.898   1.778   7.024
 4149POPC   C4B52918   9.882   1.802   7.498
 4150POPC   NC352919   4.478  28.626   5.546
 4150POPC   PO452920   3.867  28.308   5.348
 4150POPC   GL152921   4.131  28.305   5.797
 4150POPC   GL252922   4.458  28.189   5.857
 4150POPC   C1A52923   4.288  28.539   6.195
 4150POPC   D2A52924   4.215  28.365   6.602
 4150POPC   C3A52925   4.188  28.664   6.914
 4150POPC   C4A52926   4.214  28.758   7.336
 4150POPC   C1B52927   4.701  28.237   6.243
 4150POPC   C2B52928   4.707  28.533   6.606
 4150POPC   C3B52929   4.639  28.362   7.017
 4150POPC   C4B52930   4.751  27.957   7.193
 4151POPC   NC352931  36.523  31.646   5.054
 4151POPC   PO452932  36.116  31.299   5.464
 4151POPC   GL152933  36.207  31.357   5.840
 4151POPC   GL252934  36.549  31.335   5.804
 4151POPC   C1A52935  36.088  31.264   6.247
 4151POPC   D2A52936  36.054  31.553   6.575
 4151POPC   C3A52937  35.931  31.327   6.919
 4151POPC   C4A52938  35.678  31.259   7.230
 4151POPC   C1B52939  36.514  31.537   6.205
 4151POPC   C2B52940  36.562  31.445   6.610
 4151POPC   C3B52941  36.384  31.580   6.980
 4151POPC   C4B52942  36.194  31.476   7.355
 4152POPC   NC352943  21.342  40.295   5.411
 4152POPC   PO452944  21.163  40.918   5.531
 4152POPC   GL152945  21.303  40.632   5.837
 4152POPC   GL252946  21.632  40.809   5.860
 4152POPC   C1A52947  21.432  40.562   6.279
 4152POPC   D2A52948  21.669  40.848   6.542
 4152POPC   C3A52949  21.745  40.704   6.952
 4152POPC   C4A52950  21.507  40.523   7.234
 4152POPC   C1B52951  21.442  41.124   6.135
 4152POPC   C2B52952  21.396  41.323   6.526
 4152POPC   C3B52953  21.461  41.154   6.905
 4152POPC   C4B52954  21.383  41.015   7.267
 4153POPC   NC352955  19.852  34.162   5.580
 4153POPC   PO452956  19.436  33.584   5.523
 4153POPC   GL152957  19.782  33.687   5.789
 4153POPC   GL252958  19.651  33.966   5.997
 4153POPC   C1A52959  19.984  33.643   6.184
 4153POPC   D2A52960  19.764  33.591   6.578
 4153POPC   C3A52961  19.929  33.683   6.979
 4153POPC   C4A52962  20.184  33.745   7.327
 4153POPC   C1B52963  19.652  34.082   6.427
 4153POPC   C2B52964  19.451  33.937   6.804
 4153POPC   C3B52965  19.286  33.738   7.182
 4153POPC   C4B52966  19.338  33.909   7.618
 4154POPC   NC352967  18.881  29.720   5.237
 4154POPC   PO452968  19.326  30.158   5.258
 4154POPC   GL152969  19.230  30.068   5.721
 4154POPC   GL252970  19.073  29.769   5.748
 4154POPC   C1A52971  19.042  30.166   6.179
 4154POPC   D2A52972  18.873  29.951   6.571
 4154POPC   C3A52973  18.997  30.118   7.009
 4154POPC   C4A52974  19.061  30.054   7.465
 4154POPC   C1B52975  19.409  29.812   6.105
 4154POPC   C2B52976  19.380  29.916   6.557
 4154POPC   C3B52977  19.410  29.753   6.995
 4154POPC   C4B52978  19.776  29.550   7.170
 4155POPC   NC352979  36.972  18.159   5.262
 4155POPC   PO452980  37.152  18.730   5.560
 4155POPC   GL152981  36.896  18.390   5.745
 4155POPC   GL252982  36.606  18.150   5.668
 4155POPC   C1A52983  36.869  18.200   6.143
 4155POPC   D2A52984  37.038  18.019   6.511
 4155POPC   C3A52985  36.877  18.121   6.923
 4155POPC   C4A52986  37.029  18.205   7.341
 4155POPC   C1B52987  36.382  18.117   6.069
 4155POPC   C2B52988  36.303  18.136   6.511
 4155POPC   C3B52989  36.371  18.037   6.945
 4155POPC   C4B52990  36.528  18.235   7.323
 4156POPC   NC352991  22.881  10.995   5.279
 4156POPC   PO452992  22.726  11.648   5.501
 4156POPC   GL152993  22.699  11.244   5.699
 4156POPC   GL252994  23.057  11.163   5.762
 4156POPC   C1A52995  22.660  11.120   6.142
 4156POPC   D2A52996  22.820  11.267   6.541
 4156POPC   C3A52997  22.786  11.092   6.951
 4156POPC   C4A52998  22.630  11.179   7.349
 4156POPC   C1B52999  23.206  11.127   6.203
 4156POPC   C2B53000  23.306  11.350   6.612
 4156POPC   C3B53001  23.289  11.284   7.059
 4156POPC   C4B53002  23.018  11.492   7.366
 4157POPC   NC353003   0.727  24.588   5.273
 4157POPC   PO453004   0.146  24.244   5.209
 4157POPC   GL153005   0.368  24.400   5.603
 4157POPC   GL253006   0.660  24.219   5.772
 4157POPC   C1A53007   0.322  24.539   6.053
 4157POPC   D2A53008   0.308  24.411   6.503
 4157POPC   C3A53009   0.344  24.680   6.851
 4157POPC   C4A53010   0.186  24.580   7.217
 4157POPC   C1B53011   0.794  24.384   6.211
 4157POPC   C2B53012   0.786  24.473   6.681
 4157POPC   C3B53013   0.680  24.383   7.135
 4157POPC   C4B53014   0.793  24.439   7.576
 4158POPC   NC353015  16.515  25.394   4.864
 4158POPC   PO453016  16.471  24.800   5.251
 4158POPC   GL153017  16.555  25.091   5.669
 4158POPC   GL253018  16.865  25.334   5.665
 4158POPC   C1A53019  16.663  25.154   6.132
 4158POPC   D2A53020  16.416  25.205   6.530
 4158POPC   C3A53021  16.663  25.100   6.885
 4158POPC   C4A53022  16.696  25.323   7.258
 4158POPC   C1B53023  17.152  25.425   6.053
 4158POPC   C2B53024  17.276  25.396   6.498
 4158POPC   C3B53025  17.110  25.356   6.925
 4158POPC   C4B53026  17.107  25.017   7.254
 4159POPC   NC353027  34.535  12.382   5.566
 4159POPC   PO453028  34.408  13.030   5.444
 4159POPC   GL153029  34.733  12.911   5.756
 4159POPC   GL253030  34.668  13.249   5.897
 4159POPC   C1A53031  34.802  12.844   6.205
 4159POPC   D2A53032  34.545  12.854   6.616
 4159POPC   C3A53033  34.740  12.886   7.040
 4159POPC   C4A53034  34.919  12.518   7.232
 4159POPC   C1B53035  34.550  13.291   6.332
 4159POPC   C2B53036  34.549  13.335   6.797
 4159POPC   C3B53037  34.359  13.231   7.193
 4159POPC   C4B53038  34.505  13.235   7.643
 4160POPC   NC353039  28.585   3.692   5.317
 4160POPC   PO453040  27.941   3.478   5.461
 4160POPC   GL153041  28.236   3.508   5.797
 4160POPC   GL253042  28.611   3.439   5.783
 4160POPC   C1A53043  28.359   3.471   6.236
 4160POPC   D2A53044  28.587   3.526   6.595
 4160POPC   C3A53045  28.516   3.285   6.941
 4160POPC   C4A53046  28.325   3.481   7.266
 4160POPC   C1B53047  28.789   3.744   6.157
 4160POPC   C2B53048  28.866   3.944   6.609
 4160POPC   C3B53049  28.725   3.761   7.052
 4160POPC   C4B53050  28.658   3.709   7.557
 4161POPC   NC353051  33.701  35.287   5.456
 4161POPC   PO453052  34.167  35.651   5.539
 4161POPC   GL153053  33.959  35.470   5.864
 4161POPC   GL253054  33.577  35.513   5.899
 4161POPC   C1A53055  33.980  35.579   6.268
 4161POPC   D2A53056  33.662  35.600   6.587
 4161POPC   C3A53057  33.836  35.552   6.986
 4161POPC   C4A53058  33.885  35.725   7.420
 4161POPC   C1B53059  33.640  35.197   6.229
 4161POPC   C2B53060  33.599  34.992   6.634
 4161POPC   C3B53061  33.403  35.272   6.934
 4161POPC   C4B53062  33.473  35.413   7.368
 4162POPC   NC353063  23.597  28.647   5.428
 4162POPC   PO453064  23.818  28.053   5.205
 4162POPC   GL153065  23.677  28.202   5.689
 4162POPC   GL253066  23.869  28.507   5.853
 4162POPC   C1A53067  23.773  28.177   6.190
 4162POPC   D2A53068  23.885  28.306   6.628
 4162POPC   C3A53069  23.733  28.007   6.939
 4162POPC   C4A53070  23.555  28.228   7.251
 4162POPC   C1B53071  24.072  28.635   6.258
 4162POPC   C2B53072  24.072  28.940   6.602
 4162POPC   C3B53073  24.087  28.685   6.941
 4162POPC   C4B53074  24.174  28.733   7.358
 4163POPC   NC353075  32.985  20.933   5.280
 4163POPC   PO453076  33.415  20.428   5.437
 4163POPC   GL153077  33.029  20.453   5.713
 4163POPC   GL253078  32.831  20.772   5.770
 4163POPC   C1A53079  33.055  20.428   6.165
 4163POPC   D2A53080  33.134  20.660   6.526
 4163POPC   C3A53081  33.014  20.512   6.914
 4163POPC   C4A53082  33.224  20.632   7.232
 4163POPC   C1B53083  32.640  20.719   6.201
 4163POPC   C2B53084  32.679  20.811   6.691
 4163POPC   C3B53085  32.680  20.834   7.174
 4163POPC   C4B53086  32.499  20.697   7.590
 4164POPC   NC353087  34.158  40.845   5.006
 4164POPC   PO453088  33.646  40.692   5.335
 4164POPC   GL153089  33.875  40.588   5.720
 4164POPC   GL253090  33.642  40.435   5.966
 4164POPC   C1A53091  33.914  40.849   6.101
 4164POPC   D2A53092  33.756  40.726   6.492
 4164POPC   C3A53093  33.684  40.843   6.936
 4164POPC   C4A53094  33.320  41.010   7.156
 4164POPC   C1B53095  34.030  40.358   6.176
 4164POPC   C2B53096  34.086  40.360   6.610
 4164POPC   C3B53097  34.128  40.568   6.982
 4164POPC   C4B53098  33.962  40.480   7.359
 4165POPC   NC353099  22.723   8.041   5.492
 4165POPC   PO453100  23.102   8.599   5.528
 4165POPC   GL153101  23.031   8.297   5.851
 4165POPC   GL253102  22.695   8.436   5.908
 4165POPC   C1A53103  22.953   8.283   6.308
 4165POPC   D2A53104  22.676   8.234   6.629
 4165POPC   C3A53105  22.876   7.913   6.834
 4165POPC   C4A53106  23.079   7.805   7.218
 4165POPC   C1B53107  22.901   8.773   6.170
 4165POPC   C2B53108  22.951   8.723   6.610
 4165POPC   C3B53109  23.119   8.421   6.861
 4165POPC   C4B53110  22.921   8.279   7.185
 4166POPC   NC353111   7.569  20.912   5.545
 4166POPC   PO453112   7.250  20.379   5.361
 4166POPC   GL153113   7.391  20.492   5.788
 4166POPC   GL253114   7.528  20.239   5.959
 4166POPC   C1A53115   7.402  20.709   6.206
 4166POPC   D2A53116   7.643  20.762   6.610
 4166POPC   C3A53117   7.445  20.870   7.002
 4166POPC   C4A53118   7.468  20.862   7.454
 4166POPC   C1B53119   7.516  20.256   6.431
 4166POPC   C2B53120   7.321  20.408   6.770
 4166POPC   C3B53121   7.344  20.344   7.210
 4166POPC   C4B53122   7.668  20.010   7.340
 4167POPC   NC353123   3.442  25.363   5.500
 4167POPC   PO453124   4.063  25.031   5.419
 4167POPC   GL153125   3.791  25.164   5.811
 4167POPC   GL253126   3.824  25.509   5.859
 4167POPC   C1A53127   3.440  25.328   6.154
 4167POPC   D2A53128   3.133  25.231   6.482
 4167POPC   C3A53129   3.194  25.352   6.905
 4167POPC   C4A53130   3.304  25.130   7.247
 4167POPC   C1B53131   3.918  25.371   6.292
 4167POPC   C2B53132   3.664  25.511   6.660
 4167POPC   C3B53133   3.674  25.480   7.116
 4167POPC   C4B53134   3.772  25.194   7.445
 4168POPC   NC353135   0.004  26.946   5.521
 4168POPC   PO453136  44.670  26.395   5.239
 4168POPC   GL153137  44.638  26.625   5.723
 4168POPC   GL253138  44.642  26.970   5.915
 4168POPC   C1A53139  44.679  26.587   6.219
 4168POPC   D2A53140  44.808  26.587   6.652
 4168POPC   C3A53141  44.520  26.721   6.995
 4168POPC   C4A53142  44.609  26.758   7.451
 4168POPC   C1B53143  44.804  27.089   6.340
 4168POPC   C2B53144  44.791  27.105   6.778
 4168POPC   C3B53145  44.702  27.167   7.184
 4168POPC   C4B53146  44.776  27.216   7.627
 4169POPC   NC353147  23.113  37.276   5.455
 4169POPC   PO453148  22.893  37.935   5.362
 4169POPC   GL153149  23.000  37.699   5.745
 4169POPC   GL253150  23.373  37.629   5.767
 4169POPC   C1A53151  22.908  37.701   6.204
 4169POPC   D2A53152  22.681  37.397   6.538
 4169POPC   C3A53153  22.811  37.400   6.977
 4169POPC   C4A53154  22.943  37.813   7.077
 4169POPC   C1B53155  23.297  37.374   6.147
 4169POPC   C2B53156  23.185  37.510   6.579
 4169POPC   C3B53157  23.344  37.497   6.967
 4169POPC   C4B53158  23.232  37.536   7.396
 4170POPC   NC353159   6.585  27.930   5.544
 4170POPC   PO453160   6.666  27.215   5.449
 4170POPC   GL153161   6.596  27.469   5.793
 4170POPC   GL253162   6.937  27.409   5.852
 4170POPC   C1A53163   6.394  27.686   6.158
 4170POPC   D2A53164   6.565  27.810   6.571
 4170POPC   C3A53165   6.621  27.534   6.967
 4170POPC   C4A53166   6.622  27.503   7.444
 4170POPC   C1B53167   6.894  27.594   6.231
 4170POPC   C2B53168   7.023  27.480   6.638
 4170POPC   C3B53169   7.203  27.316   7.012
 4170POPC   C4B53170   7.030  27.163   7.411
 4171POPC   NC353171  18.328  36.680   5.479
 4171POPC   PO453172  18.079  37.282   5.521
 4171POPC   GL153173  18.131  37.063   5.862
 4171POPC   GL253174  18.421  36.866   5.923
 4171POPC   C1A53175  18.133  37.017   6.302
 4171POPC   D2A53176  18.238  36.739   6.615
 4171POPC   C3A53177  18.200  37.034   6.934
 4171POPC   C4A53178  18.303  37.219   7.316
 4171POPC   C1B53179  18.583  36.591   6.219
 4171POPC   C2B53180  18.768  36.686   6.626
 4171POPC   C3B53181  18.535  36.631   7.025
 4171POPC   C4B53182  18.197  36.699   7.303
 4172POPC   NC353183  34.853   8.734   5.350
 4172POPC   PO453184  34.309   9.087   5.531
 4172POPC   GL153185  34.582   8.991   5.867
 4172POPC   GL253186  34.611   8.649   5.807
 4172POPC   C1A53187  34.864   9.160   6.205
 4172POPC   D2A53188  35.056   9.191   6.593
 4172POPC   C3A53189  34.797   9.017   6.835
 4172POPC   C4A53190  34.558   8.902   7.147
 4172POPC   C1B53191  34.678   8.674   6.268
 4172POPC   C2B53192  34.921   8.556   6.628
 4172POPC   C3B53193  34.942   8.592   7.075
 4172POPC   C4B53194  34.764   8.609   7.522
 4173POPC   NC353195   8.561   0.887   5.368
 4173POPC   PO453196   7.864   1.255   5.440
 4173POPC   GL153197   8.022   1.270   5.832
 4173POPC   GL253198   8.313   1.105   5.775
 4173POPC   C1A53199   7.942   1.547   6.192
 4173POPC   D2A53200   8.152   1.630   6.607
 4173POPC   C3A53201   8.040   1.334   6.896
 4173POPC   C4A53202   7.953   1.363   7.294
 4173POPC   C1B53203   8.393   1.323   6.197
 4173POPC   C2B53204   8.487   1.246   6.622
 4173POPC   C3B53205   8.508   1.259   7.055
 4173POPC   C4B53206   8.264   0.910   7.200
 4174POPC   NC353207  35.394  28.571   5.246
 4174POPC   PO453208  35.199  28.031   5.446
 4174POPC   GL153209  35.151  28.330   5.730
 4174POPC   GL253210  35.453  28.526   5.745
 4174POPC   C1A53211  35.238  28.332   6.175
 4174POPC   D2A53212  35.018  28.362   6.554
 4174POPC   C3A53213  35.114  28.681   6.811
 4174POPC   C4A53214  35.120  28.390   7.126
 4174POPC   C1B53215  35.584  28.710   6.135
 4174POPC   C2B53216  35.682  28.502   6.505
 4174POPC   C3B53217  35.583  28.472   6.927
 4174POPC   C4B53218  35.463  28.829   7.193
 4175POPC   NC353219  29.382  19.361   5.484
 4175POPC   PO453220  28.926  18.877   5.485
 4175POPC   GL153221  29.101  19.135   5.879
 4175POPC   GL253222  29.453  19.330   5.973
 4175POPC   C1A53223  29.249  18.900   6.267
 4175POPC   D2A53224  29.144  18.579   6.577
 4175POPC   C3A53225  29.219  18.719   6.964
 4175POPC   C4A53226  29.018  19.065   7.173
 4175POPC   C1B53227  29.245  19.398   6.333
 4175POPC   C2B53228  29.176  19.165   6.694
 4175POPC   C3B53229  29.356  19.390   6.997
 4175POPC   C4B53230  29.066  19.573   7.217
 4176POPC   NC353231   0.732  21.371   5.426
 4176POPC   PO453232  44.989  21.498   5.416
 4176POPC   GL153233   0.220  21.591   5.779
 4176POPC   GL253234   0.434  21.306   5.819
 4176POPC   C1A53235   0.232  21.753   6.218
 4176POPC   D2A53236   0.137  21.608   6.646
 4176POPC   C3A53237   0.435  21.475   6.986
 4176POPC   C4A53238   0.321  21.250   7.384
 4176POPC   C1B53239   0.609  21.416   6.179
 4176POPC   C2B53240   0.541  21.239   6.547
 4176POPC   C3B53241   0.772  21.083   6.878
 4176POPC   C4B53242   0.846  21.307   7.256
 4177POPC   NC353243  36.171  32.541   5.330
 4177POPC   PO453244  36.620  32.076   5.164
 4177POPC   GL153245  36.341  32.237   5.682
 4177POPC   GL253246  36.153  31.914   5.826
 4177POPC   C1A53247  36.079  32.324   6.110
 4177POPC   D2A53248  36.142  32.356   6.571
 4177POPC   C3A53249  35.908  32.214   6.956
 4177POPC   C4A53250  35.856  32.252   7.427
 4177POPC   C1B53251  36.471  32.029   6.177
 4177POPC   C2B53252  36.481  31.941   6.573
 4177POPC   C3B53253  36.469  32.121   6.942
 4177POPC   C4B53254  36.260  31.978   7.289
 4178POPC   NC353255  42.790  34.520   5.389
 4178POPC   PO453256  43.397  34.231   5.368
 4178POPC   GL153257  43.241  34.562   5.692
 4178POPC   GL253258  42.965  34.344   5.816
 4178POPC   C1A53259  43.047  34.730   6.113
 4178POPC   D2A53260  43.246  34.646   6.484
 4178POPC   C3A53261  43.210  34.657   6.942
 4178POPC   C4A53262  43.590  34.609   7.160
 4178POPC   C1B53263  43.112  34.222   6.199
 4178POPC   C2B53264  42.943  34.066   6.573
 4178POPC   C3B53265  42.935  34.171   6.998
 4178POPC   C4B53266  42.963  34.392   7.390
 4179POPC   NC353267  16.685  15.020   5.115
 4179POPC   PO453268  16.678  15.588   5.504
 4179POPC   GL153269  16.989  15.342   5.796
 4179POPC   GL253270  17.089  15.027   5.595
 4179POPC   C1A53271  16.897  15.274   6.247
 4179POPC   D2A53272  16.513  15.107   6.448
 4179POPC   C3A53273  16.574  15.004   6.875
 4179POPC   C4A53274  16.577  15.229   7.248
 4179POPC   C1B53275  17.106  14.832   6.025
 4179POPC   C2B53276  16.955  14.797   6.472
 4179POPC   C3B53277  17.126  14.778   6.881
 4179POPC   C4B53278  16.950  14.874   7.253
 4180POPC   NC353279  43.330  36.340   5.165
 4180POPC   PO453280  43.139  35.789   5.404
 4180POPC   GL153281  43.329  36.106   5.727
 4180POPC   GL253282  43.035  36.233   5.865
 4180POPC   C1A53283  43.411  36.207   6.219
 4180POPC   D2A53284  43.416  35.988   6.645
 4180POPC   C3A53285  43.228  36.172   7.037
 4180POPC   C4A53286  43.048  36.042   7.431
 4180POPC   C1B53287  42.958  35.943   6.197
 4180POPC   C2B53288  42.823  36.040   6.600
 4180POPC   C3B53289  42.700  36.391   6.830
 4180POPC   C4B53290  42.784  36.415   7.224
 4181POPC   NC353291   3.807  12.391   5.696
 4181POPC   PO453292   3.756  12.902   5.272
 4181POPC   GL153293   3.746  12.910   5.742
 4181POPC   GL253294   3.468  12.735   5.833
 4181POPC   C1A53295   3.619  12.981   6.243
 4181POPC   D2A53296   3.634  12.769   6.664
 4181POPC   C3A53297   3.674  12.875   7.123
 4181POPC   C4A53298   3.974  12.668   7.405
 4181POPC   C1B53299   3.411  12.495   6.224
 4181POPC   C2B53300   3.261  12.377   6.612
 4181POPC   C3B53301   3.237  12.605   6.963
 4181POPC   C4B53302   3.171  12.777   7.347
 4182POPC   NC353303  39.369  18.498   5.416
 4182POPC   PO453304  38.975  17.894   5.504
 4182POPC   GL153305  39.153  18.195   5.812
 4182POPC   GL253306  39.527  18.239   5.834
 4182POPC   C1A53307  38.975  18.176   6.237
 4182POPC   D2A53308  39.114  18.281   6.652
 4182POPC   C3A53309  38.957  18.023   7.014
 4182POPC   C4A53310  38.863  18.030   7.492
 4182POPC   C1B53311  39.488  18.192   6.267
 4182POPC   C2B53312  39.637  18.293   6.679
 4182POPC   C3B53313  39.376  18.399   7.063
 4182POPC   C4B53314  39.326  18.130   7.355
 4183POPC   NC353315  34.606  17.298   5.479
 4183POPC   PO453316  34.482  17.874   5.174
 4183POPC   GL153317  34.572  17.752   5.677
 4183POPC   GL253318  34.245  17.534   5.778
 4183POPC   C1A53319  34.590  17.687   6.131
 4183POPC   D2A53320  34.427  17.515   6.521
 4183POPC   C3A53321  34.398  17.736   6.889
 4183POPC   C4A53322  34.751  17.721   7.130
 4183POPC   C1B53323  34.199  17.258   6.156
 4183POPC   C2B53324  34.053  17.177   6.608
 4183POPC   C3B53325  34.218  17.234   7.064
 4183POPC   C4B53326  34.212  17.156   7.553
 4184POPC   NC353327  33.740   2.283   5.489
 4184POPC   PO453328  34.108   1.706   5.521
 4184POPC   GL153329  33.813   1.844   5.858
 4184POPC   GL253330  33.878   2.198   5.977
 4184POPC   C1A53331  33.777   1.871   6.336
 4184POPC   D2A53332  33.469   1.741   6.652
 4184POPC   C3A53333  33.649   1.875   7.048
 4184POPC   C4A53334  34.057   1.807   7.222
 4184POPC   C1B53335  34.153   2.281   6.345
 4184POPC   C2B53336  34.200   2.091   6.777
 4184POPC   C3B53337  34.370   2.219   7.160
 4184POPC   C4B53338  34.049   2.466   7.332
 4185POPC   NC353339  23.379   1.922   5.499
 4185POPC   PO453340  23.931   1.692   5.250
 4185POPC   GL153341  23.923   1.851   5.695
 4185POPC   GL253342  23.630   1.715   5.909
 4185POPC   C1A53343  23.909   2.100   6.075
 4185POPC   D2A53344  23.638   2.130   6.472
 4185POPC   C3A53345  23.806   2.138   6.884
 4185POPC   C4A53346  23.535   2.107   7.213
 4185POPC   C1B53347  23.773   1.671   6.342
 4185POPC   C2B53348  23.682   1.511   6.742
 4185POPC   C3B53349  23.695   1.610   7.145
 4185POPC   C4B53350  23.573   1.676   7.557
 4186POPC   NC353351  40.599  39.999   5.490
 4186POPC   PO453352  41.168  39.704   5.651
 4186POPC   GL153353  40.955  40.055   5.914
 4186POPC   GL253354  40.625  40.287   5.903
 4186POPC   C1A53355  40.865  40.195   6.350
 4186POPC   D2A53356  40.656  40.504   6.646
 4186POPC   C3A53357  40.574  40.262   7.026
 4186POPC   C4A53358  40.938  40.019   7.189
 4186POPC   C1B53359  40.436  39.923   6.132
 4186POPC   C2B53360  40.346  39.781   6.566
 4186POPC   C3B53361  40.541  39.730   6.995
 4186POPC   C4B53362  40.486  39.862   7.420
 4187POPC   NC353363  30.966  19.031   5.400
 4187POPC   PO453364  30.476  19.466   5.375
 4187POPC   GL153365  30.511  19.288   5.821
 4187POPC   GL253366  30.602  18.973   5.794
 4187POPC   C1A53367  30.787  19.182   6.209
 4187POPC   D2A53368  31.001  18.948   6.545
 4187POPC   C3A53369  30.770  19.022   6.915
 4187POPC   C4A53370  30.873  19.372   7.100
 4187POPC   C1B53371  30.528  18.711   6.182
 4187POPC   C2B53372  30.606  18.623   6.614
 4187POPC   C3B53373  30.487  18.602   7.049
 4187POPC   C4B53374  30.335  18.778   7.452
 4188POPC   NC353375  19.576  20.607   5.161
 4188POPC   PO453376  20.063  20.232   5.457
 4188POPC   GL153377  19.703  20.426   5.676
 4188POPC   GL253378  19.839  20.738   5.596
 4188POPC   C1A53379  19.525  20.465   6.120
 4188POPC   D2A53380  19.663  20.381   6.561
 4188POPC   C3A53381  19.439  20.360   6.950
 4188POPC   C4A53382  19.569  20.589   7.314
 4188POPC   C1B53383  20.007  20.661   6.048
 4188POPC   C2B53384  20.052  20.692   6.526
 4188POPC   C3B53385  19.965  20.765   6.988
 4188POPC   C4B53386  20.060  20.596   7.424
 4189POPC   NC353387  43.753  25.725   5.162
 4189POPC   PO453388  44.151  25.431   5.577
 4189POPC   GL153389  43.810  25.359   5.825
 4189POPC   GL253390  43.479  25.499   5.659
 4189POPC   C1A53391  43.870  25.282   6.292
 4189POPC   D2A53392  43.918  24.992   6.628
 4189POPC   C3A53393  43.836  25.147   7.030
 4189POPC   C4A53394  44.001  25.371   7.380
 4189POPC   C1B53395  43.458  25.578   6.116
 4189POPC   C2B53396  43.384  25.359   6.524
 4189POPC   C3B53397  43.449  25.540   6.945
 4189POPC   C4B53398  43.498  25.375   7.335
 4190POPC   NC353399  33.651  14.762   5.457
 4190POPC   PO453400  33.821  15.448   5.394
 4190POPC   GL153401  33.954  15.151   5.726
 4190POPC   GL253402  33.655  14.999   5.898
 4190POPC   C1A53403  34.046  15.168   6.189
 4190POPC   D2A53404  33.788  15.056   6.546
 4190POPC   C3A53405  33.877  15.294   6.927
 4190POPC   C4A53406  33.798  15.190   7.349
 4190POPC   C1B53407  33.981  14.681   6.038
 4190POPC   C2B53408  34.058  14.602   6.487
 4190POPC   C3B53409  34.085  14.803   6.899
 4190POPC   C4B53410  34.262  14.975   7.295
 4191POPC   NC353411  11.024  10.772   5.478
 4191POPC   PO453412  11.638  11.044   5.426
 4191POPC   GL153413  11.476  10.704   5.767
 4191POPC   GL253414  11.234  10.394   5.765
 4191POPC   C1A53415  11.420  10.572   6.226
 4191POPC   D2A53416  11.185  10.747   6.597
 4191POPC   C3A53417  11.338  10.548   7.007
 4191POPC   C4A53418  11.431  10.582   7.464
 4191POPC   C1B53419  10.920  10.509   6.095
 4191POPC   C2B53420  10.822  10.375   6.499
 4191POPC   C3B53421  10.835  10.510   6.910
 4191POPC   C4B53422  10.949  10.419   7.310
 4192POPC   NC353423  28.337   6.954   5.521
 4192POPC   PO453424  27.993   7.503   5.439
 4192POPC   GL153425  28.053   7.308   5.837
 4192POPC   GL253426  28.412   7.359   5.876
 4192POPC   C1A53427  28.089   7.552   6.245
 4192POPC   D2A53428  28.122   7.869   6.588
 4192POPC   C3A53429  28.188   7.600   6.962
 4192POPC   C4A53430  28.284   7.575   7.424
 4192POPC   C1B53431  28.524   7.240   6.323
 4192POPC   C2B53432  28.378   7.129   6.763
 4192POPC   C3B53433  28.567   7.283   7.130
 4192POPC   C4B53434  28.695   7.737   7.143
 4193POPC   NC353435  38.241   2.925   5.299
 4193POPC   PO453436  38.903   2.927   5.438
 4193POPC   GL153437  38.572   2.935   5.764
 4193POPC   GL253438  38.380   3.247   5.743
 4193POPC   C1A53439  38.649   2.766   6.198
 4193POPC   D2A53440  38.969   2.758   6.527
 4193POPC   C3A53441  38.776   2.777   6.918
 4193POPC   C4A53442  38.552   2.576   7.186
 4193POPC   C1B53443  38.346   3.178   6.181
 4193POPC   C2B53444  38.406   3.009   6.611
 4193POPC   C3B53445  38.490   3.192   7.045
 4193POPC   C4B53446  38.607   3.022   7.432
 4194POPC   NC353447  31.435  20.158   5.362
 4194POPC   PO453448  31.258  19.484   5.320
 4194POPC   GL153449  31.330  19.726   5.718
 4194POPC   GL253450  31.213  20.053   5.812
 4194POPC   C1A53451  31.658  19.775   6.058
 4194POPC   D2A53452  31.724  19.961   6.469
 4194POPC   C3A53453  31.641  19.723   6.833
 4194POPC   C4A53454  31.765  19.823   7.232
 4194POPC   C1B53455  31.195  19.909   6.246
 4194POPC   C2B53456  31.147  19.875   6.706
 4194POPC   C3B53457  31.337  20.072   7.073
 4194POPC   C4B53458  31.346  20.062   7.536
 4195POPC   NC353459  40.081  33.336   5.450
 4195POPC   PO453460  40.342  32.764   5.393
 4195POPC   GL153461  40.059  32.907   5.780
 4195POPC   GL253462  39.893  33.254   5.907
 4195POPC   C1A53463  39.965  32.893   6.236
 4195POPC   D2A53464  39.856  33.138   6.585
 4195POPC   C3A53465  39.920  32.892   6.958
 4195POPC   C4A53466  40.012  32.987   7.389
 4195POPC   C1B53467  40.089  33.480   6.204
 4195POPC   C2B53468  40.277  33.553   6.581
 4195POPC   C3B53469  40.153  33.369   6.995
 4195POPC   C4B53470  40.272  33.415   7.446
 4196POPC   NC353471  17.467  10.288   5.386
 4196POPC   PO453472  17.210  10.881   5.302
 4196POPC   GL153473  17.390  10.789   5.792
 4196POPC   GL253474  17.546  10.452   5.865
 4196POPC   C1A53475  17.630  10.813   6.226
 4196POPC   D2A53476  17.447  10.645   6.657
 4196POPC   C3A53477  17.658  10.682   7.077
 4196POPC   C4A53478  17.715  10.729   7.525
 4196POPC   C1B53479  17.466  10.292   6.271
 4196POPC   C2B53480  17.614  10.110   6.641
 4196POPC   C3B53481  17.577  10.159   7.070
 4196POPC   C4B53482  17.947  10.278   7.271
 4197POPC   NC353483  42.264  17.762   5.187
 4197POPC   PO453484  42.439  17.167   5.201
 4197POPC   GL153485  42.304  17.518   5.630
 4197POPC   GL253486  42.063  17.498   5.864
 4197POPC   C1A53487  42.439  17.790   6.064
 4197POPC   D2A53488  42.740  17.867   6.467
 4197POPC   C3A53489  42.568  17.862   6.920
 4197POPC   C4A53490  42.340  17.576   7.215
 4197POPC   C1B53491  42.250  17.366   6.275
 4197POPC   C2B53492  42.273  17.439   6.713
 4197POPC   C3B53493  42.033  17.221   7.055
 4197POPC   C4B53494  41.970  17.284   7.540
 4198POPC   NC353495   2.422  31.051   5.105
 4198POPC   PO453496   2.736  30.549   5.443
 4198POPC   GL153497   2.851  30.614   5.845
 4198POPC   GL253498   2.933  30.955   5.849
 4198POPC   C1A53499   2.908  30.676   6.283
 4198POPC   D2A53500   3.100  30.910   6.568
 4198POPC   C3A53501   2.955  30.765   6.929
 4198POPC   C4A53502   2.638  30.665   7.203
 4198POPC   C1B53503   2.638  31.080   6.197
 4198POPC   C2B53504   2.546  30.914   6.603
 4198POPC   C3B53505   2.550  31.095   6.997
 4198POPC   C4B53506   2.434  31.117   7.419
 4199POPC   NC353507   6.814   1.121   5.383
 4199POPC   PO453508   6.225   0.811   5.355
 4199POPC   GL153509   6.387   0.994   5.788
 4199POPC   GL253510   6.709   1.191   5.874
 4199POPC   C1A53511   6.360   1.171   6.246
 4199POPC   D2A53512   6.519   0.962   6.660
 4199POPC   C3A53513   6.359   1.073   7.118
 4199POPC   C4A53514   6.354   1.240   7.590
 4199POPC   C1B53515   6.969   1.517   6.096
 4199POPC   C2B53516   7.109   1.507   6.549
 4199POPC   C3B53517   6.803   1.347   6.860
 4199POPC   C4B53518   6.672   1.469   7.257
 4200POPC   NC353519  43.553  16.317   5.422
 4200POPC   PO453520  43.150  15.817   5.599
 4200POPC   GL153521  43.084  16.101   5.889
 4200POPC   GL253522  43.258  16.408   5.809
 4200POPC   C1A53523  42.888  15.967   6.249
 4200POPC   D2A53524  42.812  16.087   6.640
 4200POPC   C3A53525  43.075  15.895   6.924
 4200POPC   C4A53526  43.018  15.890   7.343
 4200POPC   C1B53527  43.491  16.293   6.139
 4200POPC   C2B53528  43.309  16.136   6.496
 4200POPC   C3B53529  43.428  16.252   6.870
 4200POPC   C4B53530  43.471  16.113   7.245
 4201POPC   NC353531   1.223  33.379   5.207
 4201POPC   PO453532   0.893  32.958   5.613
 4201POPC   GL153533   1.213  33.073   5.846
 4201POPC   GL253534   1.344  33.386   5.754
 4201POPC   C1A53535   1.189  33.153   6.268
 4201POPC   D2A53536   1.275  32.983   6.660
 4201POPC   C3A53537   1.085  33.061   7.055
 4201POPC   C4A53538   1.287  33.244   7.444
 4201POPC   C1B53539   1.543  33.525   6.128
 4201POPC   C2B53540   1.516  33.443   6.569
 4201POPC   C3B53541   1.571  33.277   6.973
 4201POPC   C4B53542   1.715  33.527   7.298
 4202POPC   NC353543   2.264  24.066   5.085
 4202POPC   PO453544   2.025  24.677   5.494
 4202POPC   GL153545   1.930  24.499   5.901
 4202POPC   GL253546   1.706  24.207   5.789
 4202POPC   C1A53547   2.088  24.667   6.320
 4202POPC   D2A53548   2.170  24.852   6.751
 4202POPC   C3A53549   2.145  24.569   7.118
 4202POPC   C4A53550   2.262  24.364   7.527
 4202POPC   C1B53551   1.813  24.083   6.195
 4202POPC   C2B53552   1.919  24.272   6.590
 4202POPC   C3B53553   1.697  24.331   6.951
 4202POPC   C4B53554   1.553  24.067   7.259
 4203POPC   NC353555  40.257   4.881   5.423
 4203POPC   PO453556  39.816   5.214   5.134
 4203POPC   GL153557  39.875   5.134   5.662
 4203POPC   GL253558  39.824   4.892   5.916
 4203POPC   C1A53559  40.079   5.313   6.083
 4203POPC   D2A53560  40.300   5.597   6.438
 4203POPC   C3A53561  40.170   5.517   6.888
 4203POPC   C4A53562  40.234   5.132   7.116
 4203POPC   C1B53563  40.114   4.726   6.248
 4203POPC   C2B53564  40.309   4.792   6.688
 4203POPC   C3B53565  40.142   4.640   7.088
 4203POPC   C4B53566  39.842   4.883   7.360
 4204POPC   NC353567  42.180  20.919   5.498
 4204POPC   PO453568  42.686  20.418   5.420
 4204POPC   GL153569  42.519  20.378   5.858
 4204POPC   GL253570  42.226  20.554   5.867
 4204POPC   C1A53571  42.422  20.432   6.340
 4204POPC   D2A53572  42.353  20.337   6.749
 4204POPC   C3A53573  42.542  20.629   7.005
 4204POPC   C4A53574  42.604  20.498   7.431
 4204POPC   C1B53575  42.080  20.783   6.218
 4204POPC   C2B53576  42.206  20.894   6.668
 4204POPC   C3B53577  42.102  20.933   7.131
 4204POPC   C4B53578  42.240  20.847   7.568
 4205POPC   NC353579   4.595  34.373   5.183
 4205POPC   PO453580   4.229  34.901   5.441
 4205POPC   GL153581   4.409  34.725   5.822
 4205POPC   GL253582   4.538  34.400   5.750
 4205POPC   C1A53583   4.290  34.758   6.263
 4205POPC   D2A53584   4.067  34.515   6.578
 4205POPC   C3A53585   4.283  34.462   6.940
 4205POPC   C4A53586   4.124  34.576   7.317
 4205POPC   C1B53587   4.280  34.268   6.116
 4205POPC   C2B53588   4.445  34.166   6.515
 4205POPC   C3B53589   4.588  34.043   6.918
 4205POPC   C4B53590   4.512  34.217   7.351
 4206POPC   NC353591   0.996  17.469   5.383
 4206POPC   PO453592   1.642  17.187   5.408
 4206POPC   GL153593   1.468  17.492   5.750
 4206POPC   GL253594   1.108  17.602   5.851
 4206POPC   C1A53595   1.462  17.569   6.217
 4206POPC   D2A53596   1.167  17.434   6.561
 4206POPC   C3A53597   1.095  17.612   6.964
 4206POPC   C4A53598   1.222  17.558   7.390
 4206POPC   C1B53599   0.816  17.508   6.183
 4206POPC   C2B53600   0.652  17.343   6.579
 4206POPC   C3B53601   0.803  17.185   6.949
 4206POPC   C4B53602   0.765  17.368   7.344
 4207POPC   NC353603  42.603  42.655   5.480
 4207POPC   PO453604  42.430  42.001   5.563
 4207POPC   GL153605  42.596  42.280   5.867
 4207POPC   GL253606  42.340  42.555   5.916
 4207POPC   C1A53607  42.677  42.372   6.300
 4207POPC   D2A53608  42.471  42.457   6.720
 4207POPC   C3A53609  42.442  42.170   7.101
 4207POPC   C4A53610  42.546  42.265   7.556
 4207POPC   C1B53611  42.140  42.236   6.198
 4207POPC   C2B53612  42.088  42.110   6.633
 4207POPC   C3B53613  41.922  42.179   7.038
 4207POPC   C4B53614  42.080  42.374   7.421
 4208POPC   NC353615  29.561   5.987   5.503
 4208POPC   PO453616  28.974   5.642   5.612
 4208POPC   GL153617  29.204   5.869   5.881
 4208POPC   GL253618  29.477   5.613   5.830
 4208POPC   C1A53619  29.069   5.958   6.304
 4208POPC   D2A53620  29.298   6.081   6.673
 4208POPC   C3A53621  29.061   6.042   7.068
 4208POPC   C4A53622  28.762   5.750   7.252
 4208POPC   C1B53623  29.467   5.646   6.269
 4208POPC   C2B53624  29.166   5.482   6.552
 4208POPC   C3B53625  29.149   5.544   6.985
 4208POPC   C4B53626  29.062   5.337   7.357
 4209POPC   NC353627  27.220  42.760   5.549
 4209POPC   PO453628  27.686  42.250   5.501
 4209POPC   GL153629  27.886  42.373   5.920
 4209POPC   GL253630  27.566  42.316   6.008
 4209POPC   C1A53631  27.834  42.575   6.333
 4209POPC   D2A53632  27.681  42.307   6.656
 4209POPC   C3A53633  27.745  42.464   7.036
 4209POPC   C4A53634  27.751  42.258   7.445
 4209POPC   C1B53635  27.445  42.035   6.306
 4209POPC   C2B53636  27.293  41.969   6.726
 4209POPC   C3B53637  27.347  42.168   7.118
 4209POPC   C4B53638  27.432  41.854   7.440
 4210POPC   NC353639  40.524  13.171   5.324
 4210POPC   PO453640  41.159  13.010   5.393
 4210POPC   GL153641  40.929  12.784   5.760
 4210POPC   GL253642  40.658  12.557   5.683
 4210POPC   C1A53643  40.856  12.830   6.228
 4210POPC   D2A53644  41.051  12.795   6.637
 4210POPC   C3A53645  41.103  13.154   6.864
 4210POPC   C4A53646  41.014  13.184   7.273
 4210POPC   C1B53647  40.806  12.341   6.091
 4210POPC   C2B53648  40.686  12.446   6.549
 4210POPC   C3B53649  40.731  12.567   7.000
 4210POPC   C4B53650  40.624  12.863   7.369
 4211POPC   NC353651  17.035   1.512   5.035
 4211POPC   PO453652  16.533   1.343   5.481
 4211POPC   GL153653  16.544   1.179   5.910
 4211POPC   GL253654  16.264   0.942   5.892
 4211POPC   C1A53655  16.773   1.213   6.346
 4211POPC   D2A53656  16.775   0.986   6.768
 4211POPC   C3A53657  16.990   1.125   7.131
 4211POPC   C4A53658  16.817   1.313   7.492
 4211POPC   C1B53659  16.384   0.878   6.313
 4211POPC   C2B53660  16.291   1.120   6.665
 4211POPC   C3B53661  16.285   0.927   7.069
 4211POPC   C4B53662  16.630   0.831   7.311
 4212POPC   NC353663  15.007  19.031   5.391
 4212POPC   PO453664  15.542  18.832   5.509
 4212POPC   GL153665  15.405  19.197   5.752
 4212POPC   GL253666  15.050  19.140   5.882
 4212POPC   C1A53667  15.457  19.152   6.194
 4212POPC   D2A53668  15.177  19.151   6.558
 4212POPC   C3A53669  15.405  19.201   6.920
 4212POPC   C4A53670  15.522  18.967   7.252
 4212POPC   C1B53671  14.763  19.174   6.239
 4212POPC   C2B53672  14.762  18.822   6.520
 4212POPC   C3B53673  14.988  18.765   6.905
 4212POPC   C4B53674  15.012  19.050   7.213
 4213POPC   NC353675  17.085   8.715   5.479
 4213POPC   PO453676  17.455   8.148   5.493
 4213POPC   GL153677  17.601   8.398   5.826
 4213POPC   GL253678  17.851   8.672   5.832
 4213POPC   C1A53679  17.464   8.163   6.208
 4213POPC   D2A53680  17.496   7.789   6.455
 4213POPC   C3A53681  17.537   7.938   6.865
 4213POPC   C4A53682  17.279   8.208   7.113
 4213POPC   C1B53683  17.607   8.645   6.260
 4213POPC   C2B53684  17.537   8.442   6.679
 4213POPC   C3B53685  17.779   8.361   7.067
 4213POPC   C4B53686  17.822   8.460   7.517
 4214POPC   NC353687  15.252  21.920   5.162
 4214POPC   PO453688  14.954  22.384   5.419
 4214POPC   GL153689  15.219  22.213   5.750
 4214POPC   GL253690  15.234  21.851   5.702
 4214POPC   C1A53691  15.358  22.392   6.164
 4214POPC   D2A53692  15.522  22.295   6.570
 4214POPC   C3A53693  15.340  22.270   6.965
 4214POPC   C4A53694  15.154  22.529   7.253
 4214POPC   C1B53695  15.117  21.891   6.167
 4214POPC   C2B53696  15.114  21.936   6.633
 4214POPC   C3B53697  15.174  21.783   7.066
 4214POPC   C4B53698  15.361  21.974   7.479
 4215POPC   NC353699  20.278  19.578   5.559
 4215POPC   PO453700  19.893  19.072   5.268
 4215POPC   GL153701  19.907  19.070   5.733
 4215POPC   GL253702  20.256  19.094   5.740
 4215POPC   C1A53703  19.674  19.228   6.117
 4215POPC   D2A53704  19.803  19.269   6.547
 4215POPC   C3A53705  19.558  19.206   6.909
 4215POPC   C4A53706  19.613  19.385   7.288
 4215POPC   C1B53707  20.184  19.170   6.168
 4215POPC   C2B53708  20.254  19.021   6.589
 4215POPC   C3B53709  20.067  19.112   7.006
 4215POPC   C4B53710  20.253  18.854   7.342
 4216POPC   NC353711  32.315  17.619   5.391
 4216POPC   PO453712  31.785  17.084   5.243
 4216POPC   GL153713  31.988  17.211   5.697
 4216POPC   GL253714  32.306  17.418   5.870
 4216POPC   C1A53715  31.867  17.356   6.125
 4216POPC   D2A53716  32.122  17.224   6.485
 4216POPC   C3A53717  32.070  17.324   6.926
 4216POPC   C4A53718  32.418  17.360   7.219
 4216POPC   C1B53719  32.246  17.690   6.224
 4216POPC   C2B53720  32.029  17.739   6.600
 4216POPC   C3B53721  32.216  17.818   7.000
 4216POPC   C4B53722  31.991  17.825   7.376
 4217POPC   NC353723  31.802  15.902   5.436
 4217POPC   PO453724  31.299  15.419   5.466
 4217POPC   GL153725  31.406  15.749   5.718
 4217POPC   GL253726  31.695  15.599   5.858
 4217POPC   C1A53727  31.501  16.050   6.047
 4217POPC   D2A53728  31.351  15.991   6.442
 4217POPC   C3A53729  31.513  16.067   6.838
 4217POPC   C4A53730  31.415  16.202   7.251
 4217POPC   C1B53731  31.557  15.531   6.280
 4217POPC   C2B53732  31.524  15.578   6.719
 4217POPC   C3B53733  31.384  15.654   7.138
 4217POPC   C4B53734  31.551  15.594   7.543
 4218POPC   NC353735  34.249  16.583   5.432
 4218POPC   PO453736  34.927  16.849   5.235
 4218POPC   GL153737  34.669  16.789   5.625
 4218POPC   GL253738  34.653  16.435   5.753
 4218POPC   C1A53739  34.569  16.866   6.081
 4218POPC   D2A53740  34.493  16.960   6.526
 4218POPC   C3A53741  34.472  16.765   6.939
 4218POPC   C4A53742  34.618  16.926   7.340
 4218POPC   C1B53743  34.454  16.360   6.152
 4218POPC   C2B53744  34.491  16.378   6.578
 4218POPC   C3B53745  34.471  16.232   6.985
 4218POPC   C4B53746  34.529  16.444   7.371
 4219POPC   NC353747  11.917  42.616   5.458
 4219POPC   PO453748  12.030  43.258   5.275
 4219POPC   GL153749  11.940  43.115   5.735
 4219POPC   GL253750  11.721  43.437   5.780
 4219POPC   C1A53751  12.106  42.952   6.197
 4219POPC   D2A53752  12.421  43.122   6.543
 4219POPC   C3A53753  12.272  43.111   6.961
 4219POPC   C4A53754  11.973  42.847   7.101
 4219POPC   C1B53755  11.856  43.393   6.163
 4219POPC   C2B53756  11.944  43.245   6.578
 4219POPC   C3B53757  11.811  43.363   6.964
 4219POPC   C4B53758  12.018  43.589   7.291
 4220POPC   NC353759  38.124  23.782   5.465
 4220POPC   PO453760  38.821  23.823   5.499
 4220POPC   GL153761  38.546  23.684   5.793
 4220POPC   GL253762  38.484  24.039   5.824
 4220POPC   C1A53763  38.481  23.685   6.230
 4220POPC   D2A53764  38.580  23.480   6.591
 4220POPC   C3A53765  38.382  23.618   6.907
 4220POPC   C4A53766  38.473  23.572   7.302
 4220POPC   C1B53767  38.834  24.051   6.143
 4220POPC   C2B53768  38.903  23.870   6.545
 4220POPC   C3B53769  38.765  23.970   6.955
 4220POPC   C4B53770  38.762  23.971   7.384
 4221POPC   NC353771   5.484   0.404   5.588
 4221POPC   PO453772   4.869   0.737   5.614
 4221POPC   GL153773   4.988   0.359   5.827
 4221POPC   GL253774   4.896   0.074   5.628
 4221POPC   C1A53775   5.125   0.381   6.266
 4221POPC   D2A53776   5.164   0.739   6.593
 4221POPC   C3A53777   5.352   0.546   6.963
 4221POPC   C4A53778   5.329   0.488   7.390
 4221POPC   C1B53779   4.744  44.945   6.028
 4221POPC   C2B53780   4.700   0.122   6.450
 4221POPC   C3B53781   4.818   0.401   6.790
 4221POPC   C4B53782   4.943   0.253   7.169
 4222POPC   NC353783  29.258   9.224   5.529
 4222POPC   PO453784  29.262   8.552   5.430
 4222POPC   GL153785  29.073   8.768   5.782
 4222POPC   GL253786  28.792   8.982   5.729
 4222POPC   C1A53787  29.124   9.003   6.176
 4222POPC   D2A53788  29.298   9.167   6.569
 4222POPC   C3A53789  29.108   8.954   6.930
 4222POPC   C4A53790  29.259   9.025   7.314
 4222POPC   C1B53791  28.657   9.217   6.109
 4222POPC   C2B53792  28.792   9.157   6.544
 4222POPC   C3B53793  28.674   9.208   6.948
 4222POPC   C4B53794  28.814   9.243   7.379
 4223POPC   NC353795   6.975  43.901   5.513
 4223POPC   PO453796   6.321  44.057   5.488
 4223POPC   GL153797   6.422  43.757   5.794
 4223POPC   GL253798   6.696  43.557   5.756
 4223POPC   C1A53799   6.411  43.910   6.202
 4223POPC   D2A53800   6.335  44.215   6.528
 4223POPC   C3A53801   6.404  44.026   6.910
 4223POPC   C4A53802   6.807  43.876   7.078
 4223POPC   C1B53803   6.893  43.667   6.148
 4223POPC   C2B53804   6.745  43.686   6.588
 4223POPC   C3B53805   6.789  43.382   6.938
 4223POPC   C4B53806   7.068  43.140   7.205
 4224POPC   NC353807   9.259  18.045   5.401
 4224POPC   PO453808   9.967  18.159   5.296
 4224POPC   GL153809   9.822  18.319   5.699
 4224POPC   GL253810   9.484  18.435   5.661
 4224POPC   C1A53811   9.862  18.398   6.147
 4224POPC   D2A53812  10.080  18.483   6.532
 4224POPC   C3A53813   9.904  18.535   6.935
 4224POPC   C4A53814   9.879  18.241   7.281
 4224POPC   C1B53815   9.339  18.458   6.088
 4224POPC   C2B53816   9.487  18.397   6.507
 4224POPC   C3B53817   9.431  18.346   6.920
 4224POPC   C4B53818   9.077  18.466   7.136
 4225POPC   NC353819  15.814  25.073   5.439
 4225POPC   PO453820  16.159  25.617   5.168
 4225POPC   GL153821  16.150  25.442   5.616
 4225POPC   GL253822  15.815  25.457   5.804
 4225POPC   C1A53823  16.210  25.395   6.089
 4225POPC   D2A53824  15.856  25.266   6.384
 4225POPC   C3A53825  15.803  25.174   6.844
 4225POPC   C4A53826  16.200  25.094   7.103
 4225POPC   C1B53827  15.557  25.645   6.143
 4225POPC   C2B53828  15.638  25.710   6.585
 4225POPC   C3B53829  15.456  25.572   6.969
 4225POPC   C4B53830  15.746  25.463   7.269
 4226POPC   NC353831   6.211  35.640   5.297
 4226POPC   PO453832   6.847  35.314   5.341
 4226POPC   GL153833   6.551  35.406   5.605
 4226POPC   GL253834   6.787  35.646   5.722
 4226POPC   C1A53835   6.416  35.361   6.036
 4226POPC   D2A53836   6.330  35.236   6.440
 4226POPC   C3A53837   6.327  35.406   6.848
 4226POPC   C4A53838   6.579  35.214   7.200
 4226POPC   C1B53839   6.700  35.781   6.105
 4226POPC   C2B53840   6.633  35.663   6.524
 4226POPC   C3B53841   6.730  35.735   6.957
 4226POPC   C4B53842   7.061  35.879   7.224
 4227POPC   NC353843  10.184  14.672   5.462
 4227POPC   PO453844  10.327  13.990   5.660
 4227POPC   GL153845  10.677  14.141   5.823
 4227POPC   GL253846  10.607  14.506   5.901
 4227POPC   C1A53847  10.719  14.136   6.241
 4227POPC   D2A53848  10.442  14.077   6.614
 4227POPC   C3A53849  10.552  14.207   7.023
 4227POPC   C4A53850  10.899  14.084   7.312
 4227POPC   C1B53851  10.401  14.515   6.334
 4227POPC   C2B53852  10.014  14.582   6.551
 4227POPC   C3B53853  10.040  14.702   6.974
 4227POPC   C4B53854  10.209  14.482   7.294
 4228POPC   NC353855  23.988  31.768   5.551
 4228POPC   PO453856  23.361  31.412   5.406
 4228POPC   GL153857  23.594  31.462   5.818
 4228POPC   GL253858  23.865  31.320   6.033
 4228POPC   C1A53859  23.663  31.733   6.201
 4228POPC   D2A53860  23.488  31.619   6.575
 4228POPC   C3A53861  23.733  31.666   6.928
 4228POPC   C4A53862  23.522  31.967   7.150
 4228POPC   C1B53863  23.538  31.166   6.344
 4228POPC   C2B53864  23.520  31.144   6.812
 4228POPC   C3B53865  23.567  31.304   7.249
 4228POPC   C4B53866  23.438  31.129   7.671
 4229POPC   NC353867   0.403  27.932   5.331
 4229POPC   PO453868   0.340  27.254   5.413
 4229POPC   GL153869   0.307  27.550   5.769
 4229POPC   GL253870   0.608  27.700   5.764
 4229POPC   C1A53871   0.409  27.462   6.225
 4229POPC   D2A53872   0.441  27.335   6.682
 4229POPC   C3A53873   0.115  27.473   6.951
 4229POPC   C4A53874   0.136  27.774   7.274
 4229POPC   C1B53875   0.587  27.932   6.171
 4229POPC   C2B53876   0.348  27.855   6.553
 4229POPC   C3B53877   0.527  27.829   6.934
 4229POPC   C4B53878   0.653  28.134   7.212
 4230POPC   NC353879  24.752  31.399   5.503
 4230POPC   PO453880  24.100  31.302   5.588
 4230POPC   GL153881  24.459  31.405   5.934
 4230POPC   GL253882  24.751  31.668   5.937
 4230POPC   C1A53883  24.680  31.443   6.379
 4230POPC   D2A53884  24.477  31.279   6.746
 4230POPC   C3A53885  24.487  31.293   7.167
 4230POPC   C4A53886  24.114  31.294   7.440
 4230POPC   C1B53887  24.725  31.969   6.286
 4230POPC   C2B53888  24.597  31.858   6.711
 4230POPC   C3B53889  24.296  31.767   7.041
 4230POPC   C4B53890  24.418  31.713   7.449
 4231POPC   NC353891  33.318   4.276   5.414
 4231POPC   PO453892  32.667   4.165   5.515
 4231POPC   GL153893  32.751   4.421   5.847
 4231POPC   GL253894  33.086   4.238   5.892
 4231POPC   C1A53895  32.732   4.415   6.284
 4231POPC   D2A53896  32.966   4.095   6.514
 4231POPC   C3A53897  33.288   4.247   6.790
 4231POPC   C4A53898  33.037   4.347   7.132
 4231POPC   C1B53899  33.321   4.365   6.250
 4231POPC   C2B53900  33.128   4.642   6.521
 4231POPC   C3B53901  33.185   4.776   6.900
 4231POPC   C4B53902  33.286   4.717   7.339
 4232POPC   NC353903  37.628  28.821   5.487
 4232POPC   PO453904  37.670  29.549   5.435
 4232POPC   GL153905  37.499  29.233   5.783
 4232POPC   GL253906  37.798  29.076   5.914
 4232POPC   C1A53907  37.464  29.084   6.275
 4232POPC   D2A53908  37.449  28.944   6.712
 4232POPC   C3A53909  37.733  29.141   6.954
 4232POPC   C4A53910  37.968  29.135   7.288
 4232POPC   C1B53911  37.940  29.341   6.324
 4232POPC   C2B53912  37.737  29.601   6.646
 4232POPC   C3B53913  37.451  29.571   6.994
 4232POPC   C4B53914  37.253  29.208   7.175
 4233POPC   NC353915  20.388  10.782   5.284
 4233POPC   PO453916  20.518  10.201   5.508
 4233POPC   GL153917  20.517  10.574   5.761
 4233POPC   GL253918  20.829  10.771   5.765
 4233POPC   C1A53919  20.520  10.595   6.194
 4233POPC   D2A53920  20.603  10.349   6.520
 4233POPC   C3A53921  20.594  10.593   6.859
 4233POPC   C4A53922  20.378  10.438   7.209
 4233POPC   C1B53923  21.023  10.665   6.144
 4233POPC   C2B53924  21.088  10.572   6.566
 4233POPC   C3B53925  21.103  10.717   6.978
 4233POPC   C4B53926  20.889  10.470   7.250
 4234POPC   NC353927  24.534  15.548   5.422
 4234POPC   PO453928  24.579  14.917   5.474
 4234POPC   GL153929  24.721  15.174   5.775
 4234POPC   GL253930  24.573  15.483   5.918
 4234POPC   C1A53931  24.926  15.097   6.146
 4234POPC   D2A53932  24.860  14.943   6.555
 4234POPC   C3A53933  24.536  15.141   6.784
 4234POPC   C4A53934  24.460  15.001   7.192
 4234POPC   C1B53935  24.551  15.663   6.352
 4234POPC   C2B53936  24.735  15.715   6.773
 4234POPC   C3B53937  24.538  15.524   7.137
 4234POPC   C4B53938  24.137  15.411   7.327
 4235POPC   NC353939  32.529  21.330   5.349
 4235POPC   PO453940  31.977  21.604   5.428
 4235POPC   GL153941  32.134  21.216   5.667
 4235POPC   GL253942  32.495  21.199   5.849
 4235POPC   C1A53943  32.092  20.981   6.048
 4235POPC   D2A53944  32.373  21.083   6.412
 4235POPC   C3A53945  32.298  21.119   6.861
 4235POPC   C4A53946  32.124  21.236   7.235
 4235POPC   C1B53947  32.235  21.473   6.136
 4235POPC   C2B53948  32.275  21.573   6.591
 4235POPC   C3B53949  32.389  21.613   7.035
 4235POPC   C4B53950  32.609  21.321   7.360
 4236POPC   NC353951  28.845  33.292   5.422
 4236POPC   PO453952  29.416  32.962   5.170
 4236POPC   GL153953  29.357  32.996   5.655
 4236POPC   GL253954  29.288  33.344   5.733
 4236POPC   C1A53955  29.494  33.018   6.121
 4236POPC   D2A53956  29.264  32.981   6.520
 4236POPC   C3A53957  29.410  32.844   6.933
 4236POPC   C4A53958  29.253  32.652   7.335
 4236POPC   C1B53959  29.044  33.280   6.123
 4236POPC   C2B53960  29.043  33.464   6.545
 4236POPC   C3B53961  29.194  33.322   6.934
 4236POPC   C4B53962  28.986  33.050   7.164
 4237POPC   NC353963  11.410  36.896   5.229
 4237POPC   PO453964  10.855  36.526   5.270
 4237POPC   GL153965  11.140  36.744   5.635
 4237POPC   GL253966  11.532  36.829   5.725
 4237POPC   C1A53967  11.189  36.812   6.100
 4237POPC   D2A53968  11.566  36.675   6.384
 4237POPC   C3A53969  11.482  36.681   6.851
 4237POPC   C4A53970  11.139  36.791   7.142
 4237POPC   C1B53971  11.589  37.114   6.103
 4237POPC   C2B53972  11.376  37.138   6.521
 4237POPC   C3B53973  11.508  37.187   6.936
 4237POPC   C4B53974  11.695  37.028   7.276
 4238POPC   NC353975  24.146  11.802   5.404
 4238POPC   PO453976  24.747  11.996   5.384
 4238POPC   GL153977  24.531  11.880   5.773
 4238POPC   GL253978  24.180  11.930   5.889
 4238POPC   C1A53979  24.601  11.954   6.220
 4238POPC   D2A53980  24.585  12.189   6.620
 4238POPC   C3A53981  24.373  12.133   7.031
 4238POPC   C4A53982  24.452  11.942   7.452
 4238POPC   C1B53983  24.109  11.832   6.315
 4238POPC   C2B53984  24.276  11.730   6.706
 4238POPC   C3B53985  24.116  11.707   7.132
 4238POPC   C4B53986  24.039  11.648   7.577
 4239POPC   NC353987  31.824  39.134   5.446
 4239POPC   PO453988  32.431  38.884   5.415
 4239POPC   GL153989  32.247  39.146   5.766
 4239POPC   GL253990  32.005  39.473   5.768
 4239POPC   C1A53991  32.394  39.074   6.178
 4239POPC   D2A53992  32.166  38.999   6.525
 4239POPC   C3A53993  32.269  39.140   6.922
 4239POPC   C4A53994  32.299  39.049   7.326
 4239POPC   C1B53995  32.137  39.490   6.192
 4239POPC   C2B53996  32.330  39.502   6.574
 4239POPC   C3B53997  32.201  39.645   6.961
 4239POPC   C4B53998  32.023  39.459   7.298
 4240POPC   NC353999  34.518   0.780   5.289
 4240POPC   PO454000  34.345   0.168   5.397
 4240POPC   GL154001  34.549   0.446   5.709
 4240POPC   GL254002  34.358   0.743   5.798
 4240POPC   C1A54003  34.768   0.583   6.119
 4240POPC   D2A54004  34.602   0.743   6.509
 4240POPC   C3A54005  34.722   0.541   6.882
 4240POPC   C4A54006  34.833   0.232   7.164
 4240POPC   C1B54007  34.280   0.487   6.168
 4240POPC   C2B54008  34.133   0.396   6.576
 4240POPC   C3B54009  34.215   0.535   6.977
 4240POPC   C4B54010  34.358   0.401   7.372
 4241POPC   NC354011  35.853  40.212   5.373
 4241POPC   PO454012  36.268  39.773   5.159
 4241POPC   GL154013  36.167  39.666   5.634
 4241POPC   GL254014  36.068  39.976   5.767
 4241POPC   C1A54015  36.299  39.520   6.085
 4241POPC   D2A54016  36.332  39.686   6.537
 4241POPC   C3A54017  36.516  39.679   6.970
 4241POPC   C4A54018  36.363  39.888   7.347
 4241POPC   C1B54019  35.891  39.835   6.142
 4241POPC   C2B54020  35.895  39.965   6.579
 4241POPC   C3B54021  36.049  40.107   6.984
 4241POPC   C4B54022  36.013  40.234   7.446
 4242POPC   NC354023   3.435  10.616   4.974
 4242POPC   PO454024   3.796  10.440   5.545
 4242POPC   GL154025   3.632  10.499   5.926
 4242POPC   GL254026   3.281  10.441   5.884
 4242POPC   C1A54027   3.580  10.632   6.313
 4242POPC   D2A54028   3.894  10.513   6.579
 4242POPC   C3A54029   3.704  10.566   6.905
 4242POPC   C4A54030   3.676  10.783   7.252
 4242POPC   C1B54031   3.238  10.209   6.276
 4242POPC   C2B54032   3.251  10.427   6.658
 4242POPC   C3B54033   3.260  10.814   6.863
 4242POPC   C4B54034   3.176  10.653   7.230
 4243POPC   NC354035  29.404  21.719   5.553
 4243POPC   PO454036  29.071  22.213   5.251
 4243POPC   GL154037  29.004  22.369   5.702
 4243POPC   GL254038  29.178  22.073   5.838
 4243POPC   C1A54039  28.882  22.352   6.138
 4243POPC   D2A54040  29.234  22.379   6.415
 4243POPC   C3A54041  29.230  22.355   6.845
 4243POPC   C4A54042  29.221  22.404   7.292
 4243POPC   C1B54043  29.087  21.886   6.246
 4243POPC   C2B54044  28.897  22.037   6.634
 4243POPC   C3B54045  29.035  21.949   7.073
 4243POPC   C4B54046  29.160  21.701   7.444
 4244POPC   NC354047   2.932   7.429   5.349
 4244POPC   PO454048   2.484   7.886   5.248
 4244POPC   GL154049   2.572   7.654   5.660
 4244POPC   GL254050   2.493   7.288   5.640
 4244POPC   C1A54051   2.821   7.441   6.022
 4244POPC   D2A54052   2.737   7.348   6.490
 4244POPC   C3A54053   2.853   7.539   6.877
 4244POPC   C4A54054   2.939   7.664   7.301
 4244POPC   C1B54055   2.330   7.103   6.024
 4244POPC   C2B54056   2.235   7.255   6.446
 4244POPC   C3B54057   2.396   7.225   6.878
 4244POPC   C4B54058   2.653   7.254   7.245
 4245POPC   NC354059   0.299  36.143   5.320
 4245POPC   PO454060   0.997  35.972   5.433
 4245POPC   GL154061   0.755  36.122   5.776
 4245POPC   GL254062   0.423  36.287   5.792
 4245POPC   C1A54063   0.851  36.277   6.180
 4245POPC   D2A54064   0.723  36.120   6.578
 4245POPC   C3A54065   0.690  36.294   6.983
 4245POPC   C4A54066   0.898  36.230   7.395
 4245POPC   C1B54067   0.132  36.307   6.164
 4245POPC   C2B54068   0.164  36.155   6.566
 4245POPC   C3B54069   0.179  36.398   6.939
 4245POPC   C4B54070   0.319  36.348   7.339
 4246POPC   NC354071  42.246  21.616   4.965
 4246POPC   PO454072  42.563  21.175   5.450
 4246POPC   GL154073  42.378  21.256   5.822
 4246POPC   GL254074  42.226  21.560   5.813
 4246POPC   C1A54075  42.376  21.178   6.242
 4246POPC   D2A54076  42.630  21.305   6.555
 4246POPC   C3A54077  42.567  21.162   6.955
 4246POPC   C4A54078  42.436  21.256   7.357
 4246POPC   C1B54079  42.332  21.668   6.203
 4246POPC   C2B54080  42.089  21.475   6.534
 4246POPC   C3B54081  42.131  21.418   6.949
 4246POPC   C4B54082  42.099  21.661   7.295
 4247POPC   NC354083  16.907  10.855   5.650
 4247POPC   PO454084  16.444  11.336   5.545
 4247POPC   GL154085  16.631  11.196   5.893
 4247POPC   GL254086  16.471  10.898   5.869
 4247POPC   C1A54087  16.691  11.095   6.307
 4247POPC   D2A54088  16.700  11.389   6.639
 4247POPC   C3A54089  16.630  11.227   7.023
 4247POPC   C4A54090  16.862  11.181   7.404
 4247POPC   C1B54091  16.300  10.771   6.223
 4247POPC   C2B54092  16.368  10.885   6.653
 4247POPC   C3B54093  16.173  10.971   7.029
 4247POPC   C4B54094  16.346  11.085   7.414
 4248POPC   NC354095  36.745  37.726   5.578
 4248POPC   PO454096  37.178  37.355   5.323
 4248POPC   GL154097  37.079  37.381   5.767
 4248POPC   GL254098  37.219  37.703   5.843
 4248POPC   C1A54099  36.835  37.447   6.198
 4248POPC   D2A54100  36.928  37.345   6.647
 4248POPC   C3A54101  36.914  37.615   7.030
 4248POPC   C4A54102  36.530  37.812   7.129
 4248POPC   C1B54103  36.989  37.927   6.178
 4248POPC   C2B54104  36.805  37.865   6.575
 4248POPC   C3B54105  36.842  38.144   6.903
 4248POPC   C4B54106  36.961  38.074   7.323
 4249POPC   NC354107  28.150  20.908   5.518
 4249POPC   PO454108  28.691  20.531   5.510
 4249POPC   GL154109  28.594  20.677   5.896
 4249POPC   GL254110  28.344  20.396   5.903
 4249POPC   C1A54111  28.582  20.510   6.330
 4249POPC   D2A54112  28.282  20.453   6.657
 4249POPC   C3A54113  28.527  20.369   7.010
 4249POPC   C4A54114  28.678  20.793   6.980
 4249POPC   C1B54115  28.127  20.713   6.165
 4249POPC   C2B54116  28.181  20.962   6.537
 4249POPC   C3B54117  28.084  20.866   6.956
 4249POPC   C4B54118  28.050  20.503   7.193
 4250POPC   NC354119  36.565  33.458   5.383
 4250POPC   PO454120  37.026  33.904   5.147
 4250POPC   GL154121  36.918  33.875   5.618
 4250POPC   GL254122  37.239  33.875   5.818
 4250POPC   C1A54123  36.762  33.646   6.018
 4250POPC   D2A54124  36.904  33.545   6.464
 4250POPC   C3A54125  36.804  33.606   6.934
 4250POPC   C4A54126  37.075  33.558   7.282
 4250POPC   C1B54127  37.033  34.034   6.220
 4250POPC   C2B54128  36.977  34.016   6.666
 4250POPC   C3B54129  37.010  34.072   7.107
 4250POPC   C4B54130  36.639  34.001   7.315
 4251POPC   NC354131  44.138   0.081   5.520
 4251POPC   PO454132  43.771  44.504   5.537
 4251POPC   GL154133  44.111  44.650   5.790
 4251POPC   GL254134  43.909  44.878   5.934
 4251POPC   C1A54135  44.351  44.797   6.154
 4251POPC   D2A54136  44.347  44.600   6.539
 4251POPC   C3A54137  44.224  44.796   6.930
 4251POPC   C4A54138  44.105  44.725   7.359
 4251POPC   C1B54139  43.868  44.521   6.221
 4251POPC   C2B54140  43.829  44.587   6.645
 4251POPC   C3B54141  43.749  44.505   7.046
 4251POPC   C4B54142  43.556  44.824   7.284
 4252POPC   NC354143  43.169  13.504   5.365
 4252POPC   PO454144  43.209  14.137   5.328
 4252POPC   GL154145  43.374  13.783   5.724
 4252POPC   GL254146  43.038  13.644   5.840
 4252POPC   C1A54147  43.473  13.777   6.191
 4252POPC   D2A54148  43.384  13.975   6.602
 4252POPC   C3A54149  43.466  13.820   7.009
 4252POPC   C4A54150  43.264  13.932   7.413
 4252POPC   C1B54151  43.165  13.362   6.179
 4252POPC   C2B54152  43.219  13.474   6.609
 4252POPC   C3B54153  42.984  13.680   6.929
 4252POPC   C4B54154  42.994  13.502   7.346
 4253POPC   NC354155   7.730   9.727   5.319
 4253POPC   PO454156   7.138   9.836   5.527
 4253POPC   GL154157   7.322   9.765   5.893
 4253POPC   GL254158   7.653   9.923   5.786
 4253POPC   C1A54159   7.300   9.526   6.289
 4253POPC   D2A54160   7.181   9.552   6.722
 4253POPC   C3A54161   7.308   9.804   7.056
 4253POPC   C4A54162   7.426   9.567   7.415
 4253POPC   C1B54163   7.742   9.768   6.180
 4253POPC   C2B54164   7.622   9.851   6.600
 4253POPC   C3B54165   7.805   9.672   6.956
 4253POPC   C4B54166   7.839   9.897   7.281
 4254POPC   NC354167  25.815  36.239   5.275
 4254POPC   PO454168  26.322  35.830   5.425
 4254POPC   GL154169  26.055  36.041   5.746
 4254POPC   GL254170  25.724  35.867   5.708
 4254POPC   C1A54171  26.008  36.197   6.194
 4254POPC   D2A54172  26.227  36.119   6.597
 4254POPC   C3A54173  26.029  36.121   6.988
 4254POPC   C4A54174  25.816  36.384   7.223
 4254POPC   C1B54175  25.815  35.733   6.153
 4254POPC   C2B54176  25.966  35.619   6.596
 4254POPC   C3B54177  25.782  35.694   7.015
 4254POPC   C4B54178  25.688  35.930   7.423
 4255POPC   NC354179  33.558  36.204   5.406
 4255POPC   PO454180  34.178  36.416   5.127
 4255POPC   GL154181  34.073  36.399   5.686
 4255POPC   GL254182  33.911  36.043   5.767
 4255POPC   C1A54183  34.065  36.277   6.188
 4255POPC   D2A54184  34.081  35.964   6.577
 4255POPC   C3A54185  33.973  36.069   7.018
 4255POPC   C4A54186  34.002  36.515   7.152
 4255POPC   C1B54187  33.648  35.968   6.169
 4255POPC   C2B54188  33.576  36.162   6.602
 4255POPC   C3B54189  33.518  36.296   7.051
 4255POPC   C4B54190  33.472  35.872   7.141
 4256POPC   NC354191   6.980  32.582   5.412
 4256POPC   PO454192   6.414  32.208   5.295
 4256POPC   GL154193   6.530  32.184   5.777
 4256POPC   GL254194   6.866  32.368   5.878
 4256POPC   C1A54195   6.427  32.271   6.224
 4256POPC   D2A54196   6.579  32.146   6.649
 4256POPC   C3A54197   6.330  32.342   7.014
 4256POPC   C4A54198   6.507  32.418   7.427
 4256POPC   C1B54199   6.975  32.221   6.283
 4256POPC   C2B54200   7.086  32.266   6.721
 4256POPC   C3B54201   6.889  32.321   7.116
 4256POPC   C4B54202   7.004  32.321   7.566
 4257POPC   NC354203  23.319  43.384   5.372
 4257POPC   PO454204  22.803  42.912   5.416
 4257POPC   GL154205  22.899  42.805   5.825
 4257POPC   GL254206  22.948  43.178   5.841
 4257POPC   C1A54207  22.964  42.883   6.263
 4257POPC   D2A54208  22.967  43.182   6.589
 4257POPC   C3A54209  23.029  43.133   7.026
 4257POPC   C4A54210  22.892  42.812   7.301
 4257POPC   C1B54211  23.271  43.302   6.147
 4257POPC   C2B54212  23.476  43.306   6.574
 4257POPC   C3B54213  23.409  43.624   6.898
 4257POPC   C4B54214  23.186  43.653   7.284
 4258POPC   NC354215  16.173  43.361   5.424
 4258POPC   PO454216  15.669  42.851   5.463
 4258POPC   GL154217  15.823  43.045   5.820
 4258POPC   GL254218  15.828  43.383   5.809
 4258POPC   C1A54219  16.017  43.102   6.222
 4258POPC   D2A54220  16.198  43.144   6.642
 4258POPC   C3A54221  16.027  43.031   7.037
 4258POPC   C4A54222  16.175  43.231   7.432
 4258POPC   C1B54223  15.605  43.405   6.182
 4258POPC   C2B54224  15.841  43.480   6.535
 4258POPC   C3B54225  15.713  43.470   6.932
 4258POPC   C4B54226  15.658  43.300   7.303
 4259POPC   NC354227  40.085  28.425   5.394
 4259POPC   PO454228  39.576  28.032   5.514
 4259POPC   GL154229  39.850  28.175   5.805
 4259POPC   GL254230  40.219  28.123   5.815
 4259POPC   C1A54231  40.001  28.506   6.088
 4259POPC   D2A54232  40.181  28.593   6.495
 4259POPC   C3A54233  39.909  28.539   6.834
 4259POPC   C4A54234  40.104  28.570   7.216
 4259POPC   C1B54235  40.049  27.980   6.239
 4259POPC   C2B54236  40.076  28.085   6.689
 4259POPC   C3B54237  40.147  28.051   7.143
 4259POPC   C4B54238  39.922  27.999   7.549
 4260POPC   NC354239  37.897  39.305   5.426
 4260POPC   PO454240  37.425  38.832   5.442
 4260POPC   GL154241  37.451  39.124   5.771
 4260POPC   GL254242  37.240  38.926   5.976
 4260POPC   C1A54243  37.705  39.164   6.164
 4260POPC   D2A54244  37.655  38.977   6.546
 4260POPC   C3A54245  37.628  39.198   6.921
 4260POPC   C4A54246  37.921  39.448   7.142
 4260POPC   C1B54247  37.230  39.309   6.207
 4260POPC   C2B54248  37.274  39.599   6.543
 4260POPC   C3B54249  37.428  39.676   6.973
 4260POPC   C4B54250  37.320  39.403   7.303
 4261POPC   NC354251  26.081  25.715   5.505
 4261POPC   PO454252  26.134  26.400   5.552
 4261POPC   GL154253  25.994  26.130   5.865
 4261POPC   GL254254  26.324  26.047   5.924
 4261POPC   C1A54255  26.041  26.084   6.337
 4261POPC   D2A54256  26.365  25.860   6.548
 4261POPC   C3A54257  26.211  25.878   6.961
 4261POPC   C4A54258  25.956  26.245   7.141
 4261POPC   C1B54259  26.400  26.406   6.247
 4261POPC   C2B54260  26.301  26.333   6.714
 4261POPC   C3B54261  26.428  26.474   7.114
 4261POPC   C4B54262  26.278  26.370   7.548
 4262POPC   NC354263  43.333  33.744   5.418
 4262POPC   PO454264  42.670  34.069   5.427
 4262POPC   GL154265  42.941  33.849   5.719
 4262POPC   GL254266  42.812  33.558   5.665
 4262POPC   C1A54267  43.223  33.735   6.079
 4262POPC   D2A54268  43.414  33.892   6.470
 4262POPC   C3A54269  43.280  33.765   6.881
 4262POPC   C4A54270  43.330  33.989   7.276
 4262POPC   C1B54271  42.758  33.512   6.110
 4262POPC   C2B54272  42.972  33.536   6.505
 4262POPC   C3B54273  42.890  33.410   6.922
 4262POPC   C4B54274  42.957  33.639   7.265
 4263POPC   NC354275  43.212  20.276   5.458
 4263POPC   PO454276  42.952  19.591   5.365
 4263POPC   GL154277  43.219  19.746   5.688
 4263POPC   GL254278  43.151  20.042   5.899
 4263POPC   C1A54279  43.243  19.587   6.123
 4263POPC   D2A54280  43.084  19.773   6.491
 4263POPC   C3A54281  43.199  19.681   6.920
 4263POPC   C4A54282  43.276  20.063   7.147
 4263POPC   C1B54283  42.852  20.179   6.200
 4263POPC   C2B54284  42.830  20.230   6.642
 4263POPC   C3B54285  42.773  20.167   7.089
 4263POPC   C4B54286  42.907  20.029   7.520
 4264POPC   NC354287  15.856  23.499   5.384
 4264POPC   PO454288  16.498  23.249   5.629
 4264POPC   GL154289  16.133  23.535   5.852
 4264POPC   GL254290  15.728  23.649   5.842
 4264POPC   C1A54291  16.008  23.807   6.227
 4264POPC   D2A54292  15.731  23.782   6.578
 4264POPC   C3A54293  15.960  23.878   6.929
 4264POPC   C4A54294  15.911  23.777   7.342
 4264POPC   C1B54295  15.690  23.409   6.194
 4264POPC   C2B54296  15.776  23.200   6.579
 4264POPC   C3B54297  15.707  23.428   6.972
 4264POPC   C4B54298  15.478  23.501   7.339
 4265POPC   NC354299  34.275  34.470   5.406
 4265POPC   PO454300  34.774  34.861   5.465
 4265POPC   GL154301  34.617  34.561   5.776
 4265POPC   GL254302  34.286  34.703   5.861
 4265POPC   C1A54303  34.701  34.609   6.213
 4265POPC   D2A54304  34.485  34.830   6.528
 4265POPC   C3A54305  34.761  34.948   6.861
 4265POPC   C4A54306  34.823  34.749   7.257
 4265POPC   C1B54307  34.248  34.378   6.187
 4265POPC   C2B54308  34.473  34.287   6.582
 4265POPC   C3B54309  34.398  34.510   6.982
 4265POPC   C4B54310  34.072  34.365   7.282
 4266POPC   NC354311  34.794   9.386   5.615
 4266POPC   PO454312  34.382   9.903   5.442
 4266POPC   GL154313  34.423   9.676   5.869
 4266POPC   GL254314  34.246   9.384   5.956
 4266POPC   C1A54315  34.522   9.816   6.303
 4266POPC   D2A54316  34.704   9.671   6.674
 4266POPC   C3A54317  34.405   9.840   6.944
 4266POPC   C4A54318  34.538   9.919   7.345
 4266POPC   C1B54319  34.383   9.289   6.372
 4266POPC   C2B54320  34.365   9.289   6.822
 4266POPC   C3B54321  34.632   9.427   7.161
 4266POPC   C4B54322  34.502   9.486   7.607
 4267POPC   NC354323  10.138  16.018   5.415
 4267POPC   PO454324   9.541  15.761   5.379
 4267POPC   GL154325   9.538  15.871   5.815
 4267POPC   GL254326   9.901  15.860   5.845
 4267POPC   C1A54327   9.601  15.761   6.247
 4267POPC   D2A54328   9.888  15.697   6.574
 4267POPC   C3A54329   9.705  15.934   6.897
 4267POPC   C4A54330   9.518  16.050   7.260
 4267POPC   C1B54331   9.923  16.154   6.182
 4267POPC   C2B54332  10.004  16.232   6.585
 4267POPC   C3B54333  10.156  16.339   6.955
 4267POPC   C4B54334  10.083  16.215   7.346
 4268POPC   NC354335  35.851   0.085   5.342
 4268POPC   PO454336  36.266  44.591   5.307
 4268POPC   GL154337  36.236  44.614   5.748
 4268POPC   GL254338  36.184  44.988   5.836
 4268POPC   C1A54339  35.962  44.630   6.121
 4268POPC   D2A54340  36.005  44.893   6.499
 4268POPC   C3A54341  36.114  44.752   6.911
 4268POPC   C4A54342  35.943  44.490   7.224
 4268POPC   C1B54343  36.434  44.812   6.208
 4268POPC   C2B54344  36.587  44.662   6.642
 4268POPC   C3B54345  36.587  44.699   7.101
 4268POPC   C4B54346  36.257  44.885   7.393
 4269POPC   NC354347  43.959  12.942   5.346
 4269POPC   PO454348  43.575  12.460   5.577
 4269POPC   GL154349  43.863  12.749   5.832
 4269POPC   GL254350  44.251  12.711   5.873
 4269POPC   C1A54351  43.932  12.772   6.281
 4269POPC   D2A54352  44.071  12.699   6.703
 4269POPC   C3A54353  43.765  12.823   7.060
 4269POPC   C4A54354  43.679  12.753   7.527
 4269POPC   C1B54355  44.407  12.969   6.226
 4269POPC   C2B54356  44.422  13.115   6.649
 4269POPC   C3B54357  44.250  13.030   7.065
 4269POPC   C4B54358  43.962  13.161   7.407
 4270POPC   NC354359  11.511  13.326   5.291
 4270POPC   PO454360  11.206  12.775   5.198
 4270POPC   GL154361  11.358  12.914   5.654
 4270POPC   GL254362  11.062  12.825   5.791
 4270POPC   C1A54363  11.383  12.841   6.173
 4270POPC   D2A54364  11.408  13.072   6.594
 4270POPC   C3A54365  11.558  12.899   7.016
 4270POPC   C4A54366  11.539  12.975   7.521
 4270POPC   C1B54367  10.920  12.622   6.215
 4270POPC   C2B54368  11.036  12.690   6.623
 4270POPC   C3B54369  10.879  12.529   7.003
 4270POPC   C4B54370  11.181  12.695   7.273
 4271POPC   NC354371   1.264  44.185   5.410
 4271POPC   PO454372   1.101  44.875   5.474
 4271POPC   GL154373   1.310  44.627   5.785
 4271POPC   GL254374   1.003  44.685   5.951
 4271POPC   C1A54375   1.430  44.600   6.253
 4271POPC   D2A54376   1.440  44.768   6.703
 4271POPC   C3A54377   1.263  44.613   7.119
 4271POPC   C4A54378   1.133  44.869   7.485
 4271POPC   C1B54379   0.879  44.470   6.314
 4271POPC   C2B54380   0.927  44.451   6.749
 4271POPC   C3B54381   0.908  44.198   7.102
 4271POPC   C4B54382   0.852  44.429   7.464
 4272POPC   NC354383  12.050   7.764   5.342
 4272POPC   PO454384  12.310   8.423   5.302
 4272POPC   GL154385  12.002   8.252   5.630
 4272POPC   GL254386  12.183   7.985   5.782
 4272POPC   C1A54387  11.838   8.206   6.090
 4272POPC   D2A54388  11.792   7.970   6.462
 4272POPC   C3A54389  11.927   8.176   6.826
 4272POPC   C4A54390  11.759   8.245   7.220
 4272POPC   C1B54391  12.235   7.898   6.217
 4272POPC   C2B54392  12.346   7.878   6.661
 4272POPC   C3B54393  12.278   7.926   7.120
 4272POPC   C4B54394  12.139   8.088   7.510
 4273POPC   NC354395  31.646  13.490   5.411
 4273POPC   PO454396  31.125  13.843   5.529
 4273POPC   GL154397  31.403  13.651   5.884
 4273POPC   GL254398  31.578  13.305   5.877
 4273POPC   C1A54399  31.379  13.485   6.324
 4273POPC   D2A54400  31.238  13.432   6.758
 4273POPC   C3A54401  31.347  13.735   7.081
 4273POPC   C4A54402  31.160  13.558   7.415
 4273POPC   C1B54403  31.884  13.412   6.202
 4273POPC   C2B54404  32.041  13.482   6.639
 4273POPC   C3B54405  31.901  13.303   7.017
 4273POPC   C4B54406  31.548  13.262   7.261
 4274POPC   NC354407  13.903  42.374   5.489
 4274POPC   PO454408  13.266  42.674   5.391
 4274POPC   GL154409  13.284  42.397   5.810
 4274POPC   GL254410  13.627  42.274   5.913
 4274POPC   C1A54411  13.235  42.332   6.308
 4274POPC   D2A54412  13.206  42.348   6.784
 4274POPC   C3A54413  13.501  42.337   7.175
 4274POPC   C4A54414  13.703  42.140   7.584
 4274POPC   C1B54415  13.677  42.542   6.268
 4274POPC   C2B54416  13.715  42.358   6.672
 4274POPC   C3B54417  13.998  42.363   7.016
 4274POPC   C4B54418  13.934  42.552   7.423
 4275POPC   NC354419  32.821  39.931   5.306
 4275POPC   PO454420  33.083  40.438   5.478
 4275POPC   GL154421  33.131  40.165   5.841
 4275POPC   GL254422  33.017  39.817   5.811
 4275POPC   C1A54423  32.951  40.102   6.241
 4275POPC   D2A54424  33.034  40.239   6.631
 4275POPC   C3A54425  33.210  39.958   6.903
 4275POPC   C4A54426  33.062  40.108   7.272
 4275POPC   C1B54427  33.205  39.644   6.187
 4275POPC   C2B54428  32.945  39.659   6.560
 4275POPC   C3B54429  32.761  39.586   6.945
 4275POPC   C4B54430  33.051  39.572   7.269
 4276POPC   NC354431   2.765  25.757   5.434
 4276POPC   PO454432   2.988  26.359   5.365
 4276POPC   GL154433   2.711  26.261   5.730
 4276POPC   GL254434   2.734  25.919   5.913
 4276POPC   C1A54435   2.662  26.389   6.175
 4276POPC   D2A54436   2.787  26.088   6.493
 4276POPC   C3A54437   2.728  26.227   6.909
 4276POPC   C4A54438   2.940  26.206   7.303
 4276POPC   C1B54439   3.080  25.726   6.208
 4276POPC   C2B54440   3.199  25.788   6.659
 4276POPC   C3B54441   2.889  25.758   7.037
 4276POPC   C4B54442   2.956  25.745   7.509
 4277POPC   NC354443  14.275  19.567   5.397
 4277POPC   PO454444  14.590  20.105   5.462
 4277POPC   GL154445  14.319  19.929   5.779
 4277POPC   GL254446  14.479  19.611   5.858
 4277POPC   C1A54447  14.165  19.898   6.221
 4277POPC   D2A54448  14.304  20.143   6.617
 4277POPC   C3A54449  14.325  19.932   7.052
 4277POPC   C4A54450  14.034  19.893   7.413
 4277POPC   C1B54451  14.721  19.893   6.127
 4277POPC   C2B54452  14.829  20.161   6.483
 4277POPC   C3B54453  14.723  20.318   6.887
 4277POPC   C4B54454  14.768  20.113   7.305
 4278POPC   NC354455  36.223   4.852   5.363
 4278POPC   PO454456  35.800   5.372   5.338
 4278POPC   GL154457  35.980   5.219   5.756
 4278POPC   GL254458  36.104   4.882   5.840
 4278POPC   C1A54459  35.903   5.179   6.228
 4278POPC   D2A54460  35.884   4.922   6.618
 4278POPC   C3A54461  35.958   5.126   7.012
 4278POPC   C4A54462  35.704   5.370   7.237
 4278POPC   C1B54463  36.205   4.743   6.224
 4278POPC   C2B54464  36.378   4.904   6.584
 4278POPC   C3B54465  36.258   4.724   6.941
 4278POPC   C4B54466  36.092   4.699   7.364
 4279POPC   NC354467   2.074  39.338   5.455
 4279POPC   PO454468   1.389  39.298   5.575
 4279POPC   GL154469   1.771  39.023   5.820
 4279POPC   GL254470   2.186  39.000   5.830
 4279POPC   C1A54471   1.929  38.961   6.283
 4279POPC   D2A54472   1.847  39.213   6.663
 4279POPC   C3A54473   1.838  39.144   7.107
 4279POPC   C4A54474   1.701  39.400   7.464
 4279POPC   C1B54475   2.357  39.254   6.178
 4279POPC   C2B54476   2.377  39.099   6.618
 4279POPC   C3B54477   2.255  39.408   6.939
 4279POPC   C4B54478   2.187  39.437   7.367
 4280POPC   NC354479  25.908  30.974   5.641
 4280POPC   PO454480  25.941  31.567   5.319
 4280POPC   GL154481  26.061  31.465   5.748
 4280POPC   GL254482  26.374  31.534   5.765
 4280POPC   C1A54483  26.040  31.323   6.190
 4280POPC   D2A54484  25.991  31.502   6.563
 4280POPC   C3A54485  26.088  31.301   6.902
 4280POPC   C4A54486  25.850  31.240   7.255
 4280POPC   C1B54487  26.493  31.594   6.176
 4280POPC   C2B54488  26.541  31.484   6.577
 4280POPC   C3B54489  26.495  31.629   6.971
 4280POPC   C4B54490  26.198  31.624   7.277
 4281POPC   NC354491  10.671  30.472   5.564
 4281POPC   PO454492  10.350  31.067   5.390
 4281POPC   GL154493  10.336  30.850   5.789
 4281POPC   GL254494  10.041  31.065   5.854
 4281POPC   C1A54495  10.505  30.630   6.200
 4281POPC   D2A54496  10.768  30.740   6.568
 4281POPC   C3A54497  10.655  30.569   6.932
 4281POPC   C4A54498  10.594  30.475   7.345
 4281POPC   C1B54499  10.207  31.039   6.257
 4281POPC   C2B54500  10.263  30.829   6.647
 4281POPC   C3B54501  10.139  30.895   7.065
 4281POPC   C4B54502  10.314  30.874   7.497
 4282POPC   NC354503  32.986   8.495   5.386
 4282POPC   PO454504  33.229   7.879   5.358
 4282POPC   GL154505  33.217   8.196   5.738
 4282POPC   GL254506  32.869   8.215   5.875
 4282POPC   C1A54507  33.302   8.359   6.174
 4282POPC   D2A54508  33.037   8.421   6.554
 4282POPC   C3A54509  33.067   8.269   6.971
 4282POPC   C4A54510  32.690   8.344   7.233
 4282POPC   C1B54511  32.648   8.113   6.302
 4282POPC   C2B54512  32.588   8.125   6.774
 4282POPC   C3B54513  32.737   7.845   7.150
 4282POPC   C4B54514  32.806   7.807   7.640
 4283POPC   NC354515  18.638  14.928   5.165
 4283POPC   PO454516  19.268  14.742   5.424
 4283POPC   GL154517  19.145  15.066   5.704
 4283POPC   GL254518  18.810  15.058   5.652
 4283POPC   C1A54519  19.213  15.104   6.141
 4283POPC   D2A54520  19.030  14.858   6.444
 4283POPC   C3A54521  19.128  14.936   6.856
 4283POPC   C4A54522  19.249  15.308   7.043
 4283POPC   C1B54523  18.706  15.081   6.118
 4283POPC   C2B54524  18.689  15.220   6.575
 4283POPC   C3B54525  18.645  15.008   6.985
 4283POPC   C4B54526  18.734  14.984   7.431
 4284POPC   NC354527   1.388  27.771   5.377
 4284POPC   PO454528   1.296  27.173   5.694
 4284POPC   GL154529   1.376  27.573   5.913
 4284POPC   GL254530   1.104  27.801   5.803
 4284POPC   C1A54531   1.388  27.539   6.387
 4284POPC   D2A54532   1.445  27.172   6.691
 4284POPC   C3A54533   1.378  27.287   7.139
 4284POPC   C4A54534   1.249  27.728   7.176
 4284POPC   C1B54535   0.919  27.530   6.140
 4284POPC   C2B54536   0.877  27.589   6.579
 4284POPC   C3B54537   0.879  27.406   6.995
 4284POPC   C4B54538   0.538  27.455   7.272
 4285POPC   NC354539   2.298  34.347   5.614
 4285POPC   PO454540   1.765  34.683   5.420
 4285POPC   GL154541   1.857  34.756   5.832
 4285POPC   GL254542   2.211  34.799   5.890
 4285POPC   C1A54543   1.897  34.582   6.244
 4285POPC   D2A54544   1.948  34.243   6.538
 4285POPC   C3A54545   1.696  34.297   6.896
 4285POPC   C4A54546   1.802  34.603   7.186
 4285POPC   C1B54547   2.415  34.503   6.222
 4285POPC   C2B54548   2.461  34.305   6.624
 4285POPC   C3B54549   2.264  34.402   7.000
 4285POPC   C4B54550   2.318  34.794   7.243
 4286POPC   NC354551  27.933   8.094   5.257
 4286POPC   PO454552  28.551   8.312   5.254
 4286POPC   GL154553  28.328   8.257   5.661
 4286POPC   GL254554  28.636   8.318   5.843
 4286POPC   C1A54555  28.207   8.234   6.140
 4286POPC   D2A54556  28.281   8.481   6.512
 4286POPC   C3A54557  28.192   8.366   6.942
 4286POPC   C4A54558  28.267   8.028   7.212
 4286POPC   C1B54559  28.712   8.202   6.304
 4286POPC   C2B54560  28.618   8.150   6.769
 4286POPC   C3B54561  28.696   8.283   7.204
 4286POPC   C4B54562  28.850   8.341   7.667
 4287POPC   NC354563   6.526  31.779   5.421
 4287POPC   PO454564   6.762  31.114   5.489
 4287POPC   GL154565   6.615  31.365   5.850
 4287POPC   GL254566   6.814  31.676   5.838
 4287POPC   C1A54567   6.748  31.325   6.285
 4287POPC   D2A54568   6.739  31.069   6.654
 4287POPC   C3A54569   6.913  31.313   6.941
 4287POPC   C4A54570   6.702  31.473   7.270
 4287POPC   C1B54571   6.665  31.818   6.214
 4287POPC   C2B54572   6.952  31.773   6.560
 4287POPC   C3B54573   6.850  31.836   6.959
 4287POPC   C4B54574   6.409  31.853   7.063
 4288POPC   NC354575  42.108  30.973   5.437
 4288POPC   PO454576  42.445  30.345   5.355
 4288POPC   GL154577  42.321  30.580   5.740
 4288POPC   GL254578  42.529  30.876   5.734
 4288POPC   C1A54579  42.179  30.672   6.192
 4288POPC   D2A54580  42.239  30.453   6.617
 4288POPC   C3A54581  42.163  30.695   7.005
 4288POPC   C4A54582  42.164  30.544   7.428
 4288POPC   C1B54583  42.662  30.799   6.138
 4288POPC   C2B54584  42.576  30.817   6.557
 4288POPC   C3B54585  42.656  30.606   6.929
 4288POPC   C4B54586  42.618  30.765   7.315
 4289POPC   NC354587  37.553   1.199   5.367
 4289POPC   PO454588  37.839   1.841   5.475
 4289POPC   GL154589  37.589   1.578   5.809
 4289POPC   GL254590  37.634   1.176   5.867
 4289POPC   C1A54591  37.635   1.493   6.276
 4289POPC   D2A54592  37.538   1.316   6.679
 4289POPC   C3A54593  37.605   1.567   7.069
 4289POPC   C4A54594  37.594   1.417   7.505
 4289POPC   C1B54595  37.656   0.976   6.274
 4289POPC   C2B54596  38.011   0.983   6.515
 4289POPC   C3B54597  37.990   1.110   6.908
 4289POPC   C4B54598  37.908   0.848   7.257
 4290POPC   NC354599  24.890  40.805   5.413
 4290POPC   PO454600  24.189  41.028   5.518
 4290POPC   GL154601  24.337  40.841   5.887
 4290POPC   GL254602  24.685  40.787   5.881
 4290POPC   C1A54603  24.369  40.884   6.331
 4290POPC   D2A54604  24.563  41.039   6.710
 4290POPC   C3A54605  24.449  40.736   7.041
 4290POPC   C4A54606  24.324  40.487   7.386
 4290POPC   C1B54607  24.805  40.611   6.284
 4290POPC   C2B54608  24.806  40.576   6.711
 4290POPC   C3B54609  24.949  40.867   7.003
 4290POPC   C4B54610  24.900  41.205   7.292
 4291POPC   NC354611  43.675  32.039   5.346
 4291POPC   PO454612  44.209  31.913   5.663
 4291POPC   GL154613  43.914  32.093   5.894
 4291POPC   GL254614  43.817  32.400   5.724
 4291POPC   C1A54615  43.979  32.081   6.340
 4291POPC   D2A54616  44.004  32.112   6.798
 4291POPC   C3A54617  43.832  31.861   7.095
 4291POPC   C4A54618  43.779  31.988   7.524
 4291POPC   C1B54619  43.927  32.556   6.149
 4291POPC   C2B54620  43.765  32.530   6.565
 4291POPC   C3B54621  43.888  32.582   6.988
 4291POPC   C4B54622  43.549  32.684   7.234
 4292POPC   NC354623  12.419  30.577   5.469
 4292POPC   PO454624  11.861  30.287   5.532
 4292POPC   GL154625  11.954  30.676   5.800
 4292POPC   GL254626  12.272  30.612   5.985
 4292POPC   C1A54627  11.971  30.944   6.208
 4292POPC   D2A54628  12.019  30.624   6.521
 4292POPC   C3A54629  12.100  30.669   6.954
 4292POPC   C4A54630  12.050  30.741   7.404
 4292POPC   C1B54631  12.475  30.926   6.267
 4292POPC   C2B54632  12.399  31.017   6.701
 4292POPC   C3B54633  12.554  30.852   7.103
 4292POPC   C4B54634  12.562  30.875   7.571
 4293POPC   NC354635   1.944   4.530   5.208
 4293POPC   PO454636   1.740   3.870   5.354
 4293POPC   GL154637   1.991   4.186   5.637
 4293POPC   GL254638   1.797   4.405   5.828
 4293POPC   C1A54639   2.114   4.096   6.111
 4293POPC   D2A54640   2.157   3.871   6.532
 4293POPC   C3A54641   2.021   4.092   6.932
 4293POPC   C4A54642   2.267   4.210   7.296
 4293POPC   C1B54643   1.968   4.577   6.217
 4293POPC   C2B54644   1.830   4.451   6.606
 4293POPC   C3B54645   1.734   4.635   6.995
 4293POPC   C4B54646   1.778   4.367   7.340
 4294POPC   NC354647  11.427  30.462   5.528
 4294POPC   PO454648  11.249  31.043   5.300
 4294POPC   GL154649  11.105  30.857   5.689
 4294POPC   GL254650  11.445  30.863   5.854
 4294POPC   C1A54651  11.044  30.736   6.134
 4294POPC   D2A54652  11.154  31.058   6.461
 4294POPC   C3A54653  11.133  30.979   6.920
 4294POPC   C4A54654  11.111  30.589   7.151
 4294POPC   C1B54655  11.532  30.714   6.289
 4294POPC   C2B54656  11.619  30.898   6.709
 4294POPC   C3B54657  11.608  30.679   7.113
 4294POPC   C4B54658  11.465  30.741   7.539
 4295POPC   NC354659  15.156   7.084   5.423
 4295POPC   PO454660  14.972   7.641   5.767
 4295POPC   GL154661  15.219   7.360   5.875
 4295POPC   GL254662  14.915   7.130   5.870
 4295POPC   C1A54663  15.414   7.532   6.262
 4295POPC   D2A54664  15.390   7.357   6.665
 4295POPC   C3A54665  15.523   7.618   6.983
 4295POPC   C4A54666  15.342   7.456   7.318
 4295POPC   C1B54667  15.099   7.094   6.287
 4295POPC   C2B54668  14.998   6.968   6.692
 4295POPC   C3B54669  15.061   7.068   7.115
 4295POPC   C4B54670  14.879   7.263   7.487
 4296POPC   NC354671  38.312   0.551   5.298
 4296POPC   PO454672  38.141   0.315   5.899
 4296POPC   GL154673  38.499   0.514   5.774
 4296POPC   GL254674  38.655   0.238   5.586
 4296POPC   C1A54675  38.610   0.663   6.166
 4296POPC   D2A54676  38.242   0.529   6.447
 4296POPC   C3A54677  38.208   0.627   6.887
 4296POPC   C4A54678  38.499   0.634   7.220
 4296POPC   C1B54679  38.736   0.150   6.048
 4296POPC   C2B54680  38.704   0.269   6.501
 4296POPC   C3B54681  38.854   0.435   6.889
 4296POPC   C4B54682  38.814   0.233   7.290
 4297POPC   NC354683   3.366  42.491   5.437
 4297POPC   PO454684   3.595  41.785   5.526
 4297POPC   GL154685   3.703  42.177   5.765
 4297POPC   GL254686   3.361  42.183   5.846
 4297POPC   C1A54687   3.640  42.434   6.195
 4297POPC   D2A54688   3.458  42.357   6.627
 4297POPC   C3A54689   3.636  42.268   7.046
 4297POPC   C4A54690   3.812  42.409   7.457
 4297POPC   C1B54691   3.149  42.213   6.231
 4297POPC   C2B54692   2.974  42.469   6.557
 4297POPC   C3B54693   2.923  42.432   6.991
 4297POPC   C4B54694   3.090  42.203   7.330
 4298POPC   NC354695  14.857  26.670   5.458
 4298POPC   PO454696  14.221  26.802   5.577
 4298POPC   GL154697  14.560  26.791   5.882
 4298POPC   GL254698  14.668  26.436   5.856
 4298POPC   C1A54699  14.654  26.996   6.306
 4298POPC   D2A54700  14.267  27.025   6.585
 4298POPC   C3A54701  14.183  26.722   6.921
 4298POPC   C4A54702  14.477  26.882   7.183
 4298POPC   C1B54703  14.757  26.497   6.272
 4298POPC   C2B54704  14.644  26.602   6.684
 4298POPC   C3B54705  14.831  26.523   7.062
 4298POPC   C4B54706  14.886  26.758   7.445
 4299POPC   NC354707  18.404  31.499   5.391
 4299POPC   PO454708  18.792  31.028   5.640
 4299POPC   GL154709  18.532  31.346   5.890
 4299POPC   GL254710  18.205  31.583   5.828
 4299POPC   C1A54711  18.237  31.348   6.267
 4299POPC   D2A54712  17.995  31.135   6.583
 4299POPC   C3A54713  18.071  31.344   6.935
 4299POPC   C4A54714  18.311  31.559   7.217
 4299POPC   C1B54715  18.012  31.820   6.137
 4299POPC   C2B54716  18.137  31.773   6.560
 4299POPC   C3B54717  17.958  31.845   6.928
 4299POPC   C4B54718  18.013  31.955   7.343
 4300POPC   NC354719  28.647  34.801   5.410
 4300POPC   PO454720  28.138  34.314   5.336
 4300POPC   GL154721  28.422  34.438   5.678
 4300POPC   GL254722  28.238  34.733   5.742
 4300POPC   C1A54723  28.656  34.629   6.049
 4300POPC   D2A54724  28.710  34.559   6.485
 4300POPC   C3A54725  28.625  34.765   6.886
 4300POPC   C4A54726  28.375  34.562   7.216
 4300POPC   C1B54727  28.094  34.727   6.178
 4300POPC   C2B54728  28.198  34.887   6.607
 4300POPC   C3B54729  28.156  35.011   7.057
 4300POPC   C4B54730  28.117  34.975   7.533
 4301POPC   NC354731  37.414  16.023   5.422
 4301POPC   PO454732  37.907  15.613   5.253
 4301POPC   GL154733  37.941  15.884   5.688
 4301POPC   GL254734  37.742  16.208   5.777
 4301POPC   C1A54735  38.094  15.830   6.143
 4301POPC   D2A54736  37.885  15.793   6.562
 4301POPC   C3A54737  38.011  15.945   6.948
 4301POPC   C4A54738  37.863  15.932   7.355
 4301POPC   C1B54739  37.660  16.126   6.221
 4301POPC   C2B54740  37.771  16.294   6.652
 4301POPC   C3B54741  37.514  16.153   7.043
 4301POPC   C4B54742  37.430  16.174   7.523
 4302POPC   NC354743  15.759  14.780   5.358
 4302POPC   PO454744  16.008  15.340   5.169
 4302POPC   GL154745  15.949  15.207   5.626
 4302POPC   GL254746  16.067  15.462   5.886
 4302POPC   C1A54747  15.885  14.991   6.066
 4302POPC   D2A54748  15.775  14.988   6.541
 4302POPC   C3A54749  15.959  14.941   6.964
 4302POPC   C4A54750  15.878  14.980   7.455
 4302POPC   C1B54751  15.988  15.426   6.343
 4302POPC   C2B54752  15.648  15.501   6.663
 4302POPC   C3B54753  15.673  15.439   7.106
 4302POPC   C4B54754  16.100  15.370   7.200
 4303POPC   NC354755   1.000  29.896   5.398
 4303POPC   PO454756   1.490  30.279   5.370
 4303POPC   GL154757   1.308  30.061   5.775
 4303POPC   GL254758   1.101  29.745   5.870
 4303POPC   C1A54759   1.444  29.916   6.201
 4303POPC   D2A54760   1.440  30.044   6.630
 4303POPC   C3A54761   1.035  29.971   6.838
 4303POPC   C4A54762   1.118  30.030   7.262
 4303POPC   C1B54763   1.201  29.463   6.190
 4303POPC   C2B54764   1.373  29.514   6.593
 4303POPC   C3B54765   1.405  29.668   7.019
 4303POPC   C4B54766   1.280  29.540   7.452
 4304POPC   NC354767  44.555   7.261   5.384
 4304POPC   PO454768   0.047   7.681   5.418
 4304POPC   GL154769  44.927   7.351   5.748
 4304POPC   GL254770  44.604   7.447   5.856
 4304POPC   C1A54771  44.923   7.283   6.221
 4304POPC   D2A54772  44.735   7.169   6.637
 4304POPC   C3A54773  44.825   7.449   6.982
 4304POPC   C4A54774  44.807   7.639   7.407
 4304POPC   C1B54775  44.415   7.312   6.271
 4304POPC   C2B54776  44.305   7.457   6.701
 4304POPC   C3B54777  44.337   7.269   7.056
 4304POPC   C4B54778  44.231   7.040   7.413
 4305POPC   NC354779   4.842  39.286   5.378
 4305POPC   PO454780   4.171  39.131   5.285
 4305POPC   GL154781   4.455  39.166   5.691
 4305POPC   GL254782   4.504  39.480   5.783
 4305POPC   C1A54783   4.573  39.011   6.139
 4305POPC   D2A54784   4.320  39.052   6.553
 4305POPC   C3A54785   4.548  39.059   6.941
 4305POPC   C4A54786   4.414  39.275   7.297
 4305POPC   C1B54787   4.267  39.416   6.178
 4305POPC   C2B54788   4.190  39.710   6.520
 4305POPC   C3B54789   4.171  39.470   6.874
 4305POPC   C4B54790   3.943  39.441   7.219
 4306POPC   NC354791  40.959  41.946   5.473
 4306POPC   PO454792  41.126  41.272   5.267
 4306POPC   GL154793  40.946  41.380   5.663
 4306POPC   GL254794  41.212  41.593   5.756
 4306POPC   C1A54795  40.762  41.492   6.080
 4306POPC   D2A54796  40.537  41.694   6.421
 4306POPC   C3A54797  40.645  41.549   6.817
 4306POPC   C4A54798  40.682  41.705   7.211
 4306POPC   C1B54799  41.267  41.683   6.188
 4306POPC   C2B54800  41.094  41.523   6.557
 4306POPC   C3B54801  41.113  41.485   7.000
 4306POPC   C4B54802  41.248  41.471   7.412
 4307POPC   NC354803  44.514  23.345   5.109
 4307POPC   PO454804  44.330  22.847   5.461
 4307POPC   GL154805  44.475  22.813   5.874
 4307POPC   GL254806  44.778  22.941   5.802
 4307POPC   C1A54807  44.406  22.756   6.317
 4307POPC   D2A54808  44.707  22.897   6.605
 4307POPC   C3A54809  44.518  22.971   6.944
 4307POPC   C4A54810  44.346  22.908   7.294
 4307POPC   C1B54811  44.817  23.193   6.199
 4307POPC   C2B54812   0.067  23.256   6.625
 4307POPC   C3B54813  44.882  23.328   7.004
 4307POPC   C4B54814  44.790  23.132   7.361
 4308POPC   NC354815   3.042  24.087   5.405
 4308POPC   PO454816   2.445  24.486   5.198
 4308POPC   GL154817   2.620  24.553   5.665
 4308POPC   GL254818   2.677  24.237   5.828
 4308POPC   C1A54819   2.616  24.622   6.140
 4308POPC   D2A54820   2.845  24.518   6.522
 4308POPC   C3A54821   2.601  24.537   6.883
 4308POPC   C4A54822   2.582  24.240   7.179
 4308POPC   C1B54823   3.023  24.206   6.089
 4308POPC   C2B54824   3.047  24.035   6.484
 4308POPC   C3B54825   2.956  24.122   6.875
 4308POPC   C4B54826   3.080  24.219   7.300
 4309POPC   NC354827   8.851  44.898   5.261
 4309POPC   PO454828   8.782  44.221   5.443
 4309POPC   GL154829   8.743  44.593   5.671
 4309POPC   GL254830   9.064  44.805   5.705
 4309POPC   C1A54831   8.604  44.649   6.092
 4309POPC   D2A54832   8.772  44.782   6.498
 4309POPC   C3A54833   8.678  44.598   6.857
 4309POPC   C4A54834   8.485  44.536   7.246
 4309POPC   C1B54835   9.366  44.769   6.052
 4309POPC   C2B54836   9.375  44.840   6.495
 4309POPC   C3B54837   9.167  44.884   6.910
 4309POPC   C4B54838   9.028  44.572   7.222
 4310POPC   NC354839  14.777   9.463   5.487
 4310POPC   PO454840  15.299   9.853   5.433
 4310POPC   GL154841  15.170   9.689   5.796
 4310POPC   GL254842  14.894   9.911   5.831
 4310POPC   C1A54843  15.303   9.903   6.175
 4310POPC   D2A54844  15.569   9.813   6.527
 4310POPC   C3A54845  15.378   9.962   6.902
 4310POPC   C4A54846  15.245   9.699   7.230
 4310POPC   C1B54847  14.836   9.647   6.180
 4310POPC   C2B54848  15.041   9.720   6.577
 4310POPC   C3B54849  14.844   9.861   6.943
 4310POPC   C4B54850  14.883  10.038   7.321
 4311POPC   NC354851   3.739  31.403   5.518
 4311POPC   PO454852   3.379  31.914   5.484
 4311POPC   GL154853   3.285  31.651   5.808
 4311POPC   GL254854   3.245  31.306   5.660
 4311POPC   C1A54855   3.413  31.755   6.228
 4311POPC   D2A54856   3.665  31.782   6.597
 4311POPC   C3A54857   3.551  31.770   7.008
 4311POPC   C4A54858   3.796  31.547   7.271
 4311POPC   C1B54859   3.388  31.201   6.097
 4311POPC   C2B54860   3.354  31.347   6.519
 4311POPC   C3B54861   3.552  31.289   6.881
 4311POPC   C4B54862   3.416  31.220   7.295
 4312POPC   NC354863  19.843  40.643   5.544
 4312POPC   PO454864  20.244  41.172   5.643
 4312POPC   GL154865  20.016  40.961   5.909
 4312POPC   GL254866  19.660  41.058   5.888
 4312POPC   C1A54867  20.057  40.662   6.216
 4312POPC   D2A54868  19.928  40.832   6.588
 4312POPC   C3A54869  20.091  40.718   6.948
 4312POPC   C4A54870  19.882  40.398   7.136
 4312POPC   C1B54871  19.707  41.235   6.332
 4312POPC   C2B54872  19.785  41.272   6.805
 4312POPC   C3B54873  19.674  40.972   7.144
 4312POPC   C4B54874  19.606  41.082   7.608
 4313POPC   NC354875  16.967  41.300   5.686
 4313POPC   PO454876  16.821  40.769   5.425
 4313POPC   GL154877  16.801  40.719   5.923
 4313POPC   GL254878  16.961  41.002   6.093
 4313POPC   C1A54879  16.565  40.596   6.373
 4313POPC   D2A54880  16.463  40.310   6.787
 4313POPC   C3A54881  16.655  40.434   7.167
 4313POPC   C4A54882  16.923  40.808   7.197
 4313POPC   C1B54883  16.498  41.065   6.127
 4313POPC   C2B54884  16.325  41.072   6.514
 4313POPC   C3B54885  16.495  40.823   6.852
 4313POPC   C4B54886  16.419  40.889   7.274
 4314POPC   NC354887   8.934  11.724   5.453
 4314POPC   PO454888   9.166  11.080   5.417
 4314POPC   GL154889   8.999  11.230   5.811
 4314POPC   GL254890   8.895  11.542   5.915
 4314POPC   C1A54891   9.169  11.138   6.202
 4314POPC   D2A54892   8.966  11.081   6.579
 4314POPC   C3A54893   9.080  11.227   6.929
 4314POPC   C4A54894   9.075  11.458   7.294
 4314POPC   C1B54895   8.722  11.748   6.260
 4314POPC   C2B54896   8.794  11.760   6.706
 4314POPC   C3B54897   8.638  11.573   7.075
 4314POPC   C4B54898   8.515  11.495   7.527
 4315POPC   NC354899  15.371   5.424   5.358
 4315POPC   PO454900  15.167   4.808   5.187
 4315POPC   GL154901  15.150   4.989   5.634
 4315POPC   GL254902  14.922   5.267   5.797
 4315POPC   C1A54903  15.217   4.866   6.087
 4315POPC   D2A54904  15.039   4.911   6.519
 4315POPC   C3A54905  15.308   5.063   6.854
 4315POPC   C4A54906  15.398   4.863   7.219
 4315POPC   C1B54907  14.938   5.420   6.255
 4315POPC   C2B54908  14.921   5.403   6.737
 4315POPC   C3B54909  15.033   5.370   7.196
 4315POPC   C4B54910  14.892   5.509   7.635
 4316POPC   NC354911  30.432  14.322   4.969
 4316POPC   PO454912  30.850  14.401   5.451
 4316POPC   GL154913  30.471  14.414   5.724
 4316POPC   GL254914  30.450  14.719   5.876
 4316POPC   C1A54915  30.279  14.352   6.173
 4316POPC   D2A54916  30.264  14.387   6.644
 4316POPC   C3A54917  30.470  14.133   6.950
 4316POPC   C4A54918  30.912  14.216   7.056
 4316POPC   C1B54919  30.772  14.413   6.131
 4316POPC   C2B54920  30.936  14.348   6.542
 4316POPC   C3B54921  30.874  14.680   6.825
 4316POPC   C4B54922  30.535  14.651   7.056
 4317POPC   NC354923  31.189  39.900   5.544
 4317POPC   PO454924  31.650  40.261   5.489
 4317POPC   GL154925  31.631  39.865   5.797
 4317POPC   GL254926  31.327  39.960   6.019
 4317POPC   C1A54927  31.647  39.635   6.194
 4317POPC   D2A54928  31.454  39.837   6.561
 4317POPC   C3A54929  31.677  39.754   6.932
 4317POPC   C4A54930  31.528  39.526   7.258
 4317POPC   C1B54931  30.987  40.160   6.238
 4317POPC   C2B54932  30.957  40.220   6.678
 4317POPC   C3B54933  31.253  40.137   7.028
 4317POPC   C4B54934  31.584  40.335   7.311
 4318POPC   NC354935  26.229  16.181   5.527
 4318POPC   PO454936  25.793  15.797   5.156
 4318POPC   GL154937  25.901  15.812   5.664
 4318POPC   GL254938  25.822  16.148   5.810
 4318POPC   C1A54939  26.215  15.741   6.034
 4318POPC   D2A54940  26.225  15.668   6.478
 4318POPC   C3A54941  26.394  15.860   6.811
 4318POPC   C4A54942  26.222  16.105   7.116
 4318POPC   C1B54943  25.795  15.972   6.205
 4318POPC   C2B54944  25.879  16.043   6.620
 4318POPC   C3B54945  25.687  16.171   6.980
 4318POPC   C4B54946  25.777  16.179   7.363
 4319POPC   NC354947  25.497  37.155   5.519
 4319POPC   PO454948  24.893  36.768   5.589
 4319POPC   GL154949  25.118  37.010   5.917
 4319POPC   GL254950  24.849  36.982   6.159
 4319POPC   C1A54951  25.330  36.977   6.339
 4319POPC   D2A54952  25.042  36.894   6.706
 4319POPC   C3A54953  25.048  37.180   7.057
 4319POPC   C4A54954  25.488  37.123   7.111
 4319POPC   C1B54955  25.030  36.559   6.297
 4319POPC   C2B54956  25.386  36.479   6.551
 4319POPC   C3B54957  25.430  36.620   6.949
 4319POPC   C4B54958  25.087  36.688   7.188
 4320POPC   NC354959  39.914   3.317   5.500
 4320POPC   PO454960  39.897   3.951   5.234
 4320POPC   GL154961  40.012   3.956   5.733
 4320POPC   GL254962  40.107   3.645   5.823
 4320POPC   C1A54963  39.828   3.902   6.198
 4320POPC   D2A54964  39.565   3.899   6.604
 4320POPC   C3A54965  39.765   3.671   6.973
 4320POPC   C4A54966  39.693   3.265   7.208
 4320POPC   C1B54967  39.889   3.393   6.139
 4320POPC   C2B54968  39.687   3.407   6.506
 4320POPC   C3B54969  39.979   3.237   6.771
 4320POPC   C4B54970  40.209   3.330   7.145
 4321POPC   NC354971  44.124  12.001   5.228
 4321POPC   PO454972  44.771  11.879   5.446
 4321POPC   GL154973  44.655  11.952   5.871
 4321POPC   GL254974  44.556  12.275   5.773
 4321POPC   C1A54975  44.717  11.936   6.328
 4321POPC   D2A54976  44.912  12.225   6.626
 4321POPC   C3A54977  44.854  12.200   7.057
 4321POPC   C4A54978  44.891  12.195   7.502
 4321POPC   C1B54979  44.346  12.288   6.164
 4321POPC   C2B54980  44.338  12.173   6.591
 4321POPC   C3B54981  44.328  12.121   7.016
 4321POPC   C4B54982  44.135  12.496   7.180
 4322POPC   NC354983  39.244  42.142   5.064
 4322POPC   PO454984  39.612  42.603   5.482
 4322POPC   GL154985  39.425  42.223   5.720
 4322POPC   GL254986  39.044  42.091   5.736
 4322POPC   C1A54987  39.381  42.212   6.176
 4322POPC   D2A54988  39.559  42.016   6.545
 4322POPC   C3A54989  39.446  42.224   6.916
 4322POPC   C4A54990  39.365  42.512   7.243
 4322POPC   C1B54991  38.956  41.940   6.177
 4322POPC   C2B54992  39.059  42.096   6.596
 4322POPC   C3B54993  38.932  42.306   6.978
 4322POPC   C4B54994  38.695  42.185   7.322
 4323POPC   NC354995  33.763  25.620   5.334
 4323POPC   PO454996  34.228  25.107   5.417
 4323POPC   GL154997  34.067  25.142   5.802
 4323POPC   GL254998  33.745  24.977   5.848
 4323POPC   C1A54999  34.126  25.426   6.138
 4323POPC   D2A55000  33.868  25.516   6.488
 4323POPC   C3A55001  34.018  25.213   6.741
 4323POPC   C4A55002  33.955  25.092   7.135
 4323POPC   C1B55003  33.645  25.088   6.309
 4323POPC   C2B55004  33.495  25.146   6.770
 4323POPC   C3B55005  33.485  25.227   7.229
 4323POPC   C4B55006  33.509  25.033   7.639
 4324POPC   NC355007  44.619  27.832   5.316
 4324POPC   PO455008  44.513  27.155   5.476
 4324POPC   GL155009  44.786  27.473   5.743
 4324POPC   GL255010  44.758  27.882   5.811
 4324POPC   C1A55011  44.911  27.571   6.176
 4324POPC   D2A55012  44.689  27.556   6.570
 4324POPC   C3A55013  44.723  27.826   6.929
 4324POPC   C4A55014  44.656  27.637   7.338
 4324POPC   C1B55015  44.508  27.908   6.250
 4324POPC   C2B55016  44.257  27.850   6.691
 4324POPC   C3B55017  44.210  27.802   7.175
 4324POPC   C4B55018  44.374  27.966   7.598
 4325POPC   NC355019  12.710   0.758   5.425
 4325POPC   PO455020  13.018   1.400   5.395
 4325POPC   GL155021  13.057   1.091   5.688
 4325POPC   GL255022  12.926   1.370   5.908
 4325POPC   C1A55023  13.222   1.025   6.113
 4325POPC   D2A55024  12.985   1.264   6.418
 4325POPC   C3A55025  12.954   1.067   6.793
 4325POPC   C4A55026  12.892   1.085   7.218
 4325POPC   C1B55027  12.576   1.518   6.204
 4325POPC   C2B55028  12.470   1.460   6.652
 4325POPC   C3B55029  12.465   1.259   7.055
 4325POPC   C4B55030  12.518   1.366   7.504
 4326POPC   NC355031  37.041  17.188   5.434
 4326POPC   PO455032  36.683  17.785   5.300
 4326POPC   GL155033  36.779  17.633   5.732
 4326POPC   GL255034  36.672  17.294   5.821
 4326POPC   C1A55035  36.673  17.717   6.187
 4326POPC   D2A55036  36.659  17.679   6.646
 4326POPC   C3A55037  37.076  17.657   6.887
 4326POPC   C4A55038  36.859  17.722   7.269
 4326POPC   C1B55039  36.899  17.255   6.184
 4326POPC   C2B55040  36.747  17.170   6.591
 4326POPC   C3B55041  36.781  17.280   7.007
 4326POPC   C4B55042  36.615  17.292   7.422
 4327POPC   NC355043   4.809   9.614   5.444
 4327POPC   PO455044   5.417   9.913   5.525
 4327POPC   GL155045   5.143   9.688   5.823
 4327POPC   GL255046   4.877   9.401   5.893
 4327POPC   C1A55047   4.948   9.882   6.168
 4327POPC   D2A55048   5.178   9.964   6.524
 4327POPC   C3A55049   5.200   9.738   6.883
 4327POPC   C4A55050   5.452   9.639   7.243
 4327POPC   C1B55051   4.691   9.464   6.274
 4327POPC   C2B55052   4.688   9.731   6.635
 4327POPC   C3B55053   4.734   9.757   7.091
 4327POPC   C4B55054   4.982   9.501   7.317
 4328POPC   NC355055  36.553   3.228   5.451
 4328POPC   PO455056  35.845   3.408   5.372
 4328POPC   GL155057  36.105   3.386   5.741
 4328POPC   GL255058  36.131   3.717   5.815
 4328POPC   C1A55059  36.149   3.366   6.227
 4328POPC   D2A55060  36.276   3.411   6.694
 4328POPC   C3A55061  35.986   3.418   7.083
 4328POPC   C4A55062  35.980   3.348   7.575
 4328POPC   C1B55063  36.359   3.837   6.144
 4328POPC   C2B55064  36.241   3.939   6.544
 4328POPC   C3B55065  36.230   3.861   6.975
 4328POPC   C4B55066  36.157   3.799   7.421
 4329POPC   NC355067   3.023  40.795   5.114
 4329POPC   PO455068   2.890  41.084   5.696
 4329POPC   GL155069   2.697  40.756   5.975
 4329POPC   GL255070   2.939  40.439   6.008
 4329POPC   C1A55071   2.461  40.783   6.355
 4329POPC   D2A55072   2.394  40.531   6.703
 4329POPC   C3A55073   2.647  40.763   6.996
 4329POPC   C4A55074   2.509  41.002   7.304
 4329POPC   C1B55075   3.094  40.789   6.269
 4329POPC   C2B55076   2.899  41.040   6.568
 4329POPC   C3B55077   3.083  41.073   6.949
 4329POPC   C4B55078   2.992  40.993   7.342
 4330POPC   NC355079  35.673  35.440   5.441
 4330POPC   PO455080  36.246  35.552   5.208
 4330POPC   GL155081  36.158  35.332   5.630
 4330POPC   GL255082  36.289  34.987   5.678
 4330POPC   C1A55083  35.933  35.296   6.058
 4330POPC   D2A55084  35.989  35.449   6.501
 4330POPC   C3A55085  35.661  35.549   6.822
 4330POPC   C4A55086  35.714  35.692   7.274
 4330POPC   C1B55087  36.421  35.119   6.113
 4330POPC   C2B55088  36.306  35.013   6.546
 4330POPC   C3B55089  36.153  35.187   6.932
 4330POPC   C4B55090  35.884  35.173   7.284
 4331POPC   NC355091  18.645  19.900   5.435
 4331POPC   PO455092  18.038  19.661   5.485
 4331POPC   GL155093  18.335  19.771   5.832
 4331POPC   GL255094  18.258  20.103   5.911
 4331POPC   C1A55095  18.381  19.615   6.276
 4331POPC   D2A55096  18.172  19.310   6.568
 4331POPC   C3A55097  18.201  19.414   7.025
 4331POPC   C4A55098  18.003  19.678   7.318
 4331POPC   C1B55099  18.016  19.964   6.279
 4331POPC   C2B55100  18.120  19.829   6.710
 4331POPC   C3B55101  18.361  19.954   7.065
 4331POPC   C4B55102  18.518  20.324   7.249
 4332POPC   NC355103  23.758  39.612   5.451
 4332POPC   PO455104  23.604  40.310   5.453
 4332POPC   GL155105  23.608  40.137   5.859
 4332POPC   GL255106  23.677  39.771   5.945
 4332POPC   C1A55107  23.842  40.153   6.266
 4332POPC   D2A55108  23.914  39.938   6.656
 4332POPC   C3A55109  23.801  40.115   7.051
 4332POPC   C4A55110  23.836  40.256   7.475
 4332POPC   C1B55111  23.982  39.573   6.278
 4332POPC   C2B55112  24.022  39.440   6.696
 4332POPC   C3B55113  24.029  39.614   7.052
 4332POPC   C4B55114  23.838  39.725   7.400
 4333POPC   NC355115   9.405  13.099   5.402
 4333POPC   PO455116   8.736  13.025   5.409
 4333POPC   GL155117   8.745  12.623   5.707
 4333POPC   GL255118   9.099  12.539   5.866
 4333POPC   C1A55119   8.660  12.632   6.160
 4333POPC   D2A55120   8.762  12.953   6.473
 4333POPC   C3A55121   8.835  12.898   6.920
 4333POPC   C4A55122   8.780  13.206   7.244
 4333POPC   C1B55123   9.197  12.854   6.224
 4333POPC   C2B55124   9.294  13.005   6.709
 4333POPC   C3B55125   9.257  12.988   7.221
 4333POPC   C4B55126   9.257  13.027   7.738
 4334POPC   NC355127  19.170  28.880   5.173
 4334POPC   PO455128  19.544  29.331   5.550
 4334POPC   GL155129  19.743  29.376   5.896
 4334POPC   GL255130  19.759  29.036   5.945
 4334POPC   C1A55131  19.696  29.455   6.315
 4334POPC   D2A55132  19.965  29.273   6.581
 4334POPC   C3A55133  19.987  29.143   6.981
 4334POPC   C4A55134  20.125  28.801   7.133
 4334POPC   C1B55135  19.458  29.017   6.289
 4334POPC   C2B55136  19.488  29.130   6.705
 4334POPC   C3B55137  19.557  28.875   7.046
 4334POPC   C4B55138  19.322  28.769   7.353
 4335POPC   NC355139  26.285  31.922   5.404
 4335POPC   PO455140  25.915  32.531   5.383
 4335POPC   GL155141  26.089  32.325   5.735
 4335POPC   GL255142  25.942  31.993   5.755
 4335POPC   C1A55143  26.156  32.319   6.180
 4335POPC   D2A55144  25.920  32.278   6.552
 4335POPC   C3A55145  26.217  32.383   6.883
 4335POPC   C4A55146  26.136  32.643   7.223
 4335POPC   C1B55147  26.048  31.829   6.148
 4335POPC   C2B55148  26.275  31.921   6.533
 4335POPC   C3B55149  26.046  31.895   6.894
 4335POPC   C4B55150  25.936  32.144   7.239
 4336POPC   NC355151  25.076  10.620   5.707
 4336POPC   PO455152  25.508  10.126   5.731
 4336POPC   GL155153  25.371  10.334   6.048
 4336POPC   GL255154  25.368  10.701   6.125
 4336POPC   C1A55155  25.508  10.321   6.448
 4336POPC   D2A55156  25.650  10.641   6.629
 4336POPC   C3A55157  25.453  10.595   6.995
 4336POPC   C4A55158  25.405  10.966   7.178
 4336POPC   C1B55159  25.027  10.494   6.405
 4336POPC   C2B55160  24.943  10.464   6.853
 4336POPC   C3B55161  24.976  10.681   7.251
 4336POPC   C4B55162  24.907  10.536   7.704
 4337POPC   NC355163  32.773  32.854   5.145
 4337POPC   PO455164  33.340  32.524   5.343
 4337POPC   GL155165  33.066  32.862   5.608
 4337POPC   GL255166  33.083  33.252   5.673
 4337POPC   C1A55167  33.017  32.879   6.074
 4337POPC   D2A55168  32.778  33.040   6.455
 4337POPC   C3A55169  32.897  33.146   6.882
 4337POPC   C4A55170  32.921  32.870   7.237
 4337POPC   C1B55171  32.977  33.364   6.096
 4337POPC   C2B55172  33.248  33.265   6.470
 4337POPC   C3B55173  33.367  33.404   6.906
 4337POPC   C4B55174  33.150  33.346   7.314
 4338POPC   NC355175   7.753  10.726   5.340
 4338POPC   PO455176   7.219  10.706   5.658
 4338POPC   GL155177   7.509  10.536   5.922
 4338POPC   GL255178   7.766  10.803   5.831
 4338POPC   C1A55179   7.387  10.169   6.236
 4338POPC   D2A55180   7.174  10.165   6.674
 4338POPC   C3A55181   7.229  10.597   6.845
 4338POPC   C4A55182   7.314  10.768   7.291
 4338POPC   C1B55183   7.985  10.771   6.178
 4338POPC   C2B55184   7.880  10.643   6.587
 4338POPC   C3B55185   7.728  10.596   7.013
 4338POPC   C4B55186   7.492  10.264   7.233
 4339POPC   NC355187  11.603  16.997   5.399
 4339POPC   PO455188  10.975  16.743   5.302
 4339POPC   GL155189  11.152  16.767   5.720
 4339POPC   GL255190  11.506  16.727   5.819
 4339POPC   C1A55191  11.159  16.850   6.166
 4339POPC   D2A55192  10.977  16.723   6.565
 4339POPC   C3A55193  11.267  16.626   6.879
 4339POPC   C4A55194  11.197  16.800   7.256
 4339POPC   C1B55195  11.504  16.459   6.219
 4339POPC   C2B55196  11.657  16.214   6.554
 4339POPC   C3B55197  11.742  16.387   6.958
 4339POPC   C4B55198  11.545  16.458   7.353
 4340POPC   NC355199  19.320  28.921   5.648
 4340POPC   PO455200  18.880  29.263   5.240
 4340POPC   GL155201  18.933  29.250   5.725
 4340POPC   GL255202  19.235  29.333   5.943
 4340POPC   C1A55203  18.928  28.998   6.155
 4340POPC   D2A55204  18.775  28.764   6.501
 4340POPC   C3A55205  18.997  28.769   6.917
 4340POPC   C4A55206  18.853  28.946   7.318
 4340POPC   C1B55207  19.149  29.442   6.364
 4340POPC   C2B55208  18.985  29.248   6.727
 4340POPC   C3B55209  19.202  29.258   7.120
 4340POPC   C4B55210  19.141  29.522   7.467
 4341POPC   NC355211   5.567  36.514   5.291
 4341POPC   PO455212   6.021  36.218   5.554
 4341POPC   GL155213   5.938  36.162   5.935
 4341POPC   GL255214   5.598  36.283   5.962
 4341POPC   C1A55215   5.922  36.189   6.353
 4341POPC   D2A55216   5.718  36.250   6.680
 4341POPC   C3A55217   6.008  36.275   7.020
 4341POPC   C4A55218   6.193  36.316   7.414
 4341POPC   C1B55219   5.607  35.838   6.171
 4341POPC   C2B55220   5.464  35.792   6.605
 4341POPC   C3B55221   5.650  35.871   7.008
 4341POPC   C4B55222   5.783  36.031   7.420
 4342POPC   NC355223   7.691  30.172   5.409
 4342POPC   PO455224   7.059  30.006   5.482
 4342POPC   GL155225   7.278  29.913   5.848
 4342POPC   GL255226   7.511  30.164   5.915
 4342POPC   C1A55227   7.594  29.704   6.135
 4342POPC   D2A55228   7.778  29.817   6.511
 4342POPC   C3A55229   7.473  29.822   6.784
 4342POPC   C4A55230   7.454  29.831   7.184
 4342POPC   C1B55231   7.315  30.063   6.338
 4342POPC   C2B55232   7.081  30.144   6.689
 4342POPC   C3B55233   7.337  30.286   6.985
 4342POPC   C4B55234   7.578  30.281   7.344
 4343POPC   NC355235  44.331  17.787   5.391
 4343POPC   PO455236  44.832  17.365   5.447
 4343POPC   GL155237  44.597  17.545   5.741
 4343POPC   GL255238  44.676  17.292   5.943
 4343POPC   C1A55239  44.613  17.781   6.104
 4343POPC   D2A55240  44.819  17.689   6.441
 4343POPC   C3A55241  44.634  17.653   6.841
 4343POPC   C4A55242  44.612  17.785   7.279
 4343POPC   C1B55243  44.309  17.258   6.155
 4343POPC   C2B55244  44.271  16.993   6.509
 4343POPC   C3B55245  44.344  17.021   6.968
 4343POPC   C4B55246  44.662  17.280   7.200
 4344POPC   NC355247   8.541  31.576   5.401
 4344POPC   PO455248   8.663  31.001   5.711
 4344POPC   GL155249   9.053  31.301   5.852
 4344POPC   GL255250   9.132  31.672   5.772
 4344POPC   C1A55251   9.273  31.485   6.246
 4344POPC   D2A55252   9.264  31.332   6.703
 4344POPC   C3A55253   8.862  31.202   6.937
 4344POPC   C4A55254   8.598  31.284   7.316
 4344POPC   C1B55255   8.867  31.820   6.128
 4344POPC   C2B55256   8.711  31.831   6.568
 4344POPC   C3B55257   8.892  31.794   6.982
 4344POPC   C4B55258   8.868  31.724   7.422
 4345POPC   NC355259  43.000  24.922   5.334
 4345POPC   PO455260  43.383  24.362   5.545
 4345POPC   GL155261  43.091  24.607   5.777
 4345POPC   GL255262  43.325  24.557   6.039
 4345POPC   C1A55263  42.838  24.528   6.151
 4345POPC   D2A55264  43.072  24.428   6.522
 4345POPC   C3A55265  42.906  24.456   6.951
 4345POPC   C4A55266  43.012  24.660   7.335
 4345POPC   C1B55267  43.540  24.270   6.321
 4345POPC   C2B55268  43.582  24.037   6.710
 4345POPC   C3B55269  43.240  24.038   6.995
 4345POPC   C4B55270  43.368  24.283   7.328
 4346POPC   NC355271  36.083  24.069   5.381
 4346POPC   PO455272  36.591  23.730   5.445
 4346POPC   GL155273  36.374  23.946   5.784
 4346POPC   GL255274  36.385  23.639   5.928
 4346POPC   C1A55275  36.020  23.992   6.116
 4346POPC   D2A55276  35.793  23.965   6.548
 4346POPC   C3A55277  36.091  23.956   6.899
 4346POPC   C4A55278  36.062  23.756   7.270
 4346POPC   C1B55279  36.151  23.388   6.197
 4346POPC   C2B55280  36.157  23.556   6.592
 4346POPC   C3B55281  36.401  23.518   6.956
 4346POPC   C4B55282  36.594  23.706   7.294
 4347POPC   NC355283   2.655  39.874   5.244
 4347POPC   PO455284   2.659  40.549   5.237
 4347POPC   GL155285   2.524  40.355   5.681
 4347POPC   GL255286   2.689  40.024   5.773
 4347POPC   C1A55287   2.486  40.285   6.179
 4347POPC   D2A55288   2.709  40.083   6.559
 4347POPC   C3A55289   2.710  40.257   7.007
 4347POPC   C4A55290   2.355  40.420   7.254
 4347POPC   C1B55291   2.698  39.731   6.148
 4347POPC   C2B55292   2.580  39.573   6.556
 4347POPC   C3B55293   2.632  39.763   6.964
 4347POPC   C4B55294   2.490  39.928   7.384
 4348POPC   NC355295  44.372  25.017   5.451
 4348POPC   PO455296  44.841  25.515   5.475
 4348POPC   GL155297  44.584  25.320   5.834
 4348POPC   GL255298  44.267  25.105   5.948
 4348POPC   C1A55299  44.628  25.350   6.276
 4348POPC   D2A55300  44.883  25.545   6.598
 4348POPC   C3A55301  44.706  25.348   6.941
 4348POPC   C4A55302  44.725  25.478   7.319
 4348POPC   C1B55303  44.341  24.898   6.339
 4348POPC   C2B55304  44.409  24.914   6.779
 4348POPC   C3B55305  44.335  25.035   7.212
 4348POPC   C4B55306  44.291  25.074   7.686
 4349POPC   NC355307   8.476  18.124   5.441
 4349POPC   PO455308   9.031  18.484   5.412
 4349POPC   GL155309   8.880  18.414   5.810
 4349POPC   GL255310   8.951  18.061   5.841
 4349POPC   C1A55311   8.798  18.408   6.267
 4349POPC   D2A55312   8.950  18.261   6.679
 4349POPC   C3A55313   8.670  18.161   7.023
 4349POPC   C4A55314   8.601  18.504   7.320
 4349POPC   C1B55315   9.144  18.013   6.261
 4349POPC   C2B55316   9.297  17.903   6.673
 4349POPC   C3B55317   9.146  17.952   7.083
 4349POPC   C4B55318   9.246  17.793   7.460
 4350POPC   NC355319  38.473  28.187   5.332
 4350POPC   PO455320  38.064  28.721   5.623
 4350POPC   GL155321  38.257  28.474   5.948
 4350POPC   GL255322  38.532  28.280   5.834
 4350POPC   C1A55323  38.515  28.593   6.304
 4350POPC   D2A55324  38.302  28.482   6.607
 4350POPC   C3A55325  38.374  28.364   6.994
 4350POPC   C4A55326  38.707  28.582   7.263
 4350POPC   C1B55327  38.446  28.091   6.241
 4350POPC   C2B55328  38.551  28.004   6.657
 4350POPC   C3B55329  38.811  28.145   7.016
 4350POPC   C4B55330  38.590  28.093   7.425
 4351POPC   NC355331   5.016   3.006   5.387
 4351POPC   PO455332   5.394   2.487   5.242
 4351POPC   GL155333   5.337   2.734   5.706
 4351POPC   GL255334   5.001   2.641   5.763
 4351POPC   C1A55335   5.276   2.659   6.236
 4351POPC   D2A55336   5.294   2.440   6.658
 4351POPC   C3A55337   5.166   2.670   7.010
 4351POPC   C4A55338   5.260   2.663   7.480
 4351POPC   C1B55339   4.789   2.687   6.141
 4351POPC   C2B55340   4.818   2.634   6.558
 4351POPC   C3B55341   4.644   2.695   6.934
 4351POPC   C4B55342   4.847   2.936   7.287
 4352POPC   NC355343  11.957   8.752   5.396
 4352POPC   PO455344  12.248   9.321   5.571
 4352POPC   GL155345  12.101   8.972   5.871
 4352POPC   GL255346  11.828   8.702   5.877
 4352POPC   C1A55347  12.059   8.882   6.315
 4352POPC   D2A55348  12.155   9.170   6.618
 4352POPC   C3A55349  12.070   9.083   7.033
 4352POPC   C4A55350  12.431   9.331   7.174
 4352POPC   C1B55351  12.247   8.492   6.025
 4352POPC   C2B55352  12.306   8.368   6.468
 4352POPC   C3B55353  12.387   8.407   6.922
 4352POPC   C4B55354  12.137   8.593   7.225
 4353POPC   NC355355  37.158  20.023   5.370
 4353POPC   PO455356  36.517  20.275   5.457
 4353POPC   GL155357  36.656  19.924   5.818
 4353POPC   GL255358  37.038  19.870   5.893
 4353POPC   C1A55359  36.704  19.755   6.265
 4353POPC   D2A55360  36.973  19.925   6.610
 4353POPC   C3A55361  36.799  19.828   6.995
 4353POPC   C4A55362  36.499  19.566   7.138
 4353POPC   C1B55363  37.179  19.567   6.267
 4353POPC   C2B55364  37.085  19.448   6.742
 4353POPC   C3B55365  37.178  19.526   7.219
 4353POPC   C4B55366  37.186  19.533   7.747
 4354POPC   NC355367   0.571   3.249   5.542
 4354POPC   PO455368   0.519   2.664   5.366
 4354POPC   GL155369   0.616   2.653   5.811
 4354POPC   GL255370   0.502   2.969   5.938
 4354POPC   C1A55371   0.404   2.603   6.260
 4354POPC   D2A55372   0.098   2.779   6.598
 4354POPC   C3A55373   0.206   2.556   6.983
 4354POPC   C4A55374   0.655   2.585   7.081
 4354POPC   C1B55375   0.246   3.178   6.223
 4354POPC   C2B55376   0.375   3.220   6.659
 4354POPC   C3B55377   0.276   3.036   7.074
 4354POPC   C4B55378   0.237   2.782   7.480
 4355POPC   NC355379  15.837  19.213   5.429
 4355POPC   PO455380  16.146  18.578   5.291
 4355POPC   GL155381  16.050  18.655   5.748
 4355POPC   GL255382  15.892  18.976   5.865
 4355POPC   C1A55383  16.269  18.810   6.156
 4355POPC   D2A55384  16.373  19.015   6.569
 4355POPC   C3A55385  16.154  18.855   6.965
 4355POPC   C4A55386  16.216  18.699   7.387
 4355POPC   C1B55387  15.969  19.236   6.237
 4355POPC   C2B55388  15.872  19.185   6.682
 4355POPC   C3B55389  15.930  19.281   7.131
 4355POPC   C4B55390  16.155  19.183   7.546
 4356POPC   NC355391  18.591   7.352   5.296
 4356POPC   PO455392  18.112   7.647   5.562
 4356POPC   GL155393  18.339   7.355   5.829
 4356POPC   GL255394  18.712   7.261   5.809
 4356POPC   C1A55395  18.181   7.305   6.246
 4356POPC   D2A55396  17.950   7.540   6.553
 4356POPC   C3A55397  18.218   7.498   6.866
 4356POPC   C4A55398  18.291   7.432   7.247
 4356POPC   C1B55399  18.663   7.532   6.195
 4356POPC   C2B55400  18.728   7.424   6.672
 4356POPC   C3B55401  18.784   7.480   7.116
 4356POPC   C4B55402  18.747   7.333   7.536
 4357POPC   NC355403  27.307  12.760   5.485
 4357POPC   PO455404  27.890  12.813   5.658
 4357POPC   GL155405  27.539  12.768   5.955
 4357POPC   GL255406  27.189  12.578   5.946
 4357POPC   C1A55407  27.587  12.775   6.383
 4357POPC   D2A55408  27.484  12.590   6.740
 4357POPC   C3A55409  27.695  12.699   7.148
 4357POPC   C4A55410  27.603  12.480   7.554
 4357POPC   C1B55411  27.116  12.981   6.184
 4357POPC   C2B55412  27.232  13.116   6.597
 4357POPC   C3B55413  27.251  12.957   7.020
 4357POPC   C4B55414  27.290  12.868   7.447
 4358POPC   NC355415  35.565  11.689   5.536
 4358POPC   PO455416  35.280  11.088   5.257
 4358POPC   GL155417  35.389  11.229   5.693
 4358POPC   GL255418  35.087  11.191   5.882
 4358POPC   C1A55419  35.547  11.198   6.129
 4358POPC   D2A55420  35.736  10.932   6.458
 4358POPC   C3A55421  35.705  11.191   6.830
 4358POPC   C4A55422  35.630  11.285   7.251
 4358POPC   C1B55423  35.094  11.382   6.284
 4358POPC   C2B55424  35.224  11.196   6.654
 4358POPC   C3B55425  35.139  11.303   7.067
 4358POPC   C4B55426  34.922  11.679   7.119
 4359POPC   NC355427  16.815  19.514   5.480
 4359POPC   PO455428  16.608  20.231   5.524
 4359POPC   GL155429  16.601  19.890   5.765
 4359POPC   GL255430  16.964  19.858   5.811
 4359POPC   C1A55431  16.566  19.684   6.158
 4359POPC   D2A55432  16.609  19.889   6.556
 4359POPC   C3A55433  16.650  19.658   6.942
 4359POPC   C4A55434  16.343  19.577   7.272
 4359POPC   C1B55435  17.078  19.636   6.180
 4359POPC   C2B55436  17.110  19.744   6.626
 4359POPC   C3B55437  17.167  19.558   7.038
 4359POPC   C4B55438  16.874  19.487   7.384
 4360POPC   NC355439  36.551  12.880   5.410
 4360POPC   PO455440  37.193  12.976   5.441
 4360POPC   GL155441  37.111  12.729   5.834
 4360POPC   GL255442  36.743  12.607   5.900
 4360POPC   C1A55443  37.065  12.745   6.278
 4360POPC   D2A55444  36.816  12.586   6.580
 4360POPC   C3A55445  36.931  12.792   6.940
 4360POPC   C4A55446  36.927  12.821   7.394
 4360POPC   C1B55447  36.588  12.954   6.222
 4360POPC   C2B55448  36.625  13.112   6.671
 4360POPC   C3B55449  36.528  13.067   7.132
 4360POPC   C4B55450  36.662  13.230   7.540
 4361POPC   NC355451   4.190  12.749   5.243
 4361POPC   PO455452   4.739  13.015   5.415
 4361POPC   GL155453   4.341  12.961   5.694
 4361POPC   GL255454   4.291  12.596   5.748
 4361POPC   C1A55455   4.104  12.919   6.105
 4361POPC   D2A55456   4.098  12.606   6.424
 4361POPC   C3A55457   4.104  12.671   6.897
 4361POPC   C4A55458   4.221  13.034   7.176
 4361POPC   C1B55459   4.538  12.661   6.139
 4361POPC   C2B55460   4.552  12.769   6.602
 4361POPC   C3B55461   4.607  12.625   7.007
 4361POPC   C4B55462   4.555  12.730   7.385
 4362POPC   NC355463  28.935  43.889   5.392
 4362POPC   PO455464  29.605  43.912   5.490
 4362POPC   GL155465  29.368  43.824   5.865
 4362POPC   GL255466  29.024  43.901   5.900
 4362POPC   C1A55467  29.386  43.960   6.298
 4362POPC   D2A55468  29.203  44.071   6.680
 4362POPC   C3A55469  29.351  43.863   7.033
 4362POPC   C4A55470  29.341  43.979   7.461
 4362POPC   C1B55471  28.892  43.858   6.332
 4362POPC   C2B55472  28.881  43.686   6.764
 4362POPC   C3B55473  28.848  43.921   7.137
 4362POPC   C4B55474  28.851  43.909   7.578
 4363POPC   NC355475  44.682   1.976   5.338
 4363POPC   PO455476  44.159   1.660   5.669
 4363POPC   GL155477  44.508   1.884   5.852
 4363POPC   GL255478  44.532   2.207   5.770
 4363POPC   C1A55479  44.843   1.992   6.159
 4363POPC   D2A55480  44.628   1.944   6.559
 4363POPC   C3A55481  44.712   1.668   6.914
 4363POPC   C4A55482  44.693   1.902   7.300
 4363POPC   C1B55483  44.286   2.441   6.068
 4363POPC   C2B55484  44.297   2.520   6.520
 4363POPC   C3B55485  44.476   2.330   6.913
 4363POPC   C4B55486  44.362   2.285   7.338
 4364POPC   NC355487   6.365  42.252   5.399
 4364POPC   PO455488   5.703  42.455   5.387
 4364POPC   GL155489   5.782  42.484   5.829
 4364POPC   GL255490   6.100  42.334   5.850
 4364POPC   C1A55491   5.895  42.548   6.293
 4364POPC   D2A55492   6.104  42.442   6.694
 4364POPC   C3A55493   5.776  42.315   6.990
 4364POPC   C4A55494   5.679  42.263   7.431
 4364POPC   C1B55495   6.258  42.126   6.251
 4364POPC   C2B55496   6.396  41.807   6.557
 4364POPC   C3B55497   6.283  41.960   6.976
 4364POPC   C4B55498   6.188  42.261   7.345
 4365POPC   NC355499   1.566  34.211   5.530
 4365POPC   PO455500   1.048  34.618   5.356
 4365POPC   GL155501   1.297  34.606   5.726
 4365POPC   GL255502   1.068  34.381   5.826
 4365POPC   C1A55503   1.413  34.757   6.118
 4365POPC   D2A55504   1.434  34.520   6.497
 4365POPC   C3A55505   1.350  34.706   6.898
 4365POPC   C4A55506   1.312  34.431   7.257
 4365POPC   C1B55507   0.938  34.490   6.230
 4365POPC   C2B55508   0.941  34.443   6.667
 4365POPC   C3B55509   0.860  34.597   7.071
 4365POPC   C4B55510   1.085  34.892   7.310
 4366POPC   NC355511  42.000  39.331   5.442
 4366POPC   PO455512  41.563  38.938   5.143
 4366POPC   GL155513  41.589  39.128   5.657
 4366POPC   GL255514  41.672  39.437   5.822
 4366POPC   C1A55515  41.525  39.055   6.164
 4366POPC   D2A55516  41.720  38.991   6.616
 4366POPC   C3A55517  41.407  38.967   6.924
 4366POPC   C4A55518  41.431  38.988   7.365
 4366POPC   C1B55519  41.748  39.507   6.273
 4366POPC   C2B55520  41.554  39.463   6.693
 4366POPC   C3B55521  41.539  39.427   7.154
 4366POPC   C4B55522  41.774  39.569   7.530
 4367POPC   NC355523  21.248   9.106   5.344
 4367POPC   PO455524  21.547   8.389   5.382
 4367POPC   GL155525  21.470   8.747   5.683
 4367POPC   GL255526  21.613   9.094   5.704
 4367POPC   C1A55527  21.451   8.712   6.154
 4367POPC   D2A55528  21.701   8.613   6.553
 4367POPC   C3A55529  21.663   8.847   6.984
 4367POPC   C4A55530  21.510   9.028   7.433
 4367POPC   C1B55531  21.391   9.216   6.088
 4367POPC   C2B55532  21.369   9.047   6.546
 4367POPC   C3B55533  21.360   9.256   6.954
 4367POPC   C4B55534  21.048   9.231   7.267
 4368POPC   NC355535   3.479  10.774   5.550
 4368POPC   PO455536   3.590  11.388   5.303
 4368POPC   GL155537   3.531  11.376   5.777
 4368POPC   GL255538   3.616  11.065   5.943
 4368POPC   C1A55539   3.459  11.436   6.268
 4368POPC   D2A55540   3.192  11.556   6.632
 4368POPC   C3A55541   3.281  11.558   7.092
 4368POPC   C4A55542   3.314  11.153   7.281
 4368POPC   C1B55543   3.935  11.390   6.091
 4368POPC   C2B55544   3.906  11.580   6.495
 4368POPC   C3B55545   3.908  11.483   6.927
 4368POPC   C4B55546   3.825  11.273   7.319
 4369POPC   NC355547  17.078  43.346   5.587
 4369POPC   PO455548  16.533  43.035   5.305
 4369POPC   GL155549  16.424  43.041   5.771
 4369POPC   GL255550  16.643  43.321   5.882
 4369POPC   C1A55551  16.515  43.002   6.253
 4369POPC   D2A55552  16.706  43.146   6.656
 4369POPC   C3A55553  16.945  42.870   6.927
 4369POPC   C4A55554  16.966  42.663   7.327
 4369POPC   C1B55555  16.994  43.192   6.206
 4369POPC   C2B55556  17.145  43.395   6.573
 4369POPC   C3B55557  17.035  43.386   6.999
 4369POPC   C4B55558  16.621  43.245   7.166
 4370POPC   NC355559  41.672   2.988   5.198
 4370POPC   PO455560  41.479   2.437   5.209
 4370POPC   GL155561  41.621   2.627   5.640
 4370POPC   GL255562  41.760   2.956   5.705
 4370POPC   C1A55563  41.458   2.750   6.076
 4370POPC   D2A55564  41.262   2.557   6.440
 4370POPC   C3A55565  41.393   2.708   6.863
 4370POPC   C4A55566  41.411   2.934   7.273
 4370POPC   C1B55567  41.883   3.038   6.130
 4370POPC   C2B55568  41.705   3.019   6.557
 4370POPC   C3B55569  41.838   2.961   6.979
 4370POPC   C4B55570  41.834   3.179   7.387
 4371POPC   NC355571  38.877  12.318   5.559
 4371POPC   PO455572  38.484  11.790   5.297
 4371POPC   GL155573  38.482  11.905   5.725
 4371POPC   GL255574  38.391  12.257   5.785
 4371POPC   C1A55575  38.613  11.937   6.172
 4371POPC   D2A55576  38.686  11.835   6.619
 4371POPC   C3A55577  38.756  12.152   6.972
 4371POPC   C4A55578  38.489  12.331   7.290
 4371POPC   C1B55579  38.314  12.368   6.262
 4371POPC   C2B55580  38.302  12.304   6.746
 4371POPC   C3B55581  38.321  11.890   7.002
 4371POPC   C4B55582  38.085  11.544   7.165
 4372POPC   NC355583  26.445  42.612   5.434
 4372POPC   PO455584  26.744  42.031   5.511
 4372POPC   GL155585  26.813  42.343   5.816
 4372POPC   GL255586  27.098  42.138   5.915
 4372POPC   C1A55587  26.892  42.517   6.249
 4372POPC   D2A55588  27.095  42.422   6.655
 4372POPC   C3A55589  26.978  42.592   7.056
 4372POPC   C4A55590  26.823  42.792   7.433
 4372POPC   C1B55591  26.947  42.031   6.334
 4372POPC   C2B55592  26.625  42.217   6.587
 4372POPC   C3B55593  26.657  42.186   7.018
 4372POPC   C4B55594  26.949  41.894   7.224
 4373POPC   NC355595  37.981   6.001   5.440
 4373POPC   PO455596  37.350   5.748   5.445
 4373POPC   GL155597  37.697   5.711   5.755
 4373POPC   GL255598  37.442   5.843   5.924
 4373POPC   C1A55599  37.892   5.855   6.173
 4373POPC   D2A55600  37.979   6.127   6.523
 4373POPC   C3A55601  37.915   5.931   6.923
 4373POPC   C4A55602  37.784   5.686   7.261
 4373POPC   C1B55603  37.342   5.651   6.263
 4373POPC   C2B55604  37.586   5.674   6.601
 4373POPC   C3B55605  37.408   5.845   6.949
 4373POPC   C4B55606  37.202   5.658   7.275
 4374POPC   NC355607  25.305  36.584   5.706
 4374POPC   PO455608  25.367  36.091   5.286
 4374POPC   GL155609  25.245  36.082   5.752
 4374POPC   GL255610  24.916  36.310   5.848
 4374POPC   C1A55611  25.464  36.111   6.179
 4374POPC   D2A55612  25.689  36.049   6.585
 4374POPC   C3A55613  25.474  36.113   6.967
 4374POPC   C4A55614  25.319  36.279   7.362
 4374POPC   C1B55615  24.960  36.022   6.179
 4374POPC   C2B55616  25.101  36.054   6.586
 4374POPC   C3B55617  24.959  36.159   6.982
 4374POPC   C4B55618  25.021  35.863   7.293
 4375POPC   NC355619  39.075  36.595   5.090
 4375POPC   PO455620  39.500  37.130   5.356
 4375POPC   GL155621  39.463  37.227   5.808
 4375POPC   GL255622  39.130  37.345   5.909
 4375POPC   C1A55623  39.406  37.128   6.283
 4375POPC   D2A55624  39.229  36.726   6.413
 4375POPC   C3A55625  39.290  36.602   6.847
 4375POPC   C4A55626  39.378  36.830   7.191
 4375POPC   C1B55627  38.893  37.129   6.238
 4375POPC   C2B55628  38.936  37.046   6.689
 4375POPC   C3B55629  38.996  37.192   7.103
 4375POPC   C4B55630  39.016  37.089   7.541
 4376POPC   NC355631  42.867  19.145   5.409
 4376POPC   PO455632  43.305  18.650   5.234
 4376POPC   GL155633  43.086  18.716   5.671
 4376POPC   GL255634  42.725  18.791   5.737
 4376POPC   C1A55635  43.179  18.889   6.137
 4376POPC   D2A55636  43.516  18.976   6.509
 4376POPC   C3A55637  43.395  18.916   6.975
 4376POPC   C4A55638  43.330  19.146   7.386
 4376POPC   C1B55639  42.690  19.098   6.130
 4376POPC   C2B55640  42.728  19.281   6.567
 4376POPC   C3B55641  42.916  19.198   6.997
 4376POPC   C4B55642  42.955  18.799   7.272
 4377POPC   NC355643  23.865  37.052   5.310
 4377POPC   PO455644  23.411  36.517   5.435
 4377POPC   GL155645  23.688  36.755   5.713
 4377POPC   GL255646  23.515  37.096   5.730
 4377POPC   C1A55647  23.957  36.624   6.075
 4377POPC   D2A55648  23.811  36.705   6.475
 4377POPC   C3A55649  24.082  36.816   6.810
 4377POPC   C4A55650  23.849  36.776   7.162
 4377POPC   C1B55651  23.750  37.090   6.111
 4377POPC   C2B55652  23.916  37.215   6.509
 4377POPC   C3B55653  23.838  37.326   6.917
 4377POPC   C4B55654  23.642  37.233   7.285
 4378POPC   NC355655  26.796  32.728   5.603
 4378POPC   PO455656  26.858  33.270   5.206
 4378POPC   GL155657  27.019  33.208   5.710
 4378POPC   GL255658  26.797  33.048   6.011
 4378POPC   C1A55659  27.274  33.174   6.093
 4378POPC   D2A55660  27.359  33.174   6.530
 4378POPC   C3A55661  27.047  33.089   6.874
 4378POPC   C4A55662  27.064  33.281   7.292
 4378POPC   C1B55663  26.517  33.286   6.301
 4378POPC   C2B55664  26.480  33.290   6.748
 4378POPC   C3B55665  26.540  32.894   6.924
 4378POPC   C4B55666  26.730  32.902   7.274
 4379POPC   NC355667  25.740  26.640   5.508
 4379POPC   PO455668  26.356  27.007   5.465
 4379POPC   GL155669  26.354  26.804   5.879
 4379POPC   GL255670  26.014  26.650   5.970
 4379POPC   C1A55671  26.278  26.921   6.291
 4379POPC   D2A55672  26.049  26.744   6.590
 4379POPC   C3A55673  26.141  26.917   6.990
 4379POPC   C4A55674  26.278  26.850   7.412
 4379POPC   C1B55675  25.774  27.000   6.151
 4379POPC   C2B55676  25.580  26.910   6.537
 4379POPC   C3B55677  25.663  26.697   6.936
 4379POPC   C4B55678  25.808  26.703   7.345
 4380POPC   NC355679   1.096  21.081   4.897
 4380POPC   PO455680   1.184  21.266   5.502
 4380POPC   GL155681   1.009  21.480   5.856
 4380POPC   GL255682   1.263  21.670   5.928
 4380POPC   C1A55683   1.099  21.349   6.288
 4380POPC   D2A55684   1.366  21.111   6.543
 4380POPC   C3A55685   1.289  21.209   6.953
 4380POPC   C4A55686   1.335  21.422   7.328
 4380POPC   C1B55687   1.079  21.854   6.264
 4380POPC   C2B55688   0.861  21.681   6.613
 4380POPC   C3B55689   1.093  21.695   6.977
 4380POPC   C4B55690   1.021  21.833   7.375
 4381POPC   NC355691   2.164  32.866   5.239
 4381POPC   PO455692   1.537  33.078   5.395
 4381POPC   GL155693   1.729  33.015   5.827
 4381POPC   GL255694   2.100  32.981   5.818
 4381POPC   C1A55695   1.711  33.039   6.296
 4381POPC   D2A55696   1.974  33.197   6.643
 4381POPC   C3A55697   1.989  33.021   7.058
 4381POPC   C4A55698   1.736  33.008   7.416
 4381POPC   C1B55699   2.143  32.768   6.244
 4381POPC   C2B55700   2.074  32.664   6.695
 4381POPC   C3B55701   2.083  32.529   7.139
 4381POPC   C4B55702   2.204  32.818   7.483
 4382POPC   NC355703  19.265  34.671   5.463
 4382POPC   PO455704  18.666  34.221   5.554
 4382POPC   GL155705  18.910  34.526   5.831
 4382POPC   GL255706  18.682  34.784   5.902
 4382POPC   C1A55707  19.089  34.716   6.241
 4382POPC   D2A55708  19.221  34.480   6.648
 4382POPC   C3A55709  19.349  34.558   7.107
 4382POPC   C4A55710  19.093  34.455   7.477
 4382POPC   C1B55711  18.632  34.996   6.253
 4382POPC   C2B55712  18.808  34.882   6.647
 4382POPC   C3B55713  18.861  34.675   7.032
 4382POPC   C4B55714  18.688  34.729   7.429
 4383POPC   NC355715  15.551  42.398   5.546
 4383POPC   PO455716  14.936  42.167   5.366
 4383POPC   GL155717  15.118  42.128   5.800
 4383POPC   GL255718  15.098  42.467   5.842
 4383POPC   C1A55719  15.297  42.251   6.243
 4383POPC   D2A55720  15.405  42.523   6.608
 4383POPC   C3A55721  15.336  42.352   7.040
 4383POPC   C4A55722  15.354  42.086   7.410
 4383POPC   C1B55723  15.034  42.722   6.250
 4383POPC   C2B55724  15.029  42.864   6.704
 4383POPC   C3B55725  14.971  42.689   7.130
 4383POPC   C4B55726  14.798  42.761   7.547
 4384POPC   NC355727  35.052  22.125   5.314
 4384POPC   PO455728  35.557  22.597   5.338
 4384POPC   GL155729  35.513  22.275   5.657
 4384POPC   GL255730  35.181  22.166   5.800
 4384POPC   C1A55731  35.608  22.140   6.077
 4384POPC   D2A55732  35.361  22.153   6.449
 4384POPC   C3A55733  35.462  22.369   6.807
 4384POPC   C4A55734  35.562  22.116   7.159
 4384POPC   C1B55735  34.961  22.045   6.157
 4384POPC   C2B55736  34.894  21.863   6.544
 4384POPC   C3B55737  35.149  21.900   6.902
 4384POPC   C4B55738  35.054  22.248   7.162
 4385POPC   NC355739  26.389  23.005   5.397
 4385POPC   PO455740  25.710  23.038   5.331
 4385POPC   GL155741  25.968  23.060   5.702
 4385POPC   GL255742  25.940  22.711   5.688
 4385POPC   C1A55743  26.223  22.993   6.071
 4385POPC   D2A55744  26.156  22.949   6.503
 4385POPC   C3A55745  26.248  23.191   6.854
 4385POPC   C4A55746  26.071  23.058   7.247
 4385POPC   C1B55747  25.791  22.636   6.097
 4385POPC   C2B55748  25.842  22.536   6.511
 4385POPC   C3B55749  25.908  22.699   6.918
 4385POPC   C4B55750  25.607  22.686   7.261
 4386POPC   NC355751  11.665  18.722   5.362
 4386POPC   PO455752  11.140  19.251   5.339
 4386POPC   GL155753  11.264  19.230   5.774
 4386POPC   GL255754  10.957  19.384   5.880
 4386POPC   C1A55755  11.560  19.018   6.110
 4386POPC   D2A55756  11.828  18.862   6.488
 4386POPC   C3A55757  11.628  18.704   6.879
 4386POPC   C4A55758  11.362  18.941   7.198
 4386POPC   C1B55759  11.137  19.253   6.284
 4386POPC   C2B55760  11.198  19.113   6.727
 4386POPC   C3B55761  11.007  19.334   7.084
 4386POPC   C4B55762  11.085  19.277   7.513
 4387POPC   NC355763  20.802  21.423   5.312
 4387POPC   PO455764  20.277  21.027   5.443
 4387POPC   GL155765  20.461  21.396   5.730
 4387POPC   GL255766  20.818  21.387   5.852
 4387POPC   C1A55767  20.466  21.536   6.176
 4387POPC   D2A55768  20.714  21.383   6.543
 4387POPC   C3A55769  20.588  21.499   6.961
 4387POPC   C4A55770  20.293  21.730   7.200
 4387POPC   C1B55771  20.963  21.699   6.219
 4387POPC   C2B55772  21.174  21.594   6.621
 4387POPC   C3B55773  21.075  21.534   7.058
 4387POPC   C4B55774  20.877  21.125   7.241
 4388POPC   NC355775  13.836  11.829   5.518
 4388POPC   PO455776  13.409  12.355   5.493
 4388POPC   GL155777  13.595  12.202   5.836
 4388POPC   GL255778  13.901  12.354   5.868
 4388POPC   C1A55779  13.563  11.899   6.177
 4388POPC   D2A55780  13.444  11.663   6.563
 4388POPC   C3A55781  13.453  11.851   6.987
 4388POPC   C4A55782  13.436  12.279   7.120
 4388POPC   C1B55783  13.862  12.347   6.299
 4388POPC   C2B55784  13.705  12.318   6.693
 4388POPC   C3B55785  13.900  12.515   7.050
 4388POPC   C4B55786  13.727  12.691   7.386
 4389POPC   NC355787  36.652  15.838   5.527
 4389POPC   PO455788  36.047  15.690   5.201
 4389POPC   GL155789  36.020  15.805   5.734
 4389POPC   GL255790  36.302  15.627   5.830
 4389POPC   C1A55791  36.066  16.084   6.140
 4389POPC   D2A55792  35.831  16.227   6.529
 4389POPC   C3A55793  36.024  16.144   6.947
 4389POPC   C4A55794  35.867  15.996   7.306
 4389POPC   C1B55795  36.090  15.569   6.211
 4389POPC   C2B55796  36.103  15.766   6.604
 4389POPC   C3B55797  36.057  15.630   7.024
 4389POPC   C4B55798  36.337  15.817   7.325
 4390POPC   NC355799  34.131   6.797   5.427
 4390POPC   PO455800  34.833   6.634   5.344
 4390POPC   GL155801  34.852   6.566   5.816
 4390POPC   GL255802  34.518   6.511   5.876
 4390POPC   C1A55803  34.840   6.758   6.260
 4390POPC   D2A55804  34.777   6.607   6.693
 4390POPC   C3A55805  34.840   6.850   7.090
 4390POPC   C4A55806  34.902   6.613   7.535
 4390POPC   C1B55807  34.373   6.897   6.073
 4390POPC   C2B55808  34.321   6.919   6.511
 4390POPC   C3B55809  34.329   6.699   6.903
 4390POPC   C4B55810  34.590   6.426   7.181
 4391POPC   NC355811   1.990  19.524   5.403
 4391POPC   PO455812   1.779  20.172   5.233
 4391POPC   GL155813   1.871  19.950   5.698
 4391POPC   GL255814   2.143  19.717   5.840
 4391POPC   C1A55815   1.818  19.893   6.198
 4391POPC   D2A55816   1.826  20.152   6.617
 4391POPC   C3A55817   2.199  20.301   6.814
 4391POPC   C4A55818   2.212  20.168   7.251
 4391POPC   C1B55819   2.482  19.719   6.138
 4391POPC   C2B55820   2.464  19.847   6.556
 4391POPC   C3B55821   2.145  19.782   6.828
 4391POPC   C4B55822   2.095  19.654   7.211
 4392POPC   NC355823  26.424  28.421   5.435
 4392POPC   PO455824  25.734  28.441   5.339
 4392POPC   GL155825  25.999  28.476   5.724
 4392POPC   GL255826  26.273  28.239   5.894
 4392POPC   C1A55827  25.850  28.488   6.144
 4392POPC   D2A55828  25.965  28.299   6.523
 4392POPC   C3A55829  25.804  28.563   6.830
 4392POPC   C4A55830  25.830  28.519   7.246
 4392POPC   C1B55831  26.388  27.921   6.233
 4392POPC   C2B55832  26.300  27.884   6.685
 4392POPC   C3B55833  26.224  28.221   6.965
 4392POPC   C4B55834  26.320  28.329   7.380
 4393POPC   NC355835  37.360  31.224   5.403
 4393POPC   PO455836  37.878  31.660   5.594
 4393POPC   GL155837  37.936  31.289   5.831
 4393POPC   GL255838  37.583  31.211   5.843
 4393POPC   C1A55839  37.924  31.339   6.282
 4393POPC   D2A55840  37.672  31.603   6.555
 4393POPC   C3A55841  37.863  31.540   6.910
 4393POPC   C4A55842  37.933  31.480   7.337
 4393POPC   C1B55843  37.433  31.244   6.246
 4393POPC   C2B55844  37.548  31.108   6.627
 4393POPC   C3B55845  37.454  31.293   7.028
 4393POPC   C4B55846  37.264  31.666   7.200
 4394POPC   NC355847  23.603  38.871   5.362
 4394POPC   PO455848  24.071  39.331   5.207
 4394POPC   GL155849  23.896  39.152   5.662
 4394POPC   GL255850  24.023  38.799   5.753
 4394POPC   C1A55851  23.585  39.275   6.059
 4394POPC   D2A55852  23.527  39.498   6.511
 4394POPC   C3A55853  23.594  39.325   6.970
 4394POPC   C4A55854  23.507  39.285   7.456
 4394POPC   C1B55855  24.020  39.039   6.149
 4394POPC   C2B55856  23.825  39.016   6.537
 4394POPC   C3B55857  23.985  38.990   6.951
 4394POPC   C4B55858  23.998  39.189   7.333
 4395POPC   NC355859  12.178  19.594   5.398
 4395POPC   PO455860  12.085  18.954   5.391
 4395POPC   GL155861  12.036  19.222   5.771
 4395POPC   GL255862  12.362  19.403   5.837
 4395POPC   C1A55863  11.963  19.311   6.225
 4395POPC   D2A55864  12.115  19.279   6.643
 4395POPC   C3A55865  11.842  19.144   6.996
 4395POPC   C4A55866  11.846  18.819   7.334
 4395POPC   C1B55867  12.462  19.163   6.229
 4395POPC   C2B55868  12.369  18.793   6.486
 4395POPC   C3B55869  12.186  18.807   6.884
 4395POPC   C4B55870  12.276  19.101   7.262
 4396POPC   NC355871   2.747  17.372   5.425
 4396POPC   PO455872   2.519  17.945   5.170
 4396POPC   GL155873   2.570  17.880   5.671
 4396POPC   GL255874   2.918  17.751   5.787
 4396POPC   C1A55875   2.527  17.641   6.104
 4396POPC   D2A55876   2.589  17.339   6.451
 4396POPC   C3A55877   2.642  17.482   6.875
 4396POPC   C4A55878   2.625  17.288   7.266
 4396POPC   C1B55879   3.021  17.427   6.134
 4396POPC   C2B55880   3.152  17.394   6.576
 4396POPC   C3B55881   3.021  17.132   6.914
 4396POPC   C4B55882   3.099  17.069   7.352
 4397POPC   NC355883  21.936   1.522   5.492
 4397POPC   PO455884  22.295   2.183   5.367
 4397POPC   GL155885  22.283   2.022   5.791
 4397POPC   GL255886  21.985   1.833   5.935
 4397POPC   C1A55887  22.199   2.244   6.186
 4397POPC   D2A55888  21.903   2.074   6.483
 4397POPC   C3A55889  22.072   1.922   6.888
 4397POPC   C4A55890  21.933   2.121   7.282
 4397POPC   C1B55891  22.244   1.729   6.262
 4397POPC   C2B55892  22.408   1.576   6.637
 4397POPC   C3B55893  22.485   1.613   7.086
 4397POPC   C4B55894  22.460   1.605   7.532
 4398POPC   NC355895  33.505  40.279   5.510
 4398POPC   PO455896  34.087  40.060   5.372
 4398POPC   GL155897  33.900  40.006   5.802
 4398POPC   GL255898  33.561  39.865   5.842
 4398POPC   C1A55899  33.921  39.871   6.261
 4398POPC   D2A55900  33.698  39.809   6.676
 4398POPC   C3A55901  33.862  40.091   7.001
 4398POPC   C4A55902  34.026  39.968   7.387
 4398POPC   C1B55903  33.459  40.080   6.264
 4398POPC   C2B55904  33.547  40.297   6.647
 4398POPC   C3B55905  33.445  40.407   7.077
 4398POPC   C4B55906  33.544  40.196   7.468
 4399POPC   NC355907  32.066   6.140   5.519
 4399POPC   PO455908  32.363   6.584   5.058
 4399POPC   GL155909  32.391   6.520   5.618
 4399POPC   GL255910  32.534   6.767   5.920
 4399POPC   C1A55911  32.215   6.431   6.081
 4399POPC   D2A55912  32.334   6.688   6.453
 4399POPC   C3A55913  32.128   6.553   6.840
 4399POPC   C4A55914  32.249   6.447   7.249
 4399POPC   C1B55915  32.784   7.030   6.206
 4399POPC   C2B55916  32.719   7.096   6.635
 4399POPC   C3B55917  32.521   6.837   6.917
 4399POPC   C4B55918  32.329   6.969   7.260
 4400POPC   NC355919  38.017  19.320   5.108
 4400POPC   PO455920  37.413  19.162   5.349
 4400POPC   GL155921  37.616  19.123   5.784
 4400POPC   GL255922  37.930  18.981   5.778
 4400POPC   C1A55923  37.783  19.206   6.219
 4400POPC   D2A55924  37.495  19.214   6.549
 4400POPC   C3A55925  37.638  19.217   6.965
 4400POPC   C4A55926  38.004  19.219   7.227
 4400POPC   C1B55927  37.692  18.731   6.105
 4400POPC   C2B55928  37.695  18.697   6.565
 4400POPC   C3B55929  37.840  18.732   7.001
 4400POPC   C4B55930  37.634  18.809   7.375
 4401POPC   NC355931   0.338  14.046   5.561
 4401POPC   PO455932  44.927  14.544   5.535
 4401POPC   GL155933   0.199  14.509   5.885
 4401POPC   GL255934   0.395  14.812   5.922
 4401POPC   C1A55935   0.529  14.377   6.203
 4401POPC   D2A55936   0.652  14.066   6.503
 4401POPC   C3A55937   0.685  14.172   6.945
 4401POPC   C4A55938   0.641  14.586   7.117
 4401POPC   C1B55939   0.218  14.758   6.327
 4401POPC   C2B55940   0.327  14.591   6.707
 4401POPC   C3B55941   0.196  14.798   7.055
 4401POPC   C4B55942   0.273  14.732   7.510
 4402POPC   NC355943  13.392  43.228   5.403
 4402POPC   PO455944  13.949  43.597   5.648
 4402POPC   GL155945  13.895  43.137   5.798
 4402POPC   GL255946  13.753  42.780   5.786
 4402POPC   C1A55947  13.636  43.072   6.206
 4402POPC   D2A55948  13.430  43.393   6.495
 4402POPC   C3A55949  13.267  43.305   6.887
 4402POPC   C4A55950  13.470  43.202   7.262
 4402POPC   C1B55951  14.083  42.807   6.150
 4402POPC   C2B55952  14.081  42.701   6.608
 4402POPC   C3B55953  13.867  42.868   7.007
 4402POPC   C4B55954  13.970  43.204   7.317
 4403POPC   NC355955  11.522   3.910   5.371
 4403POPC   PO455956  11.454   3.272   5.300
 4403POPC   GL155957  11.228   3.363   5.697
 4403POPC   GL255958  11.511   3.573   5.819
 4403POPC   C1A55959  11.186   3.436   6.176
 4403POPC   D2A55960  11.462   3.440   6.541
 4403POPC   C3A55961  11.282   3.343   6.931
 4403POPC   C4A55962  10.996   3.572   7.195
 4403POPC   C1B55963  11.624   3.838   6.199
 4403POPC   C2B55964  11.762   4.079   6.586
 4403POPC   C3B55965  11.705   4.066   7.032
 4403POPC   C4B55966  11.511   3.688   7.219
 4404POPC   NC355967  29.995  30.169   5.445
 4404POPC   PO455968  30.137  29.465   5.242
 4404POPC   GL155969  29.958  29.680   5.633
 4404POPC   GL255970  30.255  29.858   5.775
 4404POPC   C1A55971  29.802  29.632   6.095
 4404POPC   D2A55972  29.529  29.701   6.467
 4404POPC   C3A55973  29.616  30.028   6.775
 4404POPC   C4A55974  29.830  30.033   7.190
 4404POPC   C1B55975  30.151  30.013   6.191
 4404POPC   C2B55976  30.023  29.787   6.566
 4404POPC   C3B55977  30.167  29.688   6.971
 4404POPC   C4B55978  30.289  29.886   7.368
 4405POPC   NC355979  39.835  29.922   5.299
 4405POPC   PO455980  40.402  29.974   5.195
 4405POPC   GL155981  40.200  29.912   5.665
 4405POPC   GL255982  39.850  29.743   5.771
 4405POPC   C1A55983  40.114  29.949   6.141
 4405POPC   D2A55984  40.241  29.897   6.589
 4405POPC   C3A55985  40.058  30.172   6.911
 4405POPC   C4A55986  40.101  30.004   7.315
 4405POPC   C1B55987  39.647  29.751   6.197
 4405POPC   C2B55988  39.716  29.914   6.634
 4405POPC   C3B55989  39.631  29.900   7.091
 4405POPC   C4B55990  39.423  29.608   7.363
 4406POPC   NC355991  18.942  18.184   5.465
 4406POPC   PO455992  19.183  18.806   5.433
 4406POPC   GL155993  19.177  18.518   5.786
 4406POPC   GL255994  19.403  18.204   5.732
 4406POPC   C1A55995  19.099  18.355   6.201
 4406POPC   D2A55996  19.198  18.407   6.628
 4406POPC   C3A55997  19.034  18.104   6.860
 4406POPC   C4A55998  18.918  18.241   7.275
 4406POPC   C1B55999  19.509  17.873   6.040
 4406POPC   C2B56000  19.462  17.788   6.463
 4406POPC   C3B56001  19.501  17.861   6.888
 4406POPC   C4B56002  19.412  18.159   7.191
 4407POPC   NC356003  13.266  40.586   5.634
 4407POPC   PO456004  13.717  41.051   5.339
 4407POPC   GL156005  13.911  40.953   5.744
 4407POPC   GL256006  13.810  40.614   5.849
 4407POPC   C1A56007  13.829  41.028   6.162
 4407POPC   D2A56008  13.636  41.013   6.564
 4407POPC   C3A56009  13.816  40.709   6.834
 4407POPC   C4A56010  13.952  40.867   7.192
 4407POPC   C1B56011  13.674  40.551   6.313
 4407POPC   C2B56012  13.349  40.592   6.677
 4407POPC   C3B56013  13.375  40.724   7.142
 4407POPC   C4B56014  13.324  40.496   7.543
 4408POPC   NC356015  43.178   9.167   5.368
 4408POPC   PO456016  42.773   8.591   5.286
 4408POPC   GL156017  42.871   8.843   5.669
 4408POPC   GL256018  43.049   9.138   5.840
 4408POPC   C1A56019  42.819   8.796   6.132
 4408POPC   D2A56020  43.084   8.750   6.494
 4408POPC   C3A56021  42.839   8.662   6.873
 4408POPC   C4A56022  42.967   8.725   7.282
 4408POPC   C1B56023  43.284   9.269   6.194
 4408POPC   C2B56024  43.150   9.429   6.603
 4408POPC   C3B56025  43.125   9.129   6.961
 4408POPC   C4B56026  43.378   9.040   7.330
 4409POPC   NC356027  17.749  12.690   5.328
 4409POPC   PO456028  17.271  13.080   5.387
 4409POPC   GL156029  17.209  12.901   5.790
 4409POPC   GL256030  17.495  12.702   5.794
 4409POPC   C1A56031  17.140  12.744   6.175
 4409POPC   D2A56032  17.411  12.720   6.503
 4409POPC   C3A56033  17.235  12.787   6.892
 4409POPC   C4A56034  17.397  12.831   7.276
 4409POPC   C1B56035  17.717  12.455   6.091
 4409POPC   C2B56036  17.775  12.348   6.528
 4409POPC   C3B56037  17.671  12.542   6.909
 4409POPC   C4B56038  17.766  12.411   7.284
 4410POPC   NC356039  16.126  34.223   5.571
 4410POPC   PO456040  15.621  33.959   5.358
 4410POPC   GL156041  15.753  33.684   5.703
 4410POPC   GL256042  15.483  33.679   5.933
 4410POPC   C1A56043  16.007  33.675   6.105
 4410POPC   D2A56044  16.180  33.837   6.512
 4410POPC   C3A56045  16.090  33.623   6.874
 4410POPC   C4A56046  16.095  33.414   7.244
 4410POPC   C1B56047  15.581  33.415   6.302
 4410POPC   C2B56048  15.605  33.429   6.766
 4410POPC   C3B56049  15.644  33.663   7.145
 4410POPC   C4B56050  15.421  33.960   7.361
 4411POPC   NC356051  30.174  32.663   5.471
 4411POPC   PO456052  29.913  32.105   5.305
 4411POPC   GL156053  29.885  32.153   5.775
 4411POPC   GL256054  29.682  31.878   5.928
 4411POPC   C1A56055  30.177  32.360   6.114
 4411POPC   D2A56056  30.219  32.546   6.546
 4411POPC   C3A56057  29.867  32.452   6.804
 4411POPC   C4A56058  29.759  32.586   7.206
 4411POPC   C1B56059  30.060  31.853   6.214
 4411POPC   C2B56060  30.294  32.031   6.576
 4411POPC   C3B56061  30.138  32.008   6.999
 4411POPC   C4B56062  29.701  32.069   7.134
 4412POPC   NC356063   5.813  30.395   5.342
 4412POPC   PO456064   5.980  31.116   5.325
 4412POPC   GL156065   5.790  30.827   5.630
 4412POPC   GL256066   6.045  30.836   5.855
 4412POPC   C1A56067   5.571  30.775   6.036
 4412POPC   D2A56068   5.784  30.806   6.440
 4412POPC   C3A56069   5.622  30.601   6.812
 4412POPC   C4A56070   5.696  30.559   7.244
 4412POPC   C1B56071   6.315  31.036   6.142
 4412POPC   C2B56072   6.239  31.041   6.578
 4412POPC   C3B56073   6.022  30.909   6.951
 4412POPC   C4B56074   6.073  31.095   7.346
 4413POPC   NC356075  12.977  43.873   5.376
 4413POPC   PO456076  12.412  44.127   5.167
 4413POPC   GL156077  12.563  43.964   5.686
 4413POPC   GL256078  12.915  44.045   5.878
 4413POPC   C1A56079  12.760  43.645   6.072
 4413POPC   D2A56080  13.049  43.737   6.401
 4413POPC   C3A56081  12.908  43.686   6.802
 4413POPC   C4A56082  13.013  43.659   7.210
 4413POPC   C1B56083  12.680  44.121   6.290
 4413POPC   C2B56084  12.568  44.065   6.743
 4413POPC   C3B56085  12.763  44.134   7.119
 4413POPC   C4B56086  12.890  44.063   7.528
 4414POPC   NC356087   8.987  39.645   5.121
 4414POPC   PO456088   8.619  39.086   5.260
 4414POPC   GL156089   8.890  39.291   5.634
 4414POPC   GL256090   9.098  39.618   5.711
 4414POPC   C1A56091   8.882  39.220   6.102
 4414POPC   D2A56092   8.876  38.942   6.476
 4414POPC   C3A56093   8.913  39.221   6.821
 4414POPC   C4A56094   8.762  39.194   7.212
 4414POPC   C1B56095   9.319  39.554   6.135
 4414POPC   C2B56096   9.268  39.633   6.583
 4414POPC   C3B56097   9.347  39.474   6.984
 4414POPC   C4B56098   9.188  39.563   7.382
 4415POPC   NC356099  17.156  35.622   5.531
 4415POPC   PO456100  17.738  35.344   5.358
 4415POPC   GL156101  17.608  35.397   5.780
 4415POPC   GL256102  17.653  35.074   5.903
 4415POPC   C1A56103  17.692  35.444   6.254
 4415POPC   D2A56104  17.907  35.530   6.664
 4415POPC   C3A56105  17.615  35.359   6.979
 4415POPC   C4A56106  17.446  35.250   7.410
 4415POPC   C1B56107  17.776  34.928   6.306
 4415POPC   C2B56108  17.922  35.034   6.706
 4415POPC   C3B56109  17.852  34.927   7.086
 4415POPC   C4B56110  17.898  35.097   7.482
 4416POPC   NC356111  41.132  17.278   5.414
 4416POPC   PO456112  40.538  17.617   5.098
 4416POPC   GL156113  40.619  17.534   5.573
 4416POPC   GL256114  40.638  17.834   5.788
 4416POPC   C1A56115  40.723  17.403   6.059
 4416POPC   D2A56116  40.540  17.292   6.491
 4416POPC   C3A56117  40.571  17.483   6.893
 4416POPC   C4A56118  40.953  17.404   7.117
 4416POPC   C1B56119  40.925  17.881   6.186
 4416POPC   C2B56120  40.866  17.832   6.633
 4416POPC   C3B56121  40.906  17.929   7.070
 4416POPC   C4B56122  40.611  17.722   7.345
 4417POPC   NC356123  30.915  33.456   5.393
 4417POPC   PO456124  30.550  34.053   5.432
 4417POPC   GL156125  30.754  33.837   5.734
 4417POPC   GL256126  30.977  34.058   5.836
 4417POPC   C1A56127  30.649  33.676   6.130
 4417POPC   D2A56128  30.317  33.683   6.443
 4417POPC   C3A56129  30.403  33.757   6.895
 4417POPC   C4A56130  30.659  33.710   7.239
 4417POPC   C1B56131  31.070  33.953   6.217
 4417POPC   C2B56132  30.948  34.161   6.554
 4417POPC   C3B56133  30.969  33.921   6.883
 4417POPC   C4B56134  31.059  33.999   7.315
 4418POPC   NC356135  16.976   5.525   5.589
 4418POPC   PO456136  16.567   6.001   5.346
 4418POPC   GL156137  16.566   5.863   5.772
 4418POPC   GL256138  16.915   5.953   5.838
 4418POPC   C1A56139  16.592   5.568   6.143
 4418POPC   D2A56140  16.797   5.478   6.572
 4418POPC   C3A56141  16.541   5.572   6.955
 4418POPC   C4A56142  16.560   5.862   7.308
 4418POPC   C1B56143  17.008   5.837   6.235
 4418POPC   C2B56144  16.976   6.060   6.602
 4418POPC   C3B56145  16.995   5.920   7.026
 4418POPC   C4B56146  17.080   5.927   7.490
 4419POPC   NC356147  11.689  27.429   5.535
 4419POPC   PO456148  11.163  27.796   5.123
 4419POPC   GL156149  11.187  27.787   5.654
 4419POPC   GL256150  11.156  27.458   5.796
 4419POPC   C1A56151  11.301  27.864   6.144
 4419POPC   D2A56152  11.526  27.605   6.491
 4419POPC   C3A56153  11.415  27.572   6.916
 4419POPC   C4A56154  11.129  27.692   7.223
 4419POPC   C1B56155  10.947  27.213   6.133
 4419POPC   C2B56156  11.088  27.252   6.542
 4419POPC   C3B56157  10.956  27.330   6.917
 4419POPC   C4B56158  11.135  27.148   7.238
 4420POPC   NC356159  21.854  37.152   5.557
 4420POPC   PO456160  22.429  36.920   5.406
 4420POPC   GL156161  22.193  36.872   5.823
 4420POPC   GL256162  22.264  37.212   5.866
 4420POPC   C1A56163  22.066  36.678   6.262
 4420POPC   D2A56164  22.221  36.501   6.677
 4420POPC   C3A56165  22.186  36.760   7.071
 4420POPC   C4A56166  22.305  37.235   7.087
 4420POPC   C1B56167  22.047  37.187   6.234
 4420POPC   C2B56168  22.002  37.023   6.656
 4420POPC   C3B56169  21.809  37.106   7.043
 4420POPC   C4B56170  21.735  36.849   7.394
 4421POPC   NC356171  19.175  21.895   5.614
 4421POPC   PO456172  18.995  22.524   5.444
 4421POPC   GL156173  19.021  22.361   5.860
 4421POPC   GL256174  18.654  22.437   5.944
 4421POPC   C1A56175  19.303  22.140   6.190
 4421POPC   D2A56176  19.191  21.928   6.562
 4421POPC   C3A56177  19.394  22.118   6.916
 4421POPC   C4A56178  19.114  21.949   7.212
 4421POPC   C1B56179  18.833  22.256   6.338
 4421POPC   C2B56180  18.995  22.387   6.780
 4421POPC   C3B56181  18.927  22.459   7.244
 4421POPC   C4B56182  18.787  22.626   7.683
 4422POPC   NC356183  23.030  40.897   5.448
 4422POPC   PO456184  22.627  40.375   5.654
 4422POPC   GL156185  22.824  40.675   5.848
 4422POPC   GL256186  22.600  40.928   5.741
 4422POPC   C1A56187  22.979  40.871   6.199
 4422POPC   D2A56188  23.063  40.715   6.592
 4422POPC   C3A56189  23.017  41.011   6.896
 4422POPC   C4A56190  23.145  40.960   7.300
 4422POPC   C1B56191  22.454  40.843   6.145
 4422POPC   C2B56192  22.547  40.573   6.450
 4422POPC   C3B56193  22.530  40.671   6.871
 4422POPC   C4B56194  22.678  40.785   7.253
 4423POPC   NC356195   5.589  39.553   5.539
 4423POPC   PO456196   6.042  40.082   5.384
 4423POPC   GL156197   5.866  40.000   5.784
 4423POPC   GL256198   6.135  40.177   5.895
 4423POPC   C1A56199   5.691  39.751   6.141
 4423POPC   D2A56200   5.869  39.596   6.507
 4423POPC   C3A56201   5.644  39.679   6.894
 4423POPC   C4A56202   5.697  39.867   7.289
 4423POPC   C1B56203   6.047  40.060   6.325
 4423POPC   C2B56204   6.090  39.969   6.779
 4423POPC   C3B56205   6.186  39.974   7.215
 4423POPC   C4B56206   6.029  40.255   7.548
 4424POPC   NC356207  10.710  42.958   5.435
 4424POPC   PO456208  10.090  42.665   5.518
 4424POPC   GL156209  10.377  42.959   5.856
 4424POPC   GL256210  10.702  43.185   5.875
 4424POPC   C1A56211  10.479  43.082   6.316
 4424POPC   D2A56212  10.516  42.836   6.694
 4424POPC   C3A56213  10.591  42.980   7.080
 4424POPC   C4A56214  10.358  43.314   7.215
 4424POPC   C1B56215  11.015  43.096   6.200
 4424POPC   C2B56216  10.951  43.118   6.632
 4424POPC   C3B56217  10.741  43.408   6.860
 4424POPC   C4B56218  10.838  43.387   7.298
 4425POPC   NC356219  28.324   4.633   5.109
 4425POPC   PO456220  28.195   4.004   5.275
 4425POPC   GL156221  28.285   4.196   5.682
 4425POPC   GL256222  28.525   3.955   5.767
 4425POPC   C1A56223  28.209   4.447   6.096
 4425POPC   D2A56224  28.006   4.413   6.511
 4425POPC   C3A56225  28.209   4.345   6.896
 4425POPC   C4A56226  28.399   4.570   7.261
 4425POPC   C1B56227  28.250   3.943   6.126
 4425POPC   C2B56228  28.291   3.952   6.540
 4425POPC   C3B56229  28.130   3.786   6.901
 4425POPC   C4B56230  28.321   4.000   7.234
 4426POPC   NC356231  12.406  12.888   5.385
 4426POPC   PO456232  11.844  12.668   5.497
 4426POPC   GL156233  11.795  12.726   5.910
 4426POPC   GL256234  11.822  13.092   6.010
 4426POPC   C1A56235  12.005  12.676   6.302
 4426POPC   D2A56236  12.036  12.869   6.710
 4426POPC   C3A56237  11.999  12.606   7.077
 4426POPC   C4A56238  12.177  12.651   7.476
 4426POPC   C1B56239  12.216  13.196   6.301
 4426POPC   C2B56240  12.473  13.221   6.715
 4426POPC   C3B56241  12.331  13.019   7.102
 4426POPC   C4B56242  11.958  13.083   7.285
 4427POPC   NC356243   2.233  24.266   5.560
 4427POPC   PO456244   1.954  23.734   5.170
 4427POPC   GL156245   1.966  23.772   5.651
 4427POPC   GL256246   2.222  23.909   5.893
 4427POPC   C1A56247   1.923  23.576   6.091
 4427POPC   D2A56248   2.092  23.774   6.498
 4427POPC   C3A56249   2.115  23.550   6.909
 4427POPC   C4A56250   1.863  23.666   7.278
 4427POPC   C1B56251   2.305  24.214   6.223
 4427POPC   C2B56252   2.420  24.136   6.647
 4427POPC   C3B56253   2.141  24.050   7.019
 4427POPC   C4B56254   2.316  23.863   7.397
 4428POPC   NC356255   2.560  18.354   5.391
 4428POPC   PO456256   1.900  18.151   5.473
 4428POPC   GL156257   2.152  18.224   5.783
 4428POPC   GL256258   2.166  18.596   5.734
 4428POPC   C1A56259   2.219  18.078   6.230
 4428POPC   D2A56260   2.019  17.903   6.653
 4428POPC   C3A56261   2.014  18.122   7.024
 4428POPC   C4A56262   2.279  18.442   7.113
 4428POPC   C1B56263   1.946  18.510   6.144
 4428POPC   C2B56264   2.030  18.434   6.585
 4428POPC   C3B56265   1.880  18.710   6.890
 4428POPC   C4B56266   1.820  18.650   7.289
 4429POPC   NC356267  25.524  34.157   5.280
 4429POPC   PO456268  25.028  33.577   5.435
 4429POPC   GL156269  25.102  33.647   5.884
 4429POPC   GL256270  25.433  33.782   6.030
 4429POPC   C1A56271  24.890  33.828   6.262
 4429POPC   D2A56272  24.813  34.217   6.526
 4429POPC   C3A56273  25.151  34.257   6.827
 4429POPC   C4A56274  25.174  34.039   7.237
 4429POPC   C1B56275  25.345  33.420   6.278
 4429POPC   C2B56276  25.224  33.417   6.697
 4429POPC   C3B56277  25.264  33.532   7.127
 4429POPC   C4B56278  25.564  33.744   7.377
 4430POPC   NC356279   4.609  23.380   5.423
 4430POPC   PO456280   4.329  23.964   5.146
 4430POPC   GL156281   4.431  23.939   5.705
 4430POPC   GL256282   4.465  23.588   5.847
 4430POPC   C1A56283   4.386  23.917   6.201
 4430POPC   D2A56284   4.476  23.608   6.526
 4430POPC   C3A56285   4.528  23.811   6.871
 4430POPC   C4A56286   4.324  23.929   7.240
 4430POPC   C1B56287   4.174  23.419   6.157
 4430POPC   C2B56288   4.086  23.282   6.577
 4430POPC   C3B56289   4.129  23.505   6.971
 4430POPC   C4B56290   4.193  23.382   7.361
 4431POPC   NC356291  44.691  24.202   5.314
 4431POPC   PO456292  44.427  24.642   5.732
 4431POPC   GL156293  44.825  24.606   5.894
 4431POPC   GL256294  44.893  24.282   5.773
 4431POPC   C1A56295  44.825  24.599   6.347
 4431POPC   D2A56296  44.439  24.423   6.532
 4431POPC   C3A56297  44.413  24.421   6.966
 4431POPC   C4A56298  44.718  24.711   7.127
 4431POPC   C1B56299  44.640  24.141   6.120
 4431POPC   C2B56300  44.851  24.108   6.477
 4431POPC   C3B56301  44.907  24.333   6.833
 4431POPC   C4B56302  44.779  24.208   7.251
 4432POPC   NC356303  37.257  33.568   5.372
 4432POPC   PO456304  37.885  33.301   5.340
 4432POPC   GL156305  37.957  33.592   5.763
 4432POPC   GL256306  37.781  33.954   5.803
 4432POPC   C1A56307  37.920  33.738   6.237
 4432POPC   D2A56308  37.750  33.567   6.652
 4432POPC   C3A56309  37.936  33.511   7.068
 4432POPC   C4A56310  37.871  33.705   7.497
 4432POPC   C1B56311  37.548  34.114   6.196
 4432POPC   C2B56312  37.483  34.023   6.694
 4432POPC   C3B56313  37.502  33.824   7.140
 4432POPC   C4B56314  37.455  34.002   7.610
 4433POPC   NC356315  41.038  11.638   5.540
 4433POPC   PO456316  40.621  11.085   5.404
 4433POPC   GL156317  40.602  11.391   5.771
 4433POPC   GL256318  40.327  11.626   5.833
 4433POPC   C1A56319  40.726  11.289   6.207
 4433POPC   D2A56320  40.628  10.985   6.551
 4433POPC   C3A56321  40.814  11.055   6.973
 4433POPC   C4A56322  40.578  11.079   7.355
 4433POPC   C1B56323  40.306  11.554   6.320
 4433POPC   C2B56324  40.564  11.480   6.684
 4433POPC   C3B56325  40.595  11.572   7.107
 4433POPC   C4B56326  40.762  11.593   7.518
 4434POPC   NC356327  10.040  43.533   5.250
 4434POPC   PO456328   9.568  44.026   5.234
 4434POPC   GL156329   9.618  44.025   5.673
 4434POPC   GL256330  10.007  44.007   5.713
 4434POPC   C1A56331   9.351  43.960   6.080
 4434POPC   D2A56332   9.185  43.955   6.536
 4434POPC   C3A56333   9.437  44.080   6.930
 4434POPC   C4A56334   9.600  43.931   7.360
 4434POPC   C1B56335   9.815  43.699   6.009
 4434POPC   C2B56336   9.679  43.752   6.448
 4434POPC   C3B56337   9.859  43.806   6.864
 4434POPC   C4B56338   9.945  43.585   7.243
 4435POPC   NC356339  40.505  28.898   5.282
 4435POPC   PO456340  41.082  29.254   5.339
 4435POPC   GL156341  40.924  29.226   5.735
 4435POPC   GL256342  40.769  28.914   5.720
 4435POPC   C1A56343  41.121  29.089   6.101
 4435POPC   D2A56344  41.002  28.979   6.529
 4435POPC   C3A56345  41.098  29.242   6.883
 4435POPC   C4A56346  40.807  29.392   7.188
 4435POPC   C1B56347  40.614  28.954   6.139
 4435POPC   C2B56348  40.467  29.053   6.543
 4435POPC   C3B56349  40.607  28.973   6.969
 4435POPC   C4B56350  40.487  29.057   7.423
 4436POPC   NC356351   4.927   2.207   5.390
 4436POPC   PO456352   5.374   2.246   5.766
 4436POPC   GL156353   4.960   2.152   5.918
 4436POPC   GL256354   4.864   1.834   5.751
 4436POPC   C1A56355   4.976   2.179   6.348
 4436POPC   D2A56356   5.324   1.945   6.517
 4436POPC   C3A56357   5.363   1.909   6.949
 4436POPC   C4A56358   5.364   2.235   7.233
 4436POPC   C1B56359   4.783   1.722   6.198
 4436POPC   C2B56360   4.859   1.743   6.641
 4436POPC   C3B56361   4.916   1.690   7.071
 4436POPC   C4B56362   4.734   1.920   7.420
 4437POPC   NC356363  16.503  18.843   5.145
 4437POPC   PO456364  16.308  19.462   5.377
 4437POPC   GL156365  16.375  19.167   5.744
 4437POPC   GL256366  16.525  18.826   5.693
 4437POPC   C1A56367  16.658  19.156   6.126
 4437POPC   D2A56368  16.800  19.356   6.512
 4437POPC   C3A56369  16.845  19.161   6.902
 4437POPC   C4A56370  16.540  19.103   7.218
 4437POPC   C1B56371  16.760  18.651   6.065
 4437POPC   C2B56372  16.865  18.776   6.497
 4437POPC   C3B56373  16.636  18.693   6.877
 4437POPC   C4B56374  16.704  18.618   7.297
 4438POPC   NC356375  42.815  23.066   5.510
 4438POPC   PO456376  43.268  22.632   5.373
 4438POPC   GL156377  43.207  22.838   5.745
 4438POPC   GL256378  43.390  23.144   5.666
 4438POPC   C1A56379  43.075  23.029   6.130
 4438POPC   D2A56380  43.011  23.208   6.527
 4438POPC   C3A56381  42.923  22.914   6.843
 4438POPC   C4A56382  43.167  22.696   7.161
 4438POPC   C1B56383  43.591  23.026   6.049
 4438POPC   C2B56384  43.476  22.848   6.423
 4438POPC   C3B56385  43.415  23.050   6.818
 4438POPC   C4B56386  43.490  23.069   7.244
 4439POPC   NC356387  33.236  19.998   5.531
 4439POPC   PO456388  32.731  19.622   5.428
 4439POPC   GL156389  32.915  19.692   5.827
 4439POPC   GL256390  33.260  19.635   5.908
 4439POPC   C1A56391  32.760  19.783   6.242
 4439POPC   D2A56392  32.875  19.617   6.610
 4439POPC   C3A56393  32.637  19.646   6.943
 4439POPC   C4A56394  32.865  19.818   7.253
 4439POPC   C1B56395  33.246  19.955   6.207
 4439POPC   C2B56396  33.104  20.109   6.608
 4439POPC   C3B56397  33.278  20.094   7.043
 4439POPC   C4B56398  33.354  20.199   7.487
 4440POPC   NC356399  40.733  40.980   5.346
 4440POPC   PO456400  41.137  40.511   5.397
 4440POPC   GL156401  41.031  40.587   5.826
 4440POPC   GL256402  40.859  40.868   5.811
 4440POPC   C1A56403  41.010  40.685   6.277
 4440POPC   D2A56404  41.208  40.515   6.644
 4440POPC   C3A56405  41.030  40.517   7.044
 4440POPC   C4A56406  41.120  40.639   7.520
 4440POPC   C1B56407  40.617  40.979   6.120
 4440POPC   C2B56408  40.686  41.154   6.504
 4440POPC   C3B56409  40.552  41.049   6.928
 4440POPC   C4B56410  40.712  40.808   7.266
 4441POPC   NC356411  24.222  10.196   5.403
 4441POPC   PO456412  23.706   9.945   5.738
 4441POPC   GL156413  23.772   9.594   5.971
 4441POPC   GL256414  24.012   9.357   5.820
 4441POPC   C1A56415  23.518   9.529   6.340
 4441POPC   D2A56416  23.297   9.810   6.601
 4441POPC   C3A56417  23.538   9.884   6.919
 4441POPC   C4A56418  23.505  10.100   7.281
 4441POPC   C1B56419  23.921   9.213   6.261
 4441POPC   C2B56420  23.933   9.406   6.647
 4441POPC   C3B56421  23.903   9.327   7.056
 4441POPC   C4B56422  23.796   9.666   7.312
 4442POPC   NC356423  27.946   3.018   5.544
 4442POPC   PO456424  28.439   2.647   5.211
 4442POPC   GL156425  28.415   2.782   5.642
 4442POPC   GL256426  28.381   2.519   5.908
 4442POPC   C1A56427  28.410   3.012   6.031
 4442POPC   D2A56428  28.473   3.038   6.478
 4442POPC   C3A56429  28.232   2.867   6.824
 4442POPC   C4A56430  28.261   2.969   7.288
 4442POPC   C1B56431  28.733   2.617   6.202
 4442POPC   C2B56432  28.832   2.736   6.641
 4442POPC   C3B56433  28.658   2.712   7.064
 4442POPC   C4B56434  28.474   2.515   7.433
 4443POPC   NC356435  28.955   8.204   5.432
 4443POPC   PO456436  29.517   7.889   5.346
 4443POPC   GL156437  29.283   7.930   5.752
 4443POPC   GL256438  29.153   8.266   5.889
 4443POPC   C1A56439  29.100   7.843   6.173
 4443POPC   D2A56440  29.037   7.876   6.615
 4443POPC   C3A56441  29.136   8.184   6.932
 4443POPC   C4A56442  29.067   7.999   7.365
 4443POPC   C1B56443  29.366   8.553   6.160
 4443POPC   C2B56444  29.303   8.648   6.577
 4443POPC   C3B56445  29.474   8.592   7.001
 4443POPC   C4B56446  29.175   8.526   7.321
 4444POPC   NC356447  25.387  27.892   5.543
 4444POPC   PO456448  24.906  27.460   5.336
 4444POPC   GL156449  25.180  27.481   5.773
 4444POPC   GL256450  25.106  27.784   5.988
 4444POPC   C1A56451  25.524  27.570   6.144
 4444POPC   D2A56452  25.467  27.401   6.541
 4444POPC   C3A56453  25.429  27.628   6.890
 4444POPC   C4A56454  25.664  27.418   7.195
 4444POPC   C1B56455  25.182  27.810   6.449
 4444POPC   C2B56456  25.006  27.929   6.865
 4444POPC   C3B56457  25.016  27.628   7.218
 4444POPC   C4B56458  25.298  27.455   7.547
 4445POPC   NC356459   9.509  31.823   5.446
 4445POPC   PO456460   9.477  32.548   5.392
 4445POPC   GL156461   9.641  32.520   5.849
 4445POPC   GL256462   9.825  32.223   5.906
 4445POPC   C1A56463   9.685  32.467   6.335
 4445POPC   D2A56464  10.027  32.468   6.656
 4445POPC   C3A56465   9.886  32.496   7.095
 4445POPC   C4A56466   9.650  32.802   7.377
 4445POPC   C1B56467   9.868  31.990   6.304
 4445POPC   C2B56468   9.735  32.043   6.728
 4445POPC   C3B56469   9.793  32.017   7.158
 4445POPC   C4B56470   9.985  31.760   7.468
 4446POPC   NC356471  35.756  43.581   5.237
 4446POPC   PO456472  35.653  44.156   5.345
 4446POPC   GL156473  35.602  43.891   5.709
 4446POPC   GL256474  35.282  43.836   5.798
 4446POPC   C1A56475  35.594  44.101   6.127
 4446POPC   D2A56476  35.635  43.992   6.541
 4446POPC   C3A56477  35.570  44.210   6.937
 4446POPC   C4A56478  35.561  43.904   7.256
 4446POPC   C1B56479  35.089  44.158   6.055
 4446POPC   C2B56480  35.146  44.202   6.492
 4446POPC   C3B56481  35.153  43.924   6.835
 4446POPC   C4B56482  35.040  43.922   7.255
 4447POPC   NC356483   7.810  27.285   5.419
 4447POPC   PO456484   8.472  27.603   5.368
 4447POPC   GL156485   8.366  27.492   5.781
 4447POPC   GL256486   8.050  27.647   5.763
 4447POPC   C1A56487   8.433  27.581   6.226
 4447POPC   D2A56488   8.323  27.878   6.550
 4447POPC   C3A56489   8.188  27.663   6.936
 4447POPC   C4A56490   8.177  27.455   7.381
 4447POPC   C1B56491   7.917  27.402   6.116
 4447POPC   C2B56492   8.057  27.338   6.541
 4447POPC   C3B56493   8.085  27.162   6.958
 4447POPC   C4B56494   7.781  27.085   7.251
 4448POPC   NC356495  15.736   9.714   5.352
 4448POPC   PO456496  16.299   9.501   5.584
 4448POPC   GL156497  16.290   9.757   5.904
 4448POPC   GL256498  15.919   9.781   5.968
 4448POPC   C1A56499  16.358   9.768   6.332
 4448POPC   D2A56500  16.067   9.937   6.613
 4448POPC   C3A56501  15.871   9.789   6.972
 4448POPC   C4A56502  15.668   9.954   7.341
 4448POPC   C1B56503  15.569   9.482   6.086
 4448POPC   C2B56504  15.409   9.305   6.469
 4448POPC   C3B56505  15.486   9.409   6.886
 4448POPC   C4B56506  15.709   9.404   7.266
 4449POPC   NC356507  10.210  26.775   5.478
 4449POPC   PO456508  10.928  27.081   5.479
 4449POPC   GL156509  10.604  26.992   5.783
 4449POPC   GL256510  10.653  26.630   5.779
 4449POPC   C1A56511  10.450  27.099   6.219
 4449POPC   D2A56512  10.678  26.929   6.591
 4449POPC   C3A56513  10.660  26.934   7.049
 4449POPC   C4A56514  10.279  27.015   7.263
 4449POPC   C1B56515  10.404  26.587   6.164
 4449POPC   C2B56516  10.428  26.435   6.606
 4449POPC   C3B56517  10.313  26.547   7.031
 4449POPC   C4B56518  10.273  26.321   7.385
 4450POPC   NC356519  13.833   7.903   5.329
 4450POPC   PO456520  13.312   8.308   5.332
 4450POPC   GL156521  13.622   8.252   5.714
 4450POPC   GL256522  13.889   8.527   5.836
 4450POPC   C1A56523  13.680   8.114   6.156
 4450POPC   D2A56524  13.905   8.221   6.585
 4450POPC   C3A56525  13.750   8.053   6.991
 4450POPC   C4A56526  13.399   7.810   7.176
 4450POPC   C1B56527  13.683   8.601   6.261
 4450POPC   C2B56528  13.381   8.342   6.513
 4450POPC   C3B56529  13.255   8.219   6.905
 4450POPC   C4B56530  13.394   8.366   7.293
 4451POPC   NC356531  44.336  32.338   5.659
 4451POPC   PO456532   0.021  32.463   5.469
 4451POPC   GL156533  44.812  32.494   5.849
 4451POPC   GL256534  44.778  32.145   5.853
 4451POPC   C1A56535  44.559  32.444   6.241
 4451POPC   D2A56536  44.267  32.457   6.550
 4451POPC   C3A56537  44.398  32.396   6.969
 4451POPC   C4A56538  44.763  32.525   7.175
 4451POPC   C1B56539  44.942  32.119   6.258
 4451POPC   C2B56540  44.707  32.120   6.629
 4451POPC   C3B56541  44.768  32.039   7.038
 4451POPC   C4B56542  44.465  31.945   7.370
 4452POPC   NC356543  40.422  24.415   5.450
 4452POPC   PO456544  39.789  24.575   5.534
 4452POPC   GL156545  40.082  24.585   5.859
 4452POPC   GL256546  40.449  24.652   5.882
 4452POPC   C1A56547  39.952  24.642   6.262
 4452POPC   D2A56548  39.763  24.452   6.633
 4452POPC   C3A56549  39.904  24.663   7.003
 4452POPC   C4A56550  39.947  24.410   7.313
 4452POPC   C1B56551  40.408  24.364   6.189
 4452POPC   C2B56552  40.545  24.314   6.572
 4452POPC   C3B56553  40.333  24.365   6.928
 4452POPC   C4B56554  40.326  24.086   7.244
 4453POPC   NC356555   4.465  24.740   5.427
 4453POPC   PO456556   4.659  25.458   5.349
 4453POPC   GL156557   4.545  25.173   5.698
 4453POPC   GL256558   4.293  25.316   5.843
 4453POPC   C1A56559   4.653  25.079   6.159
 4453POPC   D2A56560   4.534  24.716   6.438
 4453POPC   C3A56561   4.563  24.830   6.900
 4453POPC   C4A56562   4.302  24.903   7.286
 4453POPC   C1B56563   4.167  24.955   6.098
 4453POPC   C2B56564   4.078  24.906   6.555
 4453POPC   C3B56565   4.037  25.166   6.933
 4453POPC   C4B56566   4.193  25.414   7.305
 4454POPC   NC356567  30.665   1.218   5.330
 4454POPC   PO456568  31.174   1.741   5.601
 4454POPC   GL156569  30.751   1.538   5.808
 4454POPC   GL256570  30.697   1.186   5.846
 4454POPC   C1A56571  30.592   1.486   6.232
 4454POPC   D2A56572  30.711   1.342   6.678
 4454POPC   C3A56573  30.652   1.502   7.105
 4454POPC   C4A56574  31.012   1.360   7.384
 4454POPC   C1B56575  30.818   1.020   6.286
 4454POPC   C2B56576  30.698   0.839   6.715
 4454POPC   C3B56577  30.683   0.985   7.159
 4454POPC   C4B56578  30.425   0.851   7.474
 4455POPC   NC356579   6.222   9.174   5.036
 4455POPC   PO456580   6.719   9.043   5.514
 4455POPC   GL156581   6.655   9.059   5.884
 4455POPC   GL256582   6.342   8.918   5.867
 4455POPC   C1A56583   6.728   8.876   6.264
 4455POPC   D2A56584   6.483   8.791   6.630
 4455POPC   C3A56585   6.745   8.828   6.988
 4455POPC   C4A56586   6.629   8.956   7.370
 4455POPC   C1B56587   6.242   9.208   6.186
 4455POPC   C2B56588   6.312   9.278   6.609
 4455POPC   C3B56589   6.270   9.084   6.998
 4455POPC   C4B56590   6.287   9.385   7.300
 4456POPC   NC356591   4.620  16.992   5.516
 4456POPC   PO456592   4.035  17.396   5.350
 4456POPC   GL156593   4.315  17.409   5.725
 4456POPC   GL256594   4.677  17.506   5.688
 4456POPC   C1A56595   4.239  17.461   6.176
 4456POPC   D2A56596   4.297  17.325   6.581
 4456POPC   C3A56597   4.208  17.539   6.962
 4456POPC   C4A56598   4.099  17.230   7.255
 4456POPC   C1B56599   4.759  17.410   6.110
 4456POPC   C2B56600   4.756  17.569   6.526
 4456POPC   C3B56601   4.686  17.352   6.922
 4456POPC   C4B56602   4.558  17.438   7.336
 4457POPC   NC356603  18.071  44.758   5.261
 4457POPC   PO456604  18.707  44.613   5.382
 4457POPC   GL156605  18.498  44.452   5.766
 4457POPC   GL256606  18.128  44.438   5.718
 4457POPC   C1A56607  18.479  44.620   6.194
 4457POPC   D2A56608  18.173  44.709   6.540
 4457POPC   C3A56609  18.385  44.726   6.937
 4457POPC   C4A56610  18.588  44.774   7.325
 4457POPC   C1B56611  18.042  44.341   6.170
 4457POPC   C2B56612  18.092  44.202   6.630
 4457POPC   C3B56613  18.035  44.367   7.066
 4457POPC   C4B56614  18.425  44.285   7.282
 4458POPC   NC356615  19.843  28.149   5.286
 4458POPC   PO456616  19.685  28.818   5.375
 4458POPC   GL156617  19.657  28.555   5.763
 4458POPC   GL256618  19.550  28.238   5.686
 4458POPC   C1A56619  19.750  28.596   6.221
 4458POPC   D2A56620  19.855  28.756   6.630
 4458POPC   C3A56621  19.809  28.442   6.944
 4458POPC   C4A56622  20.168  28.302   7.172
 4458POPC   C1B56623  19.794  28.125   6.045
 4458POPC   C2B56624  19.802  28.151   6.494
 4458POPC   C3B56625  19.845  27.934   6.876
 4458POPC   C4B56626  19.794  28.008   7.283
 4459POPC   NC356627   0.520  38.530   5.366
 4459POPC   PO456628   0.413  38.053   5.717
 4459POPC   GL156629   0.514  38.410   5.885
 4459POPC   GL256630   0.269  38.675   5.793
 4459POPC   C1A56631   0.579  38.424   6.331
 4459POPC   D2A56632   0.703  38.236   6.724
 4459POPC   C3A56633   0.338  38.207   7.007
 4459POPC   C4A56634   0.094  38.213   7.405
 4459POPC   C1B56635   0.542  38.878   6.062
 4459POPC   C2B56636   0.765  38.901   6.432
 4459POPC   C3B56637   0.736  38.758   6.858
 4459POPC   C4B56638   0.556  38.589   7.259
 4460POPC   NC356639   1.711  38.190   5.522
 4460POPC   PO456640   2.000  38.815   5.385
 4460POPC   GL156641   2.127  38.501   5.716
 4460POPC   GL256642   2.268  38.152   5.796
 4460POPC   C1A56643   2.105  38.494   6.162
 4460POPC   D2A56644   2.283  38.556   6.560
 4460POPC   C3A56645   2.000  38.738   6.823
 4460POPC   C4A56646   1.891  38.642   7.233
 4460POPC   C1B56647   2.045  37.993   6.175
 4460POPC   C2B56648   2.198  38.017   6.591
 4460POPC   C3B56649   2.146  38.255   6.956
 4460POPC   C4B56650   2.088  38.176   7.360
 4461POPC   NC356651  32.438   7.662   5.460
 4461POPC   PO456652  32.260   7.005   5.567
 4461POPC   GL156653  32.448   7.290   5.918
 4461POPC   GL256654  32.580   7.668   5.935
 4461POPC   C1A56655  32.300   7.255   6.389
 4461POPC   D2A56656  32.046   7.085   6.778
 4461POPC   C3A56657  31.970   7.351   7.182
 4461POPC   C4A56658  32.036   7.206   7.605
 4461POPC   C1B56659  32.736   7.539   6.297
 4461POPC   C2B56660  32.608   7.608   6.688
 4461POPC   C3B56661  32.448   7.408   7.013
 4461POPC   C4B56662  32.509   7.417   7.454
 4462POPC   NC356663  43.735   1.822   5.622
 4462POPC   PO456664  43.558   2.443   5.485
 4462POPC   GL156665  43.708   2.274   5.891
 4462POPC   GL256666  44.009   2.034   5.995
 4462POPC   C1A56667  43.829   2.383   6.320
 4462POPC   D2A56668  44.005   2.125   6.669
 4462POPC   C3A56669  43.847   2.208   7.081
 4462POPC   C4A56670  43.885   1.949   7.453
 4462POPC   C1B56671  44.185   1.743   6.326
 4462POPC   C2B56672  43.952   1.461   6.614
 4462POPC   C3B56673  43.861   1.614   7.026
 4462POPC   C4B56674  44.238   1.861   7.080
 4463POPC   NC356675  13.344   4.481   5.431
 4463POPC   PO456676  12.867   4.001   5.353
 4463POPC   GL156677  13.069   4.133   5.760
 4463POPC   GL256678  13.398   4.003   5.795
 4463POPC   C1A56679  12.916   4.307   6.177
 4463POPC   D2A56680  12.668   4.541   6.499
 4463POPC   C3A56681  12.685   4.361   6.910
 4463POPC   C4A56682  12.527   4.500   7.318
 4463POPC   C1B56683  13.396   4.114   6.254
 4463POPC   C2B56684  13.121   4.132   6.630
 4463POPC   C3B56685  13.183   4.153   7.064
 4463POPC   C4B56686  13.042   4.481   7.304
 4464POPC   NC356687  33.964  31.206   5.215
 4464POPC   PO456688  33.546  31.768   5.386
 4464POPC   GL156689  33.670  31.628   5.807
 4464POPC   GL256690  33.993  31.452   5.766
 4464POPC   C1A56691  33.692  31.442   6.240
 4464POPC   D2A56692  33.619  31.341   6.674
 4464POPC   C3A56693  33.737  31.603   7.026
 4464POPC   C4A56694  33.628  31.227   7.190
 4464POPC   C1B56695  34.209  31.548   6.161
 4464POPC   C2B56696  34.059  31.571   6.589
 4464POPC   C3B56697  34.116  31.297   6.928
 4464POPC   C4B56698  34.157  31.381   7.332
 4465POPC   NC356699  24.809  23.899   5.517
 4465POPC   PO456700  24.328  23.414   5.443
 4465POPC   GL156701  24.542  23.558   5.815
 4465POPC   GL256702  24.722  23.320   5.890
 4465POPC   C1A56703  24.673  23.562   6.301
 4465POPC   D2A56704  24.564  23.827   6.574
 4465POPC   C3A56705  24.688  23.856   6.949
 4465POPC   C4A56706  24.351  23.923   7.199
 4465POPC   C1B56707  24.327  23.218   6.130
 4465POPC   C2B56708  24.302  23.164   6.564
 4465POPC   C3B56709  24.352  23.453   6.908
 4465POPC   C4B56710  24.575  23.468   7.311
 4466POPC   NC356711  27.923  25.839   5.386
 4466POPC   PO456712  28.573  26.194   5.448
 4466POPC   GL156713  28.391  25.986   5.837
 4466POPC   GL256714  28.027  26.003   5.874
 4466POPC   C1A56715  28.575  25.988   6.257
 4466POPC   D2A56716  28.898  26.073   6.549
 4466POPC   C3A56717  28.714  26.237   6.883
 4466POPC   C4A56718  28.471  26.060   7.168
 4466POPC   C1B56719  28.108  26.187   6.278
 4466POPC   C2B56720  28.221  26.097   6.694
 4466POPC   C3B56721  27.986  26.103   7.073
 4466POPC   C4B56722  28.048  26.410   7.336
 4467POPC   NC356723   1.627  20.507   5.520
 4467POPC   PO456724   1.109  20.629   5.133
 4467POPC   GL156725   1.119  20.737   5.650
 4467POPC   GL256726   0.866  20.983   5.834
 4467POPC   C1A56727   1.254  20.602   6.129
 4467POPC   D2A56728   1.335  20.256   6.495
 4467POPC   C3A56729   1.229  20.274   6.963
 4467POPC   C4A56730   0.950  20.332   7.326
 4467POPC   C1B56731   0.889  20.899   6.322
 4467POPC   C2B56732   1.099  20.702   6.681
 4467POPC   C3B56733   1.131  20.765   7.120
 4467POPC   C4B56734   1.125  20.968   7.511
 4468POPC   NC356735  32.693   3.001   5.512
 4468POPC   PO456736  33.381   2.977   5.633
 4468POPC   GL156737  33.070   2.868   5.895
 4468POPC   GL256738  32.845   2.608   5.812
 4468POPC   C1A56739  33.217   2.780   6.318
 4468POPC   D2A56740  33.235   2.526   6.697
 4468POPC   C3A56741  33.214   2.672   7.136
 4468POPC   C4A56742  33.133   3.046   7.369
 4468POPC   C1B56743  32.701   2.689   6.238
 4468POPC   C2B56744  32.728   2.439   6.619
 4468POPC   C3B56745  32.748   2.475   7.023
 4468POPC   C4B56746  32.758   2.907   7.054
 4469POPC   NC356747  43.834  44.183   5.204
 4469POPC   PO456748  43.854  43.529   5.447
 4469POPC   GL156749  43.733  43.723   5.812
 4469POPC   GL256750  43.458  43.534   5.915
 4469POPC   C1A56751  43.861  43.940   6.194
 4469POPC   D2A56752  44.005  44.130   6.552
 4469POPC   C3A56753  44.091  43.953   6.926
 4469POPC   C4A56754  44.002  44.153   7.311
 4469POPC   C1B56755  43.419  43.529   6.339
 4469POPC   C2B56756  43.695  43.680   6.620
 4469POPC   C3B56757  43.780  43.506   6.968
 4469POPC   C4B56758  43.566  43.522   7.295
 4470POPC   NC356759  25.322  21.943   5.672
 4470POPC   PO456760  25.018  21.457   5.341
 4470POPC   GL156761  25.115  21.482   5.801
 4470POPC   GL256762  25.418  21.314   5.955
 4470POPC   C1A56763  24.986  21.225   6.185
 4470POPC   D2A56764  25.287  21.113   6.489
 4470POPC   C3A56765  25.152  21.236   6.881
 4470POPC   C4A56766  25.254  21.177   7.270
 4470POPC   C1B56767  25.697  21.428   6.239
 4470POPC   C2B56768  25.792  21.311   6.608
 4470POPC   C3B56769  25.679  21.160   6.948
 4470POPC   C4B56770  25.705  21.399   7.300
 4471POPC   NC356771  15.432   6.125   5.621
 4471POPC   PO456772  14.990   5.690   5.436
 4471POPC   GL156773  14.994   5.800   5.877
 4471POPC   GL256774  14.947   6.154   5.865
 4471POPC   C1A56775  15.204   5.945   6.277
 4471POPC   D2A56776  15.491   5.932   6.629
 4471POPC   C3A56777  15.287   5.734   6.933
 4471POPC   C4A56778  14.975   5.867   7.232
 4471POPC   C1B56779  14.939   6.382   6.261
 4471POPC   C2B56780  15.171   6.458   6.611
 4471POPC   C3B56781  15.248   6.245   6.996
 4471POPC   C4B56782  15.396   6.333   7.403
 4472POPC   NC356783  23.537   7.633   5.327
 4472POPC   PO456784  23.630   7.028   5.632
 4472POPC   GL156785  23.522   7.417   5.861
 4472POPC   GL256786  23.839   7.588   5.774
 4472POPC   C1A56787  23.372   7.413   6.327
 4472POPC   D2A56788  23.532   7.271   6.743
 4472POPC   C3A56789  23.627   7.537   7.042
 4472POPC   C4A56790  24.041   7.410   6.962
 4472POPC   C1B56791  23.889   7.513   6.220
 4472POPC   C2B56792  23.775   7.765   6.581
 4472POPC   C3B56793  23.922   7.945   6.986
 4472POPC   C4B56794  23.913   7.769   7.440
 4473POPC   NC356795  33.533  39.301   5.381
 4473POPC   PO456796  34.145  39.341   5.203
 4473POPC   GL156797  33.963  39.463   5.663
 4473POPC   GL256798  33.927  39.117   5.803
 4473POPC   C1A56799  33.700  39.435   6.117
 4473POPC   D2A56800  33.596  39.206   6.533
 4473POPC   C3A56801  33.627  39.349   6.997
 4473POPC   C4A56802  33.566  39.750   7.221
 4473POPC   C1B56803  34.026  39.022   6.265
 4473POPC   C2B56804  34.131  38.902   6.686
 4473POPC   C3B56805  33.997  38.977   7.103
 4473POPC   C4B56806  33.691  38.981   7.454
 4474POPC   NC356807  15.661  17.636   5.210
 4474POPC   PO456808  15.023  17.459   5.379
 4474POPC   GL156809  15.289  17.568   5.733
 4474POPC   GL256810  14.990  17.665   5.910
 4474POPC   C1A56811  15.422  17.780   6.131
 4474POPC   D2A56812  15.160  17.797   6.511
 4474POPC   C3A56813  15.337  17.622   6.886
 4474POPC   C4A56814  15.189  17.703   7.278
 4474POPC   C1B56815  15.100  17.366   6.239
 4474POPC   C2B56816  14.913  17.203   6.637
 4474POPC   C3B56817  14.970  17.263   7.064
 4474POPC   C4B56818  14.948  16.900   7.336
 4475POPC   NC356819   3.932   4.392   5.415
 4475POPC   PO456820   3.458   3.993   5.268
 4475POPC   GL156821   3.547   4.139   5.663
 4475POPC   GL256822   3.878   3.967   5.685
 4475POPC   C1A56823   3.365   4.300   6.079
 4475POPC   D2A56824   3.309   4.661   6.401
 4475POPC   C3A56825   3.351   4.688   6.873
 4475POPC   C4A56826   3.535   4.509   7.244
 4475POPC   C1B56827   3.879   4.215   6.070
 4475POPC   C2B56828   3.689   4.295   6.483
 4475POPC   C3B56829   3.709   4.171   6.911
 4475POPC   C4B56830   4.000   3.985   7.233
 4476POPC   NC356831   0.255  41.122   5.632
 4476POPC   PO456832   0.774  40.773   5.240
 4476POPC   GL156833   0.607  40.728   5.715
 4476POPC   GL256834   0.221  40.631   5.769
 4476POPC   C1A56835   0.719  40.876   6.176
 4476POPC   D2A56836   0.646  40.707   6.610
 4476POPC   C3A56837   0.540  40.649   7.056
 4476POPC   C4A56838   0.473  41.007   7.316
 4476POPC   C1B56839   0.290  40.620   6.216
 4476POPC   C2B56840   0.148  40.856   6.564
 4476POPC   C3B56841   0.097  40.888   6.975
 4476POPC   C4B56842   0.061  40.705   7.379
 4477POPC   NC356843  22.743  30.993   5.268
 4477POPC   PO456844  23.228  30.518   5.376
 4477POPC   GL156845  23.023  30.812   5.699
 4477POPC   GL256846  22.673  30.859   5.755
 4477POPC   C1A56847  23.054  31.044   6.093
 4477POPC   D2A56848  23.007  30.924   6.515
 4477POPC   C3A56849  23.031  31.086   6.918
 4477POPC   C4A56850  23.247  30.891   7.271
 4477POPC   C1B56851  22.812  30.563   6.103
 4477POPC   C2B56852  22.907  30.427   6.529
 4477POPC   C3B56853  23.048  30.555   6.925
 4477POPC   C4B56854  23.003  30.406   7.339
 4478POPC   NC356855   7.650  42.848   5.413
 4478POPC   PO456856   7.110  43.446   5.432
 4478POPC   GL156857   7.094  43.223   5.831
 4478POPC   GL256858   7.304  42.917   5.803
 4478POPC   C1A56859   7.217  43.167   6.271
 4478POPC   D2A56860   7.637  43.174   6.481
 4478POPC   C3A56861   7.609  43.263   6.940
 4478POPC   C4A56862   7.543  43.251   7.388
 4478POPC   C1B56863   7.407  42.701   6.221
 4478POPC   C2B56864   7.415  42.741   6.664
 4478POPC   C3B56865   7.455  42.793   7.087
 4478POPC   C4B56866   7.330  42.801   7.499
 4479POPC   NC356867  21.052  19.834   5.549
 4479POPC   PO456868  20.512  19.744   5.171
 4479POPC   GL156869  20.553  20.003   5.630
 4479POPC   GL256870  20.465  20.316   5.873
 4479POPC   C1A56871  20.581  19.878   6.111
 4479POPC   D2A56872  20.865  19.790   6.447
 4479POPC   C3A56873  20.701  19.565   6.809
 4479POPC   C4A56874  20.804  19.657   7.203
 4479POPC   C1B56875  20.238  20.244   6.269
 4479POPC   C2B56876  20.402  20.000   6.607
 4479POPC   C3B56877  20.721  20.076   6.928
 4479POPC   C4B56878  20.731  20.118   7.382
 4480POPC   NC356879   2.497   0.596   5.427
 4480POPC   PO456880   3.084   0.125   5.508
 4480POPC   GL156881   2.811   0.398   5.786
 4480POPC   GL256882   2.460   0.290   5.815
 4480POPC   C1A56883   2.688   0.574   6.169
 4480POPC   D2A56884   2.562   0.619   6.556
 4480POPC   C3A56885   2.772   0.497   6.918
 4480POPC   C4A56886   2.582   0.485   7.292
 4480POPC   C1B56887   2.304   0.111   6.174
 4480POPC   C2B56888   2.485  44.995   6.571
 4480POPC   C3B56889   2.427   0.089   6.992
 4480POPC   C4B56890   2.201   0.014   7.342
 4481POPC   NC356891  11.831  34.623   5.462
 4481POPC   PO456892  12.325  34.248   5.273
 4481POPC   GL156893  12.348  34.483   5.658
 4481POPC   GL256894  12.414  34.851   5.612
 4481POPC   C1A56895  12.123  34.485   6.060
 4481POPC   D2A56896  12.043  34.791   6.402
 4481POPC   C3A56897  11.951  34.658   6.814
 4481POPC   C4A56898  12.206  34.733   7.147
 4481POPC   C1B56899  12.538  34.772   6.073
 4481POPC   C2B56900  12.503  34.526   6.446
 4481POPC   C3B56901  12.374  34.360   6.825
 4481POPC   C4B56902  12.520  34.358   7.236
 4482POPC   NC356903  13.115  12.733   5.432
 4482POPC   PO456904  12.645  13.288   5.477
 4482POPC   GL156905  12.850  13.017   5.778
 4482POPC   GL256906  13.164  13.154   5.764
 4482POPC   C1A56907  12.861  12.881   6.226
 4482POPC   D2A56908  12.498  12.710   6.490
 4482POPC   C3A56909  12.483  12.572   6.918
 4482POPC   C4A56910  12.668  12.695   7.281
 4482POPC   C1B56911  13.297  13.248   6.188
 4482POPC   C2B56912  13.192  13.073   6.603
 4482POPC   C3B56913  12.918  13.018   6.968
 4482POPC   C4B56914  12.958  13.090   7.425
 4483POPC   NC356915  27.830   3.763   5.099
 4483POPC   PO456916  27.428   3.362   5.302
 4483POPC   GL156917  27.342   3.698   5.648
 4483POPC   GL256918  27.573   3.487   5.819
 4483POPC   C1A56919  27.366   3.808   6.130
 4483POPC   D2A56920  27.420   3.500   6.478
 4483POPC   C3A56921  27.621   3.613   6.854
 4483POPC   C4A56922  27.421   3.766   7.217
 4483POPC   C1B56923  27.853   3.520   6.189
 4483POPC   C2B56924  28.011   3.316   6.590
 4483POPC   C3B56925  27.933   3.243   7.020
 4483POPC   C4B56926  27.835   3.522   7.333
 4484POPC   NC356927  26.407   2.873   5.432
 4484POPC   PO456928  27.062   2.828   5.344
 4484POPC   GL156929  26.865   2.940   5.725
 4484POPC   GL256930  26.736   2.615   5.797
 4484POPC   C1A56931  26.975   2.878   6.166
 4484POPC   D2A56932  27.247   2.785   6.488
 4484POPC   C3A56933  27.059   2.788   6.869
 4484POPC   C4A56934  26.800   3.069   7.058
 4484POPC   C1B56935  26.548   2.610   6.216
 4484POPC   C2B56936  26.629   2.831   6.600
 4484POPC   C3B56937  26.527   2.651   7.021
 4484POPC   C4B56938  26.400   2.283   7.222
 4485POPC   NC356939  16.497  13.393   5.578
 4485POPC   PO456940  16.902  13.887   5.392
 4485POPC   GL156941  16.865  13.671   5.815
 4485POPC   GL256942  16.967  13.345   5.754
 4485POPC   C1A56943  16.609  13.476   6.216
 4485POPC   D2A56944  16.490  13.602   6.648
 4485POPC   C3A56945  16.696  13.501   7.046
 4485POPC   C4A56946  17.043  13.718   7.270
 4485POPC   C1B56947  17.093  13.340   6.158
 4485POPC   C2B56948  17.082  13.142   6.548
 4485POPC   C3B56949  17.176  13.288   6.962
 4485POPC   C4B56950  17.003  13.212   7.342
 4486POPC   NC356951   8.005  14.433   5.239
 4486POPC   PO456952   8.659  14.303   5.225
 4486POPC   GL156953   8.404  14.442   5.550
 4486POPC   GL256954   8.248  14.175   5.666
 4486POPC   C1A56955   8.219  14.567   5.966
 4486POPC   D2A56956   8.165  14.545   6.397
 4486POPC   C3A56957   8.271  14.729   6.769
 4486POPC   C4A56958   8.242  14.651   7.198
 4486POPC   C1B56959   8.034  14.090   6.080
 4486POPC   C2B56960   7.895  14.122   6.511
 4486POPC   C3B56961   7.997  14.289   6.917
 4486POPC   C4B56962   7.871  14.148   7.322
 4487POPC   NC356963  41.131   2.603   5.475
 4487POPC   PO456964  40.532   2.823   5.205
 4487POPC   GL156965  40.614   2.678   5.634
 4487POPC   GL256966  40.336   2.505   5.784
 4487POPC   C1A56967  40.780   2.813   6.051
 4487POPC   D2A56968  40.925   2.947   6.475
 4487POPC   C3A56969  40.887   2.618   6.800
 4487POPC   C4A56970  41.007   2.633   7.242
 4487POPC   C1B56971  40.265   2.681   6.170
 4487POPC   C2B56972  40.429   2.785   6.541
 4487POPC   C3B56973  40.390   2.536   6.882
 4487POPC   C4B56974  40.557   2.389   7.265
 4488POPC   NC356975   0.859  33.508   5.615
 4488POPC   PO456976   1.490  33.722   5.389
 4488POPC   GL156977   1.208  33.888   5.782
 4488POPC   GL256978   0.857  33.950   6.002
 4488POPC   C1A56979   1.306  34.097   6.195
 4488POPC   D2A56980   1.294  33.918   6.611
 4488POPC   C3A56981   1.111  34.063   6.968
 4488POPC   C4A56982   1.470  33.954   7.210
 4488POPC   C1B56983   1.050  33.641   6.254
 4488POPC   C2B56984   1.016  33.446   6.659
 4488POPC   C3B56985   1.170  33.563   7.032
 4488POPC   C4B56986   1.072  33.727   7.404
 4489POPC   NC356987   2.628  19.050   5.261
 4489POPC   PO456988   3.257  19.205   5.462
 4489POPC   GL156989   2.927  19.207   5.783
 4489POPC   GL256990   2.585  19.379   5.740
 4489POPC   C1A56991   3.031  19.116   6.219
 4489POPC   D2A56992   2.806  18.991   6.605
 4489POPC   C3A56993   2.942  19.109   7.005
 4489POPC   C4A56994   2.768  18.939   7.370
 4489POPC   C1B56995   2.533  19.212   6.192
 4489POPC   C2B56996   2.417  19.337   6.629
 4489POPC   C3B56997   2.458  19.336   7.057
 4489POPC   C4B56998   2.656  19.411   7.426
 4490POPC   NC356999   0.997  10.469   5.450
 4490POPC   PO457000   1.634  10.562   5.672
 4490POPC   GL157001   1.359  10.661   5.955
 4490POPC   GL257002   1.227  10.324   5.921
 4490POPC   C1A57003   1.279  10.685   6.381
 4490POPC   D2A57004   1.144  10.292   6.563
 4490POPC   C3A57005   1.353  10.239   6.932
 4490POPC   C4A57006   1.368  10.511   7.288
 4490POPC   C1B57007   0.871  10.493   6.133
 4490POPC   C2B57008   0.782  10.668   6.532
 4490POPC   C3B57009   1.023  10.668   6.902
 4490POPC   C4B57010   0.777  10.674   7.249
 4491POPC   NC357011  40.471  16.250   5.467
 4491POPC   PO457012  40.877  16.825   5.500
 4491POPC   GL157013  40.642  16.640   5.807
 4491POPC   GL257014  40.915  16.401   5.810
 4491POPC   C1A57015  40.578  16.865   6.214
 4491POPC   D2A57016  40.841  16.851   6.579
 4491POPC   C3A57017  40.657  16.975   6.932
 4491POPC   C4A57018  40.838  16.908   7.284
 4491POPC   C1B57019  40.918  16.487   6.215
 4491POPC   C2B57020  40.816  16.324   6.597
 4491POPC   C3B57021  40.778  16.455   6.993
 4491POPC   C4B57022  40.846  16.424   7.400
 4492POPC   NC357023  31.958  35.556   5.492
 4492POPC   PO457024  32.435  35.045   5.395
 4492POPC   GL157025  32.326  35.279   5.726
 4492POPC   GL257026  31.989  35.248   5.874
 4492POPC   C1A57027  32.399  35.481   6.106
 4492POPC   D2A57028  32.515  35.290   6.497
 4492POPC   C3A57029  32.287  35.379   6.872
 4492POPC   C4A57030  32.531  35.230   7.190
 4492POPC   C1B57031  31.776  35.044   6.189
 4492POPC   C2B57032  31.630  34.940   6.564
 4492POPC   C3B57033  31.781  35.172   6.890
 4492POPC   C4B57034  31.973  35.260   7.284
 4493POPC   NC357035  41.379  21.481   5.445
 4493POPC   PO457036  42.061  21.387   5.345
 4493POPC   GL157037  41.805  21.295   5.703
 4493POPC   GL257038  41.705  21.645   5.820
 4493POPC   C1A57039  41.821  21.217   6.153
 4493POPC   D2A57040  41.710  20.951   6.531
 4493POPC   C3A57041  41.683  21.183   6.884
 4493POPC   C4A57042  41.709  21.306   7.315
 4493POPC   C1B57043  41.371  21.493   6.119
 4493POPC   C2B57044  41.353  21.462   6.582
 4493POPC   C3B57045  41.256  21.422   7.050
 4493POPC   C4B57046  41.363  21.675   7.414
 4494POPC   NC357047  41.448   6.862   5.407
 4494POPC   PO457048  41.302   6.254   5.424
 4494POPC   GL157049  41.413   6.442   5.824
 4494POPC   GL257050  41.701   6.694   5.828
 4494POPC   C1A57051  41.513   6.387   6.264
 4494POPC   D2A57052  41.698   6.587   6.624
 4494POPC   C3A57053  41.399   6.628   6.961
 4494POPC   C4A57054  41.471   6.653   7.441
 4494POPC   C1B57055  41.584   6.906   6.226
 4494POPC   C2B57056  41.546   7.071   6.679
 4494POPC   C3B57057  41.734   6.972   7.102
 4494POPC   C4B57058  41.594   7.132   7.535
 4495POPC   NC357059  34.254   2.772   5.393
 4495POPC   PO457060  34.801   2.343   5.389
 4495POPC   GL157061  34.642   2.600   5.770
 4495POPC   GL257062  34.644   2.941   5.790
 4495POPC   C1A57063  34.540   2.658   6.224
 4495POPC   D2A57064  34.769   2.786   6.603
 4495POPC   C3A57065  34.717   2.605   7.031
 4495POPC   C4A57066  34.546   2.616   7.459
 4495POPC   C1B57067  34.523   3.191   6.149
 4495POPC   C2B57068  34.447   3.281   6.565
 4495POPC   C3B57069  34.521   3.102   6.958
 4495POPC   C4B57070  34.542   3.307   7.322
 4496POPC   NC357071   4.207  10.208   5.367
 4496POPC   PO457072   4.049   9.558   5.307
 4496POPC   GL157073   4.322   9.753   5.625
 4496POPC   GL257074   4.384   9.434   5.748
 4496POPC   C1A57075   4.432   9.895   6.079
 4496POPC   D2A57076   4.177   9.911   6.485
 4496POPC   C3A57077   4.348  10.051   6.884
 4496POPC   C4A57078   4.319   9.933   7.338
 4496POPC   C1B57079   4.165   9.464   6.145
 4496POPC   C2B57080   4.270   9.383   6.529
 4496POPC   C3B57081   4.301   9.549   6.920
 4496POPC   C4B57082   4.102   9.412   7.272
 4497POPC   NC357083  16.886   7.155   5.449
 4497POPC   PO457084  16.553   7.761   5.548
 4497POPC   GL157085  16.747   7.511   5.812
 4497POPC   GL257086  16.540   7.225   5.833
 4497POPC   C1A57087  16.677   7.538   6.234
 4497POPC   D2A57088  16.876   7.610   6.577
 4497POPC   C3A57089  16.694   7.434   6.953
 4497POPC   C4A57090  16.903   7.411   7.355
 4497POPC   C1B57091  16.855   7.071   6.156
 4497POPC   C2B57092  16.855   7.073   6.610
 4497POPC   C3B57093  16.923   6.970   7.045
 4497POPC   C4B57094  16.615   6.986   7.353
 4498POPC   NC357095  20.519   4.659   5.490
 4498POPC   PO457096  20.749   4.081   5.201
 4498POPC   GL157097  20.652   4.199   5.711
 4498POPC   GL257098  20.726   4.555   5.940
 4498POPC   C1A57099  20.707   4.097   6.178
 4498POPC   D2A57100  20.876   4.218   6.601
 4498POPC   C3A57101  20.649   4.114   6.970
 4498POPC   C4A57102  20.279   4.232   7.247
 4498POPC   C1B57103  20.404   4.547   6.208
 4498POPC   C2B57104  20.395   4.387   6.602
 4498POPC   C3B57105  20.509   4.609   6.984
 4498POPC   C4B57106  20.465   4.728   7.420
 4499POPC   NC357107  17.829  44.084   5.464
 4499POPC   PO457108  17.413  43.512   5.298
 4499POPC   GL157109  17.371  43.768   5.718
 4499POPC   GL257110  17.714  43.848   5.905
 4499POPC   C1A57111  17.366  43.585   6.152
 4499POPC   D2A57112  17.651  43.624   6.506
 4499POPC   C3A57113  17.464  43.693   6.869
 4499POPC   C4A57114  17.166  43.918   7.091
 4499POPC   C1B57115  17.565  44.164   6.225
 4499POPC   C2B57116  17.645  44.439   6.602
 4499POPC   C3B57117  17.513  44.313   7.019
 4499POPC   C4B57118  17.665  43.982   7.243
 4500POPC   NC357119   1.311  11.865   5.369
 4500POPC   PO457120   1.254  12.458   5.724
 4500POPC   GL157121   1.166  12.141   5.995
 4500POPC   GL257122   1.266  11.856   5.879
 4500POPC   C1A57123   0.964  12.088   6.368
 4500POPC   D2A57124   0.986  12.109   6.788
 4500POPC   C3A57125   1.209  12.396   7.018
 4500POPC   C4A57126   1.234  12.163   7.400
 4500POPC   C1B57127   1.530  11.699   6.206
 4500POPC   C2B57128   1.616  11.861   6.591
 4500POPC   C3B57129   1.466  11.951   6.972
 4500POPC   C4B57130   1.480  11.696   7.305
 4501POPC   NC357131  25.846  28.883   5.343
 4501POPC   PO457132  25.749  29.562   5.493
 4501POPC   GL157133  26.047  29.335   5.788
 4501POPC   GL257134  26.027  28.971   5.820
 4501POPC   C1A57135  26.246  29.228   6.199
 4501POPC   D2A57136  26.133  29.033   6.603
 4501POPC   C3A57137  26.169  29.316   6.955
 4501POPC   C4A57138  25.963  29.455   7.351
 4501POPC   C1B57139  26.303  28.712   6.119
 4501POPC   C2B57140  26.385  28.581   6.572
 4501POPC   C3B57141  26.266  28.723   7.019
 4501POPC   C4B57142  26.088  28.959   7.326
 4502POPC   NC357143  40.531  32.031   5.523
 4502POPC   PO457144  41.223  32.327   5.576
 4502POPC   GL157145  40.900  32.245   5.817
 4502POPC   GL257146  40.903  31.951   5.912
 4502POPC   C1A57147  40.848  32.359   6.252
 4502POPC   D2A57148  40.666  32.632   6.551
 4502POPC   C3A57149  40.724  32.488   6.933
 4502POPC   C4A57150  40.887  32.641   7.252
 4502POPC   C1B57151  40.555  31.942   6.197
 4502POPC   C2B57152  40.458  32.143   6.594
 4502POPC   C3B57153  40.525  32.010   7.018
 4502POPC   C4B57154  40.752  32.163   7.390
 4503POPC   NC357155  19.531   6.211   5.533
 4503POPC   PO457156  19.902   5.753   5.149
 4503POPC   GL157157  19.996   5.855   5.680
 4503POPC   GL257158  19.970   6.188   5.810
 4503POPC   C1A57159  19.765   5.882   6.152
 4503POPC   D2A57160  19.605   5.973   6.571
 4503POPC   C3A57161  19.755   5.750   6.956
 4503POPC   C4A57162  19.536   5.743   7.337
 4503POPC   C1B57163  20.100   6.259   6.267
 4503POPC   C2B57164  20.068   6.177   6.725
 4503POPC   C3B57165  19.782   6.252   7.089
 4503POPC   C4B57166  19.872   6.107   7.507
 4504POPC   NC357167  14.720  29.832   5.050
 4504POPC   PO457168  14.125  29.929   5.371
 4504POPC   GL157169  14.370  30.101   5.685
 4504POPC   GL257170  14.728  30.079   5.553
 4504POPC   C1A57171  14.249  30.021   6.126
 4504POPC   D2A57172  14.161  29.850   6.551
 4504POPC   C3A57173  14.365  30.040   6.887
 4504POPC   C4A57174  14.249  30.211   7.276
 4504POPC   C1B57175  14.738  29.875   5.987
 4504POPC   C2B57176  14.671  29.955   6.440
 4504POPC   C3B57177  14.840  29.847   6.844
 4504POPC   C4B57178  14.724  29.922   7.263
 4505POPC   NC357179  36.298   9.304   5.150
 4505POPC   PO457180  35.918   9.847   5.404
 4505POPC   GL157181  36.175   9.705   5.751
 4505POPC   GL257182  36.378   9.396   5.699
 4505POPC   C1A57183  36.016   9.693   6.168
 4505POPC   D2A57184  35.860   9.549   6.565
 4505POPC   C3A57185  35.727   9.862   6.857
 4505POPC   C4A57186  35.947   9.870   7.229
 4505POPC   C1B57187  36.483   9.424   6.146
 4505POPC   C2B57188  36.358   9.595   6.547
 4505POPC   C3B57189  36.401   9.753   6.960
 4505POPC   C4B57190  36.322   9.490   7.290
 4506POPC   NC357191  33.360   7.426   5.525
 4506POPC   PO457192  33.881   7.821   5.249
 4506POPC   GL157193  33.896   7.463   5.626
 4506POPC   GL257194  33.678   7.185   5.827
 4506POPC   C1A57195  33.859   7.514   6.143
 4506POPC   D2A57196  33.639   7.589   6.581
 4506POPC   C3A57197  33.978   7.600   6.875
 4506POPC   C4A57198  34.103   7.568   7.280
 4506POPC   C1B57199  33.834   6.960   6.194
 4506POPC   C2B57200  33.875   7.124   6.617
 4506POPC   C3B57201  33.645   7.201   6.966
 4506POPC   C4B57202  33.668   7.111   7.386
 4507POPC   NC357203   1.603  21.535   5.553
 4507POPC   PO457204   2.210  21.303   5.266
 4507POPC   GL157205   1.990  21.222   5.710
 4507POPC   GL257206   1.655  21.068   5.799
 4507POPC   C1A57207   2.082  21.174   6.167
 4507POPC   D2A57208   1.882  21.309   6.556
 4507POPC   C3A57209   1.790  21.079   6.871
 4507POPC   C4A57210   2.058  21.206   7.189
 4507POPC   C1B57211   1.595  21.383   6.163
 4507POPC   C2B57212   1.459  21.616   6.567
 4507POPC   C3B57213   1.677  21.557   6.987
 4507POPC   C4B57214   1.790  21.514   7.481
 4508POPC   NC357215  35.592  13.009   5.555
 4508POPC   PO457216  36.170  12.909   5.144
 4508POPC   GL157217  36.104  13.023   5.625
 4508POPC   GL257218  35.979  12.720   5.785
 4508POPC   C1A57219  36.008  13.108   6.105
 4508POPC   D2A57220  35.778  13.083   6.530
 4508POPC   C3A57221  36.019  13.072   6.948
 4508POPC   C4A57222  36.058  12.965   7.412
 4508POPC   C1B57223  36.167  12.629   6.227
 4508POPC   C2B57224  35.996  12.618   6.665
 4508POPC   C3B57225  35.955  12.568   7.124
 4508POPC   C4B57226  36.039  12.467   7.591
 4509POPC   NC357227  10.699  36.937   5.431
 4509POPC   PO457228  10.098  37.148   5.484
 4509POPC   GL157229  10.438  37.057   5.848
 4509POPC   GL257230  10.684  36.742   5.904
 4509POPC   C1A57231  10.581  37.045   6.305
 4509POPC   D2A57232  10.696  37.290   6.670
 4509POPC   C3A57233  10.681  37.053   7.061
 4509POPC   C4A57234  10.374  36.719   7.223
 4509POPC   C1B57235  10.803  36.585   6.353
 4509POPC   C2B57236  10.739  36.608   6.819
 4509POPC   C3B57237  10.800  36.395   7.237
 4509POPC   C4B57238  10.972  36.371   7.663
 4510POPC   NC357239  27.385   3.022   5.601
 4510POPC   PO457240  27.933   2.577   5.658
 4510POPC   GL157241  27.657   2.705   5.975
 4510POPC   GL257242  27.741   3.045   6.014
 4510POPC   C1A57243  27.575   2.431   6.342
 4510POPC   D2A57244  27.352   2.331   6.709
 4510POPC   C3A57245  27.468   2.549   7.051
 4510POPC   C4A57246  27.832   2.737   7.156
 4510POPC   C1B57247  28.003   2.840   6.323
 4510POPC   C2B57248  27.749   2.805   6.661
 4510POPC   C3B57249  27.484   3.079   6.844
 4510POPC   C4B57250  27.370   3.051   7.253
 4511POPC   NC357251  41.568   9.160   5.392
 4511POPC   PO457252  41.145   8.644   5.508
 4511POPC   GL157253  41.433   8.773   5.858
 4511POPC   GL257254  41.739   8.974   5.827
 4511POPC   C1A57255  41.639   8.855   6.294
 4511POPC   D2A57256  41.550   9.181   6.598
 4511POPC   C3A57257  41.508   9.041   7.023
 4511POPC   C4A57258  41.814   8.786   7.209
 4511POPC   C1B57259  41.908   9.265   6.187
 4511POPC   C2B57260  42.195   9.170   6.550
 4511POPC   C3B57261  42.082   9.227   6.991
 4511POPC   C4B57262  41.811   9.292   7.352
 4512POPC   NC357263   5.154  37.739   5.288
 4512POPC   PO457264   4.618  38.029   5.639
 4512POPC   GL157265   4.972  37.764   5.767
 4512POPC   GL257266   5.347  37.875   5.759
 4512POPC   C1A57267   5.091  37.587   6.147
 4512POPC   D2A57268   5.171  37.722   6.557
 4512POPC   C3A57269   4.908  37.656   6.893
 4512POPC   C4A57270   5.032  37.670   7.325
 4512POPC   C1B57271   5.497  37.908   6.192
 4512POPC   C2B57272   5.439  38.174   6.584
 4512POPC   C3B57273   5.320  38.035   6.993
 4512POPC   C4B57274   5.449  37.896   7.434
 4513POPC   NC357275   9.166  20.410   5.383
 4513POPC   PO457276   8.757  20.955   5.419
 4513POPC   GL157277   8.986  20.841   5.788
 4513POPC   GL257278   8.951  20.490   5.852
 4513POPC   C1A57279   9.140  20.779   6.220
 4513POPC   D2A57280   8.933  20.842   6.591
 4513POPC   C3A57281   9.104  20.801   6.995
 4513POPC   C4A57282   8.904  20.556   7.274
 4513POPC   C1B57283   8.955  20.294   6.278
 4513POPC   C2B57284   9.043  20.356   6.733
 4513POPC   C3B57285   9.321  20.310   7.078
 4513POPC   C4B57286   9.395  20.435   7.512
 4514POPC   NC357287   0.832  42.294   5.403
 4514POPC   PO457288   0.180  42.519   5.336
 4514POPC   GL157289   0.295  42.378   5.788
 4514POPC   GL257290   0.618  42.213   5.856
 4514POPC   C1A57291   0.422  42.469   6.251
 4514POPC   D2A57292   0.384  42.746   6.656
 4514POPC   C3A57293   0.298  42.465   6.984
 4514POPC   C4A57294   0.172  42.024   6.888
 4514POPC   C1B57295   0.824  42.115   6.254
 4514POPC   C2B57296   0.891  42.073   6.716
 4514POPC   C3B57297   0.668  42.135   7.125
 4514POPC   C4B57298   0.740  42.414   7.473
 4515POPC   NC357299  39.609  16.890   5.372
 4515POPC   PO457300  39.191  16.293   5.482
 4515POPC   GL157301  39.391  16.542   5.794
 4515POPC   GL257302  39.291  16.898   5.770
 4515POPC   C1A57303  39.357  16.471   6.246
 4515POPC   D2A57304  39.461  16.413   6.663
 4515POPC   C3A57305  39.231  16.602   7.010
 4515POPC   C4A57306  39.346  17.000   7.202
 4515POPC   C1B57307  38.970  16.741   6.069
 4515POPC   C2B57308  39.001  16.757   6.536
 4515POPC   C3B57309  38.898  17.005   6.919
 4515POPC   C4B57310  38.878  17.172   7.321
 4516POPC   NC357311   5.869  25.499   5.401
 4516POPC   PO457312   6.321  24.961   5.463
 4516POPC   GL157313   6.029  25.138   5.724
 4516POPC   GL257314   6.150  25.468   5.834
 4516POPC   C1A57315   5.929  25.121   6.151
 4516POPC   D2A57316   6.047  25.339   6.526
 4516POPC   C3A57317   5.893  25.106   6.892
 4516POPC   C4A57318   5.549  25.088   7.198
 4516POPC   C1B57319   6.211  25.825   6.129
 4516POPC   C2B57320   6.377  25.768   6.559
 4516POPC   C3B57321   6.138  25.641   6.932
 4516POPC   C4B57322   5.993  25.400   7.299
 4517POPC   NC357323   7.032   9.395   5.579
 4517POPC   PO457324   7.581   9.027   5.437
 4517POPC   GL157325   7.522   8.845   5.823
 4517POPC   GL257326   7.157   8.877   5.820
 4517POPC   C1A57327   7.657   9.030   6.235
 4517POPC   D2A57328   7.725   9.342   6.566
 4517POPC   C3A57329   7.663   9.173   6.988
 4517POPC   C4A57330   7.511   8.776   7.118
 4517POPC   C1B57331   7.229   8.709   6.253
 4517POPC   C2B57332   7.209   8.853   6.696
 4517POPC   C3B57333   7.161   9.134   7.073
 4517POPC   C4B57334   7.119   8.997   7.505
 4518POPC   NC357335   5.794  27.889   5.416
 4518POPC   PO457336   5.591  28.459   5.421
 4518POPC   GL157337   5.960  28.323   5.732
 4518POPC   GL257338   6.122  28.004   5.839
 4518POPC   C1A57339   6.146  28.428   6.148
 4518POPC   D2A57340   6.160  28.144   6.493
 4518POPC   C3A57341   6.287  28.336   6.873
 4518POPC   C4A57342   6.113  28.293   7.275
 4518POPC   C1B57343   5.769  28.051   6.139
 4518POPC   C2B57344   5.561  28.122   6.505
 4518POPC   C3B57345   5.770  28.144   6.892
 4518POPC   C4B57346   5.782  27.909   7.278
 4519POPC   NC357347  18.622  11.421   5.585
 4519POPC   PO457348  19.274  11.357   5.376
 4519POPC   GL157349  19.276  11.228   5.851
 4519POPC   GL257350  18.985  11.354   5.942
 4519POPC   C1A57351  19.405  11.250   6.315
 4519POPC   D2A57352  19.536  11.087   6.748
 4519POPC   C3A57353  19.327  11.349   7.103
 4519POPC   C4A57354  19.083  11.311   7.515
 4519POPC   C1B57355  18.913  11.121   6.313
 4519POPC   C2B57356  19.028  11.157   6.719
 4519POPC   C3B57357  18.816  11.222   7.100
 4519POPC   C4B57358  18.534  11.164   7.459
 4520POPC   NC357359  44.369  28.239   5.707
 4520POPC   PO457360  44.960  28.178   5.368
 4520POPC   GL157361  44.847  28.429   5.765
 4520POPC   GL257362  44.649  28.743   5.672
 4520POPC   C1A57363  44.681  28.463   6.219
 4520POPC   D2A57364  44.469  28.316   6.578
 4520POPC   C3A57365  44.669  28.420   6.958
 4520POPC   C4A57366  44.732  28.167   7.322
 4520POPC   C1B57367  44.325  28.796   6.008
 4520POPC   C2B57368  44.302  28.873   6.420
 4520POPC   C3B57369  44.240  28.703   6.823
 4520POPC   C4B57370  44.185  28.797   7.252
 4521POPC   NC357371   2.113   6.887   5.157
 4521POPC   PO457372   1.692   6.651   5.624
 4521POPC   GL157373   2.005   6.711   5.891
 4521POPC   GL257374   2.222   6.444   5.769
 4521POPC   C1A57375   1.946   6.659   6.343
 4521POPC   D2A57376   2.113   6.828   6.705
 4521POPC   C3A57377   1.986   6.603   7.036
 4521POPC   C4A57378   1.690   6.567   7.317
 4521POPC   C1B57379   2.410   6.553   6.168
 4521POPC   C2B57380   2.335   6.394   6.569
 4521POPC   C3B57381   2.485   6.497   6.927
 4521POPC   C4B57382   2.418   6.816   7.209
 4522POPC   NC357383  44.231  16.146   5.116
 4522POPC   PO457384  43.780  15.733   5.333
 4522POPC   GL157385  43.945  15.973   5.662
 4522POPC   GL257386  43.614  15.970   5.795
 4522POPC   C1A57387  44.009  16.124   6.110
 4522POPC   D2A57388  43.814  16.181   6.518
 4522POPC   C3A57389  43.869  15.928   6.863
 4522POPC   C4A57390  44.197  16.005   7.167
 4522POPC   C1B57391  43.594  15.790   6.220
 4522POPC   C2B57392  43.452  15.668   6.643
 4522POPC   C3B57393  43.440  15.588   7.099
 4522POPC   C4B57394  43.796  15.714   7.321
 4523POPC   NC357395   5.985  20.382   5.533
 4523POPC   PO457396   5.486  20.901   5.406
 4523POPC   GL157397   5.674  20.734   5.788
 4523POPC   GL257398   5.421  20.457   5.762
 4523POPC   C1A57399   6.031  20.630   6.123
 4523POPC   D2A57400   6.118  20.551   6.548
 4523POPC   C3A57401   6.058  20.747   6.943
 4523POPC   C4A57402   6.113  20.538   7.334
 4523POPC   C1B57403   5.605  20.367   6.174
 4523POPC   C2B57404   5.602  20.529   6.592
 4523POPC   C3B57405   5.669  20.415   7.026
 4523POPC   C4B57406   5.630  20.678   7.376
 4524POPC   NC357407  31.390  16.797   5.347
 4524POPC   PO457408  31.415  16.163   5.363
 4524POPC   GL157409  31.312  16.440   5.738
 4524POPC   GL257410  31.580  16.687   5.856
 4524POPC   C1A57411  31.249  16.497   6.193
 4524POPC   D2A57412  31.553  16.472   6.506
 4524POPC   C3A57413  31.348  16.552   6.876
 4524POPC   C4A57414  31.426  16.733   7.263
 4524POPC   C1B57415  31.792  16.870   6.269
 4524POPC   C2B57416  31.793  16.895   6.742
 4524POPC   C3B57417  31.992  16.880   7.168
 4524POPC   C4B57418  31.836  16.875   7.583
 4525POPC   NC357419  26.410   4.833   5.436
 4525POPC   PO457420  25.791   4.672   5.683
 4525POPC   GL157421  25.929   5.062   5.823
 4525POPC   GL257422  26.189   5.298   5.659
 4525POPC   C1A57423  26.037   5.073   6.242
 4525POPC   D2A57424  25.904   5.119   6.649
 4525POPC   C3A57425  26.087   4.834   6.946
 4525POPC   C4A57426  26.098   5.025   7.333
 4525POPC   C1B57427  26.462   5.195   6.014
 4525POPC   C2B57428  26.459   5.215   6.473
 4525POPC   C3B57429  26.312   5.299   6.919
 4525POPC   C4B57430  26.500   5.315   7.341
 4526POPC   NC357431  25.984   2.390   5.606
 4526POPC   PO457432  25.970   3.087   5.472
 4526POPC   GL157433  26.080   2.871   5.829
 4526POPC   GL257434  26.380   2.987   5.917
 4526POPC   C1A57435  26.047   2.754   6.243
 4526POPC   D2A57436  26.162   2.642   6.637
 4526POPC   C3A57437  25.905   2.753   6.962
 4526POPC   C4A57438  26.076   2.719   7.325
 4526POPC   C1B57439  26.583   3.217   6.194
 4526POPC   C2B57440  26.464   3.310   6.590
 4526POPC   C3B57441  26.292   3.098   6.908
 4526POPC   C4B57442  26.369   3.139   7.328
 4527POPC   NC357443  40.025   0.931   5.577
 4527POPC   PO457444  39.520   0.397   5.510
 4527POPC   GL157445  39.873   0.421   5.844
 4527POPC   GL257446  40.166   0.624   5.945
 4527POPC   C1A57447  40.032   0.232   6.252
 4527POPC   D2A57448  39.784   0.138   6.633
 4527POPC   C3A57449  39.901   0.255   7.044
 4527POPC   C4A57450  40.130   0.240   7.455
 4527POPC   C1B57451  40.026   0.747   6.327
 4527POPC   C2B57452  40.178   0.524   6.694
 4527POPC   C3B57453  40.265   0.611   7.126
 4527POPC   C4B57454  40.083   0.799   7.488
 4528POPC   NC357455  44.151  14.845   5.722
 4528POPC   PO457456  43.926  14.422   5.303
 4528POPC   GL157457  43.857  14.454   5.797
 4528POPC   GL257458  43.744  14.167   5.953
 4528POPC   C1A57459  43.802  14.725   6.242
 4528POPC   D2A57460  43.851  14.893   6.682
 4528POPC   C3A57461  43.875  14.594   7.057
 4528POPC   C4A57462  44.126  14.413   7.394
 4528POPC   C1B57463  43.860  14.094   6.368
 4528POPC   C2B57464  44.063  14.245   6.700
 4528POPC   C3B57465  44.003  14.071   7.043
 4528POPC   C4B57466  43.727  14.108   7.333
 4529POPC   NC357467   6.611  30.025   5.314
 4529POPC   PO457468   6.153  30.395   5.641
 4529POPC   GL157469   6.495  30.145   5.887
 4529POPC   GL257470   6.694  29.830   5.810
 4529POPC   C1A57471   6.474  30.042   6.353
 4529POPC   D2A57472   6.595  30.056   6.813
 4529POPC   C3A57473   6.554  30.262   7.226
 4529POPC   C4A57474   6.341  30.183   7.624
 4529POPC   C1B57475   6.914  29.775   6.190
 4529POPC   C2B57476   6.899  29.667   6.620
 4529POPC   C3B57477   6.788  29.621   7.034
 4529POPC   C4B57478   6.977  29.995   7.201
 4530POPC   NC357479   9.950  13.821   5.442
 4530POPC   PO457480   9.314  13.550   5.290
 4530POPC   GL157481   9.602  13.495   5.704
 4530POPC   GL257482   9.859  13.250   5.604
 4530POPC   C1A57483   9.634  13.676   6.190
 4530POPC   D2A57484   9.531  13.589   6.659
 4530POPC   C3A57485   9.550  13.913   7.021
 4530POPC   C4A57486   9.575  13.920   7.496
 4530POPC   C1B57487   9.967  13.320   6.034
 4530POPC   C2B57488  10.022  13.400   6.511
 4530POPC   C3B57489  10.003  13.584   6.955
 4530POPC   C4B57490   9.966  13.550   7.419
 4531POPC   NC357491  41.348  31.863   5.594
 4531POPC   PO457492  41.789  31.313   5.468
 4531POPC   GL157493  41.503  31.419   5.792
 4531POPC   GL257494  41.268  31.114   5.772
 4531POPC   C1A57495  41.552  31.674   6.183
 4531POPC   D2A57496  41.710  31.650   6.605
 4531POPC   C3A57497  41.441  31.855   6.874
 4531POPC   C4A57498  41.353  31.784   7.303
 4531POPC   C1B57499  41.334  31.216   6.226
 4531POPC   C2B57500  41.235  31.407   6.636
 4531POPC   C3B57501  41.405  31.338   7.073
 4531POPC   C4B57502  41.300  31.141   7.489
 4532POPC   NC357503  28.498  39.841   5.210
 4532POPC   PO457504  28.094  40.350   5.483
 4532POPC   GL157505  28.296  40.108   5.805
 4532POPC   GL257506  28.205  39.780   5.759
 4532POPC   C1A57507  28.467  39.942   6.208
 4532POPC   D2A57508  28.449  40.031   6.641
 4532POPC   C3A57509  28.550  39.799   6.989
 4532POPC   C4A57510  28.479  40.130   7.259
 4532POPC   C1B57511  28.123  39.579   6.142
 4532POPC   C2B57512  28.272  39.540   6.550
 4532POPC   C3B57513  28.132  39.492   6.952
 4532POPC   C4B57514  28.096  39.805   7.261
 4533POPC   NC357515  16.977  42.775   5.289
 4533POPC   PO457516  16.525  42.335   5.248
 4533POPC   GL157517  16.803  42.241   5.632
 4533POPC   GL257518  16.539  42.325   5.835
 4533POPC   C1A57519  16.953  42.293   6.122
 4533POPC   D2A57520  16.884  42.489   6.556
 4533POPC   C3A57521  16.729  42.303   6.972
 4533POPC   C4A57522  16.945  42.158   7.376
 4533POPC   C1B57523  16.421  42.500   6.242
 4533POPC   C2B57524  16.422  42.690   6.686
 4533POPC   C3B57525  16.482  42.736   7.136
 4533POPC   C4B57526  16.515  42.413   7.495
 4534POPC   NC357527  19.307  42.148   5.335
 4534POPC   PO457528  18.636  41.960   5.566
 4534POPC   GL157529  18.771  42.262   5.845
 4534POPC   GL257530  19.119  42.347   5.776
 4534POPC   C1A57531  18.742  42.332   6.264
 4534POPC   D2A57532  18.934  42.291   6.636
 4534POPC   C3A57533  18.788  42.329   7.061
 4534POPC   C4A57534  19.036  42.359   7.427
 4534POPC   C1B57535  19.036  42.718   6.035
 4534POPC   C2B57536  19.287  42.849   6.388
 4534POPC   C3B57537  19.239  42.660   6.775
 4534POPC   C4B57538  19.133  42.796   7.163
 4535POPC   NC357539   9.754  44.469   5.238
 4535POPC   PO457540   9.375   0.006   5.263
 4535POPC   GL157541   9.692  44.867   5.628
 4535POPC   GL257542   9.758  44.515   5.760
 4535POPC   C1A57543   9.880  44.890   6.090
 4535POPC   D2A57544   9.864  44.642   6.496
 4535POPC   C3A57545   9.712  44.817   6.929
 4535POPC   C4A57546   9.458  44.853   7.352
 4535POPC   C1B57547   9.789  44.226   6.132
 4535POPC   C2B57548  10.068  44.119   6.474
 4535POPC   C3B57549  10.019  44.297   6.858
 4535POPC   C4B57550  10.171  44.604   7.094
 4536POPC   NC357551  34.745  21.539   5.271
 4536POPC   PO457552  34.214  21.171   5.439
 4536POPC   GL157553  34.496  21.407   5.714
 4536POPC   GL257554  34.880  21.323   5.720
 4536POPC   C1A57555  34.469  21.353   6.151
 4536POPC   D2A57556  34.648  21.400   6.583
 4536POPC   C3A57557  34.462  21.432   7.008
 4536POPC   C4A57558  34.283  21.141   7.312
 4536POPC   C1B57559  34.945  21.522   6.132
 4536POPC   C2B57560  35.147  21.409   6.546
 4536POPC   C3B57561  35.033  21.383   6.950
 4536POPC   C4B57562  34.916  21.598   7.268
 4537POPC   NC357563  42.169  29.263   5.395
 4537POPC   PO457564  42.572  28.789   5.134
 4537POPC   GL157565  42.412  28.867   5.647
 4537POPC   GL257566  42.421  29.230   5.817
 4537POPC   C1A57567  42.287  28.865   6.125
 4537POPC   D2A57568  42.236  29.176   6.491
 4537POPC   C3A57569  42.423  29.100   6.914
 4537POPC   C4A57570  42.179  29.097   7.281
 4537POPC   C1B57571  42.610  29.377   6.173
 4537POPC   C2B57572  42.689  29.418   6.578
 4537POPC   C3B57573  42.475  29.604   6.877
 4537POPC   C4B57574  42.455  29.518   7.293
 4538POPC   NC357575   9.275  12.435   5.357
 4538POPC   PO457576   8.641  12.083   5.455
 4538POPC   GL157577   8.830  12.078   5.859
 4538POPC   GL257578   9.167  11.999   5.832
 4538POPC   C1A57579   8.956  12.221   6.273
 4538POPC   D2A57580   9.022  12.530   6.585
 4538POPC   C3A57581   9.041  12.368   6.988
 4538POPC   C4A57582   9.034  11.941   7.144
 4538POPC   C1B57583   9.421  12.047   6.187
 4538POPC   C2B57584   9.336  12.105   6.609
 4538POPC   C3B57585   9.523  12.086   7.001
 4538POPC   C4B57586   9.475  11.990   7.414
 4539POPC   NC357587  13.316  33.486   5.480
 4539POPC   PO457588  12.706  33.845   5.312
 4539POPC   GL157589  12.918  33.961   5.708
 4539POPC   GL257590  13.180  33.777   5.887
 4539POPC   C1A57591  12.754  33.953   6.124
 4539POPC   D2A57592  12.587  33.757   6.495
 4539POPC   C3A57593  12.602  33.921   6.889
 4539POPC   C4A57594  12.573  33.859   7.295
 4539POPC   C1B57595  13.219  33.848   6.345
 4539POPC   C2B57596  13.057  33.736   6.752
 4539POPC   C3B57597  13.054  33.751   7.195
 4539POPC   C4B57598  13.093  33.427   7.482
 4540POPC   NC357599  27.686  38.599   5.325
 4540POPC   PO457600  27.281  38.089   5.342
 4540POPC   GL157601  27.565  38.239   5.706
 4540POPC   GL257602  27.666  38.556   5.825
 4540POPC   C1A57603  27.658  38.142   6.156
 4540POPC   D2A57604  27.677  38.292   6.577
 4540POPC   C3A57605  27.691  38.095   6.967
 4540POPC   C4A57606  27.814  38.168   7.436
 4540POPC   C1B57607  27.684  38.675   6.226
 4540POPC   C2B57608  27.673  38.791   6.648
 4540POPC   C3B57609  27.664  38.624   7.029
 4540POPC   C4B57610  27.846  38.779   7.357
 4541POPC   NC357611   6.980  39.385   5.569
 4541POPC   PO457612   6.293  39.193   5.498
 4541POPC   GL157613   6.511  39.045   5.864
 4541POPC   GL257614   6.868  39.023   5.938
 4541POPC   C1A57615   6.487  38.841   6.268
 4541POPC   D2A57616   6.741  38.951   6.607
 4541POPC   C3A57617   6.566  39.202   6.920
 4541POPC   C4A57618   6.420  39.122   7.352
 4541POPC   C1B57619   6.728  39.331   6.223
 4541POPC   C2B57620   6.905  39.470   6.572
 4541POPC   C3B57621   7.031  39.474   6.949
 4541POPC   C4B57622   6.913  39.276   7.277
 4542POPC   NC357623  12.337  20.354   5.461
 4542POPC   PO457624  11.807  19.913   5.375
 4542POPC   GL157625  11.849  20.042   5.799
 4542POPC   GL257626  11.953  19.713   5.902
 4542POPC   C1A57627  11.932  20.038   6.277
 4542POPC   D2A57628  11.911  19.774   6.635
 4542POPC   C3A57629  11.702  19.955   6.988
 4542POPC   C4A57630  12.059  20.087   7.216
 4542POPC   C1B57631  12.307  19.685   6.251
 4542POPC   C2B57632  12.457  19.686   6.661
 4542POPC   C3B57633  12.304  19.546   7.031
 4542POPC   C4B57634  11.957  19.584   7.219
 4543POPC   NC357635  27.750   7.115   5.333
 4543POPC   PO457636  27.345   7.558   5.510
 4543POPC   GL157637  27.521   7.252   5.783
 4543POPC   GL257638  27.375   6.957   5.681
 4543POPC   C1A57639  27.648   7.281   6.202
 4543POPC   D2A57640  27.609   7.642   6.484
 4543POPC   C3A57641  27.651   7.585   6.917
 4543POPC   C4A57642  27.820   7.745   7.298
 4543POPC   C1B57643  27.246   6.961   6.150
 4543POPC   C2B57644  27.334   7.136   6.597
 4543POPC   C3B57645  27.517   7.099   7.026
 4543POPC   C4B57646  27.888   7.247   7.258
 4544POPC   NC357647  43.409  15.457   5.449
 4544POPC   PO457648  43.043  14.891   5.273
 4544POPC   GL157649  43.196  15.046   5.700
 4544POPC   GL257650  43.007  15.362   5.753
 4544POPC   C1A57651  43.367  15.051   6.157
 4544POPC   D2A57652  43.316  15.161   6.619
 4544POPC   C3A57653  43.218  14.856   6.950
 4544POPC   C4A57654  43.265  14.952   7.399
 4544POPC   C1B57655  43.152  15.515   6.182
 4544POPC   C2B57656  42.960  15.553   6.578
 4544POPC   C3B57657  42.914  15.410   7.007
 4544POPC   C4B57658  42.581  15.483   7.355
 4545POPC   NC357659   5.393   7.902   5.630
 4545POPC   PO457660   4.840   8.195   5.297
 4545POPC   GL157661   4.930   8.111   5.739
 4545POPC   GL257662   5.204   8.355   5.828
 4545POPC   C1A57663   5.084   7.975   6.171
 4545POPC   D2A57664   4.944   8.086   6.534
 4545POPC   C3A57665   5.249   8.152   6.810
 4545POPC   C4A57666   5.183   7.879   7.150
 4545POPC   C1B57667   4.898   8.471   6.183
 4545POPC   C2B57668   4.874   8.568   6.656
 4545POPC   C3B57669   4.822   8.299   7.030
 4545POPC   C4B57670   4.872   8.300   7.489
 4546POPC   NC357671  30.235   3.636   5.378
 4546POPC   PO457672  29.601   3.985   5.343
 4546POPC   GL157673  29.869   3.738   5.748
 4546POPC   GL257674  30.019   3.399   5.787
 4546POPC   C1A57675  29.919   3.677   6.212
 4546POPC   D2A57676  30.100   3.498   6.592
 4546POPC   C3A57677  29.830   3.562   6.931
 4546POPC   C4A57678  30.000   3.830   7.249
 4546POPC   C1B57679  30.085   3.173   6.183
 4546POPC   C2B57680  29.899   3.019   6.574
 4546POPC   C3B57681  30.054   3.019   6.958
 4546POPC   C4B57682  30.160   3.314   7.216
 4547POPC   NC357683  33.542  32.220   5.058
 4547POPC   PO457684  34.047  32.457   5.474
 4547POPC   GL157685  33.890  32.492   5.894
 4547POPC   GL257686  33.750  32.164   5.792
 4547POPC   C1A57687  33.939  32.466   6.365
 4547POPC   D2A57688  33.595  32.457   6.670
 4547POPC   C3A57689  33.702  32.502   7.091
 4547POPC   C4A57690  34.065  32.278   7.215
 4547POPC   C1B57691  33.588  32.124   6.197
 4547POPC   C2B57692  33.638  31.898   6.576
 4547POPC   C3B57693  33.481  32.045   6.964
 4547POPC   C4B57694  33.590  31.950   7.382
 4548POPC   NC357695  38.157  19.984   5.356
 4548POPC   PO457696  38.758  19.522   5.345
 4548POPC   GL157697  38.566  19.751   5.707
 4548POPC   GL257698  38.409  20.079   5.772
 4548POPC   C1A57699  38.517  19.719   6.163
 4548POPC   D2A57700  38.732  19.622   6.566
 4548POPC   C3A57701  38.479  19.573   6.971
 4548POPC   C4A57702  38.209  19.684   7.336
 4548POPC   C1B57703  38.762  20.162   6.004
 4548POPC   C2B57704  38.800  20.166   6.436
 4548POPC   C3B57705  38.625  20.250   6.848
 4548POPC   C4B57706  38.694  19.981   7.181
 4549POPC   NC357707  18.427   3.974   5.538
 4549POPC   PO457708  18.422   3.260   5.546
 4549POPC   GL157709  18.080   3.438   5.748
 4549POPC   GL257710  18.298   3.665   5.916
 4549POPC   C1A57711  17.959   3.399   6.174
 4549POPC   D2A57712  18.183   3.559   6.524
 4549POPC   C3A57713  18.012   3.395   6.900
 4549POPC   C4A57714  18.349   3.371   7.191
 4549POPC   C1B57715  18.533   3.843   6.269
 4549POPC   C2B57716  18.577   3.871   6.714
 4549POPC   C3B57717  18.721   3.701   7.129
 4549POPC   C4B57718  18.509   3.789   7.558
 4550POPC   NC357719  13.441  25.571   5.457
 4550POPC   PO457720  13.766  25.157   5.114
 4550POPC   GL157721  13.799  25.298   5.685
 4550POPC   GL257722  13.536  25.381   5.953
 4550POPC   C1A57723  13.962  25.270   6.153
 4550POPC   D2A57724  13.666  25.305   6.525
 4550POPC   C3A57725  13.754  25.172   6.947
 4550POPC   C4A57726  14.083  25.199   7.238
 4550POPC   C1B57727  13.220  25.439   6.314
 4550POPC   C2B57728  13.186  25.508   6.754
 4550POPC   C3B57729  13.362  25.447   7.147
 4550POPC   C4B57730  13.337  25.377   7.571
 4551POPC   NC357731  42.071  30.127   5.614
 4551POPC   PO457732  41.447  29.823   5.354
 4551POPC   GL157733  41.420  29.970   5.762
 4551POPC   GL257734  41.746  29.899   5.939
 4551POPC   C1A57735  41.345  30.175   6.158
 4551POPC   D2A57736  41.582  29.951   6.447
 4551POPC   C3A57737  41.552  29.919   6.875
 4551POPC   C4A57738  41.509  29.828   7.289
 4551POPC   C1B57739  41.967  30.197   6.255
 4551POPC   C2B57740  41.755  30.363   6.679
 4551POPC   C3B57741  41.920  30.239   7.092
 4551POPC   C4B57742  41.777  30.240   7.514
 4552POPC   NC357743  42.857  39.548   5.430
 4552POPC   PO457744  42.446  38.973   5.455
 4552POPC   GL157745  42.390  39.138   5.798
 4552POPC   GL257746  42.073  38.998   5.818
 4552POPC   C1A57747  42.525  39.101   6.212
 4552POPC   D2A57748  42.644  39.229   6.610
 4552POPC   C3A57749  42.524  39.218   7.017
 4552POPC   C4A57750  42.372  38.847   7.149
 4552POPC   C1B57751  42.028  39.075   6.212
 4552POPC   C2B57752  42.148  39.326   6.552
 4552POPC   C3B57753  42.013  39.330   6.965
 4552POPC   C4B57754  41.885  38.972   7.167
 4553POPC   NC357755  38.930  38.373   5.495
 4553POPC   PO457756  39.523  38.129   5.399
 4553POPC   GL157757  39.403  38.274   5.841
 4553POPC   GL257758  39.034  38.301   5.976
 4553POPC   C1A57759  39.381  38.615   6.159
 4553POPC   D2A57760  39.155  38.748   6.527
 4553POPC   C3A57761  39.379  38.654   6.891
 4553POPC   C4A57762  39.180  38.502   7.262
 4553POPC   C1B57763  38.933  38.290   6.395
 4553POPC   C2B57764  38.953  38.333   6.832
 4553POPC   C3B57765  38.915  38.089   7.201
 4553POPC   C4B57766  38.921  38.246   7.669
 4554POPC   NC357767  33.799  24.094   5.391
 4554POPC   PO457768  34.021  23.526   5.408
 4554POPC   GL157769  33.933  23.778   5.777
 4554POPC   GL257770  33.597  23.961   5.843
 4554POPC   C1A57771  33.919  23.705   6.223
 4554POPC   D2A57772  33.835  23.489   6.596
 4554POPC   C3A57773  33.757  23.782   6.905
 4554POPC   C4A57774  33.569  23.732   7.308
 4554POPC   C1B57775  33.688  24.172   6.263
 4554POPC   C2B57776  33.581  24.262   6.724
 4554POPC   C3B57777  33.278  24.187   7.091
 4554POPC   C4B57778  33.352  24.122   7.537
 4555POPC   NC357779  20.127  36.898   5.447
 4555POPC   PO457780  19.657  37.322   5.420
 4555POPC   GL157781  19.736  37.069   5.764
 4555POPC   GL257782  19.693  36.748   5.678
 4555POPC   C1A57783  20.037  36.989   6.115
 4555POPC   D2A57784  20.185  37.101   6.537
 4555POPC   C3A57785  19.963  36.973   6.923
 4555POPC   C4A57786  20.049  36.983   7.395
 4555POPC   C1B57787  19.703  36.590   6.123
 4555POPC   C2B57788  19.851  36.681   6.515
 4555POPC   C3B57789  19.899  36.465   6.893
 4555POPC   C4B57790  19.693  36.662   7.213
 4556POPC   NC357791   6.587  34.879   5.471
 4556POPC   PO457792   6.995  34.476   5.852
 4556POPC   GL157793   6.542  34.611   5.932
 4556POPC   GL257794   6.250  34.408   5.973
 4556POPC   C1A57795   6.439  34.732   6.364
 4556POPC   D2A57796   6.632  34.906   6.734
 4556POPC   C3A57797   6.572  34.692   7.130
 4556POPC   C4A57798   6.846  34.812   7.478
 4556POPC   C1B57799   6.488  34.211   6.320
 4556POPC   C2B57800   6.442  34.368   6.734
 4556POPC   C3B57801   6.267  34.262   7.102
 4556POPC   C4B57802   6.592  34.149   7.414
 4557POPC   NC357803  19.642  18.742   5.455
 4557POPC   PO457804  19.922  18.133   5.453
 4557POPC   GL157805  20.004  18.296   5.806
 4557POPC   GL257806  20.150  18.597   5.672
 4557POPC   C1A57807  19.940  18.139   6.204
 4557POPC   D2A57808  19.670  18.243   6.549
 4557POPC   C3A57809  19.847  18.232   6.964
 4557POPC   C4A57810  19.743  18.620   7.225
 4557POPC   C1B57811  20.045  18.691   6.112
 4557POPC   C2B57812  20.110  18.512   6.514
 4557POPC   C3B57813  20.162  18.616   6.915
 4557POPC   C4B57814  20.194  18.363   7.320
 4558POPC   NC357815  44.625  28.537   5.160
 4558POPC   PO457816  44.776  29.129   5.316
 4558POPC   GL157817  44.575  29.325   5.625
 4558POPC   GL257818  44.883  29.234   5.814
 4558POPC   C1A57819  44.427  29.274   6.035
 4558POPC   D2A57820  44.612  29.317   6.435
 4558POPC   C3A57821  44.546  29.098   6.818
 4558POPC   C4A57822  44.555  29.137   7.246
 4558POPC   C1B57823  44.808  28.947   6.133
 4558POPC   C2B57824  44.896  28.828   6.558
 4558POPC   C3B57825   0.016  28.902   6.998
 4558POPC   C4B57826  44.891  28.652   7.354
 4559POPC   NC357827  44.427  40.458   5.554
 4559POPC   PO457828  44.832  40.995   5.492
 4559POPC   GL157829  44.632  40.877   5.802
 4559POPC   GL257830  44.336  41.078   5.779
 4559POPC   C1A57831  44.814  40.782   6.171
 4559POPC   D2A57832  44.841  40.472   6.466
 4559POPC   C3A57833  44.729  40.557   6.865
 4559POPC   C4A57834  44.560  40.635   7.256
 4559POPC   C1B57835  44.339  40.941   6.202
 4559POPC   C2B57836  44.577  40.974   6.582
 4559POPC   C3B57837  44.616  41.071   7.004
 4559POPC   C4B57838  44.301  41.070   7.356
 4560POPC   NC357839  44.370  39.543   5.419
 4560POPC   PO457840  44.009  38.881   5.456
 4560POPC   GL157841  43.955  39.204   5.777
 4560POPC   GL257842  43.712  39.436   5.798
 4560POPC   C1A57843  43.994  39.213   6.205
 4560POPC   D2A57844  44.098  38.946   6.573
 4560POPC   C3A57845  44.010  39.196   6.952
 4560POPC   C4A57846  44.277  39.369   7.302
 4560POPC   C1B57847  43.750  39.657   6.163
 4560POPC   C2B57848  43.902  39.577   6.550
 4560POPC   C3B57849  43.696  39.612   6.900
 4560POPC   C4B57850  43.763  39.492   7.303
 4561POPC   NC357851  39.798   0.013   5.523
 4561POPC   PO457852  40.277  44.637   5.429
 4561POPC   GL157853  40.164  44.685   5.845
 4561POPC   GL257854  39.815  44.606   5.852
 4561POPC   C1A57855  40.118  44.505   6.251
 4561POPC   D2A57856  39.917  44.645   6.611
 4561POPC   C3A57857  39.813  44.384   6.927
 4561POPC   C4A57858  40.210  44.286   7.127
 4561POPC   C1B57859  39.669  44.850   6.202
 4561POPC   C2B57860  39.422  44.766   6.598
 4561POPC   C3B57861  39.585  44.833   7.010
 4561POPC   C4B57862  40.064  44.787   7.089
 4562POPC   NC357863  11.367  39.400   5.179
 4562POPC   PO457864  10.903  39.003   5.637
 4562POPC   GL157865  11.177  39.248   5.863
 4562POPC   GL257866  11.470  39.339   5.753
 4562POPC   C1A57867  11.294  39.344   6.269
 4562POPC   D2A57868  11.115  39.060   6.546
 4562POPC   C3A57869  11.197  39.171   6.929
 4562POPC   C4A57870  11.224  39.262   7.321
 4562POPC   C1B57871  11.573  38.975   6.048
 4562POPC   C2B57872  11.591  38.949   6.457
 4562POPC   C3B57873  11.674  39.279   6.728
 4562POPC   C4B57874  11.690  39.071   7.091
 4563POPC   NC357875  18.858  40.574   5.461
 4563POPC   PO457876  19.288  40.075   5.570
 4563POPC   GL157877  19.174  39.996   5.948
 4563POPC   GL257878  18.905  40.251   5.904
 4563POPC   C1A57879  19.301  40.033   6.345
 4563POPC   D2A57880  19.153  40.225   6.664
 4563POPC   C3A57881  19.287  40.036   7.002
 4563POPC   C4A57882  19.125  39.825   7.305
 4563POPC   C1B57883  18.802  40.081   6.295
 4563POPC   C2B57884  18.629  40.194   6.654
 4563POPC   C3B57885  18.744  40.032   7.025
 4563POPC   C4B57886  18.782  40.216   7.383
 4564POPC   NC357887  17.620   6.560   5.120
 4564POPC   PO457888  17.909   6.674   5.670
 4564POPC   GL157889  17.539   6.569   5.906
 4564POPC   GL257890  17.214   6.481   5.715
 4564POPC   C1A57891  17.315   6.817   6.241
 4564POPC   D2A57892  17.302   6.865   6.696
 4564POPC   C3A57893  17.527   6.656   6.981
 4564POPC   C4A57894  17.567   6.856   7.346
 4564POPC   C1B57895  17.167   6.326   6.142
 4564POPC   C2B57896  17.387   6.393   6.519
 4564POPC   C3B57897  17.472   6.136   6.826
 4564POPC   C4B57898  17.401   6.219   7.231
 4565POPC   NC357899  24.525  34.765   5.300
 4565POPC   PO457900  25.023  34.514   5.644
 4565POPC   GL157901  24.634  34.524   5.805
 4565POPC   GL257902  24.311  34.663   5.762
 4565POPC   C1A57903  24.604  34.609   6.226
 4565POPC   D2A57904  24.354  34.490   6.541
 4565POPC   C3A57905  24.572  34.525   6.895
 4565POPC   C4A57906  24.448  34.435   7.330
 4565POPC   C1B57907  24.118  34.783   6.135
 4565POPC   C2B57908  24.156  34.969   6.544
 4565POPC   C3B57909  24.164  34.825   6.966
 4565POPC   C4B57910  23.944  34.698   7.322
 4566POPC   NC357911   0.959   2.741   5.287
 4566POPC   PO457912   1.422   3.223   5.234
 4566POPC   GL157913   1.173   3.088   5.611
 4566POPC   GL257914   1.304   2.738   5.664
 4566POPC   C1A57915   1.027   2.915   6.054
 4566POPC   D2A57916   1.129   2.629   6.440
 4566POPC   C3A57917   1.097   2.768   6.888
 4566POPC   C4A57918   1.441   2.991   7.103
 4566POPC   C1B57919   1.430   2.511   6.036
 4566POPC   C2B57920   1.643   2.431   6.417
 4566POPC   C3B57921   1.542   2.562   6.785
 4566POPC   C4B57922   1.339   2.307   7.096
 4567POPC   NC357923   5.188  32.131   5.490
 4567POPC   PO457924   4.627  32.475   5.308
 4567POPC   GL157925   4.740  32.341   5.728
 4567POPC   GL257926   4.793  31.984   5.811
 4567POPC   C1A57927   4.853  32.361   6.161
 4567POPC   D2A57928   5.069  32.497   6.510
 4567POPC   C3A57929   5.117  32.325   6.922
 4567POPC   C4A57930   5.141  32.555   7.308
 4567POPC   C1B57931   5.150  31.930   6.110
 4567POPC   C2B57932   5.249  31.672   6.451
 4567POPC   C3B57933   5.006  31.639   6.792
 4567POPC   C4B57934   5.023  31.831   7.192
 4568POPC   NC357935  13.283  32.772   5.368
 4568POPC   PO457936  13.721  33.315   5.298
 4568POPC   GL157937  13.695  33.123   5.720
 4568POPC   GL257938  13.614  32.792   5.782
 4568POPC   C1A57939  13.829  33.126   6.170
 4568POPC   D2A57940  13.714  32.947   6.577
 4568POPC   C3A57941  13.898  33.087   6.953
 4568POPC   C4A57942  13.695  33.030   7.296
 4568POPC   C1B57943  13.398  32.817   6.195
 4568POPC   C2B57944  13.341  32.551   6.588
 4568POPC   C3B57945  13.368  32.716   7.019
 4568POPC   C4B57946  13.505  32.576   7.416
 4569POPC   NC357947  15.433  34.389   5.393
 4569POPC   PO457948  15.093  34.974   5.428
 4569POPC   GL157949  15.095  34.657   5.701
 4569POPC   GL257950  15.413  34.717   5.797
 4569POPC   C1A57951  14.970  34.436   6.058
 4569POPC   D2A57952  14.939  34.323   6.492
 4569POPC   C3A57953  15.031  34.608   6.822
 4569POPC   C4A57954  15.030  34.672   7.246
 4569POPC   C1B57955  15.468  34.529   6.209
 4569POPC   C2B57956  15.459  34.383   6.633
 4569POPC   C3B57957  15.467  34.427   7.089
 4569POPC   C4B57958  15.504  34.835   7.349
 4570POPC   NC357959   6.823  18.700   5.397
 4570POPC   PO457960   6.342  19.205   5.468
 4570POPC   GL157961   6.546  18.972   5.753
 4570POPC   GL257962   6.281  18.839   5.896
 4570POPC   C1A57963   6.694  19.064   6.182
 4570POPC   D2A57964   6.648  19.311   6.583
 4570POPC   C3A57965   6.706  19.063   6.997
 4570POPC   C4A57966   6.623  18.892   7.425
 4570POPC   C1B57967   6.175  19.149   6.172
 4570POPC   C2B57968   6.118  19.130   6.611
 4570POPC   C3B57969   6.293  19.355   6.965
 4570POPC   C4B57970   6.457  19.358   7.387
 4571POPC   NC357971  20.307  15.635   5.449
 4571POPC   PO457972  20.794  16.153   5.515
 4571POPC   GL157973  20.671  16.092   5.901
 4571POPC   GL257974  20.597  15.734   5.866
 4571POPC   C1A57975  20.672  16.294   6.320
 4571POPC   D2A57976  20.608  16.392   6.756
 4571POPC   C3A57977  20.873  16.190   7.032
 4571POPC   C4A57978  20.752  16.119   7.455
 4571POPC   C1B57979  20.345  15.848   6.213
 4571POPC   C2B57980  20.436  15.949   6.622
 4571POPC   C3B57981  20.507  15.837   7.043
 4571POPC   C4B57982  20.197  15.587   7.204
 4572POPC   NC357983  13.997  44.848   5.306
 4572POPC   PO457984  13.403  44.617   5.284
 4572POPC   GL157985  13.656  44.648   5.706
 4572POPC   GL257986  14.041  44.590   5.744
 4572POPC   C1A57987  13.474  44.634   6.141
 4572POPC   D2A57988  13.320  44.688   6.567
 4572POPC   C3A57989  13.531  44.473   6.823
 4572POPC   C4A57990  13.577  44.689   7.176
 4572POPC   C1B57991  13.960  44.791   6.157
 4572POPC   C2B57992  13.812  44.886   6.605
 4572POPC   C3B57993  14.046  44.784   7.016
 4572POPC   C4B57994  14.071  44.892   7.471
 4573POPC   NC357995  20.401  18.096   5.530
 4573POPC   PO457996  20.727  18.700   5.279
 4573POPC   GL157997  20.661  18.502   5.726
 4573POPC   GL257998  20.946  18.400   5.918
 4573POPC   C1A57999  20.440  18.357   6.128
 4573POPC   D2A58000  20.396  18.048   6.454
 4573POPC   C3A58001  20.348  18.135   6.874
 4573POPC   C4A58002  20.580  18.047   7.254
 4573POPC   C1B58003  20.887  18.194   6.346
 4573POPC   C2B58004  20.896  18.143   6.808
 4573POPC   C3B58005  21.028  18.265   7.222
 4573POPC   C4B58006  20.855  18.314   7.624
 4574POPC   NC358007  14.532   6.942   5.520
 4574POPC   PO458008  14.119   6.507   5.194
 4574POPC   GL158009  14.326   6.463   5.664
 4574POPC   GL258010  14.280   6.740   5.909
 4574POPC   C1A58011  14.424   6.346   6.166
 4574POPC   D2A58012  14.304   6.228   6.649
 4574POPC   C3A58013  14.343   6.508   7.056
 4574POPC   C4A58014  14.383   6.411   7.505
 4574POPC   C1B58015  14.017   6.794   6.241
 4574POPC   C2B58016  14.055   6.715   6.678
 4574POPC   C3B58017  14.031   6.965   7.067
 4574POPC   C4B58018  14.110   6.842   7.504
 4575POPC   NC358019   4.482  32.028   5.393
 4575POPC   PO458020   4.081  32.611   5.307
 4575POPC   GL158021   4.207  32.374   5.676
 4575POPC   GL258022   4.320  32.638   5.851
 4575POPC   C1A58023   4.381  32.157   6.083
 4575POPC   D2A58024   4.689  31.915   6.375
 4575POPC   C3A58025   4.575  31.926   6.830
 4575POPC   C4A58026   4.682  32.241   7.165
 4575POPC   C1B58027   4.444  32.658   6.230
 4575POPC   C2B58028   4.520  32.378   6.574
 4575POPC   C3B58029   4.262  32.371   6.956
 4575POPC   C4B58030   4.324  32.679   7.273
 4576POPC   NC358031  21.815  39.664   5.387
 4576POPC   PO458032  21.106  39.858   5.475
 4576POPC   GL158033  21.256  39.688   5.855
 4576POPC   GL258034  20.937  39.742   5.971
 4576POPC   C1A58035  21.369  39.799   6.277
 4576POPC   D2A58036  21.313  40.091   6.595
 4576POPC   C3A58037  21.251  39.835   6.931
 4576POPC   C4A58038  21.574  39.674   7.168
 4576POPC   C1B58039  21.050  40.175   6.119
 4576POPC   C2B58040  20.934  40.408   6.505
 4576POPC   C3B58041  21.103  40.431   6.952
 4576POPC   C4B58042  21.205  40.134   7.344
 4577POPC   NC358043  34.705   6.207   5.475
 4577POPC   PO458044  33.975   6.245   5.392
 4577POPC   GL158045  34.276   6.074   5.720
 4577POPC   GL258046  34.445   5.753   5.681
 4577POPC   C1A58047  34.569   6.030   6.107
 4577POPC   D2A58048  34.681   5.793   6.484
 4577POPC   C3A58049  34.677   6.040   6.859
 4577POPC   C4A58050  34.831   5.920   7.242
 4577POPC   C1B58051  34.343   5.559   6.074
 4577POPC   C2B58052  34.239   5.543   6.504
 4577POPC   C3B58053  34.314   5.704   6.919
 4577POPC   C4B58054  34.270   5.506   7.293
 4578POPC   NC358055   4.728  24.079   5.328
 4578POPC   PO458056   4.152  24.356   5.529
 4578POPC   GL158057   4.291  24.499   5.874
 4578POPC   GL258058   4.588  24.662   5.899
 4578POPC   C1A58059   4.102  24.466   6.235
 4578POPC   D2A58060   4.197  24.304   6.587
 4578POPC   C3A58061   4.094  24.552   6.934
 4578POPC   C4A58062   4.096  24.389   7.332
 4578POPC   C1B58063   4.688  24.301   6.135
 4578POPC   C2B58064   4.704  24.244   6.557
 4578POPC   C3B58065   4.548  24.318   6.947
 4578POPC   C4B58066   4.613  24.460   7.320
 4579POPC   NC358067  36.651   6.045   5.135
 4579POPC   PO458068  37.163   6.530   5.275
 4579POPC   GL158069  37.209   6.594   5.729
 4579POPC   GL258070  36.887   6.545   5.850
 4579POPC   C1A58071  37.199   6.718   6.188
 4579POPC   D2A58072  37.120   6.535   6.569
 4579POPC   C3A58073  37.141   6.834   6.888
 4579POPC   C4A58074  37.001   6.775   7.290
 4579POPC   C1B58075  36.721   6.402   6.221
 4579POPC   C2B58076  36.589   6.314   6.608
 4579POPC   C3B58077  36.690   6.559   6.927
 4579POPC   C4B58078  36.723   6.326   7.305
 4580POPC   NC358079  30.098   9.622   5.471
 4580POPC   PO458080  29.556  10.061   5.271
 4580POPC   GL158081  29.785   9.968   5.687
 4580POPC   GL258082  30.006  10.208   5.720
 4580POPC   C1A58083  29.909   9.777   6.124
 4580POPC   D2A58084  29.644   9.801   6.529
 4580POPC   C3A58085  29.637   9.621   6.950
 4580POPC   C4A58086  29.950   9.420   7.228
 4580POPC   C1B58087  30.193  10.214   6.129
 4580POPC   C2B58088  30.057  10.104   6.522
 4580POPC   C3B58089  30.159   9.814   6.822
 4580POPC   C4B58090  30.087   9.928   7.211
 4581POPC   NC358091  36.260   2.272   5.436
 4581POPC   PO458092  36.129   1.530   5.428
 4581POPC   GL158093  36.236   1.783   5.754
 4581POPC   GL258094  35.951   2.006   5.755
 4581POPC   C1A58095  36.280   1.975   6.162
 4581POPC   D2A58096  36.394   2.200   6.535
 4581POPC   C3A58097  36.251   1.987   6.913
 4581POPC   C4A58098  36.092   2.157   7.292
 4581POPC   C1B58099  35.762   1.870   6.152
 4581POPC   C2B58100  35.911   2.024   6.533
 4581POPC   C3B58101  35.740   2.046   6.923
 4581POPC   C4B58102  35.700   1.702   7.164
 4582POPC   NC358103  11.770   7.279   5.517
 4582POPC   PO458104  12.352   7.066   5.200
 4582POPC   GL158105  12.443   7.250   5.676
 4582POPC   GL258106  12.176   7.456   5.763
 4582POPC   C1A58107  12.409   7.420   6.184
 4582POPC   D2A58108  12.266   7.342   6.640
 4582POPC   C3A58109  11.933   7.607   6.830
 4582POPC   C4A58110  11.807   7.734   7.257
 4582POPC   C1B58111  11.912   7.310   6.175
 4582POPC   C2B58112  11.767   7.130   6.556
 4582POPC   C3B58113  11.896   7.082   6.984
 4582POPC   C4B58114  12.162   7.346   7.212
 4583POPC   NC358115  38.136  26.055   5.170
 4583POPC   PO458116  38.642  26.170   5.513
 4583POPC   GL158117  38.458  26.168   5.889
 4583POPC   GL258118  38.148  25.993   5.850
 4583POPC   C1A58119  38.501  26.063   6.312
 4583POPC   D2A58120  38.454  25.732   6.613
 4583POPC   C3A58121  38.736  25.729   6.946
 4583POPC   C4A58122  38.727  26.104   7.183
 4583POPC   C1B58123  38.056  25.756   6.248
 4583POPC   C2B58124  37.964  25.796   6.710
 4583POPC   C3B58125  38.263  25.954   7.038
 4583POPC   C4B58126  38.309  26.073   7.491
 4584POPC   NC358127  32.705   6.910   5.469
 4584POPC   PO458128  32.972   6.237   5.425
 4584POPC   GL158129  32.979   6.535   5.816
 4584POPC   GL258130  33.157   6.877   5.755
 4584POPC   C1A58131  32.817   6.522   6.291
 4584POPC   D2A58132  32.965   6.651   6.734
 4584POPC   C3A58133  32.835   6.490   7.171
 4584POPC   C4A58134  32.605   6.323   7.583
 4584POPC   C1B58135  33.297   6.910   6.194
 4584POPC   C2B58136  33.422   6.868   6.642
 4584POPC   C3B58137  33.314   6.770   7.112
 4584POPC   C4B58138  33.212   6.961   7.483
 4585POPC   NC358139  19.834  33.492   5.316
 4585POPC   PO458140  19.816  32.822   5.411
 4585POPC   GL158141  19.710  33.142   5.713
 4585POPC   GL258142  19.542  32.869   5.879
 4585POPC   C1A58143  19.625  33.277   6.158
 4585POPC   D2A58144  19.637  33.092   6.584
 4585POPC   C3A58145  20.049  33.223   6.809
 4585POPC   C4A58146  20.097  33.236   7.271
 4585POPC   C1B58147  19.816  32.733   6.222
 4585POPC   C2B58148  20.013  32.739   6.646
 4585POPC   C3B58149  19.779  32.849   7.021
 4585POPC   C4B58150  19.604  33.266   7.097
 4586POPC   NC358151  29.682  10.530   5.413
 4586POPC   PO458152  30.220  10.990   5.519
 4586POPC   GL158153  30.103  10.710   5.850
 4586POPC   GL258154  29.748  10.634   5.899
 4586POPC   C1A58155  30.067  10.665   6.297
 4586POPC   D2A58156  30.289  10.541   6.613
 4586POPC   C3A58157  30.072  10.519   7.000
 4586POPC   C4A58158  29.984  10.837   7.289
 4586POPC   C1B58159  29.552  10.662   6.291
 4586POPC   C2B58160  29.663  10.482   6.662
 4586POPC   C3B58161  29.717  10.143   6.926
 4586POPC   C4B58162  29.731  10.273   7.314
 4587POPC   NC358163  20.896  22.338   5.514
 4587POPC   PO458164  20.416  21.785   5.330
 4587POPC   GL158165  20.429  22.048   5.677
 4587POPC   GL258166  20.732  21.914   5.810
 4587POPC   C1A58167  20.339  22.041   6.131
 4587POPC   D2A58168  20.537  21.909   6.532
 4587POPC   C3A58169  20.345  22.138   6.852
 4587POPC   C4A58170  20.263  22.229   7.271
 4587POPC   C1B58171  20.813  22.226   6.155
 4587POPC   C2B58172  20.782  22.523   6.509
 4587POPC   C3B58173  20.778  22.408   6.947
 4587POPC   C4B58174  20.766  21.972   7.122
 4588POPC   NC358175  33.695  12.057   5.368
 4588POPC   PO458176  34.233  12.108   5.790
 4588POPC   GL158177  33.769  12.173   5.863
 4588POPC   GL258178  33.503  11.895   5.855
 4588POPC   C1A58179  33.552  12.231   6.253
 4588POPC   D2A58180  33.566  12.295   6.685
 4588POPC   C3A58181  33.932  12.219   6.917
 4588POPC   C4A58182  33.727  12.312   7.270
 4588POPC   C1B58183  33.375  11.625   6.237
 4588POPC   C2B58184  33.502  11.532   6.695
 4588POPC   C3B58185  33.541  11.839   7.047
 4588POPC   C4B58186  33.420  11.975   7.477
 4589POPC   NC358187  20.043  21.442   5.435
 4589POPC   PO458188  19.453  21.014   5.328
 4589POPC   GL158189  19.676  21.214   5.713
 4589POPC   GL258190  20.006  21.147   5.863
 4589POPC   C1A58191  19.670  21.406   6.162
 4589POPC   D2A58192  19.859  21.295   6.604
 4589POPC   C3A58193  19.671  21.211   7.029
 4589POPC   C4A58194  19.806  21.565   7.296
 4589POPC   C1B58195  20.207  21.105   6.261
 4589POPC   C2B58196  20.350  21.061   6.707
 4589POPC   C3B58197  20.161  21.255   7.057
 4589POPC   C4B58198  19.987  21.088   7.432
 4590POPC   NC358199   7.045  27.472   5.343
 4590POPC   PO458200   7.670  27.729   5.421
 4590POPC   GL158201   7.420  27.519   5.716
 4590POPC   GL258202   7.191  27.817   5.687
 4590POPC   C1A58203   7.373  27.400   6.171
 4590POPC   D2A58204   7.532  27.612   6.556
 4590POPC   C3A58205   7.674  27.510   6.996
 4590POPC   C4A58206   7.471  27.455   7.436
 4590POPC   C1B58207   7.277  27.925   6.107
 4590POPC   C2B58208   7.111  27.970   6.520
 4590POPC   C3B58209   7.252  27.847   6.938
 4590POPC   C4B58210   7.025  27.727   7.266
 4591POPC   NC358211  23.393  16.742   5.047
 4591POPC   PO458212  24.029  16.835   5.398
 4591POPC   GL158213  23.953  16.621   5.830
 4591POPC   GL258214  23.594  16.699   5.848
 4591POPC   C1A58215  23.804  16.625   6.300
 4591POPC   D2A58216  23.452  16.838   6.592
 4591POPC   C3A58217  23.518  16.956   7.053
 4591POPC   C4A58218  23.526  17.018   7.523
 4591POPC   C1B58219  23.325  16.499   6.158
 4591POPC   C2B58220  23.456  16.321   6.562
 4591POPC   C3B58221  23.335  16.351   6.971
 4591POPC   C4B58222  23.452  16.532   7.354
 4592POPC   NC358223  24.844  42.494   5.309
 4592POPC   PO458224  24.424  41.917   5.125
 4592POPC   GL158225  24.482  42.191   5.578
 4592POPC   GL258226  24.204  42.449   5.702
 4592POPC   C1A58227  24.627  42.390   6.010
 4592POPC   D2A58228  24.827  42.369   6.457
 4592POPC   C3A58229  24.598  42.464   6.854
 4592POPC   C4A58230  24.648  42.313   7.274
 4592POPC   C1B58231  24.124  42.337   6.169
 4592POPC   C2B58232  23.935  42.313   6.609
 4592POPC   C3B58233  24.123  42.330   7.059
 4592POPC   C4B58234  24.318  41.912   7.170
 4593POPC   NC358235   8.952   1.755   5.183
 4593POPC   PO458236   8.815   2.315   5.514
 4593POPC   GL158237   8.994   2.090   5.824
 4593POPC   GL258238   8.880   1.791   5.691
 4593POPC   C1A58239   9.091   2.106   6.279
 4593POPC   D2A58240   9.138   1.939   6.708
 4593POPC   C3A58241   8.993   2.119   7.101
 4593POPC   C4A58242   9.055   1.937   7.520
 4593POPC   C1B58243   8.804   1.707   6.132
 4593POPC   C2B58244   8.912   1.509   6.526
 4593POPC   C3B58245   9.103   1.443   6.931
 4593POPC   C4B58246   8.901   1.480   7.335
 4594POPC   NC358247  15.850   3.904   5.540
 4594POPC   PO458248  15.934   4.527   5.417
 4594POPC   GL158249  16.095   4.444   5.829
 4594POPC   GL258250  16.292   4.151   5.728
 4594POPC   C1A58251  15.964   4.397   6.297
 4594POPC   D2A58252  15.731   4.105   6.574
 4594POPC   C3A58253  15.849   4.133   7.011
 4594POPC   C4A58254  16.240   4.292   7.199
 4594POPC   C1B58255  16.171   3.986   6.111
 4594POPC   C2B58256  16.271   3.989   6.563
 4594POPC   C3B58257  16.250   3.812   6.976
 4594POPC   C4B58258  16.138   3.851   7.409
 4595POPC   NC358259  31.768  36.949   5.393
 4595POPC   PO458260  31.066  37.046   5.502
 4595POPC   GL158261  31.428  37.061   5.781
 4595POPC   GL258262  31.584  36.739   5.821
 4595POPC   C1A58263  31.438  37.092   6.234
 4595POPC   D2A58264  31.300  37.223   6.664
 4595POPC   C3A58265  31.359  36.925   7.024
 4595POPC   C4A58266  31.335  36.993   7.488
 4595POPC   C1B58267  31.815  36.737   6.184
 4595POPC   C2B58268  31.679  36.635   6.597
 4595POPC   C3B58269  31.820  36.638   6.977
 4595POPC   C4B58270  31.828  36.825   7.353
 4596POPC   NC358271   3.617  28.724   5.403
 4596POPC   PO458272   3.856  29.405   5.341
 4596POPC   GL158273   3.710  29.143   5.718
 4596POPC   GL258274   3.557  29.353   5.969
 4596POPC   C1A58275   3.637  28.875   6.108
 4596POPC   D2A58276   3.499  28.992   6.515
 4596POPC   C3A58277   3.751  28.961   6.863
 4596POPC   C4A58278   3.719  28.787   7.248
 4596POPC   C1B58279   3.211  29.333   6.270
 4596POPC   C2B58280   3.031  29.486   6.650
 4596POPC   C3B58281   3.159  29.426   7.089
 4596POPC   C4B58282   3.524  29.251   7.216
 4597POPC   NC358283  34.080   5.785   5.324
 4597POPC   PO458284  33.434   5.500   5.328
 4597POPC   GL158285  33.482   5.795   5.727
 4597POPC   GL258286  33.749   6.051   5.804
 4597POPC   C1A58287  33.426   5.936   6.186
 4597POPC   D2A58288  33.703   6.121   6.486
 4597POPC   C3A58289  33.733   5.959   6.870
 4597POPC   C4A58290  33.911   5.861   7.231
 4597POPC   C1B58291  34.056   5.998   6.156
 4597POPC   C2B58292  34.231   6.081   6.556
 4597POPC   C3B58293  34.172   6.213   6.975
 4597POPC   C4B58294  34.343   6.030   7.364
 4598POPC   NC358295  22.462  21.743   5.145
 4598POPC   PO458296  22.296  22.360   5.405
 4598POPC   GL158297  22.203  22.181   5.804
 4598POPC   GL258298  21.839  22.118   5.820
 4598POPC   C1A58299  22.452  22.103   6.205
 4598POPC   D2A58300  22.669  21.957   6.555
 4598POPC   C3A58301  22.499  22.011   6.947
 4598POPC   C4A58302  22.350  21.989   7.370
 4598POPC   C1B58303  21.979  21.901   6.176
 4598POPC   C2B58304  22.125  21.991   6.582
 4598POPC   C3B58305  21.990  21.898   6.978
 4598POPC   C4B58306  21.859  22.138   7.279
 4599POPC   NC358307   5.128  18.459   5.427
 4599POPC   PO458308   4.931  17.816   5.331
 4599POPC   GL158309   4.880  18.116   5.735
 4599POPC   GL258310   5.244  18.178   5.825
 4599POPC   C1A58311   4.712  18.288   6.192
 4599POPC   D2A58312   4.715  18.112   6.612
 4599POPC   C3A58313   4.930  18.208   7.006
 4599POPC   C4A58314   4.703  17.916   7.266
 4599POPC   C1B58315   5.203  18.337   6.222
 4599POPC   C2B58316   5.071  18.510   6.613
 4599POPC   C3B58317   5.318  18.556   6.992
 4599POPC   C4B58318   5.380  18.543   7.438
 4600POPC   NC358319  12.774  34.312   5.338
 4600POPC   PO458320  12.841  35.053   5.337
 4600POPC   GL158321  12.928  34.743   5.744
 4600POPC   GL258322  13.045  34.944   6.058
 4600POPC   C1A58323  12.941  34.457   6.168
 4600POPC   D2A58324  12.896  34.190   6.555
 4600POPC   C3A58325  12.970  34.255   6.994
 4600POPC   C4A58326  12.943  34.647   7.272
 4600POPC   C1B58327  13.299  34.774   6.380
 4600POPC   C2B58328  13.017  34.681   6.718
 4600POPC   C3B58329  12.637  34.838   6.878
 4600POPC   C4B58330  12.572  35.057   7.264
 4601POPC   NC358331   1.456  16.007   5.498
 4601POPC   PO458332   1.055  15.489   5.609
 4601POPC   GL158333   1.282  15.742   5.891
 4601POPC   GL258334   1.287  16.110   5.980
 4601POPC   C1A58335   1.537  15.743   6.264
 4601POPC   D2A58336   1.459  16.091   6.560
 4601POPC   C3A58337   1.164  15.938   6.847
 4601POPC   C4A58338   1.223  15.803   7.242
 4601POPC   C1B58339   1.051  15.891   6.321
 4601POPC   C2B58340   0.718  15.952   6.560
 4601POPC   C3B58341   0.600  16.187   6.859
 4601POPC   C4B58342   0.860  16.180   7.210
 4602POPC   NC358343  11.087   3.017   5.207
 4602POPC   PO458344  11.209   2.378   5.223
 4602POPC   GL158345  11.131   2.412   5.733
 4602POPC   GL258346  11.259   2.700   5.971
 4602POPC   C1A58347  11.068   2.289   6.187
 4602POPC   D2A58348  11.264   2.540   6.543
 4602POPC   C3A58349  11.004   2.687   6.868
 4602POPC   C4A58350  11.091   2.959   7.209
 4602POPC   C1B58351  11.566   2.866   6.306
 4602POPC   C2B58352  11.619   2.966   6.772
 4602POPC   C3B58353  11.632   3.075   7.246
 4602POPC   C4B58354  11.601   2.944   7.707
 4603POPC   NC358355  43.303  43.431   5.439
 4603POPC   PO458356  43.044  43.957   5.122
 4603POPC   GL158357  43.005  43.831   5.581
 4603POPC   GL258358  43.294  43.980   5.710
 4603POPC   C1A58359  42.982  43.721   6.059
 4603POPC   D2A58360  43.045  43.869   6.520
 4603POPC   C3A58361  43.218  43.678   6.896
 4603POPC   C4A58362  43.153  43.822   7.364
 4603POPC   C1B58363  43.365  44.063   6.166
 4603POPC   C2B58364  43.485  44.154   6.624
 4603POPC   C3B58365  43.599  43.976   7.057
 4603POPC   C4B58366  43.614  43.949   7.575
 4604POPC   NC358367  20.078  35.123   5.553
 4604POPC   PO458368  20.025  35.799   5.588
 4604POPC   GL158369  19.961  35.458   5.947
 4604POPC   GL258370  19.725  35.148   5.937
 4604POPC   C1A58371  19.999  35.282   6.381
 4604POPC   D2A58372  19.731  35.356   6.738
 4604POPC   C3A58373  19.873  35.484   7.149
 4604POPC   C4A58374  19.613  35.702   7.448
 4604POPC   C1B58375  19.509  35.075   6.323
 4604POPC   C2B58376  19.510  34.900   6.751
 4604POPC   C3B58377  19.584  35.061   7.175
 4604POPC   C4B58378  19.682  34.888   7.578
 4605POPC   NC358379  16.755  30.343   5.462
 4605POPC   PO458380  16.875  29.693   5.264
 4605POPC   GL158381  16.787  29.839   5.674
 4605POPC   GL258382  16.905  29.589   5.902
 4605POPC   C1A58383  16.626  30.018   6.074
 4605POPC   D2A58384  16.521  29.967   6.512
 4605POPC   C3A58385  16.686  30.272   6.792
 4605POPC   C4A58386  16.741  30.120   7.184
 4605POPC   C1B58387  16.780  29.561   6.315
 4605POPC   C2B58388  16.927  29.514   6.714
 4605POPC   C3B58389  16.866  29.607   7.149
 4605POPC   C4B58390  16.662  29.420   7.511
 4606POPC   NC358391  14.169   4.531   5.486
 4606POPC   PO458392  13.676   4.095   5.360
 4606POPC   GL158393  13.888   4.194   5.732
 4606POPC   GL258394  13.682   4.406   5.933
 4606POPC   C1A58395  13.991   4.029   6.106
 4606POPC   D2A58396  13.791   3.852   6.436
 4606POPC   C3A58397  13.625   4.141   6.738
 4606POPC   C4A58398  13.719   4.101   7.159
 4606POPC   C1B58399  13.330   4.599   6.109
 4606POPC   C2B58400  13.195   4.626   6.521
 4606POPC   C3B58401  13.394   4.577   6.921
 4606POPC   C4B58402  13.632   4.585   7.324
 4607POPC   NC358403  16.122   7.176   5.440
 4607POPC   PO458404  15.517   7.421   5.431
 4607POPC   GL158405  15.712   7.250   5.754
 4607POPC   GL258406  15.968   7.494   5.815
 4607POPC   C1A58407  15.662   7.118   6.176
 4607POPC   D2A58408  15.883   7.364   6.519
 4607POPC   C3A58409  15.822   7.218   6.951
 4607POPC   C4A58410  15.837   7.442   7.375
 4607POPC   C1B58411  16.180   7.662   6.180
 4607POPC   C2B58412  16.331   7.684   6.600
 4607POPC   C3B58413  16.189   7.597   6.997
 4607POPC   C4B58414  16.343   7.412   7.358
 4608POPC   NC358415  37.162  11.697   5.641
 4608POPC   PO458416  36.858  11.095   5.516
 4608POPC   GL158417  36.760  11.398   5.840
 4608POPC   GL258418  36.555  11.697   5.717
 4608POPC   C1A58419  36.884  11.295   6.274
 4608POPC   D2A58420  37.172  10.979   6.496
 4608POPC   C3A58421  37.154  11.063   6.927
 4608POPC   C4A58422  36.889  11.091   7.291
 4608POPC   C1B58423  36.387  11.592   6.127
 4608POPC   C2B58424  36.500  11.529   6.562
 4608POPC   C3B58425  36.618  11.480   7.015
 4608POPC   C4B58426  36.391  11.661   7.410
 4609POPC   NC358427  44.220   5.301   5.394
 4609POPC   PO458428  44.094   4.667   5.367
 4609POPC   GL158429  44.098   4.948   5.737
 4609POPC   GL258430  43.787   5.190   5.707
 4609POPC   C1A58431  43.983   5.030   6.171
 4609POPC   D2A58432  44.025   4.821   6.563
 4609POPC   C3A58433  43.909   4.997   6.942
 4609POPC   C4A58434  43.855   4.787   7.334
 4609POPC   C1B58435  43.648   5.459   6.091
 4609POPC   C2B58436  43.696   5.600   6.530
 4609POPC   C3B58437  43.634   5.476   6.968
 4609POPC   C4B58438  43.519   5.193   7.269
 4610POPC   NC358439  11.427   1.979   5.350
 4610POPC   PO458440  11.635   2.499   5.688
 4610POPC   GL158441  11.545   2.231   6.022
 4610POPC   GL258442  11.351   1.953   5.874
 4610POPC   C1A58443  11.457   2.074   6.452
 4610POPC   D2A58444  11.043   2.115   6.682
 4610POPC   C3A58445  11.150   2.215   7.044
 4610POPC   C4A58446  11.532   2.106   7.158
 4610POPC   C1B58447  11.112   1.780   6.219
 4610POPC   C2B58448  11.081   1.613   6.618
 4610POPC   C3B58449  11.212   1.701   7.015
 4610POPC   C4B58450  11.149   1.673   7.456
 4611POPC   NC358451  28.071  33.115   5.494
 4611POPC   PO458452  28.716  32.816   5.495
 4611POPC   GL158453  28.494  33.014   5.829
 4611POPC   GL258454  28.175  32.859   5.920
 4611POPC   C1A58455  28.646  32.983   6.259
 4611POPC   D2A58456  28.788  33.056   6.679
 4611POPC   C3A58457  28.505  33.114   6.966
 4611POPC   C4A58458  28.544  32.848   7.294
 4611POPC   C1B58459  28.193  33.192   6.257
 4611POPC   C2B58460  28.023  33.220   6.700
 4611POPC   C3B58461  28.041  32.960   7.093
 4611POPC   C4B58462  28.138  33.078   7.520
 4612POPC   NC358463  33.938   1.288   5.372
 4612POPC   PO458464  33.281   1.249   5.192
 4612POPC   GL158465  33.481   1.387   5.657
 4612POPC   GL258466  33.760   1.191   5.855
 4612POPC   C1A58467  33.509   1.500   6.137
 4612POPC   D2A58468  33.766   1.313   6.511
 4612POPC   C3A58469  33.636   1.369   6.959
 4612POPC   C4A58470  33.819   1.352   7.358
 4612POPC   C1B58471  34.031   0.962   6.152
 4612POPC   C2B58472  34.117   0.912   6.575
 4612POPC   C3B58473  33.908   0.949   6.927
 4612POPC   C4B58474  34.040   0.888   7.311
 4613POPC   NC358475   1.592   1.767   5.550
 4613POPC   PO458476   1.120   2.305   5.444
 4613POPC   GL158477   1.226   2.052   5.800
 4613POPC   GL258478   1.175   1.675   5.868
 4613POPC   C1A58479   1.371   2.027   6.204
 4613POPC   D2A58480   1.241   2.112   6.609
 4613POPC   C3A58481   1.423   1.826   6.902
 4613POPC   C4A58482   1.485   1.871   7.333
 4613POPC   C1B58483   0.912   1.831   6.261
 4613POPC   C2B58484   0.725   1.796   6.638
 4613POPC   C3B58485   0.940   1.944   7.010
 4613POPC   C4B58486   0.906   1.733   7.399
 4614POPC   NC358487  19.272  31.003   5.599
 4614POPC   PO458488  18.838  31.398   5.230
 4614POPC   GL158489  19.045  31.492   5.683
 4614POPC   GL258490  19.059  31.262   5.982
 4614POPC   C1A58491  19.005  31.733   6.095
 4614POPC   D2A58492  19.112  31.718   6.529
 4614POPC   C3A58493  19.303  31.591   6.917
 4614POPC   C4A58494  19.024  31.486   7.240
 4614POPC   C1B58495  18.771  31.344   6.340
 4614POPC   C2B58496  18.521  31.444   6.685
 4614POPC   C3B58497  18.624  31.212   7.026
 4614POPC   C4B58498  18.910  30.992   7.259
 4615POPC   NC358499  32.025  22.058   5.322
 4615POPC   PO458500  32.301  22.539   5.619
 4615POPC   GL158501  32.475  22.141   5.804
 4615POPC   GL258502  32.310  21.815   5.746
 4615POPC   C1A58503  32.425  21.948   6.225
 4615POPC   D2A58504  32.153  22.060   6.551
 4615POPC   C3A58505  32.321  22.134   6.959
 4615POPC   C4A58506  32.102  22.445   7.217
 4615POPC   C1B58507  31.926  21.867   6.048
 4615POPC   C2B58508  31.799  21.697   6.459
 4615POPC   C3B58509  31.815  21.875   6.909
 4615POPC   C4B58510  32.031  21.909   7.314
 4616POPC   NC358511  31.486   5.834   5.428
 4616POPC   PO458512  31.758   5.308   5.739
 4616POPC   GL158513  31.387   5.585   5.898
 4616POPC   GL258514  31.332   5.956   5.881
 4616POPC   C1A58515  31.261   5.735   6.332
 4616POPC   D2A58516  31.546   5.802   6.677
 4616POPC   C3A58517  31.540   5.647   7.095
 4616POPC   C4A58518  31.848   5.444   7.365
 4616POPC   C1B58519  31.302   6.260   6.175
 4616POPC   C2B58520  31.522   6.283   6.544
 4616POPC   C3B58521  31.369   6.264   6.941
 4616POPC   C4B58522  31.327   6.059   7.308
 4617POPC   NC358523  37.865   2.111   5.100
 4617POPC   PO458524  37.421   2.479   5.499
 4617POPC   GL158525  37.422   2.276   5.895
 4617POPC   GL258526  37.715   2.105   5.880
 4617POPC   C1A58527  37.525   2.167   6.317
 4617POPC   D2A58528  37.893   2.301   6.494
 4617POPC   C3A58529  37.654   2.368   6.826
 4617POPC   C4A58530  37.547   2.160   7.196
 4617POPC   C1B58531  37.945   1.884   6.204
 4617POPC   C2B58532  37.824   1.823   6.659
 4617POPC   C3B58533  37.991   1.932   7.048
 4617POPC   C4B58534  37.878   1.854   7.459
 4618POPC   NC358535  35.645  33.086   5.508
 4618POPC   PO458536  36.289  32.988   5.406
 4618POPC   GL158537  36.060  33.031   5.802
 4618POPC   GL258538  35.967  32.689   5.778
 4618POPC   C1A58539  36.005  33.198   6.227
 4618POPC   D2A58540  36.225  33.266   6.616
 4618POPC   C3A58541  35.950  33.253   6.973
 4618POPC   C4A58542  35.829  33.099   7.397
 4618POPC   C1B58543  35.794  32.739   6.178
 4618POPC   C2B58544  35.832  32.870   6.615
 4618POPC   C3B58545  35.930  32.732   7.031
 4618POPC   C4B58546  36.265  32.503   7.207
 4619POPC   NC358547  23.719  15.869   5.409
 4619POPC   PO458548  23.332  16.447   5.461
 4619POPC   GL158549  23.592  16.190   5.789
 4619POPC   GL258550  23.506  15.816   5.861
 4619POPC   C1A58551  23.769  16.117   6.199
 4619POPC   D2A58552  23.752  15.893   6.605
 4619POPC   C3A58553  23.758  16.033   7.039
 4619POPC   C4A58554  23.741  15.734   7.416
 4619POPC   C1B58555  23.496  15.577   6.271
 4619POPC   C2B58556  23.550  15.434   6.711
 4619POPC   C3B58557  23.647  15.314   7.141
 4619POPC   C4B58558  23.712  15.248   7.600
 4620POPC   NC358559  33.335  30.308   5.430
 4620POPC   PO458560  32.740  29.985   5.424
 4620POPC   GL158561  33.099  29.933   5.706
 4620POPC   GL258562  33.346  29.662   5.679
 4620POPC   C1A58563  33.165  30.163   6.087
 4620POPC   D2A58564  33.186  30.208   6.535
 4620POPC   C3A58565  32.880  29.983   6.754
 4620POPC   C4A58566  33.036  30.014   7.144
 4620POPC   C1B58567  33.247  29.649   6.136
 4620POPC   C2B58568  33.304  29.654   6.611
 4620POPC   C3B58569  33.034  29.516   6.943
 4620POPC   C4B58570  32.635  29.630   7.104
 4621POPC   NC358571  22.134  23.213   5.574
 4621POPC   PO458572  22.103  23.909   5.611
 4621POPC   GL158573  22.267  23.599   5.904
 4621POPC   GL258574  22.472  23.836   6.044
 4621POPC   C1A58575  22.059  23.490   6.312
 4621POPC   D2A58576  21.736  23.537   6.671
 4621POPC   C3A58577  21.832  23.786   7.076
 4621POPC   C4A58578  22.016  23.680   7.511
 4621POPC   C1B58579  22.588  23.527   6.354
 4621POPC   C2B58580  22.691  23.707   6.702
 4621POPC   C3B58581  22.541  24.012   6.922
 4621POPC   C4B58582  22.254  24.049   7.254
 4622POPC   NC358583  33.592   8.177   5.376
 4622POPC   PO458584  34.263   8.198   5.464
 4622POPC   GL158585  33.979   8.008   5.801
 4622POPC   GL258586  33.608   7.848   5.765
 4622POPC   C1A58587  34.025   8.171   6.258
 4622POPC   D2A58588  34.060   8.108   6.724
 4622POPC   C3A58589  33.850   8.417   7.000
 4622POPC   C4A58590  33.501   8.375   7.294
 4622POPC   C1B58591  33.579   7.934   6.205
 4622POPC   C2B58592  33.493   8.104   6.631
 4622POPC   C3B58593  33.636   7.962   7.029
 4622POPC   C4B58594  33.589   7.603   7.255
 4623POPC   NC358595   3.980  27.165   5.551
 4623POPC   PO458596   3.533  27.627   5.361
 4623POPC   GL158597   3.469  27.361   5.740
 4623POPC   GL258598   3.777  27.385   5.971
 4623POPC   C1A58599   3.321  27.473   6.179
 4623POPC   D2A58600   3.613  27.492   6.549
 4623POPC   C3A58601   3.450  27.402   6.959
 4623POPC   C4A58602   3.247  27.633   7.263
 4623POPC   C1B58603   3.731  27.827   6.156
 4623POPC   C2B58604   3.845  27.973   6.580
 4623POPC   C3B58605   3.804  27.772   6.971
 4623POPC   C4B58606   3.671  27.894   7.373
 4624POPC   NC358607  20.232  30.982   5.501
 4624POPC   PO458608  20.738  30.492   5.358
 4624POPC   GL158609  20.562  30.672   5.724
 4624POPC   GL258610  20.622  31.027   5.809
 4624POPC   C1A58611  20.515  30.636   6.133
 4624POPC   D2A58612  20.783  30.530   6.444
 4624POPC   C3A58613  20.590  30.536   6.834
 4624POPC   C4A58614  20.733  30.364   7.226
 4624POPC   C1B58615  20.402  31.133   6.165
 4624POPC   C2B58616  20.506  30.966   6.527
 4624POPC   C3B58617  20.805  31.022   6.795
 4624POPC   C4B58618  20.697  30.868   7.205
 4625POPC   NC358619  34.478  35.246   5.447
 4625POPC   PO458620  34.737  35.854   5.353
 4625POPC   GL158621  34.833  35.569   5.698
 4625POPC   GL258622  34.516  35.495   5.891
 4625POPC   C1A58623  34.937  35.569   6.169
 4625POPC   D2A58624  34.652  35.352   6.468
 4625POPC   C3A58625  34.539  35.509   6.860
 4625POPC   C4A58626  34.727  35.329   7.213
 4625POPC   C1B58627  34.289  35.177   6.133
 4625POPC   C2B58628  34.095  35.170   6.559
 4625POPC   C3B58629  34.253  35.074   6.936
 4625POPC   C4B58630  34.223  35.379   7.248
 4626POPC   NC358631  17.715  33.164   5.466
 4626POPC   PO458632  17.073  33.142   5.481
 4626POPC   GL158633  17.345  33.097   5.838
 4626POPC   GL258634  17.650  32.872   5.900
 4626POPC   C1A58635  17.267  33.008   6.268
 4626POPC   D2A58636  17.474  32.836   6.647
 4626POPC   C3A58637  17.425  32.903   7.117
 4626POPC   C4A58638  17.340  33.154   7.522
 4626POPC   C1B58639  17.800  33.274   6.112
 4626POPC   C2B58640  17.987  33.356   6.500
 4626POPC   C3B58641  17.816  33.190   6.877
 4626POPC   C4B58642  17.795  33.217   7.306
 4627POPC   NC358643  30.575  36.980   5.368
 4627POPC   PO458644  30.803  36.350   5.370
 4627POPC   GL158645  30.732  36.672   5.752
 4627POPC   GL258646  30.437  36.890   5.831
 4627POPC   C1A58647  30.890  36.842   6.153
 4627POPC   D2A58648  30.798  36.926   6.586
 4627POPC   C3A58649  30.912  36.674   6.941
 4627POPC   C4A58650  30.894  37.019   7.215
 4627POPC   C1B58651  30.409  37.059   6.233
 4627POPC   C2B58652  30.253  36.845   6.569
 4627POPC   C3B58653  30.425  36.893   6.954
 4627POPC   C4B58654  30.512  36.714   7.327
 4628POPC   NC358655  41.917   7.429   5.422
 4628POPC   PO458656  41.184   7.247   5.426
 4628POPC   GL158657  41.470   7.391   5.777
 4628POPC   GL258658  41.802   7.267   5.895
 4628POPC   C1A58659  41.444   7.395   6.259
 4628POPC   D2A58660  41.429   7.618   6.649
 4628POPC   C3A58661  41.561   7.461   7.040
 4628POPC   C4A58662  41.355   7.550   7.411
 4628POPC   C1B58663  41.834   7.687   6.109
 4628POPC   C2B58664  41.831   7.928   6.512
 4628POPC   C3B58665  41.935   7.805   6.954
 4628POPC   C4B58666  42.056   7.356   7.039
 4629POPC   NC358667   0.849  27.071   5.574
 4629POPC   PO458668   0.370  26.670   5.645
 4629POPC   GL158669   0.447  27.021   5.892
 4629POPC   GL258670   0.136  27.117   5.973
 4629POPC   C1A58671   0.627  27.012   6.311
 4629POPC   D2A58672   0.719  26.743   6.671
 4629POPC   C3A58673   0.594  26.974   7.078
 4629POPC   C4A58674   0.587  27.087   7.604
 4629POPC   C1B58675   0.176  26.763   6.273
 4629POPC   C2B58676   0.229  26.870   6.693
 4629POPC   C3B58677   0.063  26.776   7.081
 4629POPC   C4B58678   0.169  27.102   7.328
 4630POPC   NC358679  23.583   2.898   5.422
 4630POPC   PO458680  24.113   2.516   5.344
 4630POPC   GL158681  23.846   2.529   5.722
 4630POPC   GL258682  23.859   2.865   5.888
 4630POPC   C1A58683  23.609   2.496   6.123
 4630POPC   D2A58684  23.800   2.589   6.556
 4630POPC   C3A58685  23.506   2.558   6.917
 4630POPC   C4A58686  23.340   2.916   7.181
 4630POPC   C1B58687  23.579   2.975   6.271
 4630POPC   C2B58688  23.576   3.036   6.720
 4630POPC   C3B58689  23.867   2.880   7.056
 4630POPC   C4B58690  24.068   3.051   7.443
 4631POPC   NC358691  17.005  26.366   5.304
 4631POPC   PO458692  17.641  25.967   5.310
 4631POPC   GL158693  17.504  26.039   5.738
 4631POPC   GL258694  17.242  26.257   5.731
 4631POPC   C1A58695  17.518  26.172   6.159
 4631POPC   D2A58696  17.675  26.192   6.541
 4631POPC   C3A58697  17.435  26.290   6.868
 4631POPC   C4A58698  17.574  26.227   7.278
 4631POPC   C1B58699  17.084  25.948   6.037
 4631POPC   C2B58700  17.198  25.914   6.477
 4631POPC   C3B58701  17.085  25.890   6.892
 4631POPC   C4B58702  17.104  26.077   7.290
 4632POPC   NC358703   0.771  36.960   5.530
 4632POPC   PO458704   0.108  36.652   5.256
 4632POPC   GL158705   0.311  36.781   5.672
 4632POPC   GL258706   0.200  37.111   5.755
 4632POPC   C1A58707   0.527  36.679   6.088
 4632POPC   D2A58708   0.433  36.579   6.507
 4632POPC   C3A58709   0.551  36.841   6.850
 4632POPC   C4A58710   0.286  36.842   7.192
 4632POPC   C1B58711   0.422  37.173   6.165
 4632POPC   C2B58712   0.295  37.282   6.589
 4632POPC   C3B58713   0.449  37.339   6.999
 4632POPC   C4B58714   0.660  37.169   7.324
 4633POPC   NC358715  30.993  34.325   5.410
 4633POPC   PO458716  30.619  34.933   5.395
 4633POPC   GL158717  30.782  34.693   5.719
 4633POPC   GL258718  30.608  34.415   5.805
 4633POPC   C1A58719  30.902  34.665   6.151
 4633POPC   D2A58720  30.664  34.606   6.520
 4633POPC   C3A58721  30.844  34.668   6.917
 4633POPC   C4A58722  30.892  34.898   7.270
 4633POPC   C1B58723  30.582  34.193   6.180
 4633POPC   C2B58724  30.437  34.167   6.608
 4633POPC   C3B58725  30.606  34.226   7.031
 4633POPC   C4B58726  30.780  34.415   7.398
 4634POPC   NC358727  37.362  12.515   5.432
 4634POPC   PO458728  38.076  12.527   5.420
 4634POPC   GL158729  37.727  12.736   5.704
 4634POPC   GL258730  37.640  13.090   5.707
 4634POPC   C1A58731  37.542  12.552   6.101
 4634POPC   D2A58732  37.825  12.422   6.445
 4634POPC   C3A58733  37.771  12.561   6.875
 4634POPC   C4A58734  37.890  12.718   7.293
 4634POPC   C1B58735  37.429  13.065   6.113
 4634POPC   C2B58736  37.499  12.868   6.513
 4634POPC   C3B58737  37.455  12.955   6.936
 4634POPC   C4B58738  37.432  12.906   7.369
 4635POPC   NC358739  41.783  22.267   5.361
 4635POPC   PO458740  41.210  21.909   5.408
 4635POPC   GL158741  41.468  22.133   5.747
 4635POPC   GL258742  41.227  22.345   5.872
 4635POPC   C1A58743  41.604  22.373   6.182
 4635POPC   D2A58744  41.374  22.427   6.615
 4635POPC   C3A58745  41.602  22.426   7.045
 4635POPC   C4A58746  41.647  22.183   7.459
 4635POPC   C1B58747  41.229  21.999   6.173
 4635POPC   C2B58748  41.001  21.842   6.506
 4635POPC   C3B58749  41.196  21.897   6.862
 4635POPC   C4B58750  41.227  22.112   7.187
 4636POPC   NC358751  16.354  27.741   5.102
 4636POPC   PO458752  16.922  27.465   5.304
 4636POPC   GL158753  17.051  27.522   5.762
 4636POPC   GL258754  16.933  27.246   5.980
 4636POPC   C1A58755  16.897  27.774   6.107
 4636POPC   D2A58756  16.872  27.557   6.477
 4636POPC   C3A58757  16.828  27.544   6.891
 4636POPC   C4A58758  16.888  27.379   7.282
 4636POPC   C1B58759  16.516  27.363   6.174
 4636POPC   C2B58760  16.360  27.405   6.625
 4636POPC   C3B58761  16.394  27.311   7.081
 4636POPC   C4B58762  16.451  27.464   7.528
 4637POPC   NC358763  40.209  22.580   5.481
 4637POPC   PO458764  40.306  23.294   5.512
 4637POPC   GL158765  40.046  23.033   5.723
 4637POPC   GL258766  40.319  22.873   5.896
 4637POPC   C1A58767  39.859  23.023   6.117
 4637POPC   D2A58768  40.081  22.932   6.475
 4637POPC   C3A58769  39.906  22.760   6.820
 4637POPC   C4A58770  39.799  23.017   7.141
 4637POPC   C1B58771  40.347  23.268   6.158
 4637POPC   C2B58772  40.272  23.409   6.580
 4637POPC   C3B58773  40.271  23.121   6.949
 4637POPC   C4B58774  40.218  23.186   7.390
 4638POPC   NC358775  17.921   8.086   5.537
 4638POPC   PO458776  18.412   8.585   5.389
 4638POPC   GL158777  18.307   8.415   5.811
 4638POPC   GL258778  18.354   8.050   5.792
 4638POPC   C1A58779  18.019   8.314   6.167
 4638POPC   D2A58780  17.945   8.099   6.561
 4638POPC   C3A58781  18.233   8.293   6.837
 4638POPC   C4A58782  18.263   8.468   7.250
 4638POPC   C1B58783  18.223   7.831   6.186
 4638POPC   C2B58784  18.444   7.842   6.566
 4638POPC   C3B58785  18.519   7.901   6.994
 4638POPC   C4B58786  18.127   7.943   7.199
 4639POPC   NC358787  42.917   9.800   5.520
 4639POPC   PO458788  43.580   9.921   5.354
 4639POPC   GL158789  43.369   9.706   5.716
 4639POPC   GL258790  43.348  10.058   5.811
 4639POPC   C1A58791  43.128   9.752   6.154
 4639POPC   D2A58792  42.834   9.896   6.478
 4639POPC   C3A58793  42.965   9.833   6.935
 4639POPC   C4A58794  43.178   9.564   7.250
 4639POPC   C1B58795  43.476  10.168   6.213
 4639POPC   C2B58796  43.338   9.985   6.592
 4639POPC   C3B58797  43.553   9.969   6.977
 4639POPC   C4B58798  43.535   9.975   7.399
 4640POPC   NC358799  17.451   0.009   5.434
 4640POPC   PO458800  17.315   0.723   5.436
 4640POPC   GL158801  17.548   0.502   5.803
 4640POPC   GL258802  17.429   0.167   5.933
 4640POPC   C1A58803  17.821   0.497   6.208
 4640POPC   D2A58804  17.897   0.625   6.670
 4640POPC   C3A58805  17.876   0.289   7.028
 4640POPC   C4A58806  17.898   0.355   7.503
 4640POPC   C1B58807  17.322   0.410   6.307
 4640POPC   C2B58808  17.413   0.432   6.741
 4640POPC   C3B58809  17.355   0.160   7.079
 4640POPC   C4B58810  17.144   0.261   7.423
 4641POPC   NC358811  34.274  30.040   5.200
 4641POPC   PO458812  33.623  29.955   5.381
 4641POPC   GL158813  33.614  30.090   5.822
 4641POPC   GL258814  33.885  29.917   5.993
 4641POPC   C1A58815  33.637  30.290   6.247
 4641POPC   D2A58816  33.738  29.992   6.574
 4641POPC   C3A58817  33.530  30.021   6.954
 4641POPC   C4A58818  33.413  29.705   7.228
 4641POPC   C1B58819  34.144  30.194   6.273
 4641POPC   C2B58820  34.034  30.382   6.669
 4641POPC   C3B58821  34.066  30.064   7.017
 4641POPC   C4B58822  33.823  30.033   7.389
 4642POPC   NC358823   0.140  17.790   5.492
 4642POPC   PO458824   0.510  18.447   5.534
 4642POPC   GL158825   0.373  18.382   5.947
 4642POPC   GL258826   0.357  18.038   5.883
 4642POPC   C1A58827   0.440  18.302   6.403
 4642POPC   D2A58828   0.591  18.266   6.799
 4642POPC   C3A58829   0.389  18.194   7.167
 4642POPC   C4A58830   0.480  18.147   7.616
 4642POPC   C1B58831   0.729  18.007   6.117
 4642POPC   C2B58832   0.783  17.845   6.555
 4642POPC   C3B58833   0.609  17.750   6.950
 4642POPC   C4B58834   0.815  17.867   7.329
 4643POPC   NC358835  19.630  36.006   5.419
 4643POPC   PO458836  20.119  36.436   5.394
 4643POPC   GL158837  19.882  36.280   5.772
 4643POPC   GL258838  19.448  36.312   5.769
 4643POPC   C1A58839  19.968  36.124   6.200
 4643POPC   D2A58840  19.876  35.786   6.495
 4643POPC   C3A58841  19.752  35.920   6.922
 4643POPC   C4A58842  19.797  36.159   7.295
 4643POPC   C1B58843  19.452  36.101   6.158
 4643POPC   C2B58844  19.600  36.241   6.543
 4643POPC   C3B58845  19.419  36.332   6.938
 4643POPC   C4B58846  19.279  36.032   7.207
 4644POPC   NC358847  23.113  31.806   5.433
 4644POPC   PO458848  22.582  31.348   5.499
 4644POPC   GL158849  22.955  31.410   5.744
 4644POPC   GL258850  22.772  31.693   5.863
 4644POPC   C1A58851  23.168  31.549   6.149
 4644POPC   D2A58852  22.990  31.498   6.573
 4644POPC   C3A58853  23.181  31.577   6.981
 4644POPC   C4A58854  23.079  31.383   7.375
 4644POPC   C1B58855  22.638  31.363   6.191
 4644POPC   C2B58856  22.566  31.221   6.636
 4644POPC   C3B58857  22.647  31.407   7.032
 4644POPC   C4B58858  22.593  31.302   7.468
 4645POPC   NC358859  27.568  27.160   5.598
 4645POPC   PO458860  27.340  27.773   5.373
 4645POPC   GL158861  27.258  27.593   5.825
 4645POPC   GL258862  27.182  27.257   5.962
 4645POPC   C1A58863  27.454  27.712   6.249
 4645POPC   D2A58864  27.718  27.850   6.605
 4645POPC   C3A58865  27.565  27.734   7.006
 4645POPC   C4A58866  27.860  27.717   7.372
 4645POPC   C1B58867  27.563  27.229   6.233
 4645POPC   C2B58868  27.685  27.332   6.634
 4645POPC   C3B58869  27.818  27.308   7.064
 4645POPC   C4B58870  27.527  27.212   7.389
 4646POPC   NC358871   9.246   2.479   5.545
 4646POPC   PO458872   8.747   2.882   5.386
 4646POPC   GL158873   8.935   2.828   5.788
 4646POPC   GL258874   9.311   2.892   5.845
 4646POPC   C1A58875   8.995   2.609   6.173
 4646POPC   D2A58876   9.138   2.761   6.555
 4646POPC   C3A58877   8.866   2.673   6.882
 4646POPC   C4A58878   8.966   2.742   7.268
 4646POPC   C1B58879   9.482   3.018   6.245
 4646POPC   C2B58880   9.374   3.218   6.642
 4646POPC   C3B58881   9.277   3.108   7.070
 4646POPC   C4B58882   9.224   3.084   7.528
 4647POPC   NC358883  17.844   6.227   5.627
 4647POPC   PO458884  18.437   5.929   5.278
 4647POPC   GL158885  18.408   5.951   5.728
 4647POPC   GL258886  18.534   5.616   5.748
 4647POPC   C1A58887  18.440   6.070   6.203
 4647POPC   D2A58888  18.172   6.042   6.599
 4647POPC   C3A58889  18.352   6.014   7.015
 4647POPC   C4A58890  18.573   6.070   7.402
 4647POPC   C1B58891  18.277   5.597   6.101
 4647POPC   C2B58892  18.406   5.558   6.507
 4647POPC   C3B58893  18.394   5.354   6.883
 4647POPC   C4B58894  18.260   5.551   7.227
 4648POPC   NC358895  38.334  31.423   5.468
 4648POPC   PO458896  38.764  31.890   5.582
 4648POPC   GL158897  38.734  31.542   5.835
 4648POPC   GL258898  38.745  31.191   5.685
 4648POPC   C1A58899  38.423  31.499   6.171
 4648POPC   D2A58900  38.267  31.559   6.591
 4648POPC   C3A58901  38.322  31.340   6.988
 4648POPC   C4A58902  38.381  31.710   7.264
 4648POPC   C1B58903  38.778  31.127   6.110
 4648POPC   C2B58904  38.873  31.436   6.421
 4648POPC   C3B58905  38.796  31.450   6.867
 4648POPC   C4B58906  38.757  31.096   7.192
 4649POPC   NC358907   5.339  23.416   5.508
 4649POPC   PO458908   4.851  22.947   5.436
 4649POPC   GL158909   5.174  22.962   5.771
 4649POPC   GL258910   5.049  23.256   5.888
 4649POPC   C1A58911   5.351  22.943   6.230
 4649POPC   D2A58912   5.387  23.115   6.658
 4649POPC   C3A58913   5.050  23.016   6.954
 4649POPC   C4A58914   4.936  22.707   7.233
 4649POPC   C1B58915   4.788  23.336   6.218
 4649POPC   C2B58916   4.930  23.413   6.647
 4649POPC   C3B58917   4.884  23.499   7.070
 4649POPC   C4B58918   5.086  23.289   7.433
 4650POPC   NC358919   7.621  22.458   5.609
 4650POPC   PO458920   7.154  22.091   5.423
 4650POPC   GL158921   7.204  22.170   5.848
 4650POPC   GL258922   7.174  22.511   5.896
 4650POPC   C1A58923   7.551  22.012   6.119
 4650POPC   D2A58924   7.751  22.152   6.513
 4650POPC   C3A58925   7.612  21.994   6.902
 4650POPC   C4A58926   7.539  22.104   7.305
 4650POPC   C1B58927   7.279  22.386   6.329
 4650POPC   C2B58928   7.195  22.302   6.767
 4650POPC   C3B58929   7.216  22.481   7.203
 4650POPC   C4B58930   7.140  22.647   7.632
 4651POPC   NC358931   4.709   7.624   5.413
 4651POPC   PO458932   4.183   7.424   5.286
 4651POPC   GL158933   4.128   7.508   5.748
 4651POPC   GL258934   4.462   7.526   5.832
 4651POPC   C1A58935   4.133   7.566   6.217
 4651POPC   D2A58936   4.282   7.270   6.544
 4651POPC   C3A58937   4.058   7.201   6.947
 4651POPC   C4A58938   4.150   7.322   7.379
 4651POPC   C1B58939   4.600   7.833   6.112
 4651POPC   C2B58940   4.555   7.741   6.551
 4651POPC   C3B58941   4.435   7.562   6.951
 4651POPC   C4B58942   4.672   7.441   7.300
 4652POPC   NC358943  42.797   4.002   5.311
 4652POPC   PO458944  42.519   4.619   5.279
 4652POPC   GL158945  42.534   4.340   5.668
 4652POPC   GL258946  42.257   4.429   5.864
 4652POPC   C1A58947  42.579   4.079   6.054
 4652POPC   D2A58948  42.371   4.277   6.401
 4652POPC   C3A58949  42.404   4.183   6.831
 4652POPC   C4A58950  42.573   4.333   7.207
 4652POPC   C1B58951  42.090   4.679   6.206
 4652POPC   C2B58952  41.999   4.564   6.632
 4652POPC   C3B58953  42.169   4.624   7.037
 4652POPC   C4B58954  42.068   4.480   7.447
 4653POPC   NC358955  17.074  29.354   5.495
 4653POPC   PO458956  16.548  28.966   5.379
 4653POPC   GL158957  16.731  29.086   5.768
 4653POPC   GL258958  17.050  28.909   5.807
 4653POPC   C1A58959  16.595  29.093   6.178
 4653POPC   D2A58960  16.770  28.915   6.554
 4653POPC   C3A58961  16.647  29.124   6.929
 4653POPC   C4A58962  16.627  28.915   7.301
 4653POPC   C1B58963  17.095  29.151   6.191
 4653POPC   C2B58964  17.290  29.139   6.585
 4653POPC   C3B58965  17.155  28.925   6.950
 4653POPC   C4B58966  17.062  29.152   7.286
 4654POPC   NC358967   2.748  30.074   5.343
 4654POPC   PO458968   2.143  29.745   5.397
 4654POPC   GL158969   2.561  29.766   5.728
 4654POPC   GL258970   2.810  30.081   5.843
 4654POPC   C1A58971   2.782  29.677   6.150
 4654POPC   D2A58972   2.850  29.953   6.488
 4654POPC   C3A58973   2.649  29.794   6.843
 4654POPC   C4A58974   2.790  29.755   7.250
 4654POPC   C1B58975   3.133  30.254   6.157
 4654POPC   C2B58976   3.129  30.365   6.619
 4654POPC   C3B58977   2.824  30.265   6.953
 4654POPC   C4B58978   2.849  30.239   7.399
 4655POPC   NC358979  13.070  26.473   5.508
 4655POPC   PO458980  12.947  25.753   5.406
 4655POPC   GL158981  12.874  26.052   5.750
 4655POPC   GL258982  13.229  26.113   5.842
 4655POPC   C1A58983  12.596  26.089   6.120
 4655POPC   D2A58984  12.451  25.914   6.515
 4655POPC   C3A58985  12.666  25.917   6.915
 4655POPC   C4A58986  12.761  26.072   7.330
 4655POPC   C1B58987  13.090  25.937   6.239
 4655POPC   C2B58988  13.103  25.999   6.660
 4655POPC   C3B58989  13.187  25.931   7.095
 4655POPC   C4B58990  13.143  25.849   7.572
 4656POPC   NC358991   4.711   8.620   5.494
 4656POPC   PO458992   5.120   9.205   5.472
 4656POPC   GL158993   5.325   9.174   5.864
 4656POPC   GL258994   5.103   8.869   5.871
 4656POPC   C1A58995   5.223   9.429   6.264
 4656POPC   D2A58996   5.001   9.313   6.657
 4656POPC   C3A58997   5.276   9.234   6.983
 4656POPC   C4A58998   5.341   9.109   7.394
 4656POPC   C1B58999   5.088   8.941   6.291
 4656POPC   C2B59000   5.326   8.865   6.642
 4656POPC   C3B59001   5.214   8.722   7.038
 4656POPC   C4B59002   4.810   8.779   7.203
 4657POPC   NC359003  41.348  15.777   5.385
 4657POPC   PO459004  41.719  16.315   5.325
 4657POPC   GL159005  41.761  16.065   5.709
 4657POPC   GL259006  41.521  15.842   5.855
 4657POPC   C1A59007  41.883  16.139   6.125
 4657POPC   D2A59008  41.765  16.088   6.545
 4657POPC   C3A59009  41.744  16.201   6.955
 4657POPC   C4A59010  42.130  16.112   7.184
 4657POPC   C1B59011  41.637  15.688   6.248
 4657POPC   C2B59012  41.547  15.385   6.568
 4657POPC   C3B59013  41.395  15.394   6.973
 4657POPC   C4B59014  41.318  15.690   7.270
 4658POPC   NC359015   1.258  20.151   5.137
 4658POPC   PO459016   1.522  19.626   5.462
 4658POPC   GL159017   1.416  19.627   5.879
 4658POPC   GL259018   1.682  19.447   5.944
 4658POPC   C1A59019   1.132  19.690   6.244
 4658POPC   D2A59020   1.056  19.498   6.654
 4658POPC   C3A59021   1.115  19.781   7.028
 4658POPC   C4A59022   0.925  19.826   7.459
 4658POPC   C1B59023   1.534  19.413   6.362
 4658POPC   C2B59024   1.521  19.734   6.653
 4658POPC   C3B59025   1.635  19.768   7.058
 4658POPC   C4B59026   1.586  19.540   7.446
 4659POPC   NC359027  33.813   5.213   5.261
 4659POPC   PO459028  33.518   4.686   5.449
 4659POPC   GL159029  33.679   4.940   5.787
 4659POPC   GL259030  33.633   5.293   5.756
 4659POPC   C1A59031  33.848   5.106   6.196
 4659POPC   D2A59032  34.031   5.060   6.569
 4659POPC   C3A59033  33.996   4.890   6.986
 4659POPC   C4A59034  33.885   4.913   7.421
 4659POPC   C1B59035  33.813   5.581   6.050
 4659POPC   C2B59036  33.742   5.587   6.509
 4659POPC   C3B59037  33.899   5.416   6.927
 4659POPC   C4B59038  33.778   5.407   7.393
 4660POPC   NC359039   0.916   0.309   5.453
 4660POPC   PO459040   0.340   0.024   5.440
 4660POPC   GL159041   0.455   0.408   5.701
 4660POPC   GL259042   0.188   0.636   5.752
 4660POPC   C1A59043   0.484   0.507   6.160
 4660POPC   D2A59044   0.677   0.426   6.568
 4660POPC   C3A59045   0.547   0.611   6.936
 4660POPC   C4A59046   0.303   0.357   7.192
 4660POPC   C1B59047   0.128   0.879   6.136
 4660POPC   C2B59048   0.241   0.838   6.568
 4660POPC   C3B59049   0.061   0.762   6.968
 4660POPC   C4B59050   0.197   1.008   7.279
 4661POPC   NC359051  18.539  13.085   5.738
 4661POPC   PO459052  18.142  12.594   5.537
 4661POPC   GL159053  18.186  12.725   5.943
 4661POPC   GL259054  17.946  12.988   5.914
 4661POPC   C1A59055  18.396  12.889   6.328
 4661POPC   D2A59056  18.491  13.112   6.680
 4661POPC   C3A59057  18.450  12.834   7.031
 4661POPC   C4A59058  18.412  12.914   7.472
 4661POPC   C1B59059  17.900  12.831   6.364
 4661POPC   C2B59060  18.012  12.897   6.764
 4661POPC   C3B59061  17.975  12.845   7.221
 4661POPC   C4B59062  17.738  13.014   7.578
 4662POPC   NC359063  35.395  16.985   5.470
 4662POPC   PO459064  35.061  17.583   5.569
 4662POPC   GL159065  35.056  17.496   5.960
 4662POPC   GL259066  34.985  17.136   5.879
 4662POPC   C1A59067  35.323  17.525   6.350
 4662POPC   D2A59068  35.753  17.338   6.471
 4662POPC   C3A59069  35.782  17.231   6.915
 4662POPC   C4A59070  35.496  17.437   7.193
 4662POPC   C1B59071  34.904  17.192   6.331
 4662POPC   C2B59072  34.921  17.441   6.715
 4662POPC   C3B59073  35.006  17.241   7.125
 4662POPC   C4B59074  35.099  17.095   7.557
 4663POPC   NC359075  43.123   2.294   5.376
 4663POPC   PO459076  43.315   1.734   5.454
 4663POPC   GL159077  43.243   2.014   5.815
 4663POPC   GL259078  42.878   2.131   5.798
 4663POPC   C1A59079  43.434   2.039   6.248
 4663POPC   D2A59080  43.487   2.221   6.678
 4663POPC   C3A59081  43.408   1.889   6.949
 4663POPC   C4A59082  43.395   1.876   7.366
 4663POPC   C1B59083  42.935   2.175   6.241
 4663POPC   C2B59084  42.975   2.234   6.694
 4663POPC   C3B59085  42.740   2.167   7.062
 4663POPC   C4B59086  42.899   1.854   7.351
 4664POPC   NC359087  30.277  33.684   5.549
 4664POPC   PO459088  29.631  33.670   5.531
 4664POPC   GL159089  29.865  33.832   5.855
 4664POPC   GL259090  29.992  34.190   5.784
 4664POPC   C1A59091  29.826  33.631   6.266
 4664POPC   D2A59092  29.566  33.413   6.564
 4664POPC   C3A59093  29.577  33.653   6.937
 4664POPC   C4A59094  29.896  33.778   7.178
 4664POPC   C1B59095  30.070  34.092   6.244
 4664POPC   C2B59096  29.946  33.946   6.665
 4664POPC   C3B59097  30.087  34.187   6.982
 4664POPC   C4B59098  30.287  34.030   7.375
 4665POPC   NC359099  30.505  35.983   5.415
 4665POPC   PO459100  29.816  35.967   5.431
 4665POPC   GL159101  29.833  36.213   5.777
 4665POPC   GL259102  30.046  35.957   5.911
 4665POPC   C1A59103  29.947  36.393   6.173
 4665POPC   D2A59104  30.103  36.298   6.573
 4665POPC   C3A59105  30.012  36.553   6.925
 4665POPC   C4A59106  30.110  36.402   7.318
 4665POPC   C1B59107  29.787  35.660   6.120
 4665POPC   C2B59108  29.943  35.783   6.482
 4665POPC   C3B59109  29.816  35.737   6.873
 4665POPC   C4B59110  29.985  35.907   7.247
 4666POPC   NC359111  10.280   0.093   5.489
 4666POPC   PO459112  10.175  44.429   5.442
 4666POPC   GL159113  10.268  44.677   5.807
 4666POPC   GL259114  10.238  44.425   6.056
 4666POPC   C1A59115  10.414  44.878   6.209
 4666POPC   D2A59116  10.359  44.669   6.614
 4666POPC   C3A59117  10.630  44.775   6.972
 4666POPC   C4A59118  10.462  44.912   7.377
 4666POPC   C1B59119  10.669  44.423   6.241
 4666POPC   C2B59120  10.789  44.395   6.630
 4666POPC   C3B59121  10.543  44.263   6.939
 4666POPC   C4B59122  10.574  44.295   7.348
 4667POPC   NC359123   5.028  20.636   5.392
 4667POPC   PO459124   4.641  21.301   5.519
 4667POPC   GL159125   4.962  20.955   5.782
 4667POPC   GL259126   4.905  20.578   5.879
 4667POPC   C1A59127   5.253  20.779   6.161
 4667POPC   D2A59128   5.089  20.868   6.592
 4667POPC   C3A59129   5.280  20.743   6.974
 4667POPC   C4A59130   5.134  20.608   7.376
 4667POPC   C1B59131   4.720  20.614   6.289
 4667POPC   C2B59132   4.606  20.367   6.655
 4667POPC   C3B59133   4.768  20.495   7.036
 4667POPC   C4B59134   4.808  20.936   7.129
 4668POPC   NC359135  27.541  28.163   5.187
 4668POPC   PO459136  27.864  28.609   5.537
 4668POPC   GL159137  27.617  28.401   5.852
 4668POPC   GL259138  27.427  28.092   5.808
 4668POPC   C1A59139  27.626  28.245   6.267
 4668POPC   D2A59140  27.693  28.531   6.571
 4668POPC   C3A59141  27.548  28.486   6.974
 4668POPC   C4A59142  27.606  28.166   7.252
 4668POPC   C1B59143  27.139  28.097   6.209
 4668POPC   C2B59144  27.217  27.982   6.647
 4668POPC   C3B59145  27.138  28.191   7.046
 4668POPC   C4B59146  27.130  28.068   7.459
 4669POPC   NC359147  38.353  22.630   5.667
 4669POPC   PO459148  38.828  22.138   5.405
 4669POPC   GL159149  38.565  22.163   5.798
 4669POPC   GL259150  38.812  22.459   5.853
 4669POPC   C1A59151  38.296  22.125   6.248
 4669POPC   D2A59152  38.232  22.471   6.550
 4669POPC   C3A59153  38.017  22.328   6.906
 4669POPC   C4A59154  38.143  22.105   7.293
 4669POPC   C1B59155  38.779  22.244   6.245
 4669POPC   C2B59156  38.632  22.129   6.645
 4669POPC   C3B59157  38.517  22.335   6.999
 4669POPC   C4B59158  38.637  22.252   7.401
 4670POPC   NC359159  24.195   2.070   5.287
 4670POPC   PO459160  24.737   2.279   5.177
 4670POPC   GL159161  24.564   2.111   5.628
 4670POPC   GL259162  24.318   2.322   5.765
 4670POPC   C1A59163  24.405   1.966   6.096
 4670POPC   D2A59164  24.178   2.101   6.508
 4670POPC   C3A59165  24.222   1.846   6.904
 4670POPC   C4A59166  24.482   1.683   7.257
 4670POPC   C1B59167  24.182   2.538   6.154
 4670POPC   C2B59168  24.336   2.601   6.566
 4670POPC   C3B59169  24.463   2.357   6.881
 4670POPC   C4B59170  24.454   2.195   7.247
 4671POPC   NC359171  15.626  41.713   5.407
 4671POPC   PO459172  16.154  41.430   5.226
 4671POPC   GL159173  16.062  41.606   5.680
 4671POPC   GL259174  15.791  41.431   5.817
 4671POPC   C1A59175  16.169  41.599   6.185
 4671POPC   D2A59176  15.987  41.752   6.637
 4671POPC   C3A59177  16.095  41.641   7.122
 4671POPC   C4A59178  16.249  41.594   7.570
 4671POPC   C1B59179  15.640  41.558   6.235
 4671POPC   C2B59180  15.525  41.513   6.681
 4671POPC   C3B59181  15.669  41.361   7.090
 4671POPC   C4B59182  15.584  40.944   7.319
 4672POPC   NC359183  43.260   6.638   5.394
 4672POPC   PO459184  42.652   6.967   5.481
 4672POPC   GL159185  42.900   6.658   5.801
 4672POPC   GL259186  43.173   6.772   5.880
 4672POPC   C1A59187  43.060   6.383   6.161
 4672POPC   D2A59188  43.336   6.575   6.449
 4672POPC   C3A59189  43.251   6.570   6.903
 4672POPC   C4A59190  43.541   6.466   7.248
 4672POPC   C1B59191  42.916   6.865   6.276
 4672POPC   C2B59192  42.615   6.910   6.585
 4672POPC   C3B59193  42.865   6.946   6.939
 4672POPC   C4B59194  42.897   6.862   7.372
 4673POPC   NC359195  31.664   0.608   5.203
 4673POPC   PO459196  31.253   0.120   5.543
 4673POPC   GL159197  31.314   0.515   5.738
 4673POPC   GL259198  31.654   0.458   5.762
 4673POPC   C1A59199  31.361   0.597   6.194
 4673POPC   D2A59200  31.533   0.300   6.517
 4673POPC   C3A59201  31.256   0.303   6.895
 4673POPC   C4A59202  31.045   0.638   7.053
 4673POPC   C1B59203  31.858   0.571   6.157
 4673POPC   C2B59204  31.875   0.643   6.635
 4673POPC   C3B59205  31.746   0.372   7.010
 4673POPC   C4B59206  31.817   0.299   7.458
 4674POPC   NC359207  11.480  13.917   5.397
 4674POPC   PO459208  11.065  13.414   5.351
 4674POPC   GL159209  11.222  13.435   5.729
 4674POPC   GL259210  11.219  13.793   5.816
 4674POPC   C1A59211  11.339  13.344   6.118
 4674POPC   D2A59212  11.342  13.589   6.461
 4674POPC   C3A59213  11.247  13.507   6.855
 4674POPC   C4A59214  11.397  13.346   7.213
 4674POPC   C1B59215  11.325  14.053   6.191
 4674POPC   C2B59216  11.338  14.260   6.599
 4674POPC   C3B59217  11.280  14.009   6.966
 4674POPC   C4B59218  11.462  13.865   7.347
 4675POPC   NC359219   5.602   1.943   5.513
 4675POPC   PO459220   6.171   2.136   5.183
 4675POPC   GL159221   6.111   2.031   5.648
 4675POPC   GL259222   6.044   1.710   5.729
 4675POPC   C1A59223   5.946   2.180   6.057
 4675POPC   D2A59224   5.745   2.313   6.430
 4675POPC   C3A59225   5.818   2.084   6.746
 4675POPC   C4A59226   5.881   2.114   7.150
 4675POPC   C1B59227   6.012   1.619   6.170
 4675POPC   C2B59228   6.157   1.727   6.564
 4675POPC   C3B59229   6.309   1.600   6.949
 4675POPC   C4B59230   6.138   1.680   7.355
 4676POPC   NC359231   3.617  17.199   5.278
 4676POPC   PO459232   3.576  16.509   5.282
 4676POPC   GL159233   3.556  16.818   5.688
 4676POPC   GL259234   3.821  17.055   5.736
 4676POPC   C1A59235   3.403  16.990   6.131
 4676POPC   D2A59236   3.454  16.975   6.615
 4676POPC   C3A59237   3.329  16.736   7.017
 4676POPC   C4A59238   3.383  16.437   7.366
 4676POPC   C1B59239   3.908  17.080   6.204
 4676POPC   C2B59240   4.010  16.824   6.579
 4676POPC   C3B59241   3.886  16.790   7.062
 4676POPC   C4B59242   4.058  16.788   7.512
 4677POPC   NC359243  14.063   9.480   5.621
 4677POPC   PO459244  14.526   9.901   5.474
 4677POPC   GL159245  14.392   9.784   5.861
 4677POPC   GL259246  14.100   9.954   5.814
 4677POPC   C1A59247  14.235   9.711   6.263
 4677POPC   D2A59248  14.514   9.694   6.574
 4677POPC   C3A59249  14.343   9.713   6.941
 4677POPC   C4A59250  14.529   9.606   7.296
 4677POPC   C1B59251  14.106  10.243   6.157
 4677POPC   C2B59252  14.001  10.196   6.573
 4677POPC   C3B59253  13.963  10.074   6.994
 4677POPC   C4B59254  14.082   9.883   7.375
 4678POPC   NC359255  12.231  38.969   5.441
 4678POPC   PO459256  11.769  39.527   5.378
 4678POPC   GL159257  11.968  39.318   5.762
 4678POPC   GL259258  12.320  39.307   5.810
 4678POPC   C1A59259  11.851  39.374   6.207
 4678POPC   D2A59260  12.184  39.421   6.477
 4678POPC   C3A59261  12.150  39.469   6.907
 4678POPC   C4A59262  12.180  39.189   7.204
 4678POPC   C1B59263  12.525  39.115   6.167
 4678POPC   C2B59264  12.488  39.012   6.600
 4678POPC   C3B59265  12.640  39.040   7.038
 4678POPC   C4B59266  12.475  38.830   7.431
 4679POPC   NC359267  18.554   1.556   5.441
 4679POPC   PO459268  18.234   0.989   5.388
 4679POPC   GL159269  18.290   1.205   5.757
 4679POPC   GL259270  18.052   1.502   5.755
 4679POPC   C1A59271  18.389   1.377   6.153
 4679POPC   D2A59272  18.532   1.561   6.524
 4679POPC   C3A59273  18.431   1.330   6.869
 4679POPC   C4A59274  18.177   1.458   7.175
 4679POPC   C1B59275  17.886   1.223   6.096
 4679POPC   C2B59276  18.097   1.106   6.488
 4679POPC   C3B59277  17.950   1.135   6.856
 4679POPC   C4B59278  17.735   1.232   7.202
 4680POPC   NC359279  15.656  26.601   5.544
 4680POPC   PO459280  15.944  27.295   5.421
 4680POPC   GL159281  15.865  27.011   5.785
 4680POPC   GL259282  16.127  26.738   5.741
 4680POPC   C1A59283  15.711  26.832   6.219
 4680POPC   D2A59284  15.796  26.660   6.669
 4680POPC   C3A59285  15.789  26.921   7.075
 4680POPC   C4A59286  16.062  27.102   7.415
 4680POPC   C1B59287  16.273  26.539   6.150
 4680POPC   C2B59288  16.481  26.611   6.591
 4680POPC   C3B59289  16.263  26.641   7.015
 4680POPC   C4B59290  15.890  26.436   7.211
 4681POPC   NC359291  32.897  27.983   5.416
 4681POPC   PO459292  33.368  27.483   5.248
 4681POPC   GL159293  33.167  27.478   5.671
 4681POPC   GL259294  32.813  27.618   5.777
 4681POPC   C1A59295  33.201  27.584   6.116
 4681POPC   D2A59296  32.924  27.548   6.457
 4681POPC   C3A59297  33.139  27.457   6.836
 4681POPC   C4A59298  33.101  27.334   7.237
 4681POPC   C1B59299  32.858  27.959   6.114
 4681POPC   C2B59300  32.874  28.079   6.516
 4681POPC   C3B59301  32.848  27.862   6.866
 4681POPC   C4B59302  33.138  27.838   7.184
 4682POPC   NC359303  37.452   9.187   5.428
 4682POPC   PO459304  37.612   8.542   5.506
 4682POPC   GL159305  37.894   8.859   5.761
 4682POPC   GL259306  37.841   9.181   5.782
 4682POPC   C1A59307  38.037   8.935   6.197
 4682POPC   D2A59308  37.899   8.744   6.588
 4682POPC   C3A59309  37.541   8.836   6.838
 4682POPC   C4A59310  37.539   9.140   7.161
 4682POPC   C1B59311  37.570   9.179   6.150
 4682POPC   C2B59312  37.644   9.282   6.593
 4682POPC   C3B59313  37.969   9.172   6.899
 4682POPC   C4B59314  38.104   9.421   7.258
 4683POPC   NC359315   1.669  26.864   5.631
 4683POPC   PO459316   0.995  26.611   5.347
 4683POPC   GL159317   0.975  26.610   5.773
 4683POPC   GL259318   1.304  26.522   5.779
 4683POPC   C1A59319   1.033  26.722   6.207
 4683POPC   D2A59320   1.215  26.585   6.602
 4683POPC   C3A59321   1.121  26.849   6.970
 4683POPC   C4A59322   1.006  26.969   7.371
 4683POPC   C1B59323   1.507  26.488   6.179
 4683POPC   C2B59324   1.738  26.448   6.581
 4683POPC   C3B59325   1.618  26.733   6.889
 4683POPC   C4B59326   1.520  26.804   7.318
 4684POPC   NC359327  38.907   8.617   5.461
 4684POPC   PO459328  39.408   9.151   5.431
 4684POPC   GL159329  39.160   8.978   5.747
 4684POPC   GL259330  39.329   8.644   5.758
 4684POPC   C1A59331  39.068   8.880   6.159
 4684POPC   D2A59332  39.277   8.927   6.523
 4684POPC   C3A59333  39.104   8.835   6.895
 4684POPC   C4A59334  39.025   9.019   7.328
 4684POPC   C1B59335  39.515   8.637   6.156
 4684POPC   C2B59336  39.566   8.502   6.551
 4684POPC   C3B59337  39.599   8.592   6.950
 4684POPC   C4B59338  39.494   8.894   7.207
 4685POPC   NC359339   4.105  44.369   5.339
 4685POPC   PO459340   4.567  44.843   5.317
 4685POPC   GL159341   4.392  44.674   5.698
 4685POPC   GL259342   4.030  44.798   5.697
 4685POPC   C1A59343   4.528  44.472   6.097
 4685POPC   D2A59344   4.657  44.608   6.496
 4685POPC   C3A59345   4.416  44.513   6.880
 4685POPC   C4A59346   4.593  44.558   7.288
 4685POPC   C1B59347   4.022  44.494   6.052
 4685POPC   C2B59348   4.030  44.404   6.512
 4685POPC   C3B59349   3.884  44.532   6.905
 4685POPC   C4B59350   4.057  44.566   7.314
 4686POPC   NC359351  41.709  36.014   5.324
 4686POPC   PO459352  41.383  36.509   5.587
 4686POPC   GL159353  41.518  36.071   5.840
 4686POPC   GL259354  41.813  35.782   5.759
 4686POPC   C1A59355  41.490  36.071   6.326
 4686POPC   D2A59356  41.837  36.295   6.603
 4686POPC   C3A59357  41.648  36.475   6.977
 4686POPC   C4A59358  41.280  36.216   7.076
 4686POPC   C1B59359  41.948  35.953   6.145
 4686POPC   C2B59360  41.835  35.758   6.524
 4686POPC   C3B59361  41.666  35.903   6.902
 4686POPC   C4B59362  41.912  36.100   7.220
 4687POPC   NC359363  19.625  13.977   5.236
 4687POPC   PO459364  19.664  13.297   5.286
 4687POPC   GL159365  19.797  13.458   5.760
 4687POPC   GL259366  19.646  13.763   5.836
 4687POPC   C1A59367  19.973  13.572   6.222
 4687POPC   D2A59368  19.900  13.804   6.653
 4687POPC   C3A59369  20.126  13.588   7.040
 4687POPC   C4A59370  20.302  13.235   7.346
 4687POPC   C1B59371  19.488  13.674   6.287
 4687POPC   C2B59372  19.338  13.634   6.699
 4687POPC   C3B59373  19.522  13.773   7.061
 4687POPC   C4B59374  19.698  13.500   7.282
 4688POPC   NC359375  32.309  19.790   5.398
 4688POPC   PO459376  31.885  20.241   5.506
 4688POPC   GL159377  32.091  19.975   5.834
 4688POPC   GL259378  32.408  19.734   5.875
 4688POPC   C1A59379  32.199  20.015   6.242
 4688POPC   D2A59380  32.335  19.827   6.567
 4688POPC   C3A59381  32.123  20.051   6.885
 4688POPC   C4A59382  32.274  19.919   7.268
 4688POPC   C1B59383  32.127  19.507   6.120
 4688POPC   C2B59384  31.959  19.453   6.527
 4688POPC   C3B59385  32.120  19.542   6.949
 4688POPC   C4B59386  32.376  19.427   7.314
 4689POPC   NC359387  29.037  20.852   5.571
 4689POPC   PO459388  29.347  20.243   5.436
 4689POPC   GL159389  29.114  20.402   5.801
 4689POPC   GL259390  28.889  20.256   5.957
 4689POPC   C1A59391  29.068  20.664   6.203
 4689POPC   D2A59392  29.403  20.785   6.492
 4689POPC   C3A59393  29.266  20.892   6.908
 4689POPC   C4A59394  29.340  20.780   7.312
 4689POPC   C1B59395  28.982  20.141   6.363
 4689POPC   C2B59396  28.982  20.446   6.673
 4689POPC   C3B59397  29.125  20.421   7.054
 4689POPC   C4B59398  28.841  20.543   7.398
 4690POPC   NC359399  44.473  29.848   5.473
 4690POPC   PO459400   0.126  29.832   5.358
 4690POPC   GL159401  44.900  29.729   5.714
 4690POPC   GL259402  44.827  30.086   5.781
 4690POPC   C1A59403  44.646  29.720   6.099
 4690POPC   D2A59404  44.655  29.834   6.525
 4690POPC   C3A59405  44.519  29.594   6.871
 4690POPC   C4A59406  44.790  29.613   7.230
 4690POPC   C1B59407  44.634  30.236   6.189
 4690POPC   C2B59408  44.406  30.276   6.594
 4690POPC   C3B59409  44.406  30.055   7.008
 4690POPC   C4B59410  44.656  30.115   7.405
 4691POPC   NC359411  37.611  23.266   5.457
 4691POPC   PO459412  37.681  23.949   5.412
 4691POPC   GL159413  37.691  23.937   5.850
 4691POPC   GL259414  37.571  23.603   5.874
 4691POPC   C1A59415  37.648  23.857   6.322
 4691POPC   D2A59416  37.566  23.694   6.739
 4691POPC   C3A59417  37.703  24.033   6.987
 4691POPC   C4A59418  37.821  24.229   7.373
 4691POPC   C1B59419  37.995  23.559   6.081
 4691POPC   C2B59420  38.072  23.466   6.506
 4691POPC   C3B59421  37.942  23.355   6.888
 4691POPC   C4B59422  37.950  23.632   7.237
 4692POPC   NC359423  16.811  31.909   5.466
 4692POPC   PO459424  16.398  32.514   5.504
 4692POPC   GL159425  16.585  32.256   5.790
 4692POPC   GL259426  16.933  32.317   5.796
 4692POPC   C1A59427  16.595  32.018   6.175
 4692POPC   D2A59428  16.803  31.920   6.568
 4692POPC   C3A59429  16.726  32.154   6.935
 4692POPC   C4A59430  17.040  32.139   7.226
 4692POPC   C1B59431  16.814  32.500   6.180
 4692POPC   C2B59432  16.570  32.419   6.523
 4692POPC   C3B59433  16.520  32.668   6.871
 4692POPC   C4B59434  16.527  32.540   7.267
 4693POPC   NC359435  17.613  28.715   5.341
 4693POPC   PO459436  17.501  29.390   5.316
 4693POPC   GL159437  17.507  29.118   5.668
 4693POPC   GL259438  17.414  29.384   5.876
 4693POPC   C1A59439  17.550  28.927   6.085
 4693POPC   D2A59440  17.757  28.857   6.480
 4693POPC   C3A59441  17.767  29.170   6.811
 4693POPC   C4A59442  17.574  29.124   7.204
 4693POPC   C1B59443  17.300  29.630   6.221
 4693POPC   C2B59444  17.394  29.717   6.618
 4693POPC   C3B59445  17.365  29.527   6.986
 4693POPC   C4B59446  17.688  29.621   7.231
 4694POPC   NC359447  42.656  36.324   5.406
 4694POPC   PO459448  42.143  35.874   5.374
 4694POPC   GL159449  42.331  35.975   5.798
 4694POPC   GL259450  42.525  36.261   5.919
 4694POPC   C1A59451  42.442  35.837   6.239
 4694POPC   D2A59452  42.288  36.006   6.630
 4694POPC   C3A59453  42.513  35.949   7.018
 4694POPC   C4A59454  42.391  36.175   7.382
 4694POPC   C1B59455  42.532  36.443   6.347
 4694POPC   C2B59456  42.258  36.637   6.692
 4694POPC   C3B59457  42.190  36.584   7.146
 4694POPC   C4B59458  42.457  36.668   7.547
 4695POPC   NC359459  30.179  22.226   5.408
 4695POPC   PO459460  30.768  22.101   5.237
 4695POPC   GL159461  30.840  21.946   5.697
 4695POPC   GL259462  30.509  21.913   5.870
 4695POPC   C1A59463  30.943  21.958   6.153
 4695POPC   D2A59464  30.764  21.910   6.563
 4695POPC   C3A59465  30.822  22.160   6.915
 4695POPC   C4A59466  30.576  22.319   7.246
 4695POPC   C1B59467  30.430  21.649   6.249
 4695POPC   C2B59468  30.393  21.554   6.704
 4695POPC   C3B59469  30.305  21.709   7.135
 4695POPC   C4B59470  30.282  21.785   7.589
 4696POPC   NC359471  16.522   9.969   5.467
 4696POPC   PO459472  17.133   9.814   5.201
 4696POPC   GL159473  16.958   9.745   5.688
 4696POPC   GL259474  16.773  10.008   5.896
 4696POPC   C1A59475  16.883   9.595   6.151
 4696POPC   D2A59476  16.710   9.476   6.556
 4696POPC   C3A59477  16.862   9.538   6.927
 4696POPC   C4A59478  16.867   9.799   7.235
 4696POPC   C1B59479  16.799  10.089   6.326
 4696POPC   C2B59480  16.655   9.982   6.712
 4696POPC   C3B59481  16.419   9.880   7.019
 4696POPC   C4B59482  16.434   9.866   7.501
 4697POPC   NC359483  31.634   8.211   5.426
 4697POPC   PO459484  31.102   7.853   5.484
 4697POPC   GL159485  31.365   7.978   5.822
 4697POPC   GL259486  31.394   8.341   5.880
 4697POPC   C1A59487  31.590   8.000   6.211
 4697POPC   D2A59488  31.545   8.310   6.496
 4697POPC   C3A59489  31.649   8.110   6.877
 4697POPC   C4A59490  31.800   7.900   7.233
 4697POPC   C1B59491  31.850   8.433   6.053
 4697POPC   C2B59492  31.943   8.636   6.467
 4697POPC   C3B59493  31.721   8.634   6.861
 4697POPC   C4B59494  31.706   8.442   7.267
 4698POPC   NC359495  42.780  27.819   5.375
 4698POPC   PO459496  42.961  27.343   5.753
 4698POPC   GL159497  43.084  27.709   5.926
 4698POPC   GL259498  43.423  27.794   5.748
 4698POPC   C1A59499  43.081  27.647   6.387
 4698POPC   D2A59500  43.228  27.314   6.718
 4698POPC   C3A59501  43.141  27.428   7.156
 4698POPC   C4A59502  43.000  27.863   7.187
 4698POPC   C1B59503  43.543  27.569   6.133
 4698POPC   C2B59504  43.552  27.709   6.560
 4698POPC   C3B59505  43.435  27.800   6.950
 4698POPC   C4B59506  43.477  28.045   7.332
 4699POPC   NC359507  43.720   4.364   5.436
 4699POPC   PO459508  44.268   3.891   5.557
 4699POPC   GL159509  44.107   4.314   5.797
 4699POPC   GL259510  43.785   4.561   5.886
 4699POPC   C1A59511  44.130   4.432   6.240
 4699POPC   D2A59512  43.872   4.306   6.599
 4699POPC   C3A59513  43.989   4.467   6.977
 4699POPC   C4A59514  44.079   4.313   7.418
 4699POPC   C1B59515  43.547   4.369   6.214
 4699POPC   C2B59516  43.380   4.430   6.626
 4699POPC   C3B59517  43.517   4.255   6.974
 4699POPC   C4B59518  43.578   4.368   7.352
 4700POPC   NC359519  41.887  11.548   5.236
 4700POPC   PO459520  42.259  10.983   5.395
 4700POPC   GL159521  42.428  11.219   5.776
 4700POPC   GL259522  42.195  11.454   5.925
 4700POPC   C1A59523  42.506  11.143   6.190
 4700POPC   D2A59524  42.335  11.027   6.566
 4700POPC   C3A59525  42.543  11.224   6.910
 4700POPC   C4A59526  42.411  11.527   7.220
 4700POPC   C1B59527  41.978  11.206   6.246
 4700POPC   C2B59528  41.900  11.310   6.654
 4700POPC   C3B59529  42.041  11.166   7.015
 4700POPC   C4B59530  41.929  11.076   7.403
 4701POPC   NC359531  22.027  30.966   5.350
 4701POPC   PO459532  22.569  30.574   5.312
 4701POPC   GL159533  22.217  30.576   5.637
 4701POPC   GL259534  22.353  30.423   5.908
 4701POPC   C1A59535  21.903  30.639   6.022
 4701POPC   D2A59536  22.036  30.571   6.479
 4701POPC   C3A59537  22.067  30.785   6.874
 4701POPC   C4A59538  22.021  30.503   7.220
 4701POPC   C1B59539  22.357  30.823   6.137
 4701POPC   C2B59540  22.514  30.744   6.507
 4701POPC   C3B59541  22.557  30.683   6.907
 4701POPC   C4B59542  22.739  30.842   7.245
 4702POPC   NC359543  17.730  27.183   5.568
 4702POPC   PO459544  17.280  26.730   5.408
 4702POPC   GL159545  17.533  26.724   5.765
 4702POPC   GL259546  17.409  27.035   5.940
 4702POPC   C1A59547  17.658  26.654   6.177
 4702POPC   D2A59548  17.681  26.721   6.592
 4702POPC   C3A59549  17.339  26.890   6.803
 4702POPC   C4A59550  17.542  26.723   7.147
 4702POPC   C1B59551  17.738  27.154   6.265
 4702POPC   C2B59552  17.729  27.265   6.719
 4702POPC   C3B59553  17.786  27.262   7.199
 4702POPC   C4B59554  17.888  27.362   7.679
 4703POPC   NC359555  39.131   9.522   5.339
 4703POPC   PO459556  39.356  10.088   5.500
 4703POPC   GL159557  39.285   9.813   5.824
 4703POPC   GL259558  39.497   9.520   5.784
 4703POPC   C1A59559  39.395   9.839   6.271
 4703POPC   D2A59560  39.099   9.737   6.619
 4703POPC   C3A59561  39.254   9.877   6.984
 4703POPC   C4A59562  39.037  10.230   7.115
 4703POPC   C1B59563  39.265   9.372   6.145
 4703POPC   C2B59564  39.452   9.402   6.567
 4703POPC   C3B59565  39.202   9.340   6.937
 4703POPC   C4B59566  39.170   9.512   7.336
 4704POPC   NC359567  33.148  27.019   5.336
 4704POPC   PO459568  33.039  26.398   5.449
 4704POPC   GL159569  32.961  26.703   5.752
 4704POPC   GL259570  33.325  26.741   5.753
 4704POPC   C1A59571  33.025  26.672   6.237
 4704POPC   D2A59572  33.295  26.593   6.630
 4704POPC   C3A59573  33.034  26.461   7.004
 4704POPC   C4A59574  32.691  26.723   7.212
 4704POPC   C1B59575  33.206  27.087   6.022
 4704POPC   C2B59576  33.232  27.101   6.480
 4704POPC   C3B59577  33.034  26.964   6.882
 4704POPC   C4B59578  33.192  26.837   7.292
 4705POPC   NC359579  17.210  14.264   5.340
 4705POPC   PO459580  17.582  14.800   5.029
 4705POPC   GL159581  17.495  14.676   5.567
 4705POPC   GL259582  17.487  14.305   5.753
 4705POPC   C1A59583  17.641  14.657   6.059
 4705POPC   D2A59584  17.463  14.635   6.503
 4705POPC   C3A59585  17.671  14.561   6.934
 4705POPC   C4A59586  17.447  14.704   7.273
 4705POPC   C1B59587  17.463  14.172   6.215
 4705POPC   C2B59588  17.508  14.132   6.694
 4705POPC   C3B59589  17.537  14.126   7.186
 4705POPC   C4B59590  17.401  13.875   7.581
 4706POPC   NC359591  29.312   6.927   5.740
 4706POPC   PO459592  29.213   6.329   5.447
 4706POPC   GL159593  29.089   6.395   5.863
 4706POPC   GL259594  28.862   6.638   5.815
 4706POPC   C1A59595  29.218   6.432   6.269
 4706POPC   D2A59596  29.265   6.726   6.584
 4706POPC   C3A59597  29.253   6.523   6.965
 4706POPC   C4A59598  28.930   6.493   7.271
 4706POPC   C1B59599  28.852   6.780   6.217
 4706POPC   C2B59600  28.764   6.853   6.600
 4706POPC   C3B59601  28.935   6.922   6.972
 4706POPC   C4B59602  28.894   6.989   7.414
 4707POPC   NC359603  41.009  19.001   5.354
 4707POPC   PO459604  40.334  19.071   5.385
 4707POPC   GL159605  40.586  18.903   5.737
 4707POPC   GL259606  40.795  19.185   5.759
 4707POPC   C1A59607  40.668  19.019   6.197
 4707POPC   D2A59608  40.739  19.262   6.564
 4707POPC   C3A59609  40.907  18.897   6.805
 4707POPC   C4A59610  40.798  18.728   7.191
 4707POPC   C1B59611  41.138  19.229   6.088
 4707POPC   C2B59612  41.251  19.255   6.553
 4707POPC   C3B59613  41.038  19.348   6.989
 4707POPC   C4B59614  40.762  19.447   7.308
 4708POPC   NC359615  21.778   6.185   5.420
 4708POPC   PO459616  22.366   5.836   5.355
 4708POPC   GL159617  22.472   5.837   5.771
 4708POPC   GL259618  22.161   6.064   5.815
 4708POPC   C1A59619  22.578   6.088   6.136
 4708POPC   D2A59620  22.721   6.123   6.541
 4708POPC   C3A59621  22.583   6.103   6.954
 4708POPC   C4A59622  22.419   6.181   7.332
 4708POPC   C1B59623  22.154   5.829   6.207
 4708POPC   C2B59624  22.229   6.022   6.591
 4708POPC   C3B59625  22.048   6.214   6.949
 4708POPC   C4B59626  21.917   6.035   7.333
 4709POPC   NC359627  22.315   0.830   5.307
 4709POPC   PO459628  21.965   0.207   5.383
 4709POPC   GL159629  22.114   0.430   5.736
 4709POPC   GL259630  21.855   0.657   5.828
 4709POPC   C1A59631  22.063   0.305   6.189
 4709POPC   D2A59632  21.863   0.188   6.601
 4709POPC   C3A59633  22.075   0.315   7.003
 4709POPC   C4A59634  22.396   0.309   7.330
 4709POPC   C1B59635  21.855   0.798   6.244
 4709POPC   C2B59636  21.925   0.691   6.678
 4709POPC   C3B59637  21.907   0.808   7.098
 4709POPC   C4B59638  22.127   0.745   7.491
 4710POPC   NC359639  16.229   6.271   5.555
 4710POPC   PO459640  15.572   6.545   5.540
 4710POPC   GL159641  15.784   6.756   5.834
 4710POPC   GL259642  16.129   6.772   5.787
 4710POPC   C1A59643  15.921   6.667   6.248
 4710POPC   D2A59644  15.992   6.873   6.604
 4710POPC   C3A59645  16.004   6.643   6.966
 4710POPC   C4A59646  15.863   6.532   7.379
 4710POPC   C1B59647  16.151   7.119   6.116
 4710POPC   C2B59648  16.378   7.190   6.494
 4710POPC   C3B59649  16.325   7.084   6.938
 4710POPC   C4B59650  16.082   6.991   7.326
 4711POPC   NC359651  13.103  11.937   5.518
 4711POPC   PO459652  12.653  12.469   5.436
 4711POPC   GL159653  12.927  12.355   5.796
 4711POPC   GL259654  13.170  12.587   5.920
 4711POPC   C1A59655  12.827  12.309   6.252
 4711POPC   D2A59656  12.637  12.180   6.650
 4711POPC   C3A59657  12.837  11.943   7.023
 4711POPC   C4A59658  12.688  11.919   7.473
 4711POPC   C1B59659  13.338  12.342   6.259
 4711POPC   C2B59660  13.188  12.161   6.631
 4711POPC   C3B59661  12.989  12.434   6.927
 4711POPC   C4B59662  12.963  12.318   7.349
 4712POPC   NC359663   2.779  32.740   5.119
 4712POPC   PO459664   2.383  33.219   5.423
 4712POPC   GL159665   2.640  33.070   5.798
 4712POPC   GL259666   2.541  32.697   5.896
 4712POPC   C1A59667   3.022  33.122   6.091
 4712POPC   D2A59668   3.138  32.869   6.466
 4712POPC   C3A59669   3.190  33.018   6.878
 4712POPC   C4A59670   2.974  32.963   7.258
 4712POPC   C1B59671   2.634  32.893   6.318
 4712POPC   C2B59672   2.691  32.931   6.768
 4712POPC   C3B59673   2.490  33.082   7.131
 4712POPC   C4B59674   2.606  33.145   7.546
 4713POPC   NC359675  41.191  27.808   5.368
 4713POPC   PO459676  41.758  27.442   5.618
 4713POPC   GL159677  41.537  27.359   5.980
 4713POPC   GL259678  41.236  27.472   5.779
 4713POPC   C1A59679  41.486  27.439   6.447
 4713POPC   D2A59680  41.513  27.758   6.793
 4713POPC   C3A59681  41.801  27.575   7.095
 4713POPC   C4A59682  41.836  27.450   7.555
 4713POPC   C1B59683  41.064  27.303   6.144
 4713POPC   C2B59684  41.067  27.171   6.557
 4713POPC   C3B59685  41.271  27.315   6.942
 4713POPC   C4B59686  41.126  27.294   7.384
 4714POPC   NC359687   7.928  11.230   5.536
 4714POPC   PO459688   8.544  11.459   5.507
 4714POPC   GL159689   8.357  11.240   5.815
 4714POPC   GL259690   8.485  10.926   5.929
 4714POPC   C1A59691   8.128  11.266   6.195
 4714POPC   D2A59692   7.901  11.281   6.560
 4714POPC   C3A59693   8.056  11.021   6.877
 4714POPC   C4A59694   8.226  11.257   7.173
 4714POPC   C1B59695   8.639  11.228   6.224
 4714POPC   C2B59696   8.480  11.302   6.618
 4714POPC   C3B59697   8.577  11.026   6.897
 4714POPC   C4B59698   8.706  11.100   7.266
 4715POPC   NC359699   1.757  40.285   5.398
 4715POPC   PO459700   2.173  39.797   5.305
 4715POPC   GL159701   2.166  39.973   5.728
 4715POPC   GL259702   1.879  40.155   5.887
 4715POPC   C1A59703   2.196  39.857   6.176
 4715POPC   D2A59704   2.071  40.149   6.500
 4715POPC   C3A59705   2.205  40.050   6.913
 4715POPC   C4A59706   1.945  40.055   7.274
 4715POPC   C1B59707   1.672  39.874   6.200
 4715POPC   C2B59708   1.561  39.635   6.576
 4715POPC   C3B59709   1.717  39.657   6.999
 4715POPC   C4B59710   1.442  39.827   7.307
 4716POPC   NC359711  17.905  14.897   5.346
 4716POPC   PO459712  18.457  15.324   5.362
 4716POPC   GL159713  18.371  15.274   5.805
 4716POPC   GL259714  18.335  14.960   5.801
 4716POPC   C1A59715  18.379  15.458   6.213
 4716POPC   D2A59716  18.189  15.358   6.574
 4716POPC   C3A59717  18.344  15.497   6.923
 4716POPC   C4A59718  18.322  15.284   7.256
 4716POPC   C1B59719  18.192  14.969   6.221
 4716POPC   C2B59720  18.282  14.866   6.638
 4716POPC   C3B59721  18.142  14.843   7.054
 4716POPC   C4B59722  18.425  14.603   7.300
 4717POPC   NC359723  28.896   5.245   5.400
 4717POPC   PO459724  29.480   4.829   5.309
 4717POPC   GL159725  29.364   5.074   5.669
 4717POPC   GL259726  29.053   4.894   5.755
 4717POPC   C1A59727  29.279   5.192   6.102
 4717POPC   D2A59728  29.293   4.931   6.459
 4717POPC   C3A59729  29.183   5.047   6.876
 4717POPC   C4A59730  29.460   5.067   7.201
 4717POPC   C1B59731  28.896   4.763   6.164
 4717POPC   C2B59732  28.786   4.922   6.566
 4717POPC   C3B59733  28.734   4.813   6.982
 4717POPC   C4B59734  28.936   4.621   7.324
 4718POPC   NC359735   7.194   3.609   5.332
 4718POPC   PO459736   7.641   3.846   5.597
 4718POPC   GL159737   7.535   3.454   5.852
 4718POPC   GL259738   7.161   3.481   5.827
 4718POPC   C1A59739   7.725   3.327   6.288
 4718POPC   D2A59740   7.544   3.522   6.689
 4718POPC   C3A59741   7.728   3.502   7.124
 4718POPC   C4A59742   7.631   3.373   7.539
 4718POPC   C1B59743   7.220   3.332   6.247
 4718POPC   C2B59744   7.370   3.055   6.565
 4718POPC   C3B59745   7.294   3.186   6.987
 4718POPC   C4B59746   7.200   3.532   7.278
 4719POPC   NC359747   1.037  39.594   5.468
 4719POPC   PO459748   1.272  40.255   5.371
 4719POPC   GL159749   1.363  40.142   5.784
 4719POPC   GL259750   1.395  39.788   5.781
 4719POPC   C1A59751   1.287  40.208   6.232
 4719POPC   D2A59752   1.512  40.159   6.625
 4719POPC   C3A59753   1.265  40.201   6.995
 4719POPC   C4A59754   1.312  40.411   7.388
 4719POPC   C1B59755   1.038  39.776   6.086
 4719POPC   C2B59756   1.075  39.823   6.515
 4719POPC   C3B59757   1.116  39.706   6.913
 4719POPC   C4B59758   0.885  39.757   7.274
 4720POPC   NC359759  38.638  14.912   5.351
 4720POPC   PO459760  38.334  14.253   5.471
 4720POPC   GL159761  38.359  14.319   5.846
 4720POPC   GL259762  38.571  14.619   5.820
 4720POPC   C1A59763  38.180  14.191   6.258
 4720POPC   D2A59764  38.442  14.076   6.603
 4720POPC   C3A59765  38.269  14.101   7.009
 4720POPC   C4A59766  38.399  14.154   7.449
 4720POPC   C1B59767  38.616  14.463   6.240
 4720POPC   C2B59768  38.765  14.521   6.626
 4720POPC   C3B59769  38.554  14.528   7.010
 4720POPC   C4B59770  38.660  14.610   7.442
 4721POPC   NC359771   7.079   0.035   5.476
 4721POPC   PO459772   7.228  44.429   5.290
 4721POPC   GL159773   7.381  44.579   5.747
 4721POPC   GL259774   7.409  44.934   5.833
 4721POPC   C1A59775   7.610  44.606   6.169
 4721POPC   D2A59776   7.783  44.444   6.570
 4721POPC   C3A59777   7.656  44.624   6.957
 4721POPC   C4A59778   7.355  44.496   7.241
 4721POPC   C1B59779   7.415   0.082   6.241
 4721POPC   C2B59780   7.476  44.990   6.654
 4721POPC   C3B59781   7.283  44.972   7.077
 4721POPC   C4B59782   7.535  44.930   7.468
 4722POPC   NC359783   6.830  28.843   5.426
 4722POPC   PO459784   6.621  29.543   5.404
 4722POPC   GL159785   6.470  29.326   5.741
 4722POPC   GL259786   6.778  29.198   5.833
 4722POPC   C1A59787   6.382  29.189   6.164
 4722POPC   D2A59788   6.466  29.375   6.559
 4722POPC   C3A59789   6.422  29.208   6.938
 4722POPC   C4A59790   6.453  29.341   7.341
 4722POPC   C1B59791   6.883  29.269   6.297
 4722POPC   C2B59792   6.913  29.174   6.758
 4722POPC   C3B59793   6.872  29.062   7.208
 4722POPC   C4B59794   6.893  28.763   7.590
 4723POPC   NC359795  17.044  27.896   5.423
 4723POPC   PO459796  17.666  27.640   5.559
 4723POPC   GL159797  17.576  27.572   5.924
 4723POPC   GL259798  17.786  27.901   6.002
 4723POPC   C1A59799  17.319  27.436   6.263
 4723POPC   D2A59800  17.350  27.632   6.660
 4723POPC   C3A59801  17.324  27.399   7.008
 4723POPC   C4A59802  17.272  27.737   7.255
 4723POPC   C1B59803  17.777  27.665   6.362
 4723POPC   C2B59804  17.881  27.781   6.674
 4723POPC   C3B59805  17.716  27.841   7.000
 4723POPC   C4B59806  17.856  27.763   7.372
 4724POPC   NC359807  41.291  25.541   5.444
 4724POPC   PO459808  41.726  25.056   5.524
 4724POPC   GL159809  41.655  25.389   5.778
 4724POPC   GL259810  41.347  25.309   5.919
 4724POPC   C1A59811  41.767  25.485   6.187
 4724POPC   D2A59812  41.966  25.427   6.599
 4724POPC   C3A59813  41.663  25.445   6.949
 4724POPC   C4A59814  41.781  25.287   7.336
 4724POPC   C1B59815  41.086  25.601   6.158
 4724POPC   C2B59816  41.122  25.779   6.578
 4724POPC   C3B59817  41.113  25.551   6.996
 4724POPC   C4B59818  41.256  25.257   7.341
 4725POPC   NC359819  28.631  38.103   5.463
 4725POPC   PO459820  28.066  38.452   5.549
 4725POPC   GL159821  28.139  38.368   5.958
 4725POPC   GL259822  28.495  38.240   5.977
 4725POPC   C1A59823  28.121  38.494   6.398
 4725POPC   D2A59824  28.429  38.538   6.694
 4725POPC   C3A59825  28.498  38.264   7.010
 4725POPC   C4A59826  28.098  38.381   7.102
 4725POPC   C1B59827  28.565  38.651   6.201
 4725POPC   C2B59828  28.735  38.912   6.564
 4725POPC   C3B59829  28.632  38.851   7.029
 4725POPC   C4B59830  28.424  38.638   7.369
 4726POPC   NC359831  21.815  28.772   5.355
 4726POPC   PO459832  21.241  28.397   5.346
 4726POPC   GL159833  21.242  28.508   5.789
 4726POPC   GL259834  21.050  28.789   5.789
 4726POPC   C1A59835  21.279  28.323   6.227
 4726POPC   D2A59836  21.498  28.123   6.636
 4726POPC   C3A59837  21.403  28.056   7.100
 4726POPC   C4A59838  21.630  27.982   7.495
 4726POPC   C1B59839  21.151  28.842   6.237
 4726POPC   C2B59840  21.242  28.607   6.643
 4726POPC   C3B59841  21.139  28.479   7.048
 4726POPC   C4B59842  21.359  28.570   7.439
 4727POPC   NC359843  39.522  24.186   5.533
 4727POPC   PO459844  39.165  24.682   5.376
 4727POPC   GL159845  39.332  24.653   5.774
 4727POPC   GL259846  39.083  24.392   5.844
 4727POPC   C1A59847  39.482  24.416   6.160
 4727POPC   D2A59848  39.188  24.290   6.477
 4727POPC   C3A59849  39.393  24.079   6.781
 4727POPC   C4A59850  39.475  24.390   7.095
 4727POPC   C1B59851  39.030  24.677   6.189
 4727POPC   C2B59852  38.776  24.698   6.544
 4727POPC   C3B59853  38.952  24.517   6.918
 4727POPC   C4B59854  39.036  24.816   7.215
 4728POPC   NC359855  25.818   7.476   5.448
 4728POPC   PO459856  25.549   6.945   5.851
 4728POPC   GL159857  25.824   7.336   5.968
 4728POPC   GL259858  26.180   7.439   5.846
 4728POPC   C1A59859  26.120   7.415   6.343
 4728POPC   D2A59860  26.317   7.209   6.691
 4728POPC   C3A59861  26.006   7.327   6.996
 4728POPC   C4A59862  25.897   7.513   7.384
 4728POPC   C1B59863  26.412   7.769   6.115
 4728POPC   C2B59864  26.287   7.948   6.526
 4728POPC   C3B59865  26.251   7.797   6.955
 4728POPC   C4B59866  26.393   7.625   7.351
 4729POPC   NC359867  23.659  29.312   5.451
 4729POPC   PO459868  24.054  28.760   5.468
 4729POPC   GL159869  23.858  29.029   5.821
 4729POPC   GL259870  24.054  29.112   6.113
 4729POPC   C1A59871  23.634  29.375   6.104
 4729POPC   D2A59872  23.466  29.283   6.508
 4729POPC   C3A59873  23.634  29.214   6.871
 4729POPC   C4A59874  23.951  29.137   7.110
 4729POPC   C1B59875  23.650  28.881   6.287
 4729POPC   C2B59876  23.593  28.726   6.751
 4729POPC   C3B59877  23.646  28.739   7.239
 4729POPC   C4B59878  23.606  28.833   7.712
 4730POPC   NC359879  16.636   6.385   5.103
 4730POPC   PO459880  16.489   6.897   5.436
 4730POPC   GL159881  16.654   6.717   5.801
 4730POPC   GL259882  16.698   6.386   5.699
 4730POPC   C1A59883  16.463   6.739   6.212
 4730POPC   D2A59884  16.336   6.495   6.555
 4730POPC   C3A59885  16.536   6.615   6.933
 4730POPC   C4A59886  16.363   6.555   7.328
 4730POPC   C1B59887  16.665   6.280   6.158
 4730POPC   C2B59888  16.873   6.559   6.502
 4730POPC   C3B59889  17.037   6.463   6.920
 4730POPC   C4B59890  16.793   6.304   7.281
 4731POPC   NC359891  27.230  13.781   5.436
 4731POPC   PO459892  27.849  13.512   5.379
 4731POPC   GL159893  27.577  13.534   5.756
 4731POPC   GL259894  27.335  13.237   5.795
 4731POPC   C1A59895  27.700  13.750   6.138
 4731POPC   D2A59896  27.913  13.649   6.510
 4731POPC   C3A59897  27.685  13.674   6.901
 4731POPC   C4A59898  27.730  13.964   7.231
 4731POPC   C1B59899  27.596  13.250   6.209
 4731POPC   C2B59900  27.745  13.178   6.669
 4731POPC   C3B59901  27.716  13.205   7.120
 4731POPC   C4B59902  27.460  13.350   7.458
 4732POPC   NC359903  21.047  15.747   5.576
 4732POPC   PO459904  21.508  16.145   5.463
 4732POPC   GL159905  21.399  16.052   5.859
 4732POPC   GL259906  21.159  16.266   5.937
 4732POPC   C1A59907  21.509  16.041   6.303
 4732POPC   D2A59908  21.263  16.139   6.672
 4732POPC   C3A59909  21.439  16.010   7.072
 4732POPC   C4A59910  21.665  15.710   7.380
 4732POPC   C1B59911  21.007  15.912   6.233
 4732POPC   C2B59912  20.907  15.755   6.655
 4732POPC   C3B59913  21.019  15.697   7.085
 4732POPC   C4B59914  20.836  15.604   7.469
 4733POPC   NC359915  24.577  25.402   5.197
 4733POPC   PO459916  24.393  24.888   5.494
 4733POPC   GL159917  24.778  24.991   5.718
 4733POPC   GL259918  24.780  25.370   5.790
 4733POPC   C1A59919  24.816  25.018   6.168
 4733POPC   D2A59920  24.757  25.161   6.616
 4733POPC   C3A59921  24.486  25.090   6.980
 4733POPC   C4A59922  24.100  25.083   7.191
 4733POPC   C1B59923  24.939  25.504   6.255
 4733POPC   C2B59924  24.846  25.647   6.730
 4733POPC   C3B59925  24.737  25.628   7.191
 4733POPC   C4B59926  24.630  25.793   7.599
 4734POPC   NC359927  18.883   8.494   5.280
 4734POPC   PO459928  19.571   8.180   5.377
 4734POPC   GL159929  19.248   8.263   5.738
 4734POPC   GL259930  18.899   8.096   5.759
 4734POPC   C1A59931  19.138   8.257   6.194
 4734POPC   D2A59932  19.274   8.183   6.613
 4734POPC   C3A59933  19.027   8.053   6.960
 4734POPC   C4A59934  19.215   8.156   7.318
 4734POPC   C1B59935  18.660   8.111   6.172
 4734POPC   C2B59936  18.722   8.272   6.592
 4734POPC   C3B59937  18.703   8.447   6.997
 4734POPC   C4B59938  18.695   8.190   7.384
 4735POPC   NC359939  21.748   7.859   5.363
 4735POPC   PO459940  21.032   7.777   5.498
 4735POPC   GL159941  21.390   8.020   5.733
 4735POPC   GL259942  21.246   8.326   5.855
 4735POPC   C1A59943  21.633   8.211   6.136
 4735POPC   D2A59944  21.546   8.084   6.557
 4735POPC   C3A59945  21.533   8.316   6.949
 4735POPC   C4A59946  21.397   8.185   7.367
 4735POPC   C1B59947  20.981   8.501   6.156
 4735POPC   C2B59948  21.143   8.526   6.584
 4735POPC   C3B59949  21.012   8.401   7.004
 4735POPC   C4B59950  21.244   8.675   7.223
 4736POPC   NC359951  12.590  37.688   5.450
 4736POPC   PO459952  13.172  37.945   5.398
 4736POPC   GL159953  13.042  37.653   5.801
 4736POPC   GL259954  12.691  37.474   5.894
 4736POPC   C1A59955  13.011  37.491   6.276
 4736POPC   D2A59956  12.752  37.632   6.644
 4736POPC   C3A59957  12.922  37.572   7.061
 4736POPC   C4A59958  13.049  37.184   7.290
 4736POPC   C1B59959  12.435  37.727   6.216
 4736POPC   C2B59960  12.383  37.960   6.624
 4736POPC   C3B59961  12.410  37.743   7.043
 4736POPC   C4B59962  12.586  37.851   7.434
 4737POPC   NC359963   4.826   1.200   5.505
 4737POPC   PO459964   5.441   1.510   5.448
 4737POPC   GL159965   5.278   1.153   5.728
 4737POPC   GL259966   5.078   1.392   5.916
 4737POPC   C1A59967   5.340   1.058   6.187
 4737POPC   D2A59968   5.167   1.344   6.522
 4737POPC   C3A59969   5.310   1.337   6.952
 4737POPC   C4A59970   5.405   0.989   7.247
 4737POPC   C1B59971   4.804   1.152   6.187
 4737POPC   C2B59972   4.717   1.073   6.616
 4737POPC   C3B59973   4.823   1.127   7.024
 4737POPC   C4B59974   4.928   0.764   7.208
 4738POPC   NC359975  36.582   6.862   5.545
 4738POPC   PO459976  36.696   7.521   5.346
 4738POPC   GL159977  36.845   7.600   5.759
 4738POPC   GL259978  37.203   7.680   5.773
 4738POPC   C1A59979  36.867   7.325   6.111
 4738POPC   D2A59980  36.956   7.091   6.474
 4738POPC   C3A59981  36.661   7.173   6.787
 4738POPC   C4A59982  36.737   7.208   7.201
 4738POPC   C1B59983  37.087   7.779   6.198
 4738POPC   C2B59984  37.188   7.557   6.547
 4738POPC   C3B59985  37.139   7.352   6.930
 4738POPC   C4B59986  37.239   7.545   7.312
 4739POPC   NC359987  35.063   1.207   5.410
 4739POPC   PO459988  34.388   1.208   5.221
 4739POPC   GL159989  34.587   1.177   5.630
 4739POPC   GL259990  34.277   1.277   5.789
 4739POPC   C1A59991  34.653   1.097   6.088
 4739POPC   D2A59992  34.476   1.250   6.471
 4739POPC   C3A59993  34.610   1.133   6.887
 4739POPC   C4A59994  34.541   0.857   7.247
 4739POPC   C1B59995  34.091   1.473   6.149
 4739POPC   C2B59996  34.185   1.648   6.540
 4739POPC   C3B59997  34.148   1.404   6.893
 4739POPC   C4B59998  34.319   1.338   7.284
 4740POPC   NC359999  19.315  10.902   5.243
 4740POPC   PO460000  19.162  10.258   5.402
 4740POPC   GL160001  18.978  10.428   5.779
 4740POPC   GL260002  18.964  10.809   5.806
 4740POPC   C1A60003  19.022  10.278   6.201
 4740POPC   D2A60004  19.228  10.156   6.590
 4740POPC   C3A60005  18.935  10.183   6.947
 4740POPC   C4A60006  18.934  10.276   7.392
 4740POPC   C1B60007  19.229  10.747   6.198
 4740POPC   C2B60008  19.117  10.661   6.643
 4740POPC   C3B60009  19.203  10.839   7.070
 4740POPC   C4B60010  19.120  10.747   7.484
 4741POPC   NC360011  22.297   4.349   5.345
 4741POPC   PO460012  21.703   4.322   5.380
 4741POPC   GL160013  21.980   4.366   5.733
 4741POPC   GL260014  22.141   4.018   5.703
 4741POPC   C1A60015  21.961   4.626   6.125
 4741POPC   D2A60016  21.793   4.584   6.571
 4741POPC   C3A60017  22.041   4.569   6.970
 4741POPC   C4A60018  22.388   4.385   7.214
 4741POPC   C1B60019  22.174   4.150   6.141
 4741POPC   C2B60020  21.983   3.978   6.509
 4741POPC   C3B60021  21.975   4.020   6.948
 4741POPC   C4B60022  21.892   4.136   7.360
 4742POPC   NC360023   4.127  21.827   5.126
 4742POPC   PO460024   4.159  22.360   5.458
 4742POPC   GL160025   4.205  22.161   5.828
 4742POPC   GL260026   3.852  22.153   5.915
 4742POPC   C1A60027   4.442  21.991   6.204
 4742POPC   D2A60028   4.349  21.745   6.569
 4742POPC   C3A60029   4.523  21.929   6.935
 4742POPC   C4A60030   4.517  21.788   7.349
 4742POPC   C1B60031   3.942  21.989   6.305
 4742POPC   C2B60032   3.811  21.836   6.687
 4742POPC   C3B60033   3.911  22.069   7.043
 4742POPC   C4B60034   4.254  22.273   7.249
 4743POPC   NC360035  44.221  31.488   5.457
 4743POPC   PO460036  44.758  31.193   5.585
 4743POPC   GL160037  44.648  31.612   5.776
 4743POPC   GL260038  44.993  31.700   5.730
 4743POPC   C1A60039  44.532  31.819   6.201
 4743POPC   D2A60040  44.537  31.584   6.566
 4743POPC   C3A60041  44.396  31.702   6.942
 4743POPC   C4A60042  44.505  31.429   7.309
 4743POPC   C1B60043  44.990  31.576   6.163
 4743POPC   C2B60044   0.033  31.711   6.590
 4743POPC   C3B60045  44.903  31.558   6.975
 4743POPC   C4B60046   0.070  31.308   7.284
 4744POPC   NC360047  24.327  19.650   5.010
 4744POPC   PO460048  24.662  20.129   5.387
 4744POPC   GL160049  24.654  19.925   5.784
 4744POPC   GL260050  24.326  19.918   5.897
 4744POPC   C1A60051  24.650  19.640   6.170
 4744POPC   D2A60052  24.609  19.765   6.599
 4744POPC   C3A60053  24.415  19.546   6.931
 4744POPC   C4A60054  24.627  19.719   7.252
 4744POPC   C1B60055  24.158  19.943   6.314
 4744POPC   C2B60056  24.225  20.139   6.683
 4744POPC   C3B60057  24.513  20.143   7.003
 4744POPC   C4B60058  24.178  19.957   7.206
 4745POPC   NC360059  36.789  41.618   5.468
 4745POPC   PO460060  37.362  41.284   5.399
 4745POPC   GL160061  37.211  41.519   5.803
 4745POPC   GL260062  36.981  41.808   5.880
 4745POPC   C1A60063  36.948  41.475   6.239
 4745POPC   D2A60064  36.984  41.360   6.686
 4745POPC   C3A60065  36.679  41.193   6.971
 4745POPC   C4A60066  36.851  41.176   7.417
 4745POPC   C1B60067  37.282  41.873   6.163
 4745POPC   C2B60068  37.349  41.669   6.530
 4745POPC   C3B60069  37.211  41.779   6.889
 4745POPC   C4B60070  36.799  41.695   7.046
 4746POPC   NC360071   6.050  18.065   5.416
 4746POPC   PO460072   5.592  18.559   5.434
 4746POPC   GL160073   5.751  18.283   5.775
 4746POPC   GL260074   6.077  18.382   5.856
 4746POPC   C1A60075   5.637  18.085   6.175
 4746POPC   D2A60076   5.555  18.287   6.588
 4746POPC   C3A60077   5.572  18.102   7.001
 4746POPC   C4A60078   5.823  18.425   7.185
 4746POPC   C1B60079   6.103  18.238   6.291
 4746POPC   C2B60080   6.100  17.989   6.660
 4746POPC   C3B60081   6.219  18.076   7.084
 4746POPC   C4B60082   6.036  18.088   7.504
 4747POPC   NC360083  40.570   9.243   5.574
 4747POPC   PO460084  41.152   9.305   5.209
 4747POPC   GL160085  41.124   9.167   5.669
 4747POPC   GL260086  40.865   8.939   5.817
 4747POPC   C1A60087  41.198   9.123   6.140
 4747POPC   D2A60088  40.981   9.275   6.515
 4747POPC   C3A60089  41.003   8.981   6.877
 4747POPC   C4A60090  41.088   8.801   7.290
 4747POPC   C1B60091  40.590   8.979   6.223
 4747POPC   C2B60092  40.558   8.757   6.652
 4747POPC   C3B60093  40.582   8.800   7.131
 4747POPC   C4B60094  40.649   8.838   7.579
 4748POPC   NC360095  31.208  28.646   5.417
 4748POPC   PO460096  30.545  28.566   5.400
 4748POPC   GL160097  30.689  28.366   5.805
 4748POPC   GL260098  30.417  28.162   5.890
 4748POPC   C1A60099  30.877  28.236   6.235
 4748POPC   D2A60100  31.103  28.267   6.651
 4748POPC   C3A60101  30.792  28.224   6.993
 4748POPC   C4A60102  30.352  28.150   7.043
 4748POPC   C1B60103  30.370  28.419   6.236
 4748POPC   C2B60104  30.485  28.528   6.659
 4748POPC   C3B60105  30.364  28.675   7.071
 4748POPC   C4B60106  30.406  28.452   7.451
 4749POPC   NC360107  40.479  34.713   5.549
 4749POPC   PO460108  41.087  34.696   5.337
 4749POPC   GL160109  40.952  34.453   5.728
 4749POPC   GL260110  40.885  34.757   5.862
 4749POPC   C1A60111  40.819  34.410   6.220
 4749POPC   D2A60112  40.831  34.577   6.676
 4749POPC   C3A60113  40.846  34.402   7.094
 4749POPC   C4A60114  41.189  34.429   7.436
 4749POPC   C1B60115  40.670  34.932   6.214
 4749POPC   C2B60116  40.684  35.049   6.642
 4749POPC   C3B60117  40.534  34.860   7.021
 4749POPC   C4B60118  40.571  34.686   7.445
 4750POPC   NC360119  35.133   7.992   5.399
 4750POPC   PO460120  35.192   8.628   5.636
 4750POPC   GL160121  35.458   8.359   5.863
 4750POPC   GL260122  35.212   8.106   5.916
 4750POPC   C1A60123  35.572   8.261   6.300
 4750POPC   D2A60124  35.554   8.152   6.754
 4750POPC   C3A60125  35.433   8.410   7.090
 4750POPC   C4A60126  35.119   8.251   7.382
 4750POPC   C1B60127  35.473   7.786   6.088
 4750POPC   C2B60128  35.698   7.740   6.467
 4750POPC   C3B60129  35.567   7.665   6.884
 4750POPC   C4B60130  35.463   7.917   7.226
 4751POPC   NC360131   7.543   8.573   5.328
 4751POPC   PO460132   7.020   8.231   5.499
 4751POPC   GL160133   7.299   8.359   5.843
 4751POPC   GL260134   7.673   8.338   5.782
 4751POPC   C1A60135   7.442   8.233   6.273
 4751POPC   D2A60136   7.586   8.154   6.700
 4751POPC   C3A60137   7.272   8.351   6.941
 4751POPC   C4A60138   7.106   8.092   7.235
 4751POPC   C1B60139   7.826   8.540   6.143
 4751POPC   C2B60140   7.679   8.627   6.565
 4751POPC   C3B60141   7.899   8.513   6.953
 4751POPC   C4B60142   7.674   8.275   7.258
 4752POPC   NC360143   6.152  24.587   5.697
 4752POPC   PO460144   6.713  24.591   5.244
 4752POPC   GL160145   6.678  24.710   5.748
 4752POPC   GL260146   6.429  24.936   5.954
 4752POPC   C1A60147   6.658  24.536   6.225
 4752POPC   D2A60148   6.795  24.285   6.628
 4752POPC   C3A60149   6.869  24.393   7.102
 4752POPC   C4A60150   7.110  24.249   7.505
 4752POPC   C1B60151   6.369  24.931   6.396
 4752POPC   C2B60152   6.490  24.688   6.750
 4752POPC   C3B60153   6.606  24.828   7.151
 4752POPC   C4B60154   6.431  24.922   7.541
 4753POPC   NC360155  18.424  29.295   5.409
 4753POPC   PO460156  18.826  28.770   5.481
 4753POPC   GL160157  18.551  28.914   5.785
 4753POPC   GL260158  18.198  28.946   5.737
 4753POPC   C1A60159  18.469  29.231   6.108
 4753POPC   D2A60160  18.191  29.237   6.475
 4753POPC   C3A60161  18.351  29.211   6.893
 4753POPC   C4A60162  18.074  29.305   7.224
 4753POPC   C1B60163  18.170  28.813   6.176
 4753POPC   C2B60164  18.229  28.729   6.636
 4753POPC   C3B60165  18.067  28.810   7.051
 4753POPC   C4B60166  18.357  28.931   7.379
 4754POPC   NC360167  12.489  14.554   5.592
 4754POPC   PO460168  12.756  14.063   5.204
 4754POPC   GL160169  12.948  14.190   5.691
 4754POPC   GL260170  13.081  14.542   5.806
 4754POPC   C1A60171  12.831  14.202   6.159
 4754POPC   D2A60172  12.484  14.209   6.444
 4754POPC   C3A60173  12.627  14.207   6.867
 4754POPC   C4A60174  12.765  14.247   7.283
 4754POPC   C1B60175  12.802  14.720   6.165
 4754POPC   C2B60176  12.664  14.649   6.591
 4754POPC   C3B60177  12.851  14.657   6.978
 4754POPC   C4B60178  13.222  14.574   7.193
 4755POPC   NC360179  18.810  14.498   5.491
 4755POPC   PO460180  19.314  14.081   5.550
 4755POPC   GL160181  19.138  14.347   5.861
 4755POPC   GL260182  18.947  14.663   5.954
 4755POPC   C1A60183  18.976  14.261   6.254
 4755POPC   D2A60184  18.965  13.959   6.557
 4755POPC   C3A60185  19.149  14.079   6.919
 4755POPC   C4A60186  19.184  14.169   7.311
 4755POPC   C1B60187  18.602  14.619   6.297
 4755POPC   C2B60188  18.711  14.540   6.720
 4755POPC   C3B60189  18.906  14.550   7.117
 4755POPC   C4B60190  18.958  14.530   7.569
 4756POPC   NC360191  39.017  44.349   5.535
 4756POPC   PO460192  39.514  44.748   5.285
 4756POPC   GL160193  39.344  44.794   5.760
 4756POPC   GL260194  39.290  44.517   6.015
 4756POPC   C1A60195  39.176  44.970   6.180
 4756POPC   D2A60196  38.915  44.794   6.550
 4756POPC   C3A60197  39.074  44.933   6.974
 4756POPC   C4A60198  39.270   0.048   7.391
 4756POPC   C1B60199  38.919  44.356   6.206
 4756POPC   C2B60200  38.953  44.256   6.629
 4756POPC   C3B60201  39.200  44.436   6.950
 4756POPC   C4B60202  38.989  44.268   7.271
 4757POPC   NC360203  23.562  30.244   5.561
 4757POPC   PO460204  23.797  29.704   5.262
 4757POPC   GL160205  23.770  29.756   5.730
 4757POPC   GL260206  24.023  29.529   5.780
 4757POPC   C1A60207  23.604  29.921   6.172
 4757POPC   D2A60208  23.862  30.120   6.516
 4757POPC   C3A60209  23.702  30.145   6.931
 4757POPC   C4A60210  23.519  29.945   7.277
 4757POPC   C1B60211  24.053  29.711   6.188
 4757POPC   C2B60212  23.876  29.580   6.567
 4757POPC   C3B60213  23.838  29.650   6.996
 4757POPC   C4B60214  24.125  29.916   7.117
 4758POPC   NC360215  14.542   6.324   5.210
 4758POPC   PO460216  14.225   5.826   5.505
 4758POPC   GL160217  14.486   5.916   5.857
 4758POPC   GL260218  14.507   5.578   6.003
 4758POPC   C1A60219  14.682   5.933   6.311
 4758POPC   D2A60220  14.810   6.119   6.730
 4758POPC   C3A60221  14.529   6.032   7.083
 4758POPC   C4A60222  14.498   5.605   7.280
 4758POPC   C1B60223  14.135   5.820   6.205
 4758POPC   C2B60224  13.912   5.877   6.594
 4758POPC   C3B60225  14.050   5.789   7.005
 4758POPC   C4B60226  14.151   5.959   7.419
 4759POPC   NC360227   5.539   9.461   5.449
 4759POPC   PO460228   6.227   9.620   5.177
 4759POPC   GL160229   5.969   9.691   5.625
 4759POPC   GL260230   6.190   9.705   5.900
 4759POPC   C1A60231   5.730   9.595   6.082
 4759POPC   D2A60232   5.612   9.551   6.568
 4759POPC   C3A60233   5.710   9.882   6.862
 4759POPC   C4A60234   5.940   9.739   7.220
 4759POPC   C1B60235   6.364   9.705   6.307
 4759POPC   C2B60236   6.197   9.776   6.724
 4759POPC   C3B60237   6.269  10.072   7.046
 4759POPC   C4B60238   6.137  10.123   7.483
 4760POPC   NC360239  29.250  17.673   5.518
 4760POPC   PO460240  28.671  17.319   5.448
 4760POPC   GL160241  28.796  17.606   5.761
 4760POPC   GL260242  29.042  17.378   5.892
 4760POPC   C1A60243  28.758  17.758   6.193
 4760POPC   D2A60244  28.769  17.476   6.572
 4760POPC   C3A60245  28.943  17.504   7.010
 4760POPC   C4A60246  29.023  17.296   7.432
 4760POPC   C1B60247  29.151  17.218   6.299
 4760POPC   C2B60248  29.430  17.148   6.656
 4760POPC   C3B60249  29.416  17.217   7.109
 4760POPC   C4B60250  29.469  17.116   7.574
 4761POPC   NC360251  17.107  16.962   5.583
 4761POPC   PO460252  17.666  16.772   5.327
 4761POPC   GL160253  17.524  16.644   5.756
 4761POPC   GL260254  17.520  16.972   5.910
 4761POPC   C1A60255  17.641  16.493   6.187
 4761POPC   D2A60256  17.484  16.489   6.643
 4761POPC   C3A60257  17.823  16.444   6.947
 4761POPC   C4A60258  17.786  16.453   7.406
 4761POPC   C1B60259  17.225  16.792   6.217
 4761POPC   C2B60260  17.173  16.935   6.615
 4761POPC   C3B60261  17.262  16.846   7.031
 4761POPC   C4B60262  17.138  17.179   7.264
 4762POPC   NC360263  26.976  27.966   5.597
 4762POPC   PO460264  26.883  28.565   5.349
 4762POPC   GL160265  26.767  28.586   5.782
 4762POPC   GL260266  27.104  28.504   5.829
 4762POPC   C1A60267  26.717  28.395   6.198
 4762POPC   D2A60268  26.727  28.159   6.600
 4762POPC   C3A60269  26.688  28.435   6.956
 4762POPC   C4A60270  26.831  28.453   7.385
 4762POPC   C1B60271  27.245  28.600   6.222
 4762POPC   C2B60272  27.145  28.474   6.634
 4762POPC   C3B60273  27.086  28.722   7.027
 4762POPC   C4B60274  27.010  28.928   7.423
 4763POPC   NC360275   0.643   2.226   5.454
 4763POPC   PO460276   0.122   1.747   5.416
 4763POPC   GL160277   0.357   1.887   5.809
 4763POPC   GL260278   0.715   1.912   5.827
 4763POPC   C1A60279   0.406   2.035   6.252
 4763POPC   D2A60280   0.107   2.263   6.527
 4763POPC   C3A60281  44.970   2.108   6.910
 4763POPC   C4A60282   0.168   2.018   7.281
 4763POPC   C1B60283   0.855   2.301   6.108
 4763POPC   C2B60284   0.736   2.317   6.562
 4763POPC   C3B60285   0.487   2.147   6.899
 4763POPC   C4B60286   0.631   2.156   7.346
 4764POPC   NC360287  18.525  32.584   5.546
 4764POPC   PO460288  18.224  31.952   5.438
 4764POPC   GL160289  18.429  32.097   5.776
 4764POPC   GL260290  18.665  31.836   5.730
 4764POPC   C1A60291  18.284  32.253   6.191
 4764POPC   D2A60292  17.964  32.257   6.536
 4764POPC   C3A60293  18.234  32.268   6.901
 4764POPC   C4A60294  18.476  32.507   7.174
 4764POPC   C1B60295  18.518  31.783   6.176
 4764POPC   C2B60296  18.635  31.943   6.552
 4764POPC   C3B60297  18.772  31.818   6.934
 4764POPC   C4B60298  18.544  32.006   7.235
 4765POPC   NC360299  23.955  40.622   5.511
 4765POPC   PO460300  23.434  41.118   5.542
 4765POPC   GL160301  23.509  40.771   5.785
 4765POPC   GL260302  23.821  40.934   5.905
 4765POPC   C1A60303  23.527  40.604   6.207
 4765POPC   D2A60304  23.893  40.638   6.489
 4765POPC   C3A60305  23.861  40.614   6.962
 4765POPC   C4A60306  23.512  40.606   7.293
 4765POPC   C1B60307  23.924  41.141   6.290
 4765POPC   C2B60308  24.055  41.060   6.728
 4765POPC   C3B60309  24.063  41.034   7.171
 4765POPC   C4B60310  23.937  40.767   7.512
 4766POPC   NC360311  23.558  36.100   5.322
 4766POPC   PO460312  24.235  35.951   5.441
 4766POPC   GL160313  23.858  35.905   5.711
 4766POPC   GL260314  23.736  36.242   5.811
 4766POPC   C1A60315  23.621  35.841   6.101
 4766POPC   D2A60316  23.594  35.825   6.564
 4766POPC   C3A60317  23.685  35.950   7.007
 4766POPC   C4A60318  23.504  35.944   7.459
 4766POPC   C1B60319  23.519  36.333   6.244
 4766POPC   C2B60320  23.488  36.378   6.730
 4766POPC   C3B60321  23.475  36.382   7.201
 4766POPC   C4B60322  23.364  36.360   7.710
 4767POPC   NC360323   3.815  34.995   5.264
 4767POPC   PO460324   3.484  35.568   5.391
 4767POPC   GL160325   3.508  35.195   5.676
 4767POPC   GL260326   3.533  35.426   5.930
 4767POPC   C1A60327   3.492  34.970   6.121
 4767POPC   D2A60328   3.813  34.981   6.501
 4767POPC   C3A60329   3.529  35.073   6.856
 4767POPC   C4A60330   3.190  35.168   7.141
 4767POPC   C1B60331   3.682  35.437   6.325
 4767POPC   C2B60332   3.842  35.469   6.717
 4767POPC   C3B60333   3.638  35.542   7.111
 4767POPC   C4B60334   3.836  35.841   7.353
 4768POPC   NC360335  20.123   2.148   5.217
 4768POPC   PO460336  19.394   1.976   5.319
 4768POPC   GL160337  19.709   1.921   5.689
 4768POPC   GL260338  19.847   2.210   5.868
 4768POPC   C1A60339  19.903   1.751   6.103
 4768POPC   D2A60340  19.816   1.837   6.581
 4768POPC   C3A60341  19.832   1.740   7.044
 4768POPC   C4A60342  19.923   1.779   7.521
 4768POPC   C1B60343  20.217   2.165   6.137
 4768POPC   C2B60344  20.438   2.200   6.526
 4768POPC   C3B60345  20.191   2.108   6.869
 4768POPC   C4B60346  20.084   2.211   7.257
 4769POPC   NC360347  41.271  24.935   5.525
 4769POPC   PO460348  41.595  24.388   5.213
 4769POPC   GL160349  41.544  24.379   5.688
 4769POPC   GL260350  41.649  24.684   5.869
 4769POPC   C1A60351  41.386  24.307   6.127
 4769POPC   D2A60352  41.579  24.445   6.529
 4769POPC   C3A60353  41.378  24.415   6.929
 4769POPC   C4A60354  41.550  24.191   7.244
 4769POPC   C1B60355  41.372  24.837   6.212
 4769POPC   C2B60356  41.252  24.840   6.658
 4769POPC   C3B60357  41.530  24.924   7.009
 4769POPC   C4B60358  41.835  24.620   7.152
 4770POPC   NC360359   0.810  38.045   5.477
 4770POPC   PO460360   0.586  37.388   5.435
 4770POPC   GL160361   0.494  37.556   5.823
 4770POPC   GL260362   0.779  37.753   5.902
 4770POPC   C1A60363   0.314  37.679   6.228
 4770POPC   D2A60364   0.263  38.001   6.524
 4770POPC   C3A60365   0.154  37.746   6.880
 4770POPC   C4A60366   0.260  37.736   7.332
 4770POPC   C1B60367   0.766  37.916   6.301
 4770POPC   C2B60368   0.659  37.682   6.642
 4770POPC   C3B60369   0.654  37.810   7.021
 4770POPC   C4B60370   0.824  37.638   7.323
 4771POPC   NC360371   6.877  42.248   5.204
 4771POPC   PO460372   6.499  41.933   5.694
 4771POPC   GL160373   6.610  42.352   5.893
 4771POPC   GL260374   6.817  42.551   5.680
 4771POPC   C1A60375   6.574  42.500   6.337
 4771POPC   D2A60376   6.601  42.246   6.667
 4771POPC   C3A60377   6.562  42.398   7.023
 4771POPC   C4A60378   6.689  42.129   7.332
 4771POPC   C1B60379   6.918  42.759   6.084
 4771POPC   C2B60380   6.862  42.897   6.536
 4771POPC   C3B60381   6.975  42.711   6.942
 4771POPC   C4B60382   6.881  42.610   7.357
 4772POPC   NC360383  34.847  18.059   5.388
 4772POPC   PO460384  34.168  18.025   5.649
 4772POPC   GL160385  34.419  18.223   5.920
 4772POPC   GL260386  34.748  18.273   5.841
 4772POPC   C1A60387  34.385  18.117   6.351
 4772POPC   D2A60388  34.726  17.949   6.568
 4772POPC   C3A60389  34.830  18.192   6.899
 4772POPC   C4A60390  34.538  18.176   7.216
 4772POPC   C1B60391  34.788  18.426   6.259
 4772POPC   C2B60392  34.563  18.560   6.623
 4772POPC   C3B60393  34.845  18.712   6.905
 4772POPC   C4B60394  34.907  18.588   7.278
 4773POPC   NC360395  20.847  31.909   5.141
 4773POPC   PO460396  20.310  32.296   5.422
 4773POPC   GL160397  20.494  32.295   5.833
 4773POPC   GL260398  20.681  32.585   5.802
 4773POPC   C1A60399  20.473  32.083   6.262
 4773POPC   D2A60400  20.460  32.205   6.713
 4773POPC   C3A60401  20.377  32.134   7.162
 4773POPC   C4A60402  20.442  32.430   7.538
 4773POPC   C1B60403  20.830  32.447   6.202
 4773POPC   C2B60404  20.964  32.313   6.609
 4773POPC   C3B60405  20.880  32.333   7.066
 4773POPC   C4B60406  20.883  32.075   7.450
 4774POPC   NC360407  39.327  39.350   5.355
 4774POPC   PO460408  38.924  38.837   5.551
 4774POPC   GL160409  39.060  39.225   5.843
 4774POPC   GL260410  39.422  39.319   5.850
 4774POPC   C1A60411  39.091  39.455   6.285
 4774POPC   D2A60412  39.070  39.771   6.668
 4774POPC   C3A60413  39.242  39.491   7.019
 4774POPC   C4A60414  39.106  39.045   7.087
 4774POPC   C1B60415  39.617  39.307   6.241
 4774POPC   C2B60416  39.609  39.050   6.612
 4774POPC   C3B60417  39.644  39.140   7.047
 4774POPC   C4B60418  39.533  38.854   7.347
 4775POPC   NC360419  35.589   8.766   5.447
 4775POPC   PO460420  35.132   9.233   5.347
 4775POPC   GL160421  35.213   9.125   5.807
 4775POPC   GL260422  35.574   9.114   5.822
 4775POPC   C1A60423  35.299   8.875   6.225
 4775POPC   D2A60424  35.420   8.654   6.612
 4775POPC   C3A60425  35.328   8.894   6.965
 4775POPC   C4A60426  35.147   9.240   7.155
 4775POPC   C1B60427  35.540   9.341   6.196
 4775POPC   C2B60428  35.563   9.154   6.595
 4775POPC   C3B60429  35.637   9.326   6.997
 4775POPC   C4B60430  35.619   9.052   7.356
 4776POPC   NC360431  24.101  43.025   5.379
 4776POPC   PO460432  23.698  43.457   5.134
 4776POPC   GL160433  23.702  43.185   5.640
 4776POPC   GL260434  23.932  42.890   5.825
 4776POPC   C1A60435  23.776  43.237   6.129
 4776POPC   D2A60436  24.044  43.182   6.482
 4776POPC   C3A60437  23.915  43.296   6.883
 4776POPC   C4A60438  23.539  43.178   7.085
 4776POPC   C1B60439  23.825  42.739   6.256
 4776POPC   C2B60440  23.694  42.843   6.680
 4776POPC   C3B60441  23.868  42.781   7.101
 4776POPC   C4B60442  23.868  42.713   7.554
 4777POPC   NC360443  24.826   6.471   5.442
 4777POPC   PO460444  25.282   6.897   5.307
 4777POPC   GL160445  25.058   6.809   5.769
 4777POPC   GL260446  24.922   6.485   5.926
 4777POPC   C1A60447  25.119   6.756   6.274
 4777POPC   D2A60448  25.259   6.511   6.627
 4777POPC   C3A60449  25.319   6.706   6.996
 4777POPC   C4A60450  25.031   6.813   7.279
 4777POPC   C1B60451  25.119   6.198   6.255
 4777POPC   C2B60452  25.222   5.982   6.654
 4777POPC   C3B60453  25.411   6.190   7.011
 4777POPC   C4B60454  25.351   6.398   7.406
 4778POPC   NC360455  26.227  21.282   5.414
 4778POPC   PO460456  25.563  21.553   5.523
 4778POPC   GL160457  25.925  21.414   5.801
 4778POPC   GL260458  26.166  21.145   5.905
 4778POPC   C1A60459  26.150  21.652   6.132
 4778POPC   D2A60460  26.296  21.690   6.577
 4778POPC   C3A60461  26.002  21.659   6.944
 4778POPC   C4A60462  26.171  21.544   7.348
 4778POPC   C1B60463  26.213  21.173   6.360
 4778POPC   C2B60464  26.247  21.221   6.823
 4778POPC   C3B60465  26.143  21.073   7.213
 4778POPC   C4B60466  26.400  21.112   7.600
 4779POPC   NC360467  12.840   8.363   5.383
 4779POPC   PO460468  12.514   7.711   5.419
 4779POPC   GL160469  12.699   8.029   5.749
 4779POPC   GL260470  13.057   8.233   5.824
 4779POPC   C1A60471  12.675   8.154   6.177
 4779POPC   D2A60472  12.942   8.021   6.515
 4779POPC   C3A60473  12.763   8.065   6.907
 4779POPC   C4A60474  12.859   7.887   7.258
 4779POPC   C1B60475  13.001   8.536   6.197
 4779POPC   C2B60476  12.786   8.505   6.598
 4779POPC   C3B60477  12.913   8.578   7.016
 4779POPC   C4B60478  12.874   8.384   7.395
 4780POPC   NC360479  30.967  32.735   5.487
 4780POPC   PO460480  30.486  33.275   5.446
 4780POPC   GL160481  30.726  33.131   5.790
 4780POPC   GL260482  30.486  32.851   5.855
 4780POPC   C1A60483  30.723  33.189   6.237
 4780POPC   D2A60484  30.756  33.481   6.600
 4780POPC   C3A60485  30.635  33.252   6.950
 4780POPC   C4A60486  30.755  33.236   7.385
 4780POPC   C1B60487  30.619  32.684   6.251
 4780POPC   C2B60488  30.700  32.676   6.713
 4780POPC   C3B60489  30.918  32.820   7.100
 4780POPC   C4B60490  30.874  32.770   7.570
 4781POPC   NC360491   8.026  31.104   5.471
 4781POPC   PO460492   8.148  31.805   5.559
 4781POPC   GL160493   7.970  31.553   5.829
 4781POPC   GL260494   8.282  31.356   5.841
 4781POPC   C1A60495   7.782  31.509   6.249
 4781POPC   D2A60496   7.782  31.162   6.598
 4781POPC   C3A60497   7.918  31.308   6.991
 4781POPC   C4A60498   7.861  31.715   7.093
 4781POPC   C1B60499   8.343  31.662   6.182
 4781POPC   C2B60500   8.165  31.625   6.587
 4781POPC   C3B60501   8.399  31.570   6.935
 4781POPC   C4B60502   8.371  31.770   7.291
 4782POPC   NC360503  20.990   4.803   5.150
 4782POPC   PO460504  20.496   5.134   5.433
 4782POPC   GL160505  20.557   5.057   5.812
 4782POPC   GL260506  20.858   5.123   5.881
 4782POPC   C1A60507  20.362   5.065   6.158
 4782POPC   D2A60508  20.317   5.294   6.485
 4782POPC   C3A60509  20.445   5.121   6.859
 4782POPC   C4A60510  20.312   5.168   7.267
 4782POPC   C1B60511  20.822   5.326   6.306
 4782POPC   C2B60512  20.732   5.563   6.718
 4782POPC   C3B60513  20.768   5.394   7.139
 4782POPC   C4B60514  20.886   4.948   7.106
 4783POPC   NC360515  20.197  12.367   5.472
 4783POPC   PO460516  19.417  12.347   5.361
 4783POPC   GL160517  19.543  12.111   5.781
 4783POPC   GL260518  19.499  11.713   5.821
 4783POPC   C1A60519  19.579  12.250   6.182
 4783POPC   D2A60520  19.469  12.056   6.548
 4783POPC   C3A60521  19.597  12.235   6.914
 4783POPC   C4A60522  19.582  11.931   7.198
 4783POPC   C1B60523  19.756  11.774   6.189
 4783POPC   C2B60524  20.094  11.800   6.486
 4783POPC   C3B60525  20.010  11.901   6.902
 4783POPC   C4B60526  20.068  11.866   7.309
 4784POPC   NC360527   7.307  41.404   5.113
 4784POPC   PO460528   7.738  41.693   5.533
 4784POPC   GL160529   7.486  41.432   5.809
 4784POPC   GL260530   7.327  41.668   6.045
 4784POPC   C1A60531   7.517  41.228   6.221
 4784POPC   D2A60532   7.387  41.354   6.640
 4784POPC   C3A60533   7.488  41.250   7.065
 4784POPC   C4A60534   7.416  41.415   7.485
 4784POPC   C1B60535   7.721  41.715   6.244
 4784POPC   C2B60536   7.711  41.756   6.673
 4784POPC   C3B60537   7.561  41.777   7.094
 4784POPC   C4B60538   7.852  41.695   7.435
 4785POPC   NC360539  11.746  39.819   5.724
 4785POPC   PO460540  11.194  40.217   5.530
 4785POPC   GL160541  11.306  40.144   5.931
 4785POPC   GL260542  11.248  39.779   5.930
 4785POPC   C1A60543  10.990  40.139   6.263
 4785POPC   D2A60544  10.998  40.055   6.696
 4785POPC   C3A60545  11.389  40.114   6.865
 4785POPC   C4A60546  11.444  40.232   7.267
 4785POPC   C1B60547  11.423  39.854   6.352
 4785POPC   C2B60548  11.301  39.629   6.716
 4785POPC   C3B60549  11.088  39.707   7.089
 4785POPC   C4B60550  11.261  39.767   7.474
 4786POPC   NC360551  18.087   2.956   5.452
 4786POPC   PO460552  18.769   2.657   5.313
 4786POPC   GL160553  18.581   2.691   5.748
 4786POPC   GL260554  18.764   2.433   5.930
 4786POPC   C1A60555  18.283   2.845   6.097
 4786POPC   D2A60556  18.215   3.042   6.527
 4786POPC   C3A60557  18.207   2.893   6.980
 4786POPC   C4A60558  18.553   2.919   7.271
 4786POPC   C1B60559  18.482   2.392   6.267
 4786POPC   C2B60560  18.402   2.504   6.700
 4786POPC   C3B60561  18.447   2.438   7.155
 4786POPC   C4B60562  18.466   2.269   7.617
 4787POPC   NC360563  23.196  40.096   5.450
 4787POPC   PO460564  22.652  40.311   5.148
 4787POPC   GL160565  22.811  39.924   5.693
 4787POPC   GL260566  23.137  39.840   5.905
 4787POPC   C1A60567  22.752  40.007   6.172
 4787POPC   D2A60568  22.921  40.213   6.542
 4787POPC   C3A60569  22.881  40.041   6.947
 4787POPC   C4A60570  22.931  39.784   7.268
 4787POPC   C1B60571  23.326  40.050   6.265
 4787POPC   C2B60572  23.390  39.961   6.702
 4787POPC   C3B60573  23.419  39.783   7.112
 4787POPC   C4B60574  23.349  40.113   7.360
 4788POPC   NC360575  22.614  43.334   5.428
 4788POPC   PO460576  21.934  43.406   5.366
 4788POPC   GL160577  22.149  43.259   5.749
 4788POPC   GL260578  22.415  42.990   5.768
 4788POPC   C1A60579  22.067  43.379   6.195
 4788POPC   D2A60580  22.087  43.162   6.586
 4788POPC   C3A60581  21.991  43.332   6.974
 4788POPC   C4A60582  22.071  42.985   7.235
 4788POPC   C1B60583  22.537  43.182   6.150
 4788POPC   C2B60584  22.527  43.420   6.550
 4788POPC   C3B60585  22.512  43.239   6.991
 4788POPC   C4B60586  22.565  43.151   7.462
 4789POPC   NC360587  22.821  36.693   5.329
 4789POPC   PO460588  22.756  37.209   5.740
 4789POPC   GL160589  22.943  36.830   5.840
 4789POPC   GL260590  22.628  36.620   5.811
 4789POPC   C1A60591  23.295  36.818   6.168
 4789POPC   D2A60592  23.435  37.058   6.558
 4789POPC   C3A60593  23.341  36.917   6.985
 4789POPC   C4A60594  23.073  37.070   7.333
 4789POPC   C1B60595  22.545  36.839   6.224
 4789POPC   C2B60596  22.510  36.933   6.673
 4789POPC   C3B60597  22.686  36.874   7.076
 4789POPC   C4B60598  22.559  36.716   7.478
 4790POPC   NC360599  31.325  38.926   5.090
 4790POPC   PO460600  31.543  39.515   5.403
 4790POPC   GL160601  31.500  39.324   5.815
 4790POPC   GL260602  31.516  38.952   5.802
 4790POPC   C1A60603  31.322  39.233   6.256
 4790POPC   D2A60604  31.277  39.370   6.720
 4790POPC   C3A60605  31.287  39.100   7.098
 4790POPC   C4A60606  31.345  39.178   7.567
 4790POPC   C1B60607  31.822  39.102   6.142
 4790POPC   C2B60608  31.793  39.328   6.587
 4790POPC   C3B60609  31.776  39.106   7.008
 4790POPC   C4B60610  31.817  39.028   7.483
 4791POPC   NC360611  41.933  19.149   5.475
 4791POPC   PO460612  41.450  18.781   5.446
 4791POPC   GL160613  41.580  18.992   5.824
 4791POPC   GL260614  41.551  19.361   5.787
 4791POPC   C1A60615  41.550  18.934   6.261
 4791POPC   D2A60616  41.777  19.054   6.635
 4791POPC   C3A60617  41.512  19.158   6.988
 4791POPC   C4A60618  41.574  19.238   7.436
 4791POPC   C1B60619  41.748  19.384   6.184
 4791POPC   C2B60620  41.679  19.563   6.579
 4791POPC   C3B60621  41.879  19.547   6.943
 4791POPC   C4B60622  41.975  19.512   7.347
 4792POPC   NC360623  29.243  37.881   5.373
 4792POPC   PO460624  28.849  37.312   5.187
 4792POPC   GL160625  29.060  37.445   5.651
 4792POPC   GL260626  29.383  37.607   5.797
 4792POPC   C1A60627  28.994  37.524   6.145
 4792POPC   D2A60628  29.249  37.381   6.560
 4792POPC   C3A60629  29.045  37.509   7.012
 4792POPC   C4A60630  29.165  37.698   7.393
 4792POPC   C1B60631  29.408  37.789   6.256
 4792POPC   C2B60632  29.039  37.826   6.603
 4792POPC   C3B60633  29.002  38.019   7.028
 4792POPC   C4B60634  29.288  38.184   7.397
 4793POPC   NC360635  21.089  36.840   5.546
 4793POPC   PO460636  21.770  36.687   5.486
 4793POPC   GL160637  21.682  36.815   5.910
 4793POPC   GL260638  21.319  36.747   5.981
 4793POPC   C1A60639  21.603  36.946   6.330
 4793POPC   D2A60640  21.275  36.765   6.549
 4793POPC   C3A60641  21.345  36.886   6.943
 4793POPC   C4A60642  21.259  36.721   7.348
 4793POPC   C1B60643  21.101  37.107   6.214
 4793POPC   C2B60644  21.128  37.278   6.633
 4793POPC   C3B60645  20.956  37.212   7.066
 4793POPC   C4B60646  20.955  37.257   7.555
 4794POPC   NC360647  10.647  29.664   5.481
 4794POPC   PO460648  10.286  30.211   5.592
 4794POPC   GL160649  10.367  29.846   5.861
 4794POPC   GL260650  10.725  29.977   5.884
 4794POPC   C1A60651  10.476  29.796   6.303
 4794POPC   D2A60652  10.559  30.182   6.566
 4794POPC   C3A60653  10.535  30.057   6.992
 4794POPC   C4A60654  10.364  29.713   7.164
 4794POPC   C1B60655  10.970  29.717   6.176
 4794POPC   C2B60656  10.915  29.570   6.606
 4794POPC   C3B60657  10.863  29.633   7.068
 4794POPC   C4B60658  10.838  29.603   7.540
 4795POPC   NC360659  17.729  36.431   5.001
 4795POPC   PO460660  17.333  36.048   5.413
 4795POPC   GL160661  17.548  36.241   5.742
 4795POPC   GL260662  17.681  35.907   5.807
 4795POPC   C1A60663  17.378  36.370   6.147
 4795POPC   D2A60664  17.403  36.249   6.583
 4795POPC   C3A60665  17.182  36.419   6.932
 4795POPC   C4A60666  17.443  36.485   7.276
 4795POPC   C1B60667  17.434  35.872   6.211
 4795POPC   C2B60668  17.473  35.770   6.674
 4795POPC   C3B60669  17.381  35.882   7.093
 4795POPC   C4B60670  17.228  35.690   7.477
 4796POPC   NC360671  10.487   7.647   5.414
 4796POPC   PO460672  10.923   7.129   5.373
 4796POPC   GL160673  10.853   7.403   5.711
 4796POPC   GL260674  10.952   7.730   5.579
 4796POPC   C1A60675  10.713   7.306   6.148
 4796POPC   D2A60676  10.505   7.097   6.517
 4796POPC   C3A60677  10.553   7.319   6.922
 4796POPC   C4A60678  10.334   7.483   7.286
 4796POPC   C1B60679  10.871   7.818   6.021
 4796POPC   C2B60680  10.973   7.650   6.428
 4796POPC   C3B60681  11.038   7.639   6.857
 4796POPC   C4B60682  10.818   7.684   7.245
 4797POPC   NC360683  30.010  17.564   5.538
 4797POPC   PO460684  29.415  17.210   5.534
 4797POPC   GL160685  29.609  17.500   5.876
 4797POPC   GL260686  29.996  17.569   6.030
 4797POPC   C1A60687  29.600  17.547   6.326
 4797POPC   D2A60688  29.975  17.589   6.575
 4797POPC   C3A60689  29.853  17.459   6.967
 4797POPC   C4A60690  29.682  17.583   7.380
 4797POPC   C1B60691  30.142  17.198   6.243
 4797POPC   C2B60692  30.412  17.095   6.583
 4797POPC   C3B60693  30.325  17.220   6.987
 4797POPC   C4B60694  30.209  17.460   7.352
 4798POPC   NC360695  19.893  23.749   5.387
 4798POPC   PO460696  19.736  23.138   5.417
 4798POPC   GL160697  19.858  23.254   5.840
 4798POPC   GL260698  19.797  23.589   5.871
 4798POPC   C1A60699  19.892  23.339   6.320
 4798POPC   D2A60700  19.934  23.659   6.665
 4798POPC   C3A60701  19.706  23.574   7.053
 4798POPC   C4A60702  19.828  23.520   7.522
 4798POPC   C1B60703  19.737  23.933   6.155
 4798POPC   C2B60704  19.638  24.108   6.556
 4798POPC   C3B60705  19.489  24.036   6.975
 4798POPC   C4B60706  19.669  23.967   7.395
 4799POPC   NC360707   9.212  40.151   5.448
 4799POPC   PO460708   8.640  39.829   5.369
 4799POPC   GL160709   8.804  40.093   5.770
 4799POPC   GL260710   9.076  40.358   5.873
 4799POPC   C1A60711   8.841  40.029   6.247
 4799POPC   D2A60712   8.753  39.698   6.585
 4799POPC   C3A60713   8.905  39.763   6.998
 4799POPC   C4A60714   8.909  40.143   7.249
 4799POPC   C1B60715   9.339  40.128   6.179
 4799POPC   C2B60716   9.247  40.151   6.625
 4799POPC   C3B60717   9.261  40.424   6.963
 4799POPC   C4B60718   9.338  40.374   7.395
 4800POPC   NC360719  12.992  13.698   5.390
 4800POPC   PO460720  12.472  14.065   5.653
 4800POPC   GL160721  12.822  13.732   5.881
 4800POPC   GL260722  13.180  13.666   5.853
 4800POPC   C1A60723  12.816  13.478   6.268
 4800POPC   D2A60724  12.782  13.799   6.599
 4800POPC   C3A60725  12.602  13.710   6.973
 4800POPC   C4A60726  12.619  13.393   7.231
 4800POPC   C1B60727  13.170  13.841   6.263
 4800POPC   C2B60728  13.250  13.582   6.602
 4800POPC   C3B60729  13.060  13.520   6.989
 4800POPC   C4B60730  12.987  13.751   7.375
 4801POPC   NC360731  15.376   7.816   5.626
 4801POPC   PO460732  15.026   8.278   5.275
 4801POPC   GL160733  15.071   8.229   5.701
 4801POPC   GL260734  14.879   8.506   5.798
 4801POPC   C1A60735  15.203   8.251   6.139
 4801POPC   D2A60736  15.454   8.372   6.493
 4801POPC   C3A60737  15.342   8.161   6.857
 4801POPC   C4A60738  15.218   7.946   7.203
 4801POPC   C1B60739  14.814   8.576   6.254
 4801POPC   C2B60740  14.937   8.436   6.673
 4801POPC   C3B60741  14.937   8.369   7.115
 4801POPC   C4B60742  14.638   8.533   7.452
 4802POPC   NC360743  22.295  20.338   5.593
 4802POPC   PO460744  22.346  19.634   5.523
 4802POPC   GL160745  22.091  19.891   5.799
 4802POPC   GL260746  22.353  20.028   6.027
 4802POPC   C1A60747  21.947  19.862   6.252
 4802POPC   D2A60748  22.224  19.931   6.622
 4802POPC   C3A60749  22.038  20.045   7.048
 4802POPC   C4A60750  21.706  20.177   7.351
 4802POPC   C1B60751  22.463  19.590   6.179
 4802POPC   C2B60752  22.470  19.341   6.561
 4802POPC   C3B60753  22.477  19.609   6.924
 4802POPC   C4B60754  22.448  19.859   7.290
 4803POPC   NC360755  43.347   5.781   5.484
 4803POPC   PO460756  42.866   6.328   5.416
 4803POPC   GL160757  43.025   6.067   5.763
 4803POPC   GL260758  42.904   5.728   5.777
 4803POPC   C1A60759  43.205   5.884   6.169
 4803POPC   D2A60760  43.319   6.063   6.577
 4803POPC   C3A60761  43.065   6.077   6.970
 4803POPC   C4A60762  43.029   6.345   7.347
 4803POPC   C1B60763  42.806   5.555   6.171
 4803POPC   C2B60764  42.903   5.727   6.589
 4803POPC   C3B60765  43.044   5.534   6.975
 4803POPC   C4B60766  43.055   5.604   7.419
 4804POPC   NC360767  30.074   7.646   5.407
 4804POPC   PO460768  29.728   7.125   5.764
 4804POPC   GL160769  29.965   7.471   5.874
 4804POPC   GL260770  29.785   7.782   5.812
 4804POPC   C1A60771  30.139   7.441   6.272
 4804POPC   D2A60772  29.973   7.312   6.666
 4804POPC   C3A60773  30.239   7.307   7.002
 4804POPC   C4A60774  30.274   7.099   7.351
 4804POPC   C1B60775  30.017   7.917   6.220
 4804POPC   C2B60776  30.120   8.092   6.611
 4804POPC   C3B60777  30.117   7.782   6.907
 4804POPC   C4B60778  29.805   7.529   7.136
 4805POPC   NC360779   9.519   5.470   5.344
 4805POPC   PO460780  10.075   5.773   5.415
 4805POPC   GL160781   9.798   5.917   5.704
 4805POPC   GL260782  10.005   6.182   5.797
 4805POPC   C1A60783   9.609   5.714   6.071
 4805POPC   D2A60784   9.774   5.569   6.472
 4805POPC   C3A60785   9.575   5.731   6.848
 4805POPC   C4A60786   9.684   5.723   7.281
 4805POPC   C1B60787   9.725   6.209   6.180
 4805POPC   C2B60788   9.799   6.352   6.622
 4805POPC   C3B60789   9.878   6.147   7.009
 4805POPC   C4B60790   9.783   6.205   7.437
 4806POPC   NC360791  24.716   4.888   5.453
 4806POPC   PO460792  24.163   5.281   5.663
 4806POPC   GL160793  24.452   4.995   5.879
 4806POPC   GL260794  24.202   4.855   6.020
 4806POPC   C1A60795  24.616   4.772   6.275
 4806POPC   D2A60796  24.771   4.983   6.641
 4806POPC   C3A60797  24.547   5.095   6.963
 4806POPC   C4A60798  24.480   5.472   7.192
 4806POPC   C1B60799  24.151   5.143   6.335
 4806POPC   C2B60800  23.979   4.938   6.647
 4806POPC   C3B60801  24.118   4.819   6.999
 4806POPC   C4B60802  24.137   5.084   7.267
 4807POPC   NC360803  30.324  35.330   5.362
 4807POPC   PO460804  29.679  35.275   5.410
 4807POPC   GL160805  29.852  35.228   5.799
 4807POPC   GL260806  30.131  35.443   5.819
 4807POPC   C1A60807  29.988  35.064   6.196
 4807POPC   D2A60808  29.923  35.285   6.581
 4807POPC   C3A60809  29.752  35.165   6.976
 4807POPC   C4A60810  29.681  35.464   7.288
 4807POPC   C1B60811  30.300  35.470   6.236
 4807POPC   C2B60812  30.359  35.533   6.687
 4807POPC   C3B60813  30.176  35.463   7.085
 4807POPC   C4B60814  30.240  35.539   7.513
 4808POPC   NC360815  29.558  13.413   5.467
 4808POPC   PO460816  30.163  13.698   5.267
 4808POPC   GL160817  30.015  13.577   5.706
 4808POPC   GL260818  29.743  13.826   5.794
 4808POPC   C1A60819  30.092  13.602   6.175
 4808POPC   D2A60820  30.242  13.701   6.605
 4808POPC   C3A60821  29.966  13.507   6.890
 4808POPC   C4A60822  29.983  13.421   7.307
 4808POPC   C1B60823  29.515  13.905   6.197
 4808POPC   C2B60824  29.578  13.773   6.645
 4808POPC   C3B60825  29.564  13.798   7.097
 4808POPC   C4B60826  29.613  13.902   7.549
 4809POPC   NC360827  26.825  38.140   5.405
 4809POPC   PO460828  26.512  38.617   4.979
 4809POPC   GL160829  26.786  38.661   5.452
 4809POPC   GL260830  27.159  38.559   5.578
 4809POPC   C1A60831  26.775  38.621   5.947
 4809POPC   D2A60832  26.826  38.325   6.330
 4809POPC   C3A60833  26.755  38.524   6.749
 4809POPC   C4A60834  26.870  38.417   7.174
 4809POPC   C1B60835  27.240  38.471   6.046
 4809POPC   C2B60836  27.220  38.632   6.465
 4809POPC   C3B60837  27.252  38.415   6.839
 4809POPC   C4B60838  27.349  38.289   7.263
 4810POPC   NC360839  10.098  10.400   5.422
 4810POPC   PO460840  10.797  10.360   5.446
 4810POPC   GL160841  10.559  10.668   5.696
 4810POPC   GL260842  10.703  10.966   5.850
 4810POPC   C1A60843  10.387  10.660   6.103
 4810POPC   D2A60844  10.341  10.294   6.341
 4810POPC   C3A60845  10.349  10.407   6.757
 4810POPC   C4A60846  10.422  10.408   7.212
 4810POPC   C1B60847  10.800  10.994   6.244
 4810POPC   C2B60848  10.589  10.827   6.569
 4810POPC   C3B60849  10.460  10.851   6.980
 4810POPC   C4B60850  10.733  10.869   7.312
 4811POPC   NC360851  20.120  41.572   5.421
 4811POPC   PO460852  19.487  41.682   5.284
 4811POPC   GL160853  19.606  41.596   5.761
 4811POPC   GL260854  19.948  41.493   5.917
 4811POPC   C1A60855  19.575  41.721   6.223
 4811POPC   D2A60856  19.816  41.763   6.610
 4811POPC   C3A60857  19.543  41.752   6.976
 4811POPC   C4A60858  19.515  41.442   7.251
 4811POPC   C1B60859  20.217  41.348   6.284
 4811POPC   C2B60860  20.393  41.584   6.626
 4811POPC   C3B60861  20.185  41.653   7.011
 4811POPC   C4B60862  20.025  41.332   7.297
 4812POPC   NC360863   1.646  15.133   5.492
 4812POPC   PO460864   2.257  15.466   5.412
 4812POPC   GL160865   2.045  15.239   5.792
 4812POPC   GL260866   2.038  14.904   5.822
 4812POPC   C1A60867   1.892  15.174   6.241
 4812POPC   D2A60868   1.640  15.310   6.576
 4812POPC   C3A60869   1.930  15.281   6.912
 4812POPC   C4A60870   1.930  15.124   7.311
 4812POPC   C1B60871   2.284  14.870   6.198
 4812POPC   C2B60872   2.301  15.037   6.642
 4812POPC   C3B60873   2.365  14.953   7.105
 4812POPC   C4B60874   2.303  14.987   7.614
 4813POPC   NC360875  39.910  35.905   5.404
 4813POPC   PO460876  39.666  36.567   5.312
 4813POPC   GL160877  39.925  36.377   5.679
 4813POPC   GL260878  39.698  36.456   5.947
 4813POPC   C1A60879  39.985  36.040   6.038
 4813POPC   D2A60880  39.843  36.039   6.475
 4813POPC   C3A60881  40.057  35.842   6.794
 4813POPC   C4A60882  39.950  35.969   7.185
 4813POPC   C1B60883  40.123  36.502   6.175
 4813POPC   C2B60884  40.204  36.383   6.613
 4813POPC   C3B60885  39.889  36.386   6.902
 4813POPC   C4B60886  39.913  36.505   7.321
 4814POPC   NC360887  19.858   0.768   5.403
 4814POPC   PO460888  19.646   0.170   5.146
 4814POPC   GL160889  19.919   0.299   5.593
 4814POPC   GL260890  19.719   0.540   5.822
 4814POPC   C1A60891  20.110   0.378   6.073
 4814POPC   D2A60892  20.207   0.487   6.534
 4814POPC   C3A60893  20.040   0.664   6.923
 4814POPC   C4A60894  19.911   0.383   7.237
 4814POPC   C1B60895  19.628   0.295   6.229
 4814POPC   C2B60896  19.688   0.287   6.689
 4814POPC   C3B60897  19.501   0.095   7.065
 4814POPC   C4B60898  19.530   0.202   7.510
 4815POPC   NC360899  41.025  22.415   5.418
 4815POPC   PO460900  40.391  22.078   5.456
 4815POPC   GL160901  40.788  22.086   5.745
 4815POPC   GL260902  40.958  21.747   5.832
 4815POPC   C1A60903  40.828  22.308   6.176
 4815POPC   D2A60904  40.868  22.561   6.547
 4815POPC   C3A60905  40.857  22.344   6.911
 4815POPC   C4A60906  40.760  22.274   7.329
 4815POPC   C1B60907  40.630  21.839   6.160
 4815POPC   C2B60908  40.526  22.074   6.558
 4815POPC   C3B60909  40.500  21.960   7.007
 4815POPC   C4B60910  40.842  21.736   7.246
 4816POPC   NC360911   0.410  30.190   5.399
 4816POPC   PO460912   0.674  29.559   5.407
 4816POPC   GL160913   0.623  29.845   5.739
 4816POPC   GL260914   0.332  29.932   5.850
 4816POPC   C1A60915   0.675  29.712   6.177
 4816POPC   D2A60916   0.414  29.736   6.539
 4816POPC   C3A60917   0.484  30.012   6.891
 4816POPC   C4A60918   0.645  29.901   7.303
 4816POPC   C1B60919   0.087  29.986   6.217
 4816POPC   C2B60920  44.966  30.236   6.577
 4816POPC   C3B60921  44.916  30.054   6.951
 4816POPC   C4B60922   0.156  30.009   7.298
 4817POPC   NC360923  27.500  36.334   5.616
 4817POPC   PO460924  27.483  35.678   5.568
 4817POPC   GL160925  27.530  35.913   5.935
 4817POPC   GL260926  27.851  36.072   5.895
 4817POPC   C1A60927  27.597  36.154   6.326
 4817POPC   D2A60928  27.946  36.104   6.633
 4817POPC   C3A60929  27.747  35.980   6.979
 4817POPC   C4A60930  27.348  36.125   7.115
 4817POPC   C1B60931  28.016  36.404   6.192
 4817POPC   C2B60932  27.960  36.631   6.616
 4817POPC   C3B60933  27.826  36.568   7.057
 4817POPC   C4B60934  27.754  36.270   7.424
 4818POPC   NC360935  10.065  28.141   5.479
 4818POPC   PO460936  10.727  28.409   5.489
 4818POPC   GL160937  10.552  28.338   5.873
 4818POPC   GL260938  10.242  28.453   5.872
 4818POPC   C1A60939  10.691  28.177   6.264
 4818POPC   D2A60940  10.966  28.272   6.613
 4818POPC   C3A60941  10.780  28.338   7.030
 4818POPC   C4A60942  10.438  28.280   7.326
 4818POPC   C1B60943  10.175  28.173   6.206
 4818POPC   C2B60944  10.377  28.103   6.643
 4818POPC   C3B60945  10.265  27.912   7.008
 4818POPC   C4B60946   9.975  27.999   7.289
 4819POPC   NC360947  18.581  34.645   5.410
 4819POPC   PO460948  17.967  34.599   5.410
 4819POPC   GL160949  18.210  34.610   5.794
 4819POPC   GL260950  18.174  34.866   6.002
 4819POPC   C1A60951  18.399  34.375   6.133
 4819POPC   D2A60952  18.679  34.403   6.477
 4819POPC   C3A60953  18.444  34.441   6.866
 4819POPC   C4A60954  18.434  34.265   7.287
 4819POPC   C1B60955  18.237  34.733   6.447
 4819POPC   C2B60956  17.946  34.526   6.729
 4819POPC   C3B60957  17.982  34.434   7.124
 4819POPC   C4B60958  18.189  34.697   7.394
 4820POPC   NC360959   1.202  23.873   5.333
 4820POPC   PO460960   1.555  23.320   5.539
 4820POPC   GL160961   1.472  23.698   5.796
 4820POPC   GL260962   1.125  23.658   5.820
 4820POPC   C1A60963   1.427  23.749   6.250
 4820POPC   D2A60964   1.591  23.880   6.657
 4820POPC   C3A60965   1.262  23.780   6.928
 4820POPC   C4A60966   1.340  23.610   7.311
 4820POPC   C1B60967   0.917  23.898   6.122
 4820POPC   C2B60968   0.749  23.924   6.513
 4820POPC   C3B60969   0.746  23.908   6.943
 4820POPC   C4B60970   0.840  23.589   7.218
 4821POPC   NC360971  10.836  16.324   5.539
 4821POPC   PO460972  10.293  16.389   5.175
 4821POPC   GL160973  10.364  16.573   5.616
 4821POPC   GL260974  10.265  16.312   5.839
 4821POPC   C1A60975  10.434  16.754   6.084
 4821POPC   D2A60976  10.241  16.691   6.541
 4821POPC   C3A60977  10.471  16.762   6.946
 4821POPC   C4A60978  10.827  17.044   7.006
 4821POPC   C1B60979  10.430  16.287   6.278
 4821POPC   C2B60980  10.637  16.350   6.661
 4821POPC   C3B60981  10.829  16.362   7.060
 4821POPC   C4B60982  10.610  16.234   7.454
 4822POPC   NC360983   6.908  10.241   5.565
 4822POPC   PO460984   6.357  10.632   5.267
 4822POPC   GL160985   6.400  10.544   5.733
 4822POPC   GL260986   6.720  10.619   5.836
 4822POPC   C1A60987   6.373  10.650   6.214
 4822POPC   D2A60988   6.658  10.714   6.576
 4822POPC   C3A60989   6.573  10.875   6.995
 4822POPC   C4A60990   6.791  10.798   7.375
 4822POPC   C1B60991   6.756  10.328   6.201
 4822POPC   C2B60992   6.546  10.194   6.575
 4822POPC   C3B60993   6.678  10.364   6.958
 4822POPC   C4B60994   7.010  10.334   7.192
 4823POPC   NC360995  20.087   6.901   5.466
 4823POPC   PO460996  20.049   7.593   5.500
 4823POPC   GL160997  19.768   7.320   5.709
 4823POPC   GL260998  19.960   7.161   5.896
 4823POPC   C1A60999  19.592   7.410   6.138
 4823POPC   D2A61000  19.859   7.389   6.493
 4823POPC   C3A61001  19.651   7.392   6.908
 4823POPC   C4A61002  19.557   7.048   7.226
 4823POPC   C1B61003  20.207   7.469   6.121
 4823POPC   C2B61004  20.415   7.426   6.496
 4823POPC   C3B61005  20.200   7.451   6.873
 4823POPC   C4B61006  20.030   7.258   7.210
 4824POPC   NC361007  34.433  32.722   5.459
 4824POPC   PO461008  34.558  33.386   5.450
 4824POPC   GL161009  34.710  33.095   5.773
 4824POPC   GL261010  34.895  32.795   5.691
 4824POPC   C1A61011  34.567  33.097   6.197
 4824POPC   D2A61012  34.564  33.315   6.595
 4824POPC   C3A61013  34.454  33.135   6.976
 4824POPC   C4A61014  34.304  33.209   7.373
 4824POPC   C1B61015  34.956  32.750   6.126
 4824POPC   C2B61016  34.895  32.905   6.535
 4824POPC   C3B61017  34.797  32.755   6.937
 4824POPC   C4B61018  34.988  32.745   7.329
 4825POPC   NC361019  41.415  10.127   5.594
 4825POPC   PO461020  41.592  10.863   5.495
 4825POPC   GL161021  41.711  10.621   5.841
 4825POPC   GL261022  41.926  10.316   5.839
 4825POPC   C1A61023  41.506  10.682   6.240
 4825POPC   D2A61024  41.433  10.483   6.635
 4825POPC   C3A61025  41.513  10.736   7.020
 4825POPC   C4A61026  41.416  10.841   7.435
 4825POPC   C1B61027  41.737  10.239   6.223
 4825POPC   C2B61028  41.896  10.219   6.627
 4825POPC   C3B61029  41.706  10.249   7.000
 4825POPC   C4B61030  41.408  10.338   7.333
 4826POPC   NC361031  16.353  41.933   5.400
 4826POPC   PO461032  16.967  41.744   5.717
 4826POPC   GL161033  16.566  41.813   5.862
 4826POPC   GL261034  16.518  41.475   5.830
 4826POPC   C1A61035  16.541  41.997   6.281
 4826POPC   D2A61036  16.905  41.949   6.565
 4826POPC   C3A61037  16.837  41.780   6.987
 4826POPC   C4A61038  16.531  41.892   7.276
 4826POPC   C1B61039  16.696  41.513   6.268
 4826POPC   C2B61040  16.482  41.601   6.636
 4826POPC   C3B61041  16.433  41.321   6.954
 4826POPC   C4B61042  16.600  41.363   7.310
 4827POPC   NC361043  16.217  42.672   5.299
 4827POPC   PO461044  15.905  42.088   5.478
 4827POPC   GL161045  16.040  42.245   5.808
 4827POPC   GL261046  16.101  42.605   5.786
 4827POPC   C1A61047  16.043  42.098   6.212
 4827POPC   D2A61048  16.112  42.298   6.587
 4827POPC   C3A61049  16.192  42.109   6.947
 4827POPC   C4A61050  15.763  42.033   7.110
 4827POPC   C1B61051  15.899  42.596   6.175
 4827POPC   C2B61052  15.866  42.758   6.584
 4827POPC   C3B61053  15.811  42.544   6.943
 4827POPC   C4B61054  16.062  42.486   7.245
 4828POPC   NC361055  25.628   4.250   5.655
 4828POPC   PO461056  25.973   4.589   5.128
 4828POPC   GL161057  26.215   4.403   5.592
 4828POPC   GL261058  26.489   4.182   5.785
 4828POPC   C1A61059  26.329   4.614   6.046
 4828POPC   D2A61060  26.128   4.624   6.470
 4828POPC   C3A61061  25.994   4.316   6.794
 4828POPC   C4A61062  26.256   4.378   7.156
 4828POPC   C1B61063  26.165   4.148   6.165
 4828POPC   C2B61064  25.832   3.939   6.438
 4828POPC   C3B61065  25.740   3.832   6.888
 4828POPC   C4B61066  25.804   4.085   7.260
 4829POPC   NC361067  42.261  33.882   5.465
 4829POPC   PO461068  42.049  33.258   5.494
 4829POPC   GL161069  42.312  33.518   5.819
 4829POPC   GL261070  42.476  33.903   5.907
 4829POPC   C1A61071  42.279  33.606   6.254
 4829POPC   D2A61072  42.493  33.812   6.571
 4829POPC   C3A61073  42.446  33.664   6.995
 4829POPC   C4A61074  42.579  33.956   7.293
 4829POPC   C1B61075  42.187  34.097   6.191
 4829POPC   C2B61076  42.012  34.014   6.562
 4829POPC   C3B61077  42.213  34.117   6.932
 4829POPC   C4B61078  42.068  34.039   7.303
 4830POPC   NC361079  20.459  37.620   5.434
 4830POPC   PO461080  21.013  38.040   5.521
 4830POPC   GL161081  20.786  37.758   5.811
 4830POPC   GL261082  20.424  37.795   5.905
 4830POPC   C1A61083  20.787  37.541   6.218
 4830POPC   D2A61084  20.622  37.379   6.597
 4830POPC   C3A61085  20.616  37.591   6.987
 4830POPC   C4A61086  20.314  37.863   7.168
 4830POPC   C1B61087  20.256  37.566   6.247
 4830POPC   C2B61088  20.159  37.609   6.676
 4830POPC   C3B61089  20.120  37.418   7.057
 4830POPC   C4B61090  20.123  37.493   7.486
 4831POPC   NC361091  18.025  24.089   5.292
 4831POPC   PO461092  18.696  24.221   5.275
 4831POPC   GL161093  18.340  24.047   5.693
 4831POPC   GL261094  18.145  23.708   5.733
 4831POPC   C1A61095  18.308  23.895   6.187
 4831POPC   D2A61096  18.543  23.928   6.604
 4831POPC   C3A61097  18.449  23.632   6.937
 4831POPC   C4A61098  18.552  23.703   7.390
 4831POPC   C1B61099  18.215  23.370   6.078
 4831POPC   C2B61100  18.170  23.426   6.516
 4831POPC   C3B61101  17.957  23.431   6.911
 4831POPC   C4B61102  17.861  23.759   7.157
 4832POPC   NC361103  30.432  20.621   5.500
 4832POPC   PO461104  30.974  20.295   5.433
 4832POPC   GL161105  30.835  20.562   5.794
 4832POPC   GL261106  31.052  20.468   6.061
 4832POPC   C1A61107  30.583  20.596   6.194
 4832POPC   D2A61108  30.832  20.500   6.570
 4832POPC   C3A61109  30.652  20.636   6.940
 4832POPC   C4A61110  30.519  20.503   7.343
 4832POPC   C1B61111  30.999  20.905   6.204
 4832POPC   C2B61112  30.939  21.004   6.630
 4832POPC   C3B61113  31.174  20.732   6.916
 4832POPC   C4B61114  31.107  20.485   7.264
 4833POPC   NC361115  20.757  42.653   5.212
 4833POPC   PO461116  20.436  42.137   5.471
 4833POPC   GL161117  20.679  42.232   5.841
 4833POPC   GL261118  20.799  42.559   5.731
 4833POPC   C1A61119  20.559  42.420   6.261
 4833POPC   D2A61120  20.617  42.611   6.688
 4833POPC   C3A61121  20.317  42.439   7.004
 4833POPC   C4A61122  20.327  42.092   7.310
 4833POPC   C1B61123  21.027  42.576   6.122
 4833POPC   C2B61124  21.161  42.681   6.545
 4833POPC   C3B61125  21.084  42.528   6.964
 4833POPC   C4B61126  20.745  42.591   7.206
 4834POPC   NC361127   7.848  25.529   5.476
 4834POPC   PO461128   7.203  25.432   5.472
 4834POPC   GL161129   7.306  25.253   5.864
 4834POPC   GL261130   7.210  24.905   5.777
 4834POPC   C1A61131   7.198  25.384   6.300
 4834POPC   D2A61132   7.371  25.625   6.668
 4834POPC   C3A61133   7.227  25.548   7.090
 4834POPC   C4A61134   7.382  25.406   7.503
 4834POPC   C1B61135   7.368  24.895   6.240
 4834POPC   C2B61136   7.427  25.099   6.665
 4834POPC   C3B61137   7.434  25.072   7.112
 4834POPC   C4B61138   7.285  24.711   7.298
 4835POPC   NC361139  26.258  34.339   5.493
 4835POPC   PO461140  25.715  34.593   5.228
 4835POPC   GL161141  25.877  34.686   5.682
 4835POPC   GL261142  25.985  34.383   5.912
 4835POPC   C1A61143  26.050  34.838   6.108
 4835POPC   D2A61144  26.135  34.573   6.490
 4835POPC   C3A61145  26.274  34.802   6.867
 4835POPC   C4A61146  26.001  34.772   7.225
 4835POPC   C1B61147  25.785  34.165   6.239
 4835POPC   C2B61148  25.912  34.119   6.687
 4835POPC   C3B61149  26.159  34.311   7.029
 4835POPC   C4B61150  26.119  34.349   7.513
 4836POPC   NC361151  39.211   7.010   5.471
 4836POPC   PO461152  38.999   6.375   5.538
 4836POPC   GL161153  39.357   6.517   5.830
 4836POPC   GL261154  39.505   6.873   5.874
 4836POPC   C1A61155  39.306   6.602   6.279
 4836POPC   D2A61156  39.010   6.713   6.610
 4836POPC   C3A61157  39.096   6.508   6.983
 4836POPC   C4A61158  39.108   6.537   7.400
 4836POPC   C1B61159  39.658   6.997   6.275
 4836POPC   C2B61160  39.491   6.894   6.681
 4836POPC   C3B61161  39.588   6.666   7.008
 4836POPC   C4B61162  39.621   6.771   7.405
 4837POPC   NC361163  19.830   4.007   5.415
 4837POPC   PO461164  19.615   3.307   5.301
 4837POPC   GL161165  19.698   3.577   5.700
 4837POPC   GL261166  19.379   3.742   5.854
 4837POPC   C1A61167  19.790   3.608   6.160
 4837POPC   D2A61168  19.955   3.481   6.563
 4837POPC   C3A61169  19.664   3.369   6.901
 4837POPC   C4A61170  19.805   3.372   7.341
 4837POPC   C1B61171  19.445   4.006   6.258
 4837POPC   C2B61172  19.668   3.941   6.633
 4837POPC   C3B61173  19.793   3.839   7.048
 4837POPC   C4B61174  19.810   3.918   7.496
 4838POPC   NC361175  26.720  40.545   5.425
 4838POPC   PO461176  26.691  41.200   5.572
 4838POPC   GL161177  26.644  40.931   5.872
 4838POPC   GL261178  26.418  40.654   5.874
 4838POPC   C1A61179  26.965  40.791   6.116
 4838POPC   D2A61180  27.034  40.935   6.518
 4838POPC   C3A61181  26.777  40.768   6.850
 4838POPC   C4A61182  26.986  40.857   7.205
 4838POPC   C1B61183  26.518  40.700   6.319
 4838POPC   C2B61184  26.300  40.817   6.678
 4838POPC   C3B61185  26.295  40.747   7.120
 4838POPC   C4B61186  26.602  40.648   7.438
 4839POPC   NC361187  36.381   7.839   5.468
 4839POPC   PO461188  36.641   8.514   5.389
 4839POPC   GL161189  36.766   8.487   5.813
 4839POPC   GL261190  36.817   8.113   5.752
 4839POPC   C1A61191  36.966   8.293   6.191
 4839POPC   D2A61192  36.833   8.110   6.580
 4839POPC   C3A61193  36.970   8.342   6.940
 4839POPC   C4A61194  36.883   8.503   7.348
 4839POPC   C1B61195  36.586   7.900   6.129
 4839POPC   C2B61196  36.685   7.622   6.508
 4839POPC   C3B61197  36.772   7.701   6.951
 4839POPC   C4B61198  36.656   8.036   7.221
 4840POPC   NC361199  33.302  37.646   5.446
 4840POPC   PO461200  32.913  38.133   5.507
 4840POPC   GL161201  33.158  38.133   5.906
 4840POPC   GL261202  33.424  37.910   5.867
 4840POPC   C1A61203  33.217  38.022   6.372
 4840POPC   D2A61204  33.077  37.953   6.824
 4840POPC   C3A61205  32.768  37.789   7.069
 4840POPC   C4A61206  32.774  37.400   7.269
 4840POPC   C1B61207  33.251  37.552   6.159
 4840POPC   C2B61208  33.347  37.565   6.620
 4840POPC   C3B61209  33.208  37.455   7.044
 4840POPC   C4B61210  33.203  37.288   7.495
 4841POPC   NC361211  36.406  19.774   5.385
 4841POPC   PO461212  35.763  20.025   5.216
 4841POPC   GL161213  35.887  19.758   5.618
 4841POPC   GL261214  36.134  19.952   5.813
 4841POPC   C1A61215  35.859  19.629   6.092
 4841POPC   D2A61216  36.071  19.762   6.481
 4841POPC   C3A61217  36.029  19.562   6.896
 4841POPC   C4A61218  36.015  19.578   7.332
 4841POPC   C1B61219  36.355  20.112   6.183
 4841POPC   C2B61220  36.461  20.057   6.644
 4841POPC   C3B61221  36.256  20.010   7.052
 4841POPC   C4B61222  36.337  19.951   7.495
 4842POPC   NC361223  23.448  19.208   5.198
 4842POPC   PO461224  24.084  19.224   5.113
 4842POPC   GL161225  23.891  19.040   5.588
 4842POPC   GL261226  23.529  19.162   5.725
 4842POPC   C1A61227  23.784  18.907   6.083
 4842POPC   D2A61228  23.797  19.067   6.536
 4842POPC   C3A61229  23.689  18.792   6.907
 4842POPC   C4A61230  23.824  18.679   7.337
 4842POPC   C1B61231  23.445  19.307   6.187
 4842POPC   C2B61232  23.412  19.479   6.630
 4842POPC   C3B61233  23.598  19.307   6.956
 4842POPC   C4B61234  23.531  19.103   7.301
 4843POPC   NC361235   5.604  12.385   5.317
 4843POPC   PO461236   5.179  11.818   5.413
 4843POPC   GL161237   5.046  12.005   5.847
 4843POPC   GL261238   4.741  12.253   5.875
 4843POPC   C1A61239   4.840  11.871   6.212
 4843POPC   D2A61240   4.796  11.986   6.616
 4843POPC   C3A61241   5.142  11.855   6.874
 4843POPC   C4A61242   5.463  11.945   7.183
 4843POPC   C1B61243   4.928  12.375   6.290
 4843POPC   C2B61244   5.183  12.325   6.663
 4843POPC   C3B61245   5.140  12.340   7.110
 4843POPC   C4B61246   5.058  12.669   7.382
 4844POPC   NC361247  25.597  12.906   5.554
 4844POPC   PO461248  26.130  13.248   5.205
 4844POPC   GL161249  26.231  13.016   5.689
 4844POPC   GL261250  25.959  12.934   5.885
 4844POPC   C1A61251  26.325  12.952   6.203
 4844POPC   D2A61252  26.105  13.003   6.650
 4844POPC   C3A61253  26.137  12.712   7.037
 4844POPC   C4A61254  26.314  12.664   7.456
 4844POPC   C1B61255  25.689  12.824   6.215
 4844POPC   C2B61256  25.547  13.116   6.468
 4844POPC   C3B61257  25.644  13.199   6.832
 4844POPC   C4B61258  25.651  12.902   7.151
 4845POPC   NC361259  37.478  25.809   5.496
 4845POPC   PO461260  37.837  26.403   5.287
 4845POPC   GL161261  37.694  26.231   5.693
 4845POPC   GL261262  37.318  26.228   5.765
 4845POPC   C1A61263  37.754  26.170   6.142
 4845POPC   D2A61264  38.064  26.284   6.456
 4845POPC   C3A61265  37.880  26.277   6.840
 4845POPC   C4A61266  37.795  26.054   7.178
 4845POPC   C1B61267  37.292  25.938   6.128
 4845POPC   C2B61268  37.479  25.935   6.550
 4845POPC   C3B61269  37.336  26.013   6.964
 4845POPC   C4B61270  37.400  25.858   7.411
 4846POPC   NC361271   2.256  27.621   5.346
 4846POPC   PO461272   1.601  27.391   5.191
 4846POPC   GL161273   1.800  27.391   5.657
 4846POPC   GL261274   2.148  27.440   5.797
 4846POPC   C1A61275   1.808  27.396   6.148
 4846POPC   D2A61276   1.899  27.622   6.539
 4846POPC   C3A61277   1.819  27.448   6.909
 4846POPC   C4A61278   1.744  27.656   7.245
 4846POPC   C1B61279   2.301  27.566   6.227
 4846POPC   C2B61280   2.380  27.429   6.677
 4846POPC   C3B61281   2.268  27.486   7.146
 4846POPC   C4B61282   2.447  27.831   7.418
 4847POPC   NC361283  14.805  31.292   5.541
 4847POPC   PO461284  15.492  31.279   5.482
 4847POPC   GL161285  15.246  31.471   5.802
 4847POPC   GL261286  15.076  31.164   5.945
 4847POPC   C1A61287  15.081  31.609   6.196
 4847POPC   D2A61288  14.886  31.304   6.478
 4847POPC   C3A61289  14.930  31.362   6.931
 4847POPC   C4A61290  14.860  31.680   7.265
 4847POPC   C1B61291  15.399  31.160   6.243
 4847POPC   C2B61292  15.573  31.116   6.656
 4847POPC   C3B61293  15.390  31.133   7.078
 4847POPC   C4B61294  15.318  31.478   7.357
 4848POPC   NC361295  23.219  19.971   5.655
 4848POPC   PO461296  22.782  20.410   5.379
 4848POPC   GL161297  22.722  20.051   5.702
 4848POPC   GL261298  22.806  19.679   5.722
 4848POPC   C1A61299  22.870  19.915   6.171
 4848POPC   D2A61300  22.803  19.748   6.570
 4848POPC   C3A61301  22.902  19.881   7.031
 4848POPC   C4A61302  22.881  19.792   7.523
 4848POPC   C1B61303  22.946  19.370   6.029
 4848POPC   C2B61304  22.985  19.267   6.457
 4848POPC   C3B61305  22.935  19.376   6.886
 4848POPC   C4B61306  23.193  19.500   7.219
 4849POPC   NC361307  37.065  23.723   5.401
 4849POPC   PO461308  37.325  23.152   5.801
 4849POPC   GL161309  36.914  23.445   5.822
 4849POPC   GL261310  36.886  23.847   5.847
 4849POPC   C1A61311  36.785  23.555   6.241
 4849POPC   D2A61312  37.087  23.508   6.561
 4849POPC   C3A61313  36.899  23.345   6.913
 4849POPC   C4A61314  37.045  23.458   7.302
 4849POPC   C1B61315  37.188  23.996   6.123
 4849POPC   C2B61316  37.171  24.022   6.569
 4849POPC   C3B61317  37.101  23.879   7.003
 4849POPC   C4B61318  37.008  23.945   7.466
 4850POPC   NC361319   0.193  11.032   5.507
 4850POPC   PO461320   0.511  11.609   5.427
 4850POPC   GL161321   0.481  11.422   5.854
 4850POPC   GL261322   0.557  11.099   5.873
 4850POPC   C1A61323   0.553  11.332   6.332
 4850POPC   D2A61324   0.637  11.599   6.703
 4850POPC   C3A61325   0.445  11.451   7.108
 4850POPC   C4A61326   0.563  11.509   7.528
 4850POPC   C1B61327   0.904  11.001   6.127
 4850POPC   C2B61328   1.025  11.130   6.536
 4850POPC   C3B61329   0.764  11.111   6.882
 4850POPC   C4B61330   0.871  11.189   7.289
 4851POPC   NC361331  38.330  36.841   5.432
 4851POPC   PO461332  38.877  37.154   5.497
 4851POPC   GL161333  38.665  36.901   5.820
 4851POPC   GL261334  38.339  37.077   5.894
 4851POPC   C1A61335  38.542  36.754   6.254
 4851POPC   D2A61336  38.416  37.029   6.628
 4851POPC   C3A61337  38.535  36.967   7.050
 4851POPC   C4A61338  38.589  36.779   7.451
 4851POPC   C1B61339  38.124  37.236   6.266
 4851POPC   C2B61340  37.923  37.229   6.674
 4851POPC   C3B61341  38.007  36.983   7.035
 4851POPC   C4B61342  38.168  37.129   7.452
 4852POPC   NC361343  36.326  10.090   5.409
 4852POPC   PO461344  36.069  10.736   5.403
 4852POPC   GL161345  36.047  10.540   5.776
 4852POPC   GL261346  35.977  10.209   5.776
 4852POPC   C1A61347  36.087  10.666   6.182
 4852POPC   D2A61348  36.280  10.649   6.550
 4852POPC   C3A61349  36.001  10.717   6.881
 4852POPC   C4A61350  35.812  10.468   7.198
 4852POPC   C1B61351  36.264  10.158   6.136
 4852POPC   C2B61352  36.367  10.120   6.588
 4852POPC   C3B61353  36.222  10.248   7.017
 4852POPC   C4B61354  36.236  10.179   7.521
 4853POPC   NC361355  32.585  34.672   5.624
 4853POPC   PO461356  33.072  34.625   5.250
 4853POPC   GL161357  33.136  34.624   5.759
 4853POPC   GL261358  32.865  34.554   6.008
 4853POPC   C1A61359  33.274  34.650   6.264
 4853POPC   D2A61360  33.107  34.728   6.686
 4853POPC   C3A61361  33.329  34.752   7.071
 4853POPC   C4A61362  33.144  34.548   7.454
 4853POPC   C1B61363  32.772  34.864   6.303
 4853POPC   C2B61364  32.600  34.794   6.707
 4853POPC   C3B61365  32.740  34.718   7.127
 4853POPC   C4B61366  32.721  34.870   7.549
 4854POPC   NC361367  34.202  14.966   5.285
 4854POPC   PO461368  34.790  15.263   5.335
 4854POPC   GL161369  34.488  15.311   5.678
 4854POPC   GL261370  34.442  14.958   5.741
 4854POPC   C1A61371  34.516  15.396   6.148
 4854POPC   D2A61372  34.718  15.402   6.571
 4854POPC   C3A61373  34.488  15.329   6.960
 4854POPC   C4A61374  34.670  15.283   7.371
 4854POPC   C1B61375  34.467  14.855   6.156
 4854POPC   C2B61376  34.399  14.994   6.563
 4854POPC   C3B61377  34.601  14.807   6.948
 4854POPC   C4B61378  34.877  14.823   7.300
 4855POPC   NC361379  13.170  14.266   5.258
 4855POPC   PO461380  13.727  14.557   5.352
 4855POPC   GL161381  13.610  14.328   5.746
 4855POPC   GL261382  13.409  14.112   5.883
 4855POPC   C1A61383  13.795  14.270   6.170
 4855POPC   D2A61384  13.735  14.564   6.498
 4855POPC   C3A61385  13.576  14.400   6.863
 4855POPC   C4A61386  13.688  14.343   7.270
 4855POPC   C1B61387  13.304  14.344   6.270
 4855POPC   C2B61388  13.098  14.279   6.659
 4855POPC   C3B61389  13.205  14.082   7.061
 4855POPC   C4B61390  13.232  14.197   7.542
 4856POPC   NC361391   9.219  37.848   5.359
 4856POPC   PO461392   9.834  37.931   5.376
 4856POPC   GL161393   9.806  37.709   5.792
 4856POPC   GL261394   9.429  37.615   5.850
 4856POPC   C1A61395   9.866  37.638   6.239
 4856POPC   D2A61396   9.689  37.709   6.648
 4856POPC   C3A61397   9.910  37.775   7.036
 4856POPC   C4A61398   9.955  37.491   7.382
 4856POPC   C1B61399   9.434  37.363   6.261
 4856POPC   C2B61400   9.598  37.211   6.664
 4856POPC   C3B61401   9.564  37.379   7.074
 4856POPC   C4B61402   9.522  37.297   7.542
 4857POPC   NC361403   9.507  14.388   5.542
 4857POPC   PO461404  10.053  14.249   5.267
 4857POPC   GL161405   9.942  14.306   5.759
 4857POPC   GL261406  10.080  14.561   5.965
 4857POPC   C1A61407   9.644  14.363   6.172
 4857POPC   D2A61408   9.492  14.211   6.588
 4857POPC   C3A61409   9.582  14.481   6.935
 4857POPC   C4A61410   9.711  14.443   7.356
 4857POPC   C1B61411  10.088  14.137   6.220
 4857POPC   C2B61412   9.936  13.934   6.559
 4857POPC   C3B61413   9.998  14.167   6.907
 4857POPC   C4B61414  10.026  14.019   7.282
 4858POPC   NC361415  19.155  24.144   5.219
 4858POPC   PO461416  18.783  23.809   5.719
 4858POPC   GL161417  19.235  23.673   5.883
 4858POPC   GL261418  19.324  23.312   5.732
 4858POPC   C1A61419  19.335  23.701   6.354
 4858POPC   D2A61420  19.077  23.981   6.657
 4858POPC   C3A61421  18.916  23.870   7.056
 4858POPC   C4A61422  19.242  23.643   7.258
 4858POPC   C1B61423  18.980  23.285   6.075
 4858POPC   C2B61424  18.842  23.604   6.351
 4858POPC   C3B61425  18.955  23.468   6.760
 4858POPC   C4B61426  18.806  23.341   7.154
 4859POPC   NC361427   5.216  41.233   5.580
 4859POPC   PO461428   5.217  40.648   5.414
 4859POPC   GL161429   4.993  40.744   5.801
 4859POPC   GL261430   4.773  41.055   5.743
 4859POPC   C1A61431   4.967  40.523   6.218
 4859POPC   D2A61432   5.060  40.311   6.629
 4859POPC   C3A61433   5.047  40.620   6.968
 4859POPC   C4A61434   5.316  40.787   7.280
 4859POPC   C1B61435   5.003  41.106   6.181
 4859POPC   C2B61436   5.208  41.032   6.594
 4859POPC   C3B61437   5.092  41.161   7.021
 4859POPC   C4B61438   4.850  40.974   7.364
 4860POPC   NC361439  14.822  17.937   5.485
 4860POPC   PO461440  15.508  17.971   5.480
 4860POPC   GL161441  15.232  18.125   5.794
 4860POPC   GL261442  15.338  18.472   5.901
 4860POPC   C1A61443  14.976  18.143   6.172
 4860POPC   D2A61444  15.042  18.380   6.570
 4860POPC   C3A61445  15.025  18.156   6.958
 4860POPC   C4A61446  15.095  18.209   7.403
 4860POPC   C1B61447  15.455  18.248   6.313
 4860POPC   C2B61448  15.500  18.102   6.726
 4860POPC   C3B61449  15.522  18.079   7.170
 4860POPC   C4B61450  15.593  17.997   7.634
 4861POPC   NC361451  32.532  15.737   5.539
 4861POPC   PO461452  32.124  16.244   5.450
 4861POPC   GL161453  32.235  16.128   5.832
 4861POPC   GL261454  32.155  15.800   5.882
 4861POPC   C1A61455  32.428  16.263   6.216
 4861POPC   D2A61456  32.520  16.093   6.615
 4861POPC   C3A61457  32.334  16.232   7.016
 4861POPC   C4A61458  32.214  16.091   7.457
 4861POPC   C1B61459  31.945  15.912   6.264
 4861POPC   C2B61460  32.021  15.948   6.689
 4861POPC   C3B61461  32.183  15.747   7.047
 4861POPC   C4B61462  31.824  15.893   7.219
 4862POPC   NC361463  22.236  44.836   5.499
 4862POPC   PO461464  22.358  44.301   5.227
 4862POPC   GL161465  22.156  44.394   5.716
 4862POPC   GL261466  21.851  44.614   5.813
 4862POPC   C1A61467  22.193  44.765   6.131
 4862POPC   D2A61468  22.349   0.001   6.504
 4862POPC   C3A61469  22.306  44.854   6.922
 4862POPC   C4A61470  22.202  44.800   7.364
 4862POPC   C1B61471  21.977  44.321   6.200
 4862POPC   C2B61472  22.118  44.219   6.640
 4862POPC   C3B61473  22.058  44.403   7.042
 4862POPC   C4B61474  21.880  44.249   7.414
 4863POPC   NC361475  27.966  23.839   5.398
 4863POPC   PO461476  28.619  23.890   5.496
 4863POPC   GL161477  28.473  23.608   5.842
 4863POPC   GL261478  28.100  23.569   5.827
 4863POPC   C1A61479  28.469  23.680   6.311
 4863POPC   D2A61480  28.326  23.891   6.705
 4863POPC   C3A61481  28.395  23.731   7.140
 4863POPC   C4A61482  28.351  24.054   7.513
 4863POPC   C1B61483  28.088  23.355   6.239
 4863POPC   C2B61484  28.157  23.392   6.714
 4863POPC   C3B61485  27.941  23.506   7.105
 4863POPC   C4B61486  27.944  23.378   7.548
 4864POPC   NC361487  37.511   2.949   5.515
 4864POPC   PO461488  38.024   2.497   5.314
 4864POPC   GL161489  37.858   2.599   5.742
 4864POPC   GL261490  37.991   2.915   5.795
 4864POPC   C1A61491  37.633   2.653   6.159
 4864POPC   D2A61492  37.397   2.793   6.512
 4864POPC   C3A61493  37.523   2.934   6.928
 4864POPC   C4A61494  37.665   2.674   7.243
 4864POPC   C1B61495  38.124   2.721   6.216
 4864POPC   C2B61496  37.933   2.774   6.638
 4864POPC   C3B61497  38.046   2.949   7.046
 4864POPC   C4B61498  38.132   2.787   7.460
 4865POPC   NC361499  26.290  25.306   4.982
 4865POPC   PO461500  25.845  25.310   5.486
 4865POPC   GL161501  26.026  25.241   5.872
 4865POPC   GL261502  26.303  25.499   5.904
 4865POPC   C1A61503  26.254  25.130   6.266
 4865POPC   D2A61504  26.339  25.365   6.643
 4865POPC   C3A61505  26.196  25.172   6.989
 4865POPC   C4A61506  26.275  25.066   7.419
 4865POPC   C1B61507  26.003  25.598   6.230
 4865POPC   C2B61508  25.840  25.477   6.612
 4865POPC   C3B61509  25.697  25.325   7.011
 4865POPC   C4B61510  25.935  25.447   7.327
 4866POPC   NC361511  36.522  36.831   5.658
 4866POPC   PO461512  35.918  36.547   5.514
 4866POPC   GL161513  36.076  36.688   5.892
 4866POPC   GL261514  36.111  37.075   5.889
 4866POPC   C1A61515  35.990  36.770   6.320
 4866POPC   D2A61516  36.041  37.117   6.595
 4866POPC   C3A61517  36.140  36.992   7.001
 4866POPC   C4A61518  36.177  36.938   7.439
 4866POPC   C1B61519  36.427  37.101   6.239
 4866POPC   C2B61520  36.553  36.989   6.662
 4866POPC   C3B61521  36.564  37.259   7.039
 4866POPC   C4B61522  36.307  37.413   7.385
 4867POPC   NC361523   4.422  26.538   5.323
 4867POPC   PO461524   4.009  26.953   5.148
 4867POPC   GL161525   4.334  26.878   5.678
 4867POPC   GL261526   4.478  26.619   5.886
 4867POPC   C1A61527   4.106  26.858   6.150
 4867POPC   D2A61528   4.111  26.619   6.558
 4867POPC   C3A61529   4.087  26.899   6.909
 4867POPC   C4A61530   4.415  26.996   7.191
 4867POPC   C1B61531   4.583  27.021   6.161
 4867POPC   C2B61532   4.454  27.058   6.586
 4867POPC   C3B61533   4.565  26.688   6.794
 4867POPC   C4B61534   4.861  26.565   7.067
 4868POPC   NC361535  38.018  35.528   5.642
 4868POPC   PO461536  38.621  35.536   5.287
 4868POPC   GL161537  38.704  35.477   5.759
 4868POPC   GL261538  38.427  35.242   5.804
 4868POPC   C1A61539  38.796  35.290   6.210
 4868POPC   D2A61540  38.675  35.467   6.645
 4868POPC   C3A61541  38.806  35.247   7.033
 4868POPC   C4A61542  38.709  34.840   7.231
 4868POPC   C1B61543  38.307  35.445   6.213
 4868POPC   C2B61544  38.085  35.351   6.583
 4868POPC   C3B61545  38.179  35.565   6.921
 4868POPC   C4B61546  38.406  35.470   7.249
 4869POPC   NC361547  38.544  41.745   5.339
 4869POPC   PO461548  38.766  41.082   5.480
 4869POPC   GL161549  38.600  41.459   5.776
 4869POPC   GL261550  38.247  41.472   5.858
 4869POPC   C1A61551  38.507  41.715   6.196
 4869POPC   D2A61552  38.639  41.574   6.586
 4869POPC   C3A61553  38.721  41.830   6.890
 4869POPC   C4A61554  38.578  41.683   7.255
 4869POPC   C1B61555  38.009  41.307   6.204
 4869POPC   C2B61556  37.910  41.397   6.636
 4869POPC   C3B61557  38.174  41.448   6.987
 4869POPC   C4B61558  38.076  41.651   7.365
 4870POPC   NC361559  11.980  29.070   5.390
 4870POPC   PO461560  12.471  29.521   5.529
 4870POPC   GL161561  12.242  29.185   5.821
 4870POPC   GL261562  11.879  29.100   5.890
 4870POPC   C1A61563  12.243  28.992   6.242
 4870POPC   D2A61564  12.274  29.231   6.650
 4870POPC   C3A61565  12.063  29.073   7.021
 4870POPC   C4A61566  11.900  28.961   7.398
 4870POPC   C1B61567  11.802  29.270   6.312
 4870POPC   C2B61568  11.783  29.413   6.772
 4870POPC   C3B61569  11.686  29.401   7.266
 4870POPC   C4B61570  11.810  29.345   7.735
 4871POPC   NC361571   3.879   9.255   5.606
 4871POPC   PO461572   3.473   8.747   5.552
 4871POPC   GL161573   3.484   8.815   5.961
 4871POPC   GL261574   3.432   9.150   5.898
 4871POPC   C1A61575   3.297   8.757   6.354
 4871POPC   D2A61576   3.353   8.983   6.736
 4871POPC   C3A61577   3.416   8.744   7.053
 4871POPC   C4A61578   3.659   8.505   7.353
 4871POPC   C1B61579   3.488   9.242   6.324
 4871POPC   C2B61580   3.329   9.585   6.613
 4871POPC   C3B61581   3.419   9.634   7.020
 4871POPC   C4B61582   3.634   9.249   7.142
 4872POPC   NC361583   2.309  35.156   5.498
 4872POPC   PO461584   1.918  35.683   5.587
 4872POPC   GL161585   1.942  35.276   5.823
 4872POPC   GL261586   2.275  35.323   5.998
 4872POPC   C1A61587   1.861  35.113   6.237
 4872POPC   D2A61588   1.949  35.493   6.432
 4872POPC   C3A61589   2.113  35.591   6.818
 4872POPC   C4A61590   2.032  35.794   7.206
 4872POPC   C1B61591   2.378  34.999   6.320
 4872POPC   C2B61592   2.169  34.772   6.645
 4872POPC   C3B61593   1.958  35.031   6.943
 4872POPC   C4B61594   2.184  35.298   7.219
 4873POPC   NC361595  39.216  21.599   4.909
 4873POPC   PO461596  39.066  21.168   5.452
 4873POPC   GL161597  39.191  21.354   5.819
 4873POPC   GL261598  39.172  21.064   5.977
 4873POPC   C1A61599  39.273  21.602   6.200
 4873POPC   D2A61600  39.430  21.557   6.649
 4873POPC   C3A61601  39.099  21.452   6.924
 4873POPC   C4A61602  38.882  21.607   7.250
 4873POPC   C1B61603  39.414  21.116   6.321
 4873POPC   C2B61604  39.439  21.009   6.719
 4873POPC   C3B61605  39.520  21.223   7.071
 4873POPC   C4B61606  39.244  21.286   7.401
 4874POPC   NC361607  20.873  35.603   5.165
 4874POPC   PO461608  20.488  35.170   5.358
 4874POPC   GL161609  20.629  35.207   5.753
 4874POPC   GL261610  20.932  35.353   5.677
 4874POPC   C1A61611  20.551  35.397   6.164
 4874POPC   D2A61612  20.388  35.621   6.520
 4874POPC   C3A61613  20.310  35.403   6.882
 4874POPC   C4A61614  20.352  35.433   7.332
 4874POPC   C1B61615  21.028  35.140   6.093
 4874POPC   C2B61616  20.836  35.136   6.519
 4874POPC   C3B61617  20.933  35.295   6.916
 4874POPC   C4B61618  20.869  35.381   7.345
 4875POPC   NC361619  43.853  41.815   5.397
 4875POPC   PO461620  43.959  41.163   5.353
 4875POPC   GL161621  43.945  41.426   5.735
 4875POPC   GL261622  44.247  41.634   5.761
 4875POPC   C1A61623  43.695  41.554   6.110
 4875POPC   D2A61624  43.627  41.407   6.531
 4875POPC   C3A61625  43.790  41.545   6.887
 4875POPC   C4A61626  43.657  41.803   7.214
 4875POPC   C1B61627  44.226  41.477   6.173
 4875POPC   C2B61628  44.449  41.501   6.550
 4875POPC   C3B61629  44.287  41.430   6.931
 4875POPC   C4B61630  44.082  41.543   7.295
 4876POPC   NC361631  42.634  16.786   5.388
 4876POPC   PO461632  43.324  16.735   5.373
 4876POPC   GL161633  43.014  16.848   5.726
 4876POPC   GL261634  42.762  16.570   5.852
 4876POPC   C1A61635  42.984  16.967   6.156
 4876POPC   D2A61636  43.237  17.041   6.500
 4876POPC   C3A61637  43.080  17.031   6.898
 4876POPC   C4A61638  42.850  16.819   7.216
 4876POPC   C1B61639  43.004  16.477   6.262
 4876POPC   C2B61640  43.047  16.554   6.716
 4876POPC   C3B61641  42.951  16.338   7.103
 4876POPC   C4B61642  43.026  16.380   7.558
 4877POPC   NC361643  37.614   7.723   5.045
 4877POPC   PO461644  37.874   7.153   5.316
 4877POPC   GL161645  37.714   7.347   5.741
 4877POPC   GL261646  37.962   7.506   5.968
 4877POPC   C1A61647  37.431   7.297   6.142
 4877POPC   D2A61648  37.468   7.142   6.588
 4877POPC   C3A61649  37.634   7.413   6.977
 4877POPC   C4A61650  37.723   7.420   7.476
 4877POPC   C1B61651  37.790   7.579   6.410
 4877POPC   C2B61652  37.920   7.797   6.790
 4877POPC   C3B61653  38.146   7.771   7.193
 4877POPC   C4B61654  37.989   7.826   7.659
 4878POPC   NC361655   8.346  29.818   5.430
 4878POPC   PO461656   7.612  29.736   5.502
 4878POPC   GL161657   7.956  29.945   5.777
 4878POPC   GL261658   8.243  29.796   5.935
 4878POPC   C1A61659   7.968  30.161   6.170
 4878POPC   D2A61660   8.142  30.178   6.580
 4878POPC   C3A61661   7.898  30.091   6.951
 4878POPC   C4A61662   8.144  29.936   7.214
 4878POPC   C1B61663   8.355  29.768   6.356
 4878POPC   C2B61664   8.222  29.671   6.756
 4878POPC   C3B61665   8.441  29.549   7.131
 4878POPC   C4B61666   8.812  29.569   7.377
 4879POPC   NC361667  44.452  23.279   5.616
 4879POPC   PO461668  44.728  23.749   5.179
 4879POPC   GL161669  44.761  23.776   5.642
 4879POPC   GL261670  44.437  23.775   5.814
 4879POPC   C1A61671  44.909  23.706   6.094
 4879POPC   D2A61672  44.747  23.617   6.515
 4879POPC   C3A61673  44.816  23.821   6.919
 4879POPC   C4A61674  44.676  23.700   7.343
 4879POPC   C1B61675  44.318  23.587   6.230
 4879POPC   C2B61676  44.330  23.348   6.643
 4879POPC   C3B61677  44.334  23.421   7.108
 4879POPC   C4B61678  44.392  23.345   7.591
 4880POPC   NC361679  12.443  27.693   5.414
 4880POPC   PO461680  13.058  27.468   5.204
 4880POPC   GL161681  13.027  27.648   5.655
 4880POPC   GL261682  12.725  27.832   5.839
 4880POPC   C1A61683  12.986  27.458   6.069
 4880POPC   D2A61684  12.920  27.652   6.477
 4880POPC   C3A61685  12.920  27.361   6.834
 4880POPC   C4A61686  13.118  27.377   7.228
 4880POPC   C1B61687  12.487  27.839   6.275
 4880POPC   C2B61688  12.459  27.662   6.743
 4880POPC   C3B61689  12.571  27.587   7.196
 4880POPC   C4B61690  12.481  27.767   7.629
 4881POPC   NC361691  43.138  37.841   5.448
 4881POPC   PO461692  43.324  37.188   5.436
 4881POPC   GL161693  43.337  37.504   5.816
 4881POPC   GL261694  42.981  37.490   5.896
 4881POPC   C1A61695  43.228  37.709   6.287
 4881POPC   D2A61696  42.849  37.875   6.581
 4881POPC   C3A61697  42.909  37.818   7.036
 4881POPC   C4A61698  43.298  37.852   7.267
 4881POPC   C1B61699  42.959  37.262   6.287
 4881POPC   C2B61700  42.988  37.406   6.728
 4881POPC   C3B61701  42.945  37.240   7.135
 4881POPC   C4B61702  43.085  37.361   7.548
 4882POPC   NC361703  33.225  44.871   5.351
 4882POPC   PO461704  33.108  44.314   5.529
 4882POPC   GL161705  33.085  44.680   5.818
 4882POPC   GL261706  32.850  44.964   5.688
 4882POPC   C1A61707  32.921  44.669   6.275
 4882POPC   D2A61708  32.717  44.505   6.673
 4882POPC   C3A61709  33.006  44.414   7.046
 4882POPC   C4A61710  33.198  44.191   7.404
 4882POPC   C1B61711  33.037   0.115   6.064
 4882POPC   C2B61712  33.190   0.072   6.465
 4882POPC   C3B61713  33.069  44.859   6.817
 4882POPC   C4B61714  33.070  44.947   7.251
 4883POPC   NC361715   0.158  43.017   5.556
 4883POPC   PO461716  44.516  43.327   5.629
 4883POPC   GL161717  44.766  43.075   5.864
 4883POPC   GL261718  44.511  42.789   5.829
 4883POPC   C1A61719  44.910  43.318   6.233
 4883POPC   D2A61720  44.672  43.345   6.609
 4883POPC   C3A61721  44.777  43.389   7.026
 4883POPC   C4A61722  44.467  43.304   7.339
 4883POPC   C1B61723  44.492  42.977   6.261
 4883POPC   C2B61724  44.324  42.978   6.682
 4883POPC   C3B61725  44.468  42.860   7.083
 4883POPC   C4B61726  44.163  42.708   7.360
 4884POPC   NC361727  31.200   9.004   5.545
 4884POPC   PO461728  31.685   8.644   5.295
 4884POPC   GL161729  31.617   8.784   5.726
 4884POPC   GL261730  31.588   9.162   5.847
 4884POPC   C1A61731  31.496   8.777   6.177
 4884POPC   D2A61732  31.645   9.046   6.496
 4884POPC   C3A61733  31.542   9.117   6.922
 4884POPC   C4A61734  31.364   8.873   7.247
 4884POPC   C1B61735  31.262   9.269   6.203
 4884POPC   C2B61736  31.092   9.247   6.682
 4884POPC   C3B61737  31.140   9.359   7.161
 4884POPC   C4B61738  31.364   9.241   7.596
 4885POPC   NC361739  38.027  14.638   5.516
 4885POPC   PO461740  37.464  14.711   5.196
 4885POPC   GL161741  37.528  14.330   5.599
 4885POPC   GL261742  37.844  14.354   5.882
 4885POPC   C1A61743  37.388  14.256   6.046
 4885POPC   D2A61744  37.453  14.212   6.499
 4885POPC   C3A61745  37.792  14.305   6.807
 4885POPC   C4A61746  37.600  14.323   7.207
 4885POPC   C1B61747  38.123  14.678   6.146
 4885POPC   C2B61748  38.248  14.641   6.558
 4885POPC   C3B61749  38.115  14.778   6.937
 4885POPC   C4B61750  38.080  14.510   7.285
 4886POPC   NC361751  31.720  12.665   5.562
 4886POPC   PO461752  31.026  12.555   5.421
 4886POPC   GL161753  31.198  12.861   5.761
 4886POPC   GL261754  31.335  12.580   5.870
 4886POPC   C1A61755  31.453  12.942   6.200
 4886POPC   D2A61756  31.654  13.117   6.584
 4886POPC   C3A61757  31.587  12.854   6.940
 4886POPC   C4A61758  31.441  12.681   7.328
 4886POPC   C1B61759  30.993  12.575   6.149
 4886POPC   C2B61760  31.053  12.341   6.507
 4886POPC   C3B61761  31.288  12.413   6.860
 4886POPC   C4B61762  31.074  12.343   7.213
 4887POPC   NC361763  29.647   2.553   5.616
 4887POPC   PO461764  30.056   3.096   5.374
 4887POPC   GL161765  30.016   2.861   5.787
 4887POPC   GL261766  30.237   2.573   5.777
 4887POPC   C1A61767  29.771   2.698   6.214
 4887POPC   D2A61768  29.654   2.460   6.613
 4887POPC   C3A61769  29.783   2.609   7.036
 4887POPC   C4A61770  29.788   2.937   7.393
 4887POPC   C1B61771  30.282   2.703   6.206
 4887POPC   C2B61772  30.146   2.581   6.599
 4887POPC   C3B61773  30.296   2.528   6.992
 4887POPC   C4B61774  30.203   2.640   7.412
 4888POPC   NC361775  14.021  30.445   5.418
 4888POPC   PO461776  14.568  30.908   5.384
 4888POPC   GL161777  14.317  30.841   5.725
 4888POPC   GL261778  14.623  30.909   5.912
 4888POPC   C1A61779  14.301  30.538   6.069
 4888POPC   D2A61780  14.373  30.373   6.492
 4888POPC   C3A61781  14.267  30.552   6.886
 4888POPC   C4A61782  14.475  30.658   7.270
 4888POPC   C1B61783  14.641  30.834   6.356
 4888POPC   C2B61784  14.671  30.857   6.809
 4888POPC   C3B61785  14.905  30.885   7.167
 4888POPC   C4B61786  14.805  30.743   7.649
 4889POPC   NC361787  26.302  32.769   5.389
 4889POPC   PO461788  25.862  33.271   5.356
 4889POPC   GL161789  26.029  33.059   5.710
 4889POPC   GL261790  26.193  33.299   5.917
 4889POPC   C1A61791  26.178  32.821   6.081
 4889POPC   D2A61792  26.165  32.751   6.534
 4889POPC   C3A61793  26.060  33.029   6.893
 4889POPC   C4A61794  26.278  33.153   7.311
 4889POPC   C1B61795  25.815  33.203   6.149
 4889POPC   C2B61796  25.704  33.195   6.571
 4889POPC   C3B61797  25.522  33.113   6.963
 4889POPC   C4B61798  25.737  32.953   7.281
 4890POPC   NC361799  38.056  12.042   5.354
 4890POPC   PO461800  37.390  12.015   5.379
 4890POPC   GL161801  37.654  11.932   5.727
 4890POPC   GL261802  37.836  12.243   5.785
 4890POPC   C1A61803  37.597  12.030   6.189
 4890POPC   D2A61804  37.425  11.861   6.555
 4890POPC   C3A61805  37.400  12.002   6.981
 4890POPC   C4A61806  37.720  11.856   7.249
 4890POPC   C1B61807  38.075  11.959   6.037
 4890POPC   C2B61808  38.144  11.900   6.456
 4890POPC   C3B61809  37.872  12.049   6.798
 4890POPC   C4B61810  38.006  12.249   7.187
 4891POPC   NC361811  30.226  38.783   5.527
 4891POPC   PO461812  29.855  38.274   5.613
 4891POPC   GL161813  29.938  38.604   5.918
 4891POPC   GL261814  29.662  38.820   5.983
 4891POPC   C1A61815  29.935  38.625   6.359
 4891POPC   D2A61816  29.929  38.441   6.734
 4891POPC   C3A61817  30.132  38.668   7.112
 4891POPC   C4A61818  30.241  38.846   7.533
 4891POPC   C1B61819  29.491  38.397   6.148
 4891POPC   C2B61820  29.324  38.225   6.515
 4891POPC   C3B61821  29.430  38.283   6.910
 4891POPC   C4B61822  29.765  38.309   7.181
 4892POPC   NC361823  16.505  31.068   5.284
 4892POPC   PO461824  17.005  31.516   5.290
 4892POPC   GL161825  16.802  31.379   5.660
 4892POPC   GL261826  16.548  31.612   5.807
 4892POPC   C1A61827  16.883  31.348   6.107
 4892POPC   D2A61828  16.664  31.409   6.497
 4892POPC   C3A61829  16.873  31.227   6.846
 4892POPC   C4A61830  16.821  31.304   7.268
 4892POPC   C1B61831  16.292  31.596   6.190
 4892POPC   C2B61832  16.305  31.818   6.609
 4892POPC   C3B61833  16.537  31.651   6.954
 4892POPC   C4B61834  16.677  31.809   7.321
 4893POPC   NC361835  30.262  27.392   5.447
 4893POPC   PO461836  30.823  27.490   5.109
 4893POPC   GL161837  30.713  27.661   5.585
 4893POPC   GL261838  30.973  27.501   5.800
 4893POPC   C1A61839  30.655  27.774   6.099
 4893POPC   D2A61840  30.553  27.981   6.552
 4893POPC   C3A61841  30.562  27.682   6.937
 4893POPC   C4A61842  30.357  27.245   6.954
 4893POPC   C1B61843  30.973  27.373   6.272
 4893POPC   C2B61844  30.964  27.341   6.773
 4893POPC   C3B61845  30.964  27.372   7.250
 4893POPC   C4B61846  31.068  27.534   7.677
 4894POPC   NC361847  28.433  11.372   5.439
 4894POPC   PO461848  27.836  11.206   5.469
 4894POPC   GL161849  28.165  11.161   5.830
 4894POPC   GL261850  28.584  11.151   5.881
 4894POPC   C1A61851  28.284  11.446   6.164
 4894POPC   D2A61852  28.403  11.361   6.590
 4894POPC   C3A61853  28.359  11.598   6.951
 4894POPC   C4A61854  28.498  11.495   7.382
 4894POPC   C1B61855  28.421  10.951   6.263
 4894POPC   C2B61856  28.260  10.862   6.686
 4894POPC   C3B61857  28.363  11.078   7.065
 4894POPC   C4B61858  28.535  10.988   7.457
 4895POPC   NC361859  10.074  16.776   5.074
 4895POPC   PO461860   9.456  16.845   5.348
 4895POPC   GL161861   9.814  16.670   5.620
 4895POPC   GL261862   9.748  16.335   5.707
 4895POPC   C1A61863   9.927  16.652   6.084
 4895POPC   D2A61864   9.726  16.660   6.493
 4895POPC   C3A61865   9.898  16.796   6.921
 4895POPC   C4A61866  10.113  16.747   7.338
 4895POPC   C1B61867   9.469  16.330   6.095
 4895POPC   C2B61868   9.504  16.205   6.505
 4895POPC   C3B61869   9.543  16.413   6.887
 4895POPC   C4B61870   9.644  16.539   7.296
 4896POPC   NC361871  22.601  37.411   5.358
 4896POPC   PO461872  21.930  37.672   5.420
 4896POPC   GL161873  22.094  37.718   5.793
 4896POPC   GL261874  22.460  37.687   5.748
 4896POPC   C1A61875  21.945  37.695   6.227
 4896POPC   D2A61876  22.146  37.529   6.595
 4896POPC   C3A61877  21.952  37.725   6.898
 4896POPC   C4A61878  21.930  37.563   7.268
 4896POPC   C1B61879  22.423  37.612   6.160
 4896POPC   C2B61880  22.494  37.892   6.487
 4896POPC   C3B61881  22.470  37.798   6.891
 4896POPC   C4B61882  22.432  37.699   7.287
 4897POPC   NC361883  36.668  28.299   5.355
 4897POPC   PO461884  37.222  28.719   5.249
 4897POPC   GL161885  36.841  28.674   5.609
 4897POPC   GL261886  36.975  28.299   5.796
 4897POPC   C1A61887  36.668  28.594   6.054
 4897POPC   D2A61888  36.884  28.309   6.358
 4897POPC   C3A61889  36.797  28.368   6.778
 4897POPC   C4A61890  36.641  28.193   7.140
 4897POPC   C1B61891  37.331  28.173   6.160
 4897POPC   C2B61892  37.478  28.166   6.594
 4897POPC   C3B61893  37.322  28.472   6.855
 4897POPC   C4B61894  37.060  28.496   7.195
 4898POPC   NC361895  35.500  29.654   5.519
 4898POPC   PO461896  35.324  29.021   5.383
 4898POPC   GL161897  35.254  28.998   5.830
 4898POPC   GL261898  34.953  28.791   5.863
 4898POPC   C1A61899  35.439  29.193   6.225
 4898POPC   D2A61900  35.591  28.997   6.633
 4898POPC   C3A61901  35.549  29.306   6.955
 4898POPC   C4A61902  35.472  29.340   7.377
 4898POPC   C1B61903  35.072  28.833   6.302
 4898POPC   C2B61904  35.100  29.171   6.626
 4898POPC   C3B61905  35.081  29.138   7.066
 4898POPC   C4B61906  34.915  28.813   7.286
 4899POPC   NC361907  34.852   0.088   5.370
 4899POPC   PO461908  34.990   0.731   5.368
 4899POPC   GL161909  35.045   0.369   5.777
 4899POPC   GL261910  35.332   0.504   6.002
 4899POPC   C1A61911  35.110   0.139   6.227
 4899POPC   D2A61912  35.070   0.219   6.669
 4899POPC   C3A61913  35.319   0.129   7.006
 4899POPC   C4A61914  35.291   0.472   7.264
 4899POPC   C1B61915  35.566   0.636   6.334
 4899POPC   C2B61916  35.503   0.609   6.790
 4899POPC   C3B61917  35.777   0.621   7.142
 4899POPC   C4B61918  35.972   0.833   7.468
 4900POPC   NC361919  43.482  44.845   5.662
 4900POPC   PO461920  42.940  44.995   5.275
 4900POPC   GL161921  42.882  44.649   5.648
 4900POPC   GL261922  43.131  44.456   5.809
 4900POPC   C1A61923  42.706  44.690   6.092
 4900POPC   D2A61924  42.755  45.000   6.461
 4900POPC   C3A61925  42.891  44.853   6.885
 4900POPC   C4A61926  42.914  44.543   7.263
 4900POPC   C1B61927  43.165  44.530   6.262
 4900POPC   C2B61928  42.991  44.392   6.646
 4900POPC   C3B61929  43.099  44.167   6.985
 4900POPC   C4B61930  43.362  44.311   7.322
 4901POPC   NC361931  15.983  10.678   5.259
 4901POPC   PO461932  16.133   9.963   5.205
 4901POPC   GL161933  16.053  10.165   5.636
 4901POPC   GL261934  16.229  10.473   5.700
 4901POPC   C1A61935  15.811  10.383   6.013
 4901POPC   D2A61936  15.877  10.587   6.435
 4901POPC   C3A61937  15.825  10.360   6.814
 4901POPC   C4A61938  15.767  10.655   7.146
 4901POPC   C1B61939  16.306  10.242   6.104
 4901POPC   C2B61940  16.337  10.351   6.533
 4901POPC   C3B61941  16.306  10.462   6.952
 4901POPC   C4B61942  16.091  10.194   7.214
 4902POPC   NC361943  13.071  20.316   5.347
 4902POPC   PO461944  12.603  19.807   5.462
 4902POPC   GL161945  12.651  19.892   5.885
 4902POPC   GL261946  12.357  20.024   5.884
 4902POPC   C1A61947  12.821  19.843   6.322
 4902POPC   D2A61948  13.073  19.786   6.711
 4902POPC   C3A61949  12.831  19.555   7.034
 4902POPC   C4A61950  12.647  19.610   7.435
 4902POPC   C1B61951  12.437  20.202   6.305
 4902POPC   C2B61952  12.281  20.157   6.742
 4902POPC   C3B61953  12.541  19.973   7.092
 4902POPC   C4B61954  13.012  19.998   7.204
 4903POPC   NC361955  20.395  36.086   5.621
 4903POPC   PO461956  20.857  36.070   5.125
 4903POPC   GL161957  20.904  35.902   5.623
 4903POPC   GL261958  20.769  36.107   5.961
 4903POPC   C1A61959  20.991  35.677   6.068
 4903POPC   D2A61960  20.959  35.645   6.545
 4903POPC   C3A61961  20.696  35.810   6.916
 4903POPC   C4A61962  20.705  36.242   7.143
 4903POPC   C1B61963  20.482  36.082   6.317
 4903POPC   C2B61964  20.224  36.102   6.696
 4903POPC   C3B61965  20.247  35.982   7.126
 4903POPC   C4B61966  20.298  36.219   7.524
 4904POPC   NC361967  32.956  29.575   5.317
 4904POPC   PO461968  33.521  29.180   5.202
 4904POPC   GL161969  33.391  29.145   5.659
 4904POPC   GL261970  33.027  29.267   5.746
 4904POPC   C1A61971  33.362  29.134   6.143
 4904POPC   D2A61972  33.058  29.175   6.532
 4904POPC   C3A61973  33.211  29.021   6.974
 4904POPC   C4A61974  33.396  28.856   7.379
 4904POPC   C1B61975  32.754  29.455   6.105
 4904POPC   C2B61976  32.641  29.497   6.573
 4904POPC   C3B61977  32.649  29.156   6.898
 4904POPC   C4B61978  32.783  28.945   7.276
 4905POPC   NC361979  37.578  35.521   5.185
 4905POPC   PO461980  38.037  35.103   5.444
 4905POPC   GL161981  37.776  35.104   5.806
 4905POPC   GL261982  37.528  35.317   5.662
 4905POPC   C1A61983  37.727  35.383   6.213
 4905POPC   D2A61984  37.588  35.646   6.583
 4905POPC   C3A61985  37.671  35.608   7.025
 4905POPC   C4A61986  37.905  35.250   7.226
 4905POPC   C1B61987  37.258  35.359   6.008
 4905POPC   C2B61988  37.234  35.309   6.445
 4905POPC   C3B61989  37.241  35.348   6.871
 4905POPC   C4B61990  37.052  35.112   7.192
 4906POPC   NC361991  43.764  18.722   5.282
 4906POPC   PO461992  43.990  19.300   5.405
 4906POPC   GL161993  43.966  19.412   5.791
 4906POPC   GL261994  43.619  19.422   5.814
 4906POPC   C1A61995  43.959  19.117   6.173
 4906POPC   D2A61996  44.020  18.784   6.495
 4906POPC   C3A61997  43.921  18.949   6.889
 4906POPC   C4A61998  44.204  19.021   7.226
 4906POPC   C1B61999  43.757  19.587   6.221
 4906POPC   C2B62000  43.854  19.443   6.604
 4906POPC   C3B62001  44.066  19.468   6.976
 4906POPC   C4B62002  43.779  19.297   7.241
 4907POPC   NC362003  34.833   7.080   5.118
 4907POPC   PO462004  35.359   6.762   5.462
 4907POPC   GL162005  35.361   6.678   5.850
 4907POPC   GL262006  35.609   6.456   5.877
 4907POPC   C1A62007  35.352   6.854   6.247
 4907POPC   D2A62008  35.201   6.916   6.639
 4907POPC   C3A62009  35.261   6.569   6.899
 4907POPC   C4A62010  35.307   6.760   7.232
 4907POPC   C1B62011  35.419   6.349   6.256
 4907POPC   C2B62012  35.593   6.189   6.600
 4907POPC   C3B62013  35.776   6.295   6.946
 4907POPC   C4B62014  35.568   6.317   7.315
 4908POPC   NC362015  42.074   4.481   5.394
 4908POPC   PO462016  41.533   4.104   5.382
 4908POPC   GL162017  41.528   4.222   5.795
 4908POPC   GL262018  41.748   4.508   5.851
 4908POPC   C1A62019  41.353   4.384   6.181
 4908POPC   D2A62020  41.507   4.678   6.501
 4908POPC   C3A62021  41.267   4.609   6.856
 4908POPC   C4A62022  41.196   4.322   7.204
 4908POPC   C1B62023  41.901   4.154   6.151
 4908POPC   C2B62024  42.030   3.887   6.520
 4908POPC   C3B62025  41.932   3.989   6.944
 4908POPC   C4B62026  41.699   4.388   7.022
 4909POPC   NC362027  26.506  41.749   5.074
 4909POPC   PO462028  26.159  42.292   5.240
 4909POPC   GL162029  26.255  42.105   5.669
 4909POPC   GL262030  25.906  42.091   5.767
 4909POPC   C1A62031  26.379  42.248   6.115
 4909POPC   D2A62032  26.194  42.502   6.469
 4909POPC   C3A62033  26.191  42.364   6.930
 4909POPC   C4A62034  26.377  42.600   7.287
 4909POPC   C1B62035  25.829  42.218   6.212
 4909POPC   C2B62036  25.766  42.293   6.656
 4909POPC   C3B62037  25.701  42.197   7.080
 4909POPC   C4B62038  25.982  42.323   7.422
 4910POPC   NC362039   3.628  40.052   5.397
 4910POPC   PO462040   3.086  39.721   5.182
 4910POPC   GL162041   3.190  39.918   5.680
 4910POPC   GL262042   3.552  39.933   5.881
 4910POPC   C1A62043   3.163  39.950   6.184
 4910POPC   D2A62044   3.469  39.958   6.578
 4910POPC   C3A62045   3.213  40.086   6.972
 4910POPC   C4A62046   3.030  40.077   7.395
 4910POPC   C1B62047   3.865  40.027   6.221
 4910POPC   C2B62048   3.881  40.354   6.543
 4910POPC   C3B62049   3.639  40.369   6.927
 4910POPC   C4B62050   3.644  40.213   7.331
 4911POPC   NC362051  44.158  13.620   5.463
 4911POPC   PO462052  44.385  13.043   5.518
 4911POPC   GL162053  44.364  13.355   5.877
 4911POPC   GL262054  44.523  13.690   5.817
 4911POPC   C1A62055  44.625  13.442   6.257
 4911POPC   D2A62056  44.758  13.687   6.603
 4911POPC   C3A62057  44.602  13.484   6.974
 4911POPC   C4A62058  44.575  13.641   7.387
 4911POPC   C1B62059  44.684  13.974   6.144
 4911POPC   C2B62060  44.535  14.143   6.537
 4911POPC   C3B62061  44.501  13.996   6.951
 4911POPC   C4B62062  44.650  14.139   7.309
 4912POPC   NC362063  43.235  27.164   5.435
 4912POPC   PO462064  43.091  26.476   5.560
 4912POPC   GL162065  43.109  26.827   5.826
 4912POPC   GL262066  43.459  26.951   5.857
 4912POPC   C1A62067  42.988  26.894   6.256
 4912POPC   D2A62068  42.729  26.796   6.593
 4912POPC   C3A62069  42.909  26.963   6.961
 4912POPC   C4A62070  42.922  26.790   7.353
 4912POPC   C1B62071  43.451  26.638   6.206
 4912POPC   C2B62072  43.319  26.693   6.651
 4912POPC   C3B62073  43.407  26.681   7.109
 4912POPC   C4B62074  43.365  27.044   7.397
 4913POPC   NC362075  34.094  10.280   5.421
 4913POPC   PO462076  33.609  10.651   5.219
 4913POPC   GL162077  33.843  10.649   5.686
 4913POPC   GL262078  33.862  10.359   5.877
 4913POPC   C1A62079  33.889  10.738   6.201
 4913POPC   D2A62080  33.905  10.553   6.658
 4913POPC   C3A62081  33.949  10.695   7.137
 4913POPC   C4A62082  33.821  10.986   7.528
 4913POPC   C1B62083  33.736  10.219   6.280
 4913POPC   C2B62084  34.003  10.066   6.625
 4913POPC   C3B62085  33.985  10.195   7.004
 4913POPC   C4B62086  33.598  10.133   7.194
 4914POPC   NC362087  10.723  40.107   5.471
 4914POPC   PO462088  10.163  39.615   5.379
 4914POPC   GL162089  10.184  39.920   5.748
 4914POPC   GL262090  10.156  40.296   5.705
 4914POPC   C1A62091  10.326  39.836   6.164
 4914POPC   D2A62092  10.198  39.758   6.570
 4914POPC   C3A62093  10.590  39.742   6.821
 4914POPC   C4A62094  10.614  39.848   7.257
 4914POPC   C1B62095  10.422  40.321   6.119
 4914POPC   C2B62096  10.561  40.280   6.563
 4914POPC   C3B62097  10.664  40.366   7.009
 4914POPC   C4B62098  10.472  40.354   7.427
 4915POPC   NC362099  30.405  16.642   5.491
 4915POPC   PO462100  30.991  17.000   5.466
 4915POPC   GL162101  30.773  16.981   5.867
 4915POPC   GL262102  30.421  16.884   5.956
 4915POPC   C1A62103  30.819  16.908   6.302
 4915POPC   D2A62104  30.893  16.764   6.715
 4915POPC   C3A62105  30.833  17.050   7.055
 4915POPC   C4A62106  30.951  16.897   7.468
 4915POPC   C1B62107  30.195  16.641   6.301
 4915POPC   C2B62108  30.215  16.474   6.748
 4915POPC   C3B62109  30.512  16.649   7.075
 4915POPC   C4B62110  30.447  16.994   7.413
 4916POPC   NC362111  40.372  30.451   5.386
 4916POPC   PO462112  39.705  30.359   5.356
 4916POPC   GL162113  39.947  30.568   5.695
 4916POPC   GL262114  40.253  30.391   5.879
 4916POPC   C1A62115  39.983  30.738   6.114
 4916POPC   D2A62116  39.918  30.511   6.516
 4916POPC   C3A62117  39.947  30.740   6.870
 4916POPC   C4A62118  40.194  30.814   7.178
 4916POPC   C1B62119  40.353  30.341   6.334
 4916POPC   C2B62120  40.531  30.293   6.747
 4916POPC   C3B62121  40.450  30.352   7.184
 4916POPC   C4B62122  40.316  30.385   7.574
 4917POPC   NC362123  11.133  21.441   5.589
 4917POPC   PO462124  10.588  21.583   5.321
 4917POPC   GL162125  10.555  21.513   5.762
 4917POPC   GL262126  10.819  21.719   5.841
 4917POPC   C1A62127  10.475  21.257   6.154
 4917POPC   D2A62128  10.317  20.978   6.492
 4917POPC   C3A62129  10.351  21.175   6.876
 4917POPC   C4A62130  10.526  21.168   7.244
 4917POPC   C1B62131  10.717  21.715   6.233
 4917POPC   C2B62132  10.534  21.579   6.599
 4917POPC   C3B62133  10.499  21.736   7.017
 4917POPC   C4B62134  10.295  21.629   7.379
 4918POPC   NC362135  23.977   4.871   5.581
 4918POPC   PO462136  23.766   5.425   5.234
 4918POPC   GL162137  23.638   5.257   5.669
 4918POPC   GL262138  23.523   4.925   5.789
 4918POPC   C1A62139  23.652   5.278   6.154
 4918POPC   D2A62140  23.706   5.404   6.581
 4918POPC   C3A62141  23.698   5.196   6.988
 4918POPC   C4A62142  23.462   5.240   7.364
 4918POPC   C1B62143  23.718   4.794   6.223
 4918POPC   C2B62144  23.477   4.887   6.622
 4918POPC   C3B62145  23.386   4.818   7.061
 4918POPC   C4B62146  23.705   4.795   7.349
 4919POPC   NC362147  39.407  15.165   5.337
 4919POPC   PO462148  38.761  15.392   5.415
 4919POPC   GL162149  39.092  15.269   5.732
 4919POPC   GL262150  39.458  15.206   5.831
 4919POPC   C1A62151  39.061  15.255   6.179
 4919POPC   D2A62152  39.043  15.010   6.572
 4919POPC   C3A62153  39.149  15.217   6.943
 4919POPC   C4A62154  38.931  15.252   7.326
 4919POPC   C1B62155  39.504  14.947   6.179
 4919POPC   C2B62156  39.552  14.965   6.612
 4919POPC   C3B62157  39.581  14.926   7.029
 4919POPC   C4B62158  39.316  14.925   7.358
 4920POPC   NC362159  42.447  19.652   5.301
 4920POPC   PO462160  42.367  18.965   5.375
 4920POPC   GL162161  42.310  19.097   5.796
 4920POPC   GL262162  42.509  19.380   5.737
 4920POPC   C1A62163  42.073  18.989   6.185
 4920POPC   D2A62164  42.074  18.643   6.491
 4920POPC   C3A62165  42.201  18.791   6.876
 4920POPC   C4A62166  41.978  19.051   7.131
 4920POPC   C1B62167  42.287  19.473   6.150
 4920POPC   C2B62168  42.196  19.377   6.571
 4920POPC   C3B62169  42.370  19.367   6.988
 4920POPC   C4B62170  42.489  19.037   7.241
 4921POPC   NC362171   9.613   8.949   5.549
 4921POPC   PO462172  10.206   8.801   5.170
 4921POPC   GL162173  10.133   9.117   5.611
 4921POPC   GL262174  10.004   8.929   5.876
 4921POPC   C1A62175  10.210   9.279   6.139
 4921POPC   D2A62176  10.220   9.052   6.560
 4921POPC   C3A62177   9.975   9.150   6.926
 4921POPC   C4A62178   9.882   8.872   7.258
 4921POPC   C1B62179   9.794   9.004   6.268
 4921POPC   C2B62180   9.740   8.772   6.662
 4921POPC   C3B62181   9.445   8.701   7.016
 4921POPC   C4B62182   9.351   8.854   7.431
 4922POPC   NC362183  32.403  14.000   5.447
 4922POPC   PO462184  32.546  14.618   5.249
 4922POPC   GL162185  32.304  14.458   5.697
 4922POPC   GL262186  32.411  14.157   5.923
 4922POPC   C1A62187  32.007  14.379   6.120
 4922POPC   D2A62188  31.830  14.450   6.536
 4922POPC   C3A62189  32.142  14.424   6.854
 4922POPC   C4A62190  32.130  14.363   7.278
 4922POPC   C1B62191  32.517  14.513   6.163
 4922POPC   C2B62192  32.559  14.671   6.575
 4922POPC   C3B62193  32.559  14.686   7.016
 4922POPC   C4B62194  32.621  14.286   7.180
 4923POPC   NC362195  42.501  22.409   5.259
 4923POPC   PO462196  42.357  23.044   5.388
 4923POPC   GL162197  42.223  23.113   5.791
 4923POPC   GL262198  42.094  22.780   5.787
 4923POPC   C1A62199  42.267  23.089   6.247
 4923POPC   D2A62200  42.476  23.218   6.646
 4923POPC   C3A62201  42.181  23.119   7.003
 4923POPC   C4A62202  42.166  23.005   7.478
 4923POPC   C1B62203  42.534  22.708   5.982
 4923POPC   C2B62204  42.677  22.785   6.397
 4923POPC   C3B62205  42.444  22.724   6.772
 4923POPC   C4B62206  42.564  22.843   7.198
 4924POPC   NC362207  39.014  40.295   5.436
 4924POPC   PO462208  39.448  39.752   5.541
 4924POPC   GL162209  39.390  39.822   5.931
 4924POPC   GL262210  39.044  39.785   5.909
 4924POPC   C1A62211  39.462  39.815   6.340
 4924POPC   D2A62212  39.441  40.168   6.611
 4924POPC   C3A62213  39.427  39.978   7.006
 4924POPC   C4A62214  39.376  40.234   7.317
 4924POPC   C1B62215  39.078  40.139   6.215
 4924POPC   C2B62216  38.840  40.287   6.578
 4924POPC   C3B62217  38.975  40.252   6.983
 4924POPC   C4B62218  38.946  39.877   7.183
 4925POPC   NC362219  10.977   0.581   5.207
 4925POPC   PO462220  11.497   0.867   5.448
 4925POPC   GL162221  11.334   0.532   5.709
 4925POPC   GL262222  11.006   0.547   5.722
 4925POPC   C1A62223  11.321   0.340   6.134
 4925POPC   D2A62224  11.600   0.355   6.517
 4925POPC   C3A62225  11.413   0.350   6.936
 4925POPC   C4A62226  11.168   0.043   7.127
 4925POPC   C1B62227  10.984   0.743   6.137
 4925POPC   C2B62228  11.117   0.605   6.538
 4925POPC   C3B62229  10.992   0.666   6.940
 4925POPC   C4B62230  11.077   0.499   7.340
 4926POPC   NC362231   4.661  36.891   5.483
 4926POPC   PO462232   5.205  37.271   5.395
 4926POPC   GL162233   5.056  37.124   5.813
 4926POPC   GL262234   4.901  36.789   5.949
 4926POPC   C1A62235   5.206  37.102   6.243
 4926POPC   D2A62236   5.000  36.955   6.607
 4926POPC   C3A62237   5.054  37.181   6.975
 4926POPC   C4A62238   4.711  37.028   7.150
 4926POPC   C1B62239   5.196  36.580   6.261
 4926POPC   C2B62240   5.331  36.590   6.715
 4926POPC   C3B62241   5.182  36.727   7.158
 4926POPC   C4B62242   5.342  36.885   7.584
 4927POPC   NC362243  36.618  35.280   5.308
 4927POPC   PO462244  37.210  35.665   5.413
 4927POPC   GL162245  36.871  35.538   5.734
 4927POPC   GL262246  36.827  35.145   5.780
 4927POPC   C1A62247  36.797  35.493   6.198
 4927POPC   D2A62248  36.719  35.320   6.605
 4927POPC   C3A62249  36.783  35.558   6.986
 4927POPC   C4A62250  37.119  35.606   7.300
 4927POPC   C1B62251  36.933  34.964   6.208
 4927POPC   C2B62252  36.990  34.898   6.677
 4927POPC   C3B62253  36.632  34.930   6.971
 4927POPC   C4B62254  36.533  35.241   7.285
 4928POPC   NC362255  24.803   4.182   5.455
 4928POPC   PO462256  24.266   4.563   5.410
 4928POPC   GL162257  24.497   4.466   5.780
 4928POPC   GL262258  24.310   4.153   5.778
 4928POPC   C1A62259  24.566   4.249   6.203
 4928POPC   D2A62260  24.649   4.249   6.658
 4928POPC   C3A62261  24.641   4.581   7.001
 4928POPC   C4A62262  24.612   4.274   7.388
 4928POPC   C1B62263  24.090   4.392   6.105
 4928POPC   C2B62264  24.241   4.525   6.526
 4928POPC   C3B62265  24.221   4.329   6.935
 4928POPC   C4B62266  24.100   4.439   7.348
 4929POPC   NC362267   9.427   9.799   5.055
 4929POPC   PO462268   9.799   9.561   5.558
 4929POPC   GL162269   9.736   9.536   5.963
 4929POPC   GL262270   9.606   9.903   6.065
 4929POPC   C1A62271   9.573   9.515   6.359
 4929POPC   D2A62272   9.596   9.848   6.632
 4929POPC   C3A62273   9.780   9.669   6.991
 4929POPC   C4A62274   9.651   9.736   7.414
 4929POPC   C1B62275  10.000   9.889   6.241
 4929POPC   C2B62276  10.094   9.969   6.644
 4929POPC   C3B62277  10.035  10.114   7.024
 4929POPC   C4B62278  10.149   9.860   7.326
 4930POPC   NC362279   2.903  33.525   5.379
 4930POPC   PO462280   2.679  34.169   5.433
 4930POPC   GL162281   2.603  33.995   5.806
 4930POPC   GL262282   2.743  33.690   5.829
 4930POPC   C1A62283   2.679  34.057   6.224
 4930POPC   D2A62284   2.741  33.853   6.621
 4930POPC   C3A62285   2.476  33.888   6.954
 4930POPC   C4A62286   2.535  33.682   7.360
 4930POPC   C1B62287   2.739  33.529   6.224
 4930POPC   C2B62288   2.981  33.386   6.573
 4930POPC   C3B62289   2.871  33.409   7.013
 4930POPC   C4B62290   3.008  33.459   7.454
 4931POPC   NC362291  35.062  40.830   4.986
 4931POPC   PO462292  35.531  40.561   5.355
 4931POPC   GL162293  35.383  40.735   5.741
 4931POPC   GL262294  35.207  40.469   5.958
 4931POPC   C1A62295  35.571  40.737   6.163
 4931POPC   D2A62296  35.570  40.894   6.557
 4931POPC   C3A62297  35.370  40.699   6.879
 4931POPC   C4A62298  35.453  40.929   7.212
 4931POPC   C1B62299  35.085  40.754   6.331
 4931POPC   C2B62300  35.044  41.047   6.676
 4931POPC   C3B62301  34.951  40.919   7.084
 4931POPC   C4B62302  35.074  40.566   7.386
 4932POPC   NC362303  23.723   6.260   5.123
 4932POPC   PO462304  23.897   6.856   5.189
 4932POPC   GL162305  23.871   6.586   5.632
 4932POPC   GL262306  23.992   6.800   5.919
 4932POPC   C1A62307  23.647   6.439   6.041
 4932POPC   D2A62308  23.751   6.328   6.461
 4932POPC   C3A62309  23.495   6.396   6.819
 4932POPC   C4A62310  23.349   6.527   7.199
 4932POPC   C1B62311  23.720   6.904   6.282
 4932POPC   C2B62312  23.821   6.794   6.690
 4932POPC   C3B62313  23.750   6.888   7.097
 4932POPC   C4B62314  23.826   7.236   7.419
 4933POPC   NC362315  43.610   7.613   5.119
 4933POPC   PO462316  44.137   7.397   5.518
 4933POPC   GL162317  44.090   7.447   5.917
 4933POPC   GL262318  43.791   7.277   5.986
 4933POPC   C1A62319  44.013   7.614   6.313
 4933POPC   D2A62320  43.847   7.272   6.591
 4933POPC   C3A62321  43.863   7.439   7.006
 4933POPC   C4A62322  44.113   7.787   7.147
 4933POPC   C1B62323  43.521   7.558   6.273
 4933POPC   C2B62324  43.452   7.548   6.718
 4933POPC   C3B62325  43.392   7.601   7.130
 4933POPC   C4B62326  43.669   7.532   7.474
 4934POPC   NC362327  26.737  30.486   5.420
 4934POPC   PO462328  26.738  31.007   5.093
 4934POPC   GL162329  26.699  30.933   5.660
 4934POPC   GL262330  26.614  30.599   5.882
 4934POPC   C1A62331  26.931  30.888   6.128
 4934POPC   D2A62332  27.026  30.721   6.561
 4934POPC   C3A62333  27.114  30.952   6.909
 4934POPC   C4A62334  26.926  30.996   7.295
 4934POPC   C1B62335  26.444  30.606   6.286
 4934POPC   C2B62336  26.566  30.564   6.706
 4934POPC   C3B62337  26.608  30.594   7.121
 4934POPC   C4B62338  26.434  30.717   7.545
 4935POPC   NC362339   9.898  40.002   5.331
 4935POPC   PO462340   9.411  39.694   5.312
 4935POPC   GL162341   9.648  39.711   5.714
 4935POPC   GL262342   9.669  40.040   5.791
 4935POPC   C1A62343   9.829  39.672   6.136
 4935POPC   D2A62344   9.693  39.916   6.498
 4935POPC   C3A62345   9.752  39.827   6.916
 4935POPC   C4A62346   9.393  39.949   7.143
 4935POPC   C1B62347   9.928  40.174   6.146
 4935POPC   C2B62348  10.055  40.261   6.586
 4935POPC   C3B62349  10.227  40.083   6.980
 4935POPC   C4B62350  10.115  39.985   7.408
 4936POPC   NC362351   9.222   4.731   5.414
 4936POPC   PO462352   9.059   5.387   5.301
 4936POPC   GL162353   9.207   5.208   5.694
 4936POPC   GL262354   9.010   4.946   5.851
 4936POPC   C1A62355   9.196   5.352   6.147
 4936POPC   D2A62356   9.048   5.433   6.603
 4936POPC   C3A62357   9.085   5.103   6.944
 4936POPC   C4A62358   9.093   5.101   7.399
 4936POPC   C1B62359   8.887   4.971   6.308
 4936POPC   C2B62360   8.655   4.984   6.716
 4936POPC   C3B62361   8.636   4.933   7.179
 4936POPC   C4B62362   8.606   4.674   7.563
 4937POPC   NC362363  24.880  36.401   5.294
 4937POPC   PO462364  24.305  36.835   5.368
 4937POPC   GL162365  24.313  36.891   5.816
 4937POPC   GL262366  24.525  36.642   5.942
 4937POPC   C1A62367  24.339  37.027   6.265
 4937POPC   D2A62368  24.643  37.201   6.589
 4937POPC   C3A62369  24.544  37.008   6.993
 4937POPC   C4A62370  24.186  37.144   7.264
 4937POPC   C1B62371  24.550  36.386   6.286
 4937POPC   C2B62372  24.673  36.532   6.700
 4937POPC   C3B62373  24.592  36.488   7.126
 4937POPC   C4B62374  24.811  36.333   7.474
 4938POPC   NC362375  20.970   0.885   5.385
 4938POPC   PO462376  21.379   1.441   5.396
 4938POPC   GL162377  21.200   1.284   5.770
 4938POPC   GL262378  21.336   0.932   5.759
 4938POPC   C1A62379  21.099   1.506   6.186
 4938POPC   D2A62380  21.233   1.389   6.598
 4938POPC   C3A62381  21.180   1.584   6.979
 4938POPC   C4A62382  21.272   1.434   7.374
 4938POPC   C1B62383  21.421   1.090   6.196
 4938POPC   C2B62384  21.625   1.084   6.610
 4938POPC   C3B62385  21.461   1.079   7.023
 4938POPC   C4B62386  21.677   1.127   7.427
 4939POPC   NC362387   0.590  16.496   5.604
 4939POPC   PO462388   0.690  17.114   5.472
 4939POPC   GL162389   0.534  16.923   5.860
 4939POPC   GL262390   0.729  17.061   6.021
 4939POPC   C1A62391   0.392  16.751   6.264
 4939POPC   D2A62392   0.163  16.884   6.643
 4939POPC   C3A62393   0.149  16.506   6.879
 4939POPC   C4A62394   0.368  16.439   7.222
 4939POPC   C1B62395   0.886  16.918   6.402
 4939POPC   C2B62396   0.652  16.732   6.731
 4939POPC   C3B62397   0.807  16.689   7.112
 4939POPC   C4B62398   0.749  16.895   7.520
 4940POPC   NC362399  14.515  22.515   5.484
 4940POPC   PO462400  14.059  22.829   5.120
 4940POPC   GL162401  14.189  22.853   5.639
 4940POPC   GL262402  14.174  22.596   5.883
 4940POPC   C1A62403  14.168  23.060   6.109
 4940POPC   D2A62404  14.409  23.166   6.530
 4940POPC   C3A62405  14.209  23.336   6.892
 4940POPC   C4A62406  14.079  23.181   7.291
 4940POPC   C1B62407  14.499  22.688   6.145
 4940POPC   C2B62408  14.555  22.681   6.576
 4940POPC   C3B62409  14.358  22.778   6.953
 4940POPC   C4B62410  14.605  22.580   7.288
 4941POPC   NC362411  37.122   9.798   5.428
 4941POPC   PO462412  36.517   9.685   5.278
 4941POPC   GL162413  36.683   9.824   5.709
 4941POPC   GL262414  36.866   9.534   5.822
 4941POPC   C1A62415  36.709   9.874   6.190
 4941POPC   D2A62416  36.845   9.688   6.583
 4941POPC   C3A62417  36.861  10.001   6.862
 4941POPC   C4A62418  36.655  10.129   7.233
 4941POPC   C1B62419  37.015   9.369   6.224
 4941POPC   C2B62420  37.112   9.218   6.642
 4941POPC   C3B62421  37.147   9.428   7.023
 4941POPC   C4B62422  36.891   9.679   7.256
 4942POPC   NC362423  27.063  31.997   5.407
 4942POPC   PO462424  26.532  32.362   5.461
 4942POPC   GL162425  26.792  32.238   5.794
 4942POPC   GL262426  26.489  32.030   5.888
 4942POPC   C1A62427  26.901  32.484   6.182
 4942POPC   D2A62428  26.644  32.500   6.572
 4942POPC   C3A62429  26.861  32.490   6.971
 4942POPC   C4A62430  26.829  32.422   7.408
 4942POPC   C1B62431  26.701  32.047   6.284
 4942POPC   C2B62432  27.019  32.108   6.623
 4942POPC   C3B62433  26.882  31.979   7.048
 4942POPC   C4B62434  26.471  32.068   7.266
 4943POPC   NC362435   1.431   7.056   5.624
 4943POPC   PO462436   1.155   6.412   5.404
 4943POPC   GL162437   0.989   6.477   5.805
 4943POPC   GL262438   1.055   6.814   5.883
 4943POPC   C1A62439   1.166   6.456   6.232
 4943POPC   D2A62440   1.479   6.543   6.567
 4943POPC   C3A62441   1.446   6.305   6.953
 4943POPC   C4A62442   1.165   6.488   7.250
 4943POPC   C1B62443   0.897   6.902   6.293
 4943POPC   C2B62444   1.058   6.873   6.721
 4943POPC   C3B62445   0.870   6.888   7.143
 4943POPC   C4B62446   0.889   6.900   7.634
 4944POPC   NC362447   2.232   3.832   5.339
 4944POPC   PO462448   2.879   3.512   5.385
 4944POPC   GL162449   2.790   3.573   5.786
 4944POPC   GL262450   2.466   3.683   5.764
 4944POPC   C1A62451   2.840   3.379   6.177
 4944POPC   D2A62452   3.015   3.296   6.599
 4944POPC   C3A62453   2.875   3.586   6.921
 4944POPC   C4A62454   2.803   3.513   7.360
 4944POPC   C1B62455   2.571   3.862   6.153
 4944POPC   C2B62456   2.692   3.975   6.540
 4944POPC   C3B62457   2.515   3.947   6.921
 4944POPC   C4B62458   2.763   4.024   7.260
 4945POPC   NC362459  17.037  36.431   5.384
 4945POPC   PO462460  16.715  35.789   5.337
 4945POPC   GL162461  16.694  36.123   5.656
 4945POPC   GL262462  17.036  36.160   5.808
 4945POPC   C1A62463  16.650  36.375   6.051
 4945POPC   D2A62464  16.899  36.368   6.453
 4945POPC   C3A62465  16.643  36.388   6.799
 4945POPC   C4A62466  16.714  36.392   7.202
 4945POPC   C1B62467  16.922  35.957   6.151
 4945POPC   C2B62468  16.996  35.867   6.548
 4945POPC   C3B62469  16.912  35.973   6.937
 4945POPC   C4B62470  16.781  35.740   7.237
 4946POPC   NC362471  22.871   0.072   5.233
 4946POPC   PO462472  22.786   0.666   5.239
 4946POPC   GL162473  22.759   0.703   5.714
 4946POPC   GL262474  22.558   0.964   5.746
 4946POPC   C1A62475  22.838   0.686   6.217
 4946POPC   D2A62476  22.858   0.726   6.719
 4946POPC   C3A62477  23.025   0.417   7.054
 4946POPC   C4A62478  23.390   0.296   7.364
 4946POPC   C1B62479  22.345   0.732   6.084
 4946POPC   C2B62480  22.387   0.562   6.514
 4946POPC   C3B62481  22.385   0.726   6.941
 4946POPC   C4B62482  22.661   0.744   7.287
 4947POPC   NC362483  17.460  34.916   5.400
 4947POPC   PO462484  17.598  34.264   5.543
 4947POPC   GL162485  17.692  34.556   5.844
 4947POPC   GL262486  17.348  34.668   5.849
 4947POPC   C1A62487  17.829  34.414   6.250
 4947POPC   D2A62488  17.522  34.260   6.595
 4947POPC   C3A62489  17.481  34.392   7.050
 4947POPC   C4A62490  17.615  34.646   7.433
 4947POPC   C1B62491  17.284  34.845   6.270
 4947POPC   C2B62492  17.444  34.835   6.718
 4947POPC   C3B62493  17.269  34.877   7.136
 4947POPC   C4B62494  17.192  34.870   7.642
 4948POPC   NC362495  24.221   5.676   5.421
 4948POPC   PO462496  24.555   6.197   5.178
 4948POPC   GL162497  24.624   6.014   5.638
 4948POPC   GL262498  24.294   5.917   5.844
 4948POPC   C1A62499  24.632   6.134   6.110
 4948POPC   D2A62500  24.716   5.951   6.507
 4948POPC   C3A62501  24.554   6.143   6.876
 4948POPC   C4A62502  24.665   5.938   7.219
 4948POPC   C1B62503  24.437   5.649   6.188
 4948POPC   C2B62504  24.488   5.472   6.598
 4948POPC   C3B62505  24.146   5.383   6.832
 4948POPC   C4B62506  23.972   5.579   7.182
 4949POPC   NC362507  35.508  25.556   5.355
 4949POPC   PO462508  35.215  24.974   5.503
 4949POPC   GL162509  35.340  25.076   5.869
 4949POPC   GL262510  35.466  25.398   5.841
 4949POPC   C1A62511  35.236  25.173   6.279
 4949POPC   D2A62512  35.442  25.213   6.659
 4949POPC   C3A62513  35.157  25.165   6.994
 4949POPC   C4A62514  35.198  25.256   7.476
 4949POPC   C1B62515  35.707  25.379   6.221
 4949POPC   C2B62516  35.847  25.614   6.566
 4949POPC   C3B62517  35.736  25.729   6.948
 4949POPC   C4B62518  35.544  25.430   7.138
 4950POPC   NC362519  15.934  30.254   5.393
 4950POPC   PO462520  15.824  29.594   5.362
 4950POPC   GL162521  15.709  29.917   5.718
 4950POPC   GL262522  16.067  30.008   5.833
 4950POPC   C1A62523  15.707  30.003   6.197
 4950POPC   D2A62524  16.016  29.846   6.509
 4950POPC   C3A62525  15.917  29.680   6.911
 4950POPC   C4A62526  15.781  29.895   7.272
 4950POPC   C1B62527  16.167  30.254   6.214
 4950POPC   C2B62528  16.190  30.336   6.640
 4950POPC   C3B62529  16.222  30.123   7.021
 4950POPC   C4B62530  16.122  30.288   7.412
 4951POPC   NC362531  24.958   7.239   5.386
 4951POPC   PO462532  25.468   7.719   5.223
 4951POPC   GL162533  25.371   7.649   5.670
 4951POPC   GL262534  25.219   7.332   5.812
 4951POPC   C1A62535  25.260   7.750   6.109
 4951POPC   D2A62536  25.483   7.769   6.506
 4951POPC   C3A62537  25.245   7.685   6.879
 4951POPC   C4A62538  25.426   7.641   7.260
 4951POPC   C1B62539  24.861   7.173   6.102
 4951POPC   C2B62540  24.806   7.042   6.553
 4951POPC   C3B62541  25.076   7.170   6.909
 4951POPC   C4B62542  25.494   7.164   7.131
 4952POPC   NC362543   4.012  23.849   5.450
 4952POPC   PO462544   3.321  23.633   5.445
 4952POPC   GL162545   3.537  23.816   5.758
 4952POPC   GL262546   3.804  23.584   5.839
 4952POPC   C1A62547   3.391  23.833   6.172
 4952POPC   D2A62548   3.540  23.965   6.583
 4952POPC   C3A62549   3.372  23.859   6.999
 4952POPC   C4A62550   3.370  23.556   7.313
 4952POPC   C1B62551   3.892  23.868   6.162
 4952POPC   C2B62552   4.023  23.825   6.577
 4952POPC   C3B62553   3.905  24.047   6.944
 4952POPC   C4B62554   3.819  23.834   7.307
 4953POPC   NC362555  39.879  44.352   5.405
 4953POPC   PO462556  39.719  43.587   5.346
 4953POPC   GL162557  39.795  43.849   5.728
 4953POPC   GL262558  40.151  43.789   5.766
 4953POPC   C1A62559  39.940  43.995   6.177
 4953POPC   D2A62560  40.132  44.083   6.599
 4953POPC   C3A62561  39.901  43.899   6.959
 4953POPC   C4A62562  40.003  43.900   7.381
 4953POPC   C1B62563  40.252  43.556   6.167
 4953POPC   C2B62564  40.399  43.622   6.605
 4953POPC   C3B62565  40.320  43.621   7.056
 4953POPC   C4B62566  40.434  43.697   7.521
 4954POPC   NC362567  27.020  27.441   5.261
 4954POPC   PO462568  26.532  27.866   5.520
 4954POPC   GL162569  26.713  27.630   5.873
 4954POPC   GL262570  26.753  27.317   5.687
 4954POPC   C1A62571  26.939  27.601   6.309
 4954POPC   D2A62572  27.192  27.480   6.705
 4954POPC   C3A62573  27.053  27.704   7.083
 4954POPC   C4A62574  26.671  27.968   7.147
 4954POPC   C1B62575  26.665  27.188   6.101
 4954POPC   C2B62576  26.499  27.335   6.487
 4954POPC   C3B62577  26.661  27.534   6.812
 4954POPC   C4B62578  26.564  27.478   7.215
 4955POPC   NC362579  39.811  12.470   5.313
 4955POPC   PO462580  40.142  11.892   5.337
 4955POPC   GL162581  39.928  11.931   5.694
 4955POPC   GL262582  39.821  12.241   5.773
 4955POPC   C1A62583  39.950  11.832   6.114
 4955POPC   D2A62584  39.996  11.974   6.560
 4955POPC   C3A62585  40.136  11.751   6.911
 4955POPC   C4A62586  40.143  11.912   7.317
 4955POPC   C1B62587  39.846  12.315   6.205
 4955POPC   C2B62588  39.671  12.372   6.631
 4955POPC   C3B62589  39.878  12.419   7.034
 4955POPC   C4B62590  39.901  12.390   7.501
 4956POPC   NC362591  22.568  30.148   5.517
 4956POPC   PO462592  21.879  29.952   5.609
 4956POPC   GL162593  22.194  29.927   5.897
 4956POPC   GL262594  22.542  29.802   5.881
 4956POPC   C1A62595  22.066  30.111   6.268
 4956POPC   D2A62596  21.941  29.950   6.663
 4956POPC   C3A62597  22.153  30.045   7.033
 4956POPC   C4A62598  22.369  29.911   7.389
 4956POPC   C1B62599  22.584  30.084   6.218
 4956POPC   C2B62600  22.440  30.221   6.613
 4956POPC   C3B62601  22.643  30.190   6.996
 4956POPC   C4B62602  22.500  30.393   7.342
 4957POPC   NC362603  44.472  38.826   5.352
 4957POPC   PO462604  44.993  38.365   5.457
 4957POPC   GL162605  44.765  38.204   5.889
 4957POPC   GL262606   0.056  38.235   6.063
 4957POPC   C1A62607  44.560  38.367   6.285
 4957POPC   D2A62608  44.681  38.723   6.584
 4957POPC   C3A62609  44.558  38.652   7.008
 4957POPC   C4A62610  44.239  38.835   7.226
 4957POPC   C1B62611   0.117  38.634   6.288
 4957POPC   C2B62612   0.259  38.652   6.708
 4957POPC   C3B62613   0.048  38.622   7.113
 4957POPC   C4B62614  44.780  38.626   7.510
 4958POPC   NC362615  41.489   2.012   5.355
 4958POPC   PO462616  41.959   1.681   5.653
 4958POPC   GL162617  41.564   1.889   5.870
 4958POPC   GL262618  41.207   1.710   5.898
 4958POPC   C1A62619  41.607   2.256   6.173
 4958POPC   D2A62620  41.805   2.512   6.530
 4958POPC   C3A62621  41.776   2.385   6.976
 4958POPC   C4A62622  41.435   2.310   7.232
 4958POPC   C1B62623  41.162   2.021   6.286
 4958POPC   C2B62624  41.412   2.127   6.663
 4958POPC   C3B62625  41.551   1.866   6.970
 4958POPC   C4B62626  41.246   1.721   7.259
 4959POPC   NC362627  10.317   3.120   5.719
 4959POPC   PO462628  10.368   2.528   5.440
 4959POPC   GL162629  10.642   2.735   5.860
 4959POPC   GL262630  10.628   3.110   6.095
 4959POPC   C1A62631  10.863   2.740   6.296
 4959POPC   D2A62632  11.043   3.092   6.546
 4959POPC   C3A62633  10.766   3.197   6.909
 4959POPC   C4A62634  10.567   2.866   7.149
 4959POPC   C1B62635  10.320   2.813   6.329
 4959POPC   C2B62636  10.178   2.686   6.766
 4959POPC   C3B62637  10.086   2.701   7.223
 4959POPC   C4B62638  10.043   2.758   7.674
 4960POPC   NC362639  11.786  27.699   5.055
 4960POPC   PO462640  12.073  27.670   5.689
 4960POPC   GL162641  11.764  27.835   5.931
 4960POPC   GL262642  11.664  27.575   6.004
 4960POPC   C1A62643  11.793  28.036   6.285
 4960POPC   D2A62644  12.010  27.799   6.540
 4960POPC   C3A62645  11.899  27.765   6.956
 4960POPC   C4A62646  12.070  27.662   7.353
 4960POPC   C1B62647  11.931  27.354   6.288
 4960POPC   C2B62648  12.002  27.323   6.724
 4960POPC   C3B62649  12.193  27.248   7.086
 4960POPC   C4B62650  11.929  27.126   7.433
 4961POPC   NC362651  39.554  30.805   5.405
 4961POPC   PO462652  38.824  30.609   5.391
 4961POPC   GL162653  39.103  30.808   5.764
 4961POPC   GL262654  39.469  30.794   5.897
 4961POPC   C1A62655  39.076  30.747   6.249
 4961POPC   D2A62656  38.978  30.971   6.632
 4961POPC   C3A62657  39.060  30.725   7.010
 4961POPC   C4A62658  39.122  30.785   7.475
 4961POPC   C1B62659  39.555  30.827   6.343
 4961POPC   C2B62660  39.470  30.838   6.740
 4961POPC   C3B62661  39.549  30.850   7.186
 4961POPC   C4B62662  39.604  30.933   7.626
 4962POPC   NC362663  37.486  37.056   5.512
 4962POPC   PO462664  38.010  36.711   5.726
 4962POPC   GL162665  37.766  36.978   5.940
 4962POPC   GL262666  37.434  36.791   5.950
 4962POPC   C1A62667  37.689  36.921   6.363
 4962POPC   D2A62668  37.674  36.635   6.667
 4962POPC   C3A62669  37.503  36.802   7.027
 4962POPC   C4A62670  37.689  36.950   7.424
 4962POPC   C1B62671  37.340  37.219   6.169
 4962POPC   C2B62672  37.431  37.346   6.620
 4962POPC   C3B62673  37.349  37.286   7.070
 4962POPC   C4B62674  37.195  36.943   7.406
 4963POPC   NC362675  11.015   5.145   5.478
 4963POPC   PO462676  10.466   4.853   5.380
 4963POPC   GL162677  10.492   5.059   5.809
 4963POPC   GL262678  10.768   5.295   5.883
 4963POPC   C1A62679  10.360   4.863   6.204
 4963POPC   D2A62680  10.481   4.548   6.525
 4963POPC   C3A62681  10.544   4.697   6.963
 4963POPC   C4A62682  10.313   5.047   7.140
 4963POPC   C1B62683  10.843   5.034   6.223
 4963POPC   C2B62684  10.622   5.075   6.611
 4963POPC   C3B62685  10.671   5.357   6.960
 4963POPC   C4B62686  10.808   5.079   7.291
 4964POPC   NC362687   0.681  44.623   5.460
 4964POPC   PO462688   0.130  44.231   5.462
 4964POPC   GL162689   0.278  44.551   5.742
 4964POPC   GL262690   0.570  44.403   5.894
 4964POPC   C1A62691   0.361  44.820   6.105
 4964POPC   D2A62692   0.153  44.762   6.493
 4964POPC   C3A62693   0.290  44.935   6.867
 4964POPC   C4A62694   0.131  44.859   7.245
 4964POPC   C1B62695   0.271  44.307   6.200
 4964POPC   C2B62696   0.454  44.264   6.577
 4964POPC   C3B62697   0.400  44.129   6.966
 4964POPC   C4B62698   0.484  44.519   7.138
 4965POPC   NC362699  37.089  10.700   5.655
 4965POPC   PO462700  37.744  10.702   5.274
 4965POPC   GL162701  37.549  10.482   5.676
 4965POPC   GL262702  37.470  10.124   5.779
 4965POPC   C1A62703  37.536  10.522   6.152
 4965POPC   D2A62704  37.776  10.570   6.558
 4965POPC   C3A62705  37.562  10.694   6.935
 4965POPC   C4A62706  37.311  10.761   7.297
 4965POPC   C1B62707  37.757  10.066   6.129
 4965POPC   C2B62708  37.766   9.986   6.537
 4965POPC   C3B62709  37.751  10.203   6.913
 4965POPC   C4B62710  37.602  10.310   7.280
 4966POPC   NC362711   4.688  10.606   5.461
 4966POPC   PO462712   4.122  10.648   5.197
 4966POPC   GL162713   4.250  10.567   5.718
 4966POPC   GL262714   4.514  10.767   5.915
 4966POPC   C1A62715   4.224  10.374   6.155
 4966POPC   D2A62716   4.363  10.668   6.482
 4966POPC   C3A62717   4.305  10.554   6.899
 4966POPC   C4A62718   4.044  10.354   7.205
 4966POPC   C1B62719   4.723  10.447   6.153
 4966POPC   C2B62720   4.662  10.211   6.476
 4966POPC   C3B62721   4.852  10.190   6.848
 4966POPC   C4B62722   4.684  10.324   7.183
 4967POPC   NC362723   0.970  18.298   5.533
 4967POPC   PO462724   1.344  17.797   5.333
 4967POPC   GL162725   1.377  18.024   5.710
 4967POPC   GL262726   1.559  18.295   5.838
 4967POPC   C1A62727   1.228  18.023   6.139
 4967POPC   D2A62728   1.056  18.262   6.474
 4967POPC   C3A62729   1.055  18.128   6.902
 4967POPC   C4A62730   0.926  18.349   7.288
 4967POPC   C1B62731   1.415  18.521   6.188
 4967POPC   C2B62732   1.510  18.481   6.607
 4967POPC   C3B62733   1.529  18.312   7.017
 4967POPC   C4B62734   1.339  18.034   7.302
 4968POPC   NC362735  18.847  16.629   5.464
 4968POPC   PO462736  19.318  17.103   5.325
 4968POPC   GL162737  19.240  16.893   5.723
 4968POPC   GL262738  19.534  16.922   5.923
 4968POPC   C1A62739  19.244  16.519   6.036
 4968POPC   D2A62740  19.334  16.478   6.493
 4968POPC   C3A62741  19.248  16.821   6.790
 4968POPC   C4A62742  19.101  16.703   7.190
 4968POPC   C1B62743  19.149  16.982   6.245
 4968POPC   C2B62744  18.787  16.860   6.548
 4968POPC   C3B62745  18.739  17.007   6.975
 4968POPC   C4B62746  19.102  17.219   7.157
 4969POPC   NC362747  13.852  13.340   5.381
 4969POPC   PO462748  13.427  13.907   5.401
 4969POPC   GL162749  13.691  13.705   5.730
 4969POPC   GL262750  13.945  13.915   5.834
 4969POPC   C1A62751  13.640  13.721   6.202
 4969POPC   D2A62752  13.590  13.960   6.608
 4969POPC   C3A62753  13.540  13.689   7.022
 4969POPC   C4A62754  13.415  13.231   7.186
 4969POPC   C1B62755  14.136  13.748   6.196
 4969POPC   C2B62756  14.015  13.651   6.579
 4969POPC   C3B62757  14.022  13.565   6.982
 4969POPC   C4B62758  13.973  13.772   7.337
 4970POPC   NC362759  24.703  23.158   5.438
 4970POPC   PO462760  24.227  22.737   5.392
 4970POPC   GL162761  24.466  22.857   5.802
 4970POPC   GL262762  24.865  22.837   5.818
 4970POPC   C1A62763  24.386  22.726   6.257
 4970POPC   D2A62764  24.196  22.644   6.666
 4970POPC   C3A62765  24.403  22.669   7.038
 4970POPC   C4A62766  24.297  23.042   7.202
 4970POPC   C1B62767  24.807  23.013   6.258
 4970POPC   C2B62768  24.737  22.863   6.678
 4970POPC   C3B62769  24.796  23.049   7.098
 4970POPC   C4B62770  24.694  23.042   7.571
 4971POPC   NC362771  29.707  29.240   5.465
 4971POPC   PO462772  30.282  29.331   5.764
 4971POPC   GL162773  30.049  28.954   5.904
 4971POPC   GL262774  29.672  28.924   5.880
 4971POPC   C1A62775  30.185  28.895   6.303
 4971POPC   D2A62776  30.161  29.273   6.519
 4971POPC   C3A62777  30.124  29.100   6.907
 4971POPC   C4A62778  30.151  29.277   7.258
 4971POPC   C1B62779  29.707  29.123   6.269
 4971POPC   C2B62780  29.688  29.230   6.681
 4971POPC   C3B62781  29.685  29.329   7.084
 4971POPC   C4B62782  29.494  29.660   7.141
 4972POPC   NC362783  27.707  22.267   5.542
 4972POPC   PO462784  27.155  21.963   5.312
 4972POPC   GL162785  27.380  21.874   5.695
 4972POPC   GL262786  27.281  22.206   5.848
 4972POPC   C1A62787  27.552  21.922   6.144
 4972POPC   D2A62788  27.388  22.112   6.534
 4972POPC   C3A62789  27.629  21.951   6.904
 4972POPC   C4A62790  28.008  22.120   7.106
 4972POPC   C1B62791  27.553  22.463   6.157
 4972POPC   C2B62792  27.529  22.646   6.573
 4972POPC   C3B62793  27.548  22.527   6.997
 4972POPC   C4B62794  27.329  22.206   7.233
 4973POPC   NC362795  31.049  31.097   5.396
 4973POPC   PO462796  31.417  30.435   5.447
 4973POPC   GL162797  31.307  30.648   5.838
 4973POPC   GL262798  31.546  30.905   5.823
 4973POPC   C1A62799  31.347  30.765   6.281
 4973POPC   D2A62800  31.648  30.623   6.596
 4973POPC   C3A62801  31.551  30.700   7.026
 4973POPC   C4A62802  31.215  30.785   7.302
 4973POPC   C1B62803  31.846  30.928   6.184
 4973POPC   C2B62804  31.835  31.101   6.610
 4973POPC   C3B62805  31.986  30.978   7.008
 4973POPC   C4B62806  31.942  30.765   7.407
 4974POPC   NC362807  19.499  26.253   5.423
 4974POPC   PO462808  20.067  25.986   5.141
 4974POPC   GL162809  19.936  26.063   5.607
 4974POPC   GL262810  19.653  25.865   5.770
 4974POPC   C1A62811  19.841  26.254   6.057
 4974POPC   D2A62812  19.910  26.171   6.510
 4974POPC   C3A62813  19.728  26.209   6.934
 4974POPC   C4A62814  19.451  25.949   7.086
 4974POPC   C1B62815  19.752  25.727   6.213
 4974POPC   C2B62816  19.792  25.556   6.688
 4974POPC   C3B62817  20.052  25.487   7.104
 4974POPC   C4B62818  20.311  25.627   7.477
 4975POPC   NC362819  39.258  19.284   5.467
 4975POPC   PO462820  38.907  18.650   5.424
 4975POPC   GL162821  39.110  18.886   5.758
 4975POPC   GL262822  39.387  18.719   5.889
 4975POPC   C1A62823  39.224  19.177   6.119
 4975POPC   D2A62824  39.107  19.116   6.548
 4975POPC   C3A62825  38.900  19.255   6.906
 4975POPC   C4A62826  38.987  19.190   7.338
 4975POPC   C1B62827  39.221  18.655   6.284
 4975POPC   C2B62828  39.392  18.736   6.684
 4975POPC   C3B62829  39.356  18.940   7.084
 4975POPC   C4B62830  39.198  18.746   7.473
 4976POPC   NC362831  28.360  32.534   5.527
 4976POPC   PO462832  28.336  31.828   5.477
 4976POPC   GL162833  28.144  32.075   5.797
 4976POPC   GL262834  27.843  31.887   5.781
 4976POPC   C1A62835  28.327  32.119   6.248
 4976POPC   D2A62836  28.545  32.157   6.679
 4976POPC   C3A62837  28.388  32.466   6.998
 4976POPC   C4A62838  28.164  32.561   7.408
 4976POPC   C1B62839  27.837  31.982   6.209
 4976POPC   C2B62840  28.018  31.842   6.594
 4976POPC   C3B62841  28.124  32.019   6.977
 4976POPC   C4B62842  28.493  32.004   7.245
 4977POPC   NC362843  38.729  16.434   5.500
 4977POPC   PO462844  38.354  16.985   5.466
 4977POPC   GL162845  38.396  16.687   5.819
 4977POPC   GL262846  38.261  16.332   5.773
 4977POPC   C1A62847  38.490  16.695   6.254
 4977POPC   D2A62848  38.499  16.818   6.658
 4977POPC   C3A62849  38.698  16.526   6.901
 4977POPC   C4A62850  38.563  16.752   7.237
 4977POPC   C1B62851  38.101  16.371   6.206
 4977POPC   C2B62852  38.289  16.346   6.614
 4977POPC   C3B62853  38.184  16.474   7.014
 4977POPC   C4B62854  37.857  16.444   7.268
 4978POPC   NC362855  21.470  30.168   5.582
 4978POPC   PO462856  20.906  29.757   5.540
 4978POPC   GL162857  21.166  29.829   5.921
 4978POPC   GL262858  21.511  29.664   5.867
 4978POPC   C1A62859  21.081  30.058   6.343
 4978POPC   D2A62860  20.964  30.192   6.788
 4978POPC   C3A62861  21.125  29.979   7.172
 4978POPC   C4A62862  21.378  30.165   7.537
 4978POPC   C1B62863  21.574  29.873   6.285
 4978POPC   C2B62864  21.448  30.075   6.696
 4978POPC   C3B62865  21.622  30.058   7.074
 4978POPC   C4B62866  21.819  29.660   7.131
 4979POPC   NC362867  31.694  10.234   5.379
 4979POPC   PO462868  31.147  10.639   5.389
 4979POPC   GL162869  31.288  10.472   5.804
 4979POPC   GL262870  31.625  10.343   5.878
 4979POPC   C1A62871  31.318  10.516   6.255
 4979POPC   D2A62872  31.672  10.500   6.546
 4979POPC   C3A62873  31.488  10.447   6.954
 4979POPC   C4A62874  31.416  10.803   7.196
 4979POPC   C1B62875  31.946  10.176   6.173
 4979POPC   C2B62876  32.182  10.309   6.568
 4979POPC   C3B62877  32.022  10.386   6.987
 4979POPC   C4B62878  31.762  10.149   7.285
 4980POPC   NC362879  32.407   4.550   5.446
 4980POPC   PO462880  32.260   3.923   5.117
 4980POPC   GL162881  32.171   4.087   5.592
 4980POPC   GL262882  31.877   4.291   5.649
 4980POPC   C1A62883  32.238   4.345   6.044
 4980POPC   D2A62884  32.233   4.489   6.507
 4980POPC   C3A62885  32.518   4.282   6.826
 4980POPC   C4A62886  32.689   3.989   7.112
 4980POPC   C1B62887  31.910   3.974   6.021
 4980POPC   C2B62888  31.885   4.083   6.477
 4980POPC   C3B62889  31.986   4.219   6.899
 4980POPC   C4B62890  32.176   4.582   7.105
 4981POPC   NC362891  30.724   4.096   5.337
 4981POPC   PO462892  31.022   4.674   5.503
 4981POPC   GL162893  30.836   4.358   5.796
 4981POPC   GL262894  30.975   4.004   5.786
 4981POPC   C1A62895  30.641   4.410   6.219
 4981POPC   D2A62896  30.423   4.594   6.554
 4981POPC   C3A62897  30.576   4.413   6.932
 4981POPC   C4A62898  30.721   4.392   7.347
 4981POPC   C1B62899  30.757   3.936   6.154
 4981POPC   C2B62900  30.836   4.075   6.598
 4981POPC   C3B62901  30.951   3.946   7.027
 4981POPC   C4B62902  30.914   3.948   7.475
 4982POPC   NC362903   6.015  22.679   5.513
 4982POPC   PO462904   5.799  23.331   5.538
 4982POPC   GL162905   5.605  23.256   5.907
 4982POPC   GL262906   5.688  22.921   5.843
 4982POPC   C1A62907   5.746  23.296   6.299
 4982POPC   D2A62908   6.071  23.301   6.546
 4982POPC   C3A62909   5.845  23.305   6.864
 4982POPC   C4A62910   6.026  23.222   7.218
 4982POPC   C1B62911   5.911  22.812   6.179
 4982POPC   C2B62912   5.811  22.832   6.566
 4982POPC   C3B62913   5.900  22.803   6.945
 4982POPC   C4B62914   5.882  22.717   7.348
 4983POPC   NC362915   4.372   8.237   5.136
 4983POPC   PO462916   3.923   7.931   5.506
 4983POPC   GL162917   4.227   8.019   5.774
 4983POPC   GL262918   4.287   8.352   5.702
 4983POPC   C1A62919   4.182   8.097   6.208
 4983POPC   D2A62920   4.466   8.248   6.505
 4983POPC   C3A62921   4.346   8.070   6.904
 4983POPC   C4A62922   4.535   7.954   7.275
 4983POPC   C1B62923   4.299   8.574   6.103
 4983POPC   C2B62924   4.190   8.671   6.531
 4983POPC   C3B62925   4.397   8.569   6.909
 4983POPC   C4B62926   4.211   8.442   7.264
 4984POPC   NC362927  34.838  41.224   5.371
 4984POPC   PO462928  34.596  41.839   5.428
 4984POPC   GL162929  34.623  41.715   5.852
 4984POPC   GL262930  34.677  41.354   5.836
 4984POPC   C1A62931  34.820  41.746   6.273
 4984POPC   D2A62932  34.991  41.586   6.681
 4984POPC   C3A62933  34.911  41.833   7.068
 4984POPC   C4A62934  34.670  41.807   7.481
 4984POPC   C1B62935  34.775  41.208   6.246
 4984POPC   C2B62936  34.570  41.263   6.630
 4984POPC   C3B62937  34.605  41.436   7.031
 4984POPC   C4B62938  34.889  41.365   7.351
 4985POPC   NC362939  38.288  33.086   5.392
 4985POPC   PO462940  38.801  32.677   5.495
 4985POPC   GL162941  38.504  32.891   5.789
 4985POPC   GL262942  38.603  33.156   5.937
 4985POPC   C1A62943  38.277  32.860   6.230
 4985POPC   D2A62944  38.558  33.080   6.560
 4985POPC   C3A62945  38.401  33.291   6.925
 4985POPC   C4A62946  38.130  33.013   7.155
 4985POPC   C1B62947  38.760  32.766   6.197
 4985POPC   C2B62948  38.753  32.566   6.599
 4985POPC   C3B62949  38.818  32.804   6.949
 4985POPC   C4B62950  38.622  33.012   7.278
 4986POPC   NC362951   6.710  43.191   5.387
 4986POPC   PO462952   6.581  42.597   5.187
 4986POPC   GL162953   6.375  42.809   5.619
 4986POPC   GL262954   6.584  43.069   5.848
 4986POPC   C1A62955   6.265  42.810   6.094
 4986POPC   D2A62956   6.255  42.927   6.554
 4986POPC   C3A62957   6.514  42.911   6.939
 4986POPC   C4A62958   6.373  42.762   7.354
 4986POPC   C1B62959   6.452  43.376   6.197
 4986POPC   C2B62960   6.236  43.597   6.574
 4986POPC   C3B62961   6.180  43.531   7.001
 4986POPC   C4B62962   6.426  43.291   7.291
 4987POPC   NC362963  27.980   5.571   5.082
 4987POPC   PO462964  27.444   5.189   5.131
 4987POPC   GL162965  27.416   5.173   5.615
 4987POPC   GL262966  27.718   5.051   5.767
 4987POPC   C1A62967  27.362   5.234   6.097
 4987POPC   D2A62968  27.490   5.132   6.542
 4987POPC   C3A62969  27.440   5.411   6.913
 4987POPC   C4A62970  27.470   5.314   7.360
 4987POPC   C1B62971  27.873   5.126   6.202
 4987POPC   C2B62972  27.977   5.186   6.644
 4987POPC   C3B62973  27.739   4.942   6.970
 4987POPC   C4B62974  27.889   4.590   7.214
 4988POPC   NC362975   3.637  22.274   5.478
 4988POPC   PO462976   2.981  22.095   5.533
 4988POPC   GL162977   3.320  22.059   5.825
 4988POPC   GL262978   3.346  22.425   5.875
 4988POPC   C1A62979   3.431  22.049   6.271
 4988POPC   D2A62980   3.279  21.828   6.646
 4988POPC   C3A62981   3.426  21.886   7.041
 4988POPC   C4A62982   3.434  22.296   7.120
 4988POPC   C1B62983   3.645  22.531   6.201
 4988POPC   C2B62984   3.759  22.388   6.620
 4988POPC   C3B62985   3.849  22.580   7.019
 4988POPC   C4B62986   3.800  22.405   7.441
 4989POPC   NC362987  38.850  32.264   5.302
 4989POPC   PO462988  39.534  32.206   5.408
 4989POPC   GL162989  39.274  32.388   5.740
 4989POPC   GL262990  39.403  32.132   5.945
 4989POPC   C1A62991  39.168  32.478   6.206
 4989POPC   D2A62992  39.310  32.247   6.532
 4989POPC   C3A62993  39.088  32.339   6.913
 4989POPC   C4A62994  39.099  32.583   7.293
 4989POPC   C1B62995  39.671  32.480   6.128
 4989POPC   C2B62996  39.653  32.623   6.575
 4989POPC   C3B62997  39.600  32.450   6.973
 4989POPC   C4B62998  39.861  32.479   7.312
 4990POPC   NC362999  24.217  17.228   5.546
 4990POPC   PO463000  24.740  17.723   5.458
 4990POPC   GL163001  24.622  17.623   5.883
 4990POPC   GL263002  24.286  17.634   5.904
 4990POPC   C1A63003  24.500  17.404   6.316
 4990POPC   D2A63004  24.499  17.229   6.744
 4990POPC   C3A63005  24.487  17.522   7.092
 4990POPC   C4A63006  24.390  17.489   7.580
 4990POPC   C1B63007  23.998  17.478   6.237
 4990POPC   C2B63008  24.001  17.429   6.693
 4990POPC   C3B63009  23.954  17.217   7.073
 4990POPC   C4B63010  23.961  17.251   7.533
 4991POPC   NC363011  40.287  11.437   5.322
 4991POPC   PO463012  39.895  10.935   5.416
 4991POPC   GL163013  40.093  11.154   5.752
 4991POPC   GL263014  39.834  11.423   5.795
 4991POPC   C1A63015  40.243  11.038   6.178
 4991POPC   D2A63016  40.114  10.919   6.616
 4991POPC   C3A63017  40.183  11.238   6.922
 4991POPC   C4A63018  40.177  11.402   7.341
 4991POPC   C1B63019  39.645  11.442   6.224
 4991POPC   C2B63020  39.791  11.475   6.649
 4991POPC   C3B63021  39.722  11.493   7.112
 4991POPC   C4B63022  39.762  11.639   7.577
 4992POPC   NC363023  21.734   4.768   5.482
 4992POPC   PO463024  21.259   5.153   5.291
 4992POPC   GL163025  21.299   4.931   5.706
 4992POPC   GL263026  21.360   5.254   5.875
 4992POPC   C1A63027  21.462   4.830   6.159
 4992POPC   D2A63028  21.520   5.081   6.552
 4992POPC   C3A63029  21.605   4.890   6.961
 4992POPC   C4A63030  21.601   5.069   7.367
 4992POPC   C1B63031  21.485   5.510   6.236
 4992POPC   C2B63032  21.289   5.571   6.626
 4992POPC   C3B63033  21.286   5.321   7.001
 4992POPC   C4B63034  21.185   5.352   7.431
 4993POPC   NC363035  44.037   6.183   4.960
 4993POPC   PO463036  43.767   5.592   5.311
 4993POPC   GL163037  43.850   5.786   5.710
 4993POPC   GL263038  44.085   5.582   5.890
 4993POPC   C1A63039  43.736   5.967   6.127
 4993POPC   D2A63040  43.841   6.101   6.552
 4993POPC   C3A63041  43.684   5.991   6.938
 4993POPC   C4A63042  43.894   6.078   7.299
 4993POPC   C1B63043  44.232   5.812   6.273
 4993POPC   C2B63044  44.277   5.883   6.724
 4993POPC   C3B63045  44.111   5.658   7.065
 4993POPC   C4B63046  44.139   5.713   7.522
 4994POPC   NC363047  44.819   9.899   5.364
 4994POPC   PO463048  44.368   9.363   5.380
 4994POPC   GL163049  44.637   9.545   5.767
 4994POPC   GL263050  44.800   9.908   5.866
 4994POPC   C1A63051  44.684   9.501   6.208
 4994POPC   D2A63052  44.739   9.676   6.621
 4994POPC   C3A63053  44.547   9.509   6.996
 4994POPC   C4A63054  44.662   9.678   7.402
 4994POPC   C1B63055  44.524   9.977   6.201
 4994POPC   C2B63056  44.331   9.961   6.582
 4994POPC   C3B63057  44.541  10.019   6.971
 4994POPC   C4B63058  44.450  10.258   7.305
 4995POPC   NC363059  15.868   0.352   5.408
 4995POPC   PO463060  15.594   1.009   5.397
 4995POPC   GL163061  15.819   0.720   5.744
 4995POPC   GL263062  15.654   0.382   5.866
 4995POPC   C1A63063  16.041   0.534   6.144
 4995POPC   D2A63064  16.021   0.179   6.455
 4995POPC   C3A63065  15.955   0.230   6.900
 4995POPC   C4A63066  16.142   0.460   7.229
 4995POPC   C1B63067  15.429   0.473   6.256
 4995POPC   C2B63068  15.512   0.423   6.698
 4995POPC   C3B63069  15.481   0.297   7.140
 4995POPC   C4B63070  15.425   0.214   7.629
 4996POPC   NC363071  11.098  26.627   5.452
 4996POPC   PO463072  11.776  26.559   5.391
 4996POPC   GL163073  11.535  26.645   5.770
 4996POPC   GL263074  11.420  27.004   5.763
 4996POPC   C1A63075  11.382  26.709   6.216
 4996POPC   D2A63076  11.147  26.728   6.587
 4996POPC   C3A63077  11.286  26.697   7.000
 4996POPC   C4A63078  11.053  26.655   7.388
 4996POPC   C1B63079  11.447  27.190   6.185
 4996POPC   C2B63080  11.582  27.055   6.594
 4996POPC   C3B63081  11.613  27.094   7.045
 4996POPC   C4B63082  11.526  26.820   7.443
 4997POPC   NC363083  24.313  17.971   5.415
 4997POPC   PO463084  24.910  18.262   5.428
 4997POPC   GL163085  24.606  18.418   5.725
 4997POPC   GL263086  24.457  18.134   5.879
 4997POPC   C1A63087  24.577  18.532   6.183
 4997POPC   D2A63088  24.355  18.333   6.523
 4997POPC   C3A63089  24.452  18.498   6.897
 4997POPC   C4A63090  24.387  18.481   7.300
 4997POPC   C1B63091  24.549  17.924   6.276
 4997POPC   C2B63092  24.318  17.820   6.660
 4997POPC   C3B63093  24.368  18.024   7.047
 4997POPC   C4B63094  24.766  18.107   7.273
 4998POPC   NC363095  11.619  31.293   5.188
 4998POPC   PO463096  11.076  31.638   5.022
 4998POPC   GL163097  11.095  31.437   5.586
 4998POPC   GL263098  11.451  31.379   5.691
 4998POPC   C1A63099  11.093  31.419   6.060
 4998POPC   D2A63100  10.922  31.557   6.461
 4998POPC   C3A63101  11.133  31.730   6.819
 4998POPC   C4A63102  11.235  31.722   7.228
 4998POPC   C1B63103  11.579  31.280   6.133
 4998POPC   C2B63104  11.474  31.437   6.537
 4998POPC   C3B63105  11.511  31.382   6.970
 4998POPC   C4B63106  11.738  31.145   7.251
 4999POPC   NC363107   0.179  18.778   5.573
 4999POPC   PO463108   0.575  19.305   5.455
 4999POPC   GL163109   0.298  19.204   5.811
 4999POPC   GL263110   0.447  18.921   5.975
 4999POPC   C1A63111   0.162  19.247   6.236
 4999POPC   D2A63112  44.990  19.170   6.625
 4999POPC   C3A63113   0.304  19.231   6.874
 4999POPC   C4A63114   0.244  19.055   7.249
 4999POPC   C1B63115   0.208  18.746   6.314
 4999POPC   C2B63116   0.312  18.734   6.748
 4999POPC   C3B63117   0.585  18.696   7.087
 4999POPC   C4B63118   0.597  18.653   7.515
 5000POPC   NC363119  19.345  22.847   5.358
 5000POPC   PO463120  18.739  23.056   5.391
 5000POPC   GL163121  18.971  22.883   5.784
 5000POPC   GL263122  19.341  22.786   5.859
 5000POPC   C1A63123  18.972  22.745   6.229
 5000POPC   D2A63124  18.651  22.687   6.571
 5000POPC   C3A63125  18.866  22.885   6.936
 5000POPC   C4A63126  19.025  22.955   7.380
 5000POPC   C1B63127  19.457  23.101   6.183
 5000POPC   C2B63128  19.470  23.289   6.623
 5000POPC   C3B63129  19.327  23.163   7.023
 5000POPC   C4B63130  19.380  22.702   7.127
 5001POPC   NC363131  13.738  29.727   5.212
 5001POPC   PO463132  13.261  30.159   5.339
 5001POPC   GL163133  13.652  30.131   5.630
 5001POPC   GL263134  13.771  29.786   5.762
 5001POPC   C1A63135  13.752  30.194   6.090
 5001POPC   D2A63136  13.606  30.079   6.518
 5001POPC   C3A63137  13.865  30.125   6.902
 5001POPC   C4A63138  13.718  30.199   7.330
 5001POPC   C1B63139  13.788  29.644   6.247
 5001POPC   C2B63140  13.713  29.639   6.755
 5001POPC   C3B63141  13.539  29.737   7.183
 5001POPC   C4B63142  13.546  29.571   7.647
 5002POPC   NC363143  29.992   5.525   5.075
 5002POPC   PO463144  29.960   6.151   5.300
 5002POPC   GL163145  29.939   6.093   5.812
 5002POPC   GL263146  29.924   5.777   6.016
 5002POPC   C1A63147  29.651   6.132   6.210
 5002POPC   D2A63148  29.782   5.898   6.593
 5002POPC   C3A63149  30.089   6.127   6.818
 5002POPC   C4A63150  30.198   6.136   7.243
 5002POPC   C1B63151  30.138   5.552   6.354
 5002POPC   C2B63152  30.183   5.587   6.792
 5002POPC   C3B63153  29.938   5.729   7.091
 5002POPC   C4B63154  29.537   5.872   7.079
 5003POPC   NC363155  12.074  42.141   5.282
 5003POPC   PO463156  12.303  42.691   5.662
 5003POPC   GL163157  12.264  42.357   5.877
 5003POPC   GL263158  12.293  42.006   5.751
 5003POPC   C1A63159  12.312  42.484   6.287
 5003POPC   D2A63160  12.192  42.687   6.650
 5003POPC   C3A63161  12.299  42.436   6.969
 5003POPC   C4A63162  12.234  42.365   7.378
 5003POPC   C1B63163  12.067  42.010   6.163
 5003POPC   C2B63164  12.166  42.106   6.573
 5003POPC   C3B63165  12.203  41.899   6.922
 5003POPC   C4B63166  11.898  41.999   7.195
 5004POPC   NC363167  18.432  10.540   5.323
 5004POPC   PO463168  17.735  10.681   5.447
 5004POPC   GL163169  18.082  10.543   5.791
 5004POPC   GL263170  18.475  10.574   5.825
 5004POPC   C1A63171  18.247  10.305   6.194
 5004POPC   D2A63172  18.477  10.307   6.616
 5004POPC   C3A63173  18.223  10.576   6.902
 5004POPC   C4A63174  18.173  10.767   7.300
 5004POPC   C1B63175  18.675  10.661   6.239
 5004POPC   C2B63176  18.628  10.835   6.662
 5004POPC   C3B63177  18.704  10.708   7.091
 5004POPC   C4B63178  18.616  10.637   7.521
 5005POPC   NC363179  18.103  40.827   5.356
 5005POPC   PO463180  18.747  41.073   5.570
 5005POPC   GL163181  18.380  40.978   5.777
 5005POPC   GL263182  18.365  40.636   5.777
 5005POPC   C1A63183  18.171  40.940   6.180
 5005POPC   D2A63184  18.218  41.156   6.571
 5005POPC   C3A63185  18.174  40.964   6.949
 5005POPC   C4A63186  18.576  40.801   7.084
 5005POPC   C1B63187  18.503  40.533   6.210
 5005POPC   C2B63188  18.378  40.649   6.602
 5005POPC   C3B63189  18.232  40.444   6.976
 5005POPC   C4B63190  17.890  40.280   7.211
 5006POPC   NC363191  42.354  41.202   5.354
 5006POPC   PO463192  42.479  40.585   5.513
 5006POPC   GL163193  42.099  40.686   5.823
 5006POPC   GL263194  41.931  41.010   5.731
 5006POPC   C1A63195  42.137  40.670   6.302
 5006POPC   D2A63196  42.540  40.674   6.604
 5006POPC   C3A63197  42.579  40.541   7.064
 5006POPC   C4A63198  42.582  40.603   7.533
 5006POPC   C1B63199  42.079  41.178   6.146
 5006POPC   C2B63200  42.279  41.136   6.554
 5006POPC   C3B63201  42.077  41.126   6.954
 5006POPC   C4B63202  42.237  40.870   7.279
 5007POPC   NC363203  38.344  40.999   5.673
 5007POPC   PO463204  38.469  40.444   5.442
 5007POPC   GL163205  38.715  40.654   5.840
 5007POPC   GL263206  38.816  40.999   5.962
 5007POPC   C1A63207  38.627  40.717   6.331
 5007POPC   D2A63208  38.329  40.585   6.626
 5007POPC   C3A63209  38.505  40.453   6.974
 5007POPC   C4A63210  38.434  40.683   7.340
 5007POPC   C1B63211  38.501  41.201   6.240
 5007POPC   C2B63212  38.352  41.117   6.593
 5007POPC   C3B63213  38.577  40.956   6.895
 5007POPC   C4B63214  38.546  41.163   7.231
 5008POPC   NC363215  19.795  44.764   5.313
 5008POPC   PO463216  19.400   0.240   5.607
 5008POPC   GL163217  19.702  44.906   5.830
 5008POPC   GL263218  19.987  44.623   5.769
 5008POPC   C1A63219  19.960  44.886   6.214
 5008POPC   D2A63220  19.771  44.778   6.603
 5008POPC   C3A63221  19.953  44.869   6.999
 5008POPC   C4A63222  19.684  44.687   7.343
 5008POPC   C1B63223  19.823  44.393   6.127
 5008POPC   C2B63224  19.782  44.266   6.529
 5008POPC   C3B63225  19.865  44.364   6.949
 5008POPC   C4B63226  19.810  44.202   7.376
 5009POPC   NC363227  38.069   8.419   5.597
 5009POPC   PO463228  38.036   7.899   5.162
 5009POPC   GL163229  37.831   7.940   5.625
 5009POPC   GL263230  37.491   8.042   5.535
 5009POPC   C1A63231  37.903   8.011   6.126
 5009POPC   D2A63232  37.948   8.244   6.548
 5009POPC   C3A63233  37.706   8.234   6.966
 5009POPC   C4A63234  37.657   7.868   7.249
 5009POPC   C1B63235  37.421   8.109   6.001
 5009POPC   C2B63236  37.469   8.006   6.479
 5009POPC   C3B63237  37.279   7.907   6.902
 5009POPC   C4B63238  37.201   8.077   7.321
 5010POPC   NC363239   8.073   0.124   5.423
 5010POPC   PO463240   8.123   0.770   5.367
 5010POPC   GL163241   8.178   0.533   5.763
 5010POPC   GL263242   8.030   0.752   6.001
 5010POPC   C1A63243   8.415   0.479   6.182
 5010POPC   D2A63244   8.565   0.606   6.609
 5010POPC   C3A63245   8.235   0.479   6.915
 5010POPC   C4A63246   8.261   0.283   7.308
 5010POPC   C1B63247   7.813   1.007   6.264
 5010POPC   C2B63248   7.855   0.905   6.682
 5010POPC   C3B63249   7.786   0.769   7.082
 5010POPC   C4B63250   7.920   0.624   7.485
 5011POPC   NC363251  18.130  13.996   5.690
 5011POPC   PO463252  18.358  14.654   5.399
 5011POPC   GL163253  18.276  14.468   5.752
 5011POPC   GL263254  18.541  14.352   5.886
 5011POPC   C1A63255  18.117  14.460   6.154
 5011POPC   D2A63256  17.953  14.479   6.524
 5011POPC   C3A63257  18.231  14.379   6.847
 5011POPC   C4A63258  18.128  14.185   7.217
 5011POPC   C1B63259  18.486  14.089   6.242
 5011POPC   C2B63260  18.468  13.867   6.613
 5011POPC   C3B63261  18.648  14.085   6.961
 5011POPC   C4B63262  18.636  14.151   7.376
 5012POPC   NC363263  42.688  15.845   5.596
 5012POPC   PO463264  42.366  16.399   5.385
 5012POPC   GL163265  42.286  16.160   5.785
 5012POPC   GL263266  42.209  15.789   5.761
 5012POPC   C1A63267  42.376  16.038   6.248
 5012POPC   D2A63268  42.280  16.081   6.700
 5012POPC   C3A63269  42.565  15.908   7.048
 5012POPC   C4A63270  42.593  16.146   7.447
 5012POPC   C1B63271  42.111  15.611   6.109
 5012POPC   C2B63272  42.042  15.657   6.538
 5012POPC   C3B63273  41.822  15.688   6.901
 5012POPC   C4B63274  42.070  15.570   7.203
 5013POPC   NC363275  15.374  14.319   5.399
 5013POPC   PO463276  16.055  14.407   5.284
 5013POPC   GL163277  15.878  14.266   5.675
 5013POPC   GL263278  16.147  14.039   5.802
 5013POPC   C1A63279  15.668  14.201   6.103
 5013POPC   D2A63280  15.726  14.452   6.487
 5013POPC   C3A63281  15.744  14.283   6.910
 5013POPC   C4A63282  15.848  14.524   7.251
 5013POPC   C1B63283  16.169  14.255   6.220
 5013POPC   C2B63284  16.139  14.087   6.642
 5013POPC   C3B63285  16.257  14.253   7.051
 5013POPC   C4B63286  16.201  14.277   7.519
 5014POPC   NC363287  23.999  20.670   5.322
 5014POPC   PO463288  23.586  20.228   5.578
 5014POPC   GL163289  23.734  20.605   5.783
 5014POPC   GL263290  23.419  20.797   5.790
 5014POPC   C1A63291  24.000  20.885   6.074
 5014POPC   D2A63292  23.980  21.093   6.522
 5014POPC   C3A63293  23.894  20.854   6.888
 5014POPC   C4A63294  23.941  20.757   7.311
 5014POPC   C1B63295  23.521  20.800   6.247
 5014POPC   C2B63296  23.449  20.956   6.679
 5014POPC   C3B63297  23.382  20.726   7.083
 5014POPC   C4B63298  23.461  20.809   7.535
 5015POPC   NC363299  27.255  39.280   5.690
 5015POPC   PO463300  26.663  39.269   5.464
 5015POPC   GL163301  26.759  39.121   5.840
 5015POPC   GL263302  26.816  39.456   5.940
 5015POPC   C1A63303  26.895  39.042   6.277
 5015POPC   D2A63304  26.804  39.262   6.675
 5015POPC   C3A63305  26.878  38.970   7.038
 5015POPC   C4A63306  26.724  38.822   7.452
 5015POPC   C1B63307  27.105  39.514   6.288
 5015POPC   C2B63308  27.232  39.623   6.680
 5015POPC   C3B63309  27.106  39.441   7.070
 5015POPC   C4B63310  27.051  39.229   7.461
 5016POPC   NC363311  33.679  27.791   5.044
 5016POPC   PO463312  34.218  27.920   5.515
 5016POPC   GL163313  33.961  27.746   5.885
 5016POPC   GL263314  34.024  27.431   5.933
 5016POPC   C1A63315  33.678  27.663   6.253
 5016POPC   D2A63316  33.609  27.429   6.642
 5016POPC   C3A63317  33.591  27.627   7.054
 5016POPC   C4A63318  33.464  27.642   7.512
 5016POPC   C1B63319  34.187  27.583   6.312
 5016POPC   C2B63320  34.117  27.421   6.670
 5016POPC   C3B63321  33.996  27.236   6.991
 5016POPC   C4B63322  33.987  27.460   7.337
 5017POPC   NC363323   4.244  18.639   5.306
 5017POPC   PO463324   4.816  18.682   5.680
 5017POPC   GL163325   4.431  18.398   5.734
 5017POPC   GL263326   4.381  18.017   5.639
 5017POPC   C1A63327   4.216  18.273   6.090
 5017POPC   D2A63328   4.165  18.371   6.514
 5017POPC   C3A63329   4.480  18.526   6.786
 5017POPC   C4A63330   4.501  18.376   7.205
 5017POPC   C1B63331   4.500  17.857   6.044
 5017POPC   C2B63332   4.308  17.853   6.484
 5017POPC   C3B63333   4.268  18.039   6.895
 5017POPC   C4B63334   4.199  17.958   7.322
 5018POPC   NC363335  10.751  19.987   5.413
 5018POPC   PO463336  10.515  19.446   5.606
 5018POPC   GL163337  10.593  19.766   5.896
 5018POPC   GL263338  10.392  20.050   5.805
 5018POPC   C1A63339  10.496  19.712   6.327
 5018POPC   D2A63340  10.285  19.611   6.690
 5018POPC   C3A63341  10.639  19.702   6.948
 5018POPC   C4A63342  10.714  19.779   7.377
 5018POPC   C1B63343  10.492  20.205   6.226
 5018POPC   C2B63344  10.345  20.126   6.652
 5018POPC   C3B63345  10.309  20.228   7.083
 5018POPC   C4B63346  10.288  20.090   7.526
 5019POPC   NC363347  40.966   5.301   5.531
 5019POPC   PO463348  40.414   5.277   5.244
 5019POPC   GL163349  40.573   5.034   5.774
 5019POPC   GL263350  40.898   5.150   6.000
 5019POPC   C1A63351  40.503   5.065   6.283
 5019POPC   D2A63352  40.586   5.257   6.719
 5019POPC   C3A63353  40.770   5.041   7.071
 5019POPC   C4A63354  41.125   4.821   7.284
 5019POPC   C1B63355  40.808   5.495   6.314
 5019POPC   C2B63356  40.839   5.754   6.676
 5019POPC   C3B63357  40.866   5.565   7.060
 5019POPC   C4B63358  40.550   5.440   7.356
 5020POPC   NC363359  25.505   8.191   5.314
 5020POPC   PO463360  25.890   7.832   5.735
 5020POPC   GL163361  25.523   8.115   5.847
 5020POPC   GL263362  25.200   8.260   5.724
 5020POPC   C1A63363  25.399   8.228   6.239
 5020POPC   D2A63364  25.105   8.109   6.523
 5020POPC   C3A63365  25.381   8.186   6.851
 5020POPC   C4A63366  25.204   8.080   7.216
 5020POPC   C1B63367  25.008   8.483   6.090
 5020POPC   C2B63368  25.127   8.614   6.538
 5020POPC   C3B63369  25.082   8.558   7.018
 5020POPC   C4B63370  25.424   8.506   7.350
 5021POPC   NC363371  22.262  22.792   5.235
 5021POPC   PO463372  21.884  22.935   5.833
 5021POPC   GL163373  22.254  22.999   6.016
 5021POPC   GL263374  22.355  22.683   5.815
 5021POPC   C1A63375  22.324  23.089   6.489
 5021POPC   D2A63376  22.254  23.435   6.819
 5021POPC   C3A63377  21.912  23.293   7.086
 5021POPC   C4A63378  22.036  22.917   7.195
 5021POPC   C1B63379  22.238  22.556   6.242
 5021POPC   C2B63380  22.061  22.647   6.632
 5021POPC   C3B63381  22.163  22.398   6.941
 5021POPC   C4B63382  22.221  22.477   7.318
 5022POPC   NC363383  41.179  26.207   5.488
 5022POPC   PO463384  41.698  25.765   5.395
 5022POPC   GL163385  41.503  25.896   5.763
 5022POPC   GL263386  41.658  26.217   5.732
 5022POPC   C1A63387  41.458  25.940   6.196
 5022POPC   D2A63388  41.630  25.807   6.560
 5022POPC   C3A63389  41.475  25.939   6.921
 5022POPC   C4A63390  41.441  25.812   7.303
 5022POPC   C1B63391  41.696  26.393   6.137
 5022POPC   C2B63392  41.547  26.328   6.534
 5022POPC   C3B63393  41.712  26.394   6.901
 5022POPC   C4B63394  41.794  26.232   7.283
 5023POPC   NC363395  37.066  29.217   5.378
 5023POPC   PO463396  37.292  28.700   5.777
 5023POPC   GL163397  37.039  29.056   5.903
 5023POPC   GL263398  36.955  29.412   5.828
 5023POPC   C1A63399  36.832  29.142   6.259
 5023POPC   D2A63400  36.693  28.820   6.524
 5023POPC   C3A63401  36.952  28.875   6.865
 5023POPC   C4A63402  36.814  28.935   7.266
 5023POPC   C1B63403  37.229  29.506   6.176
 5023POPC   C2B63404  37.162  29.359   6.619
 5023POPC   C3B63405  36.835  29.383   6.952
 5023POPC   C4B63406  36.869  29.459   7.417
 5024POPC   NC363407  32.791  39.146   5.255
 5024POPC   PO463408  33.203  39.646   5.373
 5024POPC   GL163409  33.110  39.314   5.694
 5024POPC   GL263410  32.788  39.145   5.771
 5024POPC   C1A63411  33.275  39.127   6.066
 5024POPC   D2A63412  33.131  38.983   6.459
 5024POPC   C3A63413  33.159  39.242   6.825
 5024POPC   C4A63414  33.225  39.090   7.234
 5024POPC   C1B63415  32.815  39.323   6.197
 5024POPC   C2B63416  32.690  39.157   6.631
 5024POPC   C3B63417  32.743  39.107   7.106
 5024POPC   C4B63418  32.654  39.360   7.511
 5025POPC   NC363419   0.058   6.458   5.066
 5025POPC   PO463420  44.529   6.576   5.483
 5025POPC   GL163421  44.705   6.855   5.776
 5025POPC   GL263422  44.395   6.998   5.844
 5025POPC   C1A63423  44.864   6.770   6.198
 5025POPC   D2A63424  44.704   6.649   6.599
 5025POPC   C3A63425  44.899   6.816   6.955
 5025POPC   C4A63426  44.736   7.042   7.261
 5025POPC   C1B63427  44.347   6.804   6.233
 5025POPC   C2B63428  44.244   6.932   6.651
 5025POPC   C3B63429  44.381   6.752   7.020
 5025POPC   C4B63430  44.475   6.347   7.144
 5026POPC   NC363431  43.730   7.649   5.627
 5026POPC   PO463432  43.640   8.198   5.184
 5026POPC   GL163433  43.825   8.209   5.662
 5026POPC   GL263434  44.081   7.984   5.844
 5026POPC   C1A63435  43.917   8.481   6.060
 5026POPC   D2A63436  44.027   8.338   6.490
 5026POPC   C3A63437  43.885   8.464   6.906
 5026POPC   C4A63438  44.041   8.288   7.290
 5026POPC   C1B63439  43.725   8.025   6.153
 5026POPC   C2B63440  43.562   8.019   6.553
 5026POPC   C3B63441  43.685   7.984   6.949
 5026POPC   C4B63442  43.588   8.032   7.358
 5027POPC   NC363443  10.452   3.781   5.325
 5027POPC   PO463444  10.685   3.140   5.436
 5027POPC   GL163445  10.687   3.515   5.750
 5027POPC   GL263446  10.393   3.727   5.830
 5027POPC   C1A63447  10.799   3.781   6.146
 5027POPC   D2A63448  10.818   3.608   6.572
 5027POPC   C3A63449  10.477   3.699   6.854
 5027POPC   C4A63450  10.477   3.548   7.248
 5027POPC   C1B63451  10.360   3.553   6.249
 5027POPC   C2B63452  10.381   3.256   6.589
 5027POPC   C3B63453  10.190   3.184   7.015
 5027POPC   C4B63454  10.221   3.195   7.495
 5028POPC   NC363455   4.417  32.907   5.459
 5028POPC   PO463456   4.992  33.399   5.420
 5028POPC   GL163457   4.830  33.111   5.701
 5028POPC   GL263458   4.797  33.373   5.929
 5028POPC   C1A63459   4.924  32.895   6.103
 5028POPC   D2A63460   5.242  32.979   6.441
 5028POPC   C3A63461   5.176  32.859   6.864
 5028POPC   C4A63462   5.262  33.085   7.212
 5028POPC   C1B63463   4.997  33.410   6.315
 5028POPC   C2B63464   4.937  33.314   6.747
 5028POPC   C3B63465   4.876  33.454   7.152
 5028POPC   C4B63466   4.736  33.337   7.578
 5029POPC   NC363467   0.449   7.665   5.189
 5029POPC   PO463468   0.663   8.203   5.522
 5029POPC   GL163469   0.367   8.106   5.825
 5029POPC   GL263470   0.171   8.370   5.954
 5029POPC   C1A63471   0.288   7.963   6.238
 5029POPC   D2A63472   0.267   8.213   6.618
 5029POPC   C3A63473   0.558   8.026   6.916
 5029POPC   C4A63474   0.515   8.031   7.334
 5029POPC   C1B63475   0.547   8.472   6.231
 5029POPC   C2B63476   0.758   8.439   6.671
 5029POPC   C3B63477   0.645   8.524   7.117
 5029POPC   C4B63478   0.715   8.487   7.608
 5030POPC   NC363479   2.458  30.976   5.603
 5030POPC   PO463480   1.962  30.714   5.230
 5030POPC   GL163481   2.062  30.628   5.679
 5030POPC   GL263482   2.333  30.401   5.728
 5030POPC   C1A63483   1.935  30.758   6.128
 5030POPC   D2A63484   2.033  30.753   6.602
 5030POPC   C3A63485   1.721  30.940   6.898
 5030POPC   C4A63486   1.547  30.941   7.312
 5030POPC   C1B63487   2.422  30.596   6.154
 5030POPC   C2B63488   2.480  30.399   6.565
 5030POPC   C3B63489   2.266  30.437   6.957
 5030POPC   C4B63490   2.111  30.784   7.206
 5031POPC   NC363491  41.246  38.612   5.206
 5031POPC   PO463492  40.689  38.828   5.605
 5031POPC   GL163493  40.877  38.591   5.894
 5031POPC   GL263494  41.051  38.264   5.727
 5031POPC   C1A63495  40.881  38.687   6.327
 5031POPC   D2A63496  40.836  38.901   6.709
 5031POPC   C3A63497  40.564  38.702   7.007
 5031POPC   C4A63498  40.735  38.555   7.385
 5031POPC   C1B63499  41.159  38.275   6.171
 5031POPC   C2B63500  40.959  38.212   6.564
 5031POPC   C3B63501  40.940  38.308   6.977
 5031POPC   C4B63502  41.024  38.124   7.404
 5032POPC   NC363503  41.026  29.701   5.492
 5032POPC   PO463504  40.661  30.186   5.618
 5032POPC   GL163505  40.597  29.993   5.985
 5032POPC   GL263506  40.665  29.665   5.880
 5032POPC   C1A63507  40.714  29.948   6.394
 5032POPC   D2A63508  41.100  30.001   6.603
 5032POPC   C3A63509  41.052  29.776   6.955
 5032POPC   C4A63510  40.611  29.868   7.111
 5032POPC   C1B63511  40.824  29.462   6.267
 5032POPC   C2B63512  40.653  29.507   6.694
 5032POPC   C3B63513  40.324  29.446   7.016
 5032POPC   C4B63514  40.389  29.552   7.451
 5033POPC   NC363515  26.762  24.752   5.094
 5033POPC   PO463516  26.906  24.249   5.549
 5033POPC   GL163517  26.853  24.254   5.947
 5033POPC   GL263518  26.511  24.207   5.995
 5033POPC   C1A63519  26.978  24.308   6.363
 5033POPC   D2A63520  26.929  24.663   6.617
 5033POPC   C3A63521  26.708  24.447   6.906
 5033POPC   C4A63522  26.770  24.316   7.286
 5033POPC   C1B63523  26.474  24.575   6.287
 5033POPC   C2B63524  26.428  24.827   6.671
 5033POPC   C3B63525  26.633  24.929   7.073
 5033POPC   C4B63526  26.677  24.766   7.523
 5034POPC   NC363527   2.409   4.688   5.604
 5034POPC   PO463528   2.914   5.134   5.577
 5034POPC   GL163529   2.614   5.082   5.858
 5034POPC   GL263530   2.817   4.848   6.053
 5034POPC   C1A63531   2.354   4.929   6.208
 5034POPC   D2A63532   2.584   4.797   6.566
 5034POPC   C3A63533   2.669   5.022   6.934
 5034POPC   C4A63534   2.916   5.031   7.303
 5034POPC   C1B63535   2.728   5.246   6.316
 5034POPC   C2B63536   2.742   5.504   6.696
 5034POPC   C3B63537   2.747   5.506   7.130
 5034POPC   C4B63538   3.061   5.568   7.447
 5035POPC   NC363539  12.486  32.991   5.519
 5035POPC   PO463540  13.143  33.096   5.664
 5035POPC   GL163541  12.806  33.070   5.901
 5035POPC   GL263542  12.687  33.420   5.801
 5035POPC   C1A63543  12.889  32.903   6.292
 5035POPC   D2A63544  13.185  33.026   6.610
 5035POPC   C3A63545  12.932  32.947   6.932
 5035POPC   C4A63546  12.845  33.030   7.289
 5035POPC   C1B63547  12.911  33.450   6.219
 5035POPC   C2B63548  12.781  33.315   6.619
 5035POPC   C3B63549  12.660  33.428   7.027
 5035POPC   C4B63550  12.602  33.405   7.497
 5036POPC   NC363551  18.566  11.549   5.096
 5036POPC   PO463552  18.589  10.987   5.365
 5036POPC   GL163553  18.282  11.041   5.701
 5036POPC   GL263554  18.537  11.077   5.956
 5036POPC   C1A63555  18.073  11.232   6.086
 5036POPC   D2A63556  18.092  11.574   6.397
 5036POPC   C3A63557  18.071  11.402   6.788
 5036POPC   C4A63558  18.332  11.111   6.984
 5036POPC   C1B63559  18.553  11.462   6.224
 5036POPC   C2B63560  18.609  11.432   6.654
 5036POPC   C3B63561  18.472  11.608   7.012
 5036POPC   C4B63562  18.174  11.525   7.291
 5037POPC   NC363563  25.431  33.304   5.519
 5037POPC   PO463564  24.999  32.765   5.349
 5037POPC   GL163565  25.188  32.814   5.731
 5037POPC   GL263566  25.551  32.861   5.826
 5037POPC   C1A63567  25.075  32.972   6.122
 5037POPC   D2A63568  25.290  32.917   6.492
 5037POPC   C3A63569  25.132  32.774   6.862
 5037POPC   C4A63570  25.201  32.860   7.290
 5037POPC   C1B63571  25.697  32.676   6.261
 5037POPC   C2B63572  25.691  32.682   6.752
 5037POPC   C3B63573  25.554  32.493   7.157
 5037POPC   C4B63574  25.557  32.635   7.630
 5038POPC   NC363575  12.727   9.366   5.568
 5038POPC   PO463576  13.035   8.739   5.590
 5038POPC   GL163577  12.689   8.881   5.819
 5038POPC   GL263578  12.872   9.144   5.999
 5038POPC   C1A63579  12.562   8.839   6.243
 5038POPC   D2A63580  12.740   9.026   6.572
 5038POPC   C3A63581  12.534   8.905   6.903
 5038POPC   C4A63582  12.581   8.863   7.328
 5038POPC   C1B63583  13.058   9.370   6.331
 5038POPC   C2B63584  13.277   9.274   6.705
 5038POPC   C3B63585  13.038   9.079   7.046
 5038POPC   C4B63586  12.966   9.208   7.479
 5039POPC   NC363587   1.240  32.627   5.537
 5039POPC   PO463588   1.520  31.963   5.529
 5039POPC   GL163589   1.214  32.165   5.872
 5039POPC   GL263590   1.000  32.506   5.953
 5039POPC   C1A63591   1.200  32.214   6.326
 5039POPC   D2A63592   1.045  32.529   6.592
 5039POPC   C3A63593   1.061  32.417   7.012
 5039POPC   C4A63594   0.836  32.111   7.266
 5039POPC   C1B63595   1.354  32.678   6.187
 5039POPC   C2B63596   1.576  32.592   6.570
 5039POPC   C3B63597   1.559  32.721   7.017
 5039POPC   C4B63598   1.283  32.701   7.399
 5040POPC   NC363599  18.716  36.382   5.156
 5040POPC   PO463600  19.159  35.917   5.395
 5040POPC   GL163601  18.929  36.081   5.763
 5040POPC   GL263602  18.798  36.447   5.726
 5040POPC   C1A63603  18.948  35.906   6.199
 5040POPC   D2A63604  18.851  35.652   6.564
 5040POPC   C3A63605  18.930  35.807   6.910
 5040POPC   C4A63606  18.747  35.951   7.253
 5040POPC   C1B63607  19.072  36.460   6.116
 5040POPC   C2B63608  19.097  36.269   6.536
 5040POPC   C3B63609  18.916  36.316   6.945
 5040POPC   C4B63610  18.932  36.404   7.378
 5041POPC   NC363611  27.750  34.060   5.431
 5041POPC   PO463612  27.412  33.453   5.440
 5041POPC   GL163613  27.634  33.644   5.799
 5041POPC   GL263614  27.995  33.497   5.850
 5041POPC   C1A63615  27.416  33.837   6.179
 5041POPC   D2A63616  27.257  33.687   6.587
 5041POPC   C3A63617  27.355  33.888   6.996
 5041POPC   C4A63618  27.756  34.124   7.041
 5041POPC   C1B63619  27.804  33.518   6.283
 5041POPC   C2B63620  27.770  33.707   6.695
 5041POPC   C3B63621  27.731  33.555   7.117
 5041POPC   C4B63622  27.461  33.506   7.483
 5042POPC   NC363623  16.404  17.453   5.457
 5042POPC   PO463624  15.849  17.224   5.159
 5042POPC   GL163625  15.845  17.464   5.639
 5042POPC   GL263626  16.062  17.312   5.820
 5042POPC   C1A63627  15.978  17.736   6.064
 5042POPC   D2A63628  15.933  17.999   6.451
 5042POPC   C3A63629  15.879  17.792   6.876
 5042POPC   C4A63630  15.758  17.637   7.289
 5042POPC   C1B63631  15.682  17.342   6.127
 5042POPC   C2B63632  15.667  17.522   6.505
 5042POPC   C3B63633  15.768  17.296   6.894
 5042POPC   C4B63634  15.452  17.205   7.193
 5043POPC   NC363635  36.615  24.612   5.350
 5043POPC   PO463636  35.991  24.525   5.349
 5043POPC   GL163637  36.138  24.434   5.752
 5043POPC   GL263638  36.363  24.672   5.854
 5043POPC   C1A63639  35.937  24.516   6.145
 5043POPC   D2A63640  36.066  24.379   6.549
 5043POPC   C3A63641  35.842  24.390   6.936
 5043POPC   C4A63642  36.083  24.253   7.342
 5043POPC   C1B63643  36.378  24.714   6.318
 5043POPC   C2B63644  36.232  24.807   6.768
 5043POPC   C3B63645  36.119  24.745   7.205
 5043POPC   C4B63646  36.464  24.616   7.519
 5044POPC   NC363647  43.240   0.350   5.398
 5044POPC   PO463648  42.694   0.315   5.664
 5044POPC   GL163649  43.035   0.531   5.874
 5044POPC   GL263650  43.343   0.308   5.919
 5044POPC   C1A63651  43.004   0.654   6.314
 5044POPC   D2A63652  42.872   0.603   6.718
 5044POPC   C3A63653  43.079   0.392   7.006
 5044POPC   C4A63654  43.001   0.554   7.385
 5044POPC   C1B63655  43.517   0.601   6.237
 5044POPC   C2B63656  43.384   0.716   6.687
 5044POPC   C3B63657  43.526   0.657   7.129
 5044POPC   C4B63658  43.452   0.310   7.415
 5045POPC   NC363659  35.424  38.759   5.311
 5045POPC   PO463660  35.302  38.084   5.381
 5045POPC   GL163661  35.431  38.226   5.816
 5045POPC   GL263662  35.225  38.501   5.948
 5045POPC   C1A63663  35.452  38.199   6.291
 5045POPC   D2A63664  35.480  38.419   6.688
 5045POPC   C3A63665  35.353  38.209   7.057
 5045POPC   C4A63666  35.480  38.444   7.447
 5045POPC   C1B63667  35.048  38.702   6.285
 5045POPC   C2B63668  35.141  38.819   6.712
 5045POPC   C3B63669  35.105  38.632   7.100
 5045POPC   C4B63670  35.039  38.743   7.528
 5046POPC   NC363671  15.083  24.965   5.360
 5046POPC   PO463672  15.459  25.451   5.454
 5046POPC   GL163673  15.365  25.160   5.740
 5046POPC   GL263674  15.011  25.211   5.819
 5046POPC   C1A63675  15.394  25.064   6.160
 5046POPC   D2A63676  15.353  25.288   6.536
 5046POPC   C3A63677  15.301  25.029   6.857
 5046POPC   C4A63678  15.459  25.014   7.246
 5046POPC   C1B63679  14.939  25.350   6.248
 5046POPC   C2B63680  14.861  25.390   6.700
 5046POPC   C3B63681  14.983  25.354   7.121
 5046POPC   C4B63682  14.996  25.591   7.517
 5047POPC   NC363683   0.127  42.038   5.355
 5047POPC   PO463684  44.398  41.884   5.341
 5047POPC   GL163685  44.443  42.188   5.701
 5047POPC   GL263686  44.778  42.345   5.674
 5047POPC   C1A63687  44.296  42.393   6.094
 5047POPC   D2A63688  44.481  42.516   6.492
 5047POPC   C3A63689  44.264  42.435   6.876
 5047POPC   C4A63690  44.450  42.323   7.259
 5047POPC   C1B63691  44.857  42.503   6.105
 5047POPC   C2B63692  44.986  42.362   6.523
 5047POPC   C3B63693  44.797  42.445   6.920
 5047POPC   C4B63694  44.854  42.576   7.372
 5048POPC   NC363695  34.051  14.060   5.592
 5048POPC   PO463696  33.591  14.380   5.221
 5048POPC   GL163697  33.611  14.303   5.704
 5048POPC   GL263698  33.412  14.510   5.886
 5048POPC   C1A63699  33.776  14.194   6.163
 5048POPC   D2A63700  34.024  14.083   6.556
 5048POPC   C3A63701  33.857  14.333   6.903
 5048POPC   C4A63702  33.625  14.202   7.262
 5048POPC   C1B63703  33.537  14.642   6.281
 5048POPC   C2B63704  33.490  14.620   6.690
 5048POPC   C3B63705  33.590  14.855   7.013
 5048POPC   C4B63706  33.837  14.668   7.317
 5049POPC   NC363707  37.139  40.833   5.453
 5049POPC   PO463708  36.601  41.214   5.618
 5049POPC   GL163709  36.991  41.055   5.878
 5049POPC   GL263710  37.087  40.653   5.921
 5049POPC   C1A63711  37.107  40.997   6.291
 5049POPC   D2A63712  36.884  40.871   6.604
 5049POPC   C3A63713  37.081  40.892   6.977
 5049POPC   C4A63714  36.743  40.725   7.189
 5049POPC   C1B63715  36.897  40.451   6.273
 5049POPC   C2B63716  36.934  40.380   6.704
 5049POPC   C3B63717  37.073  40.345   7.097
 5049POPC   C4B63718  37.208  40.627   7.394
 5050POPC   NC363719  35.367   3.512   5.351
 5050POPC   PO463720  35.357   2.856   5.438
 5050POPC   GL163721  35.522   3.193   5.775
 5050POPC   GL263722  35.614   3.597   5.786
 5050POPC   C1A63723  35.403   3.365   6.201
 5050POPC   D2A63724  35.326   3.684   6.520
 5050POPC   C3A63725  35.317   3.465   6.922
 5050POPC   C4A63726  35.092   3.427   7.305
 5050POPC   C1B63727  35.781   3.736   6.181
 5050POPC   C2B63728  35.829   3.634   6.608
 5050POPC   C3B63729  35.703   3.822   6.980
 5050POPC   C4B63730  35.573   3.578   7.367
 5051POPC   NC363731  37.911  10.154   5.489
 5051POPC   PO463732  37.764   9.526   5.422
 5051POPC   GL163733  37.701   9.662   5.829
 5051POPC   GL263734  37.377   9.542   5.836
 5051POPC   C1A63735  37.936   9.564   6.226
 5051POPC   D2A63736  38.099   9.605   6.637
 5051POPC   C3A63737  37.778   9.662   6.941
 5051POPC   C4A63738  37.874   9.876   7.292
 5051POPC   C1B63739  37.438   9.654   6.282
 5051POPC   C2B63740  37.327   9.784   6.691
 5051POPC   C3B63741  37.347   9.897   7.115
 5051POPC   C4B63742  37.437   9.592   7.425
 5052POPC   NC363743  35.769  18.622   5.471
 5052POPC   PO463744  35.432  19.172   5.238
 5052POPC   GL163745  35.301  19.022   5.660
 5052POPC   GL263746  35.009  19.108   5.874
 5052POPC   C1A63747  35.460  18.943   6.090
 5052POPC   D2A63748  35.507  19.103   6.506
 5052POPC   C3A63749  35.310  18.872   6.795
 5052POPC   C4A63750  35.319  18.872   7.201
 5052POPC   C1B63751  34.978  18.927   6.311
 5052POPC   C2B63752  34.924  19.176   6.679
 5052POPC   C3B63753  35.255  19.360   6.916
 5052POPC   C4B63754  35.608  19.310   7.194
 5053POPC   NC363755  35.361  26.794   5.412
 5053POPC   PO463756  35.858  27.222   5.361
 5053POPC   GL163757  35.757  27.007   5.764
 5053POPC   GL263758  35.715  26.652   5.773
 5053POPC   C1A63759  35.563  26.939   6.177
 5053POPC   D2A63760  35.426  27.103   6.559
 5053POPC   C3A63761  35.559  27.006   6.989
 5053POPC   C4A63762  35.186  27.097   7.226
 5053POPC   C1B63763  35.621  26.432   6.150
 5053POPC   C2B63764  35.540  26.588   6.580
 5053POPC   C3B63765  35.200  26.650   6.890
 5053POPC   C4B63766  35.389  26.601   7.277
 5054POPC   NC363767  15.252  16.208   5.456
 5054POPC   PO463768  15.684  15.654   5.590
 5054POPC   GL163769  15.226  15.769   5.764
 5054POPC   GL263770  15.163  16.134   5.946
 5054POPC   C1A63771  14.912  15.760   6.136
 5054POPC   D2A63772  15.063  15.993   6.513
 5054POPC   C3A63773  15.123  15.761   6.858
 5054POPC   C4A63774  15.070  15.925   7.264
 5054POPC   C1B63775  15.448  15.870   6.221
 5054POPC   C2B63776  15.588  16.015   6.637
 5054POPC   C3B63777  15.544  15.933   7.069
 5054POPC   C4B63778  15.464  15.745   7.496
 5055POPC   NC363779  12.571  10.407   5.621
 5055POPC   PO463780  13.198  10.805   5.486
 5055POPC   GL163781  13.130  10.533   5.829
 5055POPC   GL263782  13.159  10.160   5.789
 5055POPC   C1A63783  13.179  10.666   6.249
 5055POPC   D2A63784  13.194  10.766   6.689
 5055POPC   C3A63785  12.821  10.582   6.897
 5055POPC   C4A63786  12.740  10.518   7.330
 5055POPC   C1B63787  12.932  10.217   6.188
 5055POPC   C2B63788  13.141  10.252   6.575
 5055POPC   C3B63789  13.124  10.179   7.000
 5055POPC   C4B63790  13.142  10.192   7.432
 5056POPC   NC363791  16.620  11.554   5.187
 5056POPC   PO463792  16.762  12.221   5.446
 5056POPC   GL163793  16.648  12.091   5.859
 5056POPC   GL263794  16.598  11.722   5.854
 5056POPC   C1A63795  16.768  12.280   6.249
 5056POPC   D2A63796  16.941  12.480   6.602
 5056POPC   C3A63797  16.678  12.377   6.938
 5056POPC   C4A63798  16.752  12.200   7.320
 5056POPC   C1B63799  16.833  11.756   6.244
 5056POPC   C2B63800  16.715  11.913   6.633
 5056POPC   C3B63801  16.586  11.806   7.012
 5056POPC   C4B63802  16.794  11.679   7.357
 5057POPC   NC363803   3.622  23.274   5.464
 5057POPC   PO463804   3.345  22.707   5.417
 5057POPC   GL163805   3.341  22.958   5.812
 5057POPC   GL263806   3.356  23.338   5.898
 5057POPC   C1A63807   3.340  22.984   6.264
 5057POPC   D2A63808   3.626  22.979   6.612
 5057POPC   C3A63809   3.388  22.850   6.944
 5057POPC   C4A63810   3.461  22.780   7.338
 5057POPC   C1B63811   3.639  23.417   6.311
 5057POPC   C2B63812   3.655  23.475   6.796
 5057POPC   C3B63813   3.726  23.209   7.180
 5057POPC   C4B63814   3.861  23.053   7.599
 5058POPC   NC363815  30.302  32.001   5.533
 5058POPC   PO463816  30.683  31.437   5.349
 5058POPC   GL163817  30.714  31.385   5.804
 5058POPC   GL263818  31.011  31.174   5.912
 5058POPC   C1A63819  30.503  31.232   6.193
 5058POPC   D2A63820  30.561  31.064   6.604
 5058POPC   C3A63821  30.443  31.290   6.977
 5058POPC   C4A63822  30.513  31.527   7.350
 5058POPC   C1B63823  31.011  31.185   6.352
 5058POPC   C2B63824  30.952  31.336   6.755
 5058POPC   C3B63825  30.966  31.368   7.174
 5058POPC   C4B63826  31.169  31.233   7.544
 5059POPC   NC363827  21.880  19.914   5.284
 5059POPC   PO463828  21.468  19.943   5.723
 5059POPC   GL163829  21.241  19.744   6.021
 5059POPC   GL263830  21.180  19.405   5.850
 5059POPC   C1A63831  21.447  19.797   6.418
 5059POPC   D2A63832  21.780  19.627   6.696
 5059POPC   C3A63833  21.625  19.748   7.083
 5059POPC   C4A63834  21.222  19.975   7.163
 5059POPC   C1B63835  21.107  19.332   6.275
 5059POPC   C2B63836  21.178  19.465   6.686
 5059POPC   C3B63837  21.066  19.274   7.026
 5059POPC   C4B63838  21.273  19.476   7.309
 5060POPC   NC363839   9.704  11.532   5.367
 5060POPC   PO463840   9.923  10.843   5.466
 5060POPC   GL163841   9.887  11.184   5.773
 5060POPC   GL263842   9.529  11.237   5.754
 5060POPC   C1A63843   9.726  11.145   6.215
 5060POPC   D2A63844   9.502  11.253   6.592
 5060POPC   C3A63845   9.577  11.061   6.994
 5060POPC   C4A63846   9.835  11.108   7.329
 5060POPC   C1B63847   9.405  11.560   6.026
 5060POPC   C2B63848   9.197  11.627   6.410
 5060POPC   C3B63849   9.314  11.655   6.841
 5060POPC   C4B63850   9.557  11.537   7.184
 5061POPC   NC363851   2.331   9.242   5.475
 5061POPC   PO463852   1.818   8.845   5.442
 5061POPC   GL163853   1.940   9.099   5.774
 5061POPC   GL263854   2.158   8.845   5.949
 5061POPC   C1A63855   2.058   9.296   6.169
 5061POPC   D2A63856   2.207   9.031   6.492
 5061POPC   C3A63857   2.062   9.093   6.875
 5061POPC   C4A63858   1.982   9.104   7.284
 5061POPC   C1B63859   2.237   8.530   6.292
 5061POPC   C2B63860   2.362   8.579   6.720
 5061POPC   C3B63861   2.202   8.669   7.129
 5061POPC   C4B63862   2.210   8.744   7.607
 5062POPC   NC363863  25.278  10.215   5.343
 5062POPC   PO463864  25.203   9.529   5.209
 5062POPC   GL163865  25.277   9.623   5.688
 5062POPC   GL263866  25.059   9.903   5.851
 5062POPC   C1A63867  25.288   9.479   6.146
 5062POPC   D2A63868  24.985   9.460   6.530
 5062POPC   C3A63869  25.128   9.520   6.966
 5062POPC   C4A63870  25.431   9.636   7.265
 5062POPC   C1B63871  25.158   9.949   6.290
 5062POPC   C2B63872  25.314   9.908   6.696
 5062POPC   C3B63873  25.165  10.035   7.074
 5062POPC   C4B63874  24.904  10.192   7.330
 5063POPC   NC363875  34.189  44.736   5.364
 5063POPC   PO463876  34.788  44.651   5.265
 5063POPC   GL163877  34.605  44.750   5.672
 5063POPC   GL263878  34.743  44.440   5.768
 5063POPC   C1A63879  34.650   0.044   6.025
 5063POPC   D2A63880  34.606   0.197   6.460
 5063POPC   C3A63881  34.683  44.898   6.805
 5063POPC   C4A63882  34.464  44.606   7.056
 5063POPC   C1B63883  34.521  44.550   6.167
 5063POPC   C2B63884  34.671  44.435   6.588
 5063POPC   C3B63885  34.707  44.177   6.977
 5063POPC   C4B63886  34.718  44.305   7.401
 5064POPC   NC363887   8.423  32.198   5.536
 5064POPC   PO463888   7.818  32.333   5.314
 5064POPC   GL163889   7.912  32.245   5.753
 5064POPC   GL263890   8.193  32.420   5.926
 5064POPC   C1A63891   7.981  32.029   6.149
 5064POPC   D2A63892   8.296  32.118   6.469
 5064POPC   C3A63893   8.176  32.048   6.889
 5064POPC   C4A63894   8.269  32.261   7.263
 5064POPC   C1B63895   8.016  32.532   6.335
 5064POPC   C2B63896   8.104  32.539   6.790
 5064POPC   C3B63897   7.980  32.671   7.198
 5064POPC   C4B63898   7.933  32.484   7.609
 5065POPC   NC363899  43.620  40.164   5.339
 5065POPC   PO463900  43.917  39.519   5.349
 5065POPC   GL163901  44.094  39.772   5.780
 5065POPC   GL263902  43.988  40.118   5.834
 5065POPC   C1A63903  44.175  39.920   6.257
 5065POPC   D2A63904  43.957  40.050   6.688
 5065POPC   C3A63905  44.101  39.835   7.105
 5065POPC   C4A63906  43.976  39.840   7.567
 5065POPC   C1B63907  43.672  40.164   6.232
 5065POPC   C2B63908  43.497  40.265   6.682
 5065POPC   C3B63909  43.632  40.076   7.121
 5065POPC   C4B63910  43.485  40.034   7.572
 5066POPC   NC363911  41.778  32.878   5.547
 5066POPC   PO463912  42.405  32.707   5.433
 5066POPC   GL163913  42.223  32.856   5.798
 5066POPC   GL263914  41.969  32.577   5.903
 5066POPC   C1A63915  42.387  33.117   6.156
 5066POPC   D2A63916  42.525  33.296   6.570
 5066POPC   C3A63917  42.432  33.143   6.976
 5066POPC   C4A63918  42.018  33.178   7.093
 5066POPC   C1B63919  42.289  32.630   6.230
 5066POPC   C2B63920  42.272  32.824   6.611
 5066POPC   C3B63921  42.028  32.677   6.948
 5066POPC   C4B63922  41.848  32.736   7.336
 5067POPC   NC363923   1.112  28.568   5.410
 5067POPC   PO463924   1.631  28.148   5.492
 5067POPC   GL163925   1.471  28.457   5.770
 5067POPC   GL263926   1.125  28.317   5.854
 5067POPC   C1A63927   1.399  28.568   6.194
 5067POPC   D2A63928   1.163  28.444   6.548
 5067POPC   C3A63929   1.080  28.696   6.910
 5067POPC   C4A63930   0.927  28.569   7.294
 5067POPC   C1B63931   1.312  28.041   6.199
 5067POPC   C2B63932   1.252  27.947   6.663
 5067POPC   C3B63933   1.151  28.197   7.026
 5067POPC   C4B63934   1.376  28.310   7.407
 5068POPC   NC363935  10.619   1.551   5.415
 5068POPC   PO463936  10.680   0.904   5.380
 5068POPC   GL163937  10.587   1.174   5.749
 5068POPC   GL263938  10.310   1.421   5.809
 5068POPC   C1A63939  10.698   1.181   6.177
 5068POPC   D2A63940  10.616   1.375   6.582
 5068POPC   C3A63941  10.631   1.059   6.916
 5068POPC   C4A63942  10.757   0.903   7.320
 5068POPC   C1B63943  10.207   1.284   6.253
 5068POPC   C2B63944  10.170   1.125   6.676
 5068POPC   C3B63945  10.261   1.360   7.079
 5068POPC   C4B63946  10.273   1.458   7.555
 5069POPC   NC363947  29.512  39.285   5.038
 5069POPC   PO463948  30.119  39.184   5.293
 5069POPC   GL163949  30.013  39.145   5.787
 5069POPC   GL263950  30.291  38.996   5.970
 5069POPC   C1A63951  29.754  39.297   6.129
 5069POPC   D2A63952  29.675  39.171   6.540
 5069POPC   C3A63953  29.559  39.318   6.946
 5069POPC   C4A63954  29.833  39.129   7.255
 5069POPC   C1B63955  30.167  39.070   6.356
 5069POPC   C2B63956  30.118  39.054   6.783
 5069POPC   C3B63957  30.312  39.198   7.152
 5069POPC   C4B63958  30.193  39.385   7.539
 5070POPC   NC363959  25.331  21.149   5.490
 5070POPC   PO463960  25.298  20.498   5.304
 5070POPC   GL163961  25.467  20.668   5.716
 5070POPC   GL263962  25.717  20.917   5.793
 5070POPC   C1A63963  25.280  20.751   6.123
 5070POPC   D2A63964  24.954  20.715   6.462
 5070POPC   C3A63965  24.984  20.451   6.861
 5070POPC   C4A63966  25.083  20.430   7.309
 5070POPC   C1B63967  25.742  20.923   6.253
 5070POPC   C2B63968  25.506  20.676   6.602
 5070POPC   C3B63969  25.394  20.736   7.037
 5070POPC   C4B63970  25.657  20.879   7.377
 5071POPC   NC363971  38.508  28.799   5.659
 5071POPC   PO463972  38.585  29.485   5.568
 5071POPC   GL163973  38.667  29.232   5.886
 5071POPC   GL263974  38.292  29.181   5.935
 5071POPC   C1A63975  38.607  29.101   6.308
 5071POPC   D2A63976  38.479  29.353   6.596
 5071POPC   C3A63977  38.588  29.253   6.977
 5071POPC   C4A63978  38.434  29.334   7.366
 5071POPC   C1B63979  38.107  28.876   6.275
 5071POPC   C2B63980  38.160  28.963   6.720
 5071POPC   C3B63981  38.317  28.845   7.117
 5071POPC   C4B63982  38.342  28.884   7.588
 5072POPC   NC363983   2.306  35.926   5.460
 5072POPC   PO463984   1.738  36.291   5.364
 5072POPC   GL163985   1.778  36.150   5.819
 5072POPC   GL263986   2.125  36.047   5.932
 5072POPC   C1A63987   1.718  35.957   6.238
 5072POPC   D2A63988   1.662  35.841   6.685
 5072POPC   C3A63989   1.820  36.165   6.940
 5072POPC   C4A63990   1.792  36.225   7.385
 5072POPC   C1B63991   2.280  36.379   6.247
 5072POPC   C2B63992   2.246  36.402   6.725
 5072POPC   C3B63993   2.308  36.261   7.172
 5072POPC   C4B63994   2.327  35.978   7.565
 5073POPC   NC363995  26.222  35.334   5.403
 5073POPC   PO463996  25.530  35.271   5.497
 5073POPC   GL163997  25.841  35.337   5.834
 5073POPC   GL263998  26.180  35.545   5.857
 5073POPC   C1A63999  25.736  35.226   6.272
 5073POPC   D2A64000  25.778  34.970   6.652
 5073POPC   C3A64001  25.938  35.215   6.989
 5073POPC   C4A64002  26.297  35.210   7.250
 5073POPC   C1B64003  26.324  35.764   6.228
 5073POPC   C2B64004  26.523  35.704   6.654
 5073POPC   C3B64005  26.386  35.739   7.079
 5073POPC   C4B64006  26.109  35.665   7.417
 5074POPC   NC364007  15.021  33.059   5.522
 5074POPC   PO464008  15.649  32.931   5.241
 5074POPC   GL164009  15.413  32.775   5.689
 5074POPC   GL264010  15.282  33.061   6.025
 5074POPC   C1A64011  15.369  32.597   6.099
 5074POPC   D2A64012  15.555  32.892   6.430
 5074POPC   C3A64013  15.291  33.023   6.794
 5074POPC   C4A64014  15.262  33.323   7.162
 5074POPC   C1B64015  14.909  32.855   6.125
 5074POPC   C2B64016  14.650  32.755   6.429
 5074POPC   C3B64017  14.755  32.936   6.839
 5074POPC   C4B64018  15.028  32.863   7.199
 5075POPC   NC364019  35.264  42.759   5.065
 5075POPC   PO464020  35.459  42.152   5.301
 5075POPC   GL164021  35.449  42.308   5.726
 5075POPC   GL264022  35.469  42.014   5.907
 5075POPC   C1A64023  35.642  42.459   6.138
 5075POPC   D2A64024  35.551  42.639   6.555
 5075POPC   C3A64025  35.663  42.468   6.964
 5075POPC   C4A64026  35.366  42.571   7.283
 5075POPC   C1B64027  35.195  42.172   6.236
 5075POPC   C2B64028  34.987  42.115   6.611
 5075POPC   C3B64029  35.135  42.276   6.949
 5075POPC   C4B64030  35.007  42.236   7.390
 5076POPC   NC364031  23.349  23.997   5.419
 5076POPC   PO464032  23.510  23.375   5.260
 5076POPC   GL164033  23.655  23.485   5.716
 5076POPC   GL264034  23.996  23.486   5.819
 5076POPC   C1A64035  23.647  23.716   6.142
 5076POPC   D2A64036  23.553  23.821   6.583
 5076POPC   C3A64037  23.483  23.513   6.915
 5076POPC   C4A64038  23.485  23.815   7.243
 5076POPC   C1B64039  24.183  23.718   6.171
 5076POPC   C2B64040  24.059  23.856   6.580
 5076POPC   C3B64041  23.927  23.737   6.981
 5076POPC   C4B64042  23.889  23.402   7.301
 5077POPC   NC364043  13.912   6.163   5.434
 5077POPC   PO464044  13.412   5.674   5.382
 5077POPC   GL164045  13.590   5.870   5.736
 5077POPC   GL264046  13.427   6.181   5.705
 5077POPC   C1A64047  13.595   5.976   6.173
 5077POPC   D2A64048  13.338   5.930   6.521
 5077POPC   C3A64049  13.496   5.951   6.919
 5077POPC   C4A64050  13.653   5.925   7.295
 5077POPC   C1B64051  13.142   6.174   6.086
 5077POPC   C2B64052  13.083   6.378   6.465
 5077POPC   C3B64053  13.208   6.398   6.869
 5077POPC   C4B64054  13.425   6.364   7.232
 5078POPC   NC364055  43.286   1.312   5.271
 5078POPC   PO464056  42.672   1.111   5.336
 5078POPC   GL164057  42.940   1.031   5.698
 5078POPC   GL264058  43.062   1.362   5.727
 5078POPC   C1A64059  43.236   1.027   6.063
 5078POPC   D2A64060  43.260   1.205   6.476
 5078POPC   C3A64061  43.048   1.065   6.844
 5078POPC   C4A64062  43.252   1.102   7.220
 5078POPC   C1B64063  42.971   1.534   6.127
 5078POPC   C2B64064  42.805   1.486   6.541
 5078POPC   C3B64065  42.974   1.557   6.943
 5078POPC   C4B64066  42.793   1.339   7.271
 5079POPC   NC364067   7.073  14.098   5.382
 5079POPC   PO464068   7.695  14.094   5.389
 5079POPC   GL164069   7.788  14.431   5.728
 5079POPC   GL264070   7.581  14.764   5.816
 5079POPC   C1A64071   7.715  14.465   6.188
 5079POPC   D2A64072   7.428  14.332   6.528
 5079POPC   C3A64073   7.491  14.345   6.991
 5079POPC   C4A64074   7.390  14.306   7.457
 5079POPC   C1B64075   7.386  14.830   6.286
 5079POPC   C2B64076   7.238  14.750   6.743
 5079POPC   C3B64077   7.064  14.592   7.155
 5079POPC   C4B64078   7.224  14.784   7.521
 5080POPC   NC364079  10.240   9.633   5.613
 5080POPC   PO464080  10.747   9.544   5.238
 5080POPC   GL164081  10.769   9.653   5.700
 5080POPC   GL264082  10.887   9.397   5.931
 5080POPC   C1A64083  10.657   9.872   6.118
 5080POPC   D2A64084  10.757   9.876   6.567
 5080POPC   C3A64085  10.518   9.963   6.936
 5080POPC   C4A64086  10.656   9.991   7.366
 5080POPC   C1B64087  10.693   9.384   6.319
 5080POPC   C2B64088  10.368   9.538   6.612
 5080POPC   C3B64089  10.336   9.483   7.063
 5080POPC   C4B64090  10.522   9.500   7.504
 5081POPC   NC364091  21.963  16.298   5.455
 5081POPC   PO464092  22.458  15.852   5.470
 5081POPC   GL164093  22.054  15.892   5.745
 5081POPC   GL264094  21.882  16.211   5.938
 5081POPC   C1A64095  21.948  15.778   6.174
 5081POPC   D2A64096  22.159  15.879   6.549
 5081POPC   C3A64097  21.934  15.892   6.936
 5081POPC   C4A64098  22.158  15.804   7.310
 5081POPC   C1B64099  22.297  16.182   6.140
 5081POPC   C2B64100  22.429  16.322   6.555
 5081POPC   C3B64101  22.398  16.098   6.949
 5081POPC   C4B64102  22.491  16.209   7.334
 5082POPC   NC364103  28.439  44.704   5.303
 5082POPC   PO464104  27.883  44.345   5.391
 5082POPC   GL164105  28.228  44.500   5.724
 5082POPC   GL264106  28.272  44.876   5.843
 5082POPC   C1A64107  28.435  44.506   6.152
 5082POPC   D2A64108  28.324  44.505   6.592
 5082POPC   C3A64109  28.573  44.643   6.929
 5082POPC   C4A64110  28.545   0.065   7.058
 5082POPC   C1B64111  28.302   0.008   6.310
 5082POPC   C2B64112  28.161  44.983   6.753
 5082POPC   C3B64113  28.115  44.759   7.173
 5082POPC   C4B64114  27.852  44.629   7.555
 5083POPC   NC364115   1.713  10.175   5.435
 5083POPC   PO464116   1.765   9.486   5.421
 5083POPC   GL164117   1.847   9.625   5.807
 5083POPC   GL264118   2.200   9.625   5.788
 5083POPC   C1A64119   1.715   9.694   6.219
 5083POPC   D2A64120   1.488   9.634   6.607
 5083POPC   C3A64121   1.733   9.835   6.916
 5083POPC   C4A64122   2.059   9.581   7.107
 5083POPC   C1B64123   2.227   9.829   6.173
 5083POPC   C2B64124   2.160   9.731   6.590
 5083POPC   C3B64125   2.432   9.874   6.922
 5083POPC   C4B64126   2.270  10.163   7.139
 5084POPC   NC364127   6.190  10.073   5.308
 5084POPC   PO464128   5.724  10.484   5.201
 5084POPC   GL164129   5.880  10.532   5.667
 5084POPC   GL264130   6.013  10.201   5.774
 5084POPC   C1A64131   5.861  10.569   6.171
 5084POPC   D2A64132   5.640  10.630   6.598
 5084POPC   C3A64133   5.760  10.561   7.047
 5084POPC   C4A64134   5.687  10.197   7.289
 5084POPC   C1B64135   6.184  10.164   6.187
 5084POPC   C2B64136   6.022  10.252   6.583
 5084POPC   C3B64137   6.211  10.538   6.814
 5084POPC   C4B64138   6.267  10.558   7.236
 5085POPC   NC364139  11.086   1.035   5.572
 5085POPC   PO464140  11.029   1.748   5.428
 5085POPC   GL164141  11.322   1.501   5.615
 5085POPC   GL264142  11.035   1.453   5.855
 5085POPC   C1A64143  11.570   1.485   6.000
 5085POPC   D2A64144  11.587   1.580   6.463
 5085POPC   C3A64145  11.544   1.290   6.817
 5085POPC   C4A64146  11.537   1.402   7.272
 5085POPC   C1B64147  11.192   1.254   6.245
 5085POPC   C2B64148  11.056   1.107   6.632
 5085POPC   C3B64149  11.119   1.165   7.063
 5085POPC   C4B64150  11.431   0.873   7.229
 5086POPC   NC364151  42.136  25.347   5.604
 5086POPC   PO464152  42.505  25.506   5.089
 5086POPC   GL164153  42.593  25.169   5.552
 5086POPC   GL264154  42.298  24.915   5.785
 5086POPC   C1A64155  42.613  25.159   6.069
 5086POPC   D2A64156  42.376  25.087   6.492
 5086POPC   C3A64157  42.578  25.041   6.921
 5086POPC   C4A64158  42.570  25.340   7.248
 5086POPC   C1B64159  41.982  24.978   6.149
 5086POPC   C2B64160  41.882  24.884   6.590
 5086POPC   C3B64161  42.053  25.057   6.963
 5086POPC   C4B64162  42.196  24.952   7.373
 5087POPC   NC364163  18.630  41.509   5.699
 5087POPC   PO464164  18.839  41.654   5.115
 5087POPC   GL164165  19.079  41.722   5.570
 5087POPC   GL264166  19.136  41.385   5.752
 5087POPC   C1A64167  19.119  41.862   6.019
 5087POPC   D2A64168  18.895  41.718   6.395
 5087POPC   C3A64169  19.038  41.828   6.794
 5087POPC   C4A64170  19.082  41.906   7.201
 5087POPC   C1B64171  19.200  41.334   6.206
 5087POPC   C2B64172  19.303  41.422   6.655
 5087POPC   C3B64173  19.045  41.403   7.085
 5087POPC   C4B64174  19.101  41.351   7.562
 5088POPC   NC364175  23.263  24.722   5.438
 5088POPC   PO464176  22.944  24.220   5.362
 5088POPC   GL164177  23.019  24.217   5.807
 5088POPC   GL264178  23.024  24.577   5.906
 5088POPC   C1A64179  22.844  24.225   6.238
 5088POPC   D2A64180  22.675  24.408   6.616
 5088POPC   C3A64181  22.848  24.452   7.027
 5088POPC   C4A64182  23.248  24.275   7.205
 5088POPC   C1B64183  22.900  24.766   6.331
 5088POPC   C2B64184  22.813  24.896   6.764
 5088POPC   C3B64185  22.912  24.976   7.198
 5088POPC   C4B64186  23.154  25.076   7.570
 5089POPC   NC364187  27.743  17.943   5.422
 5089POPC   PO464188  27.190  18.399   5.301
 5089POPC   GL164189  27.402  18.318   5.696
 5089POPC   GL264190  27.757  18.325   5.759
 5089POPC   C1A64191  27.409  18.261   6.148
 5089POPC   D2A64192  27.581  18.172   6.556
 5089POPC   C3A64193  27.466  18.308   6.955
 5089POPC   C4A64194  27.499  18.106   7.369
 5089POPC   C1B64195  27.953  18.274   6.162
 5089POPC   C2B64196  28.107  18.223   6.562
 5089POPC   C3B64197  27.982  18.293   6.998
 5089POPC   C4B64198  28.018  18.082   7.408
 5090POPC   NC364199   5.982  10.820   5.059
 5090POPC   PO464200   6.080  11.389   5.381
 5090POPC   GL164201   5.894  11.143   5.698
 5090POPC   GL264202   5.584  10.945   5.556
 5090POPC   C1A64203   6.078  11.044   6.108
 5090POPC   D2A64204   6.191  10.980   6.573
 5090POPC   C3A64205   6.203  11.234   6.982
 5090POPC   C4A64206   5.931  11.301   7.360
 5090POPC   C1B64207   5.512  10.911   6.014
 5090POPC   C2B64208   5.686  11.095   6.411
 5090POPC   C3B64209   5.731  11.074   6.861
 5090POPC   C4B64210   5.520  10.980   7.235
 5091POPC   NC364211  27.759  11.700   5.518
 5091POPC   PO464212  27.514  12.355   5.372
 5091POPC   GL164213  27.606  12.269   5.823
 5091POPC   GL264214  27.740  11.940   5.983
 5091POPC   C1A64215  27.489  12.291   6.269
 5091POPC   D2A64216  27.702  12.090   6.614
 5091POPC   C3A64217  27.603  12.187   7.044
 5091POPC   C4A64218  27.251  12.457   7.170
 5091POPC   C1B64219  27.396  11.777   6.308
 5091POPC   C2B64220  27.328  11.725   6.778
 5091POPC   C3B64221  27.540  11.618   7.163
 5091POPC   C4B64222  27.986  11.608   7.292
 5092POPC   NC364223  25.702  20.379   5.103
 5092POPC   PO464224  26.076  20.824   5.437
 5092POPC   GL164225  26.171  20.627   5.834
 5092POPC   GL264226  25.929  20.407   5.732
 5092POPC   C1A64227  26.218  20.636   6.305
 5092POPC   D2A64228  25.999  20.799   6.680
 5092POPC   C3A64229  26.039  20.604   7.070
 5092POPC   C4A64230  26.088  20.680   7.527
 5092POPC   C1B64231  25.753  20.432   6.146
 5092POPC   C2B64232  25.848  20.289   6.566
 5092POPC   C3B64233  25.631  20.268   6.953
 5092POPC   C4B64234  25.710  20.362   7.379
 5093POPC   NC364235  12.060  22.786   5.157
 5093POPC   PO464236  12.371  23.223   5.495
 5093POPC   GL164237  12.384  23.156   5.920
 5093POPC   GL264238  12.053  23.005   5.936
 5093POPC   C1A64239  12.324  23.260   6.360
 5093POPC   D2A64240  11.942  23.130   6.561
 5093POPC   C3A64241  11.960  22.824   6.903
 5093POPC   C4A64242  12.201  22.930   7.229
 5093POPC   C1B64243  12.210  22.770   6.292
 5093POPC   C2B64244  12.417  22.864   6.683
 5093POPC   C3B64245  12.442  22.510   6.960
 5093POPC   C4B64246  12.170  22.364   7.230
 5094POPC   NC364247  35.403   0.579   5.525
 5094POPC   PO464248  35.961   0.539   5.224
 5094POPC   GL164249  35.978   0.659   5.673
 5094POPC   GL264250  35.795   0.379   5.768
 5094POPC   C1A64251  36.169   0.482   6.097
 5094POPC   D2A64252  36.023   0.529   6.554
 5094POPC   C3A64253  36.291   0.392   6.918
 5094POPC   C4A64254  36.263   0.391   7.366
 5094POPC   C1B64255  35.755   0.182   6.144
 5094POPC   C2B64256  35.564   0.147   6.531
 5094POPC   C3B64257  35.815   0.183   6.890
 5094POPC   C4B64258  35.788   0.114   7.306
 5095POPC   NC364259  30.882   5.083   5.326
 5095POPC   PO464260  30.252   5.186   5.218
 5095POPC   GL164261  30.447   5.018   5.620
 5095POPC   GL264262  30.640   5.302   5.766
 5095POPC   C1A64263  30.653   4.880   6.034
 5095POPC   D2A64264  30.911   4.823   6.412
 5095POPC   C3A64265  30.756   4.910   6.799
 5095POPC   C4A64266  30.715   4.875   7.213
 5095POPC   C1B64267  30.630   5.377   6.249
 5095POPC   C2B64268  30.687   5.459   6.705
 5095POPC   C3B64269  30.953   5.324   7.033
 5095POPC   C4B64270  30.960   5.234   7.468
 5096POPC   NC364271   6.973   7.777   5.535
 5096POPC   PO464272   7.402   7.308   5.490
 5096POPC   GL164273   7.685   7.542   5.806
 5096POPC   GL264274   7.526   7.857   5.867
 5096POPC   C1A64275   7.754   7.520   6.262
 5096POPC   D2A64276   7.540   7.627   6.652
 5096POPC   C3A64277   7.713   7.414   6.993
 5096POPC   C4A64278   7.803   7.081   7.292
 5096POPC   C1B64279   7.264   7.765   6.235
 5096POPC   C2B64280   7.111   7.918   6.671
 5096POPC   C3B64281   7.191   7.642   7.028
 5096POPC   C4B64282   7.333   7.329   7.329
 5097POPC   NC364283  26.928  22.365   5.287
 5097POPC   PO464284  26.420  22.579   5.595
 5097POPC   GL164285  26.777  22.348   5.805
 5097POPC   GL264286  26.828  21.973   5.713
 5097POPC   C1A64287  26.897  22.216   6.252
 5097POPC   D2A64288  26.659  22.082   6.653
 5097POPC   C3A64289  26.739  22.307   7.032
 5097POPC   C4A64290  26.926  22.650   7.171
 5097POPC   C1B64291  27.048  21.731   6.052
 5097POPC   C2B64292  26.953  21.709   6.485
 5097POPC   C3B64293  27.090  21.862   6.882
 5097POPC   C4B64294  26.905  21.888   7.253
 5098POPC   NC364295  10.114  40.831   5.602
 5098POPC   PO464296   9.591  40.433   5.432
 5098POPC   GL164297   9.577  40.519   5.914
 5098POPC   GL264298   9.913  40.653   6.023
 5098POPC   C1A64299   9.629  40.519   6.411
 5098POPC   D2A64300   9.979  40.783   6.601
 5098POPC   C3A64301  10.111  40.579   6.995
 5098POPC   C4A64302   9.769  40.304   7.114
 5098POPC   C1B64303   9.601  40.968   6.150
 5098POPC   C2B64304   9.447  41.106   6.548
 5098POPC   C3B64305   9.553  40.837   6.876
 5098POPC   C4B64306   9.779  40.875   7.245
 5099POPC   NC364307  16.637  28.498   5.297
 5099POPC   PO464308  16.584  27.855   5.506
 5099POPC   GL164309  16.627  28.251   5.749
 5099POPC   GL264310  16.959  28.382   5.783
 5099POPC   C1A64311  16.593  28.582   6.098
 5099POPC   D2A64312  16.548  28.405   6.528
 5099POPC   C3A64313  16.815  28.504   6.907
 5099POPC   C4A64314  16.674  28.420   7.340
 5099POPC   C1B64315  16.983  28.288   6.248
 5099POPC   C2B64316  16.976  28.040   6.644
 5099POPC   C3B64317  16.855  28.004   7.099
 5099POPC   C4B64318  17.054  28.133   7.495
 5100POPC   NC364319  38.419  37.414   5.492
 5100POPC   PO464320  37.945  37.997   5.346
 5100POPC   GL164321  38.249  37.857   5.727
 5100POPC   GL264322  38.161  37.567   5.892
 5100POPC   C1A64323  38.621  37.756   6.092
 5100POPC   D2A64324  38.677  37.508   6.523
 5100POPC   C3A64325  38.709  37.636   6.994
 5100POPC   C4A64326  38.609  37.364   7.376
 5100POPC   C1B64327  38.153  37.774   6.278
 5100POPC   C2B64328  38.203  37.656   6.673
 5100POPC   C3B64329  38.257  37.422   7.007
 5100POPC   C4B64330  38.192  37.686   7.315
 5101POPC   NC364331  36.998  16.495   5.332
 5101POPC   PO464332  36.595  17.007   5.403
 5101POPC   GL164333  36.861  16.798   5.719
 5101POPC   GL264334  36.716  16.474   5.781
 5101POPC   C1A64335  37.097  16.793   6.084
 5101POPC   D2A64336  36.940  16.696   6.482
 5101POPC   C3A64337  37.072  16.870   6.856
 5101POPC   C4A64338  36.952  16.873   7.270
 5101POPC   C1B64339  36.539  16.370   6.190
 5101POPC   C2B64340  36.338  16.239   6.558
 5101POPC   C3B64341  36.504  16.350   6.963
 5101POPC   C4B64342  36.697  16.285   7.364
 5102POPC   NC364343  35.906  42.085   5.431
 5102POPC   PO464344  36.350  42.587   5.260
 5102POPC   GL164345  36.310  42.356   5.667
 5102POPC   GL264346  36.529  42.054   5.688
 5102POPC   C1A64347  36.282  42.375   6.135
 5102POPC   D2A64348  36.026  42.443   6.514
 5102POPC   C3A64349  36.236  42.531   6.875
 5102POPC   C4A64350  36.239  42.379   7.258
 5102POPC   C1B64351  36.385  41.849   6.077
 5102POPC   C2B64352  36.256  41.963   6.500
 5102POPC   C3B64353  36.417  42.052   6.897
 5102POPC   C4B64354  36.426  41.923   7.320
 5103POPC   NC364355   9.520   0.433   5.115
 5103POPC   PO464356   8.904   0.347   5.415
 5103POPC   GL164357   8.711   0.412   5.773
 5103POPC   GL264358   8.554   0.080   5.765
 5103POPC   C1A64359   8.920   0.584   6.166
 5103POPC   D2A64360   9.260   0.663   6.490
 5103POPC   C3A64361   9.094   0.554   6.925
 5103POPC   C4A64362   8.687   0.559   7.189
 5103POPC   C1B64363   8.895   0.074   6.103
 5103POPC   C2B64364   9.005   0.223   6.520
 5103POPC   C3B64365   8.743   0.177   6.860
 5103POPC   C4B64366   8.711  44.983   7.215
 5104POPC   NC364367  21.404  35.995   5.431
 5104POPC   PO464368  20.811  36.417   5.572
 5104POPC   GL164369  21.239  36.260   5.825
 5104POPC   GL264370  21.631  36.293   5.804
 5104POPC   C1A64371  21.396  35.982   6.192
 5104POPC   D2A64372  21.270  36.205   6.583
 5104POPC   C3A64373  21.186  35.989   6.963
 5104POPC   C4A64374  21.541  35.907   7.205
 5104POPC   C1B64375  21.626  36.428   6.247
 5104POPC   C2B64376  21.719  36.561   6.668
 5104POPC   C3B64377  21.515  36.405   7.013
 5104POPC   C4B64378  21.650  36.359   7.402
 5105POPC   NC364379  35.979  37.639   5.431
 5105POPC   PO464380  36.600  37.278   5.537
 5105POPC   GL164381  36.325  37.565   5.833
 5105POPC   GL264382  36.090  37.879   5.865
 5105POPC   C1A64383  36.169  37.547   6.255
 5105POPC   D2A64384  36.419  37.492   6.603
 5105POPC   C3A64385  36.127  37.523   6.919
 5105POPC   C4A64386  36.034  37.839   7.179
 5105POPC   C1B64387  35.935  38.013   6.280
 5105POPC   C2B64388  35.794  38.005   6.730
 5105POPC   C3B64389  35.841  38.283   7.095
 5105POPC   C4B64390  35.884  38.137   7.574
 5106POPC   NC364391  28.835  42.834   5.155
 5106POPC   PO464392  29.240  42.312   5.442
 5106POPC   GL164393  29.057  42.298   5.897
 5106POPC   GL264394  29.000  41.966   6.068
 5106POPC   C1A64395  28.831  42.484   6.256
 5106POPC   D2A64396  29.034  42.664   6.626
 5106POPC   C3A64397  29.018  42.429   6.992
 5106POPC   C4A64398  29.349  42.266   7.267
 5106POPC   C1B64399  29.147  42.156   6.488
 5106POPC   C2B64400  29.476  42.375   6.771
 5106POPC   C3B64401  29.786  42.478   7.123
 5106POPC   C4B64402  29.658  42.564   7.575
 5107POPC   NC364403  17.768  24.844   5.478
 5107POPC   PO464404  17.629  24.278   5.134
 5107POPC   GL164405  17.531  24.346   5.607
 5107POPC   GL264406  17.282  24.583   5.737
 5107POPC   C1A64407  17.502  24.288   6.078
 5107POPC   D2A64408  17.695  24.437   6.439
 5107POPC   C3A64409  17.585  24.194   6.780
 5107POPC   C4A64410  17.788  24.254   7.117
 5107POPC   C1B64411  17.496  24.807   6.097
 5107POPC   C2B64412  17.453  24.910   6.527
 5107POPC   C3B64413  17.650  24.744   6.887
 5107POPC   C4B64414  17.414  24.596   7.212
 5108POPC   NC364415  17.069  12.589   5.416
 5108POPC   PO464416  16.494  12.974   5.383
 5108POPC   GL164417  16.657  12.938   5.791
 5108POPC   GL264418  16.739  12.615   5.829
 5108POPC   C1A64419  16.697  12.974   6.236
 5108POPC   D2A64420  16.560  12.815   6.621
 5108POPC   C3A64421  16.758  12.971   6.953
 5108POPC   C4A64422  16.895  12.716   7.279
 5108POPC   C1B64423  16.375  12.595   6.101
 5108POPC   C2B64424  16.118  12.628   6.460
 5108POPC   C3B64425  16.189  12.562   6.897
 5108POPC   C4B64426  16.394  12.751   7.238
 5109POPC   NC364427  40.661  15.516   5.473
 5109POPC   PO464428  40.926  16.122   5.379
 5109POPC   GL164429  40.771  15.921   5.754
 5109POPC   GL264430  41.015  15.685   5.840
 5109POPC   C1A64431  40.731  15.992   6.199
 5109POPC   D2A64432  40.772  15.815   6.635
 5109POPC   C3A64433  40.441  16.043   6.819
 5109POPC   C4A64434  40.315  16.135   7.199
 5109POPC   C1B64435  41.147  15.707   6.289
 5109POPC   C2B64436  41.341  15.830   6.696
 5109POPC   C3B64437  41.168  16.091   6.987
 5109POPC   C4B64438  40.809  15.954   7.188
 5110POPC   NC364439   6.642  19.572   5.586
 5110POPC   PO464440   6.376  20.147   5.471
 5110POPC   GL164441   6.665  20.041   5.827
 5110POPC   GL264442   7.034  20.091   5.814
 5110POPC   C1A64443   6.772  19.835   6.209
 5110POPC   D2A64444   6.644  19.848   6.634
 5110POPC   C3A64445   6.741  19.619   7.001
 5110POPC   C4A64446   6.397  19.826   7.184
 5110POPC   C1B64447   7.053  20.299   6.202
 5110POPC   C2B64448   6.862  20.320   6.589
 5110POPC   C3B64449   6.907  20.134   6.969
 5110POPC   C4B64450   6.860  20.202   7.373
 5111POPC   NC364451   8.605   9.668   5.186
 5111POPC   PO464452   8.091  10.006   5.311
 5111POPC   GL164453   8.168   9.781   5.667
 5111POPC   GL264454   7.988   9.464   5.706
 5111POPC   C1A64455   8.231   9.895   6.086
 5111POPC   D2A64456   8.115   9.686   6.509
 5111POPC   C3A64457   8.310   9.775   6.862
 5111POPC   C4A64458   8.273   9.637   7.267
 5111POPC   C1B64459   8.210   9.393   6.103
 5111POPC   C2B64460   8.422   9.276   6.496
 5111POPC   C3B64461   8.661   9.396   6.872
 5111POPC   C4B64462   8.600   9.229   7.293
 5112POPC   NC364463  28.882  39.357   5.475
 5112POPC   PO464464  29.597  39.097   5.455
 5112POPC   GL164465  29.363  39.306   5.743
 5112POPC   GL264466  29.165  39.006   5.783
 5112POPC   C1A64467  29.287  39.556   6.129
 5112POPC   D2A64468  29.406  39.652   6.551
 5112POPC   C3A64469  29.083  39.605   6.896
 5112POPC   C4A64470  29.167  39.427   7.300
 5112POPC   C1B64471  29.292  39.057   6.207
 5112POPC   C2B64472  29.164  39.186   6.600
 5112POPC   C3B64473  29.108  39.021   6.999
 5112POPC   C4B64474  28.959  38.913   7.429
 5113POPC   NC364475  37.144  36.117   5.460
 5113POPC   PO464476  36.523  36.389   5.521
 5113POPC   GL164477  36.727  36.060   5.814
 5113POPC   GL264478  37.063  36.057   5.944
 5113POPC   C1A64479  36.686  35.989   6.275
 5113POPC   D2A64480  36.513  36.233   6.621
 5113POPC   C3A64481  36.593  36.055   7.022
 5113POPC   C4A64482  36.597  36.303   7.390
 5113POPC   C1B64483  37.211  35.821   6.252
 5113POPC   C2B64484  37.063  35.780   6.634
 5113POPC   C3B64485  37.139  36.003   7.012
 5113POPC   C4B64486  37.434  35.987   7.393
 5114POPC   NC364487  33.256   5.077   5.476
 5114POPC   PO464488  32.614   5.088   5.597
 5114POPC   GL164489  32.873   4.931   5.940
 5114POPC   GL264490  33.183   4.740   5.862
 5114POPC   C1A64491  32.958   5.131   6.337
 5114POPC   D2A64492  32.761   5.248   6.702
 5114POPC   C3A64493  33.049   5.253   7.014
 5114POPC   C4A64494  33.011   5.568   7.320
 5114POPC   C1B64495  33.395   4.914   6.210
 5114POPC   C2B64496  33.478   5.146   6.624
 5114POPC   C3B64497  33.533   5.085   7.080
 5114POPC   C4B64498  33.325   5.191   7.494
 5115POPC   NC364499  28.301   9.504   5.447
 5115POPC   PO464500  28.223  10.249   5.447
 5115POPC   GL164501  28.386  10.077   5.820
 5115POPC   GL264502  28.138   9.834   5.802
 5115POPC   C1A64503  28.504   9.801   6.184
 5115POPC   D2A64504  28.412   9.486   6.505
 5115POPC   C3A64505  28.446   9.650   6.927
 5115POPC   C4A64506  28.312  10.024   7.088
 5115POPC   C1B64507  27.996   9.666   6.190
 5115POPC   C2B64508  28.037   9.823   6.603
 5115POPC   C3B64509  27.924   9.616   6.968
 5115POPC   C4B64510  28.109   9.580   7.324
 5116POPC   NC364511   0.579   9.561   5.444
 5116POPC   PO464512   0.243  10.098   5.464
 5116POPC   GL164513   0.358   9.837   5.816
 5116POPC   GL264514   0.162   9.563   5.864
 5116POPC   C1A64515   0.598   9.652   6.185
 5116POPC   D2A64516   0.638   9.367   6.539
 5116POPC   C3A64517   0.666   9.562   6.923
 5116POPC   C4A64518   0.509   9.898   7.138
 5116POPC   C1B64519   0.111   9.812   6.264
 5116POPC   C2B64520   0.252   9.820   6.685
 5116POPC   C3B64521   0.032   9.745   7.074
 5116POPC   C4B64522   0.156   9.775   7.527
 5117POPC   NC364523  16.326  22.799   5.600
 5117POPC   PO464524  15.713  23.007   5.404
 5117POPC   GL164525  15.842  23.121   5.795
 5117POPC   GL264526  15.875  22.799   5.865
 5117POPC   C1A64527  16.111  23.111   6.196
 5117POPC   D2A64528  16.274  22.964   6.607
 5117POPC   C3A64529  16.088  23.104   6.997
 5117POPC   C4A64530  16.038  23.281   7.426
 5117POPC   C1B64531  15.816  22.637   6.259
 5117POPC   C2B64532  15.847  22.689   6.679
 5117POPC   C3B64533  16.053  22.603   7.007
 5117POPC   C4B64534  15.808  22.816   7.308
 5118POPC   NC364535  18.032  18.551   5.272
 5118POPC   PO464536  18.493  18.083   5.431
 5118POPC   GL164537  18.184  18.290   5.687
 5118POPC   GL264538  18.461  18.504   5.750
 5118POPC   C1A64539  18.108  18.422   6.114
 5118POPC   D2A64540  18.204  18.146   6.469
 5118POPC   C3A64541  18.046  18.189   6.878
 5118POPC   C4A64542  18.004  18.526   7.136
 5118POPC   C1B64543  18.592  18.224   6.103
 5118POPC   C2B64544  18.673  18.324   6.557
 5118POPC   C3B64545  18.536  18.087   6.936
 5118POPC   C4B64546  18.438  18.047   7.376
 5119POPC   NC364547  11.592  43.206   5.353
 5119POPC   PO464548  11.143  42.826   5.522
 5119POPC   GL164549  11.383  43.034   5.797
 5119POPC   GL264550  11.210  43.351   5.739
 5119POPC   C1A64551  11.570  42.969   6.181
 5119POPC   D2A64552  11.458  43.178   6.554
 5119POPC   C3A64553  11.456  42.947   6.916
 5119POPC   C4A64554  11.092  42.918   7.172
 5119POPC   C1B64555  11.327  43.493   6.165
 5119POPC   C2B64556  11.172  43.592   6.600
 5119POPC   C3B64557  11.258  43.433   7.036
 5119POPC   C4B64558  11.210  43.701   7.440
 5120POPC   NC364559  40.635  31.104   5.452
 5120POPC   PO464560  40.911  31.775   5.430
 5120POPC   GL164561  40.892  31.476   5.743
 5120POPC   GL264562  40.548  31.573   5.812
 5120POPC   C1A64563  40.949  31.530   6.189
 5120POPC   D2A64564  40.750  31.660   6.581
 5120POPC   C3A64565  40.945  31.660   6.995
 5120POPC   C4A64566  40.685  31.647   7.352
 5120POPC   C1B64567  40.487  31.328   6.190
 5120POPC   C2B64568  40.764  31.139   6.498
 5120POPC   C3B64569  40.628  31.255   6.896
 5120POPC   C4B64570  40.860  31.186   7.232
 5121POPC   NC364571  35.671  31.424   5.527
 5121POPC   PO464572  35.174  31.772   5.352
 5121POPC   GL164573  35.272  31.718   5.805
 5121POPC   GL264574  35.611  31.867   5.824
 5121POPC   C1A64575  35.195  31.390   6.157
 5121POPC   D2A64576  34.984  31.338   6.561
 5121POPC   C3A64577  35.144  31.161   6.921
 5121POPC   C4A64578  35.147  31.335   7.283
 5121POPC   C1B64579  35.674  31.580   6.190
 5121POPC   C2B64580  35.519  31.368   6.576
 5121POPC   C3B64581  35.451  31.590   6.947
 5121POPC   C4B64582  35.794  31.765   7.201
 5122POPC   NC364583  44.248  26.564   5.388
 5122POPC   PO464584  43.713  27.056   5.384
 5122POPC   GL164585  43.977  26.895   5.733
 5122POPC   GL264586  43.851  26.602   5.847
 5122POPC   C1A64587  43.926  27.112   6.135
 5122POPC   D2A64588  43.803  26.907   6.520
 5122POPC   C3A64589  44.025  26.974   6.900
 5122POPC   C4A64590  43.862  26.950   7.287
 5122POPC   C1B64591  44.165  26.673   6.201
 5122POPC   C2B64592  44.173  26.537   6.638
 5122POPC   C3B64593  44.008  26.478   7.069
 5122POPC   C4B64594  44.121  26.565   7.506
 5123POPC   NC364595   4.805   3.897   5.413
 5123POPC   PO464596   4.179   3.661   5.392
 5123POPC   GL164597   4.300   3.685   5.836
 5123POPC   GL264598   4.353   3.355   6.062
 5123POPC   C1A64599   4.073   3.747   6.222
 5123POPC   D2A64600   4.038   3.435   6.557
 5123POPC   C3A64601   4.243   3.508   6.958
 5123POPC   C4A64602   4.179   3.526   7.408
 5123POPC   C1B64603   4.613   3.148   6.406
 5123POPC   C2B64604   4.708   3.212   6.848
 5123POPC   C3B64605   4.666   3.423   7.269
 5123POPC   C4B64606   4.595   3.695   7.662
 5124POPC   NC364607   3.767  37.242   5.481
 5124POPC   PO464608   3.450  36.601   5.256
 5124POPC   GL164609   3.611  36.709   5.736
 5124POPC   GL264610   3.323  36.798   5.910
 5124POPC   C1A64611   3.689  36.832   6.240
 5124POPC   D2A64612   3.894  36.910   6.646
 5124POPC   C3A64613   3.730  37.039   7.056
 5124POPC   C4A64614   3.927  36.910   7.450
 5124POPC   C1B64615   3.238  37.106   6.220
 5124POPC   C2B64616   3.410  37.138   6.634
 5124POPC   C3B64617   3.232  36.986   7.024
 5124POPC   C4B64618   3.362  36.922   7.485
 5125POPC   NC364619  16.429  24.320   5.156
 5125POPC   PO464620  16.045  23.938   5.557
 5125POPC   GL164621  15.973  24.430   5.690
 5125POPC   GL264622  16.142  24.770   5.698
 5125POPC   C1A64623  15.797  24.595   6.081
 5125POPC   D2A64624  15.913  24.312   6.423
 5125POPC   C3A64625  15.708  24.301   6.800
 5125POPC   C4A64626  15.813  24.259   7.240
 5125POPC   C1B64627  16.226  24.867   6.165
 5125POPC   C2B64628  16.056  24.800   6.613
 5125POPC   C3B64629  15.888  24.717   7.068
 5125POPC   C4B64630  16.152  24.614   7.463
 5126POPC   NC364631  35.928  26.375   5.409
 5126POPC   PO464632  36.475  26.022   5.393
 5126POPC   GL164633  36.116  25.971   5.726
 5126POPC   GL264634  35.941  25.640   5.802
 5126POPC   C1A64635  36.083  26.220   6.138
 5126POPC   D2A64636  36.096  26.444   6.577
 5126POPC   C3A64637  35.954  26.203   6.963
 5126POPC   C4A64638  36.134  26.036   7.338
 5126POPC   C1B64639  36.181  25.697   6.184
 5126POPC   C2B64640  36.256  25.951   6.548
 5126POPC   C3B64641  36.246  25.777   6.922
 5126POPC   C4B64642  36.491  25.675   7.282
 5127POPC   NC364643  41.423  34.387   5.470
 5127POPC   PO464644  41.767  34.974   5.315
 5127POPC   GL164645  41.474  34.842   5.675
 5127POPC   GL264646  41.763  34.642   5.796
 5127POPC   C1A64647  41.321  34.654   6.095
 5127POPC   D2A64648  41.278  34.417   6.494
 5127POPC   C3A64649  41.342  34.649   6.906
 5127POPC   C4A64650  41.539  34.986   7.176
 5127POPC   C1B64651  41.728  34.355   6.161
 5127POPC   C2B64652  41.774  34.464   6.597
 5127POPC   C3B64653  41.698  34.261   6.992
 5127POPC   C4B64654  41.678  34.526   7.360
 5128POPC   NC364655  27.022  34.715   5.359
 5128POPC   PO464656  26.649  34.099   5.416
 5128POPC   GL164657  26.870  34.406   5.770
 5128POPC   GL264658  26.832  34.801   5.821
 5128POPC   C1A64659  26.953  34.561   6.235
 5128POPC   D2A64660  26.658  34.547   6.582
 5128POPC   C3A64661  26.869  34.568   6.954
 5128POPC   C4A64662  26.964  34.361   7.357
 5128POPC   C1B64663  26.624  34.955   6.224
 5128POPC   C2B64664  26.795  35.059   6.657
 5128POPC   C3B64665  26.735  35.025   7.116
 5128POPC   C4B64666  26.688  35.014   7.577
 5129POPC   NC364667  32.456  38.392   5.419
 5129POPC   PO464668  31.705  38.690   5.313
 5129POPC   GL164669  31.988  38.667   5.663
 5129POPC   GL264670  32.038  38.309   5.733
 5129POPC   C1A64671  32.140  38.658   6.103
 5129POPC   D2A64672  31.959  38.536   6.527
 5129POPC   C3A64673  32.242  38.618   6.862
 5129POPC   C4A64674  32.376  38.566   7.254
 5129POPC   C1B64675  31.975  38.186   6.151
 5129POPC   C2B64676  31.899  38.034   6.593
 5129POPC   C3B64677  31.876  38.278   6.995
 5129POPC   C4B64678  31.843  38.196   7.453
 5130POPC   NC364679   3.562   0.207   5.384
 5130POPC   PO464680   3.650  44.493   5.457
 5130POPC   GL164681   3.557  44.598   5.868
 5130POPC   GL264682   3.490  44.928   5.811
 5130POPC   C1A64683   3.582  44.608   6.334
 5130POPC   D2A64684   3.362  44.439   6.716
 5130POPC   C3A64685   3.407  44.697   7.086
 5130POPC   C4A64686   3.771  44.970   7.164
 5130POPC   C1B64687   3.311   0.028   6.212
 5130POPC   C2B64688   3.393  44.996   6.667
 5130POPC   C3B64689   3.324   0.221   7.083
 5130POPC   C4B64690   3.396   0.031   7.489
 5131POPC   NC364691  38.517   1.401   5.367
 5131POPC   PO464692  38.068   0.948   5.397
 5131POPC   GL164693  38.365   1.017   5.806
 5131POPC   GL264694  38.552   1.333   5.858
 5131POPC   C1A64695  38.462   1.119   6.293
 5131POPC   D2A64696  38.607   0.874   6.658
 5131POPC   C3A64697  38.496   1.107   7.023
 5131POPC   C4A64698  38.768   1.426   7.186
 5131POPC   C1B64699  38.121   1.412   6.032
 5131POPC   C2B64700  38.133   1.475   6.475
 5131POPC   C3B64701  38.302   1.554   6.876
 5131POPC   C4B64702  38.117   1.448   7.269
 5132POPC   NC364703  16.466  34.924   5.507
 5132POPC   PO464704  15.825  34.653   5.494
 5132POPC   GL164705  15.859  34.482   5.893
 5132POPC   GL264706  15.661  34.193   5.846
 5132POPC   C1A64707  15.974  34.637   6.261
 5132POPC   D2A64708  15.828  34.944   6.485
 5132POPC   C3A64709  15.721  34.844   6.886
 5132POPC   C4A64710  15.949  34.589   7.177
 5132POPC   C1B64711  15.789  34.122   6.286
 5132POPC   C2B64712  15.723  33.956   6.713
 5132POPC   C3B64713  15.930  34.079   7.107
 5132POPC   C4B64714  15.795  34.240   7.520
 5133POPC   NC364715   9.619  42.766   5.641
 5133POPC   PO464716   9.658  43.253   5.179
 5133POPC   GL164717   9.610  43.308   5.638
 5133POPC   GL264718   9.925  43.174   5.759
 5133POPC   C1A64719   9.555  43.253   6.119
 5133POPC   D2A64720   9.501  42.930   6.475
 5133POPC   C3A64721   9.598  43.063   6.912
 5133POPC   C4A64722   9.780  43.107   7.333
 5133POPC   C1B64723   9.970  42.925   6.176
 5133POPC   C2B64724   9.989  42.744   6.598
 5133POPC   C3B64725  10.090  42.879   7.007
 5133POPC   C4B64726  10.242  42.836   7.429
 5134POPC   NC364727   2.848  21.678   5.626
 5134POPC   PO464728   2.506  22.174   5.311
 5134POPC   GL164729   2.608  22.318   5.767
 5134POPC   GL264730   2.522  22.005   5.926
 5134POPC   C1A64731   2.935  22.245   6.139
 5134POPC   D2A64732   2.799  21.997   6.468
 5134POPC   C3A64733   2.926  22.069   6.943
 5134POPC   C4A64734   3.040  21.990   7.379
 5134POPC   C1B64735   2.470  22.371   6.259
 5134POPC   C2B64736   2.650  22.426   6.689
 5134POPC   C3B64737   2.510  22.386   7.107
 5134POPC   C4B64738   2.362  22.105   7.404
 5135POPC   NC364739   5.172  28.672   5.383
 5135POPC   PO464740   4.697  28.172   5.431
 5135POPC   GL164741   4.908  28.443   5.768
 5135POPC   GL264742   5.279  28.476   5.835
 5135POPC   C1A64743   4.947  28.677   6.160
 5135POPC   D2A64744   5.255  28.548   6.455
 5135POPC   C3A64745   5.145  28.345   6.828
 5135POPC   C4A64746   5.095  28.522   7.212
 5135POPC   C1B64747   5.634  28.533   6.103
 5135POPC   C2B64748   5.780  28.570   6.525
 5135POPC   C3B64749   5.575  28.625   6.908
 5135POPC   C4B64750   5.609  28.441   7.284
 5136POPC   NC364751  16.080  16.508   5.413
 5136POPC   PO464752  15.761  16.926   5.674
 5136POPC   GL164753  16.011  16.853   6.007
 5136POPC   GL264754  16.192  16.546   5.904
 5136POPC   C1A64755  15.870  16.953   6.424
 5136POPC   D2A64756  15.676  16.664   6.733
 5136POPC   C3A64757  15.864  16.824   7.079
 5136POPC   C4A64758  16.259  16.947   7.160
 5136POPC   C1B64759  15.982  16.454   6.298
 5136POPC   C2B64760  16.201  16.621   6.644
 5136POPC   C3B64761  16.235  16.445   6.998
 5136POPC   C4B64762  15.878  16.305   7.166
 5137POPC   NC364763  27.934  42.970   5.372
 5137POPC   PO464764  27.360  43.133   5.320
 5137POPC   GL164765  27.562  43.114   5.745
 5137POPC   GL264766  27.662  42.805   5.815
 5137POPC   C1A64767  27.733  43.145   6.187
 5137POPC   D2A64768  27.641  43.229   6.629
 5137POPC   C3A64769  27.912  42.986   6.907
 5137POPC   C4A64770  27.783  43.218   7.264
 5137POPC   C1B64771  27.368  42.750   6.195
 5137POPC   C2B64772  27.466  42.766   6.640
 5137POPC   C3B64773  27.437  42.887   7.057
 5137POPC   C4B64774  27.363  42.643   7.389
 5138POPC   NC364775  12.730  25.275   5.482
 5138POPC   PO464776  13.355  25.121   5.559
 5138POPC   GL164777  13.052  25.269   5.862
 5138POPC   GL264778  13.094  25.603   5.855
 5138POPC   C1A64779  12.889  25.059   6.238
 5138POPC   D2A64780  13.193  25.000   6.590
 5138POPC   C3A64781  12.986  25.067   6.970
 5138POPC   C4A64782  12.601  24.868   7.094
 5138POPC   C1B64783  12.734  25.581   6.129
 5138POPC   C2B64784  12.705  25.460   6.557
 5138POPC   C3B64785  12.581  25.396   6.968
 5138POPC   C4B64786  12.873  25.552   7.233
 5139POPC   NC364787  41.627   1.381   5.713
 5139POPC   PO464788  41.014   1.416   5.452
 5139POPC   GL164789  41.170   1.130   5.810
 5139POPC   GL264790  41.483   0.877   5.784
 5139POPC   C1A64791  41.301   1.187   6.251
 5139POPC   D2A64792  41.450   1.503   6.572
 5139POPC   C3A64793  41.494   1.339   7.010
 5139POPC   C4A64794  41.871   1.216   7.243
 5139POPC   C1B64795  41.713   0.883   6.184
 5139POPC   C2B64796  41.641   1.020   6.617
 5139POPC   C3B64797  41.630   0.816   7.028
 5139POPC   C4B64798  41.450   0.972   7.406
 5140POPC   NC364799   8.575  27.152   5.407
 5140POPC   PO464800   8.752  26.486   5.477
 5140POPC   GL164801   8.910  26.626   5.867
 5140POPC   GL264802   8.801  26.944   5.821
 5140POPC   C1A64803   9.017  26.865   6.269
 5140POPC   D2A64804   9.079  27.091   6.667
 5140POPC   C3A64805   9.101  26.793   6.997
 5140POPC   C4A64806   8.831  26.476   7.126
 5140POPC   C1B64807   8.542  27.073   6.202
 5140POPC   C2B64808   8.556  27.232   6.651
 5140POPC   C3B64809   8.790  27.238   7.071
 5140POPC   C4B64810   8.987  27.028   7.437
 5141POPC   NC364811  36.552  20.816   5.309
 5141POPC   PO464812  37.195  20.752   5.366
 5141POPC   GL164813  36.871  20.707   5.707
 5141POPC   GL264814  36.910  20.369   5.793
 5141POPC   C1A64815  36.727  20.730   6.154
 5141POPC   D2A64816  36.793  20.973   6.548
 5141POPC   C3A64817  36.773  20.840   7.001
 5141POPC   C4A64818  36.660  20.719   7.458
 5141POPC   C1B64819  36.858  20.255   6.235
 5141POPC   C2B64820  36.836  20.440   6.666
 5141POPC   C3B64821  36.675  20.320   7.081
 5141POPC   C4B64822  36.756  20.230   7.495
 5142POPC   NC364823  33.084   0.833   5.120
 5142POPC   PO464824  32.811   1.330   5.610
 5142POPC   GL164825  33.023   1.286   5.978
 5142POPC   GL264826  32.969   0.944   6.052
 5142POPC   C1A64827  33.058   1.497   6.375
 5142POPC   D2A64828  32.890   1.522   6.788
 5142POPC   C3A64829  33.160   1.318   7.122
 5142POPC   C4A64830  33.359   1.345   7.560
 5142POPC   C1B64831  33.379   1.023   6.235
 5142POPC   C2B64832  33.313   1.123   6.638
 5142POPC   C3B64833  33.342   0.862   6.950
 5142POPC   C4B64834  33.530   0.926   7.269
 5143POPC   NC364835  27.212  41.883   5.452
 5143POPC   PO464836  27.662  41.250   5.527
 5143POPC   GL164837  27.696  41.520   5.871
 5143POPC   GL264838  27.789  41.862   5.809
 5143POPC   C1A64839  27.484  41.541   6.247
 5143POPC   D2A64840  27.189  41.484   6.572
 5143POPC   C3A64841  27.476  41.530   6.904
 5143POPC   C4A64842  27.598  41.365   7.248
 5143POPC   C1B64843  27.947  41.964   6.226
 5143POPC   C2B64844  27.841  41.765   6.605
 5143POPC   C3B64845  27.810  41.928   7.014
 5143POPC   C4B64846  27.914  41.752   7.389
 5144POPC   NC364847  21.174  18.871   5.307
 5144POPC   PO464848  21.602  19.464   5.284
 5144POPC   GL164849  21.548  19.092   5.657
 5144POPC   GL264850  21.280  18.840   5.796
 5144POPC   C1A64851  21.543  19.082   6.147
 5144POPC   D2A64852  21.367  19.016   6.600
 5144POPC   C3A64853  21.567  19.216   6.952
 5144POPC   C4A64854  21.780  18.985   7.209
 5144POPC   C1B64855  21.101  18.792   6.212
 5144POPC   C2B64856  21.112  18.583   6.608
 5144POPC   C3B64857  21.054  18.771   6.989
 5144POPC   C4B64858  21.279  18.948   7.350
 5145POPC   NC364859  32.190  27.279   5.359
 5145POPC   PO464860  32.194  27.870   5.070
 5145POPC   GL164861  32.054  27.712   5.603
 5145POPC   GL264862  32.085  27.951   5.906
 5145POPC   C1A64863  31.975  27.490   6.046
 5145POPC   D2A64864  31.949  27.446   6.510
 5145POPC   C3A64865  31.946  27.743   6.857
 5145POPC   C4A64866  32.150  27.599   7.223
 5145POPC   C1B64867  32.392  27.726   6.236
 5145POPC   C2B64868  32.451  27.464   6.645
 5145POPC   C3B64869  32.632  27.447   7.066
 5145POPC   C4B64870  32.650  27.797   7.342
 5146POPC   NC364871  36.066  28.042   5.243
 5146POPC   PO464872  36.315  28.657   5.399
 5146POPC   GL164873  36.263  28.231   5.674
 5146POPC   GL264874  35.877  28.167   5.733
 5146POPC   C1A64875  36.441  28.114   6.085
 5146POPC   D2A64876  36.384  28.348   6.473
 5146POPC   C3A64877  36.087  28.243   6.794
 5146POPC   C4A64878  36.134  28.135   7.220
 5146POPC   C1B64879  36.032  28.442   6.099
 5146POPC   C2B64880  36.106  28.784   6.447
 5146POPC   C3B64881  36.004  28.760   6.899
 5146POPC   C4B64882  35.890  28.568   7.328
 5147POPC   NC364883  26.562  26.578   5.473
 5147POPC   PO464884  27.132  27.056   5.469
 5147POPC   GL164885  26.895  26.807   5.834
 5147POPC   GL264886  26.776  26.427   5.893
 5147POPC   C1A64887  26.808  26.737   6.296
 5147POPC   D2A64888  26.569  26.753   6.681
 5147POPC   C3A64889  26.663  27.005   7.027
 5147POPC   C4A64890  27.041  27.208   7.152
 5147POPC   C1B64891  27.122  26.349   6.145
 5147POPC   C2B64892  27.255  26.507   6.572
 5147POPC   C3B64893  27.001  26.554   6.941
 5147POPC   C4B64894  27.038  26.293   7.299
 5148POPC   NC364895   2.302  14.037   5.504
 5148POPC   PO464896   1.939  14.627   5.401
 5148POPC   GL164897   1.898  14.406   5.774
 5148POPC   GL264898   1.579  14.615   5.821
 5148POPC   C1A64899   2.187  14.328   6.161
 5148POPC   D2A64900   2.172  14.097   6.554
 5148POPC   C3A64901   2.230  14.314   6.948
 5148POPC   C4A64902   2.240  14.153   7.368
 5148POPC   C1B64903   1.806  14.646   6.208
 5148POPC   C2B64904   2.017  14.628   6.564
 5148POPC   C3B64905   1.921  14.743   6.956
 5148POPC   C4B64906   2.074  14.629   7.351
 5149POPC   NC364907  42.247  12.222   5.317
 5149POPC   PO464908  42.330  11.545   5.405
 5149POPC   GL164909  42.363  11.887   5.720
 5149POPC   GL264910  42.136  12.180   5.796
 5149POPC   C1A64911  42.268  11.888   6.185
 5149POPC   D2A64912  42.547  12.059   6.483
 5149POPC   C3A64913  42.401  11.905   6.858
 5149POPC   C4A64914  42.640  12.012   7.197
 5149POPC   C1B64915  42.217  12.389   6.174
 5149POPC   C2B64916  42.165  12.360   6.601
 5149POPC   C3B64917  42.327  12.385   6.992
 5149POPC   C4B64918  42.119  12.456   7.335
 5150POPC   NC364919   2.721  15.466   5.368
 5150POPC   PO464920   2.660  16.130   5.414
 5150POPC   GL164921   2.574  15.885   5.775
 5150POPC   GL264922   2.889  15.748   5.768
 5150POPC   C1A64923   2.450  15.908   6.214
 5150POPC   D2A64924   2.726  15.941   6.577
 5150POPC   C3A64925   2.632  16.031   6.994
 5150POPC   C4A64926   2.937  16.299   7.170
 5150POPC   C1B64927   2.846  15.591   6.187
 5150POPC   C2B64928   3.001  15.498   6.604
 5150POPC   C3B64929   3.037  15.692   7.024
 5150POPC   C4B64930   2.805  15.654   7.391
 5151POPC   NC364931   3.910  38.818   5.509
 5151POPC   PO464932   4.277  38.382   5.198
 5151POPC   GL164933   4.257  38.386   5.679
 5151POPC   GL264934   4.313  38.703   5.793
 5151POPC   C1A64935   4.269  38.409   6.195
 5151POPC   D2A64936   4.584  38.607   6.518
 5151POPC   C3A64937   4.620  38.533   6.981
 5151POPC   C4A64938   4.499  38.388   7.425
 5151POPC   C1B64939   4.057  38.902   6.133
 5151POPC   C2B64940   3.895  38.670   6.468
 5151POPC   C3B64941   4.145  38.603   6.808
 5151POPC   C4B64942   4.218  38.774   7.207
 5152POPC   NC364943  24.350   8.000   5.402
 5152POPC   PO464944  24.707   8.561   5.328
 5152POPC   GL164945  24.570   8.395   5.751
 5152POPC   GL264946  24.206   8.311   5.792
 5152POPC   C1A64947  24.572   8.231   6.187
 5152POPC   D2A64948  24.668   8.399   6.596
 5152POPC   C3A64949  24.759   8.101   6.940
 5152POPC   C4A64950  24.739   7.980   7.382
 5152POPC   C1B64951  24.164   7.937   6.074
 5152POPC   C2B64952  24.225   8.028   6.534
 5152POPC   C3B64953  24.263   8.319   6.892
 5152POPC   C4B64954  24.256   8.195   7.290
 5153POPC   NC364955  25.036  24.571   5.512
 5153POPC   PO464956  25.654  24.324   5.407
 5153POPC   GL164957  25.437  24.384   5.790
 5153POPC   GL264958  25.112  24.220   5.897
 5153POPC   C1A64959  25.503  24.363   6.222
 5153POPC   D2A64960  25.419  24.605   6.581
 5153POPC   C3A64961  25.530  24.450   6.980
 5153POPC   C4A64962  25.621  24.123   7.277
 5153POPC   C1B64963  25.056  24.576   6.158
 5153POPC   C2B64964  24.909  24.685   6.553
 5153POPC   C3B64965  24.837  24.719   6.967
 5153POPC   C4B64966  25.099  24.581   7.272
 5154POPC   NC364967  16.975   4.876   5.206
 5154POPC   PO464968  16.573   5.294   5.473
 5154POPC   GL164969  16.696   5.145   5.842
 5154POPC   GL264970  16.631   4.818   5.796
 5154POPC   C1A64971  16.759   5.052   6.264
 5154POPC   D2A64972  16.543   5.013   6.650
 5154POPC   C3A64973  16.755   5.105   7.062
 5154POPC   C4A64974  16.920   5.476   7.309
 5154POPC   C1B64975  16.414   4.663   6.173
 5154POPC   C2B64976  16.373   4.514   6.608
 5154POPC   C3B64977  16.290   4.743   6.987
 5154POPC   C4B64978  16.525   4.711   7.335
 5155POPC   NC364979  42.167  44.893   5.073
 5155POPC   PO464980  42.396  44.441   5.536
 5155POPC   GL164981  42.233  44.632   5.853
 5155POPC   GL264982  42.008  44.860   5.652
 5155POPC   C1A64983  42.257  44.402   6.245
 5155POPC   D2A64984  42.515  44.559   6.556
 5155POPC   C3A64985  42.507  44.507   6.980
 5155POPC   C4A64986  42.538  44.903   7.244
 5155POPC   C1B64987  41.860  44.899   6.051
 5155POPC   C2B64988  41.996  44.776   6.447
 5155POPC   C3B64989  42.199  44.877   6.825
 5155POPC   C4B64990  42.062  44.706   7.188
 5156POPC   NC364991  41.617  42.683   5.321
 5156POPC   PO464992  41.411  42.058   5.360
 5156POPC   GL164993  41.663  42.302   5.709
 5156POPC   GL264994  41.803  42.686   5.799
 5156POPC   C1A64995  41.577  42.395   6.157
 5156POPC   D2A64996  41.324  42.498   6.530
 5156POPC   C3A64997  41.449  42.327   6.905
 5156POPC   C4A64998  41.343  42.367   7.323
 5156POPC   C1B64999  41.969  42.726   6.243
 5156POPC   C2B65000  41.855  42.574   6.662
 5156POPC   C3B65001  41.795  42.677   7.108
 5156POPC   C4B65002  41.687  42.658   7.555
 5157POPC   NC365003  33.247  21.781   5.312
 5157POPC   PO465004  32.919  21.287   5.563
 5157POPC   GL165005  33.042  21.222   5.913
 5157POPC   GL265006  33.103  21.544   5.979
 5157POPC   C1A65007  32.989  21.086   6.289
 5157POPC   D2A65008  33.231  21.225   6.591
 5157POPC   C3A65009  33.108  21.038   6.941
 5157POPC   C4A65010  33.094  21.131   7.361
 5157POPC   C1B65011  32.734  21.520   6.256
 5157POPC   C2B65012  32.735  21.352   6.673
 5157POPC   C3B65013  32.902  21.526   7.018
 5157POPC   C4B65014  32.755  21.936   7.198
 5158POPC   NC365015   7.527  44.141   5.476
 5158POPC   PO465016   6.954  44.287   5.763
 5158POPC   GL165017   7.290  44.062   5.929
 5158POPC   GL265018   7.363  43.718   5.812
 5158POPC   C1A65019   7.637  44.092   6.207
 5158POPC   D2A65020   7.633  43.916   6.626
 5158POPC   C3A65021   7.360  44.084   6.922
 5158POPC   C4A65022   7.554  44.019   7.301
 5158POPC   C1B65023   7.412  43.629   6.257
 5158POPC   C2B65024   7.247  43.549   6.696
 5158POPC   C3B65025   7.256  43.622   7.165
 5158POPC   C4B65026   7.358  43.686   7.628
 5159POPC   NC365027  42.406   8.948   5.401
 5159POPC   PO465028  41.927   9.447   5.403
 5159POPC   GL165029  42.172   9.232   5.763
 5159POPC   GL265030  42.514   9.155   5.866
 5159POPC   C1A65031  42.196   8.847   6.110
 5159POPC   D2A65032  42.437   8.681   6.497
 5159POPC   C3A65033  42.264   8.698   6.914
 5159POPC   C4A65034  42.293   8.888   7.319
 5159POPC   C1B65035  42.763   9.314   6.216
 5159POPC   C2B65036  42.743   9.089   6.582
 5159POPC   C3B65037  42.597   9.108   6.983
 5159POPC   C4B65038  42.723   9.151   7.399
 5160POPC   NC365039  41.130  10.899   5.309
 5160POPC   PO465040  41.031  10.182   5.278
 5160POPC   GL165041  40.917  10.216   5.730
 5160POPC   GL265042  40.568  10.271   5.712
 5160POPC   C1A65043  41.083  10.324   6.185
 5160POPC   D2A65044  40.917  10.563   6.560
 5160POPC   C3A65045  41.040  10.540   7.002
 5160POPC   C4A65046  40.923  10.678   7.425
 5160POPC   C1B65047  40.575  10.514   6.115
 5160POPC   C2B65048  40.392  10.489   6.533
 5160POPC   C3B65049  40.504  10.626   6.931
 5160POPC   C4B65050  40.622  10.331   7.210
 5161POPC   NC365051   8.412  26.202   5.673
 5161POPC   PO465052   8.118  26.836   5.381
 5161POPC   GL165053   8.231  26.980   5.779
 5161POPC   GL265054   8.374  26.668   5.874
 5161POPC   C1A65055   8.047  26.907   6.195
 5161POPC   D2A65056   8.204  26.838   6.586
 5161POPC   C3A65057   7.920  26.668   6.901
 5161POPC   C4A65058   7.841  26.587   7.333
 5161POPC   C1B65059   8.548  26.560   6.281
 5161POPC   C2B65060   8.698  26.735   6.667
 5161POPC   C3B65061   8.476  26.825   7.035
 5161POPC   C4B65062   8.315  26.464   7.221
 5162POPC   NC365063   5.497   8.750   5.554
 5162POPC   PO465064   5.952   9.208   5.416
 5162POPC   GL165065   5.843   9.148   5.843
 5162POPC   GL265066   5.846   8.794   5.947
 5162POPC   C1A65067   5.646   9.113   6.281
 5162POPC   D2A65068   5.832   8.999   6.692
 5162POPC   C3A65069   5.785   9.255   7.082
 5162POPC   C4A65070   5.777   9.341   7.536
 5162POPC   C1B65071   5.544   8.588   6.265
 5162POPC   C2B65072   5.648   8.470   6.729
 5162POPC   C3B65073   5.753   8.710   7.128
 5162POPC   C4B65074   5.665   8.739   7.573
 5163POPC   NC365075  25.538  41.350   5.559
 5163POPC   PO465076  24.979  41.221   5.583
 5163POPC   GL165077  25.153  41.398   5.917
 5163POPC   GL265078  25.216  41.714   5.793
 5163POPC   C1A65079  25.275  41.512   6.325
 5163POPC   D2A65080  25.555  41.309   6.595
 5163POPC   C3A65081  25.330  41.183   6.899
 5163POPC   C4A65082  25.407  41.289   7.272
 5163POPC   C1B65083  25.612  41.775   6.046
 5163POPC   C2B65084  25.669  41.807   6.498
 5163POPC   C3B65085  25.365  41.717   6.835
 5163POPC   C4B65086  25.402  41.814   7.239
 5164POPC   NC365087  23.322  35.207   5.244
 5164POPC   PO465088  22.756  35.452   5.567
 5164POPC   GL165089  22.820  35.379   5.977
 5164POPC   GL265090  23.174  35.349   5.873
 5164POPC   C1A65091  22.719  35.425   6.404
 5164POPC   D2A65092  22.478  35.675   6.707
 5164POPC   C3A65093  22.470  35.422   7.078
 5164POPC   C4A65094  22.733  35.085   7.194
 5164POPC   C1B65095  23.188  35.611   6.244
 5164POPC   C2B65096  23.139  35.598   6.639
 5164POPC   C3B65097  22.974  35.476   6.962
 5164POPC   C4B65098  23.271  35.544   7.265
 5165POPC   NC365099  21.575  41.266   5.464
 5165POPC   PO465100  21.221  41.887   5.295
 5165POPC   GL165101  21.293  41.712   5.709
 5165POPC   GL265102  20.971  41.767   5.853
 5165POPC   C1A65103  21.519  41.670   6.120
 5165POPC   D2A65104  21.464  41.832   6.552
 5165POPC   C3A65105  21.581  41.645   6.929
 5165POPC   C4A65106  21.711  41.420   7.270
 5165POPC   C1B65107  21.046  41.638   6.293
 5165POPC   C2B65108  20.912  41.683   6.694
 5165POPC   C3B65109  21.027  41.437   7.001
 5165POPC   C4B65110  21.227  41.563   7.329
 5166POPC   NC365111   8.341  38.449   5.389
 5166POPC   PO465112   8.159  37.826   5.614
 5166POPC   GL165113   8.238  38.127   5.899
 5166POPC   GL265114   8.277  38.455   5.897
 5166POPC   C1A65115   8.388  38.222   6.318
 5166POPC   D2A65116   8.379  38.579   6.575
 5166POPC   C3A65117   8.415  38.347   6.936
 5166POPC   C4A65118   8.269  38.321   7.359
 5166POPC   C1B65119   8.008  38.627   6.180
 5166POPC   C2B65120   7.973  38.886   6.524
 5166POPC   C3B65121   7.987  38.650   6.901
 5166POPC   C4B65122   8.307  38.801   7.192
 5167POPC   NC365123  16.397   9.366   5.158
 5167POPC   PO465124  15.838   9.016   5.337
 5167POPC   GL165125  15.811   9.194   5.745
 5167POPC   GL265126  16.051   9.282   5.968
 5167POPC   C1A65127  15.705   8.987   6.166
 5167POPC   D2A65128  15.735   8.800   6.579
 5167POPC   C3A65129  15.886   9.061   6.905
 5167POPC   C4A65130  16.090   9.009   7.300
 5167POPC   C1B65131  15.982   9.400   6.409
 5167POPC   C2B65132  16.233   9.453   6.790
 5167POPC   C3B65133  16.208   9.488   7.241
 5167POPC   C4B65134  16.303   9.293   7.663
 5168POPC   NC365135  21.374   3.978   5.446
 5168POPC   PO465136  20.986   4.547   5.521
 5168POPC   GL165137  21.168   4.300   5.816
 5168POPC   GL265138  21.485   4.427   5.831
 5168POPC   C1A65139  21.178   4.397   6.250
 5168POPC   D2A65140  21.277   4.616   6.647
 5168POPC   C3A65141  21.060   4.459   7.018
 5168POPC   C4A65142  20.836   4.410   7.388
 5168POPC   C1B65143  21.650   4.231   6.220
 5168POPC   C2B65144  21.526   4.166   6.671
 5168POPC   C3B65145  21.553   4.387   7.093
 5168POPC   C4B65146  21.470   4.367   7.585
 5169POPC   NC365147   1.282  36.319   5.283
 5169POPC   PO465148   1.397  37.057   5.358
 5169POPC   GL165149   1.472  37.106   5.796
 5169POPC   GL265150   1.306  36.817   5.839
 5169POPC   C1A65151   1.527  37.027   6.240
 5169POPC   D2A65152   1.389  36.789   6.584
 5169POPC   C3A65153   1.393  37.019   6.967
 5169POPC   C4A65154   1.153  37.028   7.336
 5169POPC   C1B65155   1.030  36.786   6.190
 5169POPC   C2B65156   0.934  36.590   6.578
 5169POPC   C3B65157   1.025  36.670   6.994
 5169POPC   C4B65158   0.763  36.693   7.337
 5170POPC   NC365159   7.572  26.490   5.450
 5170POPC   PO465160   7.321  27.101   5.380
 5170POPC   GL165161   7.264  26.991   5.810
 5170POPC   GL265162   7.165  26.639   5.827
 5170POPC   C1A65163   7.469  26.896   6.243
 5170POPC   D2A65164   7.616  27.064   6.674
 5170POPC   C3A65165   7.406  26.838   7.028
 5170POPC   C4A65166   7.397  26.825   7.484
 5170POPC   C1B65167   6.873  26.517   6.153
 5170POPC   C2B65168   6.918  26.301   6.538
 5170POPC   C3B65169   7.001  26.527   6.893
 5170POPC   C4B65170   6.969  26.654   7.293
 5171POPC   NC365171  22.293  17.009   5.273
 5171POPC   PO465172  22.416  16.435   5.537
 5171POPC   GL165173  22.132  16.660   5.824
 5171POPC   GL265174  21.996  17.005   5.763
 5171POPC   C1A65175  22.032  16.597   6.274
 5171POPC   D2A65176  21.905  16.347   6.661
 5171POPC   C3A65177  22.118  16.504   7.050
 5171POPC   C4A65178  22.533  16.696   7.171
 5171POPC   C1B65179  22.122  17.120   6.184
 5171POPC   C2B65180  22.098  16.968   6.615
 5171POPC   C3B65181  22.151  17.010   7.039
 5171POPC   C4B65182  21.859  16.920   7.345
 5172POPC   NC365183  26.046   8.691   5.383
 5172POPC   PO465184  26.116   9.349   5.575
 5172POPC   GL165185  26.217   9.025   5.855
 5172POPC   GL265186  25.917   8.815   5.870
 5172POPC   C1A65187  26.199   8.981   6.316
 5172POPC   D2A65188  25.994   8.964   6.718
 5172POPC   C3A65189  26.210   9.141   7.090
 5172POPC   C4A65190  26.373   8.855   7.412
 5172POPC   C1B65191  25.738   9.153   6.156
 5172POPC   C2B65192  25.737   9.386   6.564
 5172POPC   C3B65193  25.688   9.275   7.001
 5172POPC   C4B65194  25.676   9.225   7.462
 5173POPC   NC365195  13.838  27.077   5.549
 5173POPC   PO465196  13.491  26.576   5.336
 5173POPC   GL165197  13.484  26.586   5.814
 5173POPC   GL265198  13.816  26.718   5.923
 5173POPC   C1A65199  13.440  26.795   6.248
 5173POPC   D2A65200  13.773  26.805   6.591
 5173POPC   C3A65201  13.593  26.841   6.988
 5173POPC   C4A65202  13.155  26.878   7.050
 5173POPC   C1B65203  13.849  27.127   6.184
 5173POPC   C2B65204  13.851  27.323   6.590
 5173POPC   C3B65205  13.953  27.195   6.997
 5173POPC   C4B65206  14.006  26.934   7.374
 5174POPC   NC365207  42.131  28.579   5.122
 5174POPC   PO465208  42.297  28.048   5.503
 5174POPC   GL165209  42.426  28.255   5.886
 5174POPC   GL265210  42.691  28.440   5.869
 5174POPC   C1A65211  42.483  28.431   6.330
 5174POPC   D2A65212  42.319  28.684   6.657
 5174POPC   C3A65213  42.225  28.451   7.014
 5174POPC   C4A65214  41.996  28.058   7.030
 5174POPC   C1B65215  42.805  28.062   6.164
 5174POPC   C2B65216  42.666  27.923   6.588
 5174POPC   C3B65217  42.527  27.995   7.006
 5174POPC   C4B65218  42.707  28.261   7.291
 5175POPC   NC365219  26.180  40.076   5.382
 5175POPC   PO465220  25.758  39.690   5.410
 5175POPC   GL165221  25.984  39.825   5.802
 5175POPC   GL265222  26.079  40.207   5.865
 5175POPC   C1A65223  26.186  39.835   6.225
 5175POPC   D2A65224  26.020  40.001   6.618
 5175POPC   C3A65225  25.944  39.781   6.982
 5175POPC   C4A65226  25.895  39.758   7.436
 5175POPC   C1B65227  26.121  40.383   6.283
 5175POPC   C2B65228  26.434  40.298   6.614
 5175POPC   C3B65229  26.455  40.255   7.028
 5175POPC   C4B65230  26.114  40.195   7.268
 5176POPC   NC365231   2.818  24.755   5.242
 5176POPC   PO465232   2.988  25.357   5.429
 5176POPC   GL165233   2.641  25.372   5.766
 5176POPC   GL265234   2.450  25.053   5.728
 5176POPC   C1A65235   2.572  25.534   6.198
 5176POPC   D2A65236   2.751  25.557   6.589
 5176POPC   C3A65237   2.608  25.351   6.943
 5176POPC   C4A65238   2.602  25.409   7.368
 5176POPC   C1B65239   2.370  25.073   6.170
 5176POPC   C2B65240   2.658  25.008   6.548
 5176POPC   C3B65241   2.884  24.937   6.964
 5176POPC   C4B65242   2.507  24.925   7.228
 5177POPC   NC365243   3.327  41.012   5.635
 5177POPC   PO465244   3.639  40.529   5.333
 5177POPC   GL165245   3.685  40.670   5.766
 5177POPC   GL265246   3.402  40.428   5.775
 5177POPC   C1A65247   3.597  40.905   6.197
 5177POPC   D2A65248   3.495  40.716   6.581
 5177POPC   C3A65249   3.576  40.885   6.955
 5177POPC   C4A65250   3.483  41.070   7.311
 5177POPC   C1B65251   3.462  40.372   6.199
 5177POPC   C2B65252   3.147  40.347   6.523
 5177POPC   C3B65253   3.107  40.575   6.884
 5177POPC   C4B65254   3.264  40.560   7.281
 5178POPC   NC365255   8.567  30.655   5.401
 5178POPC   PO465256   8.118  30.219   5.294
 5178POPC   GL165257   8.121  30.446   5.698
 5178POPC   GL265258   8.428  30.252   5.764
 5178POPC   C1A65259   8.068  30.773   6.058
 5178POPC   D2A65260   8.038  30.691   6.518
 5178POPC   C3A65261   8.125  30.829   6.938
 5178POPC   C4A65262   7.982  30.551   7.259
 5178POPC   C1B65263   8.419  30.425   6.179
 5178POPC   C2B65264   8.523  30.511   6.616
 5178POPC   C3B65265   8.365  30.368   7.007
 5178POPC   C4B65266   8.367  30.293   7.482
 5179POPC   NC365267   6.252  24.600   5.188
 5179POPC   PO465268   5.713  24.423   5.598
 5179POPC   GL165269   5.787  24.365   5.994
 5179POPC   GL265270   6.075  24.140   5.989
 5179POPC   C1A65271   5.613  24.576   6.359
 5179POPC   D2A65272   5.499  24.757   6.769
 5179POPC   C3A65273   5.613  24.546   7.107
 5179POPC   C4A65274   5.878  24.195   7.082
 5179POPC   C1B65275   6.151  24.448   6.337
 5179POPC   C2B65276   5.993  24.550   6.728
 5179POPC   C3B65277   6.120  24.678   7.126
 5179POPC   C4B65278   5.946  24.906   7.447
 5180POPC   NC365279  11.888  32.167   5.453
 5180POPC   PO465280  12.373  32.552   5.333
 5180POPC   GL165281  12.308  32.534   5.749
 5180POPC   GL265282  12.316  32.169   5.798
 5180POPC   C1A65283  12.161  32.498   6.170
 5180POPC   D2A65284  11.894  32.236   6.429
 5180POPC   C3A65285  11.877  32.387   6.862
 5180POPC   C4A65286  12.069  32.248   7.228
 5180POPC   C1B65287  12.318  31.980   6.234
 5180POPC   C2B65288  12.265  31.987   6.718
 5180POPC   C3B65289  12.519  32.072   7.104
 5180POPC   C4B65290  12.379  32.080   7.591
 5181POPC   NC365291   7.870  32.785   5.300
 5181POPC   PO465292   8.520  32.669   5.481
 5181POPC   GL165293   8.137  32.892   5.773
 5181POPC   GL265294   7.765  32.751   5.814
 5181POPC   C1A65295   8.120  33.035   6.260
 5181POPC   D2A65296   8.288  33.040   6.726
 5181POPC   C3A65297   8.484  32.820   7.115
 5181POPC   C4A65298   8.737  33.009   7.492
 5181POPC   C1B65299   7.634  32.881   6.253
 5181POPC   C2B65300   7.795  32.934   6.694
 5181POPC   C3B65301   7.952  33.174   7.107
 5181POPC   C4B65302   8.229  33.493   7.385
 5182POPC   NC365303  36.675  26.480   5.419
 5182POPC   PO465304  37.004  25.806   5.494
 5182POPC   GL165305  36.820  26.082   5.823
 5182POPC   GL265306  36.512  26.271   5.847
 5182POPC   C1A65307  36.676  25.977   6.234
 5182POPC   D2A65308  36.955  25.915   6.547
 5182POPC   C3A65309  36.743  25.926   6.899
 5182POPC   C4A65310  36.940  25.888   7.256
 5182POPC   C1B65311  36.522  26.508   6.218
 5182POPC   C2B65312  36.629  26.361   6.623
 5182POPC   C3B65313  36.451  26.343   7.033
 5182POPC   C4B65314  36.599  26.222   7.433
 5183POPC   NC365315  12.997  19.558   5.510
 5183POPC   PO465316  13.084  18.906   5.429
 5183POPC   GL165317  13.005  19.093   5.857
 5183POPC   GL265318  12.855  19.430   5.980
 5183POPC   C1A65319  12.973  19.075   6.312
 5183POPC   D2A65320  12.817  19.355   6.559
 5183POPC   C3A65321  12.571  19.139   6.840
 5183POPC   C4A65322  12.680  18.806   7.155
 5183POPC   C1B65323  13.225  19.518   6.238
 5183POPC   C2B65324  13.328  19.326   6.638
 5183POPC   C3B65325  13.056  19.109   6.969
 5183POPC   C4B65326  12.910  19.173   7.428
 5184POPC   NC365327  37.413  44.241   5.549
 5184POPC   PO465328  37.838  43.769   5.333
 5184POPC   GL165329  37.843  43.998   5.743
 5184POPC   GL265330  37.581  43.793   5.874
 5184POPC   C1A65331  37.977  43.934   6.183
 5184POPC   D2A65332  37.756  43.793   6.564
 5184POPC   C3A65333  37.890  43.927   6.986
 5184POPC   C4A65334  37.798  43.706   7.382
 5184POPC   C1B65335  37.377  44.058   6.188
 5184POPC   C2B65336  37.143  43.975   6.562
 5184POPC   C3B65337  37.362  43.907   6.922
 5184POPC   C4B65338  37.472  44.108   7.275
 5185POPC   NC365339  15.714  18.388   5.454
 5185POPC   PO465340  16.096  17.800   5.322
 5185POPC   GL165341  16.045  18.097   5.722
 5185POPC   GL265342  15.762  18.178   5.918
 5185POPC   C1A65343  16.225  18.296   6.127
 5185POPC   D2A65344  16.123  18.519   6.557
 5185POPC   C3A65345  16.242  18.350   6.974
 5185POPC   C4A65346  16.027  18.094   7.247
 5185POPC   C1B65347  15.782  18.592   6.169
 5185POPC   C2B65348  15.544  18.755   6.532
 5185POPC   C3B65349  15.457  18.568   6.930
 5185POPC   C4B65350  15.770  18.523   7.238
 5186POPC   NC365351  23.517  17.503   5.032
 5186POPC   PO465352  23.979  17.642   5.493
 5186POPC   GL165353  23.796  17.780   5.857
 5186POPC   GL265354  23.953  18.058   5.822
 5186POPC   C1A65355  23.495  17.706   6.167
 5186POPC   D2A65356  23.527  17.370   6.470
 5186POPC   C3A65357  23.507  17.469   6.900
 5186POPC   C4A65358  23.564  17.626   7.310
 5186POPC   C1B65359  24.046  17.997   6.243
 5186POPC   C2B65360  23.778  17.877   6.553
 5186POPC   C3B65361  23.837  17.869   6.949
 5186POPC   C4B65362  24.052  17.684   7.238
 5187POPC   NC365363  32.489  28.697   5.417
 5187POPC   PO465364  32.480  28.016   5.607
 5187POPC   GL165365  32.430  28.343   5.872
 5187POPC   GL265366  32.111  28.504   5.783
 5187POPC   C1A65367  32.420  28.258   6.330
 5187POPC   D2A65368  32.383  27.960   6.697
 5187POPC   C3A65369  32.317  28.110   7.113
 5187POPC   C4A65370  32.404  28.561   7.165
 5187POPC   C1B65371  31.935  28.351   6.165
 5187POPC   C2B65372  31.950  28.213   6.589
 5187POPC   C3B65373  31.927  28.397   6.975
 5187POPC   C4B65374  31.712  28.603   7.264
 5188POPC   NC365375   6.597  44.503   5.541
 5188POPC   PO465376   6.675   0.231   5.590
 5188POPC   GL165377   6.568  44.917   5.865
 5188POPC   GL265378   6.906  44.783   5.882
 5188POPC   C1A65379   6.560  44.592   6.201
 5188POPC   D2A65380   6.702  44.580   6.599
 5188POPC   C3A65381   6.402  44.585   6.887
 5188POPC   C4A65382   6.372  44.795   7.261
 5188POPC   C1B65383   7.113  44.672   6.280
 5188POPC   C2B65384   7.189  44.574   6.736
 5188POPC   C3B65385   6.888  44.609   7.088
 5188POPC   C4B65386   6.624  44.312   7.288
 5189POPC   NC365387  13.238  44.926   5.594
 5189POPC   PO465388  13.138   0.570   5.428
 5189POPC   GL165389  12.992   0.606   5.839
 5189POPC   GL265390  13.038   0.290   5.885
 5189POPC   C1A65391  12.920   0.643   6.282
 5189POPC   D2A65392  12.630   0.462   6.565
 5189POPC   C3A65393  12.692   0.651   6.903
 5189POPC   C4A65394  12.787   0.554   7.264
 5189POPC   C1B65395  12.810   0.149   6.217
 5189POPC   C2B65396  12.908   0.013   6.606
 5189POPC   C3B65397  12.976   0.191   6.976
 5189POPC   C4B65398  13.157  44.975   7.270
 5190POPC   NC365399  31.942   2.970   5.559
 5190POPC   PO465400  32.476   2.594   5.451
 5190POPC   GL165401  32.298   2.669   5.859
 5190POPC   GL265402  32.403   3.000   5.938
 5190POPC   C1A65403  32.173   2.705   6.315
 5190POPC   D2A65404  32.400   2.865   6.676
 5190POPC   C3A65405  32.276   2.731   7.089
 5190POPC   C4A65406  32.254   2.661   7.532
 5190POPC   C1B65407  32.027   3.154   6.157
 5190POPC   C2B65408  31.936   3.134   6.583
 5190POPC   C3B65409  32.056   3.220   6.989
 5190POPC   C4B65410  31.962   3.042   7.359
 5191POPC   NC365411   0.141  43.800   5.285
 5191POPC   PO465412   0.782  44.127   5.422
 5191POPC   GL165413   0.464  43.938   5.742
 5191POPC   GL265414   0.671  43.682   5.904
 5191POPC   C1A65415   0.249  43.791   6.140
 5191POPC   D2A65416   0.414  43.759   6.571
 5191POPC   C3A65417   0.251  43.623   6.972
 5191POPC   C4A65418   0.061  43.690   7.353
 5191POPC   C1B65419   0.712  44.000   6.208
 5191POPC   C2B65420   0.896  43.970   6.602
 5191POPC   C3B65421   0.761  43.738   6.936
 5191POPC   C4B65422   0.600  43.775   7.323
 5192POPC   NC365423  24.740  41.605   5.511
 5192POPC   PO465424  24.156  41.769   5.737
 5192POPC   GL165425  24.283  41.369   5.930
 5192POPC   GL265426  24.625  41.302   5.940
 5192POPC   C1A65427  24.352  41.415   6.363
 5192POPC   D2A65428  24.191  41.704   6.655
 5192POPC   C3A65429  24.337  41.446   6.949
 5192POPC   C4A65430  24.433  41.436   7.349
 5192POPC   C1B65431  24.788  41.698   6.150
 5192POPC   C2B65432  24.906  41.797   6.557
 5192POPC   C3B65433  24.888  41.474   6.843
 5192POPC   C4B65434  24.860  41.709   7.176
 5193POPC   NC365435  44.917  21.947   5.358
 5193POPC   PO465436  44.228  22.089   5.225
 5193POPC   GL165437  44.409  22.349   5.623
 5193POPC   GL265438  44.807  22.436   5.703
 5193POPC   C1A65439  44.507  22.266   6.098
 5193POPC   D2A65440  44.756  21.928   6.342
 5193POPC   C3A65441  44.680  21.842   6.787
 5193POPC   C4A65442  44.792  22.014   7.183
 5193POPC   C1B65443  44.869  22.624   6.166
 5193POPC   C2B65444  44.749  22.398   6.559
 5193POPC   C3B65445  44.659  22.478   6.997
 5193POPC   C4B65446  44.800  22.613   7.408
 5194POPC   NC365447  11.922   9.671   5.555
 5194POPC   PO465448  12.138  10.310   5.478
 5194POPC   GL165449  12.080  10.061   5.867
 5194POPC   GL265450  12.267   9.710   5.931
 5194POPC   C1A65451  11.957   9.914   6.283
 5194POPC   D2A65452  12.196   9.684   6.577
 5194POPC   C3A65453  12.237   9.836   7.005
 5194POPC   C4A65454  11.873   9.964   7.248
 5194POPC   C1B65455  11.955   9.404   6.168
 5194POPC   C2B65456  11.701   9.432   6.540
 5194POPC   C3B65457  11.859   9.528   6.937
 5194POPC   C4B65458  11.987   9.487   7.380
 5195POPC   NC365459  23.461  17.881   5.502
 5195POPC   PO465460  23.950  18.234   5.151
 5195POPC   GL165461  24.049  18.489   5.582
 5195POPC   GL265462  23.693  18.505   5.772
 5195POPC   C1A65463  24.093  18.489   6.077
 5195POPC   D2A65464  23.905  18.563   6.513
 5195POPC   C3A65465  23.968  18.358   6.942
 5195POPC   C4A65466  23.916  18.182   7.390
 5195POPC   C1B65467  23.620  18.286   6.209
 5195POPC   C2B65468  23.480  18.270   6.707
 5195POPC   C3B65469  23.458  18.131   7.177
 5195POPC   C4B65470  23.470  18.013   7.648
 5196POPC   NC365471  17.307  29.761   5.113
 5196POPC   PO465472  17.595  30.357   5.125
 5196POPC   GL165473  17.545  30.109   5.549
 5196POPC   GL265474  17.301  29.828   5.619
 5196POPC   C1A65475  17.647  29.979   6.023
 5196POPC   D2A65476  17.800  30.135   6.481
 5196POPC   C3A65477  17.699  30.023   6.930
 5196POPC   C4A65478  17.762  30.117   7.402
 5196POPC   C1B65479  17.139  30.068   5.986
 5196POPC   C2B65480  17.030  30.039   6.434
 5196POPC   C3B65481  17.182  30.132   6.860
 5196POPC   C4B65482  17.277  29.967   7.244
 5197POPC   NC365483   8.865  13.497   5.437
 5197POPC   PO465484   9.382  13.943   5.643
 5197POPC   GL165485   9.085  13.701   5.872
 5197POPC   GL265486   9.140  13.308   5.818
 5197POPC   C1A65487   8.825  13.758   6.272
 5197POPC   D2A65488   8.675  13.782   6.706
 5197POPC   C3A65489   8.955  13.943   6.985
 5197POPC   C4A65490   8.800  13.726   7.288
 5197POPC   C1B65491   9.218  13.368   6.256
 5197POPC   C2B65492   8.985  13.397   6.629
 5197POPC   C3B65493   9.154  13.462   7.010
 5197POPC   C4B65494   9.544  13.420   7.189
 5198POPC   NC365495  29.648  12.518   5.393
 5198POPC   PO465496  30.092  11.874   5.403
 5198POPC   GL165497  29.915  12.189   5.671
 5198POPC   GL265498  29.889  11.921   5.899
 5198POPC   C1A65499  29.891  12.381   6.110
 5198POPC   D2A65500  29.875  12.128   6.519
 5198POPC   C3A65501  29.904  12.373   6.893
 5198POPC   C4A65502  29.899  12.307   7.321
 5198POPC   C1B65503  29.716  11.627   6.187
 5198POPC   C2B65504  29.731  11.453   6.565
 5198POPC   C3B65505  29.766  11.676   6.942
 5198POPC   C4B65506  29.806  11.811   7.353
 5199POPC   NC365507  18.027  15.455   5.509
 5199POPC   PO465508  18.230  16.082   5.410
 5199POPC   GL165509  17.991  15.955   5.759
 5199POPC   GL265510  18.283  15.776   5.831
 5199POPC   C1A65511  17.905  15.941   6.213
 5199POPC   D2A65512  18.118  15.857   6.609
 5199POPC   C3A65513  18.030  15.958   7.044
 5199POPC   C4A65514  18.232  16.280   7.229
 5199POPC   C1B65515  18.515  15.944   6.170
 5199POPC   C2B65516  18.633  15.778   6.571
 5199POPC   C3B65517  18.549  15.957   6.982
 5199POPC   C4B65518  18.419  15.803   7.384
 5200POPC   NC365519  34.146  37.779   5.277
 5200POPC   PO465520  34.639  38.031   5.645
 5200POPC   GL165521  34.597  37.786   5.949
 5200POPC   GL265522  34.698  37.482   5.781
 5200POPC   C1A65523  34.593  37.861   6.388
 5200POPC   D2A65524  34.807  37.687   6.702
 5200POPC   C3A65525  34.609  37.677   7.080
 5200POPC   C4A65526  34.394  37.982   7.251
 5200POPC   C1B65527  34.533  37.303   6.135
 5200POPC   C2B65528  34.731  37.245   6.484
 5200POPC   C3B65529  34.631  37.191   6.914
 5200POPC   C4B65530  34.838  37.262   7.306
 5201POPC   NC365531  38.815  20.785   5.328
 5201POPC   PO465532  39.318  20.342   5.224
 5201POPC   GL165533  39.233  20.635   5.561
 5201POPC   GL265534  39.506  20.751   5.718
 5201POPC   C1A65535  39.067  20.573   5.975
 5201POPC   D2A65536  39.158  20.659   6.407
 5201POPC   C3A65537  39.121  20.381   6.783
 5201POPC   C4A65538  38.982  20.530   7.199
 5201POPC   C1B65539  39.602  20.645   6.154
 5201POPC   C2B65540  39.594  20.505   6.593
 5201POPC   C3B65541  39.525  20.595   7.018
 5201POPC   C4B65542  39.492  20.803   7.365
 5202POPC   NC365543  32.135   8.676   5.415
 5202POPC   PO465544  32.091   7.993   5.429
 5202POPC   GL165545  32.340   8.097   5.761
 5202POPC   GL265546  32.419   8.424   5.755
 5202POPC   C1A65547  32.166   8.027   6.154
 5202POPC   D2A65548  32.053   8.149   6.551
 5202POPC   C3A65549  32.148   7.849   6.860
 5202POPC   C4A65550  32.279   8.038   7.221
 5202POPC   C1B65551  32.369   8.532   6.200
 5202POPC   C2B65552  32.436   8.720   6.614
 5202POPC   C3B65553  32.228   8.518   6.958
 5202POPC   C4B65554  32.198   8.519   7.391
 5203POPC   NC365555  18.620   4.798   5.382
 5203POPC   PO465556  19.193   5.106   5.313
 5203POPC   GL165557  19.178   5.185   5.766
 5203POPC   GL265558  19.051   5.501   5.798
 5203POPC   C1A65559  19.357   5.217   6.204
 5203POPC   D2A65560  19.529   5.065   6.618
 5203POPC   C3A65561  19.384   5.297   6.995
 5203POPC   C4A65562  19.187   5.076   7.362
 5203POPC   C1B65563  18.806   5.399   6.174
 5203POPC   C2B65564  18.949   5.180   6.544
 5203POPC   C3B65565  18.888   5.220   6.965
 5203POPC   C4B65566  18.666   5.200   7.332
 5204POPC   NC365567  17.923   4.852   5.504
 5204POPC   PO465568  17.271   5.235   5.328
 5204POPC   GL165569  17.199   5.098   5.766
 5204POPC   GL265570  17.141   4.735   5.744
 5204POPC   C1A65571  17.240   5.265   6.218
 5204POPC   D2A65572  17.515   5.223   6.596
 5204POPC   C3A65573  17.296   5.223   7.014
 5204POPC   C4A65574  17.221   5.090   7.454
 5204POPC   C1B65575  17.497   4.806   6.064
 5204POPC   C2B65576  17.741   4.769   6.457
 5204POPC   C3B65577  17.566   4.791   6.855
 5204POPC   C4B65578  17.660   4.921   7.246
 5205POPC   NC365579  44.776  20.125   5.561
 5205POPC   PO465580  44.558  20.619   5.213
 5205POPC   GL165581  44.731  20.678   5.705
 5205POPC   GL265582  44.789  20.413   5.953
 5205POPC   C1A65583  44.735  20.860   6.175
 5205POPC   D2A65584  44.517  20.930   6.588
 5205POPC   C3A65585  44.679  20.772   6.993
 5205POPC   C4A65586  44.505  20.789   7.419
 5205POPC   C1B65587  44.390  20.436   6.105
 5205POPC   C2B65588  44.379  20.341   6.527
 5205POPC   C3B65589  44.250  20.492   6.917
 5205POPC   C4B65590  44.329  20.332   7.318
 5206POPC   NC365591  38.439  35.109   5.205
 5206POPC   PO465592  38.463  34.460   5.449
 5206POPC   GL165593  38.589  34.380   5.880
 5206POPC   GL265594  38.790  34.103   5.859
 5206POPC   C1A65595  38.570  34.552   6.318
 5206POPC   D2A65596  38.683  34.915   6.632
 5206POPC   C3A65597  38.331  35.039   6.929
 5206POPC   C4A65598  38.067  34.770   7.187
 5206POPC   C1B65599  38.633  34.002   6.284
 5206POPC   C2B65600  38.411  34.180   6.650
 5206POPC   C3B65601  38.363  34.355   7.053
 5206POPC   C4B65602  38.527  34.247   7.466
 5207POPC   NC365603  32.993  14.460   5.312
 5207POPC   PO465604  32.785  13.788   5.230
 5207POPC   GL165605  33.075  14.047   5.585
 5207POPC   GL265606  32.891  14.341   5.801
 5207POPC   C1A65607  33.232  14.064   6.047
 5207POPC   D2A65608  32.984  14.035   6.433
 5207POPC   C3A65609  33.233  14.165   6.789
 5207POPC   C4A65610  33.126  14.251   7.192
 5207POPC   C1B65611  33.017  14.513   6.249
 5207POPC   C2B65612  33.045  14.846   6.601
 5207POPC   C3B65613  33.078  14.758   7.047
 5207POPC   C4B65614  33.341  14.654   7.406
 5208POPC   NC365615  25.467  32.577   5.304
 5208POPC   PO465616  25.146  31.993   5.270
 5208POPC   GL165617  25.207  32.282   5.680
 5208POPC   GL265618  25.563  32.352   5.757
 5208POPC   C1A65619  25.222  32.465   6.134
 5208POPC   D2A65620  25.364  32.336   6.559
 5208POPC   C3A65621  25.087  32.271   6.933
 5208POPC   C4A65622  25.102  32.358   7.391
 5208POPC   C1B65623  25.610  32.109   6.135
 5208POPC   C2B65624  25.632  31.856   6.507
 5208POPC   C3B65625  25.546  31.998   6.925
 5208POPC   C4B65626  25.258  31.886   7.227
 5209POPC   NC365627  21.511  33.482   5.527
 5209POPC   PO465628  21.074  34.004   5.393
 5209POPC   GL165629  21.210  34.111   5.806
 5209POPC   GL265630  21.511  33.985   5.711
 5209POPC   C1A65631  21.269  33.845   6.212
 5209POPC   D2A65632  21.413  33.521   6.551
 5209POPC   C3A65633  21.381  33.661   6.993
 5209POPC   C4A65634  21.195  33.951   7.303
 5209POPC   C1B65635  21.710  34.075   6.092
 5209POPC   C2B65636  21.644  34.005   6.552
 5209POPC   C3B65637  21.610  34.164   6.986
 5209POPC   C4B65638  21.898  34.041   7.291
 5210POPC   NC365639  41.128  14.153   5.367
 5210POPC   PO465640  40.696  14.696   5.289
 5210POPC   GL165641  40.621  14.519   5.732
 5210POPC   GL265642  40.461  14.171   5.806
 5210POPC   C1A65643  40.814  14.454   6.149
 5210POPC   D2A65644  41.099  14.520   6.519
 5210POPC   C3A65645  40.892  14.653   6.899
 5210POPC   C4A65646  40.716  14.637   7.315
 5210POPC   C1B65647  40.460  14.082   6.270
 5210POPC   C2B65648  40.709  14.172   6.647
 5210POPC   C3B65649  40.941  14.106   7.022
 5210POPC   C4B65650  40.816  14.165   7.448
 5211POPC   NC365651  34.128   9.522   5.479
 5211POPC   PO465652  33.704  10.039   5.509
 5211POPC   GL165653  33.935   9.856   5.800
 5211POPC   GL265654  33.750   9.545   5.841
 5211POPC   C1A65655  34.029   9.793   6.204
 5211POPC   D2A65656  34.013   9.568   6.594
 5211POPC   C3A65657  33.906   9.704   6.982
 5211POPC   C4A65658  34.051   9.798   7.331
 5211POPC   C1B65659  33.816   9.306   6.215
 5211POPC   C2B65660  33.897   9.074   6.577
 5211POPC   C3B65661  33.764   9.228   6.939
 5211POPC   C4B65662  33.684   9.381   7.314
 5212POPC   NC365663  42.000  16.716   5.373
 5212POPC   PO465664  42.498  17.070   5.729
 5212POPC   GL165665  42.177  16.782   5.871
 5212POPC   GL265666  41.909  17.023   5.773
 5212POPC   C1A65667  42.188  16.538   6.286
 5212POPC   D2A65668  42.544  16.522   6.613
 5212POPC   C3A65669  42.475  16.501   7.086
 5212POPC   C4A65670  42.346  16.901   7.273
 5212POPC   C1B65671  41.848  17.043   6.214
 5212POPC   C2B65672  42.097  16.958   6.585
 5212POPC   C3B65673  42.074  16.578   6.817
 5212POPC   C4B65674  41.959  16.580   7.233
 5213POPC   NC365675  30.038  19.357   5.218
 5213POPC   PO465676  29.824  18.703   5.412
 5213POPC   GL165677  29.736  18.900   5.781
 5213POPC   GL265678  30.106  18.893   5.862
 5213POPC   C1A65679  29.754  18.967   6.217
 5213POPC   D2A65680  29.661  19.203   6.565
 5213POPC   C3A65681  29.825  19.191   6.941
 5213POPC   C4A65682  29.569  18.971   7.232
 5213POPC   C1B65683  30.249  19.130   6.249
 5213POPC   C2B65684  30.271  19.029   6.697
 5213POPC   C3B65685  30.314  19.204   7.118
 5213POPC   C4B65686  30.230  19.521   7.463
 5214POPC   NC365687  20.520  30.027   5.442
 5214POPC   PO465688  20.066  30.526   5.573
 5214POPC   GL165689  20.290  30.234   5.877
 5214POPC   GL265690  20.435  29.873   5.910
 5214POPC   C1A65691  20.436  30.166   6.310
 5214POPC   D2A65692  20.322  29.906   6.593
 5214POPC   C3A65693  20.444  30.043   6.952
 5214POPC   C4A65694  20.626  29.865   7.276
 5214POPC   C1B65695  20.700  29.715   6.257
 5214POPC   C2B65696  20.795  29.721   6.730
 5214POPC   C3B65697  20.878  29.470   7.118
 5214POPC   C4B65698  20.930  29.558   7.581
 5215POPC   NC365699  11.685  26.103   5.380
 5215POPC   PO465700  11.089  26.154   5.337
 5215POPC   GL165701  11.317  26.056   5.739
 5215POPC   GL265702  11.668  25.920   5.846
 5215POPC   C1A65703  11.209  26.262   6.116
 5215POPC   D2A65704  11.375  26.260   6.535
 5215POPC   C3A65705  11.204  26.188   6.943
 5215POPC   C4A65706  11.252  25.824   7.198
 5215POPC   C1B65707  11.468  25.843   6.229
 5215POPC   C2B65708  11.335  25.751   6.638
 5215POPC   C3B65709  11.648  25.657   6.915
 5215POPC   C4B65710  11.759  25.904   7.244
 5216POPC   NC365711   2.257  16.864   5.348
 5216POPC   PO465712   1.821  16.362   5.502
 5216POPC   GL165713   1.929  16.567   5.899
 5216POPC   GL265714   1.987  16.920   5.824
 5216POPC   C1A65715   1.981  16.582   6.367
 5216POPC   D2A65716   1.800  16.424   6.752
 5216POPC   C3A65717   2.026  16.584   7.098
 5216POPC   C4A65718   1.944  16.622   7.527
 5216POPC   C1B65719   1.998  17.078   6.278
 5216POPC   C2B65720   1.866  16.949   6.734
 5216POPC   C3B65721   1.818  17.079   7.178
 5216POPC   C4B65722   2.112  17.317   7.420
 5217POPC   NC365723  41.854  43.315   5.443
 5217POPC   PO465724  41.218  43.037   5.419
 5217POPC   GL165725  41.309  43.052   5.836
 5217POPC   GL265726  41.614  43.227   5.875
 5217POPC   C1A65727  41.486  42.897   6.234
 5217POPC   D2A65728  41.702  43.077   6.604
 5217POPC   C3A65729  41.402  42.938   6.925
 5217POPC   C4A65730  41.090  42.827   7.250
 5217POPC   C1B65731  41.358  43.387   6.231
 5217POPC   C2B65732  41.452  43.570   6.627
 5217POPC   C3B65733  41.563  43.450   7.032
 5217POPC   C4B65734  41.984  43.292   7.080
 5218POPC   NC365735  13.012  22.487   5.089
 5218POPC   PO465736  12.504  22.232   5.514
 5218POPC   GL165737  12.877  22.181   5.760
 5218POPC   GL265738  13.120  21.881   5.722
 5218POPC   C1A65739  12.841  22.394   6.138
 5218POPC   D2A65740  12.693  22.471   6.521
 5218POPC   C3A65741  12.922  22.309   6.869
 5218POPC   C4A65742  13.107  22.476   7.259
 5218POPC   C1B65743  12.955  21.833   6.176
 5218POPC   C2B65744  12.903  21.763   6.663
 5218POPC   C3B65745  12.884  21.877   7.147
 5218POPC   C4B65746  12.776  21.826   7.624
 5219POPC   NC365747   8.551  42.624   5.488
 5219POPC   PO465748   8.027  43.089   5.253
 5219POPC   GL165749   8.091  43.122   5.713
 5219POPC   GL265750   7.757  43.171   5.880
 5219POPC   C1A65751   8.199  43.246   6.159
 5219POPC   D2A65752   8.152  43.053   6.573
 5219POPC   C3A65753   8.118  43.258   6.976
 5219POPC   C4A65754   8.025  43.117   7.413
 5219POPC   C1B65755   7.904  42.821   6.153
 5219POPC   C2B65756   7.898  42.618   6.557
 5219POPC   C3B65757   7.965  42.757   6.996
 5219POPC   C4B65758   7.806  42.670   7.427
 5220POPC   NC365759  18.143  13.939   5.188
 5220POPC   PO465760  18.486  13.527   5.639
 5220POPC   GL165761  18.293  13.646   6.017
 5220POPC   GL265762  17.968  13.540   5.902
 5220POPC   C1A65763  18.017  13.861   6.342
 5220POPC   D2A65764  17.975  13.935   6.793
 5220POPC   C3A65765  18.308  13.745   7.082
 5220POPC   C4A65766  18.290  13.780   7.519
 5220POPC   C1B65767  18.004  13.330   6.297
 5220POPC   C2B65768  18.061  13.437   6.706
 5220POPC   C3B65769  18.198  13.270   7.058
 5220POPC   C4B65770  18.093  13.314   7.421
 5221POPC   NC365771  25.132  17.994   5.123
 5221POPC   PO465772  25.427  17.401   5.315
 5221POPC   GL165773  25.335  17.424   5.748
 5221POPC   GL265774  24.995  17.328   5.682
 5221POPC   C1A65775  25.413  17.554   6.207
 5221POPC   D2A65776  25.654  17.762   6.567
 5221POPC   C3A65777  25.534  17.756   7.032
 5221POPC   C4A65778  25.202  17.744   7.370
 5221POPC   C1B65779  24.971  17.294   6.130
 5221POPC   C2B65780  24.975  17.479   6.548
 5221POPC   C3B65781  24.983  17.454   7.000
 5221POPC   C4B65782  24.829  17.334   7.413
 5222POPC   NC365783  22.408  34.033   5.304
 5222POPC   PO465784  21.884  33.616   5.300
 5222POPC   GL165785  21.944  33.733   5.717
 5222POPC   GL265786  22.298  33.729   5.698
 5222POPC   C1A65787  21.809  33.582   6.164
 5222POPC   D2A65788  22.055  33.694   6.546
 5222POPC   C3A65789  21.878  33.689   6.923
 5222POPC   C4A65790  22.002  33.520   7.306
 5222POPC   C1B65791  22.198  33.898   6.110
 5222POPC   C2B65792  22.106  34.214   6.395
 5222POPC   C3B65793  22.115  34.172   6.817
 5222POPC   C4B65794  22.345  33.880   7.105
 5223POPC   NC365795  10.879  15.364   5.264
 5223POPC   PO465796  10.362  15.037   5.243
 5223POPC   GL165797  10.465  15.277   5.633
 5223POPC   GL265798  10.368  14.992   5.836
 5223POPC   C1A65799  10.575  15.428   6.074
 5223POPC   D2A65800  10.348  15.403   6.497
 5223POPC   C3A65801  10.530  15.415   6.895
 5223POPC   C4A65802  10.701  15.304   7.305
 5223POPC   C1B65803  10.602  14.954   6.230
 5223POPC   C2B65804  10.457  14.930   6.659
 5223POPC   C3B65805  10.680  14.843   7.018
 5223POPC   C4B65806  10.717  14.554   7.360
 5224POPC   NC365807  31.130   2.204   5.457
 5224POPC   PO465808  30.741   1.670   5.305
 5224POPC   GL165809  30.706   2.011   5.684
 5224POPC   GL265810  30.358   2.052   5.761
 5224POPC   C1A65811  30.858   2.012   6.143
 5224POPC   D2A65812  30.769   1.833   6.574
 5224POPC   C3A65813  31.058   1.737   6.910
 5224POPC   C4A65814  31.087   2.073   7.177
 5224POPC   C1B65815  30.380   2.205   6.199
 5224POPC   C2B65816  30.379   2.131   6.654
 5224POPC   C3B65817  30.537   2.049   7.093
 5224POPC   C4B65818  30.469   2.224   7.519
 5225POPC   NC365819  20.091  24.641   5.282
 5225POPC   PO465820  19.614  24.125   5.303
 5225POPC   GL165821  19.690  24.488   5.634
 5225POPC   GL265822  20.009  24.587   5.791
 5225POPC   C1A65823  19.657  24.452   6.132
 5225POPC   D2A65824  19.930  24.567   6.501
 5225POPC   C3A65825  19.839  24.610   6.907
 5225POPC   C4A65826  19.660  24.431   7.247
 5225POPC   C1B65827  20.121  24.265   6.128
 5225POPC   C2B65828  20.156  24.122   6.575
 5225POPC   C3B65829  20.031  24.118   7.021
 5225POPC   C4B65830  20.172  24.041   7.460
 5226POPC   NC365831   0.049  39.573   5.621
 5226POPC   PO465832  44.532  40.003   5.545
 5226POPC   GL165833  44.646  39.995   5.937
 5226POPC   GL265834  44.804  40.327   5.933
 5226POPC   C1A65835  44.690  39.887   6.363
 5226POPC   D2A65836  44.877  40.043   6.744
 5226POPC   C3A65837  44.737  40.012   7.174
 5226POPC   C4A65838  44.971  39.835   7.516
 5226POPC   C1B65839  44.436  40.380   6.195
 5226POPC   C2B65840  44.413  40.230   6.603
 5226POPC   C3B65841  44.319  40.278   7.002
 5226POPC   C4B65842  44.316  40.186   7.422
 5227POPC   NC365843  35.414  19.612   5.386
 5227POPC   PO465844  35.654  20.208   5.698
 5227POPC   GL165845  35.425  19.869   5.899
 5227POPC   GL265846  35.409  19.487   5.875
 5227POPC   C1A65847  35.467  19.882   6.338
 5227POPC   D2A65848  35.592  19.620   6.656
 5227POPC   C3A65849  35.619  19.820   7.080
 5227POPC   C4A65850  35.391  20.128   7.318
 5227POPC   C1B65851  35.199  19.419   6.257
 5227POPC   C2B65852  35.040  19.683   6.562
 5227POPC   C3B65853  35.120  19.898   6.933
 5227POPC   C4B65854  35.174  19.662   7.305
 5228POPC   NC365855  36.416  17.425   5.396
 5228POPC   PO465856  35.785  17.242   5.567
 5228POPC   GL165857  36.155  17.342   5.839
 5228POPC   GL265858  36.276  17.691   5.814
 5228POPC   C1A65859  36.350  17.326   6.257
 5228POPC   D2A65860  36.212  17.150   6.643
 5228POPC   C3A65861  36.281  17.330   7.031
 5228POPC   C4A65862  36.088  17.310   7.437
 5228POPC   C1B65863  36.060  17.741   6.217
 5228POPC   C2B65864  36.110  17.672   6.670
 5228POPC   C3B65865  35.939  17.700   7.089
 5228POPC   C4B65866  35.869  17.748   7.558
 5229POPC   NC365867  16.091   1.059   5.428
 5229POPC   PO465868  15.872   1.689   5.338
 5229POPC   GL165869  16.039   1.444   5.755
 5229POPC   GL265870  15.751   1.228   5.832
 5229POPC   C1A65871  16.074   1.312   6.211
 5229POPC   D2A65872  15.729   1.307   6.538
 5229POPC   C3A65873  15.877   1.226   6.938
 5229POPC   C4A65874  16.255   1.434   7.128
 5229POPC   C1B65875  15.714   0.926   6.189
 5229POPC   C2B65876  15.879   0.783   6.602
 5229POPC   C3B65877  15.750   0.742   7.052
 5229POPC   C4B65878  15.857   0.974   7.447
 5230POPC   NC365879  27.156  29.784   5.622
 5230POPC   PO465880  27.643  29.870   5.212
 5230POPC   GL165881  27.657  29.827   5.718
 5230POPC   GL265882  27.395  29.945   6.025
 5230POPC   C1A65883  27.872  29.831   6.121
 5230POPC   D2A65884  27.787  29.800   6.567
 5230POPC   C3A65885  27.597  30.069   6.848
 5230POPC   C4A65886  27.632  30.268   7.222
 5230POPC   C1B65887  27.230  29.828   6.433
 5230POPC   C2B65888  27.227  29.726   6.861
 5230POPC   C3B65889  27.357  29.838   7.287
 5230POPC   C4B65890  27.224  29.740   7.738
 5231POPC   NC365891   9.367   8.327   5.562
 5231POPC   PO465892   8.738   8.429   5.223
 5231POPC   GL165893   8.837   8.275   5.628
 5231POPC   GL265894   8.719   7.951   5.715
 5231POPC   C1A65895   8.932   8.284   6.081
 5231POPC   D2A65896   8.767   8.214   6.502
 5231POPC   C3A65897   8.877   8.409   6.886
 5231POPC   C4A65898   8.727   8.258   7.293
 5231POPC   C1B65899   8.784   7.814   6.172
 5231POPC   C2B65900   8.983   7.724   6.576
 5231POPC   C3B65901   8.967   7.890   6.996
 5231POPC   C4B65902   9.196   7.829   7.391
 5232POPC   NC365903  43.067  28.922   5.040
 5232POPC   PO465904  42.849  29.236   5.558
 5232POPC   GL165905  43.124  29.053   5.844
 5232POPC   GL265906  42.817  28.921   5.997
 5232POPC   C1A65907  43.226  29.053   6.274
 5232POPC   D2A65908  43.200  29.409   6.541
 5232POPC   C3A65909  43.358  29.278   6.924
 5232POPC   C4A65910  43.378  28.863   7.020
 5232POPC   C1B65911  42.715  28.920   6.418
 5232POPC   C2B65912  42.949  29.004   6.763
 5232POPC   C3B65913  42.878  29.200   7.157
 5232POPC   C4B65914  42.631  29.088   7.535
 5233POPC   NC365915  36.033   5.681   5.064
 5233POPC   PO465916  35.639   6.098   5.480
 5233POPC   GL165917  35.996   6.099   5.785
 5233POPC   GL265918  36.031   5.731   5.861
 5233POPC   C1A65919  36.275   6.116   6.175
 5233POPC   D2A65920  36.085   6.059   6.578
 5233POPC   C3A65921  36.255   6.046   6.995
 5233POPC   C4A65922  36.028   6.115   7.399
 5233POPC   C1B65923  36.186   5.613   6.292
 5233POPC   C2B65924  36.086   5.565   6.747
 5233POPC   C3B65925  36.187   5.566   7.200
 5233POPC   C4B65926  36.023   5.653   7.598
 5234POPC   NC365927  32.583  11.844   5.282
 5234POPC   PO465928  33.221  12.035   5.402
 5234POPC   GL165929  33.066  12.171   5.791
 5234POPC   GL265930  32.730  12.202   5.721
 5234POPC   C1A65931  33.090  12.045   6.225
 5234POPC   D2A65932  33.181  11.958   6.691
 5234POPC   C3A65933  33.235  12.248   7.085
 5234POPC   C4A65934  32.954  12.227   7.497
 5234POPC   C1B65935  32.598  12.087   6.121
 5234POPC   C2B65936  32.721  12.153   6.549
 5234POPC   C3B65937  32.762  12.158   6.966
 5234POPC   C4B65938  32.478  11.964   7.212
 5235POPC   NC365939   1.795   5.467   5.481
 5235POPC   PO465940   1.969   4.808   5.581
 5235POPC   GL165941   2.114   5.161   5.761
 5235POPC   GL265942   1.852   5.257   5.944
 5235POPC   C1A65943   2.303   5.438   6.067
 5235POPC   D2A65944   2.287   5.386   6.500
 5235POPC   C3A65945   2.274   5.352   6.902
 5235POPC   C4A65946   1.952   5.388   7.184
 5235POPC   C1B65947   1.901   5.110   6.319
 5235POPC   C2B65948   2.073   4.907   6.639
 5235POPC   C3B65949   2.196   4.837   7.014
 5235POPC   C4B65950   1.989   4.889   7.399
 5236POPC   NC365951  33.175  36.694   5.724
 5236POPC   PO465952  32.833  37.196   5.394
 5236POPC   GL165953  32.760  37.008   5.810
 5236POPC   GL265954  32.668  36.660   5.759
 5236POPC   C1A65955  32.883  37.043   6.269
 5236POPC   D2A65956  32.870  37.295   6.674
 5236POPC   C3A65957  32.961  36.999   7.005
 5236POPC   C4A65958  32.849  36.911   7.429
 5236POPC   C1B65959  32.691  36.531   6.208
 5236POPC   C2B65960  32.686  36.664   6.669
 5236POPC   C3B65961  32.747  36.518   7.114
 5236POPC   C4B65962  32.649  36.480   7.582
 5237POPC   NC365963  42.305   1.439   5.423
 5237POPC   PO465964  42.407   2.065   5.195
 5237POPC   GL165965  42.421   1.926   5.638
 5237POPC   GL265966  42.641   1.652   5.741
 5237POPC   C1A65967  42.451   2.032   6.090
 5237POPC   D2A65968  42.492   2.212   6.518
 5237POPC   C3A65969  42.158   2.131   6.767
 5237POPC   C4A65970  42.050   1.922   7.141
 5237POPC   C1B65971  42.446   1.523   6.132
 5237POPC   C2B65972  42.322   1.691   6.522
 5237POPC   C3B65973  42.498   1.759   6.923
 5237POPC   C4B65974  42.438   1.695   7.378
 5238POPC   NC365975  38.164  44.889   5.673
 5238POPC   PO465976  38.776  44.733   5.436
 5238POPC   GL165977  38.587  44.556   5.811
 5238POPC   GL265978  38.257  44.354   5.803
 5238POPC   C1A65979  38.478  44.636   6.247
 5238POPC   D2A65980  38.449  44.404   6.640
 5238POPC   C3A65981  38.693  44.581   6.999
 5238POPC   C4A65982  38.860  44.734   7.443
 5238POPC   C1B65983  37.966  44.454   6.164
 5238POPC   C2B65984  37.902  44.688   6.558
 5238POPC   C3B65985  38.148  44.710   6.949
 5238POPC   C4B65986  38.359  44.753   7.351
 5239POPC   NC365987   9.439  10.710   5.466
 5239POPC   PO465988   9.746  10.103   5.339
 5239POPC   GL165989   9.677  10.320   5.742
 5239POPC   GL265990   9.335  10.305   5.871
 5239POPC   C1A65991   9.825  10.399   6.181
 5239POPC   D2A65992   9.761  10.382   6.649
 5239POPC   C3A65993   9.956  10.658   6.983
 5239POPC   C4A65994   9.951  10.469   7.377
 5239POPC   C1B65995   9.341  10.620   6.217
 5239POPC   C2B65996   9.346  10.751   6.656
 5239POPC   C3B65997   9.455  10.555   7.057
 5239POPC   C4B65998   9.542  10.127   7.111
 5240POPC   NC365999  13.516  24.056   5.417
 5240POPC   PO466000  13.625  23.336   5.352
 5240POPC   GL166001  13.708  23.625   5.709
 5240POPC   GL266002  13.366  23.719   5.755
 5240POPC   C1A66003  13.734  23.810   6.158
 5240POPC   D2A66004  13.820  23.715   6.614
 5240POPC   C3A66005  13.710  23.516   7.018
 5240POPC   C4A66006  13.743  23.542   7.489
 5240POPC   C1B66007  13.275  24.034   6.088
 5240POPC   C2B66008  13.370  23.943   6.512
 5240POPC   C3B66009  13.365  23.981   6.950
 5240POPC   C4B66010  13.111  24.147   7.288
 5241POPC   NC366011  29.466  30.877   5.432
 5241POPC   PO466012  28.901  30.539   5.217
 5241POPC   GL166013  29.104  30.451   5.645
 5241POPC   GL266014  29.476  30.486   5.752
 5241POPC   C1A66015  28.965  30.506   6.091
 5241POPC   D2A66016  28.736  30.721   6.432
 5241POPC   C3A66017  28.898  30.725   6.867
 5241POPC   C4A66018  28.921  30.434   7.183
 5241POPC   C1B66019  29.416  30.782   6.084
 5241POPC   C2B66020  29.255  30.707   6.474
 5241POPC   C3B66021  29.384  30.517   6.841
 5241POPC   C4B66022  29.384  30.810   7.159
 5242POPC   NC366023   4.002   9.171   5.054
 5242POPC   PO466024   4.299   8.663   5.290
 5242POPC   GL166025   4.268   8.896   5.677
 5242POPC   GL266026   3.953   8.760   5.769
 5242POPC   C1A66027   4.461   9.049   6.083
 5242POPC   D2A66028   4.607   8.978   6.510
 5242POPC   C3A66029   4.372   9.056   6.896
 5242POPC   C4A66030   4.565   9.227   7.231
 5242POPC   C1B66031   3.935   8.972   6.191
 5242POPC   C2B66032   3.862   9.046   6.634
 5242POPC   C3B66033   3.924   8.812   6.995
 5242POPC   C4B66034   3.986   8.904   7.398
 5243POPC   NC366035   4.723  38.326   5.312
 5243POPC   PO466036   5.421  38.192   5.316
 5243POPC   GL166037   5.096  38.309   5.674
 5243POPC   GL266038   4.776  38.462   5.849
 5243POPC   C1A66039   5.178  38.316   6.144
 5243POPC   D2A66040   5.117  38.608   6.488
 5243POPC   C3A66041   5.166  38.527   6.922
 5243POPC   C4A66042   4.991  38.775   7.242
 5243POPC   C1B66043   4.717  38.174   6.263
 5243POPC   C2B66044   4.885  38.151   6.679
 5243POPC   C3B66045   4.818  38.095   7.114
 5243POPC   C4B66046   5.074  38.265   7.376
 5244POPC   NC366047   0.152   5.462   5.070
 5244POPC   PO466048  44.656   5.161   5.461
 5244POPC   GL166049  44.607   5.061   5.868
 5244POPC   GL266050  44.915   5.210   5.911
 5244POPC   C1A66051  44.425   5.300   6.215
 5244POPC   D2A66052  44.164   5.354   6.588
 5244POPC   C3A66053  44.382   5.203   6.951
 5244POPC   C4A66054  44.520   5.201   7.368
 5244POPC   C1B66055  44.937   5.228   6.322
 5244POPC   C2B66056  44.796   5.055   6.670
 5244POPC   C3B66057  44.865   4.958   7.073
 5244POPC   C4B66058   0.057   5.153   7.401
 5245POPC   NC366059  34.857  26.082   5.396
 5245POPC   PO466060  35.471  26.345   5.435
 5245POPC   GL166061  35.551  25.974   5.692
 5245POPC   GL266062  35.219  25.841   5.763
 5245POPC   C1A66063  35.651  25.889   6.135
 5245POPC   D2A66064  35.721  26.096   6.526
 5245POPC   C3A66065  35.431  26.161   6.876
 5245POPC   C4A66066  35.529  26.059   7.290
 5245POPC   C1B66067  35.184  25.668   6.187
 5245POPC   C2B66068  35.296  25.703   6.643
 5245POPC   C3B66069  35.152  25.742   7.088
 5245POPC   C4B66070  35.219  25.761   7.547
 5246POPC   NC366071  34.808  13.268   5.393
 5246POPC   PO466072  34.392  13.833   5.389
 5246POPC   GL166073  34.573  13.738   5.749
 5246POPC   GL266074  34.926  13.684   5.702
 5246POPC   C1A66075  34.602  13.766   6.155
 5246POPC   D2A66076  34.551  14.004   6.490
 5246POPC   C3A66077  34.518  13.841   6.832
 5246POPC   C4A66078  34.612  13.830   7.220
 5246POPC   C1B66079  35.050  13.509   6.121
 5246POPC   C2B66080  34.938  13.673   6.530
 5246POPC   C3B66081  34.969  13.605   6.941
 5246POPC   C4B66082  34.846  13.352   7.275
 5247POPC   NC366083  14.580  43.499   5.094
 5247POPC   PO466084  14.248  44.081   5.294
 5247POPC   GL166085  14.243  44.038   5.724
 5247POPC   GL266086  14.543  43.874   5.689
 5247POPC   C1A66087  14.121  44.245   6.121
 5247POPC   D2A66088  14.207  44.261   6.577
 5247POPC   C3A66089  14.041  43.900   6.807
 5247POPC   C4A66090  14.057  43.710   7.209
 5247POPC   C1B66091  14.571  43.959   6.124
 5247POPC   C2B66092  14.630  43.979   6.567
 5247POPC   C3B66093  14.527  43.882   6.987
 5247POPC   C4B66094  14.852  43.661   7.152
 5248POPC   NC366095  35.016  33.326   5.400
 5248POPC   PO466096  35.334  32.755   5.436
 5248POPC   GL166097  35.385  32.854   5.880
 5248POPC   GL266098  35.258  33.157   5.828
 5248POPC   C1A66099  35.392  33.023   6.323
 5248POPC   D2A66100  35.533  33.302   6.665
 5248POPC   C3A66101  35.467  33.049   7.039
 5248POPC   C4A66102  35.332  33.087   7.477
 5248POPC   C1B66103  35.020  33.311   6.126
 5248POPC   C2B66104  35.054  33.404   6.532
 5248POPC   C3B66105  34.998  33.238   6.934
 5248POPC   C4B66106  34.834  33.236   7.333
 5249POPC   NC366107   4.164  25.573   5.356
 5249POPC   PO466108   4.544  26.109   5.167
 5249POPC   GL166109   4.504  26.121   5.651
 5249POPC   GL266110   4.529  25.776   5.716
 5249POPC   C1A66111   4.630  26.125   6.114
 5249POPC   D2A66112   4.621  25.983   6.560
 5249POPC   C3A66113   4.314  26.202   6.849
 5249POPC   C4A66114   4.343  26.503   7.218
 5249POPC   C1B66115   4.222  25.787   6.048
 5249POPC   C2B66116   4.152  25.777   6.480
 5249POPC   C3B66117   4.087  25.710   6.892
 5249POPC   C4B66118   4.138  25.942   7.270
 5250POPC   NC366119  21.321  11.138   5.331
 5250POPC   PO466120  20.997  11.646   5.565
 5250POPC   GL166121  21.126  11.220   5.805
 5250POPC   GL266122  21.504  11.088   5.815
 5250POPC   C1A66123  21.235  11.116   6.253
 5250POPC   D2A66124  21.431  11.213   6.649
 5250POPC   C3A66125  21.207  11.248   7.022
 5250POPC   C4A66126  20.896  11.516   7.220
 5250POPC   C1B66127  21.747  11.152   6.216
 5250POPC   C2B66128  21.870  10.976   6.640
 5250POPC   C3B66129  21.782  11.192   7.067
 5250POPC   C4B66130  21.775  11.201   7.549
 5251POPC   NC366131  32.876  36.782   5.177
 5251POPC   PO466132  32.202  36.811   5.255
 5251POPC   GL166133  32.255  36.942   5.680
 5251POPC   GL266134  31.992  37.044   5.826
 5251POPC   C1A66135  32.360  36.921   6.143
 5251POPC   D2A66136  32.194  36.742   6.527
 5251POPC   C3A66137  32.245  36.920   6.917
 5251POPC   C4A66138  32.388  37.073   7.288
 5251POPC   C1B66139  31.940  37.245   6.187
 5251POPC   C2B66140  31.828  37.110   6.563
 5251POPC   C3B66141  31.786  37.164   6.939
 5251POPC   C4B66142  31.924  37.303   7.263
 5252POPC   NC366143  19.193   3.980   5.345
 5252POPC   PO466144  18.561   4.334   5.258
 5252POPC   GL166145  18.727   4.355   5.722
 5252POPC   GL266146  19.021   4.151   5.846
 5252POPC   C1A66147  18.699   4.315   6.198
 5252POPC   D2A66148  19.002   4.132   6.513
 5252POPC   C3A66149  18.931   4.153   6.946
 5252POPC   C4A66150  18.917   4.078   7.392
 5252POPC   C1B66151  19.170   4.488   6.168
 5252POPC   C2B66152  18.980   4.655   6.555
 5252POPC   C3B66153  19.097   4.763   6.953
 5252POPC   C4B66154  19.234   4.542   7.323
 5253POPC   NC366155  44.444  19.441   5.429
 5253POPC   PO466156  44.719  18.788   5.429
 5253POPC   GL166157  44.769  19.046   5.792
 5253POPC   GL266158  44.454  19.228   5.882
 5253POPC   C1A66159  44.726  18.970   6.232
 5253POPC   D2A66160  44.563  18.810   6.616
 5253POPC   C3A66161  44.833  18.786   6.959
 5253POPC   C4A66162  44.562  18.647   7.255
 5253POPC   C1B66163  44.271  19.520   6.171
 5253POPC   C2B66164  44.326  19.274   6.556
 5253POPC   C3B66165  44.554  19.215   6.929
 5253POPC   C4B66166  44.486  19.454   7.280
 5254POPC   NC366167  16.393  14.086   5.317
 5254POPC   PO466168  16.883  14.628   5.316
 5254POPC   GL166169  16.924  14.439   5.738
 5254POPC   GL266170  16.672  14.178   5.741
 5254POPC   C1A66171  16.703  14.467   6.172
 5254POPC   D2A66172  16.456  14.568   6.578
 5254POPC   C3A66173  16.694  14.511   6.970
 5254POPC   C4A66174  17.069  14.345   7.217
 5254POPC   C1B66175  16.567  13.967   6.115
 5254POPC   C2B66176  16.642  14.086   6.534
 5254POPC   C3B66177  16.750  14.003   6.942
 5254POPC   C4B66178  16.569  13.958   7.327
 5255POPC   NC366179  31.923   5.280   5.305
 5255POPC   PO466180  31.287   5.051   5.115
 5255POPC   GL166181  31.289   5.120   5.631
 5255POPC   GL266182  31.436   4.848   5.866
 5255POPC   C1A66183  31.083   5.192   6.056
 5255POPC   D2A66184  31.124   5.269   6.528
 5255POPC   C3A66185  31.267   4.949   6.849
 5255POPC   C4A66186  31.406   5.164   7.224
 5255POPC   C1B66187  31.440   4.916   6.312
 5255POPC   C2B66188  31.656   5.170   6.619
 5255POPC   C3B66189  31.820   4.989   6.991
 5255POPC   C4B66190  31.727   4.826   7.420
 5256POPC   NC366191  19.178  27.791   5.332
 5256POPC   PO466192  18.656  27.721   5.683
 5256POPC   GL166193  19.058  27.669   5.841
 5256POPC   GL266194  19.147  27.978   5.842
 5256POPC   C1A66195  19.078  27.602   6.283
 5256POPC   D2A66196  18.715  27.453   6.557
 5256POPC   C3A66197  18.728  27.557   6.991
 5256POPC   C4A66198  19.046  27.394   7.271
 5256POPC   C1B66199  19.335  28.068   6.258
 5256POPC   C2B66200  19.413  27.825   6.625
 5256POPC   C3B66201  19.346  27.790   7.106
 5256POPC   C4B66202  19.403  27.624   7.569
 5257POPC   NC366203   4.724  11.936   5.473
 5257POPC   PO466204   4.125  12.225   5.416
 5257POPC   GL166205   4.244  12.082   5.849
 5257POPC   GL266206   4.457  11.786   5.869
 5257POPC   C1A66207   4.425  12.176   6.277
 5257POPC   D2A66208   4.374  12.272   6.711
 5257POPC   C3A66209   4.631  12.124   7.064
 5257POPC   C4A66210   4.308  12.301   7.302
 5257POPC   C1B66211   4.360  11.665   6.274
 5257POPC   C2B66212   4.339  11.766   6.709
 5257POPC   C3B66213   4.218  11.838   7.123
 5257POPC   C4B66214   4.461  11.840   7.510
 5258POPC   NC366215  12.689  15.595   5.184
 5258POPC   PO466216  12.837  14.984   5.505
 5258POPC   GL166217  12.861  15.294   5.802
 5258POPC   GL266218  13.115  15.080   5.949
 5258POPC   C1A66219  12.846  15.337   6.264
 5258POPC   D2A66220  12.895  15.089   6.598
 5258POPC   C3A66221  12.578  15.100   6.910
 5258POPC   C4A66222  12.727  15.489   7.094
 5258POPC   C1B66223  13.295  14.853   6.286
 5258POPC   C2B66224  13.292  14.786   6.702
 5258POPC   C3B66225  13.180  15.054   7.027
 5258POPC   C4B66226  12.852  15.045   7.325
 5259POPC   NC366227   0.272  32.038   5.478
 5259POPC   PO466228   0.868  32.339   5.465
 5259POPC   GL166229   0.674  32.126   5.838
 5259POPC   GL266230   0.316  32.261   5.926
 5259POPC   C1A66231   0.679  32.288   6.290
 5259POPC   D2A66232   0.281  32.491   6.441
 5259POPC   C3A66233   0.151  32.382   6.858
 5259POPC   C4A66234   0.386  32.372   7.248
 5259POPC   C1B66235   0.388  31.892   6.240
 5259POPC   C2B66236   0.450  31.962   6.716
 5259POPC   C3B66237   0.272  31.888   7.138
 5259POPC   C4B66238   0.016  32.080   7.475
 5260POPC   NC366239  23.099  30.094   5.031
 5260POPC   PO466240  22.779  29.699   5.431
 5260POPC   GL166241  23.022  29.944   5.734
 5260POPC   GL266242  23.275  29.720   5.811
 5260POPC   C1A66243  23.098  30.111   6.165
 5260POPC   D2A66244  22.926  29.926   6.575
 5260POPC   C3A66245  23.127  30.050   6.967
 5260POPC   C4A66246  22.912  29.882   7.334
 5260POPC   C1B66247  23.192  29.623   6.249
 5260POPC   C2B66248  23.401  29.750   6.666
 5260POPC   C3B66249  23.275  29.547   7.066
 5260POPC   C4B66250  22.947  29.321   7.345
 5261POPC   NC366251   6.024   1.237   5.469
 5261POPC   PO466252   5.849   0.657   5.776
 5261POPC   GL166253   5.896   1.054   5.950
 5261POPC   GL266254   5.713   1.345   5.863
 5261POPC   C1A66255   5.838   1.164   6.347
 5261POPC   D2A66256   6.068   1.240   6.684
 5261POPC   C3A66257   5.833   1.136   7.010
 5261POPC   C4A66258   5.906   1.106   7.431
 5261POPC   C1B66259   5.499   1.564   6.182
 5261POPC   C2B66260   5.655   1.575   6.599
 5261POPC   C3B66261   5.794   1.632   6.984
 5261POPC   C4B66262   5.599   1.504   7.342
 5262POPC   NC366263  18.880   5.835   5.435
 5262POPC   PO466264  19.520   5.737   5.588
 5262POPC   GL166265  19.227   6.003   5.874
 5262POPC   GL266266  18.875   5.958   5.930
 5262POPC   C1A66267  19.082   6.307   6.201
 5262POPC   D2A66268  19.165   6.330   6.625
 5262POPC   C3A66269  18.869   6.148   6.927
 5262POPC   C4A66270  19.104   6.011   7.271
 5262POPC   C1B66271  19.083   5.806   6.328
 5262POPC   C2B66272  18.867   5.673   6.707
 5262POPC   C3B66273  18.754   5.671   7.140
 5262POPC   C4B66274  19.052   5.557   7.473
 5263POPC   NC366275   1.587   0.038   5.544
 5263POPC   PO466276   1.254   0.638   5.492
 5263POPC   GL166277   1.111   0.514   5.877
 5263POPC   GL266278   1.227   0.168   5.905
 5263POPC   C1A66279   1.032   0.644   6.283
 5263POPC   D2A66280   1.233   0.564   6.695
 5263POPC   C3A66281   1.043   0.573   7.108
 5263POPC   C4A66282   0.827   0.922   7.252
 5263POPC   C1B66283   1.558   0.130   6.247
 5263POPC   C2B66284   1.628   0.258   6.695
 5263POPC   C3B66285   1.375   0.178   7.077
 5263POPC   C4B66286   1.349   0.368   7.512
 5264POPC   NC366287   7.899   3.480   5.500
 5264POPC   PO466288   8.523   3.729   5.366
 5264POPC   GL166289   8.385   3.500   5.739
 5264POPC   GL266290   8.302   3.173   5.592
 5264POPC   C1A66291   8.190   3.590   6.170
 5264POPC   D2A66292   8.042   3.604   6.620
 5264POPC   C3A66293   8.309   3.430   6.942
 5264POPC   C4A66294   8.561   3.708   7.168
 5264POPC   C1B66295   8.126   3.109   6.022
 5264POPC   C2B66296   8.216   3.155   6.467
 5264POPC   C3B66297   7.903   3.138   6.825
 5264POPC   C4B66298   8.061   3.094   7.245
 5265POPC   NC366299  33.069  24.614   5.413
 5265POPC   PO466300  32.597  24.840   5.583
 5265POPC   GL166301  32.868  24.589   5.904
 5265POPC   GL266302  33.176  24.367   5.861
 5265POPC   C1A66303  32.731  24.337   6.275
 5265POPC   D2A66304  32.365  24.368   6.572
 5265POPC   C3A66305  32.449  24.639   6.914
 5265POPC   C4A66306  32.775  24.657   7.213
 5265POPC   C1B66307  33.367  24.590   6.216
 5265POPC   C2B66308  33.275  24.674   6.659
 5265POPC   C3B66309  33.426  24.695   7.084
 5265POPC   C4B66310  33.221  24.620   7.466
 5266POPC   NC366311  15.548  44.728   5.383
 5266POPC   PO466312  16.158  44.532   5.351
 5266POPC   GL166313  15.937  44.362   5.691
 5266POPC   GL266314  15.682  44.577   5.846
 5266POPC   C1A66315  16.049  44.304   6.118
 5266POPC   D2A66316  16.270  44.525   6.443
 5266POPC   C3A66317  16.048  44.705   6.772
 5266POPC   C4A66318  16.029  44.548   7.205
 5266POPC   C1B66319  15.805  44.738   6.262
 5266POPC   C2B66320  15.596  44.919   6.611
 5266POPC   C3B66321  15.626  44.812   7.025
 5266POPC   C4B66322  15.827   0.003   7.381
 5267POPC   NC366323  10.704  25.923   5.306
 5267POPC   PO466324  10.381  26.357   5.429
 5267POPC   GL166325  10.475  26.112   5.760
 5267POPC   GL266326  10.811  26.125   5.772
 5267POPC   C1A66327  10.492  26.079   6.213
 5267POPC   D2A66328  10.398  25.867   6.593
 5267POPC   C3A66329  10.397  26.031   6.990
 5267POPC   C4A66330  10.194  25.806   7.325
 5267POPC   C1B66331  10.936  25.848   6.103
 5267POPC   C2B66332  10.912  26.026   6.516
 5267POPC   C3B66333  10.848  25.823   6.891
 5267POPC   C4B66334  10.712  25.704   7.291
 5268POPC   NC366335  12.960  38.845   5.416
 5268POPC   PO466336  12.367  38.530   5.496
 5268POPC   GL166337  12.504  38.350   5.897
 5268POPC   GL266338  12.719  38.069   5.765
 5268POPC   C1A66339  12.528  38.544   6.344
 5268POPC   D2A66340  12.856  38.689   6.680
 5268POPC   C3A66341  12.921  38.603   7.129
 5268POPC   C4A66342  13.331  38.564   7.368
 5268POPC   C1B66343  12.876  37.988   6.182
 5268POPC   C2B66344  12.836  38.176   6.581
 5268POPC   C3B66345  12.779  38.102   7.012
 5268POPC   C4B66346  13.058  38.093   7.360
 5269POPC   NC366347  43.658  40.903   5.095
 5269POPC   PO466348  43.969  40.490   5.471
 5269POPC   GL166349  44.070  40.624   5.868
 5269POPC   GL266350  43.881  40.863   5.842
 5269POPC   C1A66351  43.985  40.571   6.282
 5269POPC   D2A66352  44.158  40.657   6.630
 5269POPC   C3A66353  43.885  40.514   6.917
 5269POPC   C4A66354  44.027  40.627   7.273
 5269POPC   C1B66355  43.856  41.083   6.192
 5269POPC   C2B66356  44.062  41.160   6.560
 5269POPC   C3B66357  43.981  41.027   6.937
 5269POPC   C4B66358  43.777  41.096   7.265
 5270POPC   NC366359  24.815  19.672   5.346
 5270POPC   PO466360  25.579  19.732   5.439
 5270POPC   GL166361  25.250  19.752   5.754
 5270POPC   GL266362  24.987  19.532   5.790
 5270POPC   C1A66363  25.268  19.877   6.176
 5270POPC   D2A66364  25.497  19.885   6.566
 5270POPC   C3A66365  25.257  19.884   6.945
 5270POPC   C4A66366  25.485  19.907   7.315
 5270POPC   C1B66367  25.098  19.393   6.163
 5270POPC   C2B66368  25.097  19.548   6.541
 5270POPC   C3B66369  24.928  19.462   6.906
 5270POPC   C4B66370  25.086  19.515   7.268
 5271POPC   NC366371  34.728  36.755   5.372
 5271POPC   PO466372  34.391  37.373   5.324
 5271POPC   GL166373  34.432  37.047   5.687
 5271POPC   GL266374  34.746  36.961   5.835
 5271POPC   C1A66375  34.326  36.816   6.070
 5271POPC   D2A66376  34.300  36.977   6.496
 5271POPC   C3A66377  34.401  36.726   6.854
 5271POPC   C4A66378  34.411  36.843   7.254
 5271POPC   C1B66379  34.906  36.796   6.230
 5271POPC   C2B66380  34.941  36.841   6.690
 5271POPC   C3B66381  34.878  36.699   7.122
 5271POPC   C4B66382  34.793  36.658   7.589
 5272POPC   NC366383  19.302  32.904   5.423
 5272POPC   PO466384  18.811  33.316   5.335
 5272POPC   GL166385  19.000  33.191   5.757
 5272POPC   GL266386  19.030  32.799   5.859
 5272POPC   C1A66387  18.849  33.110   6.200
 5272POPC   D2A66388  19.085  32.942   6.548
 5272POPC   C3A66389  18.773  32.814   6.832
 5272POPC   C4A66390  18.632  32.993   7.183
 5272POPC   C1B66391  19.285  32.547   6.181
 5272POPC   C2B66392  19.512  32.515   6.595
 5272POPC   C3B66393  19.305  32.682   6.945
 5272POPC   C4B66394  19.121  33.103   7.089
 5273POPC   NC366395  41.177  43.600   5.076
 5273POPC   PO466396  40.677  43.330   5.394
 5273POPC   GL166397  40.787  43.164   5.812
 5273POPC   GL266398  40.452  43.190   5.869
 5273POPC   C1A66399  40.902  43.065   6.211
 5273POPC   D2A66400  40.545  43.135   6.486
 5273POPC   C3A66401  40.712  43.138   6.897
 5273POPC   C4A66402  40.572  43.235   7.310
 5273POPC   C1B66403  40.481  42.788   6.071
 5273POPC   C2B66404  40.297  42.665   6.457
 5273POPC   C3B66405  40.354  42.569   6.882
 5273POPC   C4B66406  40.604  42.721   7.168
 5274POPC   NC366407   4.415  29.326   5.401
 5274POPC   PO466408   4.046  28.754   5.593
 5274POPC   GL166409   4.240  29.096   5.805
 5274POPC   GL266410   4.605  29.252   5.855
 5274POPC   C1A66411   4.065  29.240   6.141
 5274POPC   D2A66412   4.108  28.984   6.506
 5274POPC   C3A66413   4.207  29.185   6.922
 5274POPC   C4A66414   4.024  29.246   7.308
 5274POPC   C1B66415   4.554  29.021   6.219
 5274POPC   C2B66416   4.621  29.061   6.648
 5274POPC   C3B66417   4.649  28.864   7.030
 5274POPC   C4B66418   4.700  28.742   7.462
 5275POPC   NC366419  25.166  17.013   5.315
 5275POPC   PO466420  25.566  16.411   5.284
 5275POPC   GL166421  25.405  16.449   5.728
 5275POPC   GL266422  25.048  16.570   5.755
 5275POPC   C1A66423  25.549  16.450   6.174
 5275POPC   D2A66424  25.495  16.692   6.568
 5275POPC   C3A66425  25.281  16.531   6.956
 5275POPC   C4A66426  25.493  16.589   7.318
 5275POPC   C1B66427  25.218  16.839   6.106
 5275POPC   C2B66428  25.068  16.970   6.532
 5275POPC   C3B66429  25.257  17.034   6.949
 5275POPC   C4B66430  25.123  16.937   7.350
 5276POPC   NC366431  29.443  15.121   5.469
 5276POPC   PO466432  28.721  15.024   5.541
 5276POPC   GL166433  29.061  15.094   5.807
 5276POPC   GL266434  28.903  15.390   5.880
 5276POPC   C1A66435  29.323  15.228   6.158
 5276POPC   D2A66436  29.474  15.088   6.534
 5276POPC   C3A66437  29.382  15.287   6.891
 5276POPC   C4A66438  29.179  15.082   7.215
 5276POPC   C1B66439  28.844  15.108   6.265
 5276POPC   C2B66440  28.940  15.166   6.684
 5276POPC   C3B66441  28.717  15.236   7.029
 5276POPC   C4B66442  28.652  15.527   7.325
 5277POPC   NC366443  44.292  10.737   5.504
 5277POPC   PO466444  44.649  10.305   5.199
 5277POPC   GL166445  44.590  10.382   5.718
 5277POPC   GL266446  44.757  10.622   5.918
 5277POPC   C1A66447  44.380  10.456   6.173
 5277POPC   D2A66448  44.637  10.385   6.561
 5277POPC   C3A66449  44.703  10.756   6.809
 5277POPC   C4A66450  44.446  10.772   7.171
 5277POPC   C1B66451  44.945  10.318   6.145
 5277POPC   C2B66452   0.174  10.356   6.529
 5277POPC   C3B66453   0.061  10.244   6.931
 5277POPC   C4B66454  44.890  10.493   7.218
 5278POPC   NC366455  39.825  38.485   5.424
 5278POPC   PO466456  40.423  38.622   5.188
 5278POPC   GL166457  40.214  38.710   5.707
 5278POPC   GL266458  39.898  38.581   5.911
 5278POPC   C1A66459  40.361  38.581   6.167
 5278POPC   D2A66460  40.322  38.232   6.499
 5278POPC   C3A66461  40.191  38.359   6.928
 5278POPC   C4A66462  40.239  38.424   7.369
 5278POPC   C1B66463  39.812  38.362   6.300
 5278POPC   C2B66464  39.424  38.216   6.531
 5278POPC   C3B66465  39.433  38.152   6.976
 5278POPC   C4B66466  39.725  38.407   7.208
 5279POPC   NC366467   4.890  44.543   5.484
 5279POPC   PO466468   5.400  44.929   5.659
 5279POPC   GL166469   5.209  44.704   5.889
 5279POPC   GL266470   5.319  44.388   5.740
 5279POPC   C1A66471   5.149  44.838   6.299
 5279POPC   D2A66472   5.103  44.808   6.701
 5279POPC   C3A66473   5.409  44.878   7.021
 5279POPC   C4A66474   5.060  44.778   7.228
 5279POPC   C1B66475   5.048  44.287   6.111
 5279POPC   C2B66476   4.942  44.175   6.507
 5279POPC   C3B66477   4.910  44.374   6.897
 5279POPC   C4B66478   5.077  44.290   7.272
 5280POPC   NC366479  15.025  27.966   5.459
 5280POPC   PO466480  15.234  28.510   5.114
 5280POPC   GL166481  15.224  28.476   5.623
 5280POPC   GL266482  14.877  28.382   5.740
 5280POPC   C1A66483  15.259  28.329   6.103
 5280POPC   D2A66484  15.436  28.329   6.550
 5280POPC   C3A66485  15.152  28.261   6.920
 5280POPC   C4A66486  15.333  28.212   7.311
 5280POPC   C1B66487  14.769  28.539   6.150
 5280POPC   C2B66488  14.855  28.485   6.574
 5280POPC   C3B66489  14.834  28.779   6.925
 5280POPC   C4B66490  14.927  28.600   7.307
 5281POPC   NC366491  40.720   3.219   5.397
 5281POPC   PO466492  40.680   3.888   5.279
 5281POPC   GL166493  40.775   3.718   5.686
 5281POPC   GL266494  40.534   3.934   5.827
 5281POPC   C1A66495  41.002   3.590   6.091
 5281POPC   D2A66496  41.073   3.686   6.562
 5281POPC   C3A66497  40.945   3.340   6.857
 5281POPC   C4A66498  40.959   3.195   7.304
 5281POPC   C1B66499  40.493   3.585   6.127
 5281POPC   C2B66500  40.463   3.355   6.510
 5281POPC   C3B66501  40.505   3.641   6.837
 5281POPC   C4B66502  40.650   3.621   7.225
 5282POPC   NC366503  32.343  37.365   5.408
 5282POPC   PO466504  32.212  38.008   5.311
 5282POPC   GL166505  32.154  37.757   5.755
 5282POPC   GL266506  32.332  37.422   5.897
 5282POPC   C1A66507  32.103  37.719   6.233
 5282POPC   D2A66508  32.088  37.532   6.639
 5282POPC   C3A66509  32.401  37.420   6.894
 5282POPC   C4A66510  32.328  37.590   7.277
 5282POPC   C1B66511  32.505  37.404   6.315
 5282POPC   C2B66512  32.606  37.766   6.570
 5282POPC   C3B66513  32.324  37.944   6.857
 5282POPC   C4B66514  32.321  38.082   7.246
 5283POPC   NC366515  43.443  12.069   5.392
 5283POPC   PO466516  44.041  12.461   5.206
 5283POPC   GL166517  44.050  12.291   5.663
 5283POPC   GL266518  44.145  11.958   5.774
 5283POPC   C1A66519  43.850  12.263   6.109
 5283POPC   D2A66520  43.835  12.015   6.480
 5283POPC   C3A66521  43.841  12.259   6.847
 5283POPC   C4A66522  43.622  12.342   7.214
 5283POPC   C1B66523  44.229  11.781   6.205
 5283POPC   C2B66524  44.223  11.674   6.659
 5283POPC   C3B66525  43.870  11.765   6.933
 5283POPC   C4B66526  43.932  11.964   7.329
 5284POPC   NC366527  27.748  30.559   5.401
 5284POPC   PO466528  27.128  30.715   5.517
 5284POPC   GL166529  27.448  30.712   5.802
 5284POPC   GL266530  27.588  30.370   5.835
 5284POPC   C1A66531  27.384  30.642   6.205
 5284POPC   D2A66532  27.377  30.335   6.479
 5284POPC   C3A66533  27.438  30.558   6.860
 5284POPC   C4A66534  27.318  30.660   7.291
 5284POPC   C1B66535  27.882  30.508   6.150
 5284POPC   C2B66536  27.893  30.359   6.545
 5284POPC   C3B66537  27.965  30.547   6.903
 5284POPC   C4B66538  27.867  30.712   7.270
 5285POPC   NC366539  18.691  20.741   5.553
 5285POPC   PO466540  19.179  20.430   5.338
 5285POPC   GL166541  19.166  20.484   5.748
 5285POPC   GL266542  19.311  20.814   5.787
 5285POPC   C1A66543  19.003  20.492   6.162
 5285POPC   D2A66544  19.123  20.633   6.574
 5285POPC   C3A66545  18.940  20.466   6.959
 5285POPC   C4A66546  18.956  20.594   7.391
 5285POPC   C1B66547  19.434  20.960   6.211
 5285POPC   C2B66548  19.546  20.888   6.655
 5285POPC   C3B66549  19.259  20.897   7.037
 5285POPC   C4B66550  19.294  20.965   7.504
 5286POPC   NC366551  14.194  40.963   5.320
 5286POPC   PO466552  14.500  40.432   5.397
 5286POPC   GL166553  14.346  40.663   5.747
 5286POPC   GL266554  14.450  40.992   5.756
 5286POPC   C1A66555  14.204  40.675   6.176
 5286POPC   D2A66556  14.180  40.928   6.536
 5286POPC   C3A66557  14.368  40.767   6.913
 5286POPC   C4A66558  14.444  40.976   7.300
 5286POPC   C1B66559  14.617  40.973   6.188
 5286POPC   C2B66560  14.659  41.081   6.640
 5286POPC   C3B66561  14.870  40.997   7.037
 5286POPC   C4B66562  15.001  40.954   7.505
 5287POPC   NC366563  36.837   0.591   5.431
 5287POPC   PO466564  37.525   0.749   5.517
 5287POPC   GL166565  37.156   0.762   5.781
 5287POPC   GL266566  37.013   0.398   5.865
 5287POPC   C1A66567  36.850   0.814   6.125
 5287POPC   D2A66568  36.810   0.936   6.561
 5287POPC   C3A66569  36.757   0.638   6.899
 5287POPC   C4A66570  36.914   0.637   7.316
 5287POPC   C1B66571  36.862   0.267   6.288
 5287POPC   C2B66572  36.824   0.122   6.740
 5287POPC   C3B66573  36.728   0.182   7.184
 5287POPC   C4B66574  36.704   0.183   7.640
 5288POPC   NC366575  37.251  42.631   5.382
 5288POPC   PO466576  37.108  41.954   5.418
 5288POPC   GL166577  36.990  42.290   5.729
 5288POPC   GL266578  36.787  42.556   5.637
 5288POPC   C1A66579  36.764  42.167   6.147
 5288POPC   D2A66580  36.830  41.930   6.544
 5288POPC   C3A66581  36.898  42.190   6.926
 5288POPC   C4A66582  36.738  42.318   7.343
 5288POPC   C1B66583  36.731  42.675   6.099
 5288POPC   C2B66584  36.793  42.508   6.527
 5288POPC   C3B66585  36.742  42.677   6.931
 5288POPC   C4B66586  36.520  42.800   7.264
 5289POPC   NC366587  26.896  17.784   5.691
 5289POPC   PO466588  27.091  17.059   5.568
 5289POPC   GL166589  27.091  17.337   5.882
 5289POPC   GL266590  26.744  17.337   5.910
 5289POPC   C1A66591  27.263  17.529   6.252
 5289POPC   D2A66592  27.129  17.850   6.542
 5289POPC   C3A66593  26.962  17.661   6.921
 5289POPC   C4A66594  26.911  17.662   7.378
 5289POPC   C1B66595  26.727  17.585   6.298
 5289POPC   C2B66596  26.501  17.593   6.675
 5289POPC   C3B66597  26.482  17.727   7.101
 5289POPC   C4B66598  26.425  17.692   7.545
 5290POPC   NC366599  42.409  23.511   5.423
 5290POPC   PO466600  42.448  24.168   5.250
 5290POPC   GL166601  42.297  23.944   5.668
 5290POPC   GL266602  42.615  23.889   5.787
 5290POPC   C1A66603  42.270  23.680   6.099
 5290POPC   D2A66604  42.238  23.819   6.544
 5290POPC   C3A66605  42.356  23.629   6.933
 5290POPC   C4A66606  42.208  23.492   7.334
 5290POPC   C1B66607  42.545  24.106   6.180
 5290POPC   C2B66608  42.657  24.127   6.602
 5290POPC   C3B66609  42.497  24.126   7.003
 5290POPC   C4B66610  42.467  23.914   7.378
 5291POPC   NC366611   9.302  42.341   5.362
 5291POPC   PO466612   8.639  42.104   5.392
 5291POPC   GL166613   8.743  42.259   5.803
 5291POPC   GL266614   9.104  42.285   5.863
 5291POPC   C1A66615   8.696  42.099   6.219
 5291POPC   D2A66616   8.790  41.867   6.592
 5291POPC   C3A66617   8.857  42.208   6.872
 5291POPC   C4A66618   8.740  42.268   7.281
 5291POPC   C1B66619   8.982  42.567   6.224
 5291POPC   C2B66620   9.040  42.743   6.653
 5291POPC   C3B66621   9.169  42.770   7.091
 5291POPC   C4B66622   9.209  42.447   7.372
 5292POPC   NC366623  35.870  16.113   5.359
 5292POPC   PO466624  35.297  15.732   5.416
 5292POPC   GL166625  35.464  15.986   5.709
 5292POPC   GL266626  35.127  16.148   5.700
 5292POPC   C1A66627  35.632  15.806   6.102
 5292POPC   D2A66628  35.646  15.593   6.505
 5292POPC   C3A66629  35.591  15.873   6.872
 5292POPC   C4A66630  35.379  16.082   7.236
 5292POPC   C1B66631  35.199  16.099   6.132
 5292POPC   C2B66632  34.897  16.096   6.447
 5292POPC   C3B66633  34.981  16.163   6.857
 5292POPC   C4B66634  34.887  16.124   7.258
 5293POPC   NC366635  39.465  20.714   4.976
 5293POPC   PO466636  39.953  20.708   5.426
 5293POPC   GL166637  40.007  20.785   5.854
 5293POPC   GL266638  40.206  21.052   5.888
 5293POPC   C1A66639  40.116  20.581   6.250
 5293POPC   D2A66640  40.308  20.496   6.645
 5293POPC   C3A66641  40.024  20.441   6.979
 5293POPC   C4A66642  40.244  20.465   7.377
 5293POPC   C1B66643  40.460  20.978   6.225
 5293POPC   C2B66644  40.410  21.018   6.650
 5293POPC   C3B66645  40.463  20.831   7.050
 5293POPC   C4B66646  40.379  20.987   7.451
 5294POPC   NC366647   3.790  11.837   5.325
 5294POPC   PO466648   3.374  12.342   5.511
 5294POPC   GL166649   3.428  12.092   5.891
 5294POPC   GL266650   3.746  11.874   5.871
 5294POPC   C1A66651   3.427  11.956   6.337
 5294POPC   D2A66652   3.564  11.859   6.764
 5294POPC   C3A66653   3.355  12.107   7.063
 5294POPC   C4A66654   3.513  12.406   7.356
 5294POPC   C1B66655   3.925  12.050   6.265
 5294POPC   C2B66656   3.788  12.282   6.628
 5294POPC   C3B66657   3.867  12.214   7.047
 5294POPC   C4B66658   3.720  11.827   7.264
 5295POPC   NC366659  29.834   0.282   5.392
 5295POPC   PO466660  30.381   0.423   5.606
 5295POPC   GL166661  29.991   0.485   5.883
 5295POPC   GL266662  29.870   0.806   5.744
 5295POPC   C1A66663  29.818   0.388   6.330
 5295POPC   D2A66664  29.681   0.451   6.749
 5295POPC   C3A66665  29.894   0.284   7.103
 5295POPC   C4A66666  29.729   0.029   7.426
 5295POPC   C1B66667  29.816   0.872   6.225
 5295POPC   C2B66668  29.860   0.915   6.693
 5295POPC   C3B66669  30.006   0.792   7.120
 5295POPC   C4B66670  29.950   0.910   7.552
 5296POPC   NC366671  39.664   1.717   5.628
 5296POPC   PO466672  40.221   2.009   5.309
 5296POPC   GL166673  40.280   1.994   5.749
 5296POPC   GL266674  39.949   2.084   5.835
 5296POPC   C1A66675  40.309   2.168   6.176
 5296POPC   D2A66676  40.142   2.235   6.567
 5296POPC   C3A66677  40.275   2.055   6.962
 5296POPC   C4A66678  40.142   2.119   7.400
 5296POPC   C1B66679  39.867   1.901   6.269
 5296POPC   C2B66680  39.995   1.723   6.664
 5296POPC   C3B66681  39.834   1.829   7.083
 5296POPC   C4B66682  39.808   1.716   7.493
 5297POPC   NC366683   4.477  21.745   5.596
 5297POPC   PO466684   4.105  21.374   5.204
 5297POPC   GL166685   4.113  21.387   5.724
 5297POPC   GL266686   4.061  21.680   5.902
 5297POPC   C1A66687   4.416  21.407   6.147
 5297POPC   D2A66688   4.502  21.216   6.562
 5297POPC   C3A66689   4.611  21.420   6.966
 5297POPC   C4A66690   4.630  21.307   7.417
 5297POPC   C1B66691   3.943  21.476   6.298
 5297POPC   C2B66692   4.027  21.362   6.721
 5297POPC   C3B66693   4.125  21.603   7.077
 5297POPC   C4B66694   4.047  21.860   7.489
 5298POPC   NC366695  38.405   8.323   5.170
 5298POPC   PO466696  38.343   7.919   5.638
 5298POPC   GL166697  38.418   8.137   5.938
 5298POPC   GL266698  38.560   8.389   5.761
 5298POPC   C1A66699  38.275   8.431   6.203
 5298POPC   D2A66700  38.448   8.452   6.555
 5298POPC   C3A66701  38.352   8.127   6.844
 5298POPC   C4A66702  38.538   8.176   7.218
 5298POPC   C1B66703  38.832   8.425   6.109
 5298POPC   C2B66704  39.034   8.464   6.494
 5298POPC   C3B66705  38.833   8.409   6.880
 5298POPC   C4B66706  38.713   8.662   7.194
 5299POPC   NC366707  28.483  25.308   5.188
 5299POPC   PO466708  28.328  24.776   5.439
 5299POPC   GL166709  28.123  25.064   5.804
 5299POPC   GL266710  28.153  25.471   5.811
 5299POPC   C1A66711  28.098  25.115   6.289
 5299POPC   D2A66712  28.338  25.240   6.673
 5299POPC   C3A66713  28.332  24.995   7.052
 5299POPC   C4A66714  28.693  24.929   7.304
 5299POPC   C1B66715  28.168  25.645   6.221
 5299POPC   C2B66716  28.042  25.637   6.635
 5299POPC   C3B66717  28.214  25.622   7.046
 5299POPC   C4B66718  28.171  25.776   7.468
 5300POPC   NC366719  44.175  15.501   5.432
 5300POPC   PO466720  43.722  14.954   5.593
 5300POPC   GL166721  43.812  15.174   5.954
 5300POPC   GL266722  43.814  15.497   5.837
 5300POPC   C1A66723  43.749  15.308   6.387
 5300POPC   D2A66724  43.858  15.402   6.821
 5300POPC   C3A66725  43.684  15.121   7.119
 5300POPC   C4A66726  43.809  14.898   7.478
 5300POPC   C1B66727  44.084  15.634   6.209
 5300POPC   C2B66728  44.285  15.712   6.620
 5300POPC   C3B66729  44.295  15.533   7.051
 5300POPC   C4B66730  44.084  15.330   7.420
 5301POPC   NC366731  40.661   1.702   5.558
 5301POPC   PO466732  41.150   2.163   5.633
 5301POPC   GL166733  40.803   2.256   5.886
 5301POPC   GL266734  40.730   1.934   6.017
 5301POPC   C1A66735  40.749   2.380   6.321
 5301POPC   D2A66736  40.648   2.075   6.610
 5301POPC   C3A66737  40.900   2.119   6.964
 5301POPC   C4A66738  40.986   2.141   7.372
 5301POPC   C1B66739  40.455   1.697   6.298
 5301POPC   C2B66740  40.486   1.518   6.702
 5301POPC   C3B66741  40.325   1.572   7.119
 5301POPC   C4B66742  40.580   1.844   7.315
 5302POPC   NC366743  42.735  38.712   5.166
 5302POPC   PO466744  43.247  38.378   5.518
 5302POPC   GL166745  43.381  38.549   5.881
 5302POPC   GL266746  43.378  38.899   5.795
 5302POPC   C1A66747  43.492  38.320   6.237
 5302POPC   D2A66748  43.217  38.444   6.530
 5302POPC   C3A66749  43.019  38.285   6.823
 5302POPC   C4A66750  43.048  38.302   7.229
 5302POPC   C1B66751  43.118  38.832   6.208
 5302POPC   C2B66752  42.803  38.736   6.566
 5302POPC   C3B66753  42.851  38.754   7.030
 5302POPC   C4B66754  42.668  38.573   7.472
 5303POPC   NC366755  23.885  41.388   5.617
 5303POPC   PO466756  23.494  41.965   5.447
 5303POPC   GL166757  23.573  41.729   5.837
 5303POPC   GL266758  23.346  41.491   5.889
 5303POPC   C1A66759  23.648  41.595   6.277
 5303POPC   D2A66760  23.745  41.448   6.693
 5303POPC   C3A66761  23.563  41.529   7.085
 5303POPC   C4A66762  23.937  41.503   7.256
 5303POPC   C1B66763  23.421  41.140   6.183
 5303POPC   C2B66764  23.509  40.993   6.576
 5303POPC   C3B66765  23.561  41.034   6.991
 5303POPC   C4B66766  23.612  41.132   7.417
 5304POPC   NC366767  42.216   8.098   5.309
 5304POPC   PO466768  41.977   8.744   5.415
 5304POPC   GL166769  42.160   8.459   5.740
 5304POPC   GL266770  42.007   8.131   5.855
 5304POPC   C1A66771  42.400   8.334   6.124
 5304POPC   D2A66772  42.301   8.145   6.547
 5304POPC   C3A66773  42.606   8.155   6.892
 5304POPC   C4A66774  42.559   8.404   7.253
 5304POPC   C1B66775  41.894   8.379   6.235
 5304POPC   C2B66776  41.843   8.428   6.696
 5304POPC   C3B66777  41.963   8.306   7.124
 5304POPC   C4B66778  42.126   8.446   7.544
 5305POPC   NC366779   2.154  22.390   5.525
 5305POPC   PO466780   2.052  21.732   5.621
 5305POPC   GL166781   2.004  22.058   5.914
 5305POPC   GL266782   1.711  21.871   5.984
 5305POPC   C1A66783   1.966  22.348   6.280
 5305POPC   D2A66784   2.128  22.473   6.713
 5305POPC   C3A66785   1.970  22.283   7.114
 5305POPC   C4A66786   1.673  22.433   7.456
 5305POPC   C1B66787   1.918  21.794   6.360
 5305POPC   C2B66788   2.277  21.988   6.530
 5305POPC   C3B66789   2.429  21.920   6.905
 5305POPC   C4B66790   2.112  21.746   7.163
 5306POPC   NC366791  12.258  23.739   5.385
 5306POPC   PO466792  11.661  23.922   5.582
 5306POPC   GL166793  12.020  23.752   5.867
 5306POPC   GL266794  12.386  23.669   5.870
 5306POPC   C1A66795  12.008  23.651   6.308
 5306POPC   D2A66796  11.826  23.607   6.734
 5306POPC   C3A66797  11.991  23.799   7.109
 5306POPC   C4A66798  11.845  23.754   7.579
 5306POPC   C1B66799  12.507  23.769   6.290
 5306POPC   C2B66800  12.360  23.694   6.691
 5306POPC   C3B66801  12.232  23.353   6.931
 5306POPC   C4B66802  12.300  23.459   7.327
 5307POPC   NC366803  37.521   6.840   5.201
 5307POPC   PO466804  38.087   6.407   5.207
 5307POPC   GL166805  37.777   6.568   5.535
 5307POPC   GL266806  37.601   6.273   5.664
 5307POPC   C1A66807  37.652   6.772   5.965
 5307POPC   D2A66808  37.634   6.650   6.457
 5307POPC   C3A66809  37.726   6.831   6.880
 5307POPC   C4A66810  37.936   7.063   7.182
 5307POPC   C1B66811  37.553   6.292   6.097
 5307POPC   C2B66812  37.478   6.155   6.492
 5307POPC   C3B66813  37.602   6.322   6.867
 5307POPC   C4B66814  37.434   6.535   7.173
 5308POPC   NC366815   3.704  32.917   5.334
 5308POPC   PO466816   3.013  33.052   5.389
 5308POPC   GL166817   3.382  32.941   5.735
 5308POPC   GL266818   3.710  32.666   5.772
 5308POPC   C1A66819   3.526  33.007   6.141
 5308POPC   D2A66820   3.631  32.875   6.578
 5308POPC   C3A66821   3.663  33.162   6.955
 5308POPC   C4A66822   3.423  33.173   7.355
 5308POPC   C1B66823   3.945  32.479   6.126
 5308POPC   C2B66824   4.058  32.609   6.566
 5308POPC   C3B66825   3.887  32.710   6.998
 5308POPC   C4B66826   3.470  32.685   7.184
 5309POPC   NC366827   3.642  10.044   5.383
 5309POPC   PO466828   3.476   9.396   5.376
 5309POPC   GL166829   3.564   9.634   5.792
 5309POPC   GL266830   3.531   9.988   5.879
 5309POPC   C1A66831   3.709   9.670   6.250
 5309POPC   D2A66832   3.828   9.558   6.687
 5309POPC   C3A66833   3.905   9.831   7.033
 5309POPC   C4A66834   3.731   9.739   7.411
 5309POPC   C1B66835   3.757  10.153   6.255
 5309POPC   C2B66836   3.625  10.071   6.690
 5309POPC   C3B66837   3.550  10.165   7.161
 5309POPC   C4B66838   3.317   9.988   7.503
 5310POPC   NC366839  25.445  39.638   5.081
 5310POPC   PO466840  25.035  39.219   5.406
 5310POPC   GL166841  25.172  39.095   5.845
 5310POPC   GL266842  24.901  38.874   5.812
 5310POPC   C1A66843  25.400  39.300   6.249
 5310POPC   D2A66844  25.325  39.415   6.702
 5310POPC   C3A66845  25.488  39.563   7.095
 5310POPC   C4A66846  25.630  39.329   7.445
 5310POPC   C1B66847  25.020  38.790   6.219
 5310POPC   C2B66848  24.782  38.843   6.558
 5310POPC   C3B66849  24.933  38.965   6.888
 5310POPC   C4B66850  24.974  38.822   7.262
 5311POPC   NC366851   7.008  35.756   5.250
 5311POPC   PO466852   7.392  36.272   5.426
 5311POPC   GL166853   7.073  36.095   5.713
 5311POPC   GL266854   6.835  36.350   5.727
 5311POPC   C1A66855   7.105  36.056   6.186
 5311POPC   D2A66856   7.091  35.927   6.639
 5311POPC   C3A66857   7.434  36.071   6.932
 5311POPC   C4A66858   7.427  36.245   7.365
 5311POPC   C1B66859   6.922  36.528   6.136
 5311POPC   C2B66860   7.167  36.442   6.532
 5311POPC   C3B66861   7.009  36.345   6.938
 5311POPC   C4B66862   6.981  36.505   7.324
 5312POPC   NC366863  28.523   2.264   5.467
 5312POPC   PO466864  28.040   1.747   5.381
 5312POPC   GL166865  28.037   1.894   5.811
 5312POPC   GL266866  28.327   2.007   5.853
 5312POPC   C1A66867  28.109   1.746   6.242
 5312POPC   D2A66868  28.299   1.909   6.623
 5312POPC   C3A66869  28.418   1.694   6.999
 5312POPC   C4A66870  28.084   1.633   7.270
 5312POPC   C1B66871  28.532   2.119   6.212
 5312POPC   C2B66872  28.672   2.254   6.612
 5312POPC   C3B66873  28.531   2.206   7.026
 5312POPC   C4B66874  28.706   2.057   7.438
 5313POPC   NC366875  44.312  36.241   5.444
 5313POPC   PO466876  44.942  36.095   5.598
 5313POPC   GL166877  44.612  36.186   5.867
 5313POPC   GL266878  44.334  35.961   5.883
 5313POPC   C1A66879  44.545  36.410   6.226
 5313POPC   D2A66880  44.400  36.254   6.624
 5313POPC   C3A66881  44.742  36.147   6.869
 5313POPC   C4A66882  44.835  36.205   7.312
 5313POPC   C1B66883  44.519  35.889   6.274
 5313POPC   C2B66884  44.431  35.735   6.648
 5313POPC   C3B66885  44.430  35.805   7.060
 5313POPC   C4B66886  44.624  35.765   7.460
 5314POPC   NC366887  30.991  35.154   5.139
 5314POPC   PO466888  31.614  35.233   5.452
 5314POPC   GL166889  31.479  35.278   5.858
 5314POPC   GL266890  31.227  35.520   5.914
 5314POPC   C1A66891  31.274  35.147   6.261
 5314POPC   D2A66892  31.330  35.333   6.672
 5314POPC   C3A66893  31.308  34.955   6.968
 5314POPC   C4A66894  31.587  34.914   7.332
 5314POPC   C1B66895  31.608  35.551   6.246
 5314POPC   C2B66896  31.802  35.659   6.646
 5314POPC   C3B66897  31.732  35.668   7.091
 5314POPC   C4B66898  31.446  35.392   7.189
 5315POPC   NC366899  20.419  16.461   5.492
 5315POPC   PO466900  20.877  16.873   5.399
 5315POPC   GL166901  20.588  16.880   5.757
 5315POPC   GL266902  20.784  16.610   5.891
 5315POPC   C1A66903  20.434  16.813   6.195
 5315POPC   D2A66904  20.658  16.868   6.571
 5315POPC   C3A66905  20.417  16.821   6.937
 5315POPC   C4A66906  20.429  17.023   7.336
 5315POPC   C1B66907  21.046  16.636   6.293
 5315POPC   C2B66908  21.073  16.600   6.754
 5315POPC   C3B66909  20.853  16.697   7.159
 5315POPC   C4B66910  20.869  16.638   7.608
 5316POPC   NC366911  40.777   0.212   5.477
 5316POPC   PO466912  40.380   0.643   5.478
 5316POPC   GL166913  40.670   0.579   5.851
 5316POPC   GL266914  40.857   0.247   5.978
 5316POPC   C1A66915  40.578   0.549   6.302
 5316POPC   D2A66916  40.962   0.606   6.563
 5316POPC   C3A66917  40.938   0.330   6.904
 5316POPC   C4A66918  40.761   0.479   7.252
 5316POPC   C1B66919  40.500   0.001   6.183
 5316POPC   C2B66920  40.300  44.993   6.622
 5316POPC   C3B66921  40.431   0.138   7.045
 5316POPC   C4B66922  40.606   0.050   7.480
 5317POPC   NC366923  21.519  44.708   5.392
 5317POPC   PO466924  20.951  44.396   5.412
 5317POPC   GL166925  21.031  44.608   5.825
 5317POPC   GL266926  21.330  44.817   5.868
 5317POPC   C1A66927  21.104  44.670   6.285
 5317POPC   D2A66928  21.304  44.985   6.544
 5317POPC   C3A66929  21.327  44.829   6.928
 5317POPC   C4A66930  21.158  44.674   7.274
 5317POPC   C1B66931  21.652  44.804   6.223
 5317POPC   C2B66932  21.876  44.682   6.607
 5317POPC   C3B66933  21.813  44.871   7.017
 5317POPC   C4B66934  21.708  44.743   7.398
 5318POPC   NC366935  13.702  16.876   5.185
 5318POPC   PO466936  13.209  16.486   5.363
 5318POPC   GL166937  13.512  16.528   5.697
 5318POPC   GL266938  13.466  16.190   5.866
 5318POPC   C1A66939  13.657  16.875   6.001
 5318POPC   D2A66940  13.478  16.996   6.427
 5318POPC   C3A66941  13.653  16.826   6.829
 5318POPC   C4A66942  13.751  16.570   7.186
 5318POPC   C1B66943  13.403  16.489   6.219
 5318POPC   C2B66944  13.250  16.545   6.599
 5318POPC   C3B66945  13.286  16.502   7.012
 5318POPC   C4B66946  13.301  16.890   7.228
 5319POPC   NC366947  29.550  38.616   5.542
 5319POPC   PO466948  29.026  38.286   5.325
 5319POPC   GL166949  29.074  38.233   5.743
 5319POPC   GL266950  28.937  38.537   5.868
 5319POPC   C1A66951  28.985  38.081   6.140
 5319POPC   D2A66952  28.745  38.217   6.487
 5319POPC   C3A66953  28.954  38.491   6.802
 5319POPC   C4A66954  28.895  38.463   7.241
 5319POPC   C1B66955  29.063  38.614   6.303
 5319POPC   C2B66956  29.443  38.716   6.557
 5319POPC   C3B66957  29.613  38.791   6.939
 5319POPC   C4B66958  29.359  38.656   7.249
 5320POPC   NC366959  41.723   0.661   5.368
 5320POPC   PO466960  41.167   0.433   5.348
 5320POPC   GL166961  41.316   0.372   5.759
 5320POPC   GL266962  41.663   0.309   5.769
 5320POPC   C1A66963  41.348   0.488   6.200
 5320POPC   D2A66964  41.588   0.525   6.599
 5320POPC   C3A66965  41.454   0.320   6.984
 5320POPC   C4A66966  41.269   0.512   7.307
 5320POPC   C1B66967  41.863   0.397   6.165
 5320POPC   C2B66968  42.020   0.270   6.553
 5320POPC   C3B66969  41.969   0.349   6.969
 5320POPC   C4B66970  41.931   0.164   7.369
 5321POPC   NC366971  37.690   4.491   5.378
 5321POPC   PO466972  37.489   3.855   5.554
 5321POPC   GL166973  37.811   3.957   5.817
 5321POPC   GL266974  37.848   4.313   5.830
 5321POPC   C1A66975  37.827   3.983   6.236
 5321POPC   D2A66976  37.707   3.768   6.619
 5321POPC   C3A66977  37.447   4.081   6.815
 5321POPC   C4A66978  37.592   4.313   7.149
 5321POPC   C1B66979  37.974   4.491   6.233
 5321POPC   C2B66980  38.132   4.553   6.666
 5321POPC   C3B66981  37.992   4.636   7.112
 5321POPC   C4B66982  37.547   4.824   7.229
 5322POPC   NC366983  42.852  31.641   5.457
 5322POPC   PO466984  43.195  31.002   5.431
 5322POPC   GL166985  43.124  31.303   5.754
 5322POPC   GL266986  42.784  31.307   5.880
 5322POPC   C1A66987  43.220  31.538   6.155
 5322POPC   D2A66988  43.114  31.633   6.598
 5322POPC   C3A66989  43.197  31.795   7.013
 5322POPC   C4A66990  43.003  31.543   7.315
 5322POPC   C1B66991  42.652  31.677   6.127
 5322POPC   C2B66992  42.626  31.843   6.556
 5322POPC   C3B66993  42.687  31.660   6.943
 5322POPC   C4B66994  42.432  31.692   7.308
 5323POPC   NC366995  11.697  21.120   5.507
 5323POPC   PO466996  12.251  21.514   5.396
 5323POPC   GL166997  12.015  21.483   5.789
 5323POPC   GL266998  12.164  21.215   5.847
 5323POPC   C1A66999  11.963  21.404   6.267
 5323POPC   D2A67000  11.901  21.270   6.703
 5323POPC   C3A67001  11.950  21.573   7.089
 5323POPC   C4A67002  12.071  21.388   7.508
 5323POPC   C1B67003  12.443  21.483   6.152
 5323POPC   C2B67004  12.361  21.532   6.616
 5323POPC   C3B67005  12.346  21.292   7.015
 5323POPC   C4B67006  12.532  21.475   7.373
 5324POPC   NC367007  27.118  23.230   5.734
 5324POPC   PO467008  26.826  22.835   5.276
 5324POPC   GL167009  26.723  22.927   5.775
 5324POPC   GL267010  26.596  23.277   5.825
 5324POPC   C1A67011  26.670  22.708   6.182
 5324POPC   D2A67012  26.816  22.629   6.611
 5324POPC   C3A67013  26.484  22.739   6.901
 5324POPC   C4A67014  26.562  22.986   7.251
 5324POPC   C1B67015  26.677  23.208   6.284
 5324POPC   C2B67016  26.773  23.171   6.729
 5324POPC   C3B67017  26.675  23.433   7.075
 5324POPC   C4B67018  26.562  23.385   7.560
 5325POPC   NC367019   8.754   9.012   5.307
 5325POPC   PO467020   9.225   8.752   5.683
 5325POPC   GL167021   8.981   9.117   5.770
 5325POPC   GL267022   9.279   9.292   5.885
 5325POPC   C1A67023   8.810   9.240   6.159
 5325POPC   D2A67024   8.849   9.015   6.548
 5325POPC   C3A67025   9.022   9.028   6.947
 5325POPC   C4A67026   8.896   8.762   7.250
 5325POPC   C1B67027   9.293   9.096   6.317
 5325POPC   C2B67028   9.462   9.213   6.755
 5325POPC   C3B67029   9.537   9.262   7.196
 5325POPC   C4B67030   9.382   9.356   7.610
 5326POPC   NC367031  11.089   5.827   5.419
 5326POPC   PO467032  11.453   5.189   5.391
 5326POPC   GL167033  11.374   4.831   5.681
 5326POPC   GL267034  11.310   5.127   5.909
 5326POPC   C1A67035  11.228   4.682   6.099
 5326POPC   D2A67036  11.307   4.972   6.452
 5326POPC   C3A67037  11.118   4.934   6.870
 5326POPC   C4A67038  11.321   5.057   7.293
 5326POPC   C1B67039  11.640   5.406   6.137
 5326POPC   C2B67040  11.656   5.598   6.553
 5326POPC   C3B67041  11.797   5.505   6.975
 5326POPC   C4B67042  11.569   5.515   7.342
 5327POPC   NC367043  21.783  17.270   5.301
 5327POPC   PO467044  21.166  17.617   5.240
 5327POPC   GL167045  21.322  17.550   5.660
 5327POPC   GL267046  21.530  17.256   5.751
 5327POPC   C1A67047  21.218  17.516   6.121
 5327POPC   D2A67048  21.229  17.754   6.508
 5327POPC   C3A67049  21.209  17.527   6.893
 5327POPC   C4A67050  21.014  17.730   7.239
 5327POPC   C1B67051  21.734  17.450   6.104
 5327POPC   C2B67052  21.669  17.284   6.509
 5327POPC   C3B67053  21.705  17.220   6.923
 5327POPC   C4B67054  21.494  17.320   7.282
 5328POPC   NC367055  19.371   2.317   5.685
 5328POPC   PO467056  18.961   1.761   5.513
 5328POPC   GL167057  19.164   1.878   5.884
 5328POPC   GL267058  19.399   1.637   6.055
 5328POPC   C1A67059  18.960   2.057   6.258
 5328POPC   D2A67060  18.679   2.054   6.614
 5328POPC   C3A67061  18.890   2.190   6.980
 5328POPC   C4A67062  19.090   2.048   7.351
 5328POPC   C1B67063  19.502   2.057   6.240
 5328POPC   C2B67064  19.370   2.290   6.582
 5328POPC   C3B67065  19.413   2.048   6.936
 5328POPC   C4B67066  19.596   2.123   7.314
 5329POPC   NC367067  41.217  20.688   5.478
 5329POPC   PO467068  41.874  20.545   5.496
 5329POPC   GL167069  41.692  20.780   5.804
 5329POPC   GL267070  41.470  20.477   5.861
 5329POPC   C1A67071  41.394  20.890   6.139
 5329POPC   D2A67072  41.332  20.556   6.447
 5329POPC   C3A67073  41.407  20.669   6.843
 5329POPC   C4A67074  41.582  20.808   7.203
 5329POPC   C1B67075  41.800  20.370   6.115
 5329POPC   C2B67076  41.913  20.397   6.507
 5329POPC   C3B67077  41.894  20.523   6.898
 5329POPC   C4B67078  42.145  20.415   7.222
 5330POPC   NC367079  21.487  31.334   5.306
 5330POPC   PO467080  21.254  31.972   5.362
 5330POPC   GL167081  21.330  31.683   5.749
 5330POPC   GL267082  21.556  31.366   5.803
 5330POPC   C1A67083  21.292  31.520   6.195
 5330POPC   D2A67084  21.259  31.266   6.577
 5330POPC   C3A67085  21.381  31.496   6.941
 5330POPC   C4A67086  21.176  31.631   7.305
 5330POPC   C1B67087  21.519  31.031   6.139
 5330POPC   C2B67088  21.705  30.983   6.554
 5330POPC   C3B67089  21.658  31.051   7.016
 5330POPC   C4B67090  21.618  31.353   7.387
 5331POPC   NC367091  43.680  17.034   5.332
 5331POPC   PO467092  44.136  16.543   5.347
 5331POPC   GL167093  43.929  16.490   5.765
 5331POPC   GL267094  43.685  16.721   5.749
 5331POPC   C1A67095  43.939  16.624   6.228
 5331POPC   D2A67096  43.993  16.625   6.694
 5331POPC   C3A67097  43.869  16.407   7.058
 5331POPC   C4A67098  43.975  16.772   7.224
 5331POPC   C1B67099  43.465  16.798   6.107
 5331POPC   C2B67100  43.514  16.626   6.514
 5331POPC   C3B67101  43.531  16.771   6.902
 5331POPC   C4B67102  43.322  16.655   7.211
 5332POPC   NC367103  44.965   2.958   5.382
 5332POPC   PO467104  44.541   2.464   5.303
 5332POPC   GL167105  44.610   2.710   5.757
 5332POPC   GL267106  44.839   2.995   5.861
 5332POPC   C1A67107  44.713   2.675   6.240
 5332POPC   D2A67108  44.602   2.925   6.631
 5332POPC   C3A67109  44.736   2.786   7.006
 5332POPC   C4A67110  44.501   2.769   7.367
 5332POPC   C1B67111  44.657   3.185   6.209
 5332POPC   C2B67112  44.879   3.375   6.517
 5332POPC   C3B67113  44.840   3.299   6.934
 5332POPC   C4B67114  44.880   3.132   7.365
 5333POPC   NC367115   2.172  15.014   5.335
 5333POPC   PO467116   2.852  15.034   5.422
 5333POPC   GL167117   2.578  15.048   5.781
 5333POPC   GL267118   2.536  15.373   5.826
 5333POPC   C1A67119   2.768  15.085   6.218
 5333POPC   D2A67120   2.809  14.992   6.650
 5333POPC   C3A67121   2.726  15.279   6.985
 5333POPC   C4A67122   2.776  15.127   7.408
 5333POPC   C1B67123   2.371  15.371   6.181
 5333POPC   C2B67124   2.483  15.502   6.571
 5333POPC   C3B67125   2.317  15.625   6.945
 5333POPC   C4B67126   2.353  15.405   7.327
 5334POPC   NC367127  25.272  35.643   5.370
 5334POPC   PO467128  24.769  35.204   5.235
 5334POPC   GL167129  25.004  35.320   5.663
 5334POPC   GL267130  24.969  35.007   5.855
 5334POPC   C1A67131  25.287  35.610   6.023
 5334POPC   D2A67132  25.451  35.618   6.472
 5334POPC   C3A67133  25.285  35.654   6.893
 5334POPC   C4A67134  25.431  35.492   7.330
 5334POPC   C1B67135  25.209  35.145   6.229
 5334POPC   C2B67136  25.283  35.169   6.681
 5334POPC   C3B67137  25.050  35.248   7.064
 5334POPC   C4B67138  25.036  35.031   7.411
 5335POPC   NC367139  30.816   0.298   5.582
 5335POPC   PO467140  31.023   0.947   5.519
 5335POPC   GL167141  30.827   0.702   5.894
 5335POPC   GL267142  30.919   0.406   6.061
 5335POPC   C1A67143  30.478   0.624   6.240
 5335POPC   D2A67144  30.227   0.567   6.646
 5335POPC   C3A67145  30.443   0.507   7.063
 5335POPC   C4A67146  30.474   0.179   7.382
 5335POPC   C1B67147  31.142   0.089   6.273
 5335POPC   C2B67148  31.024  44.898   6.674
 5335POPC   C3B67149  30.826  44.948   7.075
 5335POPC   C4B67150  30.978   0.046   7.472
 5336POPC   NC367151  45.000  14.982   5.657
 5336POPC   PO467152   0.459  15.361   5.312
 5336POPC   GL167153   0.520  15.291   5.757
 5336POPC   GL267154   0.204  15.418   5.846
 5336POPC   C1A67155   0.740  15.113   6.126
 5336POPC   D2A67156   0.722  14.840   6.486
 5336POPC   C3A67157   0.712  15.039   6.888
 5336POPC   C4A67158   0.556  15.089   7.285
 5336POPC   C1B67159   0.268  15.260   6.247
 5336POPC   C2B67160   0.242  15.162   6.659
 5336POPC   C3B67161   0.276  15.399   7.010
 5336POPC   C4B67162   0.067  15.189   7.342
 5337POPC   NC367163  24.762  33.201   5.345
 5337POPC   PO467164  24.078  33.153   5.343
 5337POPC   GL167165  24.262  32.871   5.645
 5337POPC   GL267166  24.624  32.880   5.728
 5337POPC   C1A67167  24.222  32.758   6.093
 5337POPC   D2A67168  24.277  32.933   6.517
 5337POPC   C3A67169  24.541  32.870   6.852
 5337POPC   C4A67170  24.737  32.667   7.202
 5337POPC   C1B67171  24.574  33.135   6.129
 5337POPC   C2B67172  24.806  33.175   6.540
 5337POPC   C3B67173  24.875  33.198   7.014
 5337POPC   C4B67174  24.495  33.142   7.275
 5338POPC   NC367175  13.293  15.139   5.481
 5338POPC   PO467176  13.929  15.332   5.421
 5338POPC   GL167177  13.874  15.045   5.776
 5338POPC   GL267178  13.578  14.844   5.838
 5338POPC   C1A67179  13.975  14.926   6.195
 5338POPC   D2A67180  13.752  15.087   6.575
 5338POPC   C3A67181  13.714  14.895   6.984
 5338POPC   C4A67182  13.625  15.227   7.251
 5338POPC   C1B67183  13.562  15.252   6.115
 5338POPC   C2B67184  13.323  15.418   6.485
 5338POPC   C3B67185  13.293  15.543   6.929
 5338POPC   C4B67186  13.153  15.438   7.364
 5339POPC   NC367187  17.507  21.739   5.254
 5339POPC   PO467188  17.678  21.200   5.389
 5339POPC   GL167189  17.554  21.409   5.781
 5339POPC   GL267190  17.772  21.665   5.768
 5339POPC   C1A67191  17.319  21.223   6.170
 5339POPC   D2A67192  17.512  21.111   6.571
 5339POPC   C3A67193  17.332  21.010   6.969
 5339POPC   C4A67194  17.154  21.216   7.312
 5339POPC   C1B67195  17.740  21.492   6.236
 5339POPC   C2B67196  17.600  21.655   6.645
 5339POPC   C3B67197  17.435  21.583   7.067
 5339POPC   C4B67198  17.613  21.682   7.475
 5340POPC   NC367199  22.926   3.500   5.366
 5340POPC   PO467200  23.513   3.894   5.415
 5340POPC   GL167201  23.224   3.667   5.729
 5340POPC   GL267202  22.903   3.783   5.804
 5340POPC   C1A67203  23.285   3.362   6.091
 5340POPC   D2A67204  23.233   3.529   6.516
 5340POPC   C3A67205  23.339   3.445   6.903
 5340POPC   C4A67206  23.238   3.554   7.296
 5340POPC   C1B67207  22.842   3.608   6.194
 5340POPC   C2B67208  22.724   3.433   6.589
 5340POPC   C3B67209  22.820   3.626   6.983
 5340POPC   C4B67210  22.751   3.479   7.392
 5341POPC   NC367211  11.902  21.833   5.406
 5341POPC   PO467212  11.857  22.520   5.464
 5341POPC   GL167213  12.044  22.272   5.779
 5341POPC   GL267214  12.192  21.951   5.836
 5341POPC   C1A67215  12.042  22.276   6.212
 5341POPC   D2A67216  12.097  22.387   6.623
 5341POPC   C3A67217  11.950  22.061   6.880
 5341POPC   C4A67218  11.689  22.199   7.198
 5341POPC   C1B67219  12.475  22.012   6.215
 5341POPC   C2B67220  12.471  22.042   6.676
 5341POPC   C3B67221  12.387  21.866   7.065
 5341POPC   C4B67222  12.234  21.889   7.473
 5342POPC   NC367223  38.907  27.376   5.068
 5342POPC   PO467224  38.678  26.840   5.465
 5342POPC   GL167225  38.507  26.925   5.843
 5342POPC   GL267226  38.378  27.270   5.834
 5342POPC   C1A67227  38.414  26.620   6.166
 5342POPC   D2A67228  38.695  26.531   6.493
 5342POPC   C3A67229  38.462  26.413   6.851
 5342POPC   C4A67230  38.501  26.576   7.269
 5342POPC   C1B67231  38.238  27.096   6.258
 5342POPC   C2B67232  38.393  26.919   6.654
 5342POPC   C3B67233  38.697  26.949   6.988
 5342POPC   C4B67234  38.665  27.216   7.339
 5343POPC   NC367235  32.368  10.163   5.552
 5343POPC   PO467236  31.950  10.623   5.414
 5343POPC   GL167237  32.106  10.523   5.822
 5343POPC   GL267238  32.464  10.505   5.931
 5343POPC   C1A67239  32.059  10.685   6.232
 5343POPC   D2A67240  32.271  10.870   6.559
 5343POPC   C3A67241  32.458  10.656   6.859
 5343POPC   C4A67242  32.374  10.678   7.307
 5343POPC   C1B67243  32.643  10.501   6.357
 5343POPC   C2B67244  32.679  10.228   6.708
 5343POPC   C3B67245  32.494  10.214   7.127
 5343POPC   C4B67246  32.679  10.298   7.563
 5344POPC   NC367247  27.908  39.570   5.404
 5344POPC   PO467248  27.619  39.000   5.579
 5344POPC   GL167249  27.755  39.350   5.834
 5344POPC   GL267250  27.859  39.152   6.105
 5344POPC   C1A67251  27.617  39.607   6.198
 5344POPC   D2A67252  27.723  39.435   6.615
 5344POPC   C3A67253  27.627  39.586   7.041
 5344POPC   C4A67254  27.828  39.391   7.401
 5344POPC   C1B67255  27.444  39.117   6.300
 5344POPC   C2B67256  27.294  39.117   6.711
 5344POPC   C3B67257  27.455  39.080   7.127
 5344POPC   C4B67258  27.240  38.768   7.352
 5345POPC   NC367259  19.261  37.218   5.221
 5345POPC   PO467260  18.736  36.822   5.345
 5345POPC   GL167261  18.885  36.979   5.742
 5345POPC   GL267262  19.219  36.969   5.656
 5345POPC   C1A67263  18.843  37.036   6.222
 5345POPC   D2A67264  18.588  37.179   6.599
 5345POPC   C3A67265  18.746  37.088   7.031
 5345POPC   C4A67266  18.786  37.318   7.447
 5345POPC   C1B67267  19.333  36.929   6.070
 5345POPC   C2B67268  19.322  36.759   6.486
 5345POPC   C3B67269  19.396  36.900   6.898
 5345POPC   C4B67270  19.155  36.875   7.277
 5346POPC   NC367271  10.393   6.104   5.382
 5346POPC   PO467272  10.721   5.491   5.410
 5346POPC   GL167273  10.496   5.727   5.747
 5346POPC   GL267274  10.820   5.817   5.865
 5346POPC   C1A67275  10.302   5.947   6.141
 5346POPC   D2A67276  10.133   5.963   6.566
 5346POPC   C3A67277  10.294   5.803   6.962
 5346POPC   C4A67278  10.246   6.013   7.348
 5346POPC   C1B67279  10.670   5.623   6.251
 5346POPC   C2B67280  10.658   5.794   6.609
 5346POPC   C3B67281  10.817   5.867   6.985
 5346POPC   C4B67282  10.729   5.865   7.392
 5347POPC   NC367283   5.010  21.537   5.334
 5347POPC   PO467284   5.619  21.537   5.596
 5347POPC   GL167285   5.414  21.250   5.839
 5347POPC   GL267286   5.102  21.447   5.820
 5347POPC   C1A67287   5.234  21.272   6.268
 5347POPC   D2A67288   4.984  21.384   6.605
 5347POPC   C3A67289   5.189  21.269   6.974
 5347POPC   C4A67290   5.471  21.555   7.163
 5347POPC   C1B67291   4.869  21.659   6.149
 5347POPC   C2B67292   4.862  21.889   6.529
 5347POPC   C3B67293   5.070  21.820   6.905
 5347POPC   C4B67294   4.991  21.637   7.275
 5348POPC   NC367295  10.926  38.565   5.508
 5348POPC   PO467296  10.389  38.161   5.477
 5348POPC   GL167297  10.468  38.560   5.775
 5348POPC   GL267298  10.416  38.930   5.886
 5348POPC   C1A67299  10.619  38.567   6.221
 5348POPC   D2A67300  10.718  38.225   6.531
 5348POPC   C3A67301  10.616  38.269   6.960
 5348POPC   C4A67302  10.876  38.247   7.302
 5348POPC   C1B67303  10.175  38.839   6.275
 5348POPC   C2B67304  10.301  38.732   6.714
 5348POPC   C3B67305  10.431  38.703   7.161
 5348POPC   C4B67306  10.163  38.661   7.539
 5349POPC   NC367307  21.954  33.154   5.160
 5349POPC   PO467308  22.586  32.973   5.385
 5349POPC   GL167309  22.293  33.016   5.745
 5349POPC   GL267310  22.084  33.257   5.656
 5349POPC   C1A67311  22.164  32.910   6.207
 5349POPC   D2A67312  22.317  32.781   6.638
 5349POPC   C3A67313  21.991  32.775   6.962
 5349POPC   C4A67314  21.757  32.816   7.360
 5349POPC   C1B67315  22.290  33.398   6.077
 5349POPC   C2B67316  22.400  33.319   6.511
 5349POPC   C3B67317  22.176  33.256   6.898
 5349POPC   C4B67318  22.244  33.052   7.312
 5350POPC   NC367319  10.171  17.827   5.054
 5350POPC   PO467320   9.604  17.689   5.413
 5350POPC   GL167321   9.471  17.633   5.798
 5350POPC   GL267322   9.468  17.965   5.875
 5350POPC   C1A67323   9.665  17.442   6.158
 5350POPC   D2A67324   9.621  17.543   6.591
 5350POPC   C3A67325   9.735  17.285   6.880
 5350POPC   C4A67326   9.763  17.383   7.280
 5350POPC   C1B67327   9.664  17.953   6.273
 5350POPC   C2B67328   9.816  18.030   6.696
 5350POPC   C3B67329   9.661  17.833   7.071
 5350POPC   C4B67330   9.763  17.826   7.537
 5351POPC   NC367331  21.403  10.030   5.286
 5351POPC   PO467332  21.628   9.378   5.258
 5351POPC   GL167333  21.449   9.610   5.673
 5351POPC   GL267334  21.659   9.906   5.782
 5351POPC   C1A67335  21.229   9.716   6.106
 5351POPC   D2A67336  21.153   9.524   6.535
 5351POPC   C3A67337  21.104   9.705   6.982
 5351POPC   C4A67338  21.052   9.991   7.340
 5351POPC   C1B67339  21.667   9.902   6.259
 5351POPC   C2B67340  21.539   9.855   6.707
 5351POPC   C3B67341  21.546   9.863   7.190
 5351POPC   C4B67342  21.716   9.844   7.621
 5352POPC   NC367343   1.634  26.906   5.120
 5352POPC   PO467344   2.128  26.724   5.622
 5352POPC   GL167345   2.007  26.959   5.965
 5352POPC   GL267346   2.244  27.061   6.149
 5352POPC   C1A67347   1.764  26.919   6.338
 5352POPC   D2A67348   2.022  27.076   6.630
 5352POPC   C3A67349   2.023  26.970   7.047
 5352POPC   C4A67350   1.945  26.519   7.217
 5352POPC   C1B67351   2.163  26.578   6.272
 5352POPC   C2B67352   2.285  26.382   6.669
 5352POPC   C3B67353   2.415  26.647   7.036
 5352POPC   C4B67354   2.231  26.861   7.490
 5353POPC   NC367355  12.371  12.070   5.517
 5353POPC   PO467356  11.850  11.676   5.409
 5353POPC   GL167357  12.015  11.865   5.815
 5353POPC   GL267358  11.848  12.197   5.841
 5353POPC   C1A67359  12.228  12.091   6.202
 5353POPC   D2A67360  12.131  12.283   6.627
 5353POPC   C3A67361  12.279  12.038   6.981
 5353POPC   C4A67362  12.229  12.153   7.383
 5353POPC   C1B67363  11.727  11.935   6.221
 5353POPC   C2B67364  11.655  12.052   6.660
 5353POPC   C3B67365  11.788  12.150   7.099
 5353POPC   C4B67366  11.779  11.962   7.490
 5354POPC   NC367367  18.446  27.399   5.429
 5354POPC   PO467368  18.296  28.084   5.364
 5354POPC   GL167369  18.159  27.749   5.675
 5354POPC   GL267370  18.275  27.963   5.901
 5354POPC   C1A67371  18.123  27.475   6.051
 5354POPC   D2A67372  18.201  27.324   6.488
 5354POPC   C3A67373  18.172  27.461   6.913
 5354POPC   C4A67374  18.284  27.464   7.314
 5354POPC   C1B67375  18.224  27.924   6.310
 5354POPC   C2B67376  18.408  27.849   6.678
 5354POPC   C3B67377  18.345  27.930   7.094
 5354POPC   C4B67378  18.629  27.816   7.424
 5355POPC   NC367379  11.878  10.654   5.378
 5355POPC   PO467380  12.455  10.909   5.585
 5355POPC   GL167381  12.143  10.682   5.852
 5355POPC   GL267382  11.922  10.949   5.853
 5355POPC   C1A67383  11.960  10.454   6.254
 5355POPC   D2A67384  11.970  10.210   6.699
 5355POPC   C3A67385  12.169  10.345   7.105
 5355POPC   C4A67386  11.931  10.393   7.534
 5355POPC   C1B67387  11.783  10.954   6.287
 5355POPC   C2B67388  11.706  10.704   6.671
 5355POPC   C3B67389  11.808  10.729   7.129
 5355POPC   C4B67390  11.824  10.879   7.566
 5356POPC   NC367391  33.270  11.576   5.517
 5356POPC   PO467392  32.906  11.093   5.285
 5356POPC   GL167393  32.902  11.301   5.739
 5356POPC   GL267394  32.826  11.691   5.737
 5356POPC   C1A67395  33.047  11.152   6.181
 5356POPC   D2A67396  32.759  11.013   6.537
 5356POPC   C3A67397  32.878  11.111   6.958
 5356POPC   C4A67398  33.217  11.366   7.142
 5356POPC   C1B67399  32.805  11.608   6.170
 5356POPC   C2B67400  32.970  11.497   6.571
 5356POPC   C3B67401  32.818  11.633   6.951
 5356POPC   C4B67402  32.992  11.798   7.272
 5357POPC   NC367403  23.809  11.195   5.592
 5357POPC   PO467404  24.098  10.710   5.253
 5357POPC   GL167405  23.936  10.545   5.676
 5357POPC   GL267406  23.652  10.745   5.805
 5357POPC   C1A67407  23.897  10.377   6.129
 5357POPC   D2A67408  23.844  10.516   6.516
 5357POPC   C3A67409  23.816  10.321   6.901
 5357POPC   C4A67410  23.804  10.511   7.293
 5357POPC   C1B67411  24.010  10.861   6.106
 5357POPC   C2B67412  24.111  10.943   6.519
 5357POPC   C3B67413  24.171  10.698   6.889
 5357POPC   C4B67414  24.164  10.850   7.293
 5358POPC   NC367415  30.149   2.650   5.238
 5358POPC   PO467416  30.853   2.661   5.377
 5358POPC   GL167417  30.757   2.623   5.782
 5358POPC   GL267418  30.920   2.956   5.864
 5358POPC   C1A67419  30.784   2.550   6.196
 5358POPC   D2A67420  30.657   2.639   6.582
 5358POPC   C3A67421  30.838   2.399   6.859
 5358POPC   C4A67422  30.733   2.551   7.238
 5358POPC   C1B67423  30.632   3.069   6.202
 5358POPC   C2B67424  30.417   3.083   6.598
 5358POPC   C3B67425  30.570   3.001   7.046
 5358POPC   C4B67426  30.592   3.245   7.453
 5359POPC   NC367427  21.079  38.442   5.316
 5359POPC   PO467428  21.678  38.238   5.044
 5359POPC   GL167429  21.634  38.280   5.551
 5359POPC   GL267430  21.340  38.456   5.750
 5359POPC   C1A67431  21.731  38.247   6.031
 5359POPC   D2A67432  21.521  38.163   6.459
 5359POPC   C3A67433  21.511  38.468   6.812
 5359POPC   C4A67434  21.601  38.424   7.224
 5359POPC   C1B67435  21.148  38.388   6.175
 5359POPC   C2B67436  21.043  38.362   6.640
 5359POPC   C3B67437  21.091  38.393   7.150
 5359POPC   C4B67438  20.944  38.513   7.598
 5360POPC   NC367439  25.985  16.473   5.123
 5360POPC   PO467440  26.106  17.043   5.399
 5360POPC   GL167441  26.221  16.794   5.738
 5360POPC   GL267442  25.907  16.657   5.853
 5360POPC   C1A67443  26.216  16.911   6.183
 5360POPC   D2A67444  25.992  16.859   6.561
 5360POPC   C3A67445  26.316  16.965   6.850
 5360POPC   C4A67446  26.331  16.971   7.293
 5360POPC   C1B67447  26.064  16.411   6.235
 5360POPC   C2B67448  26.235  16.422   6.680
 5360POPC   C3B67449  26.059  16.571   7.101
 5360POPC   C4B67450  26.306  16.425   7.502
 5361POPC   NC367451  28.837  20.070   5.501
 5361POPC   PO467452  28.321  19.610   5.390
 5361POPC   GL167453  28.250  19.674   5.813
 5361POPC   GL267454  28.586  19.553   5.857
 5361POPC   C1A67455  28.038  20.002   6.114
 5361POPC   D2A67456  27.879  20.124   6.523
 5361POPC   C3A67457  28.079  20.065   6.903
 5361POPC   C4A67458  28.019  19.709   7.068
 5361POPC   C1B67459  28.545  19.948   6.112
 5361POPC   C2B67460  28.499  20.007   6.533
 5361POPC   C3B67461  28.453  19.684   6.813
 5361POPC   C4B67462  28.558  19.705   7.232
 5362POPC   NC367463  43.214  36.972   5.035
 5362POPC   PO467464  43.229  36.581   5.555
 5362POPC   GL167465  43.053  36.742   5.895
 5362POPC   GL267466  43.213  37.020   5.917
 5362POPC   C1A67467  43.036  36.694   6.300
 5362POPC   D2A67468  43.181  36.472   6.629
 5362POPC   C3A67469  43.100  36.713   6.987
 5362POPC   C4A67470  42.948  36.827   7.451
 5362POPC   C1B67471  43.469  37.178   6.210
 5362POPC   C2B67472  43.320  37.056   6.612
 5362POPC   C3B67473  43.427  37.246   6.973
 5362POPC   C4B67474  43.383  36.983   7.274
 5363POPC   NC367475  37.646   3.858   5.122
 5363POPC   PO467476  37.978   3.302   5.389
 5363POPC   GL167477  37.685   3.410   5.708
 5363POPC   GL267478  37.918   3.413   5.906
 5363POPC   C1A67479  37.527   3.547   6.178
 5363POPC   D2A67480  37.419   3.316   6.592
 5363POPC   C3A67481  37.290   3.512   7.011
 5363POPC   C4A67482  37.403   3.533   7.491
 5363POPC   C1B67483  37.831   3.144   6.252
 5363POPC   C2B67484  37.939   3.270   6.650
 5363POPC   C3B67485  37.789   3.410   7.000
 5363POPC   C4B67486  37.699   3.808   7.158
 5364POPC   NC367487  36.153  36.165   5.336
 5364POPC   PO467488  35.658  35.831   5.687
 5364POPC   GL167489  36.095  35.846   5.781
 5364POPC   GL267490  36.235  36.167   5.911
 5364POPC   C1A67491  36.308  35.671   6.146
 5364POPC   D2A67492  36.407  35.726   6.612
 5364POPC   C3A67493  36.088  35.915   6.887
 5364POPC   C4A67494  36.162  36.020   7.319
 5364POPC   C1B67495  36.081  36.132   6.364
 5364POPC   C2B67496  36.011  36.426   6.737
 5364POPC   C3B67497  36.132  36.500   7.185
 5364POPC   C4B67498  36.094  36.438   7.661
 5365POPC   NC367499  34.588  27.183   5.308
 5365POPC   PO467500  34.553  26.528   5.273
 5365POPC   GL167501  34.563  26.800   5.677
 5365POPC   GL267502  34.301  27.027   5.778
 5365POPC   C1A67503  34.553  26.754   6.152
 5365POPC   D2A67504  34.772  26.679   6.558
 5365POPC   C3A67505  34.581  26.661   6.974
 5365POPC   C4A67506  34.839  26.734   7.309
 5365POPC   C1B67507  34.194  27.086   6.248
 5365POPC   C2B67508  34.503  27.115   6.561
 5365POPC   C3B67509  34.759  27.134   6.916
 5365POPC   C4B67510  34.464  27.139   7.242
 5366POPC   NC367511  35.844  15.413   5.500
 5366POPC   PO467512  36.435  15.176   5.180
 5366POPC   GL167513  36.257  15.154   5.632
 5366POPC   GL267514  36.021  14.909   5.747
 5366POPC   C1A67515  36.392  15.164   6.099
 5366POPC   D2A67516  36.402  15.338   6.574
 5366POPC   C3A67517  36.180  15.148   6.944
 5366POPC   C4A67518  36.238  15.244   7.376
 5366POPC   C1B67519  35.896  15.065   6.187
 5366POPC   C2B67520  35.780  15.045   6.642
 5366POPC   C3B67521  35.713  14.953   7.112
 5366POPC   C4B67522  35.746  15.138   7.545
 5367POPC   NC367523  22.806   5.883   5.253
 5367POPC   PO467524  23.354   6.181   5.373
 5367POPC   GL167525  23.264   6.068   5.796
 5367POPC   GL267526  23.028   5.798   5.750
 5367POPC   C1A67527  23.126   6.131   6.236
 5367POPC   D2A67528  23.099   5.821   6.622
 5367POPC   C3A67529  23.102   6.072   6.985
 5367POPC   C4A67530  22.932   6.245   7.366
 5367POPC   C1B67531  22.876   5.675   6.148
 5367POPC   C2B67532  22.621   5.628   6.519
 5367POPC   C3B67533  22.747   5.614   6.954
 5367POPC   C4B67534  22.707   5.768   7.378
 5368POPC   NC367535   6.370  41.496   5.628
 5368POPC   PO467536   6.968  41.681   5.292
 5368POPC   GL167537   6.893  41.583   5.732
 5368POPC   GL267538   6.853  41.219   5.698
 5368POPC   C1A67539   6.845  41.769   6.185
 5368POPC   D2A67540   7.026  41.901   6.549
 5368POPC   C3A67541   6.802  41.790   6.932
 5368POPC   C4A67542   7.041  41.767   7.326
 5368POPC   C1B67543   7.000  41.283   6.131
 5368POPC   C2B67544   6.891  41.401   6.556
 5368POPC   C3B67545   6.961  41.266   6.974
 5368POPC   C4B67546   6.547  41.223   7.113
 5369POPC   NC367547   7.281  41.908   5.607
 5369POPC   PO467548   7.218  42.530   5.361
 5369POPC   GL167549   7.329  42.400   5.777
 5369POPC   GL267550   7.666  42.519   5.814
 5369POPC   C1A67551   7.138  42.245   6.155
 5369POPC   D2A67552   7.046  42.423   6.526
 5369POPC   C3A67553   7.098  42.218   6.936
 5369POPC   C4A67554   7.296  42.324   7.289
 5369POPC   C1B67555   7.684  42.277   6.200
 5369POPC   C2B67556   7.508  42.218   6.574
 5369POPC   C3B67557   7.675  42.327   6.943
 5369POPC   C4B67558   7.779  42.185   7.332
 5370POPC   NC367559  13.978   0.554   5.528
 5370POPC   PO467560  14.707   0.609   5.490
 5370POPC   GL167561  14.466   0.342   5.807
 5370POPC   GL267562  14.127   0.119   5.764
 5370POPC   C1A67563  14.513   0.490   6.252
 5370POPC   D2A67564  14.442   0.667   6.671
 5370POPC   C3A67565  14.607   0.559   7.061
 5370POPC   C4A67566  14.568   0.702   7.493
 5370POPC   C1B67567  14.028   0.309   6.174
 5370POPC   C2B67568  14.201   0.238   6.593
 5370POPC   C3B67569  14.163   0.289   7.045
 5370POPC   C4B67570  14.103   0.449   7.464
 5371POPC   NC367571  41.101  32.125   5.186
 5371POPC   PO467572  41.754  32.063   5.422
 5371POPC   GL167573  41.679  32.136   5.893
 5371POPC   GL267574  41.359  32.153   6.026
 5371POPC   C1A67575  41.667  32.129   6.406
 5371POPC   D2A67576  41.643  32.358   6.789
 5371POPC   C3A67577  41.699  32.195   7.212
 5371POPC   C4A67578  41.762  32.337   7.638
 5371POPC   C1B67579  41.160  31.958   6.375
 5371POPC   C2B67580  40.974  32.098   6.727
 5371POPC   C3B67581  41.175  32.244   7.089
 5371POPC   C4B67582  41.244  32.222   7.519
 5372POPC   NC367583  15.036  10.264   5.462
 5372POPC   PO467584  15.537  10.747   5.380
 5372POPC   GL167585  15.334  10.631   5.771
 5372POPC   GL267586  14.982  10.627   5.862
 5372POPC   C1A67587  15.380  10.662   6.214
 5372POPC   D2A67588  15.441  10.325   6.480
 5372POPC   C3A67589  15.333  10.480   6.880
 5372POPC   C4A67590  15.295  10.348   7.273
 5372POPC   C1B67591  15.006  10.322   6.164
 5372POPC   C2B67592  14.961  10.236   6.603
 5372POPC   C3B67593  14.843  10.429   6.990
 5372POPC   C4B67594  14.944  10.706   7.317
 5373POPC   NC367595  23.616  37.861   5.114
 5373POPC   PO467596  23.739  38.419   5.448
 5373POPC   GL167597  23.466  38.351   5.809
 5373POPC   GL267598  23.749  38.378   5.965
 5373POPC   C1A67599  23.418  38.111   6.248
 5373POPC   D2A67600  23.255  38.028   6.695
 5373POPC   C3A67601  23.452  38.267   7.039
 5373POPC   C4A67602  23.646  38.257   7.457
 5373POPC   C1B67603  23.629  38.622   6.269
 5373POPC   C2B67604  23.792  38.506   6.667
 5373POPC   C3B67605  23.901  38.526   7.102
 5373POPC   C4B67606  23.751  38.770   7.471
 5374POPC   NC367607   1.525   3.524   5.572
 5374POPC   PO467608   2.203   3.360   5.392
 5374POPC   GL167609   2.027   3.425   5.787
 5374POPC   GL267610   1.896   3.736   5.838
 5374POPC   C1A67611   2.232   3.486   6.185
 5374POPC   D2A67612   2.511   3.483   6.540
 5374POPC   C3A67613   2.311   3.459   6.900
 5374POPC   C4A67614   2.162   3.697   7.222
 5374POPC   C1B67615   1.740   3.589   6.230
 5374POPC   C2B67616   1.884   3.425   6.591
 5374POPC   C3B67617   1.750   3.558   6.964
 5374POPC   C4B67618   1.678   3.857   7.267
 5375POPC   NC367619  31.488  18.179   5.350
 5375POPC   PO467620  31.378  18.805   5.430
 5375POPC   GL167621  31.323  18.424   5.770
 5375POPC   GL267622  31.656  18.224   5.818
 5375POPC   C1A67623  31.321  18.116   6.170
 5375POPC   D2A67624  31.463  17.980   6.616
 5375POPC   C3A67625  31.338  18.305   6.928
 5375POPC   C4A67626  31.004  18.575   6.975
 5375POPC   C1B67627  31.846  18.068   6.211
 5375POPC   C2B67628  32.023  18.246   6.603
 5375POPC   C3B67629  31.811  18.128   6.993
 5375POPC   C4B67630  31.707  18.251   7.440
 5376POPC   NC367631  41.319   8.230   5.406
 5376POPC   PO467632  41.834   7.881   5.446
 5376POPC   GL167633  41.512   7.916   5.781
 5376POPC   GL267634  41.504   8.262   5.878
 5376POPC   C1A67635  41.364   7.919   6.236
 5376POPC   D2A67636  41.380   8.137   6.674
 5376POPC   C3A67637  41.407   7.947   7.075
 5376POPC   C4A67638  41.658   8.022   7.459
 5376POPC   C1B67639  41.375   8.435   6.266
 5376POPC   C2B67640  41.378   8.659   6.689
 5376POPC   C3B67641  41.444   8.468   7.092
 5376POPC   C4B67642  41.213   8.284   7.425
 5377POPC   NC367643   7.190  31.035   5.339
 5377POPC   PO467644   7.703  31.425   5.358
 5377POPC   GL167645   7.576  31.231   5.733
 5377POPC   GL267646   7.440  31.564   5.818
 5377POPC   C1A67647   7.522  31.071   6.170
 5377POPC   D2A67648   7.229  31.101   6.530
 5377POPC   C3A67649   7.401  31.132   6.960
 5377POPC   C4A67650   7.559  31.273   7.367
 5377POPC   C1B67651   7.241  31.514   6.212
 5377POPC   C2B67652   7.416  31.556   6.644
 5377POPC   C3B67653   7.326  31.628   7.068
 5377POPC   C4B67654   7.214  31.969   7.303
 5378POPC   NC367655  40.306   4.150   5.359
 5378POPC   PO467656  39.844   4.637   5.479
 5378POPC   GL167657  40.113   4.461   5.772
 5378POPC   GL267658  39.792   4.368   5.951
 5378POPC   C1A67659  40.246   4.225   6.142
 5378POPC   D2A67660  40.274   4.300   6.593
 5378POPC   C3A67661  39.991   4.133   6.904
 5378POPC   C4A67662  40.184   3.840   7.196
 5378POPC   C1B67663  39.772   4.360   6.412
 5378POPC   C2B67664  39.514   4.378   6.774
 5378POPC   C3B67665  39.682   4.448   7.171
 5378POPC   C4B67666  39.708   4.449   7.622
 5379POPC   NC367667  38.711  11.332   5.565
 5379POPC   PO467668  39.339  11.341   5.259
 5379POPC   GL167669  39.234  11.429   5.704
 5379POPC   GL267670  38.980  11.726   5.763
 5379POPC   C1A67671  39.228  11.174   6.102
 5379POPC   D2A67672  39.092  11.096   6.524
 5379POPC   C3A67673  39.300  11.215   6.910
 5379POPC   C4A67674  39.051  11.234   7.235
 5379POPC   C1B67675  39.089  11.675   6.183
 5379POPC   C2B67676  39.201  11.591   6.576
 5379POPC   C3B67677  39.065  11.712   6.979
 5379POPC   C4B67678  39.293  11.681   7.333
 5380POPC   NC367679  44.039  10.066   5.335
 5380POPC   PO467680  43.777  10.676   5.444
 5380POPC   GL167681  43.757  10.418   5.814
 5380POPC   GL267682  44.084  10.308   5.788
 5380POPC   C1A67683  43.853  10.550   6.259
 5380POPC   D2A67684  44.156  10.602   6.623
 5380POPC   C3A67685  43.973  10.729   7.019
 5380POPC   C4A67686  43.669  10.474   7.208
 5380POPC   C1B67687  44.006  10.080   6.181
 5380POPC   C2B67688  43.859  10.133   6.592
 5380POPC   C3B67689  44.046  10.213   6.997
 5380POPC   C4B67690  43.982  10.174   7.473
 5381POPC   NC367691   5.893  26.383   5.471
 5381POPC   PO467692   6.236  25.799   5.437
 5381POPC   GL167693   5.864  25.903   5.715
 5381POPC   GL267694   5.612  25.613   5.804
 5381POPC   C1A67695   5.773  26.133   6.091
 5381POPC   D2A67696   5.944  26.082   6.495
 5381POPC   C3A67697   5.726  26.111   6.883
 5381POPC   C4A67698   5.894  25.940   7.260
 5381POPC   C1B67699   5.751  25.622   6.205
 5381POPC   C2B67700   5.600  25.683   6.607
 5381POPC   C3B67701   5.594  25.581   7.032
 5381POPC   C4B67702   5.406  25.548   7.450
 5382POPC   NC367703   1.495  30.730   5.297
 5382POPC   PO467704   0.828  30.425   5.474
 5382POPC   GL167705   1.207  30.562   5.739
 5382POPC   GL267706   1.567  30.561   5.779
 5382POPC   C1A67707   1.255  30.811   6.110
 5382POPC   D2A67708   1.001  30.843   6.470
 5382POPC   C3A67709   1.192  30.930   6.845
 5382POPC   C4A67710   1.054  30.797   7.250
 5382POPC   C1B67711   1.562  30.406   6.194
 5382POPC   C2B67712   1.466  30.576   6.579
 5382POPC   C3B67713   1.249  30.432   6.954
 5382POPC   C4B67714   1.393  30.452   7.389
 5383POPC   NC367715  24.828   9.721   5.440
 5383POPC   PO467716  24.166   9.748   5.301
 5383POPC   GL167717  24.411   9.699   5.746
 5383POPC   GL267718  24.526  10.036   5.825
 5383POPC   C1A67719  24.673   9.719   6.191
 5383POPC   D2A67720  24.766   9.961   6.620
 5383POPC   C3A67721  24.645   9.748   7.003
 5383POPC   C4A67722  24.297   9.604   7.254
 5383POPC   C1B67723  24.201   9.945   6.152
 5383POPC   C2B67724  23.877   9.920   6.483
 5383POPC   C3B67725  24.054   9.867   6.898
 5383POPC   C4B67726  24.083  10.095   7.302
 5384POPC   NC367727   4.324   3.239   5.565
 5384POPC   PO467728   4.924   3.466   5.309
 5384POPC   GL167729   4.763   3.458   5.731
 5384POPC   GL267730   4.793   3.143   5.883
 5384POPC   C1A67731   4.801   3.582   6.188
 5384POPC   D2A67732   5.056   3.529   6.584
 5384POPC   C3A67733   4.953   3.711   6.985
 5384POPC   C4A67734   5.119   3.648   7.414
 5384POPC   C1B67735   5.088   3.134   6.206
 5384POPC   C2B67736   5.156   3.019   6.634
 5384POPC   C3B67737   5.188   3.237   7.040
 5384POPC   C4B67738   5.313   3.171   7.468
 5385POPC   NC367739   0.846  13.594   5.449
 5385POPC   PO467740   1.548  13.821   5.395
 5385POPC   GL167741   1.338  13.547   5.709
 5385POPC   GL267742   1.076  13.732   5.869
 5385POPC   C1A67743   1.301  13.371   6.145
 5385POPC   D2A67744   1.347  13.415   6.589
 5385POPC   C3A67745   1.208  13.369   7.006
 5385POPC   C4A67746   1.433  13.679   7.242
 5385POPC   C1B67747   1.110  13.950   6.237
 5385POPC   C2B67748   1.321  13.960   6.599
 5385POPC   C3B67749   1.238  14.102   7.001
 5385POPC   C4B67750   0.966  13.908   7.325
 5386POPC   NC367751  36.998  38.995   5.508
 5386POPC   PO467752  36.830  39.609   5.280
 5386POPC   GL167753  36.867  39.484   5.771
 5386POPC   GL267754  36.722  39.170   5.897
 5386POPC   C1A67755  36.785  39.526   6.242
 5386POPC   D2A67756  36.712  39.323   6.620
 5386POPC   C3A67757  36.909  39.336   7.011
 5386POPC   C4A67758  36.815  39.427   7.440
 5386POPC   C1B67759  36.849  38.952   6.300
 5386POPC   C2B67760  37.159  39.036   6.655
 5386POPC   C3B67761  37.236  38.914   7.098
 5386POPC   C4B67762  37.041  38.973   7.496
 5387POPC   NC367763  15.204  28.947   5.253
 5387POPC   PO467764  14.852  29.487   5.327
 5387POPC   GL167765  15.079  29.380   5.736
 5387POPC   GL267766  15.254  29.059   5.741
 5387POPC   C1A67767  15.061  29.229   6.192
 5387POPC   D2A67768  15.144  29.218   6.658
 5387POPC   C3A67769  14.871  29.356   7.008
 5387POPC   C4A67770  15.080  29.519   7.381
 5387POPC   C1B67771  15.435  28.794   6.038
 5387POPC   C2B67772  15.229  28.774   6.412
 5387POPC   C3B67773  15.326  28.752   6.850
 5387POPC   C4B67774  15.208  29.039   7.171
 5388POPC   NC367775  37.397  20.537   5.715
 5388POPC   PO467776  37.769  21.041   5.551
 5388POPC   GL167777  37.589  20.972   5.907
 5388POPC   GL267778  37.257  21.013   5.858
 5388POPC   C1A67779  37.722  20.862   6.304
 5388POPC   D2A67780  37.754  20.954   6.722
 5388POPC   C3A67781  37.861  20.584   6.877
 5388POPC   C4A67782  37.941  20.527   7.264
 5388POPC   C1B67783  37.215  20.749   6.284
 5388POPC   C2B67784  37.381  20.594   6.672
 5388POPC   C3B67785  37.423  20.733   7.094
 5388POPC   C4B67786  37.103  20.544   7.267
 5389POPC   NC367787  27.846   3.909   5.607
 5389POPC   PO467788  27.294   4.237   5.399
 5389POPC   GL167789  27.527   4.328   5.743
 5389POPC   GL267790  27.413   4.633   5.863
 5389POPC   C1A67791  27.659   4.262   6.162
 5389POPC   D2A67792  27.753   3.946   6.468
 5389POPC   C3A67793  27.724   4.122   6.858
 5389POPC   C4A67794  27.825   4.086   7.269
 5389POPC   C1B67795  27.317   4.734   6.246
 5389POPC   C2B67796  27.513   4.581   6.615
 5389POPC   C3B67797  27.422   4.492   7.030
 5389POPC   C4B67798  27.427   4.784   7.397
 5390POPC   NC367799   9.976  18.742   5.404
 5390POPC   PO467800   9.613  19.256   5.665
 5390POPC   GL167801   9.824  19.141   5.978
 5390POPC   GL267802   9.740  18.813   5.911
 5390POPC   C1A67803  10.051  19.300   6.326
 5390POPC   D2A67804   9.884  19.239   6.738
 5390POPC   C3A67805   9.880  18.999   7.144
 5390POPC   C4A67806  10.019  19.191   7.537
 5390POPC   C1B67807   9.736  18.852   6.388
 5390POPC   C2B67808   9.503  18.906   6.761
 5390POPC   C3B67809   9.379  18.885   7.170
 5390POPC   C4B67810   9.513  18.559   7.378
 5391POPC   NC367811  13.277  35.146   5.140
 5391POPC   PO467812  12.904  35.545   5.592
 5391POPC   GL167813  12.822  35.497   5.938
 5391POPC   GL267814  12.638  35.222   5.904
 5391POPC   C1A67815  12.823  35.758   6.273
 5391POPC   D2A67816  12.561  35.706   6.582
 5391POPC   C3A67817  12.645  35.417   6.894
 5391POPC   C4A67818  12.719  35.549   7.299
 5391POPC   C1B67819  12.730  35.231   6.362
 5391POPC   C2B67820  13.066  35.194   6.653
 5391POPC   C3B67821  13.047  35.101   7.082
 5391POPC   C4B67822  12.968  35.156   7.544
 5392POPC   NC367823  25.579  23.377   5.603
 5392POPC   PO467824  25.269  23.910   5.542
 5392POPC   GL167825  25.372  23.724   5.921
 5392POPC   GL267826  25.045  23.696   5.984
 5392POPC   C1A67827  25.396  23.483   6.334
 5392POPC   D2A67828  25.120  23.234   6.615
 5392POPC   C3A67829  25.052  23.498   6.956
 5392POPC   C4A67830  25.404  23.667   7.172
 5392POPC   C1B67831  25.182  23.963   6.342
 5392POPC   C2B67832  25.109  24.215   6.721
 5392POPC   C3B67833  25.131  24.094   7.126
 5392POPC   C4B67834  24.931  23.818   7.391
 5393POPC   NC367835  39.778  26.696   5.054
 5393POPC   PO467836  40.387  26.674   5.459
 5393POPC   GL167837  40.199  26.565   5.870
 5393POPC   GL267838  39.899  26.739   5.761
 5393POPC   C1A67839  39.852  26.649   6.259
 5393POPC   D2A67840  39.697  26.752   6.669
 5393POPC   C3A67841  39.963  26.737   7.026
 5393POPC   C4A67842  40.250  26.686   7.357
 5393POPC   C1B67843  40.141  27.011   6.085
 5393POPC   C2B67844  40.183  26.975   6.580
 5393POPC   C3B67845  40.287  27.124   7.026
 5393POPC   C4B67846  40.236  27.202   7.502
 5394POPC   NC367847  41.417  37.659   5.457
 5394POPC   PO467848  41.875  38.063   5.434
 5394POPC   GL167849  41.769  37.779   5.851
 5394POPC   GL267850  41.388  37.769   5.961
 5394POPC   C1A67851  41.727  37.682   6.343
 5394POPC   D2A67852  41.341  37.861   6.585
 5394POPC   C3A67853  41.391  37.996   7.021
 5394POPC   C4A67854  41.610  37.729   7.317
 5394POPC   C1B67855  41.275  37.440   6.300
 5394POPC   C2B67856  41.507  37.339   6.706
 5394POPC   C3B67857  41.464  37.212   7.151
 5394POPC   C4B67858  41.482  37.293   7.614
 5395POPC   NC367859   3.584  19.531   5.482
 5395POPC   PO467860   3.905  18.967   5.354
 5395POPC   GL167861   3.645  19.017   5.763
 5395POPC   GL267862   3.305  18.862   5.851
 5395POPC   C1A67863   3.597  19.183   6.186
 5395POPC   D2A67864   3.821  19.287   6.573
 5395POPC   C3A67865   3.609  19.214   6.946
 5395POPC   C4A67866   3.519  19.228   7.369
 5395POPC   C1B67867   3.367  18.732   6.241
 5395POPC   C2B67868   3.332  18.954   6.606
 5395POPC   C3B67869   3.346  18.775   6.990
 5395POPC   C4B67870   3.235  18.782   7.385
 5396POPC   NC367871  33.462  22.430   5.518
 5396POPC   PO467872  32.886  22.094   5.340
 5396POPC   GL167873  32.967  21.990   5.753
 5396POPC   GL267874  33.301  22.002   5.815
 5396POPC   C1A67875  32.936  22.000   6.209
 5396POPC   D2A67876  32.766  21.922   6.648
 5396POPC   C3A67877  33.058  22.221   6.899
 5396POPC   C4A67878  32.888  22.505   7.217
 5396POPC   C1B67879  33.415  21.814   6.245
 5396POPC   C2B67880  33.236  21.745   6.697
 5396POPC   C3B67881  33.256  21.837   7.177
 5396POPC   C4B67882  33.391  21.935   7.620
 5397POPC   NC367883   2.745  18.213   4.883
 5397POPC   PO467884   3.016  18.511   5.426
 5397POPC   GL167885   2.939  18.482   5.855
 5397POPC   GL267886   2.618  18.371   5.898
 5397POPC   C1A67887   2.859  18.603   6.280
 5397POPC   D2A67888   2.584  18.467   6.616
 5397POPC   C3A67889   2.772  18.573   7.017
 5397POPC   C4A67890   2.683  18.456   7.462
 5397POPC   C1B67891   2.742  18.089   6.205
 5397POPC   C2B67892   2.555  17.901   6.573
 5397POPC   C3B67893   2.598  18.069   6.977
 5397POPC   C4B67894   2.840  17.970   7.329
 5398POPC   NC367895  41.541  29.381   5.211
 5398POPC   PO467896  41.936  28.811   5.471
 5398POPC   GL167897  41.733  29.163   5.714
 5398POPC   GL267898  41.426  29.413   5.722
 5398POPC   C1A67899  41.637  29.109   6.159
 5398POPC   D2A67900  41.536  28.976   6.585
 5398POPC   C3A67901  41.887  28.962   6.853
 5398POPC   C4A67902  41.710  28.915   7.250
 5398POPC   C1B67903  41.381  29.559   6.169
 5398POPC   C2B67904  41.637  29.473   6.577
 5398POPC   C3B67905  41.602  29.376   7.018
 5398POPC   C4B67906  41.770  29.386   7.452
 5399POPC   NC367907  29.381  40.218   5.372
 5399POPC   PO467908  29.203  39.580   5.233
 5399POPC   GL167909  29.264  39.829   5.685
 5399POPC   GL267910  29.004  40.119   5.739
 5399POPC   C1A67911  29.360  40.066   6.123
 5399POPC   D2A67912  29.591  40.141   6.531
 5399POPC   C3A67913  29.386  40.033   6.891
 5399POPC   C4A67914  29.253  39.916   7.276
 5399POPC   C1B67915  28.886  40.258   6.165
 5399POPC   C2B67916  28.970  40.032   6.561
 5399POPC   C3B67917  28.900  40.166   6.993
 5399POPC   C4B67918  28.928  40.224   7.479
 5400POPC   NC367919  33.964  27.519   5.438
 5400POPC   PO467920  34.008  26.795   5.411
 5400POPC   GL167921  33.826  26.858   5.803
 5400POPC   GL267922  33.624  27.177   5.725
 5400POPC   C1A67923  33.981  26.645   6.194
 5400POPC   D2A67924  34.232  26.672   6.592
 5400POPC   C3A67925  34.046  26.731   7.021
 5400POPC   C4A67926  33.984  26.505   7.415
 5400POPC   C1B67927  33.685  27.150   6.194
 5400POPC   C2B67928  33.782  26.945   6.572
 5400POPC   C3B67929  33.552  26.957   6.922
 5400POPC   C4B67930  33.583  27.168   7.280
 5401POPC   NC367931   6.367  36.502   5.431
 5401POPC   PO467932   6.577  35.882   5.147
 5401POPC   GL167933   6.478  36.015   5.598
 5401POPC   GL267934   6.273  35.798   5.787
 5401POPC   C1A67935   6.463  36.226   6.058
 5401POPC   D2A67936   6.663  36.182   6.478
 5401POPC   C3A67937   6.511  36.291   6.907
 5401POPC   C4A67938   6.641  36.136   7.304
 5401POPC   C1B67939   6.214  35.798   6.234
 5401POPC   C2B67940   6.215  35.925   6.687
 5401POPC   C3B67941   6.266  35.840   7.133
 5401POPC   C4B67942   6.592  35.653   7.449
 5402POPC   NC367943  37.002  32.689   5.604
 5402POPC   PO467944  36.947  33.246   5.244
 5402POPC   GL167945  36.714  33.118   5.726
 5402POPC   GL267946  36.518  32.809   5.824
 5402POPC   C1A67947  36.721  33.090   6.229
 5402POPC   D2A67948  36.721  33.137   6.714
 5402POPC   C3A67949  37.127  33.181   6.943
 5402POPC   C4A67950  37.278  33.093   7.375
 5402POPC   C1B67951  36.302  32.783   6.253
 5402POPC   C2B67952  36.365  32.771   6.730
 5402POPC   C3B67953  36.697  32.718   7.044
 5402POPC   C4B67954  36.763  33.075   7.298
 5403POPC   NC367955  31.648  33.396   5.606
 5403POPC   PO467956  31.348  34.020   5.475
 5403POPC   GL167957  31.385  33.755   5.839
 5403POPC   GL267958  31.145  33.510   5.836
 5403POPC   C1A67959  31.552  33.766   6.251
 5403POPC   D2A67960  31.444  34.022   6.595
 5403POPC   C3A67961  31.470  33.885   7.021
 5403POPC   C4A67962  31.553  34.129   7.391
 5403POPC   C1B67963  31.178  33.416   6.248
 5403POPC   C2B67964  31.261  33.545   6.654
 5403POPC   C3B67965  31.104  33.470   7.063
 5403POPC   C4B67966  31.324  33.567   7.415
 5404POPC   NC367967  13.478   8.711   5.491
 5404POPC   PO467968  13.231   9.376   5.361
 5404POPC   GL167969  13.325   9.132   5.753
 5404POPC   GL267970  13.680   9.050   5.825
 5404POPC   C1A67971  13.329   8.961   6.196
 5404POPC   D2A67972  13.188   8.800   6.599
 5404POPC   C3A67973  13.437   8.735   6.938
 5404POPC   C4A67974  13.831   8.557   7.072
 5404POPC   C1B67975  13.942   9.047   6.191
 5404POPC   C2B67976  13.999   8.828   6.612
 5404POPC   C3B67977  13.843   9.053   6.941
 5404POPC   C4B67978  13.512   9.281   7.159
 5405POPC   NC367979   1.803  17.701   5.390
 5405POPC   PO467980   2.313  17.247   5.585
 5405POPC   GL167981   2.119  17.631   5.805
 5405POPC   GL267982   1.821  17.845   5.882
 5405POPC   C1A67983   2.017  17.594   6.253
 5405POPC   D2A67984   1.784  17.440   6.597
 5405POPC   C3A67985   2.079  17.454   6.921
 5405POPC   C4A67986   2.313  17.718   7.199
 5405POPC   C1B67987   1.710  18.061   6.269
 5405POPC   C2B67988   1.457  17.948   6.610
 5405POPC   C3B67989   1.579  17.746   6.949
 5405POPC   C4B67990   1.793  17.713   7.279
 5406POPC   NC367991  27.280  37.637   5.271
 5406POPC   PO467992  27.978  37.474   5.474
 5406POPC   GL167993  27.630  37.418   5.771
 5406POPC   GL267994  27.488  37.738   5.721
 5406POPC   C1A67995  27.508  37.603   6.203
 5406POPC   D2A67996  27.737  37.766   6.544
 5406POPC   C3A67997  27.618  37.593   6.917
 5406POPC   C4A67998  27.586  37.719   7.328
 5406POPC   C1B67999  27.195  37.955   6.002
 5406POPC   C2B68000  27.239  38.017   6.463
 5406POPC   C3B68001  27.199  37.905   6.907
 5406POPC   C4B68002  27.094  37.861   7.329
 5407POPC   NC368003  13.027   5.882   5.256
 5407POPC   PO468004  12.381   5.566   5.443
 5407POPC   GL168005  12.679   5.879   5.667
 5407POPC   GL268006  13.042   5.813   5.752
 5407POPC   C1A68007  12.652   6.016   6.094
 5407POPC   D2A68008  12.828   5.875   6.477
 5407POPC   C3A68009  12.782   6.085   6.871
 5407POPC   C4A68010  12.969   6.184   7.290
 5407POPC   C1B68011  13.189   5.609   6.111
 5407POPC   C2B68012  13.121   5.452   6.502
 5407POPC   C3B68013  13.096   5.645   6.897
 5407POPC   C4B68014  13.170   5.659   7.318
 5408POPC   NC368015   3.140  41.647   5.479
 5408POPC   PO468016   2.624  41.231   5.246
 5408POPC   GL168017   2.457  41.337   5.721
 5408POPC   GL268018   2.712  41.592   5.814
 5408POPC   C1A68019   2.568  41.270   6.203
 5408POPC   D2A68020   2.666  41.519   6.539
 5408POPC   C3A68021   2.671  41.382   6.952
 5408POPC   C4A68022   2.677  41.775   7.199
 5408POPC   C1B68023   3.018  41.552   6.159
 5408POPC   C2B68024   3.174  41.769   6.518
 5408POPC   C3B68025   3.189  41.843   6.961
 5408POPC   C4B68026   3.091  41.496   7.218
 5409POPC   NC368027   3.030  35.017   5.493
 5409POPC   PO468028   2.554  35.527   5.384
 5409POPC   GL168029   2.744  35.373   5.742
 5409POPC   GL268030   3.076  35.479   5.709
 5409POPC   C1A68031   2.773  35.293   6.167
 5409POPC   D2A68032   2.515  35.461   6.494
 5409POPC   C3A68033   2.451  35.187   6.812
 5409POPC   C4A68034   2.681  35.181   7.177
 5409POPC   C1B68035   3.135  35.645   6.134
 5409POPC   C2B68036   3.186  35.416   6.504
 5409POPC   C3B68037   2.913  35.477   6.825
 5409POPC   C4B68038   3.059  35.677   7.164
 5410POPC   NC368039   2.296  43.008   5.448
 5410POPC   PO468040   1.692  43.260   5.386
 5410POPC   GL168041   1.812  43.399   5.812
 5410POPC   GL268042   2.116  43.236   5.851
 5410POPC   C1A68043   1.911  43.335   6.297
 5410POPC   D2A68044   2.050  43.020   6.623
 5410POPC   C3A68045   1.888  43.070   7.002
 5410POPC   C4A68046   1.956  42.854   7.407
 5410POPC   C1B68047   2.324  43.048   6.209
 5410POPC   C2B68048   2.492  43.315   6.545
 5410POPC   C3B68049   2.242  43.451   6.894
 5410POPC   C4B68050   2.209  43.278   7.322
 5411POPC   NC368051   4.017  42.791   5.403
 5411POPC   PO468052   4.554  43.160   5.595
 5411POPC   GL168053   4.333  43.101   5.960
 5411POPC   GL268054   3.989  43.080   5.837
 5411POPC   C1A68055   4.214  43.222   6.386
 5411POPC   D2A68056   4.088  43.169   6.798
 5411POPC   C3A68057   4.371  43.149   7.121
 5411POPC   C4A68058   4.299  43.299   7.563
 5411POPC   C1B68059   4.006  42.783   6.186
 5411POPC   C2B68060   3.812  42.792   6.609
 5411POPC   C3B68061   3.885  42.753   7.070
 5411POPC   C4B68062   4.180  42.789   7.442
 5412POPC   NC368063  25.138   2.478   5.140
 5412POPC   PO468064  25.632   2.147   5.432
 5412POPC   GL168065  25.351   2.313   5.774
 5412POPC   GL268066  25.001   2.368   5.642
 5412POPC   C1A68067  25.348   2.356   6.262
 5412POPC   D2A68068  25.300   2.072   6.606
 5412POPC   C3A68069  25.466   2.069   7.032
 5412POPC   C4A68070  25.530   1.743   7.364
 5412POPC   C1B68071  24.816   2.323   6.061
 5412POPC   C2B68072  24.853   2.372   6.532
 5412POPC   C3B68073  24.927   2.124   6.954
 5412POPC   C4B68074  24.903   2.065   7.441
 5413POPC   NC368075  34.918   2.786   5.378
 5413POPC   PO468076  35.717   2.420   5.456
 5413POPC   GL168077  35.529   2.601   5.830
 5413POPC   GL268078  35.148   2.662   5.867
 5413POPC   C1A68079  35.526   2.830   6.191
 5413POPC   D2A68080  35.297   2.857   6.566
 5413POPC   C3A68081  35.536   2.963   6.924
 5413POPC   C4A68082  35.439   3.047   7.342
 5413POPC   C1B68083  35.010   3.019   6.158
 5413POPC   C2B68084  34.975   3.254   6.580
 5413POPC   C3B68085  35.026   3.022   7.008
 5413POPC   C4B68086  34.915   2.985   7.484
 5414POPC   NC368087  11.938  16.109   5.084
 5414POPC   PO468088  11.280  16.027   5.253
 5414POPC   GL168089  11.184  15.956   5.719
 5414POPC   GL268090  11.257  16.269   5.823
 5414POPC   C1A68091  11.328  15.914   6.193
 5414POPC   D2A68092  11.314  15.637   6.582
 5414POPC   C3A68093  11.596  15.651   6.936
 5414POPC   C4A68094  11.634  15.966   7.237
 5414POPC   C1B68095  10.989  16.350   6.185
 5414POPC   C2B68096  11.124  16.226   6.561
 5414POPC   C3B68097  11.287  16.091   6.900
 5414POPC   C4B68098  11.124  15.995   7.269
 5415POPC   NC368099   2.188  15.974   5.467
 5415POPC   PO468100   1.672  15.588   5.473
 5415POPC   GL168101   1.803  15.857   5.838
 5415POPC   GL268102   2.095  15.718   5.922
 5415POPC   C1A68103   1.918  16.104   6.234
 5415POPC   D2A68104   2.232  16.141   6.615
 5415POPC   C3A68105   2.080  16.085   7.039
 5415POPC   C4A68106   1.640  16.135   7.170
 5415POPC   C1B68107   2.027  15.646   6.386
 5415POPC   C2B68108   1.848  15.800   6.684
 5415POPC   C3B68109   1.621  15.682   6.954
 5415POPC   C4B68110   1.909  15.665   7.278
 5416POPC   NC368111  43.155  18.215   5.185
 5416POPC   PO468112  42.466  18.158   5.148
 5416POPC   GL168113  42.748  18.272   5.605
 5416POPC   GL268114  43.118  18.164   5.706
 5416POPC   C1A68115  42.893  18.440   6.073
 5416POPC   D2A68116  42.949  18.339   6.528
 5416POPC   C3A68117  43.131  18.383   6.954
 5416POPC   C4A68118  42.860  18.179   7.251
 5416POPC   C1B68119  43.166  18.014   6.160
 5416POPC   C2B68120  43.284  17.935   6.589
 5416POPC   C3B68121  43.426  17.948   7.007
 5416POPC   C4B68122  43.377  18.179   7.392
 5417POPC   NC368123   3.578  43.671   5.230
 5417POPC   PO468124   3.595  42.966   5.390
 5417POPC   GL168125   3.449  43.088   5.773
 5417POPC   GL268126   3.165  42.919   5.721
 5417POPC   C1A68127   3.596  43.103   6.187
 5417POPC   D2A68128   3.647  43.310   6.555
 5417POPC   C3A68129   3.594  43.182   6.953
 5417POPC   C4A68130   3.893  43.244   7.284
 5417POPC   C1B68131   3.218  42.741   6.129
 5417POPC   C2B68132   3.322  42.857   6.548
 5417POPC   C3B68133   3.354  42.730   6.984
 5417POPC   C4B68134   3.067  42.892   7.283
 5418POPC   NC368135  28.028  23.051   5.463
 5418POPC   PO468136  28.668  22.798   5.385
 5418POPC   GL168137  28.515  22.703   5.790
 5418POPC   GL268138  28.336  23.052   5.881
 5418POPC   C1A68139  28.608  22.782   6.206
 5418POPC   D2A68140  28.376  22.921   6.548
 5418POPC   C3A68141  28.519  22.877   6.969
 5418POPC   C4A68142  28.356  23.192   7.246
 5418POPC   C1B68143  28.077  22.741   6.128
 5418POPC   C2B68144  28.043  22.517   6.555
 5418POPC   C3B68145  28.031  22.700   6.977
 5418POPC   C4B68146  28.217  22.647   7.372
 5419POPC   NC368147  20.762  34.798   5.359
 5419POPC   PO468148  20.188  34.462   5.456
 5419POPC   GL168149  20.405  34.739   5.741
 5419POPC   GL268150  20.745  34.542   5.806
 5419POPC   C1A68151  20.584  34.873   6.145
 5419POPC   D2A68152  20.798  34.616   6.448
 5419POPC   C3A68153  20.804  34.748   6.880
 5419POPC   C4A68154  20.549  35.008   7.109
 5419POPC   C1B68155  20.427  34.375   6.106
 5419POPC   C2B68156  20.331  34.375   6.540
 5419POPC   C3B68157  20.316  34.514   6.958
 5419POPC   C4B68158  20.195  34.238   7.297
 5420POPC   NC368159  44.936   6.357   5.577
 5420POPC   PO468160   0.344   5.836   5.318
 5420POPC   GL168161   0.357   5.961   5.754
 5420POPC   GL268162   0.706   6.059   5.899
 5420POPC   C1A68163   0.347   5.842   6.198
 5420POPC   D2A68164   0.114   5.778   6.566
 5420POPC   C3A68165   0.287   5.696   6.957
 5420POPC   C4A68166   0.091   5.895   7.298
 5420POPC   C1B68167   0.653   6.320   6.256
 5420POPC   C2B68168   0.529   6.106   6.639
 5420POPC   C3B68169   0.479   6.160   7.085
 5420POPC   C4B68170   0.631   5.956   7.501
 5421POPC   NC368171  20.538  44.155   5.348
 5421POPC   PO468172  20.260  44.790   5.348
 5421POPC   GL168173  20.529  44.622   5.671
 5421POPC   GL268174  20.428  44.308   5.806
 5421POPC   C1A68175  20.616  44.677   6.123
 5421POPC   D2A68176  20.695  44.917   6.491
 5421POPC   C3A68177  20.788  44.761   6.878
 5421POPC   C4A68178  20.530  44.911   7.217
 5421POPC   C1B68179  20.324  44.273   6.210
 5421POPC   C2B68180  20.245  44.539   6.522
 5421POPC   C3B68181  20.369  44.459   6.910
 5421POPC   C4B68182  20.202  44.522   7.297
 5422POPC   NC368183  37.740  38.492   5.364
 5422POPC   PO468184  37.182  38.087   5.484
 5422POPC   GL168185  37.540  38.329   5.785
 5422POPC   GL268186  37.962  38.314   5.774
 5422POPC   C1A68187  37.630  38.624   6.141
 5422POPC   D2A68188  37.591  38.466   6.556
 5422POPC   C3A68189  37.712  38.682   6.969
 5422POPC   C4A68190  37.817  38.578   7.401
 5422POPC   C1B68191  37.935  38.222   6.204
 5422POPC   C2B68192  38.056  38.175   6.622
 5422POPC   C3B68193  37.767  38.171   6.937
 5422POPC   C4B68194  37.871  38.081   7.293
 5423POPC   NC368195  13.992  33.692   5.400
 5423POPC   PO468196  13.425  34.030   5.500
 5423POPC   GL168197  13.672  33.949   5.855
 5423POPC   GL268198  13.697  33.613   5.813
 5423POPC   C1A68199  13.737  33.789   6.280
 5423POPC   D2A68200  13.759  33.997   6.651
 5423POPC   C3A68201  13.489  33.935   6.979
 5423POPC   C4A68202  13.652  34.011   7.369
 5423POPC   C1B68203  13.424  33.411   6.153
 5423POPC   C2B68204  13.458  33.452   6.602
 5423POPC   C3B68205  13.468  33.423   7.055
 5423POPC   C4B68206  13.886  33.562   7.213
 5424POPC   NC368207  29.611  16.046   5.368
 5424POPC   PO468208  28.985  15.729   5.481
 5424POPC   GL168209  29.276  15.951   5.769
 5424POPC   GL268210  29.413  15.596   5.813
 5424POPC   C1A68211  29.241  16.207   6.187
 5424POPC   D2A68212  29.150  16.046   6.612
 5424POPC   C3A68213  29.262  16.231   7.012
 5424POPC   C4A68214  29.470  16.084   7.391
 5424POPC   C1B68215  29.122  15.710   6.187
 5424POPC   C2B68216  28.839  15.646   6.518
 5424POPC   C3B68217  29.001  15.656   6.930
 5424POPC   C4B68218  28.920  15.948   7.261
 5425POPC   NC368219   8.535  40.863   5.265
 5425POPC   PO468220   7.822  40.724   5.300
 5425POPC   GL168221   8.156  40.738   5.617
 5425POPC   GL268222   8.316  41.055   5.741
 5425POPC   C1A68223   8.231  40.649   6.049
 5425POPC   D2A68224   8.133  40.838   6.449
 5425POPC   C3A68225   8.266  40.663   6.845
 5425POPC   C4A68226   8.211  40.673   7.261
 5425POPC   C1B68227   8.526  41.074   6.150
 5425POPC   C2B68228   8.438  41.204   6.617
 5425POPC   C3B68229   8.373  41.113   7.078
 5425POPC   C4B68230   8.451  41.037   7.573
 5426POPC   NC368231  38.905  19.967   5.317
 5426POPC   PO468232  39.542  19.680   5.439
 5426POPC   GL168233  39.202  19.777   5.698
 5426POPC   GL268234  39.221  20.136   5.734
 5426POPC   C1A68235  39.032  19.719   6.105
 5426POPC   D2A68236  39.247  19.588   6.464
 5426POPC   C3A68237  39.150  19.712   6.871
 5426POPC   C4A68238  39.388  19.465   7.139
 5426POPC   C1B68239  39.287  20.174   6.206
 5426POPC   C2B68240  39.461  20.025   6.591
 5426POPC   C3B68241  39.543  20.087   7.005
 5426POPC   C4B68242  39.185  20.060   7.247
 5427POPC   NC368243  40.692  33.009   5.205
 5427POPC   PO468244  40.726  32.373   5.300
 5427POPC   GL168245  40.547  32.607   5.821
 5427POPC   GL268246  40.586  33.007   5.758
 5427POPC   C1A68247  40.875  32.860   6.149
 5427POPC   D2A68248  41.147  33.034   6.456
 5427POPC   C3A68249  40.955  32.979   6.847
 5427POPC   C4A68250  41.080  33.126   7.227
 5427POPC   C1B68251  40.419  33.095   6.143
 5427POPC   C2B68252  40.367  33.059   6.575
 5427POPC   C3B68253  40.439  32.918   6.967
 5427POPC   C4B68254  40.599  33.049   7.353
 5428POPC   NC368255  19.041  44.962   5.396
 5428POPC   PO468256  19.255  44.277   5.414
 5428POPC   GL168257  19.042  44.530   5.800
 5428POPC   GL268258  18.839  44.846   5.858
 5428POPC   C1A68259  19.044  44.555   6.294
 5428POPC   D2A68260  19.334  44.477   6.687
 5428POPC   C3A68261  19.225  44.506   7.141
 5428POPC   C4A68262  19.214  44.809   7.490
 5428POPC   C1B68263  19.063   0.092   6.196
 5428POPC   C2B68264  19.198   0.030   6.637
 5428POPC   C3B68265  18.982  44.998   7.050
 5428POPC   C4B68266  18.872   0.168   7.473
 5429POPC   NC368267   8.717  10.953   5.475
 5429POPC   PO468268   8.964  10.202   5.492
 5429POPC   GL168269   8.820  10.409   5.842
 5429POPC   GL268270   9.019  10.717   5.815
 5429POPC   C1A68271   8.944  10.232   6.259
 5429POPC   D2A68272   9.249  10.238   6.614
 5429POPC   C3A68273   9.058  10.217   7.013
 5429POPC   C4A68274   8.732  10.355   7.258
 5429POPC   C1B68275   8.840  10.738   6.228
 5429POPC   C2B68276   8.832  10.574   6.646
 5429POPC   C3B68277   8.967  10.725   7.018
 5429POPC   C4B68278   9.173  10.917   7.319
 5430POPC   NC368279  22.374  21.093   5.569
 5430POPC   PO468280  22.107  21.727   5.429
 5430POPC   GL168281  22.087  21.541   5.811
 5430POPC   GL268282  22.374  21.700   5.901
 5430POPC   C1A68283  21.871  21.397   6.208
 5430POPC   D2A68284  21.993  21.485   6.645
 5430POPC   C3A68285  21.936  21.219   6.994
 5430POPC   C4A68286  21.829  21.376   7.390
 5430POPC   C1B68287  22.369  21.588   6.305
 5430POPC   C2B68288  22.501  21.446   6.694
 5430POPC   C3B68289  22.333  21.544   7.101
 5430POPC   C4B68290  22.343  21.473   7.541
 5431POPC   NC368291  37.693  29.804   5.062
 5431POPC   PO468292  37.910  30.221   5.514
 5431POPC   GL168293  37.691  29.949   5.837
 5431POPC   GL268294  37.766  29.626   5.949
 5431POPC   C1A68295  37.545  29.949   6.287
 5431POPC   D2A68296  37.826  30.127   6.639
 5431POPC   C3A68297  37.719  30.011   7.065
 5431POPC   C4A68298  37.280  30.026   7.220
 5431POPC   C1B68299  38.044  29.844   6.234
 5431POPC   C2B68300  38.224  29.781   6.630
 5431POPC   C3B68301  38.111  29.590   7.033
 5431POPC   C4B68302  37.825  29.615   7.390
 5432POPC   NC368303  36.491  42.958   5.540
 5432POPC   PO468304  37.152  43.104   5.383
 5432POPC   GL168305  36.944  43.083   5.749
 5432POPC   GL268306  37.158  42.839   5.866
 5432POPC   C1A68307  36.969  43.158   6.199
 5432POPC   D2A68308  37.020  42.973   6.590
 5432POPC   C3A68309  36.712  43.182   6.822
 5432POPC   C4A68310  36.563  43.307   7.238
 5432POPC   C1B68311  37.462  42.813   6.231
 5432POPC   C2B68312  37.471  42.711   6.681
 5432POPC   C3B68313  37.366  43.005   6.994
 5432POPC   C4B68314  36.993  43.056   7.227
 5433POPC   NC368315   2.066   7.817   5.492
 5433POPC   PO468316   1.685   7.289   5.316
 5433POPC   GL168317   1.923   7.247   5.722
 5433POPC   GL268318   2.070   7.533   5.915
 5433POPC   C1A68319   1.821   7.117   6.173
 5433POPC   D2A68320   1.631   7.058   6.619
 5433POPC   C3A68321   1.862   7.154   7.012
 5433POPC   C4A68322   2.149   7.298   7.335
 5433POPC   C1B68323   1.747   7.602   6.258
 5433POPC   C2B68324   1.865   7.560   6.681
 5433POPC   C3B68325   1.896   7.707   7.100
 5433POPC   C4B68326   2.102   7.776   7.497
 5434POPC   NC368327  23.887  32.724   5.275
 5434POPC   PO468328  23.440  33.198   5.465
 5434POPC   GL168329  23.774  33.060   5.782
 5434POPC   GL268330  24.068  33.312   5.822
 5434POPC   C1A68331  23.693  32.845   6.220
 5434POPC   D2A68332  23.679  32.642   6.640
 5434POPC   C3A68333  23.626  32.867   7.020
 5434POPC   C4A68334  23.791  32.941   7.407
 5434POPC   C1B68335  23.997  33.243   6.215
 5434POPC   C2B68336  23.842  33.163   6.629
 5434POPC   C3B68337  24.063  33.171   6.996
 5434POPC   C4B68338  24.054  33.371   7.391
 5435POPC   NC368339   9.929  32.456   5.415
 5435POPC   PO468340  10.496  32.671   5.302
 5435POPC   GL168341  10.552  32.713   5.786
 5435POPC   GL268342  10.189  32.612   5.855
 5435POPC   C1A68343  10.673  32.983   6.215
 5435POPC   D2A68344  10.854  33.168   6.623
 5435POPC   C3A68345  10.602  33.104   7.007
 5435POPC   C4A68346  10.370  33.303   7.345
 5435POPC   C1B68347  10.408  32.548   6.252
 5435POPC   C2B68348  10.493  32.710   6.668
 5435POPC   C3B68349  10.410  32.599   7.088
 5435POPC   C4B68350  10.165  32.638   7.484
 5436POPC   NC368351   9.306   0.273   5.629
 5436POPC   PO468352   9.903   0.330   5.370
 5436POPC   GL168353   9.795   0.336   5.815
 5436POPC   GL268354  10.073   0.470   5.865
 5436POPC   C1A68355   9.646   0.333   6.283
 5436POPC   D2A68356   9.492   0.268   6.724
 5436POPC   C3A68357   9.655   0.318   7.117
 5436POPC   C4A68358   9.522   0.545   7.466
 5436POPC   C1B68359  10.161   0.321   6.250
 5436POPC   C2B68360  10.014   0.137   6.616
 5436POPC   C3B68361  10.147   0.144   7.032
 5436POPC   C4B68362   9.948  44.955   7.381
 5437POPC   NC368363  24.053   4.227   5.179
 5437POPC   PO468364  23.499   4.600   5.353
 5437POPC   GL168365  23.704   4.444   5.726
 5437POPC   GL268366  23.797   4.116   5.773
 5437POPC   C1A68367  23.548   4.335   6.146
 5437POPC   D2A68368  23.782   4.335   6.505
 5437POPC   C3A68369  23.739   4.508   6.869
 5437POPC   C4A68370  23.642   4.304   7.214
 5437POPC   C1B68371  23.920   3.926   6.172
 5437POPC   C2B68372  24.155   3.974   6.538
 5437POPC   C3B68373  23.878   3.978   6.886
 5437POPC   C4B68374  23.722   3.787   7.210
 5438POPC   NC368375  22.102   9.449   5.271
 5438POPC   PO468376  22.341  10.058   5.234
 5438POPC   GL168377  22.172   9.844   5.632
 5438POPC   GL268378  22.306   9.509   5.768
 5438POPC   C1A68379  22.181   9.885   6.094
 5438POPC   D2A68380  22.336   9.638   6.449
 5438POPC   C3A68381  22.242   9.837   6.843
 5438POPC   C4A68382  22.082   9.799   7.240
 5438POPC   C1B68383  21.881   9.460   5.999
 5438POPC   C2B68384  21.700   9.430   6.440
 5438POPC   C3B68385  21.845   9.476   6.877
 5438POPC   C4B68386  21.773   9.419   7.315
 5439POPC   NC368387  30.341   5.952   5.485
 5439POPC   PO468388  31.012   5.944   5.473
 5439POPC   GL168389  30.831   5.771   5.867
 5439POPC   GL268390  30.439   5.757   5.941
 5439POPC   C1A68391  30.818   5.995   6.240
 5439POPC   D2A68392  30.999   6.146   6.615
 5439POPC   C3A68393  31.063   5.816   6.907
 5439POPC   C4A68394  30.962   5.726   7.347
 5439POPC   C1B68395  30.292   6.033   6.288
 5439POPC   C2B68396  30.531   5.942   6.664
 5439POPC   C3B68397  30.544   5.813   7.090
 5439POPC   C4B68398  30.527   5.916   7.562
 5440POPC   NC368399   3.838  35.700   5.648
 5440POPC   PO468400   4.458  35.707   5.379
 5440POPC   GL168401   4.370  35.587   5.818
 5440POPC   GL268402   4.376  35.234   5.893
 5440POPC   C1A68403   4.195  35.556   6.273
 5440POPC   D2A68404   4.389  35.571   6.701
 5440POPC   C3A68405   4.173  35.425   7.098
 5440POPC   C4A68406   3.899  35.055   7.219
 5440POPC   C1B68407   4.557  35.203   6.325
 5440POPC   C2B68408   4.314  35.052   6.709
 5440POPC   C3B68409   4.429  34.942   7.138
 5440POPC   C4B68410   4.645  34.733   7.501
 5441POPC   NC368411  15.416  13.477   5.521
 5441POPC   PO468412  16.115  13.538   5.367
 5441POPC   GL168413  16.049  13.514   5.828
 5441POPC   GL268414  15.772  13.276   5.851
 5441POPC   C1A68415  16.125  13.690   6.262
 5441POPC   D2A68416  15.984  13.578   6.685
 5441POPC   C3A68417  16.189  13.697   7.056
 5441POPC   C4A68418  15.923  13.924   7.272
 5441POPC   C1B68419  15.770  13.298   6.291
 5441POPC   C2B68420  15.537  13.322   6.652
 5441POPC   C3B68421  15.688  13.389   7.058
 5441POPC   C4B68422  15.455  13.193   7.342
 5442POPC   NC368423   4.973  30.504   5.215
 5442POPC   PO468424   5.441  31.005   5.293
 5442POPC   GL168425   5.177  30.835   5.589
 5442POPC   GL268426   5.343  30.525   5.614
 5442POPC   C1A68427   5.043  30.811   6.027
 5442POPC   D2A68428   5.201  30.684   6.431
 5442POPC   C3A68429   5.029  30.873   6.787
 5442POPC   C4A68430   5.206  30.728   7.156
 5442POPC   C1B68431   5.320  30.317   6.024
 5442POPC   C2B68432   5.472  30.258   6.445
 5442POPC   C3B68433   5.224  30.273   6.831
 5442POPC   C4B68434   5.322  30.217   7.257
 5443POPC   NC368435  32.587  26.370   5.488
 5443POPC   PO468436  32.679  27.060   5.397
 5443POPC   GL168437  32.448  26.937   5.785
 5443POPC   GL268438  32.169  26.685   5.722
 5443POPC   C1A68439  32.422  27.094   6.260
 5443POPC   D2A68440  32.542  26.968   6.721
 5443POPC   C3A68441  32.287  27.077   7.106
 5443POPC   C4A68442  32.337  26.927   7.543
 5443POPC   C1B68443  32.216  26.617   6.202
 5443POPC   C2B68444  32.138  26.639   6.689
 5443POPC   C3B68445  32.172  26.581   7.166
 5443POPC   C4B68446  31.975  26.575   7.593
 5444POPC   NC368447  31.211  27.693   5.354
 5444POPC   PO468448  31.745  27.318   5.454
 5444POPC   GL168449  31.523  27.556   5.798
 5444POPC   GL268450  31.570  27.913   5.819
 5444POPC   C1A68451  31.488  27.507   6.282
 5444POPC   D2A68452  31.472  27.529   6.760
 5444POPC   C3A68453  31.592  27.175   7.036
 5444POPC   C4A68454  31.383  27.016   7.423
 5444POPC   C1B68455  31.177  27.848   6.093
 5444POPC   C2B68456  31.030  27.792   6.539
 5444POPC   C3B68457  31.101  27.794   6.999
 5444POPC   C4B68458  31.448  27.587   7.301
 5445POPC   NC368459  33.555  44.216   5.551
 5445POPC   PO468460  33.722  44.857   5.373
 5445POPC   GL168461  33.887  44.859   5.775
 5445POPC   GL268462  34.042   0.166   5.860
 5445POPC   C1A68463  33.829  44.603   6.167
 5445POPC   D2A68464  33.533  44.654   6.535
 5445POPC   C3A68465  33.525  44.410   6.927
 5445POPC   C4A68466  33.641  44.483   7.341
 5445POPC   C1B68467  34.181  44.971   6.230
 5445POPC   C2B68468  34.186  44.660   6.553
 5445POPC   C3B68469  33.973  44.667   6.933
 5445POPC   C4B68470  34.050   0.049   7.129
 5446POPC   NC368471  43.767  35.483   5.437
 5446POPC   PO468472  44.121  34.918   5.308
 5446POPC   GL168473  44.019  35.145   5.733
 5446POPC   GL268474  44.154  35.494   5.778
 5446POPC   C1A68475  43.726  35.286   6.087
 5446POPC   D2A68476  43.680  35.426   6.527
 5446POPC   C3A68477  43.510  35.547   6.928
 5446POPC   C4A68478  43.768  35.587   7.289
 5446POPC   C1B68479  44.171  35.506   6.228
 5446POPC   C2B68480  44.169  35.232   6.567
 5446POPC   C3B68481  44.091  35.423   6.921
 5446POPC   C4B68482  44.252  35.411   7.314
 5447POPC   NC368483  39.710  13.746   5.413
 5447POPC   PO468484  40.256  13.358   5.644
 5447POPC   GL168485  40.013  13.675   5.858
 5447POPC   GL268486  39.619  13.629   5.890
 5447POPC   C1A68487  40.169  13.628   6.259
 5447POPC   D2A68488  40.075  13.810   6.590
 5447POPC   C3A68489  40.255  13.666   6.939
 5447POPC   C4A68490  40.132  13.627   7.341
 5447POPC   C1B68491  39.664  13.677   6.280
 5447POPC   C2B68492  39.655  13.455   6.611
 5447POPC   C3B68493  39.752  13.636   6.966
 5447POPC   C4B68494  39.598  13.681   7.343
 5448POPC   NC368495   6.253  33.330   5.475
 5448POPC   PO468496   6.819  33.036   5.451
 5448POPC   GL168497   6.588  33.036   5.801
 5448POPC   GL268498   6.492  32.702   5.787
 5448POPC   C1A68499   6.618  33.216   6.198
 5448POPC   D2A68500   6.746  33.084   6.617
 5448POPC   C3A68501   6.546  33.316   6.932
 5448POPC   C4A68502   6.762  33.252   7.284
 5448POPC   C1B68503   6.682  32.707   6.219
 5448POPC   C2B68504   6.494  32.649   6.628
 5448POPC   C3B68505   6.549  32.800   7.061
 5448POPC   C4B68506   6.465  32.913   7.531
 5449POPC   NC368507  20.236  39.198   5.378
 5449POPC   PO468508  19.639  39.564   5.425
 5449POPC   GL168509  19.719  39.382   5.850
 5449POPC   GL268510  20.045  39.447   5.977
 5449POPC   C1A68511  19.558  39.248   6.292
 5449POPC   D2A68512  19.706  38.965   6.636
 5449POPC   C3A68513  19.533  39.074   7.045
 5449POPC   C4A68514  19.673  39.100   7.519
 5449POPC   C1B68515  19.947  38.974   6.086
 5449POPC   C2B68516  20.081  38.661   6.422
 5449POPC   C3B68517  20.247  38.840   6.803
 5449POPC   C4B68518  20.041  39.012   7.168
 5450POPC   NC368519   1.736  13.381   5.371
 5450POPC   PO468520   2.390  13.601   5.326
 5450POPC   GL168521   2.155  13.559   5.718
 5450POPC   GL268522   2.133  13.216   5.709
 5450POPC   C1A68523   2.124  13.685   6.190
 5450POPC   D2A68524   1.790  13.717   6.540
 5450POPC   C3A68525   1.910  13.830   6.966
 5450POPC   C4A68526   2.244  13.670   7.212
 5450POPC   C1B68527   1.811  13.298   6.039
 5450POPC   C2B68528   1.778  13.199   6.484
 5450POPC   C3B68529   1.745  13.330   6.930
 5450POPC   C4B68530   1.840  13.410   7.364
 5451POPC   NC368531  25.008  13.306   5.148
 5451POPC   PO468532  24.551  13.583   5.392
 5451POPC   GL168533  24.688  13.755   5.818
 5451POPC   GL268534  24.488  14.050   5.872
 5451POPC   C1A68535  24.660  13.629   6.290
 5451POPC   D2A68536  24.750  13.369   6.680
 5451POPC   C3A68537  24.661  13.588   7.018
 5451POPC   C4A68538  24.243  13.557   7.223
 5451POPC   C1B68539  24.673  14.160   6.295
 5451POPC   C2B68540  24.619  14.213   6.769
 5451POPC   C3B68541  24.400  14.028   7.114
 5451POPC   C4B68542  24.223  13.994   7.542
 5452POPC   NC368543   6.375   9.383   5.550
 5452POPC   PO468544   6.504  10.012   5.638
 5452POPC   GL168545   6.792   9.885   5.922
 5452POPC   GL268546   6.694   9.578   5.909
 5452POPC   C1A68547   6.914   9.864   6.343
 5452POPC   D2A68548   6.699   9.714   6.698
 5452POPC   C3A68549   6.768   9.868   7.118
 5452POPC   C4A68550   6.622  10.163   7.443
 5452POPC   C1B68551   6.767   9.381   6.274
 5452POPC   C2B68552   6.819   9.202   6.653
 5452POPC   C3B68553   6.714   9.349   7.042
 5452POPC   C4B68554   6.915   9.448   7.422
 5453POPC   NC368555  42.162  27.592   5.466
 5453POPC   PO468556  42.774  27.350   5.205
 5453POPC   GL168557  42.501  27.297   5.634
 5453POPC   GL268558  42.541  27.661   5.803
 5453POPC   C1A68559  42.210  27.294   6.038
 5453POPC   D2A68560  42.016  27.481   6.444
 5453POPC   C3A68561  42.245  27.572   6.845
 5453POPC   C4A68562  42.244  27.681   7.305
 5453POPC   C1B68563  42.579  27.570   6.230
 5453POPC   C2B68564  42.727  27.308   6.525
 5453POPC   C3B68565  42.739  27.495   6.888
 5453POPC   C4B68566  42.646  27.348   7.284
 5454POPC   NC368567   2.907  31.843   5.476
 5454POPC   PO468568   2.776  31.205   5.361
 5454POPC   GL168569   2.732  31.428   5.767
 5454POPC   GL268570   2.520  31.720   5.814
 5454POPC   C1A68571   2.962  31.458   6.163
 5454POPC   D2A68572   2.816  31.361   6.589
 5454POPC   C3A68573   3.039  31.265   6.935
 5454POPC   C4A68574   2.931  31.125   7.357
 5454POPC   C1B68575   2.480  31.598   6.255
 5454POPC   C2B68576   2.567  31.789   6.654
 5454POPC   C3B68577   2.609  31.584   7.066
 5454POPC   C4B68578   2.664  31.575   7.514
 5455POPC   NC368579  31.696  17.505   5.405
 5455POPC   PO468580  31.170  17.849   5.435
 5455POPC   GL168581  31.409  17.735   5.788
 5455POPC   GL268582  31.268  17.398   5.714
 5455POPC   C1A68583  31.424  17.609   6.245
 5455POPC   D2A68584  31.624  17.385   6.606
 5455POPC   C3A68585  31.675  17.649   6.977
 5455POPC   C4A68586  31.389  17.895   7.216
 5455POPC   C1B68587  31.393  17.122   6.046
 5455POPC   C2B68588  31.318  16.960   6.463
 5455POPC   C3B68589  31.318  17.059   6.886
 5455POPC   C4B68590  31.608  17.204   7.188
 5456POPC   NC368591   3.003   3.946   5.293
 5456POPC   PO468592   2.405   4.311   5.324
 5456POPC   GL168593   2.528   4.202   5.761
 5456POPC   GL268594   2.893   4.073   5.791
 5456POPC   C1A68595   2.532   4.391   6.200
 5456POPC   D2A68596   2.330   4.355   6.607
 5456POPC   C3A68597   2.577   4.468   6.975
 5456POPC   C4A68598   2.504   4.680   7.374
 5456POPC   C1B68599   3.081   3.866   6.171
 5456POPC   C2B68600   3.226   4.062   6.575
 5456POPC   C3B68601   3.187   4.190   7.017
 5456POPC   C4B68602   2.991   4.516   7.284
 5457POPC   NC368603  28.870  16.187   5.528
 5457POPC   PO468604  28.252  15.899   5.419
 5457POPC   GL168605  28.381  16.075   5.780
 5457POPC   GL268606  28.663  15.853   5.870
 5457POPC   C1A68607  28.253  15.941   6.175
 5457POPC   D2A68608  28.309  15.780   6.559
 5457POPC   C3A68609  28.534  15.873   6.910
 5457POPC   C4A68610  28.312  15.891   7.294
 5457POPC   C1B68611  28.738  16.114   6.238
 5457POPC   C2B68612  28.704  16.320   6.645
 5457POPC   C3B68613  28.772  16.433   7.080
 5457POPC   C4B68614  28.556  16.333   7.488
 5458POPC   NC368615  30.022   6.565   5.136
 5458POPC   PO468616  29.907   7.162   5.278
 5458POPC   GL168617  29.829   6.666   5.584
 5458POPC   GL268618  29.592   6.486   5.800
 5458POPC   C1A68619  30.088   6.528   5.995
 5458POPC   D2A68620  30.236   6.823   6.338
 5458POPC   C3A68621  30.190   6.811   6.809
 5458POPC   C4A68622  29.846   6.966   7.074
 5458POPC   C1B68623  29.675   6.649   6.251
 5458POPC   C2B68624  29.705   6.438   6.660
 5458POPC   C3B68625  29.732   6.363   7.109
 5458POPC   C4B68626  29.407   6.286   7.392
 5459POPC   NC368627  20.206   1.201   5.527
 5459POPC   PO468628  20.824   1.374   5.327
 5459POPC   GL168629  20.693   1.149   5.717
 5459POPC   GL268630  20.692   1.468   5.858
 5459POPC   C1A68631  20.839   1.065   6.145
 5459POPC   D2A68632  20.718   1.243   6.564
 5459POPC   C3A68633  20.897   1.143   6.980
 5459POPC   C4A68634  20.795   1.273   7.403
 5459POPC   C1B68635  20.372   1.311   6.167
 5459POPC   C2B68636  20.205   1.022   6.494
 5459POPC   C3B68637  20.343   1.095   6.925
 5459POPC   C4B68638  20.292   1.218   7.328
 5460POPC   NC368639  10.275   5.340   5.442
 5460POPC   PO468640   9.693   5.019   5.389
 5460POPC   GL168641   9.942   5.036   5.775
 5460POPC   GL268642   9.907   5.400   5.790
 5460POPC   C1A68643   9.897   5.074   6.264
 5460POPC   D2A68644  10.113   4.922   6.669
 5460POPC   C3A68645   9.833   4.915   7.046
 5460POPC   C4A68646   9.533   5.236   7.133
 5460POPC   C1B68647  10.227   5.426   6.117
 5460POPC   C2B68648  10.261   5.438   6.587
 5460POPC   C3B68649   9.989   5.409   6.982
 5460POPC   C4B68650   9.928   5.291   7.454
 5461POPC   NC368651   7.835  37.424   5.523
 5461POPC   PO468652   7.319  37.987   5.491
 5461POPC   GL168653   7.252  37.739   5.804
 5461POPC   GL268654   7.588  37.717   5.880
 5461POPC   C1A68655   7.159  37.527   6.173
 5461POPC   D2A68656   7.178  37.565   6.610
 5461POPC   C3A68657   7.451  37.379   6.949
 5461POPC   C4A68658   7.791  37.562   7.191
 5461POPC   C1B68659   7.464  37.916   6.284
 5461POPC   C2B68660   7.607  37.827   6.707
 5461POPC   C3B68661   7.520  37.992   7.102
 5461POPC   C4B68662   7.776  38.312   7.293
 5462POPC   NC368663  43.683  36.478   5.498
 5462POPC   PO468664  43.969  35.917   5.450
 5462POPC   GL168665  43.831  36.077   5.832
 5462POPC   GL268666  44.025  36.375   5.862
 5462POPC   C1A68667  43.781  35.855   6.244
 5462POPC   D2A68668  43.945  35.851   6.674
 5462POPC   C3A68669  43.786  36.048   7.046
 5462POPC   C4A68670  43.564  36.059   7.429
 5462POPC   C1B68671  44.027  36.300   6.263
 5462POPC   C2B68672  43.814  36.354   6.623
 5462POPC   C3B68673  44.063  36.479   6.928
 5462POPC   C4B68674  44.358  36.297   7.184
 5463POPC   NC368675  42.695   5.898   5.312
 5463POPC   PO468676  42.087   5.907   5.412
 5463POPC   GL168677  42.378   5.758   5.725
 5463POPC   GL268678  42.518   6.079   5.777
 5463POPC   C1A68679  42.294   5.672   6.170
 5463POPC   D2A68680  41.991   5.610   6.511
 5463POPC   C3A68681  42.219   5.550   6.856
 5463POPC   C4A68682  42.268   5.606   7.264
 5463POPC   C1B68683  42.677   6.035   6.189
 5463POPC   C2B68684  42.449   5.991   6.579
 5463POPC   C3B68685  42.555   5.948   7.003
 5463POPC   C4B68686  42.684   5.949   7.424
 5464POPC   NC368687  18.547   6.364   5.440
 5464POPC   PO468688  18.304   6.966   5.292
 5464POPC   GL168689  18.376   6.836   5.766
 5464POPC   GL268690  18.317   6.452   5.882
 5464POPC   C1A68691  18.228   6.788   6.236
 5464POPC   D2A68692  18.491   6.517   6.517
 5464POPC   C3A68693  18.391   6.541   6.952
 5464POPC   C4A68694  18.052   6.814   7.145
 5464POPC   C1B68695  17.985   6.351   6.234
 5464POPC   C2B68696  17.896   6.561   6.605
 5464POPC   C3B68697  17.926   6.339   6.948
 5464POPC   C4B68698  17.913   6.334   7.339
 5465POPC   NC368699  37.078  34.321   5.314
 5465POPC   PO468700  36.638  34.805   5.339
 5465POPC   GL168701  36.782  34.603   5.725
 5465POPC   GL268702  37.054  34.358   5.806
 5465POPC   C1A68703  36.640  34.395   6.097
 5465POPC   D2A68704  36.792  34.462   6.496
 5465POPC   C3A68705  36.569  34.293   6.830
 5465POPC   C4A68706  36.586  34.473   7.198
 5465POPC   C1B68707  37.186  34.518   6.162
 5465POPC   C2B68708  37.442  34.522   6.495
 5465POPC   C3B68709  37.214  34.451   6.814
 5465POPC   C4B68710  37.064  34.619   7.159
 5466POPC   NC368711  40.241  14.614   5.378
 5466POPC   PO468712  39.851  14.162   5.260
 5466POPC   GL168713  39.939  14.344   5.701
 5466POPC   GL268714  39.704  14.109   5.797
 5466POPC   C1A68715  40.224  14.515   6.083
 5466POPC   D2A68716  40.484  14.612   6.505
 5466POPC   C3A68717  40.386  14.527   6.934
 5466POPC   C4A68718  40.021  14.604   7.200
 5466POPC   C1B68719  39.945  14.098   6.168
 5466POPC   C2B68720  40.056  14.329   6.547
 5466POPC   C3B68721  40.044  14.146   6.958
 5466POPC   C4B68722  40.418  14.070   7.168
 5467POPC   NC368723   0.311  28.546   5.520
 5467POPC   PO468724   0.830  28.124   5.372
 5467POPC   GL168725   0.618  28.218   5.756
 5467POPC   GL268726   0.262  28.093   5.799
 5467POPC   C1A68727   0.556  28.479   6.136
 5467POPC   D2A68728   0.722  28.734   6.487
 5467POPC   C3A68729   0.596  28.524   6.869
 5467POPC   C4A68730   0.414  28.615   7.261
 5467POPC   C1B68731   0.045  28.091   6.190
 5467POPC   C2B68732   0.019  28.286   6.602
 5467POPC   C3B68733   0.161  28.227   7.030
 5467POPC   C4B68734   0.204  28.227   7.497
 5468POPC   NC368735  29.389  34.131   5.445
 5468POPC   PO468736  28.916  33.718   5.136
 5468POPC   GL168737  29.005  33.793   5.639
 5468POPC   GL268738  29.331  33.879   5.872
 5468POPC   C1A68739  28.944  33.781   6.139
 5468POPC   D2A68740  29.290  33.893   6.488
 5468POPC   C3A68741  29.092  33.840   6.912
 5468POPC   C4A68742  28.750  33.550   7.056
 5468POPC   C1B68743  29.580  34.153   6.138
 5468POPC   C2B68744  29.642  34.326   6.550
 5468POPC   C3B68745  29.532  34.187   6.964
 5468POPC   C4B68746  29.375  33.995   7.338
 5469POPC   NC368747  24.798  32.320   5.351
 5469POPC   PO468748  24.449  31.838   5.571
 5469POPC   GL168749  24.616  32.160   5.797
 5469POPC   GL268750  24.345  32.374   5.708
 5469POPC   C1A68751  24.710  32.513   6.063
 5469POPC   D2A68752  24.805  32.647   6.472
 5469POPC   C3A68753  24.591  32.372   6.788
 5469POPC   C4A68754  24.628  32.156   7.188
 5469POPC   C1B68755  24.243  32.240   6.143
 5469POPC   C2B68756  24.135  32.437   6.534
 5469POPC   C3B68757  24.101  32.658   6.933
 5469POPC   C4B68758  24.242  32.688   7.369
 5470POPC   NC368759   0.706  20.538   5.378
 5470POPC   PO468760   0.252  20.903   5.501
 5470POPC   GL168761   0.259  20.553   5.773
 5470POPC   GL268762   0.595  20.544   5.878
 5470POPC   C1A68763   0.192  20.439   6.232
 5470POPC   D2A68764  44.936  20.603   6.570
 5470POPC   C3A68765   0.078  20.437   6.948
 5470POPC   C4A68766   0.311  20.428   7.304
 5470POPC   C1B68767   0.422  20.880   6.149
 5470POPC   C2B68768   0.439  20.743   6.583
 5470POPC   C3B68769   0.649  20.577   6.944
 5470POPC   C4B68770   0.660  20.808   7.312
 5471POPC   NC368771  34.170  38.614   4.998
 5471POPC   PO468772  33.763  38.146   5.417
 5471POPC   GL168773  33.699  38.346   5.791
 5471POPC   GL268774  33.680  38.676   5.645
 5471POPC   C1A68775  33.649  38.281   6.215
 5471POPC   D2A68776  33.997  38.469   6.436
 5471POPC   C3A68777  33.892  38.459   6.863
 5471POPC   C4A68778  33.929  38.111   7.148
 5471POPC   C1B68779  33.640  38.773   6.081
 5471POPC   C2B68780  33.552  38.702   6.522
 5471POPC   C3B68781  33.530  38.798   6.972
 5471POPC   C4B68782  33.671  38.504   7.331
 5472POPC   NC368783  42.695  26.826   5.454
 5472POPC   PO468784  42.135  27.191   5.210
 5472POPC   GL168785  42.224  26.881   5.645
 5472POPC   GL268786  42.039  26.573   5.728
 5472POPC   C1A68787  42.470  26.866   6.081
 5472POPC   D2A68788  42.289  27.042   6.474
 5472POPC   C3A68789  42.410  27.079   6.889
 5472POPC   C4A68790  42.159  27.177   7.236
 5472POPC   C1B68791  42.227  26.424   6.125
 5472POPC   C2B68792  42.452  26.373   6.506
 5472POPC   C3B68793  42.277  26.471   6.884
 5472POPC   C4B68794  42.434  26.695   7.223
 5473POPC   NC368795  36.121  44.159   5.351
 5473POPC   PO468796  36.220  43.500   5.272
 5473POPC   GL168797  36.100  43.768   5.675
 5473POPC   GL268798  36.042  44.126   5.844
 5473POPC   C1A68799  35.953  43.719   6.128
 5473POPC   D2A68800  36.161  43.879   6.506
 5473POPC   C3A68801  35.958  43.842   6.908
 5473POPC   C4A68802  36.047  44.007   7.311
 5473POPC   C1B68803  36.330  44.292   6.157
 5473POPC   C2B68804  36.164  44.387   6.554
 5473POPC   C3B68805  36.315  44.245   6.948
 5473POPC   C4B68806  36.471  44.290   7.371
 5474POPC   NC368807  33.873   0.291   5.410
 5474POPC   PO468808  33.693   0.877   5.475
 5474POPC   GL168809  33.623   0.529   5.776
 5474POPC   GL268810  33.459   0.182   5.698
 5474POPC   C1A68811  33.775   0.505   6.191
 5474POPC   D2A68812  33.653   0.699   6.555
 5474POPC   C3A68813  33.707   0.476   6.930
 5474POPC   C4A68814  33.809   0.450   7.333
 5474POPC   C1B68815  33.563   0.051   6.117
 5474POPC   C2B68816  33.697   0.129   6.552
 5474POPC   C3B68817  33.550  44.972   6.962
 5474POPC   C4B68818  33.580  44.991   7.397
 5475POPC   NC368819  19.739  38.096   5.295
 5475POPC   PO468820  19.896  38.789   5.411
 5475POPC   GL168821  19.937  38.443   5.724
 5475POPC   GL268822  20.212  38.573   5.933
 5475POPC   C1A68823  19.762  38.351   6.132
 5475POPC   D2A68824  19.638  38.418   6.571
 5475POPC   C3A68825  19.732  38.332   7.000
 5475POPC   C4A68826  19.689  38.644   7.269
 5475POPC   C1B68827  20.241  38.202   6.164
 5475POPC   C2B68828  20.123  38.166   6.577
 5475POPC   C3B68829  20.242  38.335   6.939
 5475POPC   C4B68830  20.121  38.300   7.326
 5476POPC   NC368831  16.952  23.060   5.553
 5476POPC   PO468832  16.605  22.574   5.275
 5476POPC   GL168833  16.779  22.657   5.780
 5476POPC   GL268834  17.048  22.823   5.993
 5476POPC   C1A68835  16.592  22.857   6.200
 5476POPC   D2A68836  16.790  23.041   6.572
 5476POPC   C3A68837  16.595  23.104   7.001
 5476POPC   C4A68838  16.552  23.214   7.442
 5476POPC   C1B68839  17.240  22.585   6.307
 5476POPC   C2B68840  17.055  22.512   6.697
 5476POPC   C3B68841  17.030  22.846   6.982
 5476POPC   C4B68842  17.075  23.162   7.304
 5477POPC   NC368843   4.103   1.646   5.472
 5477POPC   PO468844   4.571   1.973   5.236
 5477POPC   GL168845   4.402   2.042   5.690
 5477POPC   GL268846   4.536   2.379   5.729
 5477POPC   C1A68847   4.211   1.864   6.124
 5477POPC   D2A68848   4.363   1.623   6.509
 5477POPC   C3A68849   4.421   1.832   6.940
 5477POPC   C4A68850   4.387   2.262   7.120
 5477POPC   C1B68851   4.489   2.282   6.163
 5477POPC   C2B68852   4.532   2.199   6.597
 5477POPC   C3B68853   4.878   2.201   6.897
 5477POPC   C4B68854   4.857   2.389   7.290
 5478POPC   NC368855  41.079  43.484   5.574
 5478POPC   PO468856  40.627  43.936   5.330
 5478POPC   GL168857  40.624  44.003   5.775
 5478POPC   GL268858  40.648  43.665   5.812
 5478POPC   C1A68859  40.496  44.001   6.207
 5478POPC   D2A68860  40.774  44.023   6.536
 5478POPC   C3A68861  40.577  44.031   6.895
 5478POPC   C4A68862  40.685  44.130   7.307
 5478POPC   C1B68863  40.767  43.552   6.215
 5478POPC   C2B68864  40.931  43.536   6.632
 5478POPC   C3B68865  40.827  43.615   7.070
 5478POPC   C4B68866  40.940  43.718   7.484
 5479POPC   NC368867  29.607   1.108   5.159
 5479POPC   PO468868  30.233   1.320   5.189
 5479POPC   GL168869  29.984   1.306   5.557
 5479POPC   GL268870  30.246   1.439   5.756
 5479POPC   C1A68871  29.752   1.321   5.973
 5479POPC   D2A68872  29.576   1.279   6.420
 5479POPC   C3A68873  29.803   1.402   6.807
 5479POPC   C4A68874  29.711   1.231   7.225
 5479POPC   C1B68875  30.237   1.092   6.028
 5479POPC   C2B68876  30.303   1.068   6.457
 5479POPC   C3B68877  30.279   1.162   6.881
 5479POPC   C4B68878  30.204   1.275   7.279
 5480POPC   NC368879   8.703  14.771   5.226
 5480POPC   PO468880   8.551  15.358   5.573
 5480POPC   GL168881   8.823  15.099   5.798
 5480POPC   GL268882   8.755  14.760   5.750
 5480POPC   C1A68883   8.959  15.119   6.235
 5480POPC   D2A68884   8.869  15.296   6.636
 5480POPC   C3A68885   9.090  15.148   6.975
 5480POPC   C4A68886   9.261  15.217   7.379
 5480POPC   C1B68887   8.812  14.624   6.183
 5480POPC   C2B68888   8.742  14.780   6.594
 5480POPC   C3B68889   8.717  14.779   7.039
 5480POPC   C4B68890   9.057  14.756   7.318
 5481POPC   NC368891  26.348  38.914   5.480
 5481POPC   PO468892  25.656  38.975   5.353
 5481POPC   GL168893  25.948  39.254   5.670
 5481POPC   GL268894  26.282  39.379   5.773
 5481POPC   C1A68895  25.893  39.408   6.104
 5481POPC   D2A68896  25.822  39.513   6.524
 5481POPC   C3A68897  25.823  39.249   6.865
 5481POPC   C4A68898  26.082  39.347   7.205
 5481POPC   C1B68899  26.408  39.336   6.213
 5481POPC   C2B68900  26.278  39.203   6.620
 5481POPC   C3B68901  26.354  38.940   6.985
 5481POPC   C4B68902  26.169  38.895   7.375
 5482POPC   NC368903  39.224  31.887   5.538
 5482POPC   PO468904  39.376  31.242   5.295
 5482POPC   GL168905  39.281  31.354   5.710
 5482POPC   GL268906  39.558  31.584   5.823
 5482POPC   C1A68907  39.270  31.208   6.132
 5482POPC   D2A68908  39.442  31.305   6.537
 5482POPC   C3A68909  39.267  31.257   6.963
 5482POPC   C4A68910  39.166  31.617   7.189
 5482POPC   C1B68911  39.300  31.705   6.206
 5482POPC   C2B68912  39.189  31.757   6.646
 5482POPC   C3B68913  39.443  31.948   6.926
 5482POPC   C4B68914  39.350  32.123   7.300
 5483POPC   NC368915  11.388  22.413   5.503
 5483POPC   PO468916  11.161  21.822   5.301
 5483POPC   GL168917  11.236  21.972   5.716
 5483POPC   GL268918  11.582  22.023   5.784
 5483POPC   C1A68919  11.130  22.027   6.181
 5483POPC   D2A68920  11.094  21.719   6.575
 5483POPC   C3A68921  10.993  21.914   6.997
 5483POPC   C4A68922  11.191  22.309   7.144
 5483POPC   C1B68923  11.746  21.842   6.142
 5483POPC   C2B68924  11.673  21.715   6.578
 5483POPC   C3B68925  11.490  21.772   6.973
 5483POPC   C4B68926  11.252  21.589   7.283
 5484POPC   NC368927  14.385  25.678   5.303
 5484POPC   PO468928  14.835  26.210   5.332
 5484POPC   GL168929  14.617  25.959   5.706
 5484POPC   GL268930  14.259  26.000   5.751
 5484POPC   C1A68931  14.504  26.065   6.182
 5484POPC   D2A68932  14.731  26.079   6.568
 5484POPC   C3A68933  14.517  26.036   6.932
 5484POPC   C4A68934  14.432  26.317   7.285
 5484POPC   C1B68935  14.085  25.787   6.130
 5484POPC   C2B68936  14.099  25.989   6.538
 5484POPC   C3B68937  14.033  26.157   6.948
 5484POPC   C4B68938  14.129  25.908   7.344
 5485POPC   NC368939   6.303  38.725   5.539
 5485POPC   PO468940   6.764  38.253   5.318
 5485POPC   GL168941   6.687  38.198   5.758
 5485POPC   GL268942   6.790  38.531   5.820
 5485POPC   C1A68943   6.470  38.318   6.163
 5485POPC   D2A68944   6.648  38.368   6.552
 5485POPC   C3A68945   6.485  38.553   6.907
 5485POPC   C4A68946   6.612  38.418   7.289
 5485POPC   C1B68947   6.984  38.595   6.238
 5485POPC   C2B68948   7.087  38.602   6.701
 5485POPC   C3B68949   6.929  38.784   7.112
 5485POPC   C4B68950   6.981  38.612   7.561
 5486POPC   NC368951  43.977   6.972   5.570
 5486POPC   PO468952  43.832   6.341   5.379
 5486POPC   GL168953  43.865   6.511   5.813
 5486POPC   GL268954  43.665   6.778   5.905
 5486POPC   C1A68955  44.052   6.391   6.203
 5486POPC   D2A68956  44.266   6.396   6.602
 5486POPC   C3A68957  43.997   6.423   6.954
 5486POPC   C4A68958  44.026   6.567   7.397
 5486POPC   C1B68959  43.826   6.852   6.294
 5486POPC   C2B68960  43.737   6.775   6.705
 5486POPC   C3B68961  43.873   6.931   7.069
 5486POPC   C4B68962  43.738   7.010   7.499
 5487POPC   NC368963  13.156   3.633   5.172
 5487POPC   PO468964  12.587   3.287   5.175
 5487POPC   GL168965  12.895   3.263   5.560
 5487POPC   GL268966  13.072   3.591   5.678
 5487POPC   C1A68967  12.963   3.225   6.043
 5487POPC   D2A68968  12.767   3.327   6.465
 5487POPC   C3A68969  12.875   3.215   6.917
 5487POPC   C4A68970  12.886   3.455   7.352
 5487POPC   C1B68971  13.087   3.724   6.125
 5487POPC   C2B68972  13.173   3.625   6.563
 5487POPC   C3B68973  12.890   3.740   6.914
 5487POPC   C4B68974  12.748   3.999   7.274
 5488POPC   NC368975  16.298   8.148   5.595
 5488POPC   PO468976  15.622   8.232   5.598
 5488POPC   GL168977  15.941   8.275   5.953
 5488POPC   GL268978  16.271   8.482   5.996
 5488POPC   C1A68979  15.959   8.167   6.388
 5488POPC   D2A68980  15.856   7.868   6.700
 5488POPC   C3A68981  15.788   8.089   7.082
 5488POPC   C4A68982  15.945   8.527   7.145
 5488POPC   C1B68983  16.455   8.131   6.264
 5488POPC   C2B68984  16.581   8.109   6.698
 5488POPC   C3B68985  16.292   8.124   7.063
 5488POPC   C4B68986  16.108   7.877   7.420
 5489POPC   NC368987  16.348  20.655   5.548
 5489POPC   PO468988  15.781  21.152   5.579
 5489POPC   GL168989  15.874  20.715   5.797
 5489POPC   GL268990  15.614  20.440   5.740
 5489POPC   C1A68991  16.134  20.511   6.166
 5489POPC   D2A68992  16.279  20.295   6.558
 5489POPC   C3A68993  16.198  20.478   6.956
 5489POPC   C4A68994  15.931  20.624   7.268
 5489POPC   C1B68995  15.686  20.274   6.172
 5489POPC   C2B68996  15.757  20.397   6.603
 5489POPC   C3B68997  15.704  20.224   7.011
 5489POPC   C4B68998  15.446  20.447   7.303
 5490POPC   NC368999  34.242  39.779   5.055
 5490POPC   PO469000  34.760  40.058   5.452
 5490POPC   GL169001  34.630  40.051   5.865
 5490POPC   GL269002  34.383  39.812   5.781
 5490POPC   C1A69003  34.435  40.026   6.277
 5490POPC   D2A69004  34.237  39.903   6.669
 5490POPC   C3A69005  34.383  40.109   7.031
 5490POPC   C4A69006  34.741  40.028   7.275
 5490POPC   C1B69007  34.704  39.612   6.080
 5490POPC   C2B69008  34.557  39.553   6.497
 5490POPC   C3B69009  34.589  39.638   6.936
 5490POPC   C4B69010  34.783  39.529   7.306
 5491POPC   NC369011  34.411  19.811   5.543
 5491POPC   PO469012  34.982  19.486   5.533
 5491POPC   GL169013  34.899  19.702   5.943
 5491POPC   GL269014  34.528  19.738   6.014
 5491POPC   C1A69015  34.803  20.048   6.279
 5491POPC   D2A69016  34.440  20.033   6.562
 5491POPC   C3A69017  34.591  20.011   6.995
 5491POPC   C4A69018  34.827  20.076   7.374
 5491POPC   C1B69019  34.212  19.576   6.272
 5491POPC   C2B69020  34.055  19.695   6.645
 5491POPC   C3B69021  34.196  19.676   7.039
 5491POPC   C4B69022  34.384  19.386   7.325
 5492POPC   NC369023  18.822  38.127   5.415
 5492POPC   PO469024  19.043  37.536   5.450
 5492POPC   GL169025  18.996  37.742   5.802
 5492POPC   GL269026  19.118  37.416   5.929
 5492POPC   C1A69027  19.128  37.923   6.165
 5492POPC   D2A69028  19.349  37.797   6.518
 5492POPC   C3A69029  19.262  37.903   6.943
 5492POPC   C4A69030  18.875  37.952   7.182
 5492POPC   C1B69031  19.237  37.359   6.314
 5492POPC   C2B69032  19.110  37.263   6.701
 5492POPC   C3B69033  19.157  37.428   7.129
 5492POPC   C4B69034  19.282  37.393   7.593
 5493POPC   NC369035  39.001  23.406   5.520
 5493POPC   PO469036  38.771  22.806   5.466
 5493POPC   GL169037  39.149  22.906   5.740
 5493POPC   GL269038  39.405  23.219   5.759
 5493POPC   C1A69039  39.328  22.874   6.155
 5493POPC   D2A69040  39.246  22.744   6.567
 5493POPC   C3A69041  39.448  22.555   6.909
 5493POPC   C4A69042  39.404  22.731   7.302
 5493POPC   C1B69043  39.482  23.364   6.178
 5493POPC   C2B69044  39.583  23.128   6.578
 5493POPC   C3B69045  39.339  23.114   6.973
 5493POPC   C4B69046  39.431  23.236   7.430
 5494POPC   NC369047  29.570  43.464   5.407
 5494POPC   PO469048  29.901  42.957   5.473
 5494POPC   GL169049  29.583  43.019   5.838
 5494POPC   GL269050  29.508  43.342   5.890
 5494POPC   C1A69051  29.496  43.081   6.331
 5494POPC   D2A69052  29.757  43.262   6.686
 5494POPC   C3A69053  29.848  43.042   7.065
 5494POPC   C4A69054  30.112  42.800   7.359
 5494POPC   C1B69055  29.703  43.566   6.244
 5494POPC   C2B69056  29.765  43.780   6.677
 5494POPC   C3B69057  29.793  43.600   7.112
 5494POPC   C4B69058  30.033  43.447   7.456
 5495POPC   NC369059  19.407   1.534   5.550
 5495POPC   PO469060  19.506   1.006   5.105
 5495POPC   GL169061  19.285   1.010   5.623
 5495POPC   GL269062  19.005   1.278   5.731
 5495POPC   C1A69063  19.297   1.114   6.140
 5495POPC   D2A69064  19.204   1.029   6.621
 5495POPC   C3A69065  19.292   1.168   7.082
 5495POPC   C4A69066  19.123   0.920   7.435
 5495POPC   C1B69067  18.904   1.482   6.142
 5495POPC   C2B69068  19.052   1.549   6.566
 5495POPC   C3B69069  18.852   1.666   6.961
 5495POPC   C4B69070  18.651   1.479   7.311
 5496POPC   NC369071  39.885  15.471   5.691
 5496POPC   PO469072  39.727  14.850   5.481
 5496POPC   GL169073  39.983  14.977   5.883
 5496POPC   GL269074  40.163  15.301   6.060
 5496POPC   C1A69075  40.008  14.892   6.335
 5496POPC   D2A69076  40.022  14.822   6.751
 5496POPC   C3A69077  40.026  15.141   7.087
 5496POPC   C4A69078  39.804  15.053   7.476
 5496POPC   C1B69079  39.790  15.352   6.336
 5496POPC   C2B69080  39.705  15.429   6.770
 5496POPC   C3B69081  39.588  15.431   7.199
 5496POPC   C4B69082  39.721  15.631   7.601
 5497POPC   NC369083  40.617  37.529   5.363
 5497POPC   PO469084  40.607  36.893   5.349
 5497POPC   GL169085  40.703  37.013   5.781
 5497POPC   GL269086  40.478  37.333   5.817
 5497POPC   C1A69087  40.810  36.813   6.224
 5497POPC   D2A69088  40.646  36.708   6.662
 5497POPC   C3A69089  40.735  36.878   7.058
 5497POPC   C4A69090  40.760  36.687   7.433
 5497POPC   C1B69091  40.773  37.334   6.160
 5497POPC   C2B69092  40.784  37.193   6.568
 5497POPC   C3B69093  40.995  37.284   6.930
 5497POPC   C4B69094  40.672  37.362   7.262
 5498POPC   NC369095  33.890  30.431   5.551
 5498POPC   PO469096  33.588  30.940   5.211
 5498POPC   GL169097  33.848  30.941   5.642
 5498POPC   GL269098  33.629  31.108   5.859
 5498POPC   C1A69099  33.896  30.783   6.116
 5498POPC   D2A69100  34.007  31.022   6.501
 5498POPC   C3A69101  33.839  30.849   6.904
 5498POPC   C4A69102  33.873  30.503   7.188
 5498POPC   C1B69103  33.401  30.984   6.229
 5498POPC   C2B69104  33.367  30.696   6.564
 5498POPC   C3B69105  33.386  30.521   6.965
 5498POPC   C4B69106  33.444  30.760   7.319
 5499POPC   NC369107   9.662  41.636   5.292
 5499POPC   PO469108  10.178  41.217   5.354
 5499POPC   GL169109   9.947  41.523   5.700
 5499POPC   GL269110   9.595  41.442   5.797
 5499POPC   C1A69111   9.806  41.869   6.012
 5499POPC   D2A69112   9.661  41.877   6.488
 5499POPC   C3A69113   9.830  41.796   6.953
 5499POPC   C4A69114  10.163  41.853   7.280
 5499POPC   C1B69115   9.752  41.433   6.246
 5499POPC   C2B69116   9.879  41.369   6.670
 5499POPC   C3B69117   9.628  41.326   7.015
 5499POPC   C4B69118   9.248  41.330   7.134
 5500POPC   NC369119   1.358  22.906   5.561
 5500POPC   PO469120   0.732  22.752   5.560
 5500POPC   GL169121   0.992  22.752   5.949
 5500POPC   GL269122   1.360  22.791   6.060
 5500POPC   C1A69123   0.995  23.075   6.276
 5500POPC   D2A69124   1.225  23.195   6.655
 5500POPC   C3A69125   1.048  22.941   6.992
 5500POPC   C4A69126   0.825  23.096   7.336
 5500POPC   C1B69127   1.501  23.221   6.179
 5500POPC   C2B69128   1.717  23.402   6.514
 5500POPC   C3B69129   1.630  23.406   6.915
 5500POPC   C4B69130   1.482  23.139   7.189
 5501POPC   NC369131   9.203  21.243   5.458
 5501POPC   PO469132   8.622  21.657   5.335
 5501POPC   GL169133   8.759  21.395   5.704
 5501POPC   GL269134   9.073  21.494   5.881
 5501POPC   C1A69135   8.767  21.165   6.129
 5501POPC   D2A69136   8.934  21.336   6.522
 5501POPC   C3A69137   8.802  21.220   6.940
 5501POPC   C4A69138   9.028  21.288   7.270
 5501POPC   C1B69139   8.767  21.694   6.188
 5501POPC   C2B69140   8.694  21.767   6.653
 5501POPC   C3B69141   8.836  21.819   7.106
 5501POPC   C4B69142   8.881  22.067   7.506
 5502POPC   NC369143  18.811  17.304   5.281
 5502POPC   PO469144  19.217  17.807   5.422
 5502POPC   GL169145  19.054  17.677   5.829
 5502POPC   GL269146  18.938  17.324   5.813
 5502POPC   C1A69147  19.025  17.580   6.293
 5502POPC   D2A69148  19.125  17.526   6.761
 5502POPC   C3A69149  19.096  17.744   7.214
 5502POPC   C4A69150  18.884  17.903   7.643
 5502POPC   C1B69151  18.666  17.225   6.189
 5502POPC   C2B69152  18.643  17.355   6.625
 5502POPC   C3B69153  18.651  17.572   7.031
 5502POPC   C4B69154  18.551  17.535   7.482
 5503POPC   NC369155  27.336  23.245   5.181
 5503POPC   PO469156  27.677  22.745   5.502
 5503POPC   GL169157  27.487  22.872   5.827
 5503POPC   GL269158  27.178  22.698   5.762
 5503POPC   C1A69159  27.641  23.075   6.181
 5503POPC   D2A69160  27.882  22.999   6.530
 5503POPC   C3A69161  27.718  23.077   6.879
 5503POPC   C4A69162  27.571  23.176   7.229
 5503POPC   C1B69163  27.166  22.794   6.218
 5503POPC   C2B69164  27.259  23.096   6.519
 5503POPC   C3B69165  27.231  22.949   6.895
 5503POPC   C4B69166  27.068  23.148   7.196
 5504POPC   NC369167  11.317  38.958   5.450
 5504POPC   PO469168  11.260  38.238   5.492
 5504POPC   GL169169  11.375  38.573   5.806
 5504POPC   GL269170  11.097  38.728   6.011
 5504POPC   C1A69171  11.547  38.455   6.220
 5504POPC   D2A69172  11.411  38.054   6.467
 5504POPC   C3A69173  11.139  38.086   6.834
 5504POPC   C4A69174  11.382  38.202   7.185
 5504POPC   C1B69175  11.105  38.549   6.434
 5504POPC   C2B69176  11.428  38.531   6.743
 5504POPC   C3B69177  11.342  38.708   7.131
 5504POPC   C4B69178  10.922  38.847   7.227
 5505POPC   NC369179  12.075   2.374   5.481
 5505POPC   PO469180  11.815   1.697   5.357
 5505POPC   GL169181  11.858   1.960   5.710
 5505POPC   GL269182  12.235   1.990   5.788
 5505POPC   C1A69183  11.882   1.866   6.138
 5505POPC   D2A69184  12.119   1.813   6.493
 5505POPC   C3A69185  11.863   1.919   6.826
 5505POPC   C4A69186  12.006   1.951   7.263
 5505POPC   C1B69187  12.489   2.066   6.169
 5505POPC   C2B69188  12.522   2.310   6.559
 5505POPC   C3B69189  12.305   2.176   6.907
 5505POPC   C4B69190  12.442   1.762   7.093
 5506POPC   NC369191  24.335  36.406   5.540
 5506POPC   PO469192  24.832  35.987   5.471
 5506POPC   GL169193  24.559  35.951   5.847
 5506POPC   GL269194  24.259  36.127   5.943
 5506POPC   C1A69195  24.493  35.853   6.295
 5506POPC   D2A69196  24.458  36.062   6.675
 5506POPC   C3A69197  24.281  35.864   7.002
 5506POPC   C4A69198  24.517  35.973   7.283
 5506POPC   C1B69199  24.011  36.132   6.306
 5506POPC   C2B69200  23.994  36.286   6.724
 5506POPC   C3B69201  24.095  36.310   7.148
 5506POPC   C4B69202  23.997  35.994   7.458
 5507POPC   NC369203  30.027   8.630   5.576
 5507POPC   PO469204  29.728   9.274   5.538
 5507POPC   GL169205  29.966   9.070   5.835
 5507POPC   GL269206  29.633   8.827   5.819
 5507POPC   C1A69207  30.132   9.260   6.234
 5507POPC   D2A69208  30.000   9.343   6.668
 5507POPC   C3A69209  30.150   9.026   6.966
 5507POPC   C4A69210  30.311   9.033   7.408
 5507POPC   C1B69211  29.654   8.990   6.228
 5507POPC   C2B69212  29.742   8.892   6.629
 5507POPC   C3B69213  29.626   9.099   6.968
 5507POPC   C4B69214  29.778   8.922   7.306
 5508POPC   NC369215   9.883  30.947   5.384
 5508POPC   PO469216   9.359  30.560   5.456
 5508POPC   GL169217   9.616  30.695   5.786
 5508POPC   GL269218   9.929  30.559   5.688
 5508POPC   C1A69219   9.478  30.564   6.211
 5508POPC   D2A69220   9.500  30.313   6.584
 5508POPC   C3A69221   9.690  30.541   6.939
 5508POPC   C4A69222   9.714  30.753   7.328
 5508POPC   C1B69223   9.989  30.596   6.123
 5508POPC   C2B69224  10.011  30.406   6.509
 5508POPC   C3B69225  10.179  30.392   6.890
 5508POPC   C4B69226  10.096  30.427   7.297
 5509POPC   NC369227  23.253  20.497   5.358
 5509POPC   PO469228  22.703  20.942   5.261
 5509POPC   GL169229  22.909  20.771   5.688
 5509POPC   GL269230  23.036  20.440   5.822
 5509POPC   C1A69231  23.000  20.800   6.176
 5509POPC   D2A69232  23.069  20.607   6.613
 5509POPC   C3A69233  22.793  20.730   6.957
 5509POPC   C4A69234  22.960  20.812   7.419
 5509POPC   C1B69235  23.232  20.323   6.210
 5509POPC   C2B69236  23.192  20.099   6.591
 5509POPC   C3B69237  23.323  20.200   6.971
 5509POPC   C4B69238  22.998  20.348   7.190
 5510POPC   NC369239  44.628  32.750   5.404
 5510POPC   PO469240  44.741  33.413   5.472
 5510POPC   GL169241  44.827  33.114   5.805
 5510POPC   GL269242  44.482  33.079   5.851
 5510POPC   C1A69243  44.846  32.870   6.220
 5510POPC   D2A69244  44.657  32.780   6.649
 5510POPC   C3A69245  44.819  33.030   6.991
 5510POPC   C4A69246   0.165  32.823   7.156
 5510POPC   C1B69247  44.315  32.903   6.241
 5510POPC   C2B69248  44.132  32.930   6.664
 5510POPC   C3B69249  44.311  32.895   7.044
 5510POPC   C4B69250  44.402  33.238   7.285
 5511POPC   NC369251  25.206  40.328   5.582
 5511POPC   PO469252  25.409  40.932   5.363
 5511POPC   GL169253  25.380  40.912   5.777
 5511POPC   GL269254  25.181  40.670   5.944
 5511POPC   C1A69255  25.468  41.036   6.176
 5511POPC   D2A69256  25.273  40.778   6.492
 5511POPC   C3A69257  25.460  40.683   6.864
 5511POPC   C4A69258  25.369  40.795   7.280
 5511POPC   C1B69259  25.226  40.302   6.241
 5511POPC   C2B69260  25.204  40.281   6.684
 5511POPC   C3B69261  25.115  40.391   7.099
 5511POPC   C4B69262  25.210  40.392   7.550
 5512POPC   NC369263  40.441   8.263   5.419
 5512POPC   PO469264  39.696   8.403   5.460
 5512POPC   GL169265  39.880   8.531   5.839
 5512POPC   GL269266  40.208   8.452   5.835
 5512POPC   C1A69267  39.904   8.275   6.232
 5512POPC   D2A69268  40.031   8.020   6.608
 5512POPC   C3A69269  39.891   8.186   6.997
 5512POPC   C4A69270  39.568   8.035   7.258
 5512POPC   C1B69271  40.425   8.427   6.222
 5512POPC   C2B69272  40.494   8.235   6.598
 5512POPC   C3B69273  40.391   8.327   7.012
 5512POPC   C4B69274  40.260   8.067   7.354
 5513POPC   NC369275  35.207  34.817   5.306
 5513POPC   PO469276  35.489  34.306   5.645
 5513POPC   GL169277  35.457  34.689   5.798
 5513POPC   GL269278  35.115  34.660   5.864
 5513POPC   C1A69279  35.513  34.658   6.233
 5513POPC   D2A69280  35.195  34.745   6.575
 5513POPC   C3A69281  35.263  34.571   6.999
 5513POPC   C4A69282  35.625  34.717   7.255
 5513POPC   C1B69283  35.136  34.330   6.229
 5513POPC   C2B69284  35.040  34.224   6.668
 5513POPC   C3B69285  34.841  34.223   7.081
 5513POPC   C4B69286  35.014  34.298   7.514
 5514POPC   NC369287  19.264  43.144   5.251
 5514POPC   PO469288  19.046  42.579   5.321
 5514POPC   GL169289  18.893  42.951   5.587
 5514POPC   GL269290  19.215  43.105   5.742
 5514POPC   C1A69291  18.787  43.182   5.991
 5514POPC   D2A69292  18.954  43.230   6.392
 5514POPC   C3A69293  18.841  42.987   6.753
 5514POPC   C4A69294  18.810  43.203   7.136
 5514POPC   C1B69295  19.364  43.315   6.087
 5514POPC   C2B69296  19.435  43.326   6.522
 5514POPC   C3B69297  19.273  43.266   6.914
 5514POPC   C4B69298  19.516  43.539   7.177
 5515POPC   NC369299   3.030  11.319   5.273
 5515POPC   PO469300   2.360  11.173   5.307
 5515POPC   GL169301   2.429  11.347   5.745
 5515POPC   GL269302   2.319  11.671   5.849
 5515POPC   C1A69303   2.567  11.293   6.186
 5515POPC   D2A69304   2.685  11.477   6.602
 5515POPC   C3A69305   2.919  11.217   6.901
 5515POPC   C4A69306   2.807  11.001   7.264
 5515POPC   C1B69307   2.542  11.810   6.226
 5515POPC   C2B69308   2.438  11.932   6.646
 5515POPC   C3B69309   2.386  11.646   6.982
 5515POPC   C4B69310   2.681  11.508   7.242
 5516POPC   NC369311  35.742  36.263   5.817
 5516POPC   PO469312  35.426  36.270   5.278
 5516POPC   GL169313  35.253  36.299   5.854
 5516POPC   GL269314  35.406  36.000   6.077
 5516POPC   C1A69315  35.032  36.213   6.280
 5516POPC   D2A69316  35.270  35.893   6.562
 5516POPC   C3A69317  35.446  36.008   6.968
 5516POPC   C4A69318  35.247  35.994   7.379
 5516POPC   C1B69319  35.513  36.338   6.430
 5516POPC   C2B69320  35.278  36.485   6.797
 5516POPC   C3B69321  35.323  36.466   7.241
 5516POPC   C4B69322  35.701  36.231   7.383
 5517POPC   NC369323  13.639   9.310   5.161
 5517POPC   PO469324  13.701  10.004   5.384
 5517POPC   GL169325  13.592   9.890   5.790
 5517POPC   GL269326  13.584   9.567   5.692
 5517POPC   C1A69327  13.754   9.876   6.217
 5517POPC   D2A69328  13.573   9.930   6.628
 5517POPC   C3A69329  13.512   9.864   7.098
 5517POPC   C4A69330  13.612   9.951   7.529
 5517POPC   C1B69331  13.534   9.431   6.114
 5517POPC   C2B69332  13.732   9.425   6.496
 5517POPC   C3B69333  13.859   9.571   6.872
 5517POPC   C4B69334  14.026   9.418   7.228
 5518POPC   NC369335  35.644  14.548   5.407
 5518POPC   PO469336  35.189  14.131   5.467
 5518POPC   GL169337  35.285  14.305   5.833
 5518POPC   GL269338  35.623  14.236   5.799
 5518POPC   C1A69339  35.186  14.614   6.159
 5518POPC   D2A69340  35.380  14.726   6.545
 5518POPC   C3A69341  35.183  14.595   6.925
 5518POPC   C4A69342  35.356  14.635   7.339
 5518POPC   C1B69343  35.682  14.428   6.181
 5518POPC   C2B69344  35.600  14.272   6.582
 5518POPC   C3B69345  35.710  14.420   6.977
 5518POPC   C4B69346  35.801  14.233   7.370
 5519POPC   NC369347  35.258   6.330   5.367
 5519POPC   PO469348  34.891   5.777   5.433
 5519POPC   GL169349  35.107   5.770   5.869
 5519POPC   GL269350  35.437   5.976   5.927
 5519POPC   C1A69351  35.167   5.868   6.327
 5519POPC   D2A69352  35.082   6.193   6.608
 5519POPC   C3A69353  35.264   6.050   6.993
 5519POPC   C4A69354  35.261   5.605   7.085
 5519POPC   C1B69355  35.692   5.798   6.258
 5519POPC   C2B69356  35.588   5.666   6.674
 5519POPC   C3B69357  35.741   5.826   7.069
 5519POPC   C4B69358  35.559   5.810   7.487
 5520POPC   NC369359   3.913  36.634   5.299
 5520POPC   PO469360   4.227  37.114   5.537
 5520POPC   GL169361   4.113  36.836   5.832
 5520POPC   GL269362   4.408  36.622   5.856
 5520POPC   C1A69363   4.229  36.895   6.261
 5520POPC   D2A69364   4.438  36.840   6.670
 5520POPC   C3A69365   4.230  37.049   7.012
 5520POPC   C4A69366   4.082  37.367   7.278
 5520POPC   C1B69367   4.420  36.430   6.280
 5520POPC   C2B69368   4.486  36.290   6.679
 5520POPC   C3B69369   4.699  36.536   6.994
 5520POPC   C4B69370   4.389  36.666   7.307
 5521POPC   NC369371  31.853  30.547   5.175
 5521POPC   PO469372  32.302  30.921   5.513
 5521POPC   GL169373  32.259  30.699   5.804
 5521POPC   GL269374  31.918  30.576   5.711
 5521POPC   C1A69375  32.403  30.781   6.211
 5521POPC   D2A69376  32.167  30.705   6.565
 5521POPC   C3A69377  32.417  30.741   6.904
 5521POPC   C4A69378  32.409  30.599   7.295
 5521POPC   C1B69379  32.001  30.426   6.147
 5521POPC   C2B69380  31.992  30.226   6.554
 5521POPC   C3B69381  31.986  30.435   6.972
 5521POPC   C4B69382  31.989  30.262   7.375
 5522POPC   NC369383  15.119  10.993   5.424
 5522POPC   PO469384  15.532  11.470   5.607
 5522POPC   GL169385  15.130  11.432   5.815
 5522POPC   GL269386  15.188  11.112   5.919
 5522POPC   C1A69387  14.852  11.432   6.208
 5522POPC   D2A69388  14.795  11.420   6.674
 5522POPC   C3A69389  15.190  11.345   6.858
 5522POPC   C4A69390  15.392  11.505   7.207
 5522POPC   C1B69391  15.360  11.171   6.336
 5522POPC   C2B69392  15.483  10.920   6.692
 5522POPC   C3B69393  15.347  10.949   7.142
 5522POPC   C4B69394  15.173  11.175   7.515
 5523POPC   NC369395  34.616  27.943   5.215
 5523POPC   PO469396  34.591  28.531   5.393
 5523POPC   GL169397  34.596  28.274   5.744
 5523POPC   GL269398  34.275  28.253   5.913
 5523POPC   C1A69399  34.703  28.436   6.152
 5523POPC   D2A69400  34.608  28.697   6.518
 5523POPC   C3A69401  34.628  28.529   6.949
 5523POPC   C4A69402  34.686  28.102   7.123
 5523POPC   C1B69403  34.175  28.550   6.248
 5523POPC   C2B69404  34.176  28.391   6.677
 5523POPC   C3B69405  34.173  28.334   7.115
 5523POPC   C4B69406  34.301  28.203   7.500
 5524POPC   NC369407  35.877   6.579   5.475
 5524POPC   PO469408  36.592   6.400   5.481
 5524POPC   GL169409  36.334   6.536   5.871
 5524POPC   GL269410  36.043   6.781   5.914
 5524POPC   C1A69411  36.335   6.685   6.329
 5524POPC   D2A69412  36.147   6.559   6.727
 5524POPC   C3A69413  36.244   6.526   7.165
 5524POPC   C4A69414  36.511   6.777   7.360
 5524POPC   C1B69415  35.830   6.667   6.292
 5524POPC   C2B69416  35.682   6.746   6.691
 5524POPC   C3B69417  35.799   6.747   7.140
 5524POPC   C4B69418  35.890   6.592   7.584
 5525POPC   NC369419  25.423  25.477   5.327
 5525POPC   PO469420  25.340  24.907   5.536
 5525POPC   GL169421  25.503  25.115   5.842
 5525POPC   GL269422  25.285  25.369   5.834
 5525POPC   C1A69423  25.337  25.007   6.234
 5525POPC   D2A69424  25.496  25.099   6.606
 5525POPC   C3A69425  25.315  24.961   6.987
 5525POPC   C4A69426  24.960  25.163   7.190
 5525POPC   C1B69427  25.458  25.509   6.242
 5525POPC   C2B69428  25.342  25.580   6.664
 5525POPC   C3B69429  25.239  25.594   7.084
 5525POPC   C4B69430  25.150  25.831   7.472
 5526POPC   NC369431  33.166   0.988   5.581
 5526POPC   PO469432  33.027   0.292   5.337
 5526POPC   GL169433  33.072   0.507   5.707
 5526POPC   GL269434  32.787   0.510   5.854
 5526POPC   C1A69435  33.269   0.538   6.130
 5526POPC   D2A69436  33.154   0.626   6.535
 5526POPC   C3A69437  33.214   0.364   6.877
 5526POPC   C4A69438  33.302   0.434   7.283
 5526POPC   C1B69439  32.726   0.527   6.294
 5526POPC   C2B69440  32.696   0.765   6.712
 5526POPC   C3B69441  32.871   0.733   7.148
 5526POPC   C4B69442  32.770   0.652   7.591
 5527POPC   NC369443  27.390  11.220   5.345
 5527POPC   PO469444  27.343  11.850   5.625
 5527POPC   GL169445  27.458  11.443   5.832
 5527POPC   GL269446  27.523  11.038   5.819
 5527POPC   C1A69447  27.758  11.414   6.147
 5527POPC   D2A69448  27.936  11.145   6.433
 5527POPC   C3A69449  27.892  11.233   6.906
 5527POPC   C4A69450  27.734  11.165   7.360
 5527POPC   C1B69451  27.346  11.106   6.204
 5527POPC   C2B69452  27.436  11.249   6.598
 5527POPC   C3B69453  27.390  11.101   7.004
 5527POPC   C4B69454  27.319  10.871   7.373
 5528POPC   NC369455   8.983  32.629   5.398
 5528POPC   PO469456   8.812  31.955   5.431
 5528POPC   GL169457   8.904  32.212   5.751
 5528POPC   GL269458   9.263  32.194   5.723
 5528POPC   C1A69459   8.690  32.306   6.144
 5528POPC   D2A69460   8.889  32.319   6.541
 5528POPC   C3A69461   8.643  32.269   6.894
 5528POPC   C4A69462   8.820  32.233   7.286
 5528POPC   C1B69463   9.369  32.002   6.126
 5528POPC   C2B69464   9.241  31.922   6.566
 5528POPC   C3B69465   9.245  32.194   6.943
 5528POPC   C4B69466   9.385  32.351   7.346
 5529POPC   NC369467  20.108  19.949   5.093
 5529POPC   PO469468  19.819  19.527   5.541
 5529POPC   GL169469  19.785  19.909   5.762
 5529POPC   GL269470  20.111  19.936   5.879
 5529POPC   C1A69471  19.754  20.016   6.214
 5529POPC   D2A69472  19.582  19.731   6.513
 5529POPC   C3A69473  19.764  19.722   6.927
 5529POPC   C4A69474  19.706  19.990   7.311
 5529POPC   C1B69475  20.123  19.663   6.257
 5529POPC   C2B69476  20.217  19.530   6.677
 5529POPC   C3B69477  20.293  19.753   7.055
 5529POPC   C4B69478  20.055  19.636   7.378
 5530POPC   NC369479   6.145  34.046   5.442
 5530POPC   PO469480   5.472  34.276   5.405
 5530POPC   GL169481   5.502  34.141   5.862
 5530POPC   GL269482   5.838  34.065   5.851
 5530POPC   C1A69483   5.534  33.889   6.279
 5530POPC   D2A69484   5.894  33.568   6.417
 5530POPC   C3A69485   5.982  33.504   6.864
 5530POPC   C4A69486   5.900  33.683   7.281
 5530POPC   C1B69487   6.023  34.039   6.236
 5530POPC   C2B69488   6.106  33.980   6.654
 5530POPC   C3B69489   5.773  33.975   6.904
 5530POPC   C4B69490   5.785  34.165   7.285
 5531POPC   NC369491   4.082   0.887   5.418
 5531POPC   PO469492   4.468   1.457   5.672
 5531POPC   GL169493   4.337   1.106   5.882
 5531POPC   GL269494   3.973   1.010   5.891
 5531POPC   C1A69495   4.289   1.070   6.325
 5531POPC   D2A69496   4.226   1.189   6.765
 5531POPC   C3A69497   4.314   1.090   7.170
 5531POPC   C4A69498   4.533   1.456   7.303
 5531POPC   C1B69499   3.936   1.399   6.088
 5531POPC   C2B69500   3.882   1.417   6.482
 5531POPC   C3B69501   3.950   1.627   6.843
 5531POPC   C4B69502   3.969   1.498   7.232
 5532POPC   NC369503  26.901  36.999   5.646
 5532POPC   PO469504  26.812  37.660   5.436
 5532POPC   GL169505  26.779  37.488   5.844
 5532POPC   GL269506  27.126  37.394   5.892
 5532POPC   C1A69507  26.849  37.666   6.256
 5532POPC   D2A69508  26.748  37.879   6.635
 5532POPC   C3A69509  26.694  37.676   7.036
 5532POPC   C4A69510  26.605  37.997   7.356
 5532POPC   C1B69511  27.056  37.197   6.299
 5532POPC   C2B69512  27.079  37.453   6.669
 5532POPC   C3B69513  27.178  37.400   7.086
 5532POPC   C4B69514  26.948  37.392   7.433
 5533POPC   NC369515  13.788  20.987   5.157
 5533POPC   PO469516  13.372  20.584   5.580
 5533POPC   GL169517  13.352  20.707   5.963
 5533POPC   GL269518  13.202  21.024   6.008
 5533POPC   C1A69519  13.535  20.512   6.307
 5533POPC   D2A69520  13.937  20.512   6.569
 5533POPC   C3A69521  13.818  20.464   7.024
 5533POPC   C4A69522  13.448  20.482   7.343
 5533POPC   C1B69523  13.509  21.026   6.334
 5533POPC   C2B69524  13.565  20.827   6.709
 5533POPC   C3B69525  13.290  20.574   6.877
 5533POPC   C4B69526  13.193  20.968   7.075
 5534POPC   NC369527  11.593  15.700   5.491
 5534POPC   PO469528  11.361  15.096   5.238
 5534POPC   GL169529  11.288  15.175   5.665
 5534POPC   GL269530  11.614  15.243   5.743
 5534POPC   C1A69531  11.100  15.099   6.094
 5534POPC   D2A69532  10.893  15.327   6.453
 5534POPC   C3A69533  10.988  15.227   6.846
 5534POPC   C4A69534  11.122  15.512   7.120
 5534POPC   C1B69535  11.525  15.396   6.162
 5534POPC   C2B69536  11.409  15.134   6.523
 5534POPC   C3B69537  11.420  15.008   6.956
 5534POPC   C4B69538  11.541  15.280   7.310
 5535POPC   NC369539  16.791  32.778   5.502
 5535POPC   PO469540  16.394  33.326   5.395
 5535POPC   GL169541  16.628  33.195   5.792
 5535POPC   GL269542  16.489  32.845   5.922
 5535POPC   C1A69543  16.843  33.325   6.195
 5535POPC   D2A69544  16.684  33.475   6.609
 5535POPC   C3A69545  16.753  33.166   6.933
 5535POPC   C4A69546  16.543  33.165   7.330
 5535POPC   C1B69547  16.580  32.928   6.376
 5535POPC   C2B69548  16.945  32.790   6.613
 5535POPC   C3B69549  17.000  32.617   7.020
 5535POPC   C4B69550  16.956  32.889   7.343
 5536POPC   NC369551  37.065  32.176   5.070
 5536POPC   PO469552  36.850  32.203   5.667
 5536POPC   GL169553  36.752  32.408   5.998
 5536POPC   GL269554  37.020  32.241   6.144
 5536POPC   C1A69555  36.646  32.457   6.429
 5536POPC   D2A69556  36.892  32.231   6.652
 5536POPC   C3A69557  36.977  32.267   7.070
 5536POPC   C4A69558  36.676  32.272   7.393
 5536POPC   C1B69559  37.099  32.666   6.275
 5536POPC   C2B69560  37.063  32.749   6.682
 5536POPC   C3B69561  37.315  32.700   7.035
 5536POPC   C4B69562  37.455  32.365   7.266
 5537POPC   NC369563  19.815  31.509   5.304
 5537POPC   PO469564  20.423  31.432   5.494
 5537POPC   GL169565  20.047  31.350   5.801
 5537POPC   GL269566  19.664  31.428   5.778
 5537POPC   C1A69567  19.900  31.281   6.223
 5537POPC   D2A69568  19.687  31.466   6.596
 5537POPC   C3A69569  19.805  31.364   7.010
 5537POPC   C4A69570  19.943  31.251   7.417
 5537POPC   C1B69571  19.452  31.515   6.146
 5537POPC   C2B69572  19.277  31.204   6.439
 5537POPC   C3B69573  19.490  30.983   6.776
 5537POPC   C4B69574  19.412  31.087   7.205
 5538POPC   NC369575  32.485  18.258   5.355
 5538POPC   PO469576  31.888  17.934   5.410
 5538POPC   GL169577  32.157  18.139   5.749
 5538POPC   GL269578  32.443  17.950   5.838
 5538POPC   C1A69579  32.168  18.450   6.103
 5538POPC   D2A69580  32.412  18.594   6.462
 5538POPC   C3A69581  32.265  18.660   6.856
 5538POPC   C4A69582  32.113  18.456   7.199
 5538POPC   C1B69583  32.534  18.127   6.272
 5538POPC   C2B69584  32.663  18.166   6.717
 5538POPC   C3B69585  32.545  18.182   7.175
 5538POPC   C4B69586  32.508  17.816   7.463
 5539POPC   NC369587  17.773  41.734   5.235
 5539POPC   PO469588  17.293  41.378   5.372
 5539POPC   GL169589  17.436  41.498   5.787
 5539POPC   GL269590  17.692  41.723   5.787
 5539POPC   C1A69591  17.394  41.594   6.231
 5539POPC   D2A69592  17.437  41.750   6.645
 5539POPC   C3A69593  17.474  41.432   6.952
 5539POPC   C4A69594  17.063  41.326   7.114
 5539POPC   C1B69595  17.900  41.922   6.157
 5539POPC   C2B69596  17.863  42.088   6.596
 5539POPC   C3B69597  17.787  41.854   6.999
 5539POPC   C4B69598  17.786  41.725   7.472
 5540POPC   NC369599  43.720  22.609   5.440
 5540POPC   PO469600  44.020  23.053   5.057
 5540POPC   GL169601  43.935  23.104   5.621
 5540POPC   GL269602  43.980  22.768   5.822
 5540POPC   C1A69603  44.084  23.134   6.135
 5540POPC   D2A69604  43.850  23.161   6.549
 5540POPC   C3A69605  43.973  23.063   6.960
 5540POPC   C4A69606  43.951  23.223   7.378
 5540POPC   C1B69607  43.911  22.640   6.226
 5540POPC   C2B69608  43.927  22.658   6.640
 5540POPC   C3B69609  43.646  22.630   6.959
 5540POPC   C4B69610  43.866  22.694   7.317
 5541POPC   NC369611  13.941  22.353   5.044
 5541POPC   PO469612  14.344  21.898   5.350
 5541POPC   GL169613  14.336  22.090   5.748
 5541POPC   GL269614  14.689  22.168   5.814
 5541POPC   C1A69615  14.288  22.195   6.178
 5541POPC   D2A69616  14.535  22.166   6.541
 5541POPC   C3A69617  14.324  22.269   6.909
 5541POPC   C4A69618  14.383  22.109   7.291
 5541POPC   C1B69619  14.857  22.341   6.178
 5541POPC   C2B69620  15.008  22.451   6.579
 5541POPC   C3B69621  14.833  22.290   6.944
 5541POPC   C4B69622  14.879  22.085   7.350
 5542POPC   NC369623  27.118  35.482   5.369
 5542POPC   PO469624  26.593  35.027   5.430
 5542POPC   GL169625  26.716  35.326   5.784
 5542POPC   GL269626  27.073  35.455   5.861
 5542POPC   C1A69627  26.737  35.464   6.234
 5542POPC   D2A69628  27.018  35.543   6.577
 5542POPC   C3A69629  26.907  35.484   7.015
 5542POPC   C4A69630  26.693  35.507   7.419
 5542POPC   C1B69631  27.115  35.111   6.139
 5542POPC   C2B69632  27.313  35.128   6.533
 5542POPC   C3B69633  27.302  34.906   6.878
 5542POPC   C4B69634  27.178  34.853   7.267
 5543POPC   NC369635  19.589   4.653   5.184
 5543POPC   PO469636  19.476   4.204   5.639
 5543POPC   GL169637  19.836   4.069   5.927
 5543POPC   GL269638  20.118   4.312   5.866
 5543POPC   C1A69639  20.165   3.958   6.285
 5543POPC   D2A69640  20.204   3.930   6.729
 5543POPC   C3A69641  19.959   4.303   6.846
 5543POPC   C4A69642  19.771   4.375   7.212
 5543POPC   C1B69643  19.925   4.398   6.306
 5543POPC   C2B69644  19.588   4.548   6.538
 5543POPC   C3B69645  19.391   4.349   6.855
 5543POPC   C4B69646  19.379   4.069   7.203
 5544POPC   NC369647  27.387  14.761   5.554
 5544POPC   PO469648  27.862  14.302   5.387
 5544POPC   GL169649  27.530  14.323   5.789
 5544POPC   GL269650  27.392  14.618   6.034
 5544POPC   C1A69651  27.411  14.158   6.218
 5544POPC   D2A69652  27.675  14.129   6.606
 5544POPC   C3A69653  27.485  14.340   6.985
 5544POPC   C4A69654  27.737  14.477   7.334
 5544POPC   C1B69655  27.600  14.619   6.417
 5544POPC   C2B69656  27.481  14.806   6.772
 5544POPC   C3B69657  27.418  14.844   7.200
 5544POPC   C4B69658  27.381  14.724   7.647
 5545POPC   NC369659  33.289  32.112   5.573
 5545POPC   PO469660  32.764  32.472   5.420
 5545POPC   GL169661  32.963  32.417   5.842
 5545POPC   GL269662  33.352  32.517   5.873
 5545POPC   C1A69663  32.935  32.135   6.205
 5545POPC   D2A69664  32.754  32.195   6.631
 5545POPC   C3A69665  32.798  31.914   6.958
 5545POPC   C4A69666  33.088  31.978   7.289
 5545POPC   C1B69667  33.249  32.505   6.302
 5545POPC   C2B69668  33.153  32.735   6.654
 5545POPC   C3B69669  33.118  32.450   6.978
 5545POPC   C4B69670  32.761  32.345   7.220
 5546POPC   NC369671  19.404   0.571   5.280
 5546POPC   PO469672  18.781   0.325   5.214
 5546POPC   GL169673  18.903   0.448   5.646
 5546POPC   GL269674  18.815   0.797   5.635
 5546POPC   C1A69675  19.117   0.625   6.045
 5546POPC   D2A69676  19.260   0.541   6.473
 5546POPC   C3A69677  18.994   0.495   6.826
 5546POPC   C4A69678  19.189   0.462   7.221
 5546POPC   C1B69679  18.734   0.986   6.060
 5546POPC   C2B69680  18.705   1.076   6.517
 5546POPC   C3B69681  18.814   0.976   6.984
 5546POPC   C4B69682  18.711   0.616   7.273
 5547POPC   NC369683   8.008  13.767   5.512
 5547POPC   PO469684   8.619  13.822   5.656
 5547POPC   GL169685   8.365  13.729   5.929
 5547POPC   GL269686   8.312  13.421   5.787
 5547POPC   C1A69687   8.299  13.727   6.355
 5547POPC   D2A69688   8.114  13.742   6.751
 5547POPC   C3A69689   8.311  13.825   7.121
 5547POPC   C4A69690   8.362  13.457   7.380
 5547POPC   C1B69691   7.967  13.411   6.106
 5547POPC   C2B69692   7.942  13.273   6.547
 5547POPC   C3B69693   7.927  13.335   7.008
 5547POPC   C4B69694   7.883  13.271   7.440
 5548POPC   NC369695  35.640  13.098   5.061
 5548POPC   PO469696  35.237  12.721   5.451
 5548POPC   GL169697  35.271  12.786   5.876
 5548POPC   GL269698  35.504  12.509   5.861
 5548POPC   C1A69699  35.284  13.047   6.234
 5548POPC   D2A69700  34.990  13.162   6.565
 5548POPC   C3A69701  35.194  13.139   6.930
 5548POPC   C4A69702  35.248  12.997   7.320
 5548POPC   C1B69703  35.648  12.663   6.250
 5548POPC   C2B69704  35.459  12.697   6.675
 5548POPC   C3B69705  35.438  12.571   7.115
 5548POPC   C4B69706  35.618  12.720   7.517
 5549POPC   NC369707   3.175   9.723   5.158
 5549POPC   PO469708   2.761   9.392   5.415
 5549POPC   GL169709   3.033   9.493   5.766
 5549POPC   GL269710   2.712   9.537   5.945
 5549POPC   C1A69711   3.157   9.688   6.153
 5549POPC   D2A69712   2.843   9.764   6.506
 5549POPC   C3A69713   2.908   9.680   6.961
 5549POPC   C4A69714   2.804   9.880   7.362
 5549POPC   C1B69715   2.537   9.391   6.332
 5549POPC   C2B69716   2.474   9.389   6.787
 5549POPC   C3B69717   2.543   9.392   7.235
 5549POPC   C4B69718   2.336   9.238   7.626
 5550POPC   NC369719   1.344   9.369   5.558
 5550POPC   PO469720   1.230  10.060   5.433
 5550POPC   GL169721   1.349   9.826   5.809
 5550POPC   GL269722   1.037   9.589   5.897
 5550POPC   C1A69723   1.248   9.908   6.237
 5550POPC   D2A69724   0.984   9.769   6.562
 5550POPC   C3A69725   1.111   9.805   6.998
 5550POPC   C4A69726   0.932  10.173   7.216
 5550POPC   C1B69727   1.107   9.344   6.290
 5550POPC   C2B69728   1.105   9.325   6.759
 5550POPC   C3B69729   1.050   9.316   7.189
 5550POPC   C4B69730   0.978   9.633   7.489
 5551POPC   NC369731  42.755  32.404   5.450
 5551POPC   PO469732  43.216  32.001   5.423
 5551POPC   GL169733  43.195  32.211   5.803
 5551POPC   GL269734  42.858  32.056   5.828
 5551POPC   C1A69735  43.489  32.238   6.186
 5551POPC   D2A69736  43.534  31.975   6.575
 5551POPC   C3A69737  43.490  32.234   6.938
 5551POPC   C4A69738  43.340  32.194   7.355
 5551POPC   C1B69739  43.041  32.005   6.247
 5551POPC   C2B69740  43.040  32.138   6.655
 5551POPC   C3B69741  42.777  32.152   6.987
 5551POPC   C4B69742  42.849  32.013   7.357
 5552POPC   NC369743   0.187  29.363   5.367
 5552POPC   PO469744   0.706  28.829   5.510
 5552POPC   GL169745   0.382  29.032   5.767
 5552POPC   GL269746   0.377  29.400   5.862
 5552POPC   C1A69747   0.311  28.967   6.206
 5552POPC   D2A69748   0.401  29.186   6.579
 5552POPC   C3A69749   0.675  29.048   6.910
 5552POPC   C4A69750   0.491  29.104   7.294
 5552POPC   C1B69751   0.081  29.454   6.237
 5552POPC   C2B69752   0.005  29.489   6.707
 5552POPC   C3B69753   0.334  29.516   7.006
 5552POPC   C4B69754   0.291  29.548   7.416
 5553POPC   NC369755   6.391  11.033   5.503
 5553POPC   PO469756   6.760  11.535   5.430
 5553POPC   GL169757   6.641  11.388   5.828
 5553POPC   GL269758   6.864  11.103   5.729
 5553POPC   C1A69759   6.470  11.358   6.272
 5553POPC   D2A69760   6.631  11.246   6.661
 5553POPC   C3A69761   6.721  11.481   7.035
 5553POPC   C4A69762   6.415  11.499   7.377
 5553POPC   C1B69763   6.811  10.992   6.164
 5553POPC   C2B69764   7.068  11.030   6.517
 5553POPC   C3B69765   7.045  11.063   6.955
 5553POPC   C4B69766   7.136  11.281   7.309
 5554POPC   NC369767  19.933  42.734   5.194
 5554POPC   PO469768  19.670  43.372   5.312
 5554POPC   GL169769  19.765  43.212   5.759
 5554POPC   GL269770  20.017  42.931   5.804
 5554POPC   C1A69771  19.803  43.101   6.228
 5554POPC   D2A69772  20.083  43.047   6.571
 5554POPC   C3A69773  19.893  43.356   6.858
 5554POPC   C4A69774  20.023  43.302   7.256
 5554POPC   C1B69775  20.043  42.656   6.221
 5554POPC   C2B69776  19.731  42.607   6.538
 5554POPC   C3B69777  19.641  42.934   6.795
 5554POPC   C4B69778  19.596  43.020   7.217
 5555POPC   NC369779  10.719  32.289   5.408
 5555POPC   PO469780   9.983  31.992   5.489
 5555POPC   GL169781  10.332  32.127   5.758
 5555POPC   GL269782  10.696  32.218   5.889
 5555POPC   C1A69783  10.363  32.048   6.197
 5555POPC   D2A69784  10.521  32.188   6.600
 5555POPC   C3A69785  10.258  32.111   6.937
 5555POPC   C4A69786  10.277  32.167   7.336
 5555POPC   C1B69787  10.893  32.024   6.233
 5555POPC   C2B69788  11.029  32.180   6.594
 5555POPC   C3B69789  10.860  32.320   6.992
 5555POPC   C4B69790  10.764  31.938   7.173
 5556POPC   NC369791  11.450  12.449   5.432
 5556POPC   PO469792  11.099  11.875   5.502
 5556POPC   GL169793  11.337  12.059   5.833
 5556POPC   GL269794  11.086  12.313   5.825
 5556POPC   C1A69795  11.367  12.297   6.237
 5556POPC   D2A69796  11.153  12.200   6.601
 5556POPC   C3A69797  11.333  12.308   6.977
 5556POPC   C4A69798  11.298  12.216   7.421
 5556POPC   C1B69799  10.853  12.070   6.171
 5556POPC   C2B69800  10.801  11.842   6.605
 5556POPC   C3B69801  10.921  11.995   7.044
 5556POPC   C4B69802  10.968  11.834   7.502
 5557POPC   NC369803  10.169   0.718   5.391
 5557POPC   PO469804  10.682   0.290   5.395
 5557POPC   GL169805  10.566   0.332   5.847
 5557POPC   GL269806  10.534   0.685   5.855
 5557POPC   C1A69807  10.681   0.354   6.288
 5557POPC   D2A69808  10.534   0.160   6.662
 5557POPC   C3A69809  10.666   0.289   7.096
 5557POPC   C4A69810  10.543   0.454   7.524
 5557POPC   C1B69811  10.381   0.788   6.266
 5557POPC   C2B69812  10.300   0.613   6.671
 5557POPC   C3B69813  10.331   0.682   7.100
 5557POPC   C4B69814  10.277   0.936   7.472
 5558POPC   NC369815  16.955   1.533   5.598
 5558POPC   PO469816  16.578   2.125   5.560
 5558POPC   GL169817  16.747   1.982   5.843
 5558POPC   GL269818  16.529   1.702   5.936
 5558POPC   C1A69819  16.652   2.154   6.244
 5558POPC   D2A69820  16.573   1.911   6.588
 5558POPC   C3A69821  16.807   2.071   6.895
 5558POPC   C4A69822  16.703   2.188   7.291
 5558POPC   C1B69823  16.904   1.707   6.224
 5558POPC   C2B69824  17.016   1.591   6.606
 5558POPC   C3B69825  16.765   1.538   6.941
 5558POPC   C4B69826  16.969   1.737   7.250
 5559POPC   NC369827  11.041  21.459   5.062
 5559POPC   PO469828  11.561  21.570   5.555
 5559POPC   GL169829  11.527  21.378   5.935
 5559POPC   GL269830  11.288  21.585   6.053
 5559POPC   C1A69831  11.492  21.266   6.367
 5559POPC   D2A69832  11.321  21.291   6.752
 5559POPC   C3A69833  11.562  21.259   7.095
 5559POPC   C4A69834  11.591  21.308   7.535
 5559POPC   C1B69835  10.997  21.271   6.203
 5559POPC   C2B69836  10.813  21.153   6.577
 5559POPC   C3B69837  10.871  21.387   6.952
 5559POPC   C4B69838  11.059  21.115   7.229
 5560POPC   NC369839  26.999  10.431   5.381
 5560POPC   PO469840  26.396  10.496   5.458
 5560POPC   GL169841  26.708  10.605   5.767
 5560POPC   GL269842  26.878  10.306   5.859
 5560POPC   C1A69843  26.922  10.765   6.160
 5560POPC   D2A69844  27.181  10.745   6.536
 5560POPC   C3A69845  26.950  10.845   6.903
 5560POPC   C4A69846  26.822  10.716   7.310
 5560POPC   C1B69847  26.758  10.271   6.260
 5560POPC   C2B69848  26.765  10.447   6.651
 5560POPC   C3B69849  26.914  10.297   7.053
 5560POPC   C4B69850  26.670  10.242   7.445
 5561POPC   NC369851  11.216   8.314   5.300
 5561POPC   PO469852  11.603   7.728   5.169
 5561POPC   GL169853  11.377   7.985   5.615
 5561POPC   GL269854  11.497   8.298   5.739
 5561POPC   C1A69855  11.354   7.959   6.112
 5561POPC   D2A69856  11.268   8.051   6.540
 5561POPC   C3A69857  11.493   7.897   6.885
 5561POPC   C4A69858  11.325   7.898   7.243
 5561POPC   C1B69859  11.434   8.511   6.134
 5561POPC   C2B69860  11.282   8.573   6.538
 5561POPC   C3B69861  11.384   8.384   6.913
 5561POPC   C4B69862  11.243   8.379   7.336
 5562POPC   NC369863  14.846  14.771   5.320
 5562POPC   PO469864  15.434  14.689   5.665
 5562POPC   GL169865  15.036  14.513   5.760
 5562POPC   GL269866  14.918  14.747   5.991
 5562POPC   C1A69867  14.851  14.182   6.055
 5562POPC   D2A69868  14.945  13.929   6.468
 5562POPC   C3A69869  14.880  14.089   6.902
 5562POPC   C4A69870  15.061  14.086   7.291
 5562POPC   C1B69871  15.202  14.485   6.277
 5562POPC   C2B69872  15.275  14.302   6.680
 5562POPC   C3B69873  15.292  14.492   7.088
 5562POPC   C4B69874  15.393  14.649   7.499
 5563POPC   NC369875  41.583  19.726   5.437
 5563POPC   PO469876  42.077  19.898   5.157
 5563POPC   GL169877  41.855  20.046   5.690
 5563POPC   GL269878  41.436  19.966   5.840
 5563POPC   C1A69879  41.793  19.877   6.155
 5563POPC   D2A69880  41.531  20.072   6.488
 5563POPC   C3A69881  41.674  20.040   6.910
 5563POPC   C4A69882  41.878  19.995   7.312
 5563POPC   C1B69883  41.302  19.699   6.234
 5563POPC   C2B69884  41.219  19.747   6.726
 5563POPC   C3B69885  41.425  19.646   7.153
 5563POPC   C4B69886  41.232  19.573   7.590
 5564POPC   NC369887  14.449  27.591   5.452
 5564POPC   PO469888  13.860  27.504   5.388
 5564POPC   GL169889  14.090  27.465   5.793
 5564POPC   GL269890  14.315  27.788   5.908
 5564POPC   C1A69891  14.311  27.367   6.190
 5564POPC   D2A69892  14.373  27.584   6.579
 5564POPC   C3A69893  14.443  27.356   6.966
 5564POPC   C4A69894  14.238  27.388   7.363
 5564POPC   C1B69895  14.629  28.013   6.203
 5564POPC   C2B69896  14.795  27.951   6.644
 5564POPC   C3B69897  14.572  27.847   7.039
 5564POPC   C4B69898  14.642  27.666   7.466
 5565POPC   NC369899  28.724  29.323   5.297
 5565POPC   PO469900  29.284  29.072   5.584
 5565POPC   GL169901  28.982  29.131   5.867
 5565POPC   GL269902  28.647  29.038   5.730
 5565POPC   C1A69903  29.175  29.132   6.268
 5565POPC   D2A69904  29.350  28.861   6.592
 5565POPC   C3A69905  29.246  29.148   6.916
 5565POPC   C4A69906  29.148  29.155   7.332
 5565POPC   C1B69907  28.723  28.760   6.108
 5565POPC   C2B69908  28.843  28.841   6.514
 5565POPC   C3B69909  28.931  28.766   6.912
 5565POPC   C4B69910  28.731  28.820   7.259
 5566POPC   NC369911  20.569   7.674   5.598
 5566POPC   PO469912  20.881   7.041   5.435
 5566POPC   GL169913  20.817   7.262   5.760
 5566POPC   GL269914  20.446   7.195   5.731
 5566POPC   C1A69915  20.911   7.480   6.158
 5566POPC   D2A69916  20.889   7.686   6.583
 5566POPC   C3A69917  20.713   7.457   6.914
 5566POPC   C4A69918  20.502   7.472   7.294
 5566POPC   C1B69919  20.575   7.089   6.158
 5566POPC   C2B69920  20.854   7.104   6.530
 5566POPC   C3B69921  20.927   7.002   6.957
 5566POPC   C4B69922  20.822   7.083   7.426
 5567POPC   NC369923  30.335  31.140   5.553
 5567POPC   PO469924  29.877  30.633   5.415
 5567POPC   GL169925  29.993  30.531   5.837
 5567POPC   GL269926  30.265  30.753   5.887
 5567POPC   C1A69927  29.800  30.420   6.231
 5567POPC   D2A69928  30.007  30.311   6.617
 5567POPC   C3A69929  29.887  30.505   7.018
 5567POPC   C4A69930  30.151  30.396   7.383
 5567POPC   C1B69931  30.310  30.628   6.306
 5567POPC   C2B69932  30.167  30.792   6.702
 5567POPC   C3B69933  30.318  30.805   7.140
 5567POPC   C4B69934  30.241  30.845   7.597
 5568POPC   NC369935  37.704  32.857   5.395
 5568POPC   PO469936  37.219  33.126   5.744
 5568POPC   GL169937  37.673  33.183   5.828
 5568POPC   GL269938  37.978  32.973   5.817
 5568POPC   C1A69939  37.929  33.240   6.241
 5568POPC   D2A69940  38.002  33.089   6.667
 5568POPC   C3A69941  37.657  33.095   7.020
 5568POPC   C4A69942  37.775  33.166   7.498
 5568POPC   C1B69943  37.682  32.801   6.151
 5568POPC   C2B69944  37.609  32.769   6.589
 5568POPC   C3B69945  37.833  32.610   6.958
 5568POPC   C4B69946  37.876  32.659   7.405
 5569POPC   NC369947  35.600  13.867   5.401
 5569POPC   PO469948  35.282  13.290   5.319
 5569POPC   GL169949  35.443  13.465   5.727
 5569POPC   GL269950  35.401  13.789   5.858
 5569POPC   C1A69951  35.625  13.448   6.157
 5569POPC   D2A69952  35.417  13.442   6.540
 5569POPC   C3A69953  35.621  13.420   6.938
 5569POPC   C4A69954  35.348  13.564   7.268
 5569POPC   C1B69955  35.336  13.907   6.292
 5569POPC   C2B69956  35.351  13.885   6.762
 5569POPC   C3B69957  35.341  14.089   7.157
 5569POPC   C4B69958  35.040  13.975   7.439
 5570POPC   NC369959  28.241   0.697   5.538
 5570POPC   PO469960  28.522   0.122   5.454
 5570POPC   GL169961  28.500   0.365   5.879
 5570POPC   GL269962  28.365   0.701   6.032
 5570POPC   C1A69963  28.729   0.449   6.269
 5570POPC   D2A69964  28.494   0.402   6.638
 5570POPC   C3A69965  28.530   0.574   7.009
 5570POPC   C4A69966  28.824   0.417   7.284
 5570POPC   C1B69967  28.094   0.494   6.344
 5570POPC   C2B69968  28.030   0.489   6.827
 5570POPC   C3B69969  28.109   0.284   7.237
 5570POPC   C4B69970  28.017   0.111   7.663
 5571POPC   NC369971  38.169  39.960   5.431
 5571POPC   PO469972  38.799  40.036   5.104
 5571POPC   GL169973  38.630  40.026   5.673
 5571POPC   GL269974  38.254  39.979   5.920
 5571POPC   C1A69975  38.589  40.245   6.131
 5571POPC   D2A69976  38.337  40.093   6.514
 5571POPC   C3A69977  38.538  39.932   6.883
 5571POPC   C4A69978  38.466  39.738   7.294
 5571POPC   C1B69979  37.932  40.206   6.206
 5571POPC   C2B69980  37.848  40.369   6.651
 5571POPC   C3B69981  38.016  40.414   7.102
 5571POPC   C4B69982  38.087  40.409   7.589
 5572POPC   NC369983  39.317  36.756   5.564
 5572POPC   PO469984  39.129  36.202   5.316
 5572POPC   GL169985  39.288  36.068   5.727
 5572POPC   GL269986  38.976  35.934   5.901
 5572POPC   C1A69987  39.454  36.029   6.134
 5572POPC   D2A69988  39.374  36.229   6.519
 5572POPC   C3A69989  39.507  36.049   6.919
 5572POPC   C4A69990  39.446  36.291   7.274
 5572POPC   C1B69991  38.721  35.807   6.240
 5572POPC   C2B69992  38.946  35.960   6.563
 5572POPC   C3B69993  39.005  36.146   6.952
 5572POPC   C4B69994  39.077  35.917   7.313
 5573POPC   NC369995  31.800  38.197   5.298
 5573POPC   PO469996  31.188  38.132   5.410
 5573POPC   GL169997  31.498  38.394   5.687
 5573POPC   GL269998  31.301  38.266   5.946
 5573POPC   C1A69999  31.646  38.584   6.107
 5573POPC   D2A70000  31.551  38.843   6.490
 5573POPC   C3A70001  31.438  38.628   6.851
 5573POPC   C4A70002  31.587  38.639   7.253
 5573POPC   C1B70003  31.310  38.326   6.410
 5573POPC   C2B70004  31.431  38.109   6.779
 5573POPC   C3B70005  31.426  37.980   7.199
 5573POPC   C4B70006  31.322  38.284   7.508
 5574POPC   NC370007  40.000  19.398   5.397
 5574POPC   PO470008  39.555  18.927   5.456
 5574POPC   GL170009  39.795  19.033   5.841
 5574POPC   GL270010  40.139  19.155   5.846
 5574POPC   C1A70011  39.773  19.197   6.270
 5574POPC   D2A70012  39.606  19.223   6.699
 5574POPC   C3A70013  39.933  19.148   7.024
 5574POPC   C4A70014  40.026  19.069   7.477
 5574POPC   C1B70015  40.191  18.870   6.197
 5574POPC   C2B70016  40.388  18.895   6.611
 5574POPC   C3B70017  40.458  19.080   6.993
 5574POPC   C4B70018  40.291  18.741   7.183
 5575POPC   NC370019  17.759   2.052   5.391
 5575POPC   PO470020  17.042   1.905   5.279
 5575POPC   GL170021  17.288   1.938   5.714
 5575POPC   GL270022  17.555   2.215   5.837
 5575POPC   C1A70023  17.384   1.878   6.182
 5575POPC   D2A70024  17.181   2.075   6.539
 5575POPC   C3A70025  17.318   1.973   6.937
 5575POPC   C4A70026  17.554   2.194   7.268
 5575POPC   C1B70027  17.879   1.900   6.056
 5575POPC   C2B70028  17.959   1.618   6.451
 5575POPC   C3B70029  17.798   1.685   6.901
 5575POPC   C4B70030  17.936   1.861   7.321
 5576POPC   NC370031   6.595  40.312   5.420
 5576POPC   PO470032   6.954  39.754   5.296
 5576POPC   GL170033   6.618  39.844   5.660
 5576POPC   GL270034   6.662  40.144   5.896
 5576POPC   C1A70035   6.403  39.761   6.081
 5576POPC   D2A70036   6.398  39.624   6.514
 5576POPC   C3A70037   6.592  39.761   6.892
 5576POPC   C4A70038   6.520  39.614   7.319
 5576POPC   C1B70039   6.941  40.355   6.215
 5576POPC   C2B70040   6.946  40.463   6.635
 5576POPC   C3B70041   6.974  40.354   7.049
 5576POPC   C4B70042   6.972  40.369   7.487
 5577POPC   NC370043  26.772  24.687   5.602
 5577POPC   PO470044  26.689  25.208   5.175
 5577POPC   GL170045  26.731  25.164   5.698
 5577POPC   GL270046  26.814  25.405   5.873
 5577POPC   C1A70047  26.783  25.002   6.199
 5577POPC   D2A70048  26.804  25.175   6.642
 5577POPC   C3A70049  27.046  25.217   7.032
 5577POPC   C4A70050  26.811  25.253   7.438
 5577POPC   C1B70051  26.671  25.511   6.261
 5577POPC   C2B70052  26.848  25.688   6.616
 5577POPC   C3B70053  26.696  25.587   6.988
 5577POPC   C4B70054  26.428  25.531   7.270
 5578POPC   NC370055  34.958  31.370   5.286
 5578POPC   PO470056  34.300  31.496   5.365
 5578POPC   GL170057  34.517  31.260   5.716
 5578POPC   GL270058  34.831  31.430   5.791
 5578POPC   C1A70059  34.603  31.133   6.170
 5578POPC   D2A70060  34.479  31.307   6.566
 5578POPC   C3A70061  34.648  31.267   6.995
 5578POPC   C4A70062  34.652  31.425   7.434
 5578POPC   C1B70063  34.737  31.628   6.210
 5578POPC   C2B70064  34.702  31.800   6.648
 5578POPC   C3B70065  34.866  31.732   7.083
 5578POPC   C4B70066  35.015  31.759   7.535
 5579POPC   NC370067  41.306  30.622   5.222
 5579POPC   PO470068  41.918  30.499   5.350
 5579POPC   GL170069  41.673  30.438   5.769
 5579POPC   GL270070  41.290  30.498   5.742
 5579POPC   C1A70071  41.675  30.606   6.217
 5579POPC   D2A70072  41.865  30.856   6.598
 5579POPC   C3A70073  41.634  30.756   7.018
 5579POPC   C4A70074  41.428  30.354   7.136
 5579POPC   C1B70075  41.200  30.735   6.123
 5579POPC   C2B70076  41.351  30.835   6.548
 5579POPC   C3B70077  41.139  30.946   6.888
 5579POPC   C4B70078  41.088  30.723   7.255
 5580POPC   NC370079  20.771   3.692   5.447
 5580POPC   PO470080  20.206   3.851   5.644
 5580POPC   GL170081  20.314   3.444   5.839
 5580POPC   GL270082  20.687   3.321   5.826
 5580POPC   C1A70083  20.428   3.527   6.269
 5580POPC   D2A70084  20.693   3.729   6.572
 5580POPC   C3A70085  20.569   3.608   6.979
 5580POPC   C4A70086  20.242   3.718   7.242
 5580POPC   C1B70087  20.942   3.388   6.236
 5580POPC   C2B70088  21.078   3.373   6.681
 5580POPC   C3B70089  21.022   3.450   7.159
 5580POPC   C4B70090  21.043   3.174   7.570
 5581POPC   NC370091   9.195  43.315   5.161
 5581POPC   PO470092   9.143  42.717   5.565
 5581POPC   GL170093   8.983  43.049   5.793
 5581POPC   GL270094   8.630  43.106   5.685
 5581POPC   C1A70095   9.070  43.128   6.242
 5581POPC   D2A70096   9.288  43.403   6.544
 5581POPC   C3A70097   9.111  43.220   6.865
 5581POPC   C4A70098   8.818  43.251   7.155
 5581POPC   C1B70099   8.602  42.934   6.136
 5581POPC   C2B70100   8.659  43.089   6.580
 5581POPC   C3B70101   8.493  42.896   6.964
 5581POPC   C4B70102   8.504  42.938   7.408
 5582POPC   NC370103  39.677  16.122   5.447
 5582POPC   PO470104  40.256  15.730   5.582
 5582POPC   GL170105  39.976  15.940   5.849
 5582POPC   GL270106  40.066  16.257   5.806
 5582POPC   C1A70107  39.933  15.837   6.279
 5582POPC   D2A70108  40.213  15.606   6.569
 5582POPC   C3A70109  40.128  15.652   7.001
 5582POPC   C4A70110  39.836  15.896   7.191
 5582POPC   C1B70111  39.839  16.330   6.174
 5582POPC   C2B70112  39.989  16.231   6.612
 5582POPC   C3B70113  39.868  16.366   7.009
 5582POPC   C4B70114  39.839  16.352   7.475
 5583POPC   NC370115  29.599  36.375   5.340
 5583POPC   PO470116  28.964  35.974   5.428
 5583POPC   GL170117  29.167  36.022   5.802
 5583POPC   GL270118  29.306  36.324   5.783
 5583POPC   C1A70119  29.015  36.146   6.230
 5583POPC   D2A70120  29.114  36.370   6.625
 5583POPC   C3A70121  29.143  36.138   6.994
 5583POPC   C4A70122  29.015  36.059   7.410
 5583POPC   C1B70123  29.520  36.106   6.157
 5583POPC   C2B70124  29.552  36.088   6.592
 5583POPC   C3B70125  29.647  36.208   7.001
 5583POPC   C4B70126  29.502  35.952   7.348
 5584POPC   NC370127  42.535  33.156   5.497
 5584POPC   PO470128  43.203  33.258   5.490
 5584POPC   GL170129  42.915  33.084   5.847
 5584POPC   GL270130  42.733  32.751   5.869
 5584POPC   C1A70131  42.875  33.030   6.299
 5584POPC   D2A70132  42.843  32.918   6.725
 5584POPC   C3A70133  43.219  33.018   6.954
 5584POPC   C4A70134  43.139  33.103   7.359
 5584POPC   C1B70135  43.011  32.533   6.208
 5584POPC   C2B70136  43.232  32.596   6.632
 5584POPC   C3B70137  43.076  32.552   7.090
 5584POPC   C4B70138  43.192  32.619   7.575
 5585POPC   NC370139  21.963  38.907   5.371
 5585POPC   PO470140  22.300  39.497   5.370
 5585POPC   GL170141  22.133  39.291   5.733
 5585POPC   GL270142  22.330  39.007   5.746
 5585POPC   C1A70143  22.042  39.299   6.191
 5585POPC   D2A70144  22.140  39.588   6.546
 5585POPC   C3A70145  22.052  39.536   6.996
 5585POPC   C4A70146  22.056  39.250   7.365
 5585POPC   C1B70147  22.495  39.032   6.156
 5585POPC   C2B70148  22.284  39.006   6.556
 5585POPC   C3B70149  22.344  39.101   6.982
 5585POPC   C4B70150  22.397  38.890   7.395
 5586POPC   NC370151  12.279  29.940   5.561
 5586POPC   PO470152  11.751  29.460   5.507
 5586POPC   GL170153  11.938  29.644   5.895
 5586POPC   GL270154  11.801  30.003   5.949
 5586POPC   C1A70155  11.923  29.758   6.371
 5586POPC   D2A70156  11.765  30.172   6.505
 5586POPC   C3A70157  11.752  30.217   6.941
 5586POPC   C4A70158  11.823  29.894   7.223
 5586POPC   C1B70159  12.190  30.143   6.181
 5586POPC   C2B70160  12.451  29.934   6.510
 5586POPC   C3B70161  12.245  29.906   6.905
 5586POPC   C4B70162  12.213  30.239   7.215
 5587POPC   NC370163   8.246  21.897   5.398
 5587POPC   PO470164   8.062  22.492   5.542
 5587POPC   GL170165   8.071  22.115   5.828
 5587POPC   GL270166   8.421  21.943   5.882
 5587POPC   C1A70167   8.027  21.850   6.192
 5587POPC   D2A70168   8.158  21.813   6.620
 5587POPC   C3A70169   8.090  22.138   6.948
 5587POPC   C4A70170   8.018  22.308   7.380
 5587POPC   C1B70171   8.473  22.123   6.323
 5587POPC   C2B70172   8.561  22.239   6.765
 5587POPC   C3B70173   8.520  22.260   7.182
 5587POPC   C4B70174   8.490  22.384   7.611
 5588POPC   NC370175  15.722  31.674   5.430
 5588POPC   PO470176  16.214  31.361   5.488
 5588POPC   GL170177  15.900  31.417   5.840
 5588POPC   GL270178  15.686  31.726   5.917
 5588POPC   C1A70179  15.904  31.246   6.247
 5588POPC   D2A70180  15.968  31.437   6.644
 5588POPC   C3A70181  15.952  31.145   7.019
 5588POPC   C4A70182  16.345  31.143   7.227
 5588POPC   C1B70183  15.572  31.631   6.317
 5588POPC   C2B70184  15.349  31.569   6.674
 5588POPC   C3B70185  15.648  31.567   7.008
 5588POPC   C4B70186  16.078  31.606   7.187
 5589POPC   NC370187   7.923  19.132   5.421
 5589POPC   PO470188   8.542  19.226   5.184
 5589POPC   GL170189   8.394  19.153   5.658
 5589POPC   GL270190   8.212  19.445   5.757
 5589POPC   C1A70191   8.209  19.106   6.134
 5589POPC   D2A70192   8.274  18.922   6.566
 5589POPC   C3A70193   8.094  19.067   6.935
 5589POPC   C4A70194   8.359  18.976   7.276
 5589POPC   C1B70195   8.281  19.640   6.161
 5589POPC   C2B70196   8.205  19.474   6.582
 5589POPC   C3B70197   8.425  19.463   6.972
 5589POPC   C4B70198   8.260  19.451   7.364
 5590POPC   NC370199  36.063  38.632   5.520
 5590POPC   PO470200  36.370  37.991   5.441
 5590POPC   GL170201  36.406  38.291   5.765
 5590POPC   GL270202  36.708  38.155   5.846
 5590POPC   C1A70203  36.188  38.453   6.153
 5590POPC   D2A70204  36.016  38.435   6.577
 5590POPC   C3A70205  36.056  38.735   6.913
 5590POPC   C4A70206  35.629  38.788   7.069
 5590POPC   C1B70207  36.466  37.971   6.195
 5590POPC   C2B70208  36.311  37.995   6.627
 5590POPC   C3B70209  36.344  38.282   6.944
 5590POPC   C4B70210  36.328  38.238   7.348
 5591POPC   NC370211   6.925  26.818   5.408
 5591POPC   PO470212   6.249  26.676   5.453
 5591POPC   GL170213   6.521  26.692   5.808
 5591POPC   GL270214   6.734  26.941   5.866
 5591POPC   C1A70215   6.420  26.798   6.238
 5591POPC   D2A70216   6.633  26.743   6.589
 5591POPC   C3A70217   6.392  26.684   6.953
 5591POPC   C4A70218   6.496  26.452   7.301
 5591POPC   C1B70219   6.962  27.048   6.226
 5591POPC   C2B70220   7.092  26.969   6.636
 5591POPC   C3B70221   6.791  27.024   6.984
 5591POPC   C4B70222   6.533  26.990   7.361
 5592POPC   NC370223   1.272  38.870   5.449
 5592POPC   PO470224   0.703  39.131   5.083
 5592POPC   GL170225   0.893  39.129   5.645
 5592POPC   GL270226   0.991  38.820   5.867
 5592POPC   C1A70227   1.121  39.243   6.133
 5592POPC   D2A70228   1.203  39.121   6.569
 5592POPC   C3A70229   1.380  39.273   6.936
 5592POPC   C4A70230   1.212  39.362   7.331
 5592POPC   C1B70231   1.358  38.774   6.156
 5592POPC   C2B70232   1.551  38.751   6.566
 5592POPC   C3B70233   1.455  38.767   6.997
 5592POPC   C4B70234   1.508  38.932   7.443
 5593POPC   NC370235  35.151  44.371   5.335
 5593POPC   PO470236  35.378   0.116   5.377
 5593POPC   GL170237  35.412   0.014   5.794
 5593POPC   GL270238  35.099  44.840   5.782
 5593POPC   C1A70239  35.479  44.760   6.168
 5593POPC   D2A70240  35.624  44.499   6.486
 5593POPC   C3A70241  35.608  44.718   6.837
 5593POPC   C4A70242  35.476  44.686   7.221
 5593POPC   C1B70243  35.000  44.647   6.179
 5593POPC   C2B70244  35.146  44.710   6.584
 5593POPC   C3B70245  35.091  44.501   6.955
 5593POPC   C4B70246  34.968  44.754   7.295
 5594POPC   NC370247   4.962  11.427   5.253
 5594POPC   PO470248   5.089  10.822   5.379
 5594POPC   GL170249   5.116  11.180   5.754
 5594POPC   GL270250   4.904  11.508   5.756
 5594POPC   C1A70251   5.256  11.300   6.232
 5594POPC   D2A70252   5.239  11.005   6.634
 5594POPC   C3A70253   5.035  11.161   7.005
 5594POPC   C4A70254   5.295  11.456   7.174
 5594POPC   C1B70255   4.774  11.378   6.156
 5594POPC   C2B70256   4.798  11.476   6.612
 5594POPC   C3B70257   4.717  11.602   7.047
 5594POPC   C4B70258   4.769  11.426   7.495
 5595POPC   NC370259  10.269   8.321   5.130
 5595POPC   PO470260   9.835   8.544   5.594
 5595POPC   GL170261   9.873   8.186   5.821
 5595POPC   GL270262   9.563   8.187   6.001
 5595POPC   C1A70263  10.002   8.152   6.253
 5595POPC   D2A70264   9.771   8.144   6.608
 5595POPC   C3A70265   9.904   8.370   6.950
 5595POPC   C4A70266   9.766   8.390   7.313
 5595POPC   C1B70267   9.295   7.960   6.248
 5595POPC   C2B70268   9.258   8.142   6.640
 5595POPC   C3B70269   9.396   8.175   7.039
 5595POPC   C4B70270   9.244   8.360   7.413
 5596POPC   NC370271   9.879  29.122   5.442
 5596POPC   PO470272   9.253  28.984   5.296
 5596POPC   GL170273   9.454  29.214   5.710
 5596POPC   GL270274   9.763  29.476   5.781
 5596POPC   C1A70275   9.676  29.112   6.120
 5596POPC   D2A70276   9.616  29.008   6.560
 5596POPC   C3A70277   9.648  28.739   6.906
 5596POPC   C4A70278   9.711  29.004   7.280
 5596POPC   C1B70279  10.061  29.478   6.137
 5596POPC   C2B70280  10.148  29.132   6.433
 5596POPC   C3B70281  10.085  29.002   6.866
 5596POPC   C4B70282  10.160  29.258   7.229
 5597POPC   NC370283  28.807  31.692   5.457
 5597POPC   PO470284  29.394  31.335   5.488
 5597POPC   GL170285  29.298  31.518   5.848
 5597POPC   GL270286  28.969  31.395   5.835
 5597POPC   C1A70287  29.217  31.481   6.286
 5597POPC   D2A70288  29.038  31.678   6.634
 5597POPC   C3A70289  29.332  31.723   6.965
 5597POPC   C4A70290  29.140  31.642   7.340
 5597POPC   C1B70291  28.930  31.084   6.146
 5597POPC   C2B70292  28.882  31.179   6.599
 5597POPC   C3B70293  29.095  31.225   7.022
 5597POPC   C4B70294  29.126  31.159   7.498
 5598POPC   NC370295  27.902  19.424   5.421
 5598POPC   PO470296  27.396  19.821   5.453
 5598POPC   GL170297  27.419  19.801   5.856
 5598POPC   GL270298  27.742  19.664   5.852
 5598POPC   C1A70299  27.507  19.889   6.270
 5598POPC   D2A70300  27.327  20.086   6.629
 5598POPC   C3A70301  27.496  19.909   7.023
 5598POPC   C4A70302  27.783  20.075   7.336
 5598POPC   C1B70303  27.902  19.523   6.239
 5598POPC   C2B70304  27.731  19.586   6.638
 5598POPC   C3B70305  27.743  19.293   6.962
 5598POPC   C4B70306  27.639  19.488   7.327
 5599POPC   NC370307   2.657  28.446   5.363
 5599POPC   PO470308   3.029  27.974   5.594
 5599POPC   GL170309   2.805  28.293   5.854
 5599POPC   GL270310   2.776  28.676   5.806
 5599POPC   C1A70311   2.819  28.327   6.310
 5599POPC   D2A70312   2.933  28.173   6.707
 5599POPC   C3A70313   2.890  28.455   7.026
 5599POPC   C4A70314   2.470  28.310   7.090
 5599POPC   C1B70315   2.443  28.603   6.108
 5599POPC   C2B70316   2.441  28.562   6.580
 5599POPC   C3B70317   2.511  28.797   6.971
 5599POPC   C4B70318   2.598  28.640   7.428
 5600POPC   NC370319  13.266  29.781   5.606
 5600POPC   PO470320  12.729  30.240   5.381
 5600POPC   GL170321  12.849  30.021   5.731
 5600POPC   GL270322  13.167  30.212   5.845
 5600POPC   C1A70323  12.771  29.771   6.107
 5600POPC   D2A70324  12.968  29.653   6.497
 5600POPC   C3A70325  12.727  29.637   6.889
 5600POPC   C4A70326  12.624  29.896   7.244
 5600POPC   C1B70327  13.161  30.095   6.244
 5600POPC   C2B70328  12.933  30.170   6.594
 5600POPC   C3B70329  13.032  30.056   6.979
 5600POPC   C4B70330  13.178  30.224   7.324
 5601POPC   NC370331  13.147  27.012   5.213
 5601POPC   PO470332  12.633  26.543   5.304
 5601POPC   GL170333  12.731  26.818   5.660
 5601POPC   GL270334  12.685  26.528   5.856
 5601POPC   C1A70335  12.935  26.927   6.091
 5601POPC   D2A70336  13.005  26.809   6.553
 5601POPC   C3A70337  12.655  26.826   6.868
 5601POPC   C4A70338  12.695  27.088   7.237
 5601POPC   C1B70339  12.965  26.429   6.196
 5601POPC   C2B70340  12.760  26.352   6.585
 5601POPC   C3B70341  12.958  26.394   6.971
 5601POPC   C4B70342  12.814  26.596   7.322
 5602POPC   NC370343   0.888   6.035   5.430
 5602POPC   PO470344   1.410   5.728   5.492
 5602POPC   GL170345   1.278   6.029   5.842
 5602POPC   GL270346   1.152   5.760   6.015
 5602POPC   C1A70347   1.497   6.061   6.284
 5602POPC   D2A70348   1.462   5.766   6.643
 5602POPC   C3A70349   1.306   5.593   7.058
 5602POPC   C4A70350   1.150   5.758   7.460
 5602POPC   C1B70351   1.000   5.981   6.373
 5602POPC   C2B70352   1.001   6.298   6.707
 5602POPC   C3B70353   0.975   6.047   7.082
 5602POPC   C4B70354   0.771   5.618   7.128
 5603POPC   NC370355   2.911  43.378   5.513
 5603POPC   PO470356   2.714  42.820   5.492
 5603POPC   GL170357   2.698  42.966   5.904
 5603POPC   GL270358   2.623  43.315   5.927
 5603POPC   C1A70359   2.801  42.930   6.365
 5603POPC   D2A70360   2.891  42.934   6.800
 5603POPC   C3A70361   2.647  43.161   7.069
 5603POPC   C4A70362   2.633  43.042   7.501
 5603POPC   C1B70363   3.063  43.288   6.127
 5603POPC   C2B70364   3.123  43.337   6.559
 5603POPC   C3B70365   3.119  43.403   7.000
 5603POPC   C4B70366   2.949  43.423   7.411
 5604POPC   NC370367  25.980  10.637   5.334
 5604POPC   PO470368  25.926  11.353   5.245
 5604POPC   GL170369  26.124  11.344   5.694
 5604POPC   GL270370  26.311  10.999   5.715
 5604POPC   C1A70371  26.125  11.556   6.107
 5604POPC   D2A70372  25.831  11.498   6.452
 5604POPC   C3A70373  26.016  11.468   6.855
 5604POPC   C4A70374  25.869  11.500   7.247
 5604POPC   C1B70375  26.057  11.030   6.113
 5604POPC   C2B70376  26.031  11.011   6.562
 5604POPC   C3B70377  25.874  10.993   6.967
 5604POPC   C4B70378  26.119  11.068   7.290
 5605POPC   NC370379   2.164  41.270   5.302
 5605POPC   PO470380   1.645  41.696   5.407
 5605POPC   GL170381   2.035  41.688   5.650
 5605POPC   GL270382   1.877  41.402   5.764
 5605POPC   C1A70383   2.270  41.659   6.059
 5605POPC   D2A70384   2.138  41.569   6.480
 5605POPC   C3A70385   2.281  41.713   6.856
 5605POPC   C4A70386   2.240  41.442   7.215
 5605POPC   C1B70387   1.771  41.631   6.134
 5605POPC   C2B70388   1.619  41.465   6.506
 5605POPC   C3B70389   1.780  41.547   6.914
 5605POPC   C4B70390   1.711  41.359   7.305
 5606POPC   NC370391  11.443  29.136   5.618
 5606POPC   PO470392  10.783  29.223   5.512
 5606POPC   GL170393  10.974  28.996   5.844
 5606POPC   GL270394  11.255  28.717   5.818
 5606POPC   C1A70395  11.126  29.211   6.195
 5606POPC   D2A70396  11.332  29.253   6.552
 5606POPC   C3A70397  11.074  29.159   6.892
 5606POPC   C4A70398  11.181  29.267   7.279
 5606POPC   C1B70399  11.517  28.853   6.191
 5606POPC   C2B70400  11.679  28.887   6.628
 5606POPC   C3B70401  11.547  28.974   7.025
 5606POPC   C4B70402  11.502  28.627   7.303
 5607POPC   NC370403  12.304  16.381   5.667
 5607POPC   PO470404  12.287  15.851   5.235
 5607POPC   GL170405  11.940  16.048   5.617
 5607POPC   GL270406  11.821  16.336   5.822
 5607POPC   C1A70407  11.857  15.930   6.110
 5607POPC   D2A70408  12.157  15.880   6.455
 5607POPC   C3A70409  12.014  15.972   6.854
 5607POPC   C4A70410  12.127  15.973   7.288
 5607POPC   C1B70411  12.033  16.410   6.257
 5607POPC   C2B70412  12.349  16.357   6.600
 5607POPC   C3B70413  12.312  16.356   7.038
 5607POPC   C4B70414  12.421  16.406   7.483
 5608POPC   NC370415  38.986  21.651   5.451
 5608POPC   PO470416  38.372  21.417   5.457
 5608POPC   GL170417  38.485  21.404   5.839
 5608POPC   GL270418  38.721  21.662   5.875
 5608POPC   C1A70419  38.628  21.230   6.195
 5608POPC   D2A70420  38.752  21.322   6.584
 5608POPC   C3A70421  38.445  21.244   6.886
 5608POPC   C4A70422  38.437  21.348   7.292
 5608POPC   C1B70423  38.617  21.736   6.287
 5608POPC   C2B70424  38.355  21.716   6.656
 5608POPC   C3B70425  38.479  21.822   7.062
 5608POPC   C4B70426  38.487  21.784   7.534
 5609POPC   NC370427  32.361  12.734   5.237
 5609POPC   PO470428  31.867  13.092   5.490
 5609POPC   GL170429  32.110  12.890   5.812
 5609POPC   GL270430  32.457  12.882   5.736
 5609POPC   C1A70431  32.007  12.913   6.244
 5609POPC   D2A70432  31.967  12.653   6.588
 5609POPC   C3A70433  32.108  12.839   6.949
 5609POPC   C4A70434  31.908  12.864   7.356
 5609POPC   C1B70435  32.720  12.658   6.046
 5609POPC   C2B70436  32.637  12.655   6.499
 5609POPC   C3B70437  32.631  12.768   6.939
 5609POPC   C4B70438  32.559  12.495   7.301
 5610POPC   NC370439  42.761  26.127   5.559
 5610POPC   PO470440  43.339  25.931   5.275
 5610POPC   GL170441  43.245  25.983   5.753
 5610POPC   GL270442  42.944  25.955   5.985
 5610POPC   C1A70443  43.357  26.086   6.223
 5610POPC   D2A70444  43.233  25.864   6.591
 5610POPC   C3A70445  43.196  26.045   7.004
 5610POPC   C4A70446  43.323  25.881   7.374
 5610POPC   C1B70447  42.896  26.335   6.236
 5610POPC   C2B70448  42.946  26.343   6.682
 5610POPC   C3B70449  42.780  26.348   7.105
 5610POPC   C4B70450  42.639  26.354   7.569
 5611POPC   NC370451   1.606   2.370   5.406
 5611POPC   PO470452   1.967   1.796   5.288
 5611POPC   GL170453   2.064   2.004   5.674
 5611POPC   GL270454   2.223   1.719   5.763
 5611POPC   C1A70455   1.875   2.093   6.092
 5611POPC   D2A70456   1.759   1.894   6.504
 5611POPC   C3A70457   1.835   2.158   6.862
 5611POPC   C4A70458   1.946   2.097   7.283
 5611POPC   C1B70459   2.085   1.619   6.150
 5611POPC   C2B70460   2.109   1.492   6.530
 5611POPC   C3B70461   2.054   1.698   6.929
 5611POPC   C4B70462   2.351   1.763   7.253
 5612POPC   NC370463   0.012  37.919   5.568
 5612POPC   PO470464  44.589  37.452   5.407
 5612POPC   GL170465  44.708  37.315   5.788
 5612POPC   GL270466  44.636  37.672   5.896
 5612POPC   C1A70467  44.921  37.349   6.173
 5612POPC   D2A70468  44.698  37.651   6.455
 5612POPC   C3A70469  44.506  37.520   6.852
 5612POPC   C4A70470  44.761  37.637   7.188
 5612POPC   C1B70471  44.281  37.831   6.139
 5612POPC   C2B70472  44.264  37.962   6.561
 5612POPC   C3B70473  44.454  38.038   6.948
 5612POPC   C4B70474  44.296  37.811   7.287
 5613POPC   NC370475  41.221  16.499   5.393
 5613POPC   PO470476  41.556  17.078   5.405
 5613POPC   GL170477  41.406  16.839   5.744
 5613POPC   GL270478  41.666  16.570   5.778
 5613POPC   C1A70479  41.385  16.765   6.198
 5613POPC   D2A70480  41.693  16.611   6.492
 5613POPC   C3A70481  41.662  16.872   6.884
 5613POPC   C4A70482  41.259  17.001   7.018
 5613POPC   C1B70483  41.390  16.292   6.013
 5613POPC   C2B70484  41.301  16.256   6.433
 5613POPC   C3B70485  41.253  16.547   6.762
 5613POPC   C4B70486  41.393  16.519   7.177
 5614POPC   NC370487  17.281  17.892   5.257
 5614POPC   PO470488  17.727  17.489   5.515
 5614POPC   GL170489  17.372  17.559   5.850
 5614POPC   GL270490  17.162  17.895   5.813
 5614POPC   C1A70491  17.381  17.351   6.285
 5614POPC   D2A70492  17.721  17.408   6.627
 5614POPC   C3A70493  17.527  17.431   7.034
 5614POPC   C4A70494  17.638  17.680   7.373
 5614POPC   C1B70495  17.335  17.939   6.255
 5614POPC   C2B70496  17.319  17.731   6.655
 5614POPC   C3B70497  17.253  17.890   7.075
 5614POPC   C4B70498  17.124  17.669   7.459
 5615POPC   NC370499  44.474  11.559   5.588
 5615POPC   PO470500  44.748  10.901   5.520
 5615POPC   GL170501  44.664  11.135   5.863
 5615POPC   GL270502  44.935  11.395   5.799
 5615POPC   C1A70503  44.576  10.968   6.299
 5615POPC   D2A70504  44.314  11.088   6.662
 5615POPC   C3A70505  44.497  11.273   7.016
 5615POPC   C4A70506  44.285  11.618   7.186
 5615POPC   C1B70507   0.061  11.196   6.204
 5615POPC   C2B70508  44.871  11.300   6.617
 5615POPC   C3B70509  44.721  11.702   6.820
 5615POPC   C4B70510  44.765  11.755   7.262
 5616POPC   NC370511  32.125   2.299   5.510
 5616POPC   PO470512  32.384   1.743   5.352
 5616POPC   GL170513  32.403   1.838   5.787
 5616POPC   GL270514  32.523   2.181   5.833
 5616POPC   C1A70515  32.133   1.851   6.173
 5616POPC   D2A70516  31.930   1.927   6.612
 5616POPC   C3A70517  32.192   1.902   7.010
 5616POPC   C4A70518  32.302   1.768   7.426
 5616POPC   C1B70519  32.407   2.265   6.265
 5616POPC   C2B70520  32.212   2.362   6.717
 5616POPC   C3B70521  31.962   2.334   7.139
 5616POPC   C4B70522  32.012   2.170   7.583
 5617POPC   NC370523  27.319   9.517   5.631
 5617POPC   PO470524  26.898   9.982   5.465
 5617POPC   GL170525  26.955   9.795   5.852
 5617POPC   GL270526  26.660   9.808   5.898
 5617POPC   C1A70527  26.968   9.781   6.301
 5617POPC   D2A70528  27.087   9.556   6.655
 5617POPC   C3A70529  26.950   9.760   7.016
 5617POPC   C4A70530  26.563   9.803   7.233
 5617POPC   C1B70531  26.446   9.869   6.277
 5617POPC   C2B70532  26.608   9.959   6.681
 5617POPC   C3B70533  26.415  10.229   6.973
 5617POPC   C4B70534  26.151  10.135   7.282
 5618POPC   NC370535  28.153  42.211   5.536
 5618POPC   PO470536  28.400  42.849   5.359
 5618POPC   GL170537  28.354  42.618   5.824
 5618POPC   GL270538  28.536  42.264   5.890
 5618POPC   C1A70539  28.307  42.434   6.290
 5618POPC   D2A70540  28.176  42.169   6.656
 5618POPC   C3A70541  28.250  42.385   7.057
 5618POPC   C4A70542  28.389  42.582   7.424
 5618POPC   C1B70543  28.557  41.990   6.296
 5618POPC   C2B70544  28.651  42.009   6.768
 5618POPC   C3B70545  28.341  41.890   7.101
 5618POPC   C4B70546  28.268  42.074   7.510
 5619POPC   NC370547  17.775  30.724   5.329
 5619POPC   PO470548  17.171  30.555   5.509
 5619POPC   GL170549  17.496  30.590   5.737
 5619POPC   GL270550  17.579  30.914   5.782
 5619POPC   C1A70551  17.667  30.481   6.098
 5619POPC   D2A70552  17.799  30.668   6.466
 5619POPC   C3A70553  17.560  30.509   6.796
 5619POPC   C4A70554  17.464  30.502   7.240
 5619POPC   C1B70555  17.365  30.874   6.200
 5619POPC   C2B70556  17.475  31.044   6.598
 5619POPC   C3B70557  17.657  30.990   7.010
 5619POPC   C4B70558  17.315  31.218   7.189
 5620POPC   NC370559  35.591  10.721   5.286
 5620POPC   PO470560  35.243  10.173   5.376
 5620POPC   GL170561  35.412  10.486   5.735
 5620POPC   GL270562  35.595  10.785   5.815
 5620POPC   C1A70563  35.662  10.407   6.158
 5620POPC   D2A70564  35.739  10.348   6.622
 5620POPC   C3A70565  35.384  10.305   6.949
 5620POPC   C4A70566  35.364  10.465   7.408
 5620POPC   C1B70567  35.282  10.766   6.187
 5620POPC   C2B70568  35.333  10.692   6.636
 5620POPC   C3B70569  35.420  10.837   7.064
 5620POPC   C4B70570  35.171  10.942   7.440
 5621POPC   NC370571  43.471   3.566   5.447
 5621POPC   PO470572  42.847   3.554   5.210
 5621POPC   GL170573  42.848   3.652   5.698
 5621POPC   GL270574  43.181   3.753   5.801
 5621POPC   C1A70575  42.914   3.630   6.190
 5621POPC   D2A70576  43.171   3.478   6.552
 5621POPC   C3A70577  43.045   3.532   6.979
 5621POPC   C4A70578  43.004   3.557   7.448
 5621POPC   C1B70579  43.409   3.838   6.161
 5621POPC   C2B70580  43.419   3.938   6.560
 5621POPC   C3B70581  43.537   3.755   6.910
 5621POPC   C4B70582  43.487   3.477   7.211
 5622POPC   NC370583  37.251  24.705   5.394
 5622POPC   PO470584  36.891  24.230   5.368
 5622POPC   GL170585  36.774  24.350   5.783
 5622POPC   GL270586  36.869  24.693   5.774
 5622POPC   C1A70587  36.784  24.355   6.245
 5622POPC   D2A70588  36.915  24.585   6.634
 5622POPC   C3A70589  36.634  24.582   6.997
 5622POPC   C4A70590  36.603  24.210   7.239
 5622POPC   C1B70591  36.856  24.875   6.192
 5622POPC   C2B70592  36.671  25.020   6.578
 5622POPC   C3B70593  36.910  25.023   6.919
 5622POPC   C4B70594  37.095  24.725   7.182
 5623POPC   NC370595  30.668  10.690   5.427
 5623POPC   PO470596  30.396  10.010   5.431
 5623POPC   GL170597  30.500  10.322   5.734
 5623POPC   GL270598  30.827  10.267   5.723
 5623POPC   C1A70599  30.560  10.580   6.115
 5623POPC   D2A70600  30.801  10.561   6.484
 5623POPC   C3A70601  30.656  10.702   6.900
 5623POPC   C4A70602  30.484  10.650   7.295
 5623POPC   C1B70603  30.877  10.149   6.163
 5623POPC   C2B70604  31.094  10.171   6.562
 5623POPC   C3B70605  30.972  10.303   6.939
 5623POPC   C4B70606  30.979  10.523   7.327
 5624POPC   NC370607  18.863   3.074   5.549
 5624POPC   PO470608  18.821   3.749   5.511
 5624POPC   GL170609  18.825   3.687   5.887
 5624POPC   GL270610  18.719   3.396   5.925
 5624POPC   C1A70611  19.034   3.687   6.252
 5624POPC   D2A70612  19.368   3.535   6.494
 5624POPC   C3A70613  19.250   3.697   6.892
 5624POPC   C4A70614  19.340   3.560   7.321
 5624POPC   C1B70615  18.641   3.332   6.328
 5624POPC   C2B70616  18.973   3.206   6.588
 5624POPC   C3B70617  19.170   3.193   6.954
 5624POPC   C4B70618  18.941   3.233   7.309
 5625POPC   NC370619   2.744  29.080   5.453
 5625POPC   PO470620   3.037  29.733   5.448
 5625POPC   GL170621   3.013  29.397   5.795
 5625POPC   GL270622   3.170  29.054   5.812
 5625POPC   C1A70623   2.752  29.150   6.144
 5625POPC   D2A70624   2.825  29.013   6.603
 5625POPC   C3A70625   2.668  29.289   6.976
 5625POPC   C4A70626   2.501  29.115   7.375
 5625POPC   C1B70627   3.115  28.782   6.191
 5625POPC   C2B70628   3.188  28.602   6.603
 5625POPC   C3B70629   3.258  28.840   6.971
 5625POPC   C4B70630   2.947  28.955   7.217
 5626POPC   NC370631  13.090  36.887   5.291
 5626POPC   PO470632  12.491  37.215   5.454
 5626POPC   GL170633  12.778  36.969   5.697
 5626POPC   GL270634  13.084  37.155   5.720
 5626POPC   C1A70635  12.780  36.962   6.131
 5626POPC   D2A70636  12.543  37.229   6.412
 5626POPC   C3A70637  12.579  37.207   6.887
 5626POPC   C4A70638  12.607  36.867   7.178
 5626POPC   C1B70639  13.281  37.064   6.109
 5626POPC   C2B70640  13.163  36.867   6.465
 5626POPC   C3B70641  13.037  36.948   6.850
 5626POPC   C4B70642  13.163  36.691   7.197
 5627POPC   NC370643  44.284  34.017   5.272
 5627POPC   PO470644  43.837  33.497   5.384
 5627POPC   GL170645  43.816  33.809   5.658
 5627POPC   GL270646  44.136  33.863   5.756
 5627POPC   C1A70647  43.753  33.783   6.094
 5627POPC   D2A70648  43.841  33.612   6.498
 5627POPC   C3A70649  43.776  33.888   6.863
 5627POPC   C4A70650  43.822  34.128   7.234
 5627POPC   C1B70651  44.234  33.946   6.159
 5627POPC   C2B70652  44.065  34.125   6.520
 5627POPC   C3B70653  44.254  34.106   6.940
 5627POPC   C4B70654  44.351  33.778   7.240
 5628POPC   NC370655  18.477  28.504   5.311
 5628POPC   PO470656  19.105  28.275   5.390
 5628POPC   GL170657  19.111  28.481   5.796
 5628POPC   GL270658  18.817  28.502   5.968
 5628POPC   C1A70659  19.230  28.564   6.223
 5628POPC   D2A70660  19.378  28.608   6.611
 5628POPC   C3A70661  19.316  28.274   6.850
 5628POPC   C4A70662  19.393  28.289   7.253
 5628POPC   C1B70663  18.835  28.102   6.248
 5628POPC   C2B70664  18.920  27.933   6.655
 5628POPC   C3B70665  18.880  28.065   7.062
 5628POPC   C4B70666  18.914  28.431   7.295
 5629POPC   NC370667  29.797  41.417   5.291
 5629POPC   PO470668  30.329  41.642   5.483
 5629POPC   GL170669  30.048  41.371   5.780
 5629POPC   GL270670  29.689  41.249   5.814
 5629POPC   C1A70671  30.024  41.211   6.230
 5629POPC   D2A70672  30.005  41.335   6.689
 5629POPC   C3A70673  30.230  41.348   7.109
 5629POPC   C4A70674  30.595  41.581   7.293
 5629POPC   C1B70675  29.497  41.088   6.231
 5629POPC   C2B70676  29.534  41.126   6.712
 5629POPC   C3B70677  29.678  41.373   7.082
 5629POPC   C4B70678  29.855  41.564   7.480
 5630POPC   NC370679  28.573  28.613   5.376
 5630POPC   PO470680  28.267  29.264   5.442
 5630POPC   GL170681  28.165  29.158   5.857
 5630POPC   GL270682  27.898  29.366   5.897
 5630POPC   C1A70683  28.401  29.123   6.215
 5630POPC   D2A70684  28.644  29.304   6.493
 5630POPC   C3A70685  28.542  29.112   6.873
 5630POPC   C4A70686  28.226  29.015   7.172
 5630POPC   C1B70687  27.970  29.347   6.346
 5630POPC   C2B70688  28.235  29.553   6.620
 5630POPC   C3B70689  28.372  29.583   7.007
 5630POPC   C4B70690  28.200  29.482   7.362
 5631POPC   NC370691  38.811  24.276   5.423
 5631POPC   PO470692  39.401  23.720   5.515
 5631POPC   GL170693  39.240  23.887   5.865
 5631POPC   GL270694  39.040  23.619   5.976
 5631POPC   C1A70695  39.380  23.853   6.295
 5631POPC   D2A70696  39.275  23.532   6.633
 5631POPC   C3A70697  39.399  23.619   7.048
 5631POPC   C4A70698  39.278  23.956   7.264
 5631POPC   C1B70699  38.963  23.301   6.271
 5631POPC   C2B70700  38.921  23.126   6.683
 5631POPC   C3B70701  38.899  23.442   7.016
 5631POPC   C4B70702  39.026  23.550   7.431
 5632POPC   NC370703  14.322  15.618   5.397
 5632POPC   PO470704  14.798  16.097   5.449
 5632POPC   GL170705  14.498  16.048   5.776
 5632POPC   GL270706  14.641  16.393   5.865
 5632POPC   C1A70707  14.258  15.948   6.173
 5632POPC   D2A70708  14.229  16.261   6.552
 5632POPC   C3A70709  14.205  16.051   6.963
 5632POPC   C4A70710  14.296  15.675   7.262
 5632POPC   C1B70711  14.682  16.216   6.260
 5632POPC   C2B70712  14.578  15.889   6.572
 5632POPC   C3B70713  14.723  16.091   6.925
 5632POPC   C4B70714  14.583  16.116   7.331
 5633POPC   NC370715  15.950  33.278   5.294
 5633POPC   PO470716  15.422  33.280   5.624
 5633POPC   GL170717  15.820  33.090   5.783
 5633POPC   GL270718  15.843  32.750   5.991
 5633POPC   C1A70719  16.132  33.154   6.117
 5633POPC   D2A70720  16.027  33.240   6.534
 5633POPC   C3A70721  16.239  33.084   6.889
 5633POPC   C4A70722  16.125  32.907   7.308
 5633POPC   C1B70723  15.747  32.408   6.340
 5633POPC   C2B70724  15.597  32.477   6.730
 5633POPC   C3B70725  15.770  32.854   6.898
 5633POPC   C4B70726  15.539  32.899   7.235
 5634POPC   NC370727  42.142  40.240   5.529
 5634POPC   PO470728  42.670  39.941   5.570
 5634POPC   GL170729  42.307  39.892   5.857
 5634POPC   GL270730  42.162  39.569   5.957
 5634POPC   C1A70731  42.215  40.082   6.245
 5634POPC   D2A70732  42.531  40.146   6.597
 5634POPC   C3A70733  42.354  40.087   7.006
 5634POPC   C4A70734  42.177  40.353   7.319
 5634POPC   C1B70735  42.549  39.640   6.233
 5634POPC   C2B70736  42.802  39.705   6.611
 5634POPC   C3B70737  42.775  39.797   7.058
 5634POPC   C4B70738  42.675  39.557   7.400
 5635POPC   NC370739  39.435  17.847   5.518
 5635POPC   PO470740  39.294  17.264   5.271
 5635POPC   GL170741  39.181  17.420   5.680
 5635POPC   GL270742  39.486  17.388   5.839
 5635POPC   C1A70743  39.045  17.256   6.085
 5635POPC   D2A70744  38.931  17.325   6.512
 5635POPC   C3A70745  39.235  17.397   6.891
 5635POPC   C4A70746  39.141  17.622   7.288
 5635POPC   C1B70747  39.266  17.718   6.126
 5635POPC   C2B70748  39.213  17.797   6.558
 5635POPC   C3B70749  39.450  17.870   6.929
 5635POPC   C4B70750  39.645  17.692   7.321
 5636POPC   NC370751  17.233  13.545   5.370
 5636POPC   PO470752  17.732  13.972   5.425
 5636POPC   GL170753  17.504  13.746   5.778
 5636POPC   GL270754  17.493  13.353   5.786
 5636POPC   C1A70755  17.551  13.630   6.223
 5636POPC   D2A70756  17.285  13.631   6.579
 5636POPC   C3A70757  17.521  13.673   6.947
 5636POPC   C4A70758  17.835  13.712   7.249
 5636POPC   C1B70759  17.528  13.109   6.173
 5636POPC   C2B70760  17.599  13.198   6.618
 5636POPC   C3B70761  17.680  13.209   7.058
 5636POPC   C4B70762  17.465  13.396   7.410
 5637POPC   NC370763  31.964  32.968   5.444
 5637POPC   PO470764  31.276  33.137   5.472
 5637POPC   GL170765  31.369  33.044   5.895
 5637POPC   GL270766  31.655  33.218   6.078
 5637POPC   C1A70767  31.132  32.880   6.234
 5637POPC   D2A70768  31.043  33.054   6.631
 5637POPC   C3A70769  31.395  33.090   6.877
 5637POPC   C4A70770  31.328  33.053   7.301
 5637POPC   C1B70771  31.920  33.436   6.392
 5637POPC   C2B70772  31.766  33.523   6.810
 5637POPC   C3B70773  31.782  33.267   7.198
 5637POPC   C4B70774  31.661  33.282   7.648
 5638POPC   NC370775   1.364   7.606   5.236
 5638POPC   PO470776   0.907   7.204   5.597
 5638POPC   GL170777   1.137   7.397   5.881
 5638POPC   GL270778   1.481   7.534   5.817
 5638POPC   C1A70779   1.324   7.291   6.266
 5638POPC   D2A70780   1.357   7.532   6.642
 5638POPC   C3A70781   1.201   7.311   6.994
 5638POPC   C4A70782   1.389   6.934   7.137
 5638POPC   C1B70783   1.266   7.801   6.156
 5638POPC   C2B70784   1.026   7.923   6.548
 5638POPC   C3B70785   1.041   7.805   6.968
 5638POPC   C4B70786   1.381   7.829   7.241
 5639POPC   NC370787  14.357  43.384   5.615
 5639POPC   PO470788  14.152  42.771   5.457
 5639POPC   GL170789  14.420  42.924   5.798
 5639POPC   GL270790  14.678  42.730   5.888
 5639POPC   C1A70791  14.602  43.142   6.167
 5639POPC   D2A70792  14.633  43.449   6.523
 5639POPC   C3A70793  14.331  43.413   6.871
 5639POPC   C4A70794  14.446  43.387   7.303
 5639POPC   C1B70795  14.531  42.623   6.304
 5639POPC   C2B70796  14.533  42.932   6.614
 5639POPC   C3B70797  14.589  42.995   7.005
 5639POPC   C4B70798  14.335  42.858   7.305
 5640POPC   NC370799  38.581  43.454   5.445
 5640POPC   PO470800  38.140  42.950   5.407
 5640POPC   GL170801  38.346  43.023   5.818
 5640POPC   GL270802  38.677  43.181   5.856
 5640POPC   C1A70803  38.453  43.037   6.267
 5640POPC   D2A70804  38.689  42.877   6.581
 5640POPC   C3A70805  38.532  43.051   6.915
 5640POPC   C4A70806  38.305  43.116   7.267
 5640POPC   C1B70807  38.746  43.453   6.204
 5640POPC   C2B70808  38.630  43.459   6.626
 5640POPC   C3B70809  38.738  43.483   7.069
 5640POPC   C4B70810  38.629  43.414   7.530
 5641POPC   NC370811  13.750  34.365   5.548
 5641POPC   PO470812  13.404  34.828   5.452
 5641POPC   GL170813  13.457  34.707   5.856
 5641POPC   GL270814  13.329  34.371   5.865
 5641POPC   C1A70815  13.783  34.670   6.163
 5641POPC   D2A70816  13.902  34.533   6.573
 5641POPC   C3A70817  13.782  34.749   6.960
 5641POPC   C4A70818  13.556  35.101   7.130
 5641POPC   C1B70819  13.489  34.274   6.281
 5641POPC   C2B70820  13.424  34.380   6.726
 5641POPC   C3B70821  13.402  34.426   7.189
 5641POPC   C4B70822  13.351  34.339   7.678
 5642POPC   NC370823   2.917  22.517   5.372
 5642POPC   PO470824   2.515  23.044   5.502
 5642POPC   GL170825   2.787  22.816   5.793
 5642POPC   GL270826   2.871  23.125   5.939
 5642POPC   C1A70827   2.856  22.741   6.248
 5642POPC   D2A70828   2.902  23.085   6.538
 5642POPC   C3A70829   2.864  22.873   6.937
 5642POPC   C4A70830   2.999  22.535   7.179
 5642POPC   C1B70831   2.506  23.361   6.096
 5642POPC   C2B70832   2.338  23.335   6.487
 5642POPC   C3B70833   2.562  23.279   6.886
 5642POPC   C4B70834   2.462  23.354   7.303
 5643POPC   NC370835  23.724   9.601   5.432
 5643POPC   PO470836  23.841   8.967   5.487
 5643POPC   GL170837  23.696   8.947   5.893
 5643POPC   GL270838  23.869   8.675   5.928
 5643POPC   C1A70839  23.558   8.801   6.315
 5643POPC   D2A70840  23.673   8.969   6.713
 5643POPC   C3A70841  23.533   8.925   7.146
 5643POPC   C4A70842  23.624   9.215   7.481
 5643POPC   C1B70843  24.108   8.742   6.243
 5643POPC   C2B70844  24.205   8.933   6.607
 5643POPC   C3B70845  24.078   8.797   6.984
 5643POPC   C4B70846  24.015   8.913   7.355
 5644POPC   NC370847  42.575  43.357   5.451
 5644POPC   PO470848  42.068  42.884   5.263
 5644POPC   GL170849  42.191  43.040   5.720
 5644POPC   GL270850  42.548  43.046   5.863
 5644POPC   C1A70851  42.067  43.219   6.149
 5644POPC   D2A70852  42.253  43.196   6.581
 5644POPC   C3A70853  42.249  42.883   6.916
 5644POPC   C4A70854  42.506  42.667   7.226
 5644POPC   C1B70855  42.535  43.443   6.140
 5644POPC   C2B70856  42.625  43.555   6.585
 5644POPC   C3B70857  42.544  43.336   6.989
 5644POPC   C4B70858  42.547  43.154   7.403
 5645POPC   NC370859  30.713  17.365   5.524
 5645POPC   PO470860  30.352  17.945   5.501
 5645POPC   GL170861  30.526  17.744   5.854
 5645POPC   GL270862  30.894  17.762   5.890
 5645POPC   C1A70863  30.506  17.569   6.274
 5645POPC   D2A70864  30.471  17.632   6.711
 5645POPC   C3A70865  30.703  17.561   7.071
 5645POPC   C4A70866  30.625  17.745   7.445
 5645POPC   C1B70867  30.963  17.391   6.149
 5645POPC   C2B70868  30.934  17.334   6.589
 5645POPC   C3B70869  31.181  17.536   6.888
 5645POPC   C4B70870  31.144  17.386   7.304
 5646POPC   NC370871  11.344  31.792   5.379
 5646POPC   PO470872  11.498  32.442   5.442
 5646POPC   GL170873  11.223  32.215   5.744
 5646POPC   GL270874  11.118  31.894   5.811
 5646POPC   C1A70875  11.366  32.294   6.164
 5646POPC   D2A70876  11.454  32.452   6.573
 5646POPC   C3A70877  11.380  32.223   6.965
 5646POPC   C4A70878  11.576  32.429   7.307
 5646POPC   C1B70879  11.446  31.793   6.084
 5646POPC   C2B70880  11.480  31.935   6.497
 5646POPC   C3B70881  11.731  31.869   6.817
 5646POPC   C4B70882  11.686  31.928   7.260
 5647POPC   NC370883  25.442  37.815   5.256
 5647POPC   PO470884  25.085  37.365   5.543
 5647POPC   GL170885  25.355  37.571   5.798
 5647POPC   GL270886  25.156  37.869   5.764
 5647POPC   C1A70887  25.473  37.473   6.234
 5647POPC   D2A70888  25.184  37.410   6.609
 5647POPC   C3A70889  25.350  37.611   6.991
 5647POPC   C4A70890  25.606  37.533   7.366
 5647POPC   C1B70891  25.026  37.756   6.195
 5647POPC   C2B70892  25.192  37.931   6.603
 5647POPC   C3B70893  25.142  38.088   7.033
 5647POPC   C4B70894  25.149  38.090   7.490
 5648POPC   NC370895  38.363  38.174   5.280
 5648POPC   PO470896  38.196  38.787   5.404
 5648POPC   GL170897  38.476  38.565   5.729
 5648POPC   GL270898  38.532  38.257   5.814
 5648POPC   C1A70899  38.661  38.666   6.169
 5648POPC   D2A70900  38.541  38.560   6.622
 5648POPC   C3A70901  38.631  38.775   7.019
 5648POPC   C4A70902  38.629  38.538   7.394
 5648POPC   C1B70903  38.439  38.211   6.247
 5648POPC   C2B70904  38.561  38.015   6.640
 5648POPC   C3B70905  38.403  38.085   7.048
 5648POPC   C4B70906  38.192  38.476   7.070
 5649POPC   NC370907  22.526  32.559   5.135
 5649POPC   PO470908  22.062  32.199   5.571
 5649POPC   GL170909  22.152  32.197   5.923
 5649POPC   GL270910  22.467  32.119   5.890
 5649POPC   C1A70911  22.239  32.392   6.275
 5649POPC   D2A70912  22.426  32.214   6.563
 5649POPC   C3A70913  22.218  32.316   6.887
 5649POPC   C4A70914  22.275  32.204   7.272
 5649POPC   C1B70915  22.345  31.804   6.181
 5649POPC   C2B70916  22.518  31.723   6.583
 5649POPC   C3B70917  22.287  31.794   6.933
 5649POPC   C4B70918  22.335  31.695   7.340
 5650POPC   NC370919  41.266  11.850   5.032
 5650POPC   PO470920  41.820  12.028   5.357
 5650POPC   GL170921  41.641  12.124   5.781
 5650POPC   GL270922  41.329  12.051   5.662
 5650POPC   C1A70923  41.758  12.175   6.230
 5650POPC   D2A70924  41.905  11.908   6.591
 5650POPC   C3A70925  41.912  12.090   7.006
 5650POPC   C4A70926  41.704  12.148   7.407
 5650POPC   C1B70927  41.269  11.959   6.103
 5650POPC   C2B70928  41.331  12.065   6.522
 5650POPC   C3B70929  41.178  12.338   6.821
 5650POPC   C4B70930  41.234  12.179   7.196
 5651POPC   NC370931   8.757   3.339   5.404
 5651POPC   PO470932   9.201   3.771   5.444
 5651POPC   GL170933   8.936   3.676   5.765
 5651POPC   GL270934   9.096   3.367   5.832
 5651POPC   C1A70935   8.716   3.569   6.154
 5651POPC   D2A70936   8.656   3.629   6.606
 5651POPC   C3A70937   9.028   3.555   6.868
 5651POPC   C4A70938   8.992   3.493   7.310
 5651POPC   C1B70939   8.997   3.145   6.213
 5651POPC   C2B70940   8.765   3.130   6.591
 5651POPC   C3B70941   8.761   3.159   7.022
 5651POPC   C4B70942   8.549   3.230   7.379
 5652POPC   NC370943  40.904  36.574   5.520
 5652POPC   PO470944  40.479  36.041   5.561
 5652POPC   GL170945  40.759  36.175   5.866
 5652POPC   GL270946  40.551  36.504   5.888
 5652POPC   C1A70947  40.866  35.937   6.283
 5652POPC   D2A70948  40.574  35.978   6.699
 5652POPC   C3A70949  40.742  35.846   7.125
 5652POPC   C4A70950  41.112  35.792   7.404
 5652POPC   C1B70951  40.609  36.356   6.309
 5652POPC   C2B70952  40.961  36.313   6.631
 5652POPC   C3B70953  40.790  36.358   7.040
 5652POPC   C4B70954  40.360  36.281   7.152
 5653POPC   NC370955   5.294  17.518   5.297
 5653POPC   PO470956   5.906  17.610   5.414
 5653POPC   GL170957   5.777  17.745   5.803
 5653POPC   GL270958   6.089  17.878   5.904
 5653POPC   C1A70959   5.813  17.603   6.241
 5653POPC   D2A70960   5.643  17.769   6.599
 5653POPC   C3A70961   5.546  17.568   6.967
 5653POPC   C4A70962   5.736  17.680   7.332
 5653POPC   C1B70963   6.331  17.721   6.249
 5653POPC   C2B70964   6.256  17.490   6.608
 5653POPC   C3B70965   6.128  17.573   7.016
 5653POPC   C4B70966   6.249  17.629   7.441
 5654POPC   NC370967  30.324  15.009   5.433
 5654POPC   PO470968  29.793  15.486   5.415
 5654POPC   GL170969  29.981  15.408   5.780
 5654POPC   GL270970  30.241  15.587   5.979
 5654POPC   C1A70971  29.799  15.402   6.167
 5654POPC   D2A70972  29.964  15.240   6.518
 5654POPC   C3A70973  29.885  15.417   6.865
 5654POPC   C4A70974  29.745  15.299   7.253
 5654POPC   C1B70975  30.236  15.120   6.102
 5654POPC   C2B70976  30.265  14.841   6.431
 5654POPC   C3B70977  30.177  14.953   6.881
 5654POPC   C4B70978  30.250  15.265   7.208
 5655POPC   NC370979  28.677  37.111   5.578
 5655POPC   PO470980  29.291  36.800   5.261
 5655POPC   GL170981  29.122  36.859   5.691
 5655POPC   GL270982  28.854  36.623   5.808
 5655POPC   C1A70983  29.172  37.038   6.114
 5655POPC   D2A70984  29.219  36.867   6.535
 5655POPC   C3A70985  29.057  37.033   6.886
 5655POPC   C4A70986  29.181  37.063   7.292
 5655POPC   C1B70987  28.846  36.653   6.267
 5655POPC   C2B70988  28.717  36.703   6.719
 5655POPC   C3B70989  28.972  36.598   7.114
 5655POPC   C4B70990  28.927  36.534   7.576
 5656POPC   NC370991  25.179  26.195   5.293
 5656POPC   PO470992  25.761  25.772   5.183
 5656POPC   GL170993  25.539  25.899   5.593
 5656POPC   GL270994  25.690  25.678   5.824
 5656POPC   C1A70995  25.171  25.856   5.924
 5656POPC   D2A70996  25.116  25.972   6.407
 5656POPC   C3A70997  25.168  26.062   6.897
 5656POPC   C4A70998  24.914  26.225   7.280
 5656POPC   C1B70999  25.590  25.998   6.141
 5656POPC   C2B71000  25.597  26.029   6.588
 5656POPC   C3B71001  25.690  25.837   6.962
 5656POPC   C4B71002  25.634  25.871   7.373
 5657POPC   NC371003  10.413   9.238   5.076
 5657POPC   PO471004  10.639   9.021   5.625
 5657POPC   GL171005  10.582   8.954   6.020
 5657POPC   GL271006  10.651   8.641   5.993
 5657POPC   C1A71007  10.675   8.850   6.470
 5657POPC   D2A71008  10.700   9.183   6.786
 5657POPC   C3A71009  10.653   9.101   7.181
 5657POPC   C4A71010  10.341   8.991   7.472
 5657POPC   C1B71011  10.247   8.637   6.228
 5657POPC   C2B71012  10.243   8.523   6.603
 5657POPC   C3B71013  10.323   8.720   6.986
 5657POPC   C4B71014  10.266   8.493   7.348
 5658POPC   NC371015   0.840  35.423   5.326
 5658POPC   PO471016   0.276  35.668   5.200
 5658POPC   GL171017   0.513  35.666   5.627
 5658POPC   GL271018   0.283  35.792   5.797
 5658POPC   C1A71019   0.512  35.430   6.077
 5658POPC   D2A71020   0.199  35.277   6.408
 5658POPC   C3A71021   0.285  35.332   6.856
 5658POPC   C4A71022   0.638  35.430   7.152
 5658POPC   C1B71023   0.471  35.929   6.162
 5658POPC   C2B71024   0.462  35.698   6.522
 5658POPC   C3B71025   0.428  35.846   6.903
 5658POPC   C4B71026   0.504  35.892   7.295
 5659POPC   NC371027  12.264  13.982   5.231
 5659POPC   PO471028  11.930  14.622   5.290
 5659POPC   GL171029  11.985  14.381   5.718
 5659POPC   GL271030  11.984  14.675   5.882
 5659POPC   C1A71031  11.815  14.332   6.215
 5659POPC   D2A71032  12.013  14.314   6.662
 5659POPC   C3A71033  11.742  14.204   7.057
 5659POPC   C4A71034  11.743  14.292   7.532
 5659POPC   C1B71035  12.230  14.656   6.263
 5659POPC   C2B71036  12.189  14.835   6.669
 5659POPC   C3B71037  12.320  14.584   7.012
 5659POPC   C4B71038  12.516  14.693   7.380
 5660POPC   NC371039  14.319  18.692   5.469
 5660POPC   PO471040  14.640  19.292   5.430
 5660POPC   GL171041  14.522  19.085   5.794
 5660POPC   GL271042  14.190  19.167   5.769
 5660POPC   C1A71043  14.346  18.852   6.171
 5660POPC   D2A71044  14.277  18.685   6.605
 5660POPC   C3A71045  14.495  18.847   6.958
 5660POPC   C4A71046  14.524  18.957   7.375
 5660POPC   C1B71047  14.226  19.350   6.193
 5660POPC   C2B71048  14.362  19.196   6.581
 5660POPC   C3B71049  14.734  19.269   6.812
 5660POPC   C4B71050  14.680  19.428   7.225
 5661POPC   NC371051  22.788  16.164   5.403
 5661POPC   PO471052  23.302  15.700   5.380
 5661POPC   GL171053  22.991  15.802   5.722
 5661POPC   GL271054  23.086  16.131   5.821
 5661POPC   C1A71055  22.744  15.895   6.143
 5661POPC   D2A71056  22.698  15.875   6.615
 5661POPC   C3A71057  22.872  15.883   7.058
 5661POPC   C4A71058  22.935  15.518   7.313
 5661POPC   C1B71059  23.229  16.009   6.229
 5661POPC   C2B71060  23.223  15.861   6.650
 5661POPC   C3B71061  23.351  15.742   7.064
 5661POPC   C4B71062  23.333  16.023   7.380
 5662POPC   NC371063  15.161  32.177   5.240
 5662POPC   PO471064  14.745  32.602   5.513
 5662POPC   GL171065  15.045  32.374   5.787
 5662POPC   GL271066  15.085  31.991   5.776
 5662POPC   C1A71067  14.939  32.343   6.236
 5662POPC   D2A71068  15.113  32.608   6.547
 5662POPC   C3A71069  15.084  32.446   6.914
 5662POPC   C4A71070  15.372  32.400   7.194
 5662POPC   C1B71071  15.368  32.074   6.143
 5662POPC   C2B71072  15.270  32.094   6.580
 5662POPC   C3B71073  15.255  31.933   7.021
 5662POPC   C4B71074  15.332  31.974   7.481
 5663POPC   NC371075  40.383  20.905   5.452
 5663POPC   PO471076  40.891  20.365   5.462
 5663POPC   GL171077  40.794  20.694   5.776
 5663POPC   GL271078  40.483  20.591   5.890
 5663POPC   C1A71079  40.901  20.732   6.224
 5663POPC   D2A71080  40.800  20.627   6.675
 5663POPC   C3A71081  40.984  20.748   7.101
 5663POPC   C4A71082  40.770  20.698   7.495
 5663POPC   C1B71083  40.599  20.294   6.246
 5663POPC   C2B71084  40.986  20.154   6.480
 5663POPC   C3B71085  41.090  20.257   6.900
 5663POPC   C4B71086  40.681  20.343   7.123
 5664POPC   NC371087  35.581  27.769   5.409
 5664POPC   PO471088  34.963  27.413   5.491
 5664POPC   GL171089  35.372  27.436   5.735
 5664POPC   GL271090  35.362  27.805   5.872
 5664POPC   C1A71091  35.591  27.448   6.143
 5664POPC   D2A71092  35.378  27.628   6.488
 5664POPC   C3A71093  35.429  27.483   6.894
 5664POPC   C4A71094  35.367  27.587   7.288
 5664POPC   C1B71095  35.655  27.984   6.175
 5664POPC   C2B71096  35.650  28.022   6.628
 5664POPC   C3B71097  35.395  27.988   6.970
 5664POPC   C4B71098  35.575  28.103   7.357
 5665POPC   NC371099  37.084   6.136   5.504
 5665POPC   PO471100  36.764   5.612   5.323
 5665POPC   GL171101  36.890   5.719   5.767
 5665POPC   GL271102  36.716   6.049   5.843
 5665POPC   C1A71103  36.725   5.716   6.218
 5665POPC   D2A71104  36.532   5.803   6.621
 5665POPC   C3A71105  36.751   5.801   7.010
 5665POPC   C4A71106  36.734   5.470   7.314
 5665POPC   C1B71107  37.076   6.080   6.156
 5665POPC   C2B71108  37.016   5.995   6.592
 5665POPC   C3B71109  37.082   6.221   6.975
 5665POPC   C4B71110  37.193   6.138   7.425
 5666POPC   NC371111  26.864  18.753   5.394
 5666POPC   PO471112  26.525  19.407   5.440
 5666POPC   GL171113  26.807  19.233   5.752
 5666POPC   GL271114  26.984  19.506   5.898
 5666POPC   C1A71115  26.868  18.954   6.103
 5666POPC   D2A71116  26.720  18.988   6.540
 5666POPC   C3A71117  26.812  18.665   6.853
 5666POPC   C4A71118  26.628  18.625   7.246
 5666POPC   C1B71119  26.937  19.424   6.296
 5666POPC   C2B71120  27.180  19.494   6.628
 5666POPC   C3B71121  26.825  19.371   6.866
 5666POPC   C4B71122  26.835  19.074   7.137
 5667POPC   NC371123  23.919  23.176   5.390
 5667POPC   PO471124  23.400  22.679   5.558
 5667POPC   GL171125  23.602  22.980   5.796
 5667POPC   GL271126  23.957  22.973   5.868
 5667POPC   C1A71127  23.561  23.221   6.160
 5667POPC   D2A71128  23.828  23.375   6.506
 5667POPC   C3A71129  23.878  23.096   6.861
 5667POPC   C4A71130  23.576  23.008   7.186
 5667POPC   C1B71131  23.868  22.850   6.314
 5667POPC   C2B71132  23.690  22.595   6.668
 5667POPC   C3B71133  23.871  22.616   7.096
 5667POPC   C4B71134  23.965  22.834   7.507
 5668POPC   NC371135  28.100   6.251   5.460
 5668POPC   PO471136  27.702   5.704   5.429
 5668POPC   GL171137  27.805   5.954   5.760
 5668POPC   GL271138  27.437   6.059   5.748
 5668POPC   C1A71139  27.972   5.842   6.155
 5668POPC   D2A71140  27.743   5.610   6.468
 5668POPC   C3A71141  27.788   5.812   6.849
 5668POPC   C4A71142  27.657   5.798   7.258
 5668POPC   C1B71143  27.414   5.748   6.083
 5668POPC   C2B71144  27.222   5.661   6.501
 5668POPC   C3B71145  27.128   5.892   6.895
 5668POPC   C4B71146  27.166   5.745   7.307
 5669POPC   NC371147  13.815  44.003   5.452
 5669POPC   PO471148  13.353  43.648   5.184
 5669POPC   GL171149  13.388  43.782   5.680
 5669POPC   GL271150  13.406  44.168   5.789
 5669POPC   C1A71151  13.515  43.782   6.159
 5669POPC   D2A71152  13.519  43.923   6.646
 5669POPC   C3A71153  13.553  43.685   7.074
 5669POPC   C4A71154  13.401  43.612   7.528
 5669POPC   C1B71155  13.229  44.199   6.248
 5669POPC   C2B71156  13.079  44.177   6.686
 5669POPC   C3B71157  13.283  44.120   7.106
 5669POPC   C4B71158  13.749  44.159   7.164
 5670POPC   NC371159  13.808   1.491   5.477
 5670POPC   PO471160  13.793   0.898   5.777
 5670POPC   GL171161  13.701   1.276   5.971
 5670POPC   GL271162  13.421   1.451   5.818
 5670POPC   C1A71163  13.630   1.219   6.415
 5670POPC   D2A71164  13.407   0.888   6.635
 5670POPC   C3A71165  13.391   0.949   7.077
 5670POPC   C4A71166  13.771   1.132   7.275
 5670POPC   C1B71167  13.479   1.687   6.204
 5670POPC   C2B71168  13.332   1.587   6.612
 5670POPC   C3B71169  13.502   1.462   6.969
 5670POPC   C4B71170  13.306   1.376   7.330
 5671POPC   NC371171  17.701  23.187   5.323
 5671POPC   PO471172  17.334  22.701   5.596
 5671POPC   GL171173  17.429  23.106   5.759
 5671POPC   GL271174  17.787  23.122   5.823
 5671POPC   C1A71175  17.349  23.255   6.158
 5671POPC   D2A71176  17.315  23.032   6.553
 5671POPC   C3A71177  17.478  23.143   6.947
 5671POPC   C4A71178  17.464  22.802   7.228
 5671POPC   C1B71179  17.762  22.976   6.231
 5671POPC   C2B71180  17.892  23.000   6.651
 5671POPC   C3B71181  17.934  22.934   7.096
 5671POPC   C4B71182  17.735  23.249   7.405
 5672POPC   NC371183   7.228  11.574   5.415
 5672POPC   PO471184   7.651  11.141   5.187
 5672POPC   GL171185   7.432  11.184   5.667
 5672POPC   GL271186   7.657  11.295   5.959
 5672POPC   C1A71187   7.171  11.354   6.058
 5672POPC   D2A71188   7.405  11.430   6.432
 5672POPC   C3A71189   7.334  11.482   6.850
 5672POPC   C4A71190   7.638  11.682   7.181
 5672POPC   C1B71191   7.524  10.968   6.266
 5672POPC   C2B71192   7.526  10.991   6.734
 5672POPC   C3B71193   7.613  11.166   7.130
 5672POPC   C4B71194   7.564  11.145   7.587
 5673POPC   NC371195  40.224   1.544   5.142
 5673POPC   PO471196  39.650   1.236   5.466
 5673POPC   GL171197  39.861   1.308   5.880
 5673POPC   GL271198  40.091   1.571   5.967
 5673POPC   C1A71199  39.753   1.382   6.298
 5673POPC   D2A71200  39.842   1.136   6.628
 5673POPC   C3A71201  39.729   1.357   6.939
 5673POPC   C4A71202  39.661   1.190   7.290
 5673POPC   C1B71203  40.283   1.208   6.222
 5673POPC   C2B71204  40.354   1.021   6.651
 5673POPC   C3B71205  40.148   1.100   7.074
 5673POPC   C4B71206  40.095   1.298   7.518
 5674POPC   NC371207  17.226  21.132   5.525
 5674POPC   PO471208  17.534  20.478   5.456
 5674POPC   GL171209  17.325  20.678   5.783
 5674POPC   GL271210  17.584  20.901   5.826
 5674POPC   C1A71211  17.191  20.704   6.207
 5674POPC   D2A71212  17.326  20.564   6.632
 5674POPC   C3A71213  17.182  20.537   7.096
 5674POPC   C4A71214  17.383  20.783   7.455
 5674POPC   C1B71215  17.848  20.932   6.182
 5674POPC   C2B71216  17.848  20.731   6.587
 5674POPC   C3B71217  17.689  20.644   6.976
 5674POPC   C4B71218  17.793  20.987   7.189
 5675POPC   NC371219  23.858  11.070   5.080
 5675POPC   PO471220  23.726  11.646   5.507
 5675POPC   GL171221  23.778  11.565   5.954
 5675POPC   GL271222  23.425  11.588   6.019
 5675POPC   C1A71223  23.714  11.226   6.294
 5675POPC   D2A71224  23.542  10.910   6.596
 5675POPC   C3A71225  23.719  10.951   7.010
 5675POPC   C4A71226  23.871  11.261   7.300
 5675POPC   C1B71227  23.634  11.702   6.435
 5675POPC   C2B71228  23.751  11.499   6.837
 5675POPC   C3B71229  23.606  11.691   7.255
 5675POPC   C4B71230  23.562  11.783   7.727
 5676POPC   NC371231  44.394  25.814   5.655
 5676POPC   PO471232  43.973  26.149   5.221
 5676POPC   GL171233  43.846  25.877   5.640
 5676POPC   GL271234  43.720  26.107   5.870
 5676POPC   C1A71235  43.944  25.764   6.133
 5676POPC   D2A71236  43.735  25.758   6.540
 5676POPC   C3A71237  43.974  25.620   6.907
 5676POPC   C4A71238  44.138  25.853   7.265
 5676POPC   C1B71239  43.830  26.276   6.280
 5676POPC   C2B71240  43.615  26.260   6.668
 5676POPC   C3B71241  43.700  26.034   7.034
 5676POPC   C4B71242  43.714  26.227   7.416
 5677POPC   NC371243   9.450   1.342   5.430
 5677POPC   PO471244   8.762   1.333   5.331
 5677POPC   GL171245   9.024   1.308   5.698
 5677POPC   GL271246   8.771   1.290   5.871
 5677POPC   C1A71247   9.231   1.402   6.126
 5677POPC   D2A71248   9.467   1.138   6.459
 5677POPC   C3A71249   9.389   0.975   6.889
 5677POPC   C4A71250   9.405   1.038   7.327
 5677POPC   C1B71251   8.848   1.076   6.259
 5677POPC   C2B71252   8.921   0.995   6.692
 5677POPC   C3B71253   8.936   0.999   7.134
 5677POPC   C4B71254   8.680   1.017   7.469
 5678POPC   NC371255  12.590  26.069   5.292
 5678POPC   PO471256  12.004  25.767   5.361
 5678POPC   GL171257  12.176  26.016   5.699
 5678POPC   GL271258  12.001  26.312   5.763
 5678POPC   C1A71259  12.089  25.991   6.160
 5678POPC   D2A71260  11.856  26.014   6.563
 5678POPC   C3A71261  12.133  25.981   6.922
 5678POPC   C4A71262  12.282  25.915   7.352
 5678POPC   C1B71263  11.738  26.352   6.140
 5678POPC   C2B71264  11.761  26.561   6.537
 5678POPC   C3B71265  11.700  26.371   6.933
 5678POPC   C4B71266  11.975  26.375   7.241
 5679POPC   NC371267  29.843  39.515   5.498
 5679POPC   PO471268  29.834  40.188   5.442
 5679POPC   GL171269  29.790  40.005   5.809
 5679POPC   GL271270  30.163  39.937   5.810
 5679POPC   C1A71271  29.789  39.797   6.193
 5679POPC   D2A71272  30.002  39.821   6.564
 5679POPC   C3A71273  29.824  39.774   6.949
 5679POPC   C4A71274  29.725  40.077   7.261
 5679POPC   C1B71275  30.148  40.171   6.195
 5679POPC   C2B71276  30.075  40.340   6.585
 5679POPC   C3B71277  30.141  40.196   6.982
 5679POPC   C4B71278  30.281  40.379   7.350
 5680POPC   NC371279   9.796  27.434   5.379
 5680POPC   PO471280   9.582  28.052   5.449
 5680POPC   GL171281   9.788  27.802   5.776
 5680POPC   GL271282   9.616  27.468   5.851
 5680POPC   C1A71283   9.820  27.786   6.216
 5680POPC   D2A71284   9.940  27.846   6.614
 5680POPC   C3A71285   9.653  27.716   6.893
 5680POPC   C4A71286   9.656  27.592   7.277
 5680POPC   C1B71287  10.011  27.343   6.068
 5680POPC   C2B71288  10.086  27.320   6.547
 5680POPC   C3B71289   9.958  27.297   6.998
 5680POPC   C4B71290   9.842  27.165   7.460
 5681POPC   NC371291   5.654  31.323   5.596
 5681POPC   PO471292   5.007  31.638   5.474
 5681POPC   GL171293   4.957  31.490   5.909
 5681POPC   GL271294   5.316  31.437   5.985
 5681POPC   C1A71295   4.809  31.388   6.339
 5681POPC   D2A71296   4.531  31.285   6.703
 5681POPC   C3A71297   4.742  31.333   7.096
 5681POPC   C4A71298   5.146  31.254   7.117
 5681POPC   C1B71299   5.366  31.167   6.357
 5681POPC   C2B71300   5.543  31.127   6.790
 5681POPC   C3B71301   5.588  31.061   7.248
 5681POPC   C4B71302   5.332  31.084   7.654
 5682POPC   NC371303   0.149  13.014   5.496
 5682POPC   PO471304   0.366  13.607   5.433
 5682POPC   GL171305   0.407  13.519   5.863
 5682POPC   GL271306   0.036  13.497   5.926
 5682POPC   C1A71307   0.693  13.634   6.216
 5682POPC   D2A71308   0.905  13.647   6.638
 5682POPC   C3A71309   0.703  13.552   7.025
 5682POPC   C4A71310   0.439  13.807   7.271
 5682POPC   C1B71311   0.179  13.756   6.291
 5682POPC   C2B71312   0.238  13.880   6.740
 5682POPC   C3B71313  44.978  13.809   7.075
 5682POPC   C4B71314   0.014  13.421   7.275
 5683POPC   NC371315  38.237  20.996   5.551
 5683POPC   PO471316  38.526  20.419   5.356
 5683POPC   GL171317  38.551  20.588   5.766
 5683POPC   GL271318  38.702  20.904   5.822
 5683POPC   C1A71319  38.248  20.525   6.094
 5683POPC   D2A71320  38.226  20.421   6.539
 5683POPC   C3A71321  38.353  20.701   6.882
 5683POPC   C4A71322  38.454  20.559   7.281
 5683POPC   C1B71323  38.673  20.725   6.298
 5683POPC   C2B71324  38.835  20.832   6.759
 5683POPC   C3B71325  38.842  21.033   7.183
 5683POPC   C4B71326  38.605  20.972   7.577
 5684POPC   NC371327  25.707  13.856   5.605
 5684POPC   PO471328  25.491  13.422   5.089
 5684POPC   GL171329  25.374  13.458   5.559
 5684POPC   GL271330  25.207  13.789   5.707
 5684POPC   C1A71331  25.404  13.433   6.052
 5684POPC   D2A71332  25.158  13.429   6.419
 5684POPC   C3A71333  25.244  13.552   6.852
 5684POPC   C4A71334  25.380  13.400   7.216
 5684POPC   C1B71335  25.088  13.856   6.146
 5684POPC   C2B71336  24.986  13.904   6.605
 5684POPC   C3B71337  25.034  13.976   7.073
 5684POPC   C4B71338  25.458  13.924   7.295
 5685POPC   NC371339  24.646  37.201   5.535
 5685POPC   PO471340  24.202  37.826   5.450
 5685POPC   GL171341  24.599  37.713   5.720
 5685POPC   GL271342  24.674  38.035   5.878
 5685POPC   C1A71343  24.570  37.499   6.138
 5685POPC   D2A71344  24.235  37.592   6.452
 5685POPC   C3A71345  24.329  37.492   6.878
 5685POPC   C4A71346  24.218  37.651   7.255
 5685POPC   C1B71347  24.524  37.986   6.287
 5685POPC   C2B71348  24.706  37.742   6.604
 5685POPC   C3B71349  24.827  37.678   6.999
 5685POPC   C4B71350  24.686  37.880   7.385
 5686POPC   NC371351  17.858  28.099   5.505
 5686POPC   PO471352  17.249  28.423   5.348
 5686POPC   GL171353  17.478  28.356   5.724
 5686POPC   GL271354  17.344  28.030   5.805
 5686POPC   C1A71355  17.467  28.431   6.156
 5686POPC   D2A71356  17.294  28.606   6.555
 5686POPC   C3A71357  17.597  28.640   6.920
 5686POPC   C4A71358  17.578  28.658   7.381
 5686POPC   C1B71359  17.355  27.942   6.245
 5686POPC   C2B71360  17.507  28.135   6.604
 5686POPC   C3B71361  17.321  28.216   6.996
 5686POPC   C4B71362  17.534  28.162   7.352
 5687POPC   NC371363  34.899  11.314   5.383
 5687POPC   PO471364  34.259  11.362   5.219
 5687POPC   GL171365  34.418  11.279   5.663
 5687POPC   GL271366  34.634  10.992   5.716
 5687POPC   C1A71367  34.620  11.377   6.089
 5687POPC   D2A71368  34.695  11.145   6.497
 5687POPC   C3A71369  34.606  11.317   6.925
 5687POPC   C4A71370  34.438  11.569   7.266
 5687POPC   C1B71371  34.360  10.920   6.076
 5687POPC   C2B71372  34.328  10.786   6.496
 5687POPC   C3B71373  34.402  10.842   6.925
 5687POPC   C4B71374  34.194  11.134   7.213
 5688POPC   NC371375  33.556  16.929   5.400
 5688POPC   PO471376  34.223  17.038   5.536
 5688POPC   GL171377  33.865  17.004   5.799
 5688POPC   GL271378  33.858  16.668   5.828
 5688POPC   C1A71379  33.506  16.904   6.094
 5688POPC   D2A71380  33.636  16.902   6.518
 5688POPC   C3A71381  33.460  16.718   6.873
 5688POPC   C4A71382  33.359  16.980   7.227
 5688POPC   C1B71383  34.076  16.765   6.210
 5688POPC   C2B71384  34.066  16.648   6.623
 5688POPC   C3B71385  33.938  16.813   6.989
 5688POPC   C4B71386  34.104  16.704   7.338
 5689POPC   NC371387  27.109  36.660   5.147
 5689POPC   PO471388  26.527  36.764   5.452
 5689POPC   GL171389  26.872  36.515   5.750
 5689POPC   GL271390  26.599  36.598   5.937
 5689POPC   C1A71391  27.012  36.576   6.210
 5689POPC   D2A71392  26.720  36.825   6.481
 5689POPC   C3A71393  26.808  37.043   6.849
 5689POPC   C4A71394  27.016  36.925   7.203
 5689POPC   C1B71395  26.303  36.606   6.241
 5689POPC   C2B71396  26.202  36.885   6.536
 5689POPC   C3B71397  26.378  36.705   6.866
 5689POPC   C4B71398  26.546  36.724   7.237
 5690POPC   NC371399  38.735   7.677   5.526
 5690POPC   PO471400  39.426   7.471   5.519
 5690POPC   GL171401  39.241   7.303   5.902
 5690POPC   GL271402  38.909   7.334   5.921
 5690POPC   C1A71403  39.165   7.122   6.331
 5690POPC   D2A71404  39.047   7.213   6.774
 5690POPC   C3A71405  39.206   6.980   7.129
 5690POPC   C4A71406  39.250   7.074   7.582
 5690POPC   C1B71407  38.793   7.469   6.363
 5690POPC   C2B71408  39.125   7.681   6.564
 5690POPC   C3B71409  39.297   7.681   6.978
 5690POPC   C4B71410  39.070   7.449   7.265
 5691POPC   NC371411  12.454  32.858   5.003
 5691POPC   PO471412  12.120  33.275   5.380
 5691POPC   GL171413  12.002  32.991   5.738
 5691POPC   GL271414  12.276  33.004   5.980
 5691POPC   C1A71415  11.758  32.853   6.131
 5691POPC   D2A71416  11.980  32.839   6.533
 5691POPC   C3A71417  11.868  32.973   6.942
 5691POPC   C4A71418  11.996  32.746   7.282
 5691POPC   C1B71419  12.405  33.345   6.232
 5691POPC   C2B71420  12.280  33.275   6.640
 5691POPC   C3B71421  12.401  32.959   6.907
 5691POPC   C4B71422  12.278  33.152   7.237
 5692POPC   NC371423  21.652   1.527   5.033
 5692POPC   PO471424  21.860   0.970   5.328
 5692POPC   GL171425  22.075   1.091   5.710
 5692POPC   GL271426  21.781   1.181   5.845
 5692POPC   C1A71427  22.295   1.236   6.094
 5692POPC   D2A71428  22.232   1.065   6.501
 5692POPC   C3A71429  22.092   1.239   6.873
 5692POPC   C4A71430  22.296   1.156   7.242
 5692POPC   C1B71431  21.838   1.390   6.219
 5692POPC   C2B71432  21.798   1.580   6.594
 5692POPC   C3B71433  21.691   1.550   7.001
 5692POPC   C4B71434  22.000   1.588   7.292
 5693POPC   NC371435  36.257  12.087   5.473
 5693POPC   PO471436  35.658  12.145   5.529
 5693POPC   GL171437  35.844  11.973   5.878
 5693POPC   GL271438  35.991  12.240   5.953
 5693POPC   C1A71439  35.946  11.854   6.288
 5693POPC   D2A71440  35.930  11.688   6.704
 5693POPC   C3A71441  36.280  11.857   6.911
 5693POPC   C4A71442  36.203  12.142   7.213
 5693POPC   C1B71443  36.401  12.106   6.111
 5693POPC   C2B71444  36.541  12.083   6.518
 5693POPC   C3B71445  36.425  12.363   6.824
 5693POPC   C4B71446  36.564  12.529   7.190
 5694POPC   NC371447   0.818  37.610   5.111
 5694POPC   PO471448   1.321  38.052   5.299
 5694POPC   GL171449   1.238  37.855   5.677
 5694POPC   GL271450   1.153  37.496   5.650
 5694POPC   C1A71451   1.247  37.857   6.120
 5694POPC   D2A71452   1.176  37.617   6.512
 5694POPC   C3A71453   1.139  37.872   6.894
 5694POPC   C4A71454   1.180  37.996   7.332
 5694POPC   C1B71455   1.043  37.312   6.081
 5694POPC   C2B71456   0.854  37.185   6.513
 5694POPC   C3B71457   0.976  37.339   6.936
 5694POPC   C4B71458   1.333  37.503   7.226
 5695POPC   NC371459  12.970  41.218   4.973
 5695POPC   PO471460  12.837  40.646   5.420
 5695POPC   GL171461  12.812  40.970   5.739
 5695POPC   GL271462  12.502  40.898   5.866
 5695POPC   C1A71463  12.915  40.960   6.196
 5695POPC   D2A71464  12.867  40.735   6.569
 5695POPC   C3A71465  12.743  40.820   6.971
 5695POPC   C4A71466  12.966  41.032   7.259
 5695POPC   C1B71467  12.441  40.717   6.291
 5695POPC   C2B71468  12.444  40.457   6.722
 5695POPC   C3B71469  12.466  40.436   7.182
 5695POPC   C4B71470  12.839  40.516   7.428
 5696POPC   NC371471  20.787  17.337   5.350
 5696POPC   PO471472  20.803  17.929   5.695
 5696POPC   GL171473  20.751  17.476   5.848
 5696POPC   GL271474  21.001  17.187   5.781
 5696POPC   C1A71475  20.426  17.341   6.166
 5696POPC   D2A71476  20.343  17.550   6.569
 5696POPC   C3A71477  20.618  17.697   6.876
 5696POPC   C4A71478  20.502  17.544   7.281
 5696POPC   C1B71479  20.878  17.103   6.168
 5696POPC   C2B71480  20.815  17.377   6.516
 5696POPC   C3B71481  20.767  17.215   6.937
 5696POPC   C4B71482  20.921  17.229   7.338
 5697POPC   NC371483  16.024  19.838   5.362
 5697POPC   PO471484  15.968  20.487   5.353
 5697POPC   GL171485  16.082  20.206   5.728
 5697POPC   GL271486  15.784  19.952   5.788
 5697POPC   C1A71487  16.141  19.992   6.144
 5697POPC   D2A71488  15.908  19.897   6.527
 5697POPC   C3A71489  16.147  19.903   6.897
 5697POPC   C4A71490  16.184  20.078   7.288
 5697POPC   C1B71491  15.638  19.673   6.123
 5697POPC   C2B71492  15.527  19.527   6.529
 5697POPC   C3B71493  15.573  19.704   6.925
 5697POPC   C4B71494  15.787  19.754   7.282
 5698POPC   NC371495  15.259  26.242   5.133
 5698POPC   PO471496  15.291  26.859   5.443
 5698POPC   GL171497  15.338  26.989   5.844
 5698POPC   GL271498  15.071  26.774   5.928
 5698POPC   C1A71499  15.230  27.146   6.261
 5698POPC   D2A71500  15.372  26.975   6.662
 5698POPC   C3A71501  15.093  26.980   6.998
 5698POPC   C4A71502  15.346  26.932   7.363
 5698POPC   C1B71503  15.230  26.647   6.305
 5698POPC   C2B71504  15.168  26.488   6.673
 5698POPC   C3B71505  15.401  26.559   7.011
 5698POPC   C4B71506  15.238  26.405   7.329
 5699POPC   NC371507  42.173  25.803   5.285
 5699POPC   PO471508  42.435  26.439   5.442
 5699POPC   GL171509  42.280  26.103   5.748
 5699POPC   GL271510  42.032  25.824   5.775
 5699POPC   C1A71511  42.465  25.967   6.173
 5699POPC   D2A71512  42.732  25.891   6.521
 5699POPC   C3A71513  42.503  25.939   6.900
 5699POPC   C4A71514  42.296  26.135   7.257
 5699POPC   C1B71515  41.960  25.966   6.161
 5699POPC   C2B71516  42.018  26.133   6.555
 5699POPC   C3B71517  41.979  25.916   6.927
 5699POPC   C4B71518  42.152  25.555   7.091
 5700POPC   NC371519  27.902  35.467   5.440
 5700POPC   PO471520  27.346  35.074   5.291
 5700POPC   GL171521  27.528  35.179   5.735
 5700POPC   GL271522  27.913  35.135   5.817
 5700POPC   C1A71523  27.521  35.426   6.160
 5700POPC   D2A71524  27.627  35.684   6.529
 5700POPC   C3A71525  27.394  35.630   6.903
 5700POPC   C4A71526  27.398  35.310   7.178
 5700POPC   C1B71527  27.985  35.236   6.260
 5700POPC   C2B71528  27.798  35.208   6.681
 5700POPC   C3B71529  27.868  35.458   7.031
 5700POPC   C4B71530  28.152  35.442   7.351
 5701POPC   NC371531   1.047  26.162   5.440
 5701POPC   PO471532   1.460  25.682   5.561
 5701POPC   GL171533   1.355  26.014   5.837
 5701POPC   GL271534   1.039  25.833   5.831
 5701POPC   C1A71535   1.053  26.216   6.161
 5701POPC   D2A71536   0.816  26.182   6.571
 5701POPC   C3A71537   1.048  26.231   6.934
 5701POPC   C4A71538   1.489  26.260   7.074
 5701POPC   C1B71539   1.245  25.726   6.242
 5701POPC   C2B71540   1.373  25.604   6.663
 5701POPC   C3B71541   1.275  25.744   7.071
 5701POPC   C4B71542   1.393  25.809   7.492
 5702POPC   NC371543  12.340  22.688   5.637
 5702POPC   PO471544  12.879  22.891   5.273
 5702POPC   GL171545  12.803  22.900   5.749
 5702POPC   GL271546  12.993  23.187   5.929
 5702POPC   C1A71547  12.700  22.882   6.208
 5702POPC   D2A71548  12.966  22.934   6.556
 5702POPC   C3A71549  12.853  22.816   6.948
 5702POPC   C4A71550  12.647  22.749   7.336
 5702POPC   C1B71551  12.818  23.366   6.331
 5702POPC   C2B71552  12.701  23.318   6.756
 5702POPC   C3B71553  12.734  23.247   7.186
 5702POPC   C4B71554  13.067  23.007   7.388
 5703POPC   NC371555  36.729   4.256   5.522
 5703POPC   PO471556  37.225   4.073   5.063
 5703POPC   GL171557  37.240   4.290   5.576
 5703POPC   GL271558  37.065   4.609   5.756
 5703POPC   C1A71559  37.196   4.246   6.094
 5703POPC   D2A71560  36.940   4.238   6.535
 5703POPC   C3A71561  37.047   4.411   7.004
 5703POPC   C4A71562  37.224   4.439   7.467
 5703POPC   C1B71563  36.800   4.765   6.152
 5703POPC   C2B71564  36.868   4.768   6.587
 5703POPC   C3B71565  36.771   4.869   6.986
 5703POPC   C4B71566  36.862   4.774   7.404
 5704POPC   NC371567  28.104  14.705   5.500
 5704POPC   PO471568  28.542  14.163   5.371
 5704POPC   GL171569  28.263  14.233   5.708
 5704POPC   GL271570  28.553  14.366   5.847
 5704POPC   C1A71571  27.977  14.271   6.089
 5704POPC   D2A71572  28.111  14.567   6.411
 5704POPC   C3A71573  27.964  14.542   6.843
 5704POPC   C4A71574  28.221  14.436   7.209
 5704POPC   C1B71575  28.709  14.551   6.189
 5704POPC   C2B71576  28.713  14.319   6.570
 5704POPC   C3B71577  28.687  14.476   6.970
 5704POPC   C4B71578  28.681  14.215   7.313
 5705POPC   NC371579  36.590   8.958   5.527
 5705POPC   PO471580  36.056   8.877   5.203
 5705POPC   GL171581  36.064   8.989   5.645
 5705POPC   GL271582  36.245   8.738   5.831
 5705POPC   C1A71583  36.040   9.164   6.083
 5705POPC   D2A71584  36.039   9.001   6.512
 5705POPC   C3A71585  36.146   9.173   6.912
 5705POPC   C4A71586  36.325   8.932   7.266
 5705POPC   C1B71587  35.968   8.606   6.182
 5705POPC   C2B71588  35.900   8.493   6.639
 5705POPC   C3B71589  35.879   8.718   7.050
 5705POPC   C4B71590  35.939   8.680   7.539
 5706POPC   NC371591  18.405   0.582   5.269
 5706POPC   PO471592  17.883   0.172   5.410
 5706POPC   GL171593  18.128   0.353   5.795
 5706POPC   GL271594  18.345   0.648   5.763
 5706POPC   C1A71595  18.464   0.260   6.145
 5706POPC   D2A71596  18.652   0.048   6.544
 5706POPC   C3A71597  18.527   0.248   6.946
 5706POPC   C4A71598  18.369   0.242   7.367
 5706POPC   C1B71599  18.272   0.772   6.153
 5706POPC   C2B71600  18.436   0.632   6.547
 5706POPC   C3B71601  18.345   0.777   6.941
 5706POPC   C4B71602  17.996   0.758   7.174
 5707POPC   NC371603  30.236   6.945   5.535
 5707POPC   PO471604  30.557   7.546   5.396
 5707POPC   GL171605  30.484   7.609   5.795
 5707POPC   GL271606  30.862   7.586   5.866
 5707POPC   C1A71607  30.533   7.792   6.188
 5707POPC   D2A71608  30.819   7.615   6.474
 5707POPC   C3A71609  30.652   7.669   6.882
 5707POPC   C4A71610  30.681   7.452   7.253
 5707POPC   C1B71611  31.040   7.182   6.050
 5707POPC   C2B71612  30.978   7.106   6.472
 5707POPC   C3B71613  31.066   7.328   6.861
 5707POPC   C4B71614  31.045   7.099   7.272
 5708POPC   NC371615  35.084   4.361   5.149
 5708POPC   PO471616  34.395   4.224   5.314
 5708POPC   GL171617  34.445   4.083   5.781
 5708POPC   GL271618  34.114   4.028   5.895
 5708POPC   C1A71619  34.723   4.158   6.174
 5708POPC   D2A71620  34.641   4.347   6.591
 5708POPC   C3A71621  34.704   4.119   6.968
 5708POPC   C4A71622  34.942   4.216   7.363
 5708POPC   C1B71623  34.205   4.245   6.289
 5708POPC   C2B71624  34.164   4.533   6.657
 5708POPC   C3B71625  34.400   4.534   7.060
 5708POPC   C4B71626  34.431   4.200   7.403
 5709POPC   NC371627  36.828  19.066   5.453
 5709POPC   PO471628  36.867  19.681   5.427
 5709POPC   GL171629  36.823  19.405   5.845
 5709POPC   GL271630  37.086  19.112   5.910
 5709POPC   C1A71631  36.776  19.228   6.289
 5709POPC   D2A71632  36.567  18.962   6.608
 5709POPC   C3A71633  36.789  19.123   6.994
 5709POPC   C4A71634  37.210  19.016   7.158
 5709POPC   C1B71635  36.859  18.732   6.168
 5709POPC   C2B71636  36.742  18.481   6.568
 5709POPC   C3B71637  36.782  18.608   7.031
 5709POPC   C4B71638  36.572  18.859   7.376
 5710POPC   NC371639  22.553   1.799   5.370
 5710POPC   PO471640  23.059   2.264   5.474
 5710POPC   GL171641  22.798   2.063   5.735
 5710POPC   GL271642  23.009   1.803   5.830
 5710POPC   C1A71643  22.690   2.055   6.156
 5710POPC   D2A71644  22.902   2.206   6.521
 5710POPC   C3A71645  22.794   1.969   6.869
 5710POPC   C4A71646  22.791   2.009   7.306
 5710POPC   C1B71647  23.229   1.928   6.218
 5710POPC   C2B71648  23.275   1.831   6.682
 5710POPC   C3B71649  23.187   1.746   7.130
 5710POPC   C4B71650  22.964   1.592   7.518
 5711POPC   NC371651  33.947   4.237   5.432
 5711POPC   PO471652  33.371   3.838   5.340
 5711POPC   GL171653  33.568   4.019   5.761
 5711POPC   GL271654  33.632   4.369   5.836
 5711POPC   C1A71655  33.722   3.993   6.199
 5711POPC   D2A71656  33.769   4.206   6.571
 5711POPC   C3A71657  33.919   4.076   6.943
 5711POPC   C4A71658  33.575   3.938   7.132
 5711POPC   C1B71659  33.798   4.582   6.211
 5711POPC   C2B71660  33.645   4.683   6.631
 5711POPC   C3B71661  33.646   4.515   7.041
 5711POPC   C4B71662  33.970   4.431   7.326
 5712POPC   NC371663   5.938  40.574   5.371
 5712POPC   PO471664   5.979  41.240   5.558
 5712POPC   GL171665   5.657  40.908   5.748
 5712POPC   GL271666   5.774  40.562   5.837
 5712POPC   C1A71667   5.431  40.775   6.160
 5712POPC   D2A71668   5.519  40.602   6.601
 5712POPC   C3A71669   5.727  40.833   6.983
 5712POPC   C4A71670   5.785  40.689   7.448
 5712POPC   C1B71671   5.920  40.574   6.245
 5712POPC   C2B71672   6.066  40.458   6.641
 5712POPC   C3B71673   6.048  40.450   7.067
 5712POPC   C4B71674   6.238  40.820   7.263
 5713POPC   NC371675  25.731  42.135   5.244
 5713POPC   PO471676  25.180  42.173   5.408
 5713POPC   GL171677  25.377  42.197   5.823
 5713POPC   GL271678  25.560  42.494   5.879
 5713POPC   C1A71679  25.220  42.054   6.225
 5713POPC   D2A71680  25.284  42.171   6.631
 5713POPC   C3A71681  25.064  42.156   6.981
 5713POPC   C4A71682  25.268  42.447   7.262
 5713POPC   C1B71683  25.453  42.570   6.344
 5713POPC   C2B71684  25.585  42.765   6.765
 5713POPC   C3B71685  25.705  42.700   7.188
 5713POPC   C4B71686  25.487  42.755   7.607
 5714POPC   NC371687   5.608  34.747   5.319
 5714POPC   PO471688   6.271  34.505   5.456
 5714POPC   GL171689   5.847  34.585   5.725
 5714POPC   GL271690   5.663  34.946   5.780
 5714POPC   C1A71691   5.747  34.499   6.144
 5714POPC   D2A71692   6.009  34.476   6.488
 5714POPC   C3A71693   5.836  34.487   6.879
 5714POPC   C4A71694   5.882  34.657   7.280
 5714POPC   C1B71695   5.525  34.985   6.220
 5714POPC   C2B71696   5.453  34.786   6.645
 5714POPC   C3B71697   5.533  34.965   7.075
 5714POPC   C4B71698   5.727  35.105   7.492
 5715POPC   NC371699  25.747  13.048   5.017
 5715POPC   PO471700  25.205  12.834   5.282
 5715POPC   GL171701  25.115  12.759   5.717
 5715POPC   GL271702  25.316  12.519   5.912
 5715POPC   C1A71703  25.178  12.953   6.131
 5715POPC   D2A71704  25.165  12.757   6.525
 5715POPC   C3A71705  25.159  13.038   6.870
 5715POPC   C4A71706  25.131  12.974   7.310
 5715POPC   C1B71707  25.488  12.350   6.298
 5715POPC   C2B71708  25.578  12.532   6.705
 5715POPC   C3B71709  25.267  12.548   7.048
 5715POPC   C4B71710  25.316  12.539   7.503
 5716POPC   NC371711  17.343   9.477   5.463
 5716POPC   PO471712  17.520   8.848   5.476
 5716POPC   GL171713  17.480   9.024   5.822
 5716POPC   GL271714  17.247   8.857   5.967
 5716POPC   C1A71715  17.770   9.120   6.179
 5716POPC   D2A71716  17.940   8.898   6.554
 5716POPC   C3A71717  17.696   8.900   6.938
 5716POPC   C4A71718  17.399   8.692   7.172
 5716POPC   C1B71719  17.288   9.288   6.181
 5716POPC   C2B71720  17.229   9.376   6.590
 5716POPC   C3B71721  17.218   9.156   6.980
 5716POPC   C4B71722  17.106   9.306   7.357
 5717POPC   NC371723  15.410  44.005   5.360
 5717POPC   PO471724  14.853  43.813   5.278
 5717POPC   GL171725  15.050  43.973   5.747
 5717POPC   GL271726  15.357  44.180   5.831
 5717POPC   C1A71727  15.277  43.811   6.192
 5717POPC   D2A71728  15.554  43.883   6.624
 5717POPC   C3A71729  15.346  43.817   7.057
 5717POPC   C4A71730  15.286  43.575   7.487
 5717POPC   C1B71731  15.515  44.293   6.234
 5717POPC   C2B71732  15.632  44.403   6.642
 5717POPC   C3B71733  15.582  44.282   7.063
 5717POPC   C4B71734  15.495  44.051   7.485
 5718POPC   NC371735  36.880   2.518   5.479
 5718POPC   PO471736  37.074   3.174   5.403
 5718POPC   GL171737  36.918   2.999   5.805
 5718POPC   GL271738  37.188   2.763   5.879
 5718POPC   C1A71739  36.908   2.955   6.302
 5718POPC   D2A71740  37.005   2.975   6.781
 5718POPC   C3A71741  36.763   2.726   7.093
 5718POPC   C4A71742  36.372   2.519   7.112
 5718POPC   C1B71743  37.102   2.478   6.216
 5718POPC   C2B71744  37.157   2.334   6.633
 5718POPC   C3B71745  37.205   2.501   7.031
 5718POPC   C4B71746  37.009   2.266   7.334
 5719POPC   NC371747  38.782  14.106   5.504
 5719POPC   PO471748  38.414  13.468   5.449
 5719POPC   GL171749  38.402  13.792   5.779
 5719POPC   GL271750  38.715  13.773   5.916
 5719POPC   C1A71751  38.226  13.699   6.171
 5719POPC   D2A71752  38.216  13.387   6.508
 5719POPC   C3A71753  38.147  13.581   6.891
 5719POPC   C4A71754  38.342  13.667   7.283
 5719POPC   C1B71755  38.690  13.549   6.326
 5719POPC   C2B71756  38.687  13.639   6.785
 5719POPC   C3B71757  38.789  13.872   7.173
 5719POPC   C4B71758  38.740  13.698   7.626
 5720POPC   NC371759  41.713   6.130   5.265
 5720POPC   PO471760  41.334   5.584   5.438
 5720POPC   GL171761  41.380   5.815   5.812
 5720POPC   GL271762  41.083   5.646   5.914
 5720POPC   C1A71763  41.692   5.891   6.181
 5720POPC   D2A71764  41.712   6.070   6.634
 5720POPC   C3A71765  41.845   5.861   7.011
 5720POPC   C4A71766  41.720   5.457   7.133
 5720POPC   C1B71767  41.217   5.802   6.321
 5720POPC   C2B71768  41.363   5.653   6.720
 5720POPC   C3B71769  41.334   5.780   7.126
 5720POPC   C4B71770  41.474   6.183   7.177
 5721POPC   NC371771  22.292  11.439   5.414
 5721POPC   PO471772  21.619  11.525   5.314
 5721POPC   GL171773  21.882  11.447   5.735
 5721POPC   GL271774  22.053  11.130   5.757
 5721POPC   C1A71775  22.171  11.435   6.152
 5721POPC   D2A71776  22.041  11.478   6.610
 5721POPC   C3A71777  22.353  11.496   6.944
 5721POPC   C4A71778  22.195  11.443   7.347
 5721POPC   C1B71779  22.188  10.913   6.161
 5721POPC   C2B71780  22.355  11.080   6.567
 5721POPC   C3B71781  22.268  11.014   6.996
 5721POPC   C4B71782  22.454  10.725   7.236
 5722POPC   NC371783  27.575  15.397   5.441
 5722POPC   PO471784  27.768  14.837   5.793
 5722POPC   GL171785  27.777  15.268   5.896
 5722POPC   GL271786  27.469  15.425   5.936
 5722POPC   C1A71787  28.015  15.316   6.268
 5722POPC   D2A71788  28.001  15.027   6.602
 5722POPC   C3A71789  27.835  15.098   6.998
 5722POPC   C4A71790  27.882  14.948   7.411
 5722POPC   C1B71791  27.530  15.153   6.323
 5722POPC   C2B71792  27.436  15.298   6.680
 5722POPC   C3B71793  27.542  15.527   7.004
 5722POPC   C4B71794  27.461  15.554   7.384
 5723POPC   NC371795   8.489  17.410   5.450
 5723POPC   PO471796   8.051  17.935   5.499
 5723POPC   GL171797   8.105  17.544   5.785
 5723POPC   GL271798   7.919  17.238   5.659
 5723POPC   C1A71799   8.233  17.499   6.229
 5723POPC   D2A71800   8.302  17.767   6.622
 5723POPC   C3A71801   8.274  17.624   7.080
 5723POPC   C4A71802   8.514  17.308   7.322
 5723POPC   C1B71803   7.773  17.189   6.083
 5723POPC   C2B71804   8.001  17.110   6.470
 5723POPC   C3B71805   8.032  17.228   6.875
 5723POPC   C4B71806   8.048  17.072   7.259
 5724POPC   NC371807  36.408  39.361   5.300
 5724POPC   PO471808  35.848  38.903   5.202
 5724POPC   GL171809  35.912  39.156   5.598
 5724POPC   GL271810  36.223  39.137   5.741
 5724POPC   C1A71811  35.823  39.279   6.053
 5724POPC   D2A71812  35.859  39.457   6.469
 5724POPC   C3A71813  35.867  39.263   6.870
 5724POPC   C4A71814  36.049  39.565   7.125
 5724POPC   C1B71815  36.329  38.966   6.149
 5724POPC   C2B71816  36.245  39.109   6.556
 5724POPC   C3B71817  36.374  39.185   6.969
 5724POPC   C4B71818  36.547  39.017   7.314
 5725POPC   NC371819  27.964  21.589   5.365
 5725POPC   PO471820  28.475  21.136   5.192
 5725POPC   GL171821  28.575  21.194   5.657
 5725POPC   GL271822  28.398  21.528   5.742
 5725POPC   C1A71823  28.428  21.166   6.110
 5725POPC   D2A71824  28.350  21.441   6.486
 5725POPC   C3A71825  28.410  21.270   6.930
 5725POPC   C4A71826  28.371  21.060   7.346
 5725POPC   C1B71827  28.048  21.563   6.061
 5725POPC   C2B71828  27.909  21.709   6.479
 5725POPC   C3B71829  28.071  21.656   6.896
 5725POPC   C4B71830  28.260  21.625   7.324
 5726POPC   NC371831  37.393   1.997   5.487
 5726POPC   PO471832  36.679   2.070   5.470
 5726POPC   GL171833  36.947   2.095   5.795
 5726POPC   GL271834  37.046   1.769   5.786
 5726POPC   C1A71835  36.800   2.070   6.205
 5726POPC   D2A71836  36.830   1.911   6.594
 5726POPC   C3A71837  36.734   2.186   6.919
 5726POPC   C4A71838  36.589   1.994   7.287
 5726POPC   C1B71839  37.189   1.735   6.199
 5726POPC   C2B71840  37.328   1.812   6.616
 5726POPC   C3B71841  37.162   1.902   6.992
 5726POPC   C4B71842  37.114   1.597   7.261
 5727POPC   NC371843  14.451  36.328   5.415
 5727POPC   PO471844  14.462  35.691   5.612
 5727POPC   GL171845  14.313  36.036   5.869
 5727POPC   GL271846  14.259  36.395   5.906
 5727POPC   C1A71847  14.322  36.091   6.314
 5727POPC   D2A71848  14.190  36.214   6.676
 5727POPC   C3A71849  14.220  35.889   6.973
 5727POPC   C4A71850  14.610  35.873   7.184
 5727POPC   C1B71851  14.631  36.439   6.098
 5727POPC   C2B71852  14.697  36.413   6.541
 5727POPC   C3B71853  14.594  36.348   6.981
 5727POPC   C4B71854  14.211  36.367   7.170
 5728POPC   NC371855   6.802  20.291   5.387
 5728POPC   PO471856   6.282  20.793   5.518
 5728POPC   GL171857   6.509  20.534   5.798
 5728POPC   GL271858   6.875  20.578   5.816
 5728POPC   C1A71859   6.524  20.451   6.231
 5728POPC   D2A71860   6.573  20.733   6.632
 5728POPC   C3A71861   6.518  20.467   7.028
 5728POPC   C4A71862   6.601  20.618   7.462
 5728POPC   C1B71863   6.884  20.819   6.213
 5728POPC   C2B71864   7.086  20.831   6.599
 5728POPC   C3B71865   6.964  20.675   6.981
 5728POPC   C4B71866   6.994  20.868   7.298
 5729POPC   NC371867  13.429  40.345   5.140
 5729POPC   PO471868  13.602  39.799   5.227
 5729POPC   GL171869  13.606  39.838   5.714
 5729POPC   GL271870  13.542  40.164   5.878
 5729POPC   C1A71871  13.640  39.768   6.211
 5729POPC   D2A71872  13.880  39.854   6.640
 5729POPC   C3A71873  13.665  39.869   7.088
 5729POPC   C4A71874  13.865  39.873   7.516
 5729POPC   C1B71875  13.319  40.176   6.268
 5729POPC   C2B71876  13.418  40.082   6.685
 5729POPC   C3B71877  13.271  40.209   7.104
 5729POPC   C4B71878  13.381  40.008   7.518
 5730POPC   NC371879   1.743  10.969   5.476
 5730POPC   PO471880   2.153  10.396   5.277
 5730POPC   GL171881   2.114  10.400   5.758
 5730POPC   GL271882   1.864  10.138   5.921
 5730POPC   C1A71883   2.142  10.462   6.214
 5730POPC   D2A71884   2.193  10.268   6.620
 5730POPC   C3A71885   2.253  10.609   6.894
 5730POPC   C4A71886   2.323  10.785   7.309
 5730POPC   C1B71887   1.625  10.294   6.282
 5730POPC   C2B71888   1.710  10.527   6.657
 5730POPC   C3B71889   1.822  10.366   7.056
 5730POPC   C4B71890   1.931  10.463   7.477
 5731POPC   NC371891   7.471   0.903   5.180
 5731POPC   PO471892   7.653   0.313   5.529
 5731POPC   GL171893   7.678   0.386   5.938
 5731POPC   GL271894   7.486   0.689   6.021
 5731POPC   C1A71895   7.793   0.450   6.365
 5731POPC   D2A71896   7.538   0.488   6.727
 5731POPC   C3A71897   7.703   0.270   7.104
 5731POPC   C4A71898   7.451   0.456   7.440
 5731POPC   C1B71899   7.232   0.540   6.306
 5731POPC   C2B71900   6.995   0.554   6.622
 5731POPC   C3B71901   7.095   0.435   7.013
 5731POPC   C4B71902   6.955   0.564   7.395
 5732POPC   NC371903  42.057  10.534   5.390
 5732POPC   PO471904  42.609  10.128   5.469
 5732POPC   GL171905  42.453  10.439   5.799
 5732POPC   GL271906  42.229  10.745   5.845
 5732POPC   C1A71907  42.532  10.563   6.230
 5732POPC   D2A71908  42.341  10.499   6.625
 5732POPC   C3A71909  42.473  10.726   6.939
 5732POPC   C4A71910  42.394  10.907   7.303
 5732POPC   C1B71911  42.029  10.674   6.248
 5732POPC   C2B71912  41.899  10.756   6.673
 5732POPC   C3B71913  42.002  10.647   7.108
 5732POPC   C4B71914  41.836  10.597   7.524
 5733POPC   NC371915   1.592   6.195   5.473
 5733POPC   PO471916   2.161   5.782   5.460
 5733POPC   GL171917   1.928   5.960   5.811
 5733POPC   GL271918   1.684   5.734   5.931
 5733POPC   C1A71919   2.017   6.147   6.228
 5733POPC   D2A71920   1.866   6.215   6.664
 5733POPC   C3A71921   2.161   6.121   7.001
 5733POPC   C4A71922   2.282   5.762   7.248
 5733POPC   C1B71923   1.884   5.648   6.321
 5733POPC   C2B71924   1.954   5.717   6.756
 5733POPC   C3B71925   1.730   5.874   7.095
 5733POPC   C4B71926   1.657   5.689   7.485
 5734POPC   NC371927  31.084  35.994   5.283
 5734POPC   PO471928  31.615  36.432   5.396
 5734POPC   GL171929  31.659  36.225   5.802
 5734POPC   GL271930  31.624  35.853   5.810
 5734POPC   C1A71931  31.656  36.262   6.247
 5734POPC   D2A71932  31.260  36.357   6.502
 5734POPC   C3A71933  31.377  36.327   6.930
 5734POPC   C4A71934  31.419  36.508   7.323
 5734POPC   C1B71935  31.293  35.952   6.142
 5734POPC   C2B71936  31.315  35.849   6.569
 5734POPC   C3B71937  31.246  35.800   6.977
 5734POPC   C4B71938  31.402  36.004   7.350
 5735POPC   NC371939  28.571  15.483   5.464
 5735POPC   PO471940  27.953  15.145   5.341
 5735POPC   GL171941  28.245  15.178   5.743
 5735POPC   GL271942  28.213  15.551   5.829
 5735POPC   C1A71943  28.362  14.959   6.168
 5735POPC   D2A71944  28.534  14.811   6.599
 5735POPC   C3A71945  28.325  14.902   6.997
 5735POPC   C4A71946  28.333  15.148   7.375
 5735POPC   C1B71947  28.491  15.472   6.171
 5735POPC   C2B71948  28.446  15.303   6.588
 5735POPC   C3B71949  28.230  15.441   6.957
 5735POPC   C4B71950  27.961  15.482   7.319
 5736POPC   NC371951  33.490   6.330   5.393
 5736POPC   PO471952  33.520   7.009   5.382
 5736POPC   GL171953  33.684   6.683   5.718
 5736POPC   GL271954  34.009   6.518   5.825
 5736POPC   C1A71955  33.604   6.474   6.112
 5736POPC   D2A71956  33.304   6.432   6.402
 5736POPC   C3A71957  33.401   6.361   6.826
 5736POPC   C4A71958  33.578   6.301   7.237
 5736POPC   C1B71959  34.108   6.496   6.255
 5736POPC   C2B71960  33.859   6.595   6.589
 5736POPC   C3B71961  33.800   6.706   6.982
 5736POPC   C4B71962  34.024   6.594   7.308
 5737POPC   NC371963   1.505  42.030   5.124
 5737POPC   PO471964   1.174  42.562   5.234
 5737POPC   GL171965   1.242  42.530   5.721
 5737POPC   GL271966   1.295  42.840   5.896
 5737POPC   C1A71967   1.308  42.297   6.174
 5737POPC   D2A71968   1.331  42.435   6.625
 5737POPC   C3A71969   1.318  42.221   7.017
 5737POPC   C4A71970   1.522  41.848   7.276
 5737POPC   C1B71971   0.927  42.635   6.114
 5737POPC   C2B71972   0.839  42.549   6.544
 5737POPC   C3B71973   0.813  42.602   6.989
 5737POPC   C4B71974   1.158  42.628   7.304
 5738POPC   NC371975  39.262  43.740   5.385
 5738POPC   PO471976  39.472  44.295   5.620
 5738POPC   GL171977  39.207  43.980   5.847
 5738POPC   GL271978  39.341  43.627   5.876
 5738POPC   C1A71979  39.071  43.849   6.263
 5738POPC   D2A71980  39.317  43.666   6.617
 5738POPC   C3A71981  39.286  43.915   6.962
 5738POPC   C4A71982  39.495  44.134   7.251
 5738POPC   C1B71983  39.247  43.353   6.226
 5738POPC   C2B71984  39.107  43.184   6.614
 5738POPC   C3B71985  39.257  43.313   7.015
 5738POPC   C4B71986  39.141  43.616   7.344
 5739POPC   NC371987  32.550  13.442   5.455
 5739POPC   PO471988  31.978  13.807   5.389
 5739POPC   GL171989  32.135  13.716   5.806
 5739POPC   GL271990  32.190  13.387   5.798
 5739POPC   C1A71991  32.287  13.731   6.255
 5739POPC   D2A71992  32.574  13.617   6.619
 5739POPC   C3A71993  32.382  13.815   7.005
 5739POPC   C4A71994  32.006  13.752   7.256
 5739POPC   C1B71995  32.408  13.223   6.156
 5739POPC   C2B71996  32.393  13.104   6.579
 5739POPC   C3B71997  32.409  13.268   6.984
 5739POPC   C4B71998  32.374  13.013   7.348
 5740POPC   NC371999  29.809   4.497   5.367
 5740POPC   PO472000  30.279   4.063   5.228
 5740POPC   GL172001  30.117   4.179   5.641
 5740POPC   GL272002  29.748   4.216   5.775
 5740POPC   C1A72003  30.205   4.104   6.078
 5740POPC   D2A72004  30.318   3.997   6.507
 5740POPC   C3A72005  30.090   4.254   6.827
 5740POPC   C4A72006  30.173   4.322   7.246
 5740POPC   C1B72007  29.616   4.110   6.168
 5740POPC   C2B72008  29.611   4.272   6.595
 5740POPC   C3B72009  29.618   4.027   6.959
 5740POPC   C4B72010  29.612   4.155   7.373
 5741POPC   NC372011  16.265   5.629   5.377
 5741POPC   PO472012  15.852   6.133   5.334
 5741POPC   GL172013  15.912   5.934   5.746
 5741POPC   GL272014  15.861   6.256   5.899
 5741POPC   C1A72015  16.156   5.914   6.152
 5741POPC   D2A72016  16.040   6.054   6.585
 5741POPC   C3A72017  15.920   5.725   6.876
 5741POPC   C4A72018  16.095   5.620   7.255
 5741POPC   C1B72019  15.628   6.253   6.258
 5741POPC   C2B72020  15.674   6.408   6.656
 5741POPC   C3B72021  15.750   6.192   7.019
 5741POPC   C4B72022  16.154   6.128   7.165
 5742POPC   NC372023  30.916  20.837   5.325
 5742POPC   PO472024  31.503  20.559   5.154
 5742POPC   GL172025  31.455  20.557   5.660
 5742POPC   GL272026  31.256  20.831   5.742
 5742POPC   C1A72027  31.544  20.349   6.095
 5742POPC   D2A72028  31.354  20.340   6.527
 5742POPC   C3A72029  31.679  20.396   6.852
 5742POPC   C4A72030  31.664  20.463   7.303
 5742POPC   C1B72031  31.535  20.880   6.120
 5742POPC   C2B72032  31.539  20.831   6.579
 5742POPC   C3B72033  31.686  20.904   7.013
 5742POPC   C4B72034  31.383  20.928   7.359
 5743POPC   NC372035  37.886  16.940   5.444
 5743POPC   PO472036  37.449  16.487   5.416
 5743POPC   GL172037  37.551  16.725   5.792
 5743POPC   GL272038  37.890  16.696   5.873
 5743POPC   C1A72039  37.569  16.626   6.243
 5743POPC   D2A72040  37.495  16.856   6.564
 5743POPC   C3A72041  37.566  16.688   6.922
 5743POPC   C4A72042  37.377  16.612   7.281
 5743POPC   C1B72043  38.007  16.899   6.237
 5743POPC   C2B72044  37.997  16.771   6.620
 5743POPC   C3B72045  38.002  16.952   6.990
 5743POPC   C4B72046  37.734  16.963   7.312
 5744POPC   NC372047  25.194  29.580   5.582
 5744POPC   PO472048  25.411  29.053   5.257
 5744POPC   GL172049  25.255  29.040   5.704
 5744POPC   GL272050  25.527  29.231   5.814
 5744POPC   C1A72051  25.153  29.175   6.181
 5744POPC   D2A72052  25.200  29.364   6.628
 5744POPC   C3A72053  25.160  29.103   7.017
 5744POPC   C4A72054  25.364  28.710   7.152
 5744POPC   C1B72055  25.716  29.142   6.201
 5744POPC   C2B72056  25.613  29.036   6.606
 5744POPC   C3B72057  25.706  29.073   7.019
 5744POPC   C4B72058  25.519  29.201   7.406
 5745POPC   NC372059  13.923  26.447   5.483
 5745POPC   PO472060  13.947  25.764   5.444
 5745POPC   GL172061  13.691  25.848   5.815
 5745POPC   GL272062  13.775  26.170   5.928
 5745POPC   C1A72063  13.597  25.780   6.276
 5745POPC   D2A72064  13.602  25.983   6.686
 5745POPC   C3A72065  13.682  25.835   7.100
 5745POPC   C4A72066  13.647  26.033   7.537
 5745POPC   C1B72067  13.475  26.285   6.260
 5745POPC   C2B72068  13.378  26.456   6.663
 5745POPC   C3B72069  13.511  26.340   7.074
 5745POPC   C4B72070  13.248  26.328   7.410
 5746POPC   NC372071  16.206   4.893   5.505
 5746POPC   PO472072  15.815   5.519   5.455
 5746POPC   GL172073  15.913   5.218   5.758
 5746POPC   GL272074  15.681   4.925   5.665
 5746POPC   C1A72075  16.235   5.182   6.117
 5746POPC   D2A72076  16.268   5.430   6.521
 5746POPC   C3A72077  16.121   5.237   6.903
 5746POPC   C4A72078  15.718   5.262   7.163
 5746POPC   C1B72079  15.828   4.831   6.082
 5746POPC   C2B72080  16.027   4.891   6.496
 5746POPC   C3B72081  15.796   4.829   6.872
 5746POPC   C4B72082  15.843   4.610   7.245
 5747POPC   NC372083   6.238  17.275   5.520
 5747POPC   PO472084   6.819  17.601   5.529
 5747POPC   GL172085   6.744  17.563   5.956
 5747POPC   GL272086   6.846  17.237   5.950
 5747POPC   C1A72087   6.831  17.692   6.390
 5747POPC   D2A72088   6.606  17.859   6.755
 5747POPC   C3A72089   6.698  17.688   7.161
 5747POPC   C4A72090   6.919  17.335   7.338
 5747POPC   C1B72091   6.633  17.223   6.341
 5747POPC   C2B72092   6.715  17.327   6.786
 5747POPC   C3B72093   6.462  17.196   7.150
 5747POPC   C4B72094   6.435  17.176   7.592
 5748POPC   NC372095  25.007  30.719   5.412
 5748POPC   PO472096  25.676  30.717   5.350
 5748POPC   GL172097  25.428  30.722   5.764
 5748POPC   GL272098  25.074  30.603   5.890
 5748POPC   C1A72099  25.418  30.810   6.223
 5748POPC   D2A72100  25.405  30.647   6.659
 5748POPC   C3A72101  25.271  30.986   6.932
 5748POPC   C4A72102  24.955  31.022   7.258
 5748POPC   C1B72103  24.786  30.440   6.193
 5748POPC   C2B72104  24.737  30.278   6.574
 5748POPC   C3B72105  24.916  30.524   6.884
 5748POPC   C4B72106  25.228  30.502   7.188
 5749POPC   NC372107  26.559  13.081   5.321
 5749POPC   PO472108  26.883  12.593   5.473
 5749POPC   GL172109  26.715  12.793   5.842
 5749POPC   GL272110  26.721  13.142   5.810
 5749POPC   C1A72111  26.751  12.632   6.267
 5749POPC   D2A72112  26.971  12.665   6.658
 5749POPC   C3A72113  26.700  12.639   7.011
 5749POPC   C4A72114  26.805  12.759   7.408
 5749POPC   C1B72115  26.685  13.314   6.186
 5749POPC   C2B72116  26.705  13.092   6.531
 5749POPC   C3B72117  26.776  13.144   6.922
 5749POPC   C4B72118  26.459  13.102   7.195
 5750POPC   NC372119  28.879  21.408   5.050
 5750POPC   PO472120  29.265  21.276   5.543
 5750POPC   GL172121  29.238  21.413   5.919
 5750POPC   GL272122  28.928  21.570   5.860
 5750POPC   C1A72123  29.427  21.325   6.273
 5750POPC   D2A72124  29.249  21.328   6.644
 5750POPC   C3A72125  29.385  21.569   6.962
 5750POPC   C4A72126  29.374  21.280   7.273
 5750POPC   C1B72127  28.862  21.414   6.284
 5750POPC   C2B72128  28.794  21.555   6.706
 5750POPC   C3B72129  28.837  21.478   7.130
 5750POPC   C4B72130  28.675  21.431   7.547
 5751POPC   NC372131  10.791   6.692   5.414
 5751POPC   PO472132  10.119   6.501   5.401
 5751POPC   GL172133  10.402   6.543   5.752
 5751POPC   GL272134  10.557   6.259   5.837
 5751POPC   C1A72135  10.633   6.688   6.146
 5751POPC   D2A72136  10.861   6.729   6.543
 5751POPC   C3A72137  10.607   6.770   6.921
 5751POPC   C4A72138  10.383   6.957   7.273
 5751POPC   C1B72139  10.783   6.182   6.215
 5751POPC   C2B72140  10.560   6.298   6.547
 5751POPC   C3B72141  10.445   6.277   6.950
 5751POPC   C4B72142  10.510   6.464   7.342
 5752POPC   NC372143  21.952  19.399   5.573
 5752POPC   PO472144  22.379  18.851   5.428
 5752POPC   GL172145  22.147  18.984   5.797
 5752POPC   GL272146  22.428  19.142   5.927
 5752POPC   C1A72147  22.031  19.275   6.194
 5752POPC   D2A72148  21.867  19.123   6.547
 5752POPC   C3A72149  22.119  19.078   6.843
 5752POPC   C4A72150  22.155  19.347   7.177
 5752POPC   C1B72151  22.246  18.813   6.270
 5752POPC   C2B72152  22.311  18.588   6.669
 5752POPC   C3B72153  22.239  18.646   7.112
 5752POPC   C4B72154  22.228  18.913   7.454
 5753POPC   NC372155  20.956  10.249   5.606
 5753POPC   PO472156  21.569  10.460   5.357
 5753POPC   GL172157  21.378  10.581   5.761
 5753POPC   GL272158  21.339  10.273   5.954
 5753POPC   C1A72159  21.529  10.684   6.196
 5753POPC   D2A72160  21.567  10.401   6.552
 5753POPC   C3A72161  21.633  10.637   6.943
 5753POPC   C4A72162  21.934  10.747   7.274
 5753POPC   C1B72163  21.006  10.161   6.236
 5753POPC   C2B72164  21.068  10.052   6.612
 5753POPC   C3B72165  21.268  10.229   6.944
 5753POPC   C4B72166  21.389  10.388   7.328
 5754POPC   NC372167  38.993  34.463   5.542
 5754POPC   PO472168  39.535  34.820   5.544
 5754POPC   GL172169  39.463  34.499   5.850
 5754POPC   GL272170  39.318  34.135   5.835
 5754POPC   C1A72171  39.502  34.645   6.250
 5754POPC   D2A72172  39.203  34.723   6.555
 5754POPC   C3A72173  39.291  34.495   6.914
 5754POPC   C4A72174  39.143  34.544   7.346
 5754POPC   C1B72175  39.084  34.319   6.209
 5754POPC   C2B72176  38.901  34.296   6.630
 5754POPC   C3B72177  38.906  34.182   7.063
 5754POPC   C4B72178  39.355  34.101   7.233
 5755POPC   NC372179  43.704  30.360   5.464
 5755POPC   PO472180  44.095  30.983   5.316
 5755POPC   GL172181  43.931  30.857   5.728
 5755POPC   GL272182  43.589  30.818   5.713
 5755POPC   C1A72183  43.962  30.846   6.217
 5755POPC   D2A72184  44.120  30.896   6.672
 5755POPC   C3A72185  43.945  30.578   6.938
 5755POPC   C4A72186  43.557  30.431   7.105
 5755POPC   C1B72187  43.467  30.662   6.135
 5755POPC   C2B72188  43.561  30.717   6.583
 5755POPC   C3B72189  43.566  30.945   6.971
 5755POPC   C4B72190  43.802  31.040   7.309
 5756POPC   NC372191  31.065  35.122   5.642
 5756POPC   PO472192  30.701  35.555   5.214
 5756POPC   GL172193  30.661  35.433   5.732
 5756POPC   GL272194  30.564  35.161   5.834
 5756POPC   C1A72195  30.809  35.386   6.222
 5756POPC   D2A72196  30.882  35.087   6.602
 5756POPC   C3A72197  30.948  35.332   6.999
 5756POPC   C4A72198  30.667  35.623   7.115
 5756POPC   C1B72199  30.495  34.969   6.185
 5756POPC   C2B72200  30.364  35.028   6.582
 5756POPC   C3B72201  30.501  35.092   6.999
 5756POPC   C4B72202  30.248  35.043   7.364
 5757POPC   NC372203  34.082  26.423   5.105
 5757POPC   PO472204  34.407  25.966   5.504
 5757POPC   GL172205  34.492  26.067   5.887
 5757POPC   GL272206  34.714  25.788   5.891
 5757POPC   C1A72207  34.374  26.279   6.271
 5757POPC   D2A72208  34.529  26.234   6.680
 5757POPC   C3A72209  34.251  26.250   7.021
 5757POPC   C4A72210  34.470  26.352   7.385
 5757POPC   C1B72211  34.725  25.871   6.324
 5757POPC   C2B72212  34.736  25.733   6.740
 5757POPC   C3B72213  34.688  25.965   7.098
 5757POPC   C4B72214  35.013  26.254   7.231
 5758POPC   NC372215  37.914  11.136   5.297
 5758POPC   PO472216  37.348  11.371   5.318
 5758POPC   GL172217  37.638  11.383   5.697
 5758POPC   GL272218  37.620  10.998   5.730
 5758POPC   C1A72219  37.803  11.517   6.171
 5758POPC   D2A72220  37.850  11.558   6.675
 5758POPC   C3A72221  37.478  11.493   6.950
 5758POPC   C4A72222  37.323  11.335   7.361
 5758POPC   C1B72223  37.784  10.985   6.194
 5758POPC   C2B72224  37.722  11.080   6.675
 5758POPC   C3B72225  37.769  11.144   7.183
 5758POPC   C4B72226  37.973  11.036   7.682
 5759POPC   NC372227  33.961  13.100   5.329
 5759POPC   PO472228  33.865  12.461   5.222
 5759POPC   GL172229  33.792  12.686   5.642
 5759POPC   GL272230  33.759  13.057   5.789
 5759POPC   C1A72231  33.801  12.660   6.106
 5759POPC   D2A72232  33.595  12.769   6.485
 5759POPC   C3A72233  33.712  12.734   6.932
 5759POPC   C4A72234  33.507  12.875   7.305
 5759POPC   C1B72235  33.965  13.185   6.206
 5759POPC   C2B72236  33.961  13.154   6.676
 5759POPC   C3B72237  33.819  13.226   7.108
 5759POPC   C4B72238  33.973  13.179   7.534
 5760POPC   NC372239  42.351  13.197   5.677
 5760POPC   PO472240  42.095  12.665   5.330
 5760POPC   GL172241  42.258  12.695   5.775
 5760POPC   GL272242  42.629  12.640   5.780
 5760POPC   C1A72243  42.426  12.850   6.223
 5760POPC   D2A72244  42.461  12.782   6.674
 5760POPC   C3A72245  42.034  12.796   6.899
 5760POPC   C4A72246  41.964  12.946   7.328
 5760POPC   C1B72247  42.729  12.433   6.186
 5760POPC   C2B72248  42.898  12.476   6.632
 5760POPC   C3B72249  42.792  12.534   7.085
 5760POPC   C4B72250  42.463  12.854   7.197
 5761POPC   NC372251  19.627  10.203   5.450
 5761POPC   PO472252  19.777  10.849   5.333
 5761POPC   GL172253  19.813  10.613   5.695
 5761POPC   GL272254  19.460  10.632   5.743
 5761POPC   C1A72255  19.985  10.549   6.099
 5761POPC   D2A72256  19.889  10.792   6.462
 5761POPC   C3A72257  20.078  10.574   6.798
 5761POPC   C4A72258  19.911  10.619   7.215
 5761POPC   C1B72259  19.530  10.332   6.086
 5761POPC   C2B72260  19.704  10.320   6.492
 5761POPC   C3B72261  19.572  10.522   6.839
 5761POPC   C4B72262  19.369  10.372   7.177
 5762POPC   NC372263  40.652   9.881   5.321
 5762POPC   PO472264  41.154   9.745   5.676
 5762POPC   GL172265  40.736   9.730   5.810
 5762POPC   GL272266  40.799   9.429   5.995
 5762POPC   C1A72267  40.671  10.008   6.155
 5762POPC   D2A72268  40.815  10.062   6.583
 5762POPC   C3A72269  40.747   9.724   6.886
 5762POPC   C4A72270  40.966   9.445   7.199
 5762POPC   C1B72271  40.462   9.552   6.241
 5762POPC   C2B72272  40.290   9.912   6.489
 5762POPC   C3B72273  40.306  10.023   6.935
 5762POPC   C4B72274  40.504   9.861   7.343
 5763POPC   NC372275  34.756  29.801   5.465
 5763POPC   PO472276  34.195  30.105   5.642
 5763POPC   GL172277  34.440  29.872   5.871
 5763POPC   GL272278  34.245  29.582   5.779
 5763POPC   C1A72279  34.639  29.960   6.265
 5763POPC   D2A72280  34.814  29.970   6.686
 5763POPC   C3A72281  34.591  30.069   7.054
 5763POPC   C4A72282  34.694  30.405   7.400
 5763POPC   C1B72283  34.218  29.607   6.239
 5763POPC   C2B72284  34.292  29.832   6.611
 5763POPC   C3B72285  34.354  29.559   6.917
 5763POPC   C4B72286  34.393  29.646   7.291
 5764POPC   NC372287  41.977  28.356   5.654
 5764POPC   PO472288  41.329  28.276   5.404
 5764POPC   GL172289  41.468  28.306   5.827
 5764POPC   GL272290  41.545  28.668   5.812
 5764POPC   C1A72291  41.562  28.203   6.278
 5764POPC   D2A72292  41.865  28.435   6.556
 5764POPC   C3A72293  41.689  28.495   6.936
 5764POPC   C4A72294  41.499  28.169   7.149
 5764POPC   C1B72295  41.348  28.656   6.218
 5764POPC   C2B72296  41.268  28.546   6.635
 5764POPC   C3B72297  41.240  28.753   7.033
 5764POPC   C4B72298  41.364  28.589   7.434
 5765POPC   NC372299  28.687  11.985   5.457
 5765POPC   PO472300  29.237  12.295   5.284
 5765POPC   GL172301  29.404  12.043   5.659
 5765POPC   GL272302  29.091  11.873   5.783
 5765POPC   C1A72303  29.457  12.072   6.140
 5765POPC   D2A72304  29.441  11.870   6.567
 5765POPC   C3A72305  29.470  12.097   6.934
 5765POPC   C4A72306  29.068  12.191   7.093
 5765POPC   C1B72307  28.770  11.885   6.147
 5765POPC   C2B72308  28.717  11.790   6.618
 5765POPC   C3B72309  28.827  11.747   7.085
 5765POPC   C4B72310  28.781  11.932   7.531
 5766POPC   NC372311  28.160  13.156   5.469
 5766POPC   PO472312  28.508  12.459   5.400
 5766POPC   GL172313  28.405  12.743   5.728
 5766POPC   GL272314  28.623  12.985   5.613
 5766POPC   C1A72315  28.289  12.873   6.178
 5766POPC   D2A72316  28.250  13.124   6.566
 5766POPC   C3A72317  28.153  12.949   6.969
 5766POPC   C4A72318  28.167  13.078   7.382
 5766POPC   C1B72319  28.671  13.202   5.995
 5766POPC   C2B72320  28.771  13.236   6.442
 5766POPC   C3B72321  28.651  13.276   6.876
 5766POPC   C4B72322  28.838  13.252   7.269
 5767POPC   NC372323  31.186   1.306   5.735
 5767POPC   PO472324  31.825   1.245   5.465
 5767POPC   GL172325  31.663   1.248   5.876
 5767POPC   GL272326  31.596   0.941   5.897
 5767POPC   C1A72327  31.363   1.145   6.299
 5767POPC   D2A72328  31.211   0.864   6.615
 5767POPC   C3A72329  31.145   1.143   6.942
 5767POPC   C4A72330  31.488   1.368   7.137
 5767POPC   C1B72331  31.856   1.063   6.295
 5767POPC   C2B72332  31.665   1.113   6.699
 5767POPC   C3B72333  31.585   0.863   7.032
 5767POPC   C4B72334  31.946   0.797   7.275
 5768POPC   NC372335  22.706   9.736   5.180
 5768POPC   PO472336  23.358   9.871   5.266
 5768POPC   GL172337  23.046   9.790   5.639
 5768POPC   GL272338  23.251   9.663   5.908
 5768POPC   C1A72339  22.747   9.761   6.041
 5768POPC   D2A72340  22.869   9.571   6.467
 5768POPC   C3A72341  22.721   9.660   6.912
 5768POPC   C4A72342  22.509   9.458   7.292
 5768POPC   C1B72343  23.154  10.051   6.165
 5768POPC   C2B72344  22.918  10.213   6.528
 5768POPC   C3B72345  23.045  10.117   6.964
 5768POPC   C4B72346  23.123   9.778   7.210
 5769POPC   NC372347   5.308  19.692   5.518
 5769POPC   PO472348   4.997  20.211   5.206
 5769POPC   GL172349   5.043  20.076   5.741
 5769POPC   GL272350   5.354  19.973   5.946
 5769POPC   C1A72351   4.959  19.771   6.162
 5769POPC   D2A72352   5.135  19.794   6.611
 5769POPC   C3A72353   5.104  19.502   6.984
 5769POPC   C4A72354   5.282  19.459   7.429
 5769POPC   C1B72355   5.107  20.259   6.221
 5769POPC   C2B72356   5.113  20.351   6.643
 5769POPC   C3B72357   5.214  20.163   7.018
 5769POPC   C4B72358   5.417  20.178   7.422
 5770POPC   NC372359  11.775   4.521   5.299
 5770POPC   PO472360  11.147   4.243   5.289
 5770POPC   GL172361  11.147   4.351   5.701
 5770POPC   GL272362  11.497   4.313   5.736
 5770POPC   C1A72363  11.181   4.128   6.091
 5770POPC   D2A72364  11.213   3.932   6.488
 5770POPC   C3A72365  11.275   4.214   6.818
 5770POPC   C4A72366  11.222   4.096   7.239
 5770POPC   C1B72367  11.627   4.384   6.186
 5770POPC   C2B72368  11.617   4.581   6.611
 5770POPC   C3B72369  11.532   4.573   7.072
 5770POPC   C4B72370  11.096   4.597   7.249
 5771POPC   NC372371  30.673  13.971   5.544
 5771POPC   PO472372  30.487  13.302   5.563
 5771POPC   GL172373  30.527  13.562   5.902
 5771POPC   GL272374  30.853  13.724   5.960
 5771POPC   C1A72375  30.587  13.430   6.319
 5771POPC   D2A72376  30.718  13.248   6.692
 5771POPC   C3A72377  30.449  13.364   7.014
 5771POPC   C4A72378  30.690  13.259   7.358
 5771POPC   C1B72379  30.622  13.940   6.301
 5771POPC   C2B72380  30.771  13.790   6.700
 5771POPC   C3B72381  30.774  13.724   7.130
 5771POPC   C4B72382  30.418  13.707   7.426
 5772POPC   NC372383  14.667  41.827   5.146
 5772POPC   PO472384  15.201  41.660   5.555
 5772POPC   GL172385  15.102  41.543   5.931
 5772POPC   GL272386  14.796  41.350   5.861
 5772POPC   C1A72387  15.160  41.764   6.322
 5772POPC   D2A72388  15.252  41.980   6.699
 5772POPC   C3A72389  15.272  41.733   7.066
 5772POPC   C4A72390  15.190  41.334   7.215
 5772POPC   C1B72391  14.759  41.456   6.303
 5772POPC   C2B72392  14.998  41.456   6.707
 5772POPC   C3B72393  14.749  41.529   7.046
 5772POPC   C4B72394  14.718  41.372   7.454
 5773POPC   NC372395  14.790   2.020   5.407
 5773POPC   PO472396  14.222   1.723   5.495
 5773POPC   GL172397  14.310   1.954   5.861
 5773POPC   GL272398  14.630   2.156   5.892
 5773POPC   C1A72399  14.471   1.837   6.244
 5773POPC   D2A72400  14.622   2.070   6.551
 5773POPC   C3A72401  14.390   1.925   6.874
 5773POPC   C4A72402  14.289   1.811   7.262
 5773POPC   C1B72403  14.755   2.468   6.242
 5773POPC   C2B72404  14.849   2.508   6.696
 5773POPC   C3B72405  14.625   2.349   7.064
 5773POPC   C4B72406  14.436   2.235   7.495
 5774POPC   NC372407  13.488   0.881   5.436
 5774POPC   PO472408  13.672   0.148   5.467
 5774POPC   GL172409  13.529   0.417   5.786
 5774POPC   GL272410  13.593   0.113   5.969
 5774POPC   C1A72411  13.514   0.576   6.229
 5774POPC   D2A72412  13.770   0.488   6.607
 5774POPC   C3A72413  13.760   0.613   7.046
 5774POPC   C4A72414  13.650   0.681   7.481
 5774POPC   C1B72415  13.309   0.115   6.279
 5774POPC   C2B72416  13.255   0.384   6.614
 5774POPC   C3B72417  13.491   0.170   6.923
 5774POPC   C4B72418  13.697   0.178   7.299
 5775POPC   NC372419  14.415  29.529   5.488
 5775POPC   PO472420  14.017  28.936   5.344
 5775POPC   GL172421  14.204  29.105   5.739
 5775POPC   GL272422  14.149  29.457   5.896
 5775POPC   C1A72423  14.565  29.077   6.034
 5775POPC   D2A72424  14.703  28.970   6.461
 5775POPC   C3A72425  14.428  29.057   6.815
 5775POPC   C4A72426  14.465  29.031   7.232
 5775POPC   C1B72427  14.417  29.537   6.213
 5775POPC   C2B72428  14.593  29.475   6.592
 5775POPC   C3B72429  14.405  29.553   6.997
 5775POPC   C4B72430  14.047  29.749   7.207
 5776POPC   NC372431  28.081  41.452   5.525
 5776POPC   PO472432  28.513  41.878   5.567
 5776POPC   GL172433  28.531  41.514   5.822
 5776POPC   GL272434  28.222  41.633   5.972
 5776POPC   C1A72435  28.517  41.366   6.253
 5776POPC   D2A72436  28.375  41.606   6.602
 5776POPC   C3A72437  28.626  41.501   6.952
 5776POPC   C4A72438  28.483  41.468   7.371
 5776POPC   C1B72439  27.990  41.339   6.248
 5776POPC   C2B72440  28.044  41.231   6.663
 5776POPC   C3B72441  28.079  41.436   7.029
 5776POPC   C4B72442  28.043  41.269   7.454
 5777POPC   NC372443  25.446  31.579   5.255
 5777POPC   PO472444  25.114  31.123   5.647
 5777POPC   GL172445  25.219  31.552   5.753
 5777POPC   GL272446  25.573  31.638   5.765
 5777POPC   C1A72447  25.214  31.762   6.174
 5777POPC   D2A72448  25.133  31.818   6.628
 5777POPC   C3A72449  24.986  31.460   6.858
 5777POPC   C4A72450  24.811  31.681   7.142
 5777POPC   C1B72451  25.539  31.339   6.118
 5777POPC   C2B72452  25.363  31.365   6.511
 5777POPC   C3B72453  25.530  31.472   6.906
 5777POPC   C4B72454  25.319  31.380   7.289
 5778POPC   NC372455  13.448  19.177   5.384
 5778POPC   PO472456  13.850  18.679   5.419
 5778POPC   GL172457  13.731  18.947   5.776
 5778POPC   GL272458  13.506  19.237   5.881
 5778POPC   C1A72459  13.853  19.006   6.208
 5778POPC   D2A72460  13.832  19.170   6.612
 5778POPC   C3A72461  14.031  19.023   6.989
 5778POPC   C4A72462  13.988  19.016   7.460
 5778POPC   C1B72463  13.376  18.841   6.117
 5778POPC   C2B72464  13.327  18.809   6.568
 5778POPC   C3B72465  13.524  18.966   6.968
 5778POPC   C4B72466  13.412  19.064   7.385
 5779POPC   NC372467   5.847  21.908   5.737
 5779POPC   PO472468   5.573  22.502   5.566
 5779POPC   GL172469   5.843  22.396   5.906
 5779POPC   GL272470   6.188  22.287   5.798
 5779POPC   C1A72471   5.764  22.345   6.333
 5779POPC   D2A72472   5.756  21.993   6.551
 5779POPC   C3A72473   5.549  22.030   6.932
 5779POPC   C4A72474   5.763  21.944   7.302
 5779POPC   C1B72475   6.280  22.274   6.236
 5779POPC   C2B72476   6.180  22.446   6.647
 5779POPC   C3B72477   5.981  22.317   7.029
 5779POPC   C4B72478   6.163  22.298   7.458
 5780POPC   NC372479  11.105  37.786   5.436
 5780POPC   PO472480  11.497  37.267   5.468
 5780POPC   GL172481  11.188  37.254   5.783
 5780POPC   GL272482  11.231  37.599   5.883
 5780POPC   C1A72483  11.011  37.303   6.216
 5780POPC   D2A72484  11.105  37.593   6.584
 5780POPC   C3A72485  11.073  37.432   7.006
 5780POPC   C4A72486  11.071  37.785   7.295
 5780POPC   C1B72487  11.481  37.582   6.236
 5780POPC   C2B72488  11.655  37.562   6.614
 5780POPC   C3B72489  11.487  37.721   6.959
 5780POPC   C4B72490  11.491  37.523   7.339
 5781POPC   NC372491   7.091  33.408   5.372
 5781POPC   PO472492   7.412  32.822   5.342
 5781POPC   GL172493   7.231  32.877   5.762
 5781POPC   GL272494   7.406  33.182   5.835
 5781POPC   C1A72495   7.122  32.984   6.210
 5781POPC   D2A72496   7.285  33.047   6.644
 5781POPC   C3A72497   7.048  32.769   6.917
 5781POPC   C4A72498   6.932  32.774   7.367
 5781POPC   C1B72499   7.506  33.371   6.255
 5781POPC   C2B72500   7.747  33.419   6.646
 5781POPC   C3B72501   7.499  33.402   7.002
 5781POPC   C4B72502   7.344  33.047   7.217
 5782POPC   NC372503  30.800  18.100   5.505
 5782POPC   PO472504  30.631  18.682   5.373
 5782POPC   GL172505  30.755  18.495   5.790
 5782POPC   GL272506  30.439  18.313   5.853
 5782POPC   C1A72507  30.823  18.231   6.183
 5782POPC   D2A72508  30.935  17.850   6.435
 5782POPC   C3A72509  30.942  17.979   6.865
 5782POPC   C4A72510  30.951  18.149   7.278
 5782POPC   C1B72511  30.343  18.073   6.210
 5782POPC   C2B72512  30.493  18.128   6.622
 5782POPC   C3B72513  30.473  18.074   7.067
 5782POPC   C4B72514  30.480  18.220   7.498
 5783POPC   NC372515  27.264   6.467   5.495
 5783POPC   PO472516  27.918   6.708   5.458
 5783POPC   GL172517  27.841   6.823   5.879
 5783POPC   GL272518  27.605   6.544   5.885
 5783POPC   C1A72519  27.693   6.770   6.326
 5783POPC   D2A72520  27.489   6.662   6.725
 5783POPC   C3A72521  27.799   6.671   7.060
 5783POPC   C4A72522  27.754   6.546   7.475
 5783POPC   C1B72523  27.607   6.221   6.189
 5783POPC   C2B72524  27.450   6.123   6.584
 5783POPC   C3B72525  27.525   6.235   7.032
 5783POPC   C4B72526  27.391   6.176   7.478
 5784POPC   NC372527   2.569  26.738   5.431
 5784POPC   PO472528   3.199  27.108   5.306
 5784POPC   GL172529   3.055  27.010   5.743
 5784POPC   GL272530   3.067  26.651   5.775
 5784POPC   C1A72531   2.720  26.900   6.078
 5784POPC   D2A72532   2.520  26.858   6.517
 5784POPC   C3A72533   2.727  27.062   6.857
 5784POPC   C4A72534   2.684  26.995   7.299
 5784POPC   C1B72535   3.164  26.691   6.226
 5784POPC   C2B72536   2.950  26.591   6.608
 5784POPC   C3B72537   2.996  26.661   7.058
 5784POPC   C4B72538   3.065  26.704   7.500
 5785POPC   NC372539  39.167   3.298   5.360
 5785POPC   PO472540  39.610   3.678   5.626
 5785POPC   GL172541  39.291   3.442   5.852
 5785POPC   GL272542  38.924   3.330   5.807
 5785POPC   C1A72543  39.244   3.615   6.231
 5785POPC   D2A72544  39.095   3.656   6.588
 5785POPC   C3A72545  39.310   3.481   6.882
 5785POPC   C4A72546  39.359   3.629   7.283
 5785POPC   C1B72547  38.849   3.248   6.260
 5785POPC   C2B72548  38.880   3.228   6.715
 5785POPC   C3B72549  39.053   3.131   7.150
 5785POPC   C4B72550  39.080   3.311   7.554
 5786POPC   NC372551  37.978  27.665   5.300
 5786POPC   PO472552  37.296  27.843   5.480
 5786POPC   GL172553  37.539  27.555   5.730
 5786POPC   GL272554  37.893  27.467   5.783
 5786POPC   C1A72555  37.611  27.755   6.121
 5786POPC   D2A72556  37.717  27.709   6.537
 5786POPC   C3A72557  37.440  27.524   6.815
 5786POPC   C4A72558  37.294  27.611   7.203
 5786POPC   C1B72559  37.778  27.284   6.221
 5786POPC   C2B72560  37.863  27.217   6.695
 5786POPC   C3B72561  37.836  27.425   7.142
 5786POPC   C4B72562  37.964  27.426   7.601
 5787POPC   NC372563  21.020  24.850   5.587
 5787POPC   PO472564  20.589  24.346   5.343
 5787POPC   GL172565  20.460  24.281   5.751
 5787POPC   GL272566  20.522  24.621   5.880
 5787POPC   C1A72567  20.611  24.218   6.172
 5787POPC   D2A72568  20.456  24.526   6.444
 5787POPC   C3A72569  20.414  24.508   6.870
 5787POPC   C4A72570  20.547  24.229   7.169
 5787POPC   C1B72571  20.612  24.939   6.199
 5787POPC   C2B72572  20.544  24.999   6.639
 5787POPC   C3B72573  20.707  24.922   7.035
 5787POPC   C4B72574  20.634  24.716   7.345
 5788POPC   NC372575   9.251  16.469   5.510
 5788POPC   PO472576   8.833  17.077   5.440
 5788POPC   GL172577   8.997  16.954   5.814
 5788POPC   GL272578   9.051  16.601   5.957
 5788POPC   C1A72579   8.991  17.000   6.262
 5788POPC   D2A72580   9.132  16.639   6.513
 5788POPC   C3A72581   8.871  16.701   6.865
 5788POPC   C4A72582   8.962  16.903   7.232
 5788POPC   C1B72583   9.436  16.850   6.081
 5788POPC   C2B72584   9.453  17.074   6.482
 5788POPC   C3B72585   9.371  16.920   6.916
 5788POPC   C4B72586   9.433  17.011   7.373
 5789POPC   NC372587   1.203  41.420   5.536
 5789POPC   PO472588   1.252  42.077   5.511
 5789POPC   GL172589   1.327  41.802   5.902
 5789POPC   GL272590   1.350  41.431   6.002
 5789POPC   C1A72591   1.205  41.771   6.356
 5789POPC   D2A72592   1.325  41.777   6.782
 5789POPC   C3A72593   1.049  41.792   7.128
 5789POPC   C4A72594   1.118  41.656   7.562
 5789POPC   C1B72595   1.090  41.240   6.293
 5789POPC   C2B72596   1.014  41.345   6.711
 5789POPC   C3B72597   1.269  41.327   7.045
 5789POPC   C4B72598   1.130  41.179   7.407
 5790POPC   NC372599   3.908  20.267   5.479
 5790POPC   PO472600   3.393  19.922   5.345
 5790POPC   GL172601   3.433  19.983   5.761
 5790POPC   GL272602   3.239  20.300   5.739
 5790POPC   C1A72603   3.536  19.730   6.152
 5790POPC   D2A72604   3.359  19.509   6.518
 5790POPC   C3A72605   3.470  19.701   6.894
 5790POPC   C4A72606   3.783  19.663   7.193
 5790POPC   C1B72607   3.238  20.181   6.185
 5790POPC   C2B72608   3.501  20.083   6.547
 5790POPC   C3B72609   3.768  20.114   6.942
 5790POPC   C4B72610   3.496  20.090   7.295
 5791POPC   NC372611  44.784  36.967   5.375
 5791POPC   PO472612  44.129  36.661   5.460
 5791POPC   GL172613  44.450  36.677   5.780
 5791POPC   GL272614  44.832  36.640   5.773
 5791POPC   C1A72615  44.551  36.933   6.118
 5791POPC   D2A72616  44.607  37.137   6.504
 5791POPC   C3A72617  44.861  37.101   6.877
 5791POPC   C4A72618  44.586  37.164   7.230
 5791POPC   C1B72619   0.033  36.809   6.160
 5791POPC   C2B72620  44.893  36.639   6.550
 5791POPC   C3B72621  44.619  36.643   6.887
 5791POPC   C4B72622  44.798  36.708   7.255
 5792POPC   NC372623  34.329  36.066   5.430
 5792POPC   PO472624  34.936  36.362   5.479
 5792POPC   GL172625  34.621  36.373   5.753
 5792POPC   GL272626  34.638  36.021   5.840
 5792POPC   C1A72627  34.559  36.386   6.190
 5792POPC   D2A72628  34.692  36.403   6.596
 5792POPC   C3A72629  34.452  36.197   6.899
 5792POPC   C4A72630  34.471  36.333   7.312
 5792POPC   C1B72631  34.487  35.868   6.239
 5792POPC   C2B72632  34.760  35.880   6.578
 5792POPC   C3B72633  34.950  36.094   6.918
 5792POPC   C4B72634  34.766  35.863   7.194
 5793POPC   NC372635  16.229  12.442   5.430
 5793POPC   PO472636  15.887  11.881   5.305
 5793POPC   GL172637  15.922  12.002   5.759
 5793POPC   GL272638  16.001  12.358   5.868
 5793POPC   C1A72639  16.195  11.966   6.150
 5793POPC   D2A72640  16.265  12.144   6.573
 5793POPC   C3A72641  16.105  12.018   6.987
 5793POPC   C4A72642  16.242  12.264   7.329
 5793POPC   C1B72643  15.774  12.288   6.252
 5793POPC   C2B72644  15.749  12.327   6.699
 5793POPC   C3B72645  15.764  12.399   7.129
 5793POPC   C4B72646  15.772  12.235   7.547
 5794POPC   NC372647  18.337  21.677   5.598
 5794POPC   PO472648  18.362  21.039   5.469
 5794POPC   GL172649  18.207  21.244   5.863
 5794POPC   GL272650  18.542  21.379   5.989
 5794POPC   C1A72651  18.193  21.307   6.338
 5794POPC   D2A72652  17.988  21.248   6.734
 5794POPC   C3A72653  18.250  21.171   7.105
 5794POPC   C4A72654  18.043  21.429   7.408
 5794POPC   C1B72655  18.604  21.738   6.284
 5794POPC   C2B72656  18.260  21.761   6.582
 5794POPC   C3B72657  18.281  21.660   6.977
 5794POPC   C4B72658  18.594  21.784   7.229
 5795POPC   NC372659  10.900  17.291   5.304
 5795POPC   PO472660  11.556  17.458   5.398
 5795POPC   GL172661  11.452  17.503   5.847
 5795POPC   GL272662  11.140  17.735   5.876
 5795POPC   C1A72663  11.621  17.366   6.259
 5795POPC   D2A72664  11.599  17.529   6.671
 5795POPC   C3A72665  11.644  17.877   6.904
 5795POPC   C4A72666  11.565  17.636   7.252
 5795POPC   C1B72667  11.105  17.477   6.262
 5795POPC   C2B72668  11.265  17.151   6.560
 5795POPC   C3B72669  11.356  17.178   6.961
 5795POPC   C4B72670  11.091  17.492   7.091
 5796POPC   NC372671  40.834   8.855   5.255
 5796POPC   PO472672  40.879   8.118   5.269
 5796POPC   GL172673  40.924   8.183   5.724
 5796POPC   GL272674  40.729   8.455   5.790
 5796POPC   C1A72675  40.830   8.075   6.171
 5796POPC   D2A72676  40.954   7.868   6.546
 5796POPC   C3A72677  40.774   7.953   6.932
 5796POPC   C4A72678  40.923   7.876   7.306
 5796POPC   C1B72679  40.910   8.589   6.174
 5796POPC   C2B72680  40.956   8.410   6.569
 5796POPC   C3B72681  40.927   8.426   6.997
 5796POPC   C4B72682  40.722   8.359   7.409
 5797POPC   NC372683  22.746  39.210   5.339
 5797POPC   PO472684  23.280  39.641   5.467
 5797POPC   GL172685  23.031  39.346   5.733
 5797POPC   GL272686  22.650  39.439   5.777
 5797POPC   C1A72687  22.973  39.313   6.160
 5797POPC   D2A72688  23.029  39.668   6.418
 5797POPC   C3A72689  23.074  39.568   6.810
 5797POPC   C4A72690  23.103  39.325   7.151
 5797POPC   C1B72691  22.507  39.555   6.176
 5797POPC   C2B72692  22.615  39.411   6.572
 5797POPC   C3B72693  22.587  39.551   6.973
 5797POPC   C4B72694  22.604  39.356   7.363
 5798POPC   NC372695  35.529  30.368   5.487
 5798POPC   PO472696  35.160  31.006   5.504
 5798POPC   GL172697  35.249  30.670   5.798
 5798POPC   GL272698  35.091  30.359   5.804
 5798POPC   C1A72699  35.390  30.616   6.191
 5798POPC   D2A72700  35.291  30.894   6.514
 5798POPC   C3A72701  35.572  30.891   6.869
 5798POPC   C4A72702  35.399  30.657   7.201
 5798POPC   C1B72703  35.077  30.217   6.238
 5798POPC   C2B72704  35.058  30.424   6.641
 5798POPC   C3B72705  35.072  30.266   7.049
 5798POPC   C4B72706  35.292  30.200   7.415
 5799POPC   NC372707  36.430  29.988   5.356
 5799POPC   PO472708  35.786  29.989   5.569
 5799POPC   GL172709  35.970  29.961   5.921
 5799POPC   GL272710  36.315  29.988   5.857
 5799POPC   C1A72711  36.071  29.858   6.312
 5799POPC   D2A72712  36.318  29.823   6.668
 5799POPC   C3A72713  36.047  29.881   7.028
 5799POPC   C4A72714  36.068  29.590   7.367
 5799POPC   C1B72715  36.480  30.156   6.221
 5799POPC   C2B72716  36.654  30.258   6.601
 5799POPC   C3B72717  36.400  30.237   6.963
 5799POPC   C4B72718  36.384  30.143   7.420
 5800POPC   NC372719   0.910  15.193   5.299
 5800POPC   PO472720   1.371  14.797   5.361
 5800POPC   GL172721   1.250  15.076   5.795
 5800POPC   GL272722   1.535  15.309   5.934
 5800POPC   C1A72723   1.150  15.369   6.232
 5800POPC   D2A72724   1.134  15.150   6.601
 5800POPC   C3A72725   1.172  15.421   6.885
 5800POPC   C4A72726   0.996  15.325   7.238
 5800POPC   C1B72727   1.425  14.949   6.234
 5800POPC   C2B72728   1.509  14.777   6.637
 5800POPC   C3B72729   1.483  15.033   7.019
 5800POPC   C4B72730   1.500  15.362   7.325
 5801POPC   NC372731  35.447   9.755   5.413
 5801POPC   PO472732  34.917   9.786   5.795
 5801POPC   GL172733  35.337   9.753   5.934
 5801POPC   GL272734  35.515  10.015   5.845
 5801POPC   C1A72735  35.532   9.879   6.334
 5801POPC   D2A72736  35.336   9.612   6.611
 5801POPC   C3A72737  35.215   9.728   6.982
 5801POPC   C4A72738  35.413   9.947   7.291
 5801POPC   C1B72739  35.194  10.236   6.154
 5801POPC   C2B72740  35.004  10.157   6.564
 5801POPC   C3B72741  34.859  10.098   6.979
 5801POPC   C4B72742  34.968  10.170   7.402
 5802POPC   NC372743   4.479  39.765   4.956
 5802POPC   PO472744   4.315  40.221   5.354
 5802POPC   GL172745   4.125  40.031   5.716
 5802POPC   GL272746   4.053  40.327   5.864
 5802POPC   C1A72747   4.379  39.895   6.082
 5802POPC   D2A72748   4.698  39.976   6.430
 5802POPC   C3A72749   4.595  39.962   6.876
 5802POPC   C4A72750   4.370  39.789   7.229
 5802POPC   C1B72751   4.385  40.374   6.221
 5802POPC   C2B72752   4.387  40.393   6.675
 5802POPC   C3B72753   4.129  40.194   7.032
 5802POPC   C4B72754   4.124  40.356   7.472
 5803POPC   NC372755  33.729  23.097   5.421
 5803POPC   PO472756  33.890  22.399   5.380
 5803POPC   GL172757  33.890  22.640   5.767
 5803POPC   GL272758  33.698  22.928   5.896
 5803POPC   C1A72759  33.965  22.650   6.215
 5803POPC   D2A72760  33.798  22.902   6.588
 5803POPC   C3A72761  33.887  22.788   7.022
 5803POPC   C4A72762  34.091  22.555   7.347
 5803POPC   C1B72763  34.007  23.170   6.197
 5803POPC   C2B72764  34.234  23.186   6.654
 5803POPC   C3B72765  33.997  23.304   7.067
 5803POPC   C4B72766  33.618  23.190   7.294
 5804POPC   NC372767   3.110   9.079   5.495
 5804POPC   PO472768   2.484   8.800   5.536
 5804POPC   GL172769   2.666   9.020   5.853
 5804POPC   GL272770   2.975   8.823   5.917
 5804POPC   C1A72771   2.630   8.865   6.282
 5804POPC   D2A72772   2.847   8.761   6.647
 5804POPC   C3A72773   2.631   8.939   6.963
 5804POPC   C4A72774   2.612   8.891   7.366
 5804POPC   C1B72775   3.006   9.188   6.209
 5804POPC   C2B72776   2.942   9.261   6.660
 5804POPC   C3B72777   3.062   9.184   7.130
 5804POPC   C4B72778   2.983   9.115   7.600
 5805POPC   NC372779  17.940  20.823   5.407
 5805POPC   PO472780  18.423  20.353   5.500
 5805POPC   GL172781  18.233  20.639   5.791
 5805POPC   GL272782  17.897  20.489   5.825
 5805POPC   C1A72783  18.403  20.870   6.155
 5805POPC   D2A72784  18.341  20.894   6.595
 5805POPC   C3A72785  18.642  20.883   6.942
 5805POPC   C4A72786  18.501  20.817   7.397
 5805POPC   C1B72787  18.097  20.461   6.242
 5805POPC   C2B72788  18.243  20.358   6.654
 5805POPC   C3B72789  18.195  20.622   6.992
 5805POPC   C4B72790  18.042  20.562   7.350
 5806POPC   NC372791  12.011   0.360   5.492
 5806POPC   PO472792  12.680   0.068   5.374
 5806POPC   GL172793  12.526   0.283   5.779
 5806POPC   GL272794  12.436   0.620   5.875
 5806POPC   C1A72795  12.295   0.258   6.198
 5806POPC   D2A72796  12.122   0.422   6.588
 5806POPC   C3A72797  12.294   0.322   6.999
 5806POPC   C4A72798  11.983   0.180   7.299
 5806POPC   C1B72799  12.129   0.820   6.224
 5806POPC   C2B72800  11.789   0.826   6.598
 5806POPC   C3B72801  11.846   0.612   7.016
 5806POPC   C4B72802  11.872   0.634   7.485
 5807POPC   NC372803  20.288  32.752   5.487
 5807POPC   PO472804  20.736  33.215   5.397
 5807POPC   GL172805  20.609  33.087   5.791
 5807POPC   GL272806  20.256  33.246   5.772
 5807POPC   C1A72807  20.768  32.956   6.218
 5807POPC   D2A72808  20.599  32.706   6.599
 5807POPC   C3A72809  20.720  32.857   7.031
 5807POPC   C4A72810  20.497  32.947   7.424
 5807POPC   C1B72811  20.385  33.313   6.214
 5807POPC   C2B72812  20.553  33.226   6.636
 5807POPC   C3B72813  20.486  33.438   7.035
 5807POPC   C4B72814  20.543  33.456   7.515
 5808POPC   NC372815   0.439   4.493   5.313
 5808POPC   PO472816   0.980   4.664   5.615
 5808POPC   GL172817   0.601   4.645   5.839
 5808POPC   GL272818   0.385   4.370   5.850
 5808POPC   C1A72819   0.616   4.501   6.273
 5808POPC   D2A72820   0.662   4.067   6.419
 5808POPC   C3A72821   0.800   4.145   6.808
 5808POPC   C4A72822   0.740   4.388   7.180
 5808POPC   C1B72823   0.185   4.235   6.266
 5808POPC   C2B72824   0.164   4.207   6.719
 5808POPC   C3B72825   0.375   4.043   7.095
 5808POPC   C4B72826   0.798   3.854   7.200
 5809POPC   NC372827  38.689  40.751   5.172
 5809POPC   PO472828  39.333  40.685   5.364
 5809POPC   GL172829  39.248  40.747   5.801
 5809POPC   GL272830  39.438  41.008   5.958
 5809POPC   C1A72831  39.138  40.719   6.253
 5809POPC   D2A72832  39.166  40.660   6.691
 5809POPC   C3A72833  39.062  40.877   7.056
 5809POPC   C4A72834  39.009  40.602   7.376
 5809POPC   C1B72835  39.375  41.192   6.345
 5809POPC   C2B72836  39.405  41.184   6.800
 5809POPC   C3B72837  39.392  41.288   7.233
 5809POPC   C4B72838  39.256  41.030   7.573
 5810POPC   NC372839   1.881  25.902   5.532
 5810POPC   PO472840   1.715  26.504   5.318
 5810POPC   GL172841   1.810  26.355   5.774
 5810POPC   GL272842   2.185  26.236   5.819
 5810POPC   C1A72843   1.838  26.111   6.176
 5810POPC   D2A72844   1.787  25.896   6.563
 5810POPC   C3A72845   1.942  26.058   6.933
 5810POPC   C4A72846   1.863  25.993   7.370
 5810POPC   C1B72847   2.330  26.006   6.203
 5810POPC   C2B72848   2.331  25.849   6.617
 5810POPC   C3B72849   2.395  25.826   7.027
 5810POPC   C4B72850   2.339  26.175   7.241
 5811POPC   NC372851  28.405   1.437   5.361
 5811POPC   PO472852  28.695   0.854   5.602
 5811POPC   GL172853  28.336   1.146   5.787
 5811POPC   GL272854  28.327   1.493   5.844
 5811POPC   C1A72855  28.212   1.197   6.234
 5811POPC   D2A72856  28.262   0.907   6.597
 5811POPC   C3A72857  28.387   1.062   7.010
 5811POPC   C4A72858  28.341   1.217   7.457
 5811POPC   C1B72859  28.587   1.583   6.202
 5811POPC   C2B72860  28.543   1.355   6.603
 5811POPC   C3B72861  28.803   1.341   6.965
 5811POPC   C4B72862  28.787   1.509   7.363
 5812POPC   NC372863  13.899  41.474   5.240
 5812POPC   PO472864  13.510  42.003   5.481
 5812POPC   GL172865  13.850  41.823   5.721
 5812POPC   GL272866  13.837  41.459   5.835
 5812POPC   C1A72867  13.877  41.828   6.190
 5812POPC   D2A72868  13.914  41.867   6.652
 5812POPC   C3A72869  13.543  41.923   6.899
 5812POPC   C4A72870  13.449  41.822   7.311
 5812POPC   C1B72871  13.532  41.435   6.228
 5812POPC   C2B72872  13.504  41.499   6.643
 5812POPC   C3B72873  13.756  41.440   7.007
 5812POPC   C4B72874  13.604  41.205   7.354
 5813POPC   NC372875  20.389  19.052   5.235
 5813POPC   PO472876  20.724  19.500   5.623
 5813POPC   GL172877  20.664  19.311   5.958
 5813POPC   GL272878  20.779  18.993   5.840
 5813POPC   C1A72879  20.610  19.344   6.365
 5813POPC   D2A72880  20.823  19.059   6.621
 5813POPC   C3A72881  20.599  19.035   6.982
 5813POPC   C4A72882  20.445  19.314   7.270
 5813POPC   C1B72883  20.578  18.831   6.223
 5813POPC   C2B72884  20.601  18.571   6.622
 5813POPC   C3B72885  20.623  18.530   7.082
 5813POPC   C4B72886  20.761  18.788   7.416
 5814POPC   NC372887  30.337  12.260   5.297
 5814POPC   PO472888  30.795  11.808   5.406
 5814POPC   GL172889  30.737  12.150   5.687
 5814POPC   GL272890  30.396  12.113   5.797
 5814POPC   C1A72891  30.767  12.118   6.143
 5814POPC   D2A72892  30.685  11.876   6.527
 5814POPC   C3A72893  30.721  12.079   6.922
 5814POPC   C4A72894  30.657  11.855   7.265
 5814POPC   C1B72895  30.280  12.047   6.241
 5814POPC   C2B72896  30.366  12.315   6.637
 5814POPC   C3B72897  30.371  12.394   7.126
 5814POPC   C4B72898  30.277  12.537   7.569
 5815POPC   NC372899  34.403   7.753   5.536
 5815POPC   PO472900  34.515   7.077   5.458
 5815POPC   GL172901  34.630   7.340   5.795
 5815POPC   GL272902  34.314   7.411   5.914
 5815POPC   C1A72903  34.707   7.286   6.242
 5815POPC   D2A72904  34.755   7.139   6.660
 5815POPC   C3A72905  34.504   7.268   7.016
 5815POPC   C4A72906  34.122   7.083   7.159
 5815POPC   C1B72907  34.411   7.714   6.230
 5815POPC   C2B72908  34.622   7.645   6.631
 5815POPC   C3B72909  34.469   7.808   7.000
 5815POPC   C4B72910  34.518   7.800   7.456
 5816POPC   NC372911  40.675  19.943   5.403
 5816POPC   PO472912  41.200  19.476   5.388
 5816POPC   GL172913  40.935  19.668   5.753
 5816POPC   GL272914  40.506  19.603   5.781
 5816POPC   C1A72915  40.793  19.760   6.177
 5816POPC   D2A72916  40.525  19.765   6.519
 5816POPC   C3A72917  40.716  19.875   6.885
 5816POPC   C4A72918  40.985  19.881   7.223
 5816POPC   C1B72919  40.217  19.530   6.175
 5816POPC   C2B72920  40.196  19.379   6.633
 5816POPC   C3B72921  40.314  19.570   7.051
 5816POPC   C4B72922  40.482  19.931   7.346
 5817POPC   NC372923  12.717   7.369   5.211
 5817POPC   PO472924  13.128   6.922   5.430
 5817POPC   GL172925  12.966   7.233   5.676
 5817POPC   GL272926  12.991   7.597   5.624
 5817POPC   C1A72927  12.897   7.333   6.097
 5817POPC   D2A72928  12.713   7.110   6.437
 5817POPC   C3A72929  12.751   7.194   6.855
 5817POPC   C4A72930  12.588   7.541   7.022
 5817POPC   C1B72931  13.339   7.547   5.955
 5817POPC   C2B72932  13.339   7.364   6.391
 5817POPC   C3B72933  13.152   7.538   6.787
 5817POPC   C4B72934  13.058   7.428   7.209
 5818POPC   NC372935  14.470  16.413   5.385
 5818POPC   PO472936  14.117  17.039   5.315
 5818POPC   GL172937  14.160  17.078   5.732
 5818POPC   GL272938  14.454  16.881   5.811
 5818POPC   C1A72939  14.102  17.074   6.170
 5818POPC   D2A72940  13.962  16.735   6.425
 5818POPC   C3A72941  14.146  16.700   6.839
 5818POPC   C4A72942  14.057  16.963   7.210
 5818POPC   C1B72943  14.449  16.693   6.258
 5818POPC   C2B72944  14.700  16.681   6.654
 5818POPC   C3B72945  14.577  16.575   7.077
 5818POPC   C4B72946  14.216  16.472   7.332
 5819POPC   NC372947   2.695  43.912   5.284
 5819POPC   PO472948   3.150  44.155   5.743
 5819POPC   GL172949   2.744  43.986   5.802
 5819POPC   GL272950   2.898  43.721   5.879
 5819POPC   C1A72951   2.533  43.913   6.192
 5819POPC   D2A72952   2.405  43.888   6.620
 5819POPC   C3A72953   2.642  43.781   6.970
 5819POPC   C4A72954   2.646  44.134   7.264
 5819POPC   C1B72955   3.005  43.802   6.303
 5819POPC   C2B72956   2.906  44.087   6.625
 5819POPC   C3B72957   3.103  43.982   6.996
 5819POPC   C4B72958   3.353  44.202   7.208
 5820POPC   NC372959  18.592  15.788   5.360
 5820POPC   PO472960  19.083  16.178   5.421
 5820POPC   GL172961  18.916  15.949   5.829
 5820POPC   GL272962  18.781  15.580   5.780
 5820POPC   C1A72963  19.066  16.010   6.304
 5820POPC   D2A72964  19.422  15.983   6.643
 5820POPC   C3A72965  19.300  16.167   7.047
 5820POPC   C4A72966  18.916  16.193   7.251
 5820POPC   C1B72967  18.897  15.537   6.190
 5820POPC   C2B72968  19.127  15.539   6.559
 5820POPC   C3B72969  19.010  15.744   6.922
 5820POPC   C4B72970  18.789  15.491   7.215
 5821POPC   NC372971   8.186  41.957   5.431
 5821POPC   PO472972   8.095  42.627   5.536
 5821POPC   GL172973   8.188  42.336   5.819
 5821POPC   GL272974   7.920  42.065   5.832
 5821POPC   C1A72975   8.306  42.480   6.219
 5821POPC   D2A72976   8.559  42.550   6.563
 5821POPC   C3A72977   8.355  42.385   6.926
 5821POPC   C4A72978   8.271  42.502   7.334
 5821POPC   C1B72979   8.157  41.985   6.189
 5821POPC   C2B72980   8.050  42.138   6.581
 5821POPC   C3B72981   8.055  41.958   6.984
 5821POPC   C4B72982   8.264  42.006   7.350
 5822POPC   NC372983  41.153  13.248   5.791
 5822POPC   PO472984  40.932  13.730   5.387
 5822POPC   GL172985  40.872  13.831   5.818
 5822POPC   GL272986  40.556  13.666   5.929
 5822POPC   C1A72987  40.906  13.766   6.271
 5822POPC   D2A72988  40.596  13.673   6.565
 5822POPC   C3A72989  40.756  13.533   6.923
 5822POPC   C4A72990  40.658  13.630   7.301
 5822POPC   C1B72991  40.605  13.291   6.238
 5822POPC   C2B72992  40.606  13.093   6.686
 5822POPC   C3B72993  40.381  13.214   7.116
 5822POPC   C4B72994  40.246  13.184   7.597
 5823POPC   NC372995  41.398  40.123   5.546
 5823POPC   PO472996  41.973  39.784   5.485
 5823POPC   GL172997  41.776  39.935   5.875
 5823POPC   GL272998  41.795  40.266   5.941
 5823POPC   C1A72999  41.439  39.910   6.215
 5823POPC   D2A73000  41.164  39.805   6.577
 5823POPC   C3A73001  41.377  39.879   6.975
 5823POPC   C4A73002  41.358  39.829   7.428
 5823POPC   C1B73003  41.462  40.417   6.188
 5823POPC   C2B73004  41.709  40.468   6.552
 5823POPC   C3B73005  41.733  40.301   6.974
 5823POPC   C4B73006  41.408  40.312   7.274
 5824POPC   NC373007  26.172  37.140   5.366
 5824POPC   PO473008  25.703  36.643   5.479
 5824POPC   GL173009  25.795  36.843   5.842
 5824POPC   GL273010  26.164  36.884   5.828
 5824POPC   C1A73011  25.779  36.682   6.272
 5824POPC   D2A73012  25.889  36.509   6.678
 5824POPC   C3A73013  25.896  36.830   6.978
 5824POPC   C4A73014  26.007  37.126   7.248
 5824POPC   C1B73015  26.474  37.087   6.120
 5824POPC   C2B73016  26.525  37.326   6.489
 5824POPC   C3B73017  26.332  37.255   6.869
 5824POPC   C4B73018  26.518  37.223   7.250
 5825POPC   NC373019  13.613  11.084   5.407
 5825POPC   PO473020  14.154  11.479   5.479
 5825POPC   GL173021  13.841  11.311   5.801
 5825POPC   GL273022  13.473  11.160   5.871
 5825POPC   C1A73023  13.776  11.436   6.202
 5825POPC   D2A73024  14.018  11.386   6.524
 5825POPC   C3A73025  13.853  11.511   6.891
 5825POPC   C4A73026  13.854  11.213   7.173
 5825POPC   C1B73027  13.360  11.141   6.284
 5825POPC   C2B73028  13.536  11.175   6.650
 5825POPC   C3B73029  13.385  11.311   7.031
 5825POPC   C4B73030  13.384  11.082   7.433
 5826POPC   NC373031  29.026  30.093   5.212
 5826POPC   PO473032  29.588  30.025   5.572
 5826POPC   GL173033  29.277  30.017   5.886
 5826POPC   GL273034  28.985  29.869   5.722
 5826POPC   C1A73035  29.307  30.195   6.299
 5826POPC   D2A73036  28.987  30.271   6.586
 5826POPC   C3A73037  29.110  29.981   6.863
 5826POPC   C4A73038  29.316  30.131   7.171
 5826POPC   C1B73039  28.923  29.572   6.104
 5826POPC   C2B73040  29.068  29.544   6.554
 5826POPC   C3B73041  28.884  29.513   6.945
 5826POPC   C4B73042  29.035  29.685   7.304
 5827POPC   NC373043   5.293  39.395   5.073
 5827POPC   PO473044   5.107  38.881   5.451
 5827POPC   GL173045   5.275  39.165   5.759
 5827POPC   GL273046   5.030  39.412   5.865
 5827POPC   C1A73047   5.177  39.088   6.226
 5827POPC   D2A73048   4.969  39.096   6.638
 5827POPC   C3A73049   5.220  39.214   7.007
 5827POPC   C4A73050   5.402  39.129   7.415
 5827POPC   C1B73051   4.780  39.490   6.226
 5827POPC   C2B73052   4.631  39.488   6.638
 5827POPC   C3B73053   4.799  39.512   7.045
 5827POPC   C4B73054   4.904  39.243   7.399
 5828POPC   NC373055  39.916  34.911   5.303
 5828POPC   PO473056  40.371  34.364   5.238
 5828POPC   GL173057  40.147  34.342   5.715
 5828POPC   GL273058  39.962  34.673   5.788
 5828POPC   C1A73059  39.932  34.364   6.181
 5828POPC   D2A73060  39.875  34.568   6.620
 5828POPC   C3A73061  39.787  34.311   6.996
 5828POPC   C4A73062  39.750  34.327   7.478
 5828POPC   C1B73063  40.125  34.831   6.203
 5828POPC   C2B73064  40.369  34.563   6.463
 5828POPC   C3B73065  40.336  34.415   6.879
 5828POPC   C4B73066  40.120  34.625   7.222
 5829POPC   NC373067  33.533  34.471   5.328
 5829POPC   PO473068  34.012  34.918   5.421
 5829POPC   GL173069  33.827  34.943   5.823
 5829POPC   GL273070  33.673  34.622   5.825
 5829POPC   C1A73071  33.956  34.809   6.242
 5829POPC   D2A73072  34.037  34.578   6.611
 5829POPC   C3A73073  33.871  34.711   6.979
 5829POPC   C4A73074  33.791  35.062   7.174
 5829POPC   C1B73075  33.699  34.391   6.220
 5829POPC   C2B73076  33.538  34.443   6.668
 5829POPC   C3B73077  33.568  34.302   7.103
 5829POPC   C4B73078  33.610  34.313   7.547
 5830POPC   NC373079  23.053  35.804   5.637
 5830POPC   PO473080  22.584  36.201   5.417
 5830POPC   GL173081  22.673  36.104   5.823
 5830POPC   GL273082  23.018  36.299   5.736
 5830POPC   C1A73083  22.781  35.923   6.244
 5830POPC   D2A73084  23.134  36.085   6.515
 5830POPC   C3A73085  23.130  35.996   6.973
 5830POPC   C4A73086  22.721  35.878   7.143
 5830POPC   C1B73087  22.965  36.411   6.150
 5830POPC   C2B73088  22.920  36.620   6.526
 5830POPC   C3B73089  23.020  36.498   6.925
 5830POPC   C4B73090  23.021  36.549   7.348
 5831POPC   NC373091  27.564  17.202   5.418
 5831POPC   PO473092  27.272  17.882   5.446
 5831POPC   GL173093  27.406  17.819   5.845
 5831POPC   GL273094  27.587  17.532   5.801
 5831POPC   C1A73095  27.701  17.827   6.192
 5831POPC   D2A73096  27.851  17.752   6.607
 5831POPC   C3A73097  27.499  17.755   6.906
 5831POPC   C4A73098  27.336  17.392   7.167
 5831POPC   C1B73099  27.871  17.336   6.106
 5831POPC   C2B73100  27.751  17.212   6.519
 5831POPC   C3B73101  27.871  17.357   6.918
 5831POPC   C4B73102  28.018  17.196   7.255
 5832POPC   NC373103  33.239   9.071   5.392
 5832POPC   PO473104  32.656   8.818   5.453
 5832POPC   GL173105  32.955   8.825   5.788
 5832POPC   GL273106  33.035   9.166   5.858
 5832POPC   C1A73107  33.085   8.813   6.230
 5832POPC   D2A73108  32.919   8.948   6.630
 5832POPC   C3A73109  32.874   8.760   7.010
 5832POPC   C4A73110  33.116   8.696   7.369
 5832POPC   C1B73111  33.298   9.276   6.205
 5832POPC   C2B73112  33.387   9.123   6.622
 5832POPC   C3B73113  33.233   9.168   7.090
 5832POPC   C4B73114  33.340   9.111   7.584
 5833POPC   NC373115  21.656   0.571   5.360
 5833POPC   PO473116  21.041   0.398   5.367
 5833POPC   GL173117  21.313   0.412   5.761
 5833POPC   GL273118  21.638   0.203   5.775
 5833POPC   C1A73119  21.161   0.650   6.159
 5833POPC   D2A73120  21.105   0.890   6.553
 5833POPC   C3A73121  21.117   0.688   6.946
 5833POPC   C4A73122  21.159   0.790   7.359
 5833POPC   C1B73123  21.555   0.329   6.201
 5833POPC   C2B73124  21.457   0.519   6.578
 5833POPC   C3B73125  21.565   0.426   6.988
 5833POPC   C4B73126  21.431   0.169   7.291
 5834POPC   NC373127  11.559  44.517   5.634
 5834POPC   PO473128  10.952  44.268   5.575
 5834POPC   GL173129  10.964  44.696   5.801
 5834POPC   GL273130  11.280  44.939   5.799
 5834POPC   C1A73131  11.010  44.816   6.235
 5834POPC   D2A73132  11.256  44.528   6.485
 5834POPC   C3A73133  11.171  44.589   6.915
 5834POPC   C4A73134  10.947  44.619   7.324
 5834POPC   C1B73135  11.530  44.868   6.202
 5834POPC   C2B73136  11.599  44.863   6.664
 5834POPC   C3B73137  11.714  44.809   7.075
 5834POPC   C4B73138  11.444  44.641   7.347
 5835POPC   NC373139  28.833   2.900   5.152
 5835POPC   PO473140  29.296   2.434   5.361
 5835POPC   GL173141  29.138   2.648   5.787
 5835POPC   GL273142  28.888   2.948   5.777
 5835POPC   C1A73143  29.212   2.824   6.235
 5835POPC   D2A73144  29.334   2.841   6.682
 5835POPC   C3A73145  29.160   2.549   6.985
 5835POPC   C4A73146  29.358   2.683   7.294
 5835POPC   C1B73147  28.880   3.217   6.173
 5835POPC   C2B73148  28.996   3.226   6.620
 5835POPC   C3B73149  28.992   3.088   7.061
 5835POPC   C4B73150  28.725   3.211   7.434
 5836POPC   NC373151  23.609  22.277   5.454
 5836POPC   PO473152  24.099  21.789   5.685
 5836POPC   GL173153  23.771  22.080   5.893
 5836POPC   GL273154  23.793  22.481   5.883
 5836POPC   C1A73155  23.541  22.244   6.268
 5836POPC   D2A73156  23.490  21.992   6.635
 5836POPC   C3A73157  23.679  21.992   7.041
 5836POPC   C4A73158  23.506  22.134   7.416
 5836POPC   C1B73159  24.034  22.355   6.250
 5836POPC   C2B73160  23.982  22.155   6.650
 5836POPC   C3B73161  24.160  22.203   7.071
 5836POPC   C4B73162  23.968  22.321   7.500
 5837POPC   NC373163  13.084  42.252   5.341
 5837POPC   PO473164  12.436  42.441   5.202
 5837POPC   GL173165  12.687  42.371   5.609
 5837POPC   GL273166  12.827  42.068   5.750
 5837POPC   C1A73167  12.793  42.459   6.063
 5837POPC   D2A73168  12.759  42.387   6.507
 5837POPC   C3A73169  12.775  42.675   6.840
 5837POPC   C4A73170  12.946  42.469   7.210
 5837POPC   C1B73171  13.066  41.897   6.125
 5837POPC   C2B73172  13.140  41.874   6.589
 5837POPC   C3B73173  13.020  41.945   7.037
 5837POPC   C4B73174  12.975  41.895   7.477
 5838POPC   NC373175  30.510   2.985   5.527
 5838POPC   PO473176  30.714   3.647   5.470
 5838POPC   GL173177  30.589   3.427   5.790
 5838POPC   GL273178  30.927   3.478   5.931
 5838POPC   C1A73179  30.439   3.544   6.186
 5838POPC   D2A73180  30.739   3.568   6.508
 5838POPC   C3A73181  30.563   3.494   6.892
 5838POPC   C4A73182  30.519   3.708   7.252
 5838POPC   C1B73183  31.105   3.247   6.273
 5838POPC   C2B73184  30.923   3.124   6.661
 5838POPC   C3B73185  31.029   3.318   7.051
 5838POPC   C4B73186  31.049   3.466   7.473
 5839POPC   NC373187   8.624  15.791   5.506
 5839POPC   PO473188   8.823  16.320   5.578
 5839POPC   GL173189   9.031  16.083   5.888
 5839POPC   GL273190   9.005  15.718   5.877
 5839POPC   C1A73191   9.040  16.127   6.321
 5839POPC   D2A73192   9.124  15.976   6.735
 5839POPC   C3A73193   8.890  16.087   7.082
 5839POPC   C4A73194   9.142  16.427   7.186
 5839POPC   C1B73195   9.118  15.616   6.319
 5839POPC   C2B73196   9.391  15.537   6.702
 5839POPC   C3B73197   9.211  15.641   7.092
 5839POPC   C4B73198   8.775  15.578   7.052
 5840POPC   NC373199  21.615  32.258   5.418
 5840POPC   PO473200  20.871  32.320   5.397
 5840POPC   GL173201  21.048  32.204   5.796
 5840POPC   GL273202  21.399  32.210   5.866
 5840POPC   C1A73203  21.088  31.996   6.191
 5840POPC   D2A73204  21.419  31.977   6.498
 5840POPC   C3A73205  21.251  31.995   6.898
 5840POPC   C4A73206  21.400  32.064   7.278
 5840POPC   C1B73207  21.720  32.267   6.186
 5840POPC   C2B73208  21.777  32.440   6.603
 5840POPC   C3B73209  21.603  32.453   7.031
 5840POPC   C4B73210  21.813  32.309   7.450
 5841POPC   NC373211  28.986  11.031   5.453
 5841POPC   PO473212  29.176  10.369   5.526
 5841POPC   GL173213  29.271  10.424   5.908
 5841POPC   GL273214  29.239  10.792   5.902
 5841POPC   C1A73215  29.075  10.463   6.291
 5841POPC   D2A73216  29.137  10.665   6.644
 5841POPC   C3A73217  29.243  10.506   7.038
 5841POPC   C4A73218  29.495  10.722   7.307
 5841POPC   C1B73219  28.927  10.952   6.237
 5841POPC   C2B73220  28.765  11.014   6.683
 5841POPC   C3B73221  28.772  10.747   7.053
 5841POPC   C4B73222  28.938  10.671   7.467
 5842POPC   NC373223   8.455   8.060   5.253
 5842POPC   PO473224   7.983   8.480   5.398
 5842POPC   GL173225   8.263   8.258   5.704
 5842POPC   GL273226   8.090   7.947   5.780
 5842POPC   C1A73227   8.382   8.200   6.149
 5842POPC   D2A73228   8.134   8.320   6.524
 5842POPC   C3A73229   8.362   8.307   6.910
 5842POPC   C4A73230   8.203   8.265   7.339
 5842POPC   C1B73231   7.903   8.001   6.196
 5842POPC   C2B73232   7.986   7.848   6.626
 5842POPC   C3B73233   7.945   7.873   7.077
 5842POPC   C4B73234   7.574   7.779   7.330
 5843POPC   NC373235  42.009  44.217   5.657
 5843POPC   PO473236  42.206  43.609   5.542
 5843POPC   GL173237  42.415  43.899   5.858
 5843POPC   GL273238  42.695  44.157   5.815
 5843POPC   C1A73239  42.258  43.876   6.282
 5843POPC   D2A73240  41.984  43.622   6.552
 5843POPC   C3A73241  42.202  43.724   6.898
 5843POPC   C4A73242  42.225  44.106   7.126
 5843POPC   C1B73243  42.730  44.176   6.251
 5843POPC   C2B73244  42.577  44.060   6.675
 5843POPC   C3B73245  42.699  43.836   7.051
 5843POPC   C4B73246  42.612  43.995   7.450
 5844POPC   NC373247  12.593  40.349   5.689
 5844POPC   PO473248  13.214  40.145   5.495
 5844POPC   GL173249  13.021  40.060   5.856
 5844POPC   GL273250  13.157  39.757   5.922
 5844POPC   C1A73251  12.814  40.081   6.264
 5844POPC   D2A73252  12.932  40.248   6.653
 5844POPC   C3A73253  12.766  40.072   6.996
 5844POPC   C4A73254  12.672  40.015   7.384
 5844POPC   C1B73255  13.139  39.692   6.344
 5844POPC   C2B73256  13.038  39.756   6.726
 5844POPC   C3B73257  13.144  39.714   7.140
 5844POPC   C4B73258  12.975  39.659   7.556
 5845POPC   NC373259  10.788   4.549   5.140
 5845POPC   PO473260  10.193   4.162   5.263
 5845POPC   GL173261  10.496   4.333   5.598
 5845POPC   GL273262  10.302   4.574   5.776
 5845POPC   C1A73263  10.733   4.460   6.032
 5845POPC   D2A73264  10.968   4.427   6.453
 5845POPC   C3A73265  10.780   4.135   6.760
 5845POPC   C4A73266  10.735   4.218   7.215
 5845POPC   C1B73267  10.254   4.200   6.061
 5845POPC   C2B73268  10.328   4.036   6.481
 5845POPC   C3B73269  10.302   4.222   6.905
 5845POPC   C4B73270  10.282   4.016   7.292
 5846POPC   NC373271  13.917  17.511   5.482
 5846POPC   PO473272  13.358  17.178   5.370
 5846POPC   GL173273  13.460  17.432   5.761
 5846POPC   GL273274  13.228  17.706   5.859
 5846POPC   C1A73275  13.735  17.434   6.160
 5846POPC   D2A73276  13.854  17.294   6.607
 5846POPC   C3A73277  13.472  17.277   6.907
 5846POPC   C4A73278  13.532  17.350   7.345
 5846POPC   C1B73279  13.351  17.791   6.263
 5846POPC   C2B73280  13.328  17.734   6.703
 5846POPC   C3B73281  13.713  17.710   6.951
 5846POPC   C4B73282  13.826  17.773   7.372
 5847POPC   NC373283   8.423  37.012   5.399
 5847POPC   PO473284   7.769  36.961   5.516
 5847POPC   GL173285   8.040  37.020   5.853
 5847POPC   GL273286   8.369  36.905   5.913
 5847POPC   C1A73287   7.981  36.921   6.305
 5847POPC   D2A73288   8.260  36.979   6.680
 5847POPC   C3A73289   8.432  36.691   6.965
 5847POPC   C4A73290   8.232  36.777   7.329
 5847POPC   C1B73291   8.366  37.236   6.261
 5847POPC   C2B73292   8.614  37.334   6.650
 5847POPC   C3B73293   8.616  37.150   7.122
 5847POPC   C4B73294   8.554  37.047   7.606
 5848POPC   NC373295  38.984  35.791   5.430
 5848POPC   PO473296  39.576  35.613   5.598
 5848POPC   GL173297  39.237  35.476   5.830
 5848POPC   GL273298  39.250  35.106   5.887
 5848POPC   C1A73299  39.187  35.607   6.235
 5848POPC   D2A73300  39.419  35.701   6.562
 5848POPC   C3A73301  39.170  35.643   6.912
 5848POPC   C4A73302  39.223  35.434   7.299
 5848POPC   C1B73303  39.417  35.168   6.302
 5848POPC   C2B73304  39.164  35.219   6.654
 5848POPC   C3B73305  39.257  34.992   7.043
 5848POPC   C4B73306  39.622  34.759   7.210
 5849POPC   NC373307   2.469  38.770   5.388
 5849POPC   PO473308   2.760  38.170   5.457
 5849POPC   GL173309   2.673  38.472   5.789
 5849POPC   GL273310   2.759  38.834   5.798
 5849POPC   C1A73311   2.902  38.402   6.172
 5849POPC   D2A73312   2.925  38.069   6.480
 5849POPC   C3A73313   2.651  38.229   6.796
 5849POPC   C4A73314   2.568  38.285   7.244
 5849POPC   C1B73315   2.553  38.788   6.186
 5849POPC   C2B73316   2.775  38.726   6.575
 5849POPC   C3B73317   2.655  38.733   6.994
 5849POPC   C4B73318   2.320  38.955   7.168
 5850POPC   NC373319  27.743   9.074   5.318
 5850POPC   PO473320  27.092   9.159   5.462
 5850POPC   GL173321  27.383   9.018   5.814
 5850POPC   GL273322  27.719   8.834   5.764
 5850POPC   C1A73323  27.635   9.130   6.200
 5850POPC   D2A73324  27.641   9.270   6.651
 5850POPC   C3A73325  27.426   9.003   6.990
 5850POPC   C4A73326  27.300   9.070   7.435
 5850POPC   C1B73327  27.962   8.713   6.160
 5850POPC   C2B73328  27.840   8.803   6.586
 5850POPC   C3B73329  27.874   8.754   7.025
 5850POPC   C4B73330  28.015   8.736   7.434
 5851POPC   NC373331  15.424   8.640   5.407
 5851POPC   PO473332  14.791   8.993   5.485
 5851POPC   GL173333  14.939   9.130   5.852
 5851POPC   GL273334  15.295   9.119   5.783
 5851POPC   C1A73335  14.945   9.152   6.276
 5851POPC   D2A73336  14.805   9.286   6.664
 5851POPC   C3A73337  15.061   9.126   6.969
 5851POPC   C4A73338  15.235   9.214   7.348
 5851POPC   C1B73339  15.252   8.776   6.092
 5851POPC   C2B73340  15.217   8.828   6.554
 5851POPC   C3B73341  15.362   8.689   6.966
 5851POPC   C4B73342  15.600   8.870   7.321
 5852POPC   NC373343   9.968  38.374   5.468
 5852POPC   PO473344   9.358  38.728   5.559
 5852POPC   GL173345   9.597  38.502   5.858
 5852POPC   GL273346   9.527  38.141   5.758
 5852POPC   C1A73347   9.707  38.610   6.295
 5852POPC   D2A73348   9.792  38.881   6.662
 5852POPC   C3A73349   9.868  38.686   7.073
 5852POPC   C4A73350  10.123  38.290   7.158
 5852POPC   C1B73351   9.552  38.052   6.216
 5852POPC   C2B73352   9.411  38.135   6.661
 5852POPC   C3B73353   9.368  37.882   7.056
 5852POPC   C4B73354   9.496  37.795   7.495
 5853POPC   NC373355  11.876   5.398   5.353
 5853POPC   PO473356  12.190   4.751   5.405
 5853POPC   GL173357  12.117   5.058   5.741
 5853POPC   GL273358  11.801   5.095   5.753
 5853POPC   C1A73359  12.172   5.194   6.179
 5853POPC   D2A73360  12.336   5.030   6.597
 5853POPC   C3A73361  12.263   5.204   7.028
 5853POPC   C4A73362  12.090   5.418   7.406
 5853POPC   C1B73363  11.717   4.901   6.139
 5853POPC   C2B73364  11.818   5.069   6.524
 5853POPC   C3B73365  11.635   5.038   6.878
 5853POPC   C4B73366  11.826   4.986   7.239
 5854POPC   NC373367  15.607   3.223   5.407
 5854POPC   PO473368  16.225   3.624   5.421
 5854POPC   GL173369  16.060   3.503   5.842
 5854POPC   GL273370  15.769   3.687   5.985
 5854POPC   C1A73371  16.153   3.529   6.304
 5854POPC   D2A73372  15.898   3.611   6.666
 5854POPC   C3A73373  15.965   3.416   7.099
 5854POPC   C4A73374  16.110   3.376   7.551
 5854POPC   C1B73375  15.663   3.367   6.259
 5854POPC   C2B73376  15.395   3.415   6.599
 5854POPC   C3B73377  15.490   3.655   6.967
 5854POPC   C4B73378  15.489   3.349   7.289
 5855POPC   NC373379   6.408   0.353   5.208
 5855POPC   PO473380   7.049   0.710   5.246
 5855POPC   GL173381   6.946   0.671   5.730
 5855POPC   GL273382   7.111   0.367   5.857
 5855POPC   C1A73383   6.713   0.666   6.161
 5855POPC   D2A73384   6.523   0.412   6.528
 5855POPC   C3A73385   6.564   0.547   6.978
 5855POPC   C4A73386   6.310   0.295   7.254
 5855POPC   C1B73387   6.899   0.167   6.211
 5855POPC   C2B73388   6.965   0.042   6.608
 5855POPC   C3B73389   6.669   0.041   6.883
 5855POPC   C4B73390   6.790   0.097   7.250
 5856POPC   NC373391  31.678  44.913   5.539
 5856POPC   PO473392  31.740  44.297   5.584
 5856POPC   GL173393  31.567  44.612   5.954
 5856POPC   GL273394  31.636  44.990   6.060
 5856POPC   C1A73395  31.383  44.653   6.399
 5856POPC   D2A73396  31.528  44.877   6.800
 5856POPC   C3A73397  31.354  44.744   7.205
 5856POPC   C4A73398  31.444  44.334   7.425
 5856POPC   C1B73399  31.874  44.701   6.374
 5856POPC   C2B73400  31.726  44.420   6.719
 5856POPC   C3B73401  31.839  44.521   7.146
 5856POPC   C4B73402  32.153  44.490   7.465
 5857POPC   NC373403   0.539  32.697   5.467
 5857POPC   PO473404   0.565  33.354   5.291
 5857POPC   GL173405   0.391  33.171   5.745
 5857POPC   GL273406   0.244  32.798   5.858
 5857POPC   C1A73407   0.274  33.146   6.221
 5857POPC   D2A73408   0.240  32.981   6.663
 5857POPC   C3A73409   0.498  33.164   7.041
 5857POPC   C4A73410   0.281  33.396   7.392
 5857POPC   C1B73411   0.614  32.783   6.157
 5857POPC   C2B73412   0.748  32.958   6.543
 5857POPC   C3B73413   0.627  32.692   6.881
 5857POPC   C4B73414   0.765  32.735   7.283
 5858POPC   NC373415  38.477  25.724   5.543
 5858POPC   PO473416  38.498  25.008   5.474
 5858POPC   GL173417  38.593  25.270   5.798
 5858POPC   GL273418  38.732  24.968   5.929
 5858POPC   C1A73419  38.509  25.432   6.205
 5858POPC   D2A73420  38.580  25.239   6.624
 5858POPC   C3A73421  38.377  25.344   6.999
 5858POPC   C4A73422  38.484  25.605   7.384
 5858POPC   C1B73423  38.399  24.932   6.241
 5858POPC   C2B73424  38.242  24.866   6.660
 5858POPC   C3B73425  38.232  24.786   7.053
 5858POPC   C4B73426  38.540  24.921   7.267
 5859POPC   NC373427  20.538  11.722   5.497
 5859POPC   PO473428  20.758  11.044   5.337
 5859POPC   GL173429  20.517  11.264   5.765
 5859POPC   GL273430  20.719  11.507   5.946
 5859POPC   C1A73431  20.371  11.435   6.263
 5859POPC   D2A73432  20.568  11.449   6.682
 5859POPC   C3A73433  20.390  11.538   7.096
 5859POPC   C4A73434  20.545  11.762   7.497
 5859POPC   C1B73435  20.734  11.093   6.190
 5859POPC   C2B73436  20.864  11.021   6.619
 5859POPC   C3B73437  20.713  11.064   7.041
 5859POPC   C4B73438  20.948  11.031   7.405
 5860POPC   NC373439  12.384  13.609   5.692
 5860POPC   PO473440  11.851  13.647   5.288
 5860POPC   GL173441  11.723  13.587   5.744
 5860POPC   GL273442  11.738  13.940   5.877
 5860POPC   C1A73443  11.787  13.570   6.219
 5860POPC   D2A73444  11.716  13.906   6.559
 5860POPC   C3A73445  11.753  13.694   6.951
 5860POPC   C4A73446  12.140  13.499   7.077
 5860POPC   C1B73447  12.119  13.938   6.202
 5860POPC   C2B73448  12.226  13.809   6.634
 5860POPC   C3B73449  12.196  14.002   7.041
 5860POPC   C4B73450  11.973  13.861   7.410
 5861POPC   NC373451  44.117   3.450   5.516
 5861POPC   PO473452  43.528   3.261   5.792
 5861POPC   GL173453  43.791   3.571   5.887
 5861POPC   GL273454  43.713   3.934   5.760
 5861POPC   C1A73455  43.941   3.413   6.269
 5861POPC   D2A73456  43.688   3.360   6.613
 5861POPC   C3A73457  43.939   3.413   6.957
 5861POPC   C4A73458  43.869   3.137   7.271
 5861POPC   C1B73459  43.917   3.960   6.189
 5861POPC   C2B73460  43.982   3.801   6.611
 5861POPC   C3B73461  44.004   3.948   7.033
 5861POPC   C4B73462  43.728   3.899   7.388
 5862POPC   NC373463  32.746  30.935   5.406
 5862POPC   PO473464  33.398  30.708   5.634
 5862POPC   GL173465  33.023  30.601   5.812
 5862POPC   GL273466  32.901  30.932   5.877
 5862POPC   C1A73467  32.943  30.613   6.255
 5862POPC   D2A73468  32.841  30.816   6.628
 5862POPC   C3A73469  32.864  30.490   6.909
 5862POPC   C4A73470  32.978  30.527   7.297
 5862POPC   C1B73471  32.874  31.149   6.244
 5862POPC   C2B73472  33.147  31.304   6.522
 5862POPC   C3B73473  33.193  31.078   6.930
 5862POPC   C4B73474  32.805  30.985   7.168
 5863POPC   NC373475  13.416  15.946   5.419
 5863POPC   PO473476  14.112  16.058   5.371
 5863POPC   GL173477  13.909  15.946   5.792
 5863POPC   GL273478  13.663  15.641   5.764
 5863POPC   C1A73479  13.833  16.219   6.219
 5863POPC   D2A73480  13.725  16.352   6.662
 5863POPC   C3A73481  13.689  16.106   7.028
 5863POPC   C4A73482  13.948  16.029   7.410
 5863POPC   C1B73483  13.648  15.752   6.212
 5863POPC   C2B73484  13.868  15.839   6.600
 5863POPC   C3B73485  13.847  15.630   7.006
 5863POPC   C4B73486  13.555  15.727   7.335
 5864POPC   NC373487  28.960  16.956   5.546
 5864POPC   PO473488  29.334  16.407   5.455
 5864POPC   GL173489  29.338  16.662   5.809
 5864POPC   GL273490  29.004  16.536   5.889
 5864POPC   C1A73491  29.287  16.724   6.252
 5864POPC   D2A73492  29.170  16.570   6.620
 5864POPC   C3A73493  29.444  16.704   6.929
 5864POPC   C4A73494  29.257  16.765   7.272
 5864POPC   C1B73495  28.766  16.671   6.249
 5864POPC   C2B73496  28.710  16.962   6.586
 5864POPC   C3B73497  28.853  16.987   7.018
 5864POPC   C4B73498  28.797  16.811   7.434
 5865POPC   NC373499   3.163  39.348   5.447
 5865POPC   PO473500   2.532  39.209   5.499
 5865POPC   GL173501   2.823  39.344   5.852
 5865POPC   GL273502   3.197  39.464   5.933
 5865POPC   C1A73503   2.871  39.208   6.288
 5865POPC   D2A73504   3.048  39.160   6.700
 5865POPC   C3A73505   2.750  39.240   6.977
 5865POPC   C4A73506   2.674  39.436   7.327
 5865POPC   C1B73507   3.304  39.488   6.360
 5865POPC   C2B73508   3.063  39.674   6.689
 5865POPC   C3B73509   3.112  39.604   7.123
 5865POPC   C4B73510   3.412  39.367   7.339
 5866POPC   NC373511  19.677  11.242   5.552
 5866POPC   PO473512  20.010  11.802   5.526
 5866POPC   GL173513  19.984  11.412   5.912
 5866POPC   GL273514  19.778  11.044   5.990
 5866POPC   C1A73515  19.902  11.320   6.387
 5866POPC   D2A73516  19.685  11.570   6.685
 5866POPC   C3A73517  19.843  11.448   7.076
 5866POPC   C4A73518  19.658  11.497   7.461
 5866POPC   C1B73519  20.217  10.991   6.110
 5866POPC   C2B73520  20.357  10.978   6.566
 5866POPC   C3B73521  20.203  11.033   7.024
 5866POPC   C4B73522  19.983  11.098   7.442
 5867POPC   NC373523  24.279  30.814   5.489
 5867POPC   PO473524  24.795  31.060   5.187
 5867POPC   GL173525  24.672  30.949   5.747
 5867POPC   GL273526  24.424  30.700   5.952
 5867POPC   C1A73527  24.768  30.956   6.217
 5867POPC   D2A73528  24.483  30.790   6.562
 5867POPC   C3A73529  24.493  30.792   7.034
 5867POPC   C4A73530  24.735  30.584   7.360
 5867POPC   C1B73531  24.272  30.404   6.306
 5867POPC   C2B73532  24.268  30.360   6.777
 5867POPC   C3B73533  24.062  30.489   7.125
 5867POPC   C4B73534  24.201  30.613   7.530
 5868POPC   NC373535  10.318   8.636   5.600
 5868POPC   PO473536  10.684   8.090   5.323
 5868POPC   GL173537  10.658   8.204   5.717
 5868POPC   GL273538  10.983   8.307   5.761
 5868POPC   C1A73539  10.495   8.177   6.139
 5868POPC   D2A73540  10.422   7.922   6.501
 5868POPC   C3A73541  10.367   8.123   6.901
 5868POPC   C4A73542  10.185   7.983   7.271
 5868POPC   C1B73543  10.977   8.314   6.195
 5868POPC   C2B73544  10.795   8.288   6.586
 5868POPC   C3B73545  10.927   8.142   6.981
 5868POPC   C4B73546  10.670   8.163   7.323
 5869POPC   NC373547  35.203  32.293   5.368
 5869POPC   PO473548  35.866  32.235   5.491
 5869POPC   GL173549  35.539  32.377   5.817
 5869POPC   GL273550  35.171  32.265   5.857
 5869POPC   C1A73551  35.373  32.475   6.262
 5869POPC   D2A73552  35.165  32.486   6.664
 5869POPC   C3A73553  35.426  32.491   7.030
 5869POPC   C4A73554  35.565  32.658   7.381
 5869POPC   C1B73555  35.005  32.071   6.220
 5869POPC   C2B73556  35.205  31.811   6.521
 5869POPC   C3B73557  35.225  32.035   6.904
 5869POPC   C4B73558  34.952  32.239   7.216
 5870POPC   NC373559  32.918  17.357   5.337
 5870POPC   PO473560  33.120  16.770   5.274
 5870POPC   GL173561  33.176  16.762   5.707
 5870POPC   GL273562  33.110  17.097   5.757
 5870POPC   C1A73563  33.004  16.726   6.132
 5870POPC   D2A73564  33.111  16.890   6.529
 5870POPC   C3A73565  32.964  16.703   6.925
 5870POPC   C4A73566  33.121  16.504   7.266
 5870POPC   C1B73567  32.779  17.195   6.068
 5870POPC   C2B73568  32.766  17.284   6.523
 5870POPC   C3B73569  33.004  17.212   6.911
 5870POPC   C4B73570  32.818  17.005   7.314
 5871POPC   NC373571  29.774  26.457   5.433
 5871POPC   PO473572  29.967  27.051   5.442
 5871POPC   GL173573  29.748  26.948   5.839
 5871POPC   GL273574  29.622  26.625   5.915
 5871POPC   C1A73575  29.869  26.880   6.286
 5871POPC   D2A73576  30.038  26.811   6.712
 5871POPC   C3A73577  29.790  26.934   7.042
 5871POPC   C4A73578  29.487  26.710   7.228
 5871POPC   C1B73579  29.601  26.431   6.348
 5871POPC   C2B73580  29.683  26.417   6.814
 5871POPC   C3B73581  29.924  26.465   7.218
 5871POPC   C4B73582  29.808  26.609   7.655
 5872POPC   NC373583   3.738   7.519   5.424
 5872POPC   PO473584   3.244   7.117   5.438
 5872POPC   GL173585   3.295   7.434   5.741
 5872POPC   GL273586   3.327   7.224   5.945
 5872POPC   C1A73587   3.265   7.683   6.158
 5872POPC   D2A73588   3.096   7.853   6.566
 5872POPC   C3A73589   3.344   7.733   6.980
 5872POPC   C4A73590   3.789   7.640   7.170
 5872POPC   C1B73591   3.190   7.186   6.310
 5872POPC   C2B73592   3.195   7.204   6.705
 5872POPC   C3B73593   3.539   7.261   6.930
 5872POPC   C4B73594   3.676   7.111   7.287
 5873POPC   NC373595   3.236   0.560   5.569
 5873POPC   PO473596   3.967   0.430   5.309
 5873POPC   GL173597   3.865   0.301   5.789
 5873POPC   GL273598   3.527   0.430   5.957
 5873POPC   C1A73599   3.805   0.172   6.257
 5873POPC   D2A73600   3.552   0.457   6.530
 5873POPC   C3A73601   3.760   0.422   6.915
 5873POPC   C4A73602   3.999   0.667   7.158
 5873POPC   C1B73603   3.185   0.632   6.213
 5873POPC   C2B73604   3.089   0.789   6.623
 5873POPC   C3B73605   3.372   0.748   6.986
 5873POPC   C4B73606   3.431   0.629   7.409
 5874POPC   NC373607  34.981  37.620   5.392
 5874POPC   PO473608  35.626  37.323   5.413
 5874POPC   GL173609  35.455  37.656   5.739
 5874POPC   GL273610  35.114  37.824   5.828
 5874POPC   C1A73611  35.554  37.687   6.196
 5874POPC   D2A73612  35.717  37.513   6.592
 5874POPC   C3A73613  35.596  37.600   7.038
 5874POPC   C4A73614  35.330  37.436   7.415
 5874POPC   C1B73615  35.078  37.828   6.266
 5874POPC   C2B73616  35.297  37.862   6.671
 5874POPC   C3B73617  35.122  37.751   7.084
 5874POPC   C4B73618  34.942  37.771   7.484
 5875POPC   NC373619  44.831  21.056   5.379
 5875POPC   PO473620  44.212  21.303   5.620
 5875POPC   GL173621  44.633  21.354   5.848
 5875POPC   GL273622  44.946  21.163   5.846
 5875POPC   C1A73623  44.629  21.409   6.310
 5875POPC   D2A73624  44.338  21.450   6.656
 5875POPC   C3A73625  44.576  21.280   6.987
 5875POPC   C4A73626  44.940  21.496   7.125
 5875POPC   C1B73627   0.104  21.257   6.243
 5875POPC   C2B73628   0.019  21.110   6.654
 5875POPC   C3B73629   0.217  20.935   7.001
 5875POPC   C4B73630   0.021  20.837   7.383
 5876POPC   NC373631   6.781   8.592   5.626
 5876POPC   PO473632   6.534   7.935   5.493
 5876POPC   GL173633   6.632   8.153   5.840
 5876POPC   GL273634   6.334   8.395   5.809
 5876POPC   C1A73635   6.834   8.060   6.252
 5876POPC   D2A73636   6.569   8.019   6.663
 5876POPC   C3A73637   6.695   7.812   7.060
 5876POPC   C4A73638   6.485   7.556   7.384
 5876POPC   C1B73639   6.500   8.432   6.258
 5876POPC   C2B73640   6.846   8.441   6.609
 5876POPC   C3B73641   6.708   8.338   7.055
 5876POPC   C4B73642   6.904   8.517   7.441
 5877POPC   NC373643  17.204   9.421   4.982
 5877POPC   PO473644  17.617   9.842   5.428
 5877POPC   GL173645  17.462   9.859   5.832
 5877POPC   GL273646  17.626   9.537   5.885
 5877POPC   C1A73647  17.333   9.797   6.266
 5877POPC   D2A73648  17.152   9.881   6.648
 5877POPC   C3A73649  17.345   9.702   6.986
 5877POPC   C4A73650  17.333   9.774   7.396
 5877POPC   C1B73651  17.832   9.708   6.231
 5877POPC   C2B73652  17.705   9.611   6.631
 5877POPC   C3B73653  17.887   9.761   7.029
 5877POPC   C4B73654  17.815   9.807   7.458
 5878POPC   NC373655  35.525  17.643   5.669
 5878POPC   PO473656  35.659  18.201   5.313
 5878POPC   GL173657  35.513  18.207   5.749
 5878POPC   GL273658  35.201  18.042   5.760
 5878POPC   C1A73659  35.387  18.379   6.176
 5878POPC   D2A73660  35.581  18.514   6.581
 5878POPC   C3A73661  35.340  18.385   6.975
 5878POPC   C4A73662  35.382  18.417   7.436
 5878POPC   C1B73663  35.044  17.973   6.162
 5878POPC   C2B73664  35.223  18.044   6.564
 5878POPC   C3B73665  35.225  17.838   6.950
 5878POPC   C4B73666  35.533  17.967   7.212
 5879POPC   NC373667  25.882  11.795   5.494
 5879POPC   PO473668  25.612  12.454   5.522
 5879POPC   GL173669  25.805  12.251   5.884
 5879POPC   GL273670  26.167  12.112   5.843
 5879POPC   C1A73671  25.894  11.999   6.260
 5879POPC   D2A73672  26.128  11.908   6.635
 5879POPC   C3A73673  25.788  11.965   6.970
 5879POPC   C4A73674  25.723  12.369   7.168
 5879POPC   C1B73675  26.371  12.264   6.234
 5879POPC   C2B73676  26.613  12.242   6.620
 5879POPC   C3B73677  26.376  12.217   7.000
 5879POPC   C4B73678  26.231  11.840   7.157
 5880POPC   NC373679  28.925  26.845   5.074
 5880POPC   PO473680  29.411  26.738   5.435
 5880POPC   GL173681  29.233  26.946   5.761
 5880POPC   GL273682  29.106  26.665   5.861
 5880POPC   C1A73683  29.356  26.972   6.210
 5880POPC   D2A73684  29.479  26.852   6.623
 5880POPC   C3A73685  29.264  27.038   6.918
 5880POPC   C4A73686  29.231  27.162   7.323
 5880POPC   C1B73687  28.852  26.986   6.088
 5880POPC   C2B73688  28.943  27.050   6.519
 5880POPC   C3B73689  28.809  26.766   6.855
 5880POPC   C4B73690  28.990  26.737   7.248
 5881POPC   NC373691   1.470  12.657   5.382
 5881POPC   PO473692   0.961  13.085   5.422
 5881POPC   GL173693   1.139  12.965   5.811
 5881POPC   GL273694   1.481  13.036   5.749
 5881POPC   C1A73695   1.049  12.947   6.257
 5881POPC   D2A73696   0.894  13.125   6.641
 5881POPC   C3A73697   0.978  12.860   6.974
 5881POPC   C4A73698   1.017  12.885   7.438
 5881POPC   C1B73699   1.549  12.856   6.183
 5881POPC   C2B73700   1.407  12.885   6.643
 5881POPC   C3B73701   1.463  12.906   7.086
 5881POPC   C4B73702   1.466  12.619   7.426
 5882POPC   NC373703   1.926  30.161   5.372
 5882POPC   PO473704   1.372  29.586   5.482
 5882POPC   GL173705   1.729  29.762   5.764
 5882POPC   GL273706   1.811  30.107   5.846
 5882POPC   C1A73707   1.917  29.739   6.217
 5882POPC   D2A73708   1.837  29.698   6.685
 5882POPC   C3A73709   1.958  29.953   7.032
 5882POPC   C4A73710   2.357  30.008   7.209
 5882POPC   C1B73711   2.051  30.246   6.177
 5882POPC   C2B73712   1.920  30.248   6.593
 5882POPC   C3B73713   1.757  30.426   6.976
 5882POPC   C4B73714   1.883  30.364   7.386
 5883POPC   NC373715  21.346   7.056   5.479
 5883POPC   PO473716  21.908   6.646   5.423
 5883POPC   GL173717  21.513   6.574   5.702
 5883POPC   GL273718  21.135   6.643   5.687
 5883POPC   C1A73719  21.338   6.438   6.112
 5883POPC   D2A73720  21.472   6.317   6.524
 5883POPC   C3A73721  21.281   6.468   6.886
 5883POPC   C4A73722  21.504   6.466   7.287
 5883POPC   C1B73723  21.070   6.887   6.088
 5883POPC   C2B73724  21.320   6.857   6.466
 5883POPC   C3B73725  21.425   6.944   6.858
 5883POPC   C4B73726  21.331   7.044   7.248
 5884POPC   NC373727  43.569  11.148   5.478
 5884POPC   PO473728  44.049  11.593   5.422
 5884POPC   GL173729  44.135  11.211   5.726
 5884POPC   GL273730  43.939  10.923   5.846
 5884POPC   C1A73731  44.143  11.254   6.193
 5884POPC   D2A73732  43.831  11.394   6.524
 5884POPC   C3A73733  43.913  11.258   6.953
 5884POPC   C4A73734  43.783  11.465   7.330
 5884POPC   C1B73735  43.677  11.027   6.188
 5884POPC   C2B73736  43.709  10.909   6.615
 5884POPC   C3B73737  43.503  10.928   7.019
 5884POPC   C4B73738  43.695  10.935   7.440
 5885POPC   NC373739  29.439  35.676   5.470
 5885POPC   PO473740  28.975  35.151   5.422
 5885POPC   GL173741  29.255  35.258   5.762
 5885POPC   GL273742  29.004  35.528   5.813
 5885POPC   C1A73743  29.484  35.200   6.174
 5885POPC   D2A73744  29.408  35.336   6.607
 5885POPC   C3A73745  29.101  35.223   6.966
 5885POPC   C4A73746  29.364  35.081   7.339
 5885POPC   C1B73747  29.234  35.662   6.176
 5885POPC   C2B73748  29.147  35.785   6.597
 5885POPC   C3B73749  29.321  35.673   6.979
 5885POPC   C4B73750  29.156  35.567   7.377
 5886POPC   NC373751  41.451   0.017   5.394
 5886POPC   PO473752  41.911  44.523   5.291
 5886POPC   GL173753  41.578  44.577   5.680
 5886POPC   GL273754  41.518  44.241   5.807
 5886POPC   C1A73755  41.372  44.800   6.076
 5886POPC   D2A73756  41.544   0.048   6.439
 5886POPC   C3A73757  41.693  44.897   6.857
 5886POPC   C4A73758  41.544  44.773   7.259
 5886POPC   C1B73759  41.698  44.421   6.180
 5886POPC   C2B73760  41.529  44.530   6.548
 5886POPC   C3B73761  41.498  44.375   6.964
 5886POPC   C4B73762  41.792  44.300   7.326
 5887POPC   NC373763  27.085  21.497   5.396
 5887POPC   PO473764  26.440  21.719   5.430
 5887POPC   GL173765  26.598  21.431   5.752
 5887POPC   GL273766  26.924  21.264   5.810
 5887POPC   C1A73767  26.622  21.455   6.189
 5887POPC   D2A73768  26.684  21.278   6.576
 5887POPC   C3A73769  26.674  21.524   6.949
 5887POPC   C4A73770  26.776  21.407   7.389
 5887POPC   C1B73771  27.118  21.101   6.177
 5887POPC   C2B73772  27.172  21.122   6.617
 5887POPC   C3B73773  26.947  21.071   6.998
 5887POPC   C4B73774  27.195  21.119   7.354
 5888POPC   NC373775  39.885   7.267   5.437
 5888POPC   PO473776  40.347   7.795   5.421
 5888POPC   GL173777  40.124   7.540   5.828
 5888POPC   GL273778  39.770   7.358   5.912
 5888POPC   C1A73779  40.009   7.566   6.318
 5888POPC   D2A73780  40.073   7.408   6.749
 5888POPC   C3A73781  39.947   7.684   7.100
 5888POPC   C4A73782  39.969   7.699   7.569
 5888POPC   C1B73783  39.512   7.509   6.268
 5888POPC   C2B73784  39.569   7.384   6.693
 5888POPC   C3B73785  39.613   7.281   7.158
 5888POPC   C4B73786  39.770   7.215   7.587
 5889POPC   NC373787  13.441  27.684   5.352
 5889POPC   PO473788  13.383  27.038   5.605
 5889POPC   GL173789  13.535  27.407   5.826
 5889POPC   GL273790  13.645  27.761   5.817
 5889POPC   C1A73791  13.467  27.477   6.252
 5889POPC   D2A73792  13.391  27.584   6.650
 5889POPC   C3A73793  13.563  27.544   7.007
 5889POPC   C4A73794  13.368  27.819   7.301
 5889POPC   C1B73795  13.910  27.697   6.194
 5889POPC   C2B73796  13.882  27.819   6.590
 5889POPC   C3B73797  14.043  27.713   6.996
 5889POPC   C4B73798  13.832  27.672   7.433
 5890POPC   NC373799  23.145  34.263   5.522
 5890POPC   PO473800  22.815  33.891   5.063
 5890POPC   GL173801  22.804  33.769   5.541
 5890POPC   GL273802  23.137  33.756   5.737
 5890POPC   C1A73803  22.687  33.734   6.016
 5890POPC   D2A73804  22.566  33.819   6.474
 5890POPC   C3A73805  22.879  33.858   6.822
 5890POPC   C4A73806  22.849  33.872   7.274
 5890POPC   C1B73807  23.146  33.702   6.219
 5890POPC   C2B73808  22.993  33.433   6.575
 5890POPC   C3B73809  23.091  33.414   7.052
 5890POPC   C4B73810  23.063  33.481   7.530
 5891POPC   NC373811  28.855   0.432   5.515
 5891POPC   PO473812  29.452   0.737   5.411
 5891POPC   GL173813  29.470   0.444   5.778
 5891POPC   GL273814  29.407   0.722   5.951
 5891POPC   C1A73815  29.304   0.317   6.242
 5891POPC   D2A73816  29.076   0.407   6.663
 5891POPC   C3A73817  29.292   0.334   7.073
 5891POPC   C4A73818  29.218   0.176   7.502
 5891POPC   C1B73819  29.169   0.820   6.285
 5891POPC   C2B73820  29.353   0.850   6.664
 5891POPC   C3B73821  29.487   0.800   7.096
 5891POPC   C4B73822  29.605   0.535   7.454
 5892POPC   NC373823  39.498   4.961   5.343
 5892POPC   PO473824  39.608   5.584   5.601
 5892POPC   GL173825  39.416   5.245   5.889
 5892POPC   GL273826  39.298   4.903   5.823
 5892POPC   C1A73827  39.191   5.126   6.294
 5892POPC   D2A73828  39.054   5.189   6.738
 5892POPC   C3A73829  39.183   5.303   7.156
 5892POPC   C4A73830  39.637   5.310   7.187
 5892POPC   C1B73831  39.451   4.685   6.181
 5892POPC   C2B73832  39.605   4.850   6.571
 5892POPC   C3B73833  39.437   4.879   6.996
 5892POPC   C4B73834  39.322   4.720   7.422
 5893POPC   NC373835  30.275  11.270   5.166
 5893POPC   PO473836  29.559  11.062   5.275
 5893POPC   GL173837  29.749  11.114   5.706
 5893POPC   GL273838  29.973  11.422   5.767
 5893POPC   C1A73839  29.881  11.111   6.154
 5893POPC   D2A73840  30.134  11.113   6.532
 5893POPC   C3A73841  29.984  11.203   6.938
 5893POPC   C4A73842  29.610  11.244   7.195
 5893POPC   C1B73843  30.205  11.522   6.214
 5893POPC   C2B73844  30.219  11.660   6.665
 5893POPC   C3B73845  30.240  11.607   7.135
 5893POPC   C4B73846  30.031  11.356   7.450
 5894POPC   NC373847   0.919  30.882   5.478
 5894POPC   PO473848   0.271  30.821   5.182
 5894POPC   GL173849   0.456  30.751   5.651
 5894POPC   GL273850   0.409  30.441   5.834
 5894POPC   C1A73851   0.555  30.844   6.113
 5894POPC   D2A73852   0.589  30.543   6.462
 5894POPC   C3A73853   0.704  30.716   6.871
 5894POPC   C4A73854   0.745  30.387   7.167
 5894POPC   C1B73855   0.117  30.515   6.165
 5894POPC   C2B73856   0.144  30.734   6.554
 5894POPC   C3B73857   0.236  30.505   6.932
 5894POPC   C4B73858  44.977  30.482   7.269
 5895POPC   NC373859   4.646  20.040   5.441
 5895POPC   PO473860   4.021  19.784   5.455
 5895POPC   GL173861   4.303  19.835   5.785
 5895POPC   GL273862   4.300  20.193   5.821
 5895POPC   C1A73863   4.154  19.863   6.211
 5895POPC   D2A73864   3.904  19.776   6.562
 5895POPC   C3A73865   4.191  19.797   6.870
 5895POPC   C4A73866   4.313  19.655   7.239
 5895POPC   C1B73867   4.592  20.131   6.156
 5895POPC   C2B73868   4.614  19.859   6.530
 5895POPC   C3B73869   4.725  19.921   6.950
 5895POPC   C4B73870   4.428  20.144   7.189
 5896POPC   NC373871  36.361  13.860   5.359
 5896POPC   PO473872  35.842  13.384   5.362
 5896POPC   GL173873  35.961  13.528   5.753
 5896POPC   GL273874  35.982  13.865   5.757
 5896POPC   C1A73875  36.198  13.592   6.149
 5896POPC   D2A73876  36.201  13.365   6.525
 5896POPC   C3A73877  36.207  13.571   6.910
 5896POPC   C4A73878  36.203  13.433   7.322
 5896POPC   C1B73879  35.816  13.928   6.161
 5896POPC   C2B73880  35.839  13.773   6.572
 5896POPC   C3B73881  35.793  13.887   7.000
 5896POPC   C4B73882  35.796  13.726   7.429
 5897POPC   NC373883  41.956  35.428   5.356
 5897POPC   PO473884  42.566  34.969   5.411
 5897POPC   GL173885  42.330  35.127   5.762
 5897POPC   GL273886  42.273  35.471   5.751
 5897POPC   C1A73887  42.377  35.068   6.199
 5897POPC   D2A73888  42.504  34.994   6.613
 5897POPC   C3A73889  42.601  35.325   6.933
 5897POPC   C4A73890  42.470  35.200   7.351
 5897POPC   C1B73891  42.068  35.460   6.148
 5897POPC   C2B73892  42.232  35.444   6.564
 5897POPC   C3B73893  42.106  35.626   6.954
 5897POPC   C4B73894  42.253  35.668   7.364
 5898POPC   NC373895   2.550  42.405   5.439
 5898POPC   PO473896   3.077  42.110   5.390
 5898POPC   GL173897   2.851  42.115   5.795
 5898POPC   GL273898   2.871  42.467   5.859
 5898POPC   C1A73899   2.689  41.964   6.226
 5898POPC   D2A73900   2.746  42.009   6.695
 5898POPC   C3A73901   2.453  42.187   6.997
 5898POPC   C4A73902   2.561  42.202   7.452
 5898POPC   C1B73903   2.596  42.482   6.226
 5898POPC   C2B73904   2.491  42.624   6.689
 5898POPC   C3B73905   2.515  42.664   7.198
 5898POPC   C4B73906   2.349  42.610   7.686
 5899POPC   NC373907   1.620  31.506   5.475
 5899POPC   PO473908   2.272  31.434   5.391
 5899POPC   GL173909   2.049  31.507   5.759
 5899POPC   GL273910   2.230  31.287   5.931
 5899POPC   C1A73911   1.781  31.476   6.161
 5899POPC   D2A73912   1.728  31.380   6.628
 5899POPC   C3A73913   1.709  31.684   6.996
 5899POPC   C4A73914   1.676  31.564   7.447
 5899POPC   C1B73915   2.161  31.184   6.340
 5899POPC   C2B73916   2.256  31.355   6.699
 5899POPC   C3B73917   2.075  31.323   7.085
 5899POPC   C4B73918   2.175  31.583   7.418
 5900POPC   NC373919  43.666  21.663   5.164
 5900POPC   PO473920  42.999  21.728   5.280
 5900POPC   GL173921  43.009  21.378   5.634
 5900POPC   GL273922  43.213  21.554   5.874
 5900POPC   C1A73923  43.091  21.114   6.066
 5900POPC   D2A73924  43.251  21.415   6.412
 5900POPC   C3A73925  43.060  21.426   6.826
 5900POPC   C4A73926  43.206  21.234   7.202
 5900POPC   C1B73927  42.817  21.545   6.112
 5900POPC   C2B73928  42.733  21.795   6.492
 5900POPC   C3B73929  42.853  21.899   6.905
 5900POPC   C4B73930  42.773  21.634   7.235
 5901POPC   NC373931   3.898  41.908   5.208
 5901POPC   PO473932   3.613  41.266   5.389
 5901POPC   GL173933   3.639  41.389   5.844
 5901POPC   GL273934   3.868  41.696   5.941
 5901POPC   C1A73935   3.520  41.458   6.246
 5901POPC   D2A73936   3.390  41.221   6.568
 5901POPC   C3A73937   3.487  41.413   6.934
 5901POPC   C4A73938   3.549  41.569   7.385
 5901POPC   C1B73939   3.729  41.942   6.271
 5901POPC   C2B73940   3.644  41.873   6.676
 5901POPC   C3B73941   3.843  41.756   7.003
 5901POPC   C4B73942   3.897  41.923   7.351
 5902POPC   NC373943  28.535  27.348   5.456
 5902POPC   PO473944  28.321  27.965   5.338
 5902POPC   GL173945  28.305  27.701   5.748
 5902POPC   GL273946  28.114  27.372   5.789
 5902POPC   C1A73947  28.558  27.467   6.109
 5902POPC   D2A73948  28.711  27.566   6.542
 5902POPC   C3A73949  28.447  27.910   6.737
 5902POPC   C4A73950  28.121  28.040   7.064
 5902POPC   C1B73951  28.070  27.320   6.260
 5902POPC   C2B73952  28.174  27.474   6.709
 5902POPC   C3B73953  28.285  27.537   7.154
 5902POPC   C4B73954  28.132  27.307   7.536
 5903POPC   NC373955  13.037   1.862   5.463
 5903POPC   PO473956  12.566   2.322   5.435
 5903POPC   GL173957  12.862   2.249   5.834
 5903POPC   GL273958  13.244   2.114   5.878
 5903POPC   C1A73959  12.960   2.265   6.296
 5903POPC   D2A73960  13.280   2.077   6.556
 5903POPC   C3A73961  13.095   2.003   6.975
 5903POPC   C4A73962  12.724   2.195   7.187
 5903POPC   C1B73963  12.998   1.806   6.132
 5903POPC   C2B73964  12.843   1.793   6.556
 5903POPC   C3B73965  12.903   1.544   6.942
 5903POPC   C4B73966  12.918   1.680   7.366
 5904POPC   NC373967   1.556  16.746   5.535
 5904POPC   PO473968   1.015  16.285   5.549
 5904POPC   GL173969   1.039  16.755   5.688
 5904POPC   GL273970   0.980  16.613   5.978
 5904POPC   C1A73971   1.225  17.093   6.007
 5904POPC   D2A73972   1.473  17.053   6.403
 5904POPC   C3A73973   1.250  16.931   6.807
 5904POPC   C4A73974   1.202  17.043   7.256
 5904POPC   C1B73975   0.782  16.396   6.293
 5904POPC   C2B73976   1.016  16.384   6.650
 5904POPC   C3B73977   1.259  16.426   6.986
 5904POPC   C4B73978   1.542  16.654   7.185
 5905POPC   NC373979  12.504  21.059   5.234
 5905POPC   PO473980  11.976  20.664   5.471
 5905POPC   GL173981  12.213  20.716   5.836
 5905POPC   GL273982  12.118  20.454   5.978
 5905POPC   C1A73983  12.113  20.905   6.276
 5905POPC   D2A73984  12.099  20.770   6.723
 5905POPC   C3A73985  11.965  20.965   7.111
 5905POPC   C4A73986  12.229  20.844   7.406
 5905POPC   C1B73987  11.768  20.517   6.246
 5905POPC   C2B73988  11.789  20.359   6.681
 5905POPC   C3B73989  11.788  20.492   7.128
 5905POPC   C4B73990  11.728  20.459   7.619
 5906POPC   NC373991  39.520  27.568   5.469
 5906POPC   PO473992  40.003  27.983   5.262
 5906POPC   GL173993  40.022  27.702   5.610
 5906POPC   GL273994  39.801  27.617   5.895
 5906POPC   C1A73995  40.287  27.597   5.972
 5906POPC   D2A73996  40.127  27.435   6.361
 5906POPC   C3A73997  40.176  27.581   6.771
 5906POPC   C4A73998  40.058  27.550   7.187
 5906POPC   C1B73999  39.676  27.223   6.118
 5906POPC   C2B74000  39.521  27.196   6.504
 5906POPC   C3B74001  39.783  27.241   6.835
 5906POPC   C4B74002  39.634  27.252   7.206
 5907POPC   NC374003  11.692  24.350   5.461
 5907POPC   PO474004  12.226  24.149   5.146
 5907POPC   GL174005  12.192  24.180   5.633
 5907POPC   GL274006  12.184  24.524   5.717
 5907POPC   C1A74007  12.283  24.202   6.112
 5907POPC   D2A74008  12.357  24.463   6.535
 5907POPC   C3A74009  12.190  24.448   6.995
 5907POPC   C4A74010  11.817  24.267   7.254
 5907POPC   C1B74011  12.189  24.761   6.138
 5907POPC   C2B74012  11.953  24.803   6.565
 5907POPC   C3B74013  11.738  24.755   7.022
 5907POPC   C4B74014  11.696  24.711   7.509
 5908POPC   NC374015   8.208  11.814   5.505
 5908POPC   PO474016   7.934  12.483   5.390
 5908POPC   GL174017   7.955  12.222   5.785
 5908POPC   GL274018   8.321  12.185   5.873
 5908POPC   C1A74019   7.973  12.004   6.214
 5908POPC   D2A74020   8.254  11.743   6.511
 5908POPC   C3A74021   8.171  11.752   6.966
 5908POPC   C4A74022   8.009  12.077   7.228
 5908POPC   C1B74023   8.453  12.184   6.321
 5908POPC   C2B74024   8.587  12.227   6.760
 5908POPC   C3B74025   8.550  12.098   7.206
 5908POPC   C4B74026   8.634  12.356   7.619
 5909POPC   NC374027  33.318   7.568   5.031
 5909POPC   PO474028  32.862   7.356   5.451
 5909POPC   GL174029  32.999   7.366   5.867
 5909POPC   GL274030  33.081   7.709   5.827
 5909POPC   C1A74031  33.331   7.422   6.178
 5909POPC   D2A74032  33.152   7.392   6.549
 5909POPC   C3A74033  33.139   7.196   6.906
 5909POPC   C4A74034  32.833   7.107   7.180
 5909POPC   C1B74035  33.087   7.887   6.195
 5909POPC   C2B74036  33.022   7.897   6.601
 5909POPC   C3B74037  33.197   7.727   6.933
 5909POPC   C4B74038  33.092   7.513   7.292
 5910POPC   NC374039  10.969  16.332   5.030
 5910POPC   PO474040  10.597  15.927   5.455
 5910POPC   GL174041  10.419  15.819   5.810
 5910POPC   GL274042  10.692  16.010   5.951
 5910POPC   C1A74043  10.275  15.813   6.229
 5910POPC   D2A74044  10.385  15.905   6.663
 5910POPC   C3A74045  10.162  15.768   7.028
 5910POPC   C4A74046  10.293  15.565   7.403
 5910POPC   C1B74047  10.813  15.847   6.337
 5910POPC   C2B74048  10.872  15.802   6.767
 5910POPC   C3B74049  10.662  15.839   7.140
 5910POPC   C4B74050  10.765  15.752   7.568
 5911POPC   NC374051  36.175  27.301   5.693
 5911POPC   PO474052  36.229  26.725   5.344
 5911POPC   GL174053  36.224  26.690   5.770
 5911POPC   GL274054  36.495  26.874   5.836
 5911POPC   C1A74055  36.049  26.774   6.185
 5911POPC   D2A74056  35.928  26.952   6.614
 5911POPC   C3A74057  35.972  26.701   7.039
 5911POPC   C4A74058  35.832  26.431   7.448
 5911POPC   C1B74059  36.478  27.078   6.249
 5911POPC   C2B74060  36.328  27.298   6.630
 5911POPC   C3B74061  36.106  27.239   7.030
 5911POPC   C4B74062  36.290  27.141   7.435
 5912POPC   NC374063  22.663   7.967   4.974
 5912POPC   PO474064  22.423   8.398   5.487
 5912POPC   GL174065  22.310   8.096   5.780
 5912POPC   GL274066  21.954   8.103   5.752
 5912POPC   C1A74067  22.356   8.190   6.214
 5912POPC   D2A74068  22.065   8.188   6.536
 5912POPC   C3A74069  22.240   8.153   6.940
 5912POPC   C4A74070  21.929   8.192   7.270
 5912POPC   C1B74071  21.986   7.844   6.112
 5912POPC   C2B74072  21.923   7.664   6.518
 5912POPC   C3B74073  21.819   7.827   6.911
 5912POPC   C4B74074  21.664   7.716   7.312
 5913POPC   NC374075  26.179   5.806   5.421
 5913POPC   PO474076  25.651   5.484   5.088
 5913POPC   GL174077  25.688   5.511   5.609
 5913POPC   GL274078  25.647   5.859   5.776
 5913POPC   C1A74079  25.822   5.501   6.095
 5913POPC   D2A74080  26.061   5.578   6.513
 5913POPC   C3A74081  25.915   5.607   6.971
 5913POPC   C4A74082  26.036   5.586   7.427
 5913POPC   C1B74083  26.018   5.989   6.085
 5913POPC   C2B74084  26.215   6.066   6.511
 5913POPC   C3B74085  26.058   6.150   6.914
 5913POPC   C4B74086  26.154   6.196   7.320
 5914POPC   NC374087  32.242   5.337   5.749
 5914POPC   PO474088  32.006   4.820   5.402
 5914POPC   GL174089  31.980   4.790   5.833
 5914POPC   GL274090  32.333   4.816   5.914
 5914POPC   C1A74091  31.977   4.919   6.276
 5914POPC   D2A74092  32.176   5.227   6.555
 5914POPC   C3A74093  32.322   5.063   6.930
 5914POPC   C4A74094  32.172   5.040   7.355
 5914POPC   C1B74095  32.505   4.891   6.325
 5914POPC   C2B74096  32.675   4.742   6.716
 5914POPC   C3B74097  32.734   4.824   7.151
 5914POPC   C4B74098  32.637   5.234   7.290
 5915POPC   NC374099  17.276  25.713   5.428
 5915POPC   PO474100  17.289  25.043   5.515
 5915POPC   GL174101  17.610  25.266   5.741
 5915POPC   GL274102  17.761  25.590   5.675
 5915POPC   C1A74103  17.715  25.282   6.162
 5915POPC   D2A74104  17.892  25.140   6.549
 5915POPC   C3A74105  17.633  25.289   6.875
 5915POPC   C4A74106  17.610  25.108   7.267
 5915POPC   C1B74107  17.842  25.784   6.068
 5915POPC   C2B74108  17.699  25.677   6.497
 5915POPC   C3B74109  17.649  25.814   6.924
 5915POPC   C4B74110  17.403  25.628   7.254
 5916POPC   NC374111  23.214   4.236   5.492
 5916POPC   PO474112  22.606   3.893   5.401
 5916POPC   GL174113  22.618   4.212   5.753
 5916POPC   GL274114  22.650   4.572   5.643
 5916POPC   C1A74115  22.695   4.108   6.202
 5916POPC   D2A74116  22.923   3.954   6.577
 5916POPC   C3A74117  22.798   4.147   6.964
 5916POPC   C4A74118  22.877   3.981   7.360
 5916POPC   C1B74119  22.782   4.620   6.089
 5916POPC   C2B74120  23.095   4.413   6.379
 5916POPC   C3B74121  23.226   4.420   6.808
 5916POPC   C4B74122  23.155   4.401   7.278
 5917POPC   NC374123   0.260  12.025   5.401
 5917POPC   PO474124   0.937  12.164   5.296
 5917POPC   GL174125   0.760  11.984   5.721
 5917POPC   GL274126   0.494  12.209   5.828
 5917POPC   C1A74127   0.572  11.822   6.161
 5917POPC   D2A74128   0.185  11.725   6.452
 5917POPC   C3A74129   0.212  11.856   6.894
 5917POPC   C4A74130   0.616  11.980   7.107
 5917POPC   C1B74131   0.267  12.221   6.242
 5917POPC   C2B74132   0.476  12.179   6.615
 5917POPC   C3B74133   0.622  12.462   6.909
 5917POPC   C4B74134   0.807  12.448   7.295
 5918POPC   NC374135  15.440  11.833   5.352
 5918POPC   PO474136  14.948  12.243   5.357
 5918POPC   GL174137  15.215  12.158   5.716
 5918POPC   GL274138  15.508  12.351   5.757
 5918POPC   C1A74139  15.250  12.025   6.153
 5918POPC   D2A74140  14.949  11.897   6.486
 5918POPC   C3A74141  15.102  11.853   6.915
 5918POPC   C4A74142  15.566  11.930   6.983
 5918POPC   C1B74143  15.350  12.545   6.128
 5918POPC   C2B74144  15.229  12.417   6.527
 5918POPC   C3B74145  15.254  12.344   6.952
 5918POPC   C4B74146  15.312  12.194   7.352
 5919POPC   NC374147  35.227  12.258   5.418
 5919POPC   PO474148  35.103  11.640   5.634
 5919POPC   GL174149  35.382  11.685   5.994
 5919POPC   GL274150  35.342  12.017   5.911
 5919POPC   C1A74151  35.442  11.740   6.433
 5919POPC   D2A74152  35.110  11.957   6.671
 5919POPC   C3A74153  35.218  12.105   7.047
 5919POPC   C4A74154  35.419  11.748   7.195
 5919POPC   C1B74155  35.336  12.234   6.273
 5919POPC   C2B74156  35.669  12.217   6.565
 5919POPC   C3B74157  35.737  12.127   6.981
 5919POPC   C4B74158  35.626  12.194   7.422
 5920POPC   NC374159  42.563  21.649   5.454
 5920POPC   PO474160  42.153  22.099   5.133
 5920POPC   GL174161  42.094  22.032   5.676
 5920POPC   GL274162  42.248  22.301   5.859
 5920POPC   C1A74163  42.011  22.039   6.204
 5920POPC   D2A74164  42.257  21.962   6.645
 5920POPC   C3A74165  42.052  22.159   7.032
 5920POPC   C4A74166  42.085  22.613   7.127
 5920POPC   C1B74167  42.567  22.208   6.200
 5920POPC   C2B74168  42.751  22.305   6.580
 5920POPC   C3B74169  42.775  22.411   6.992
 5920POPC   C4B74170  42.522  22.156   7.220
 5921POPC   NC374171   0.068   1.077   5.527
 5921POPC   PO474172  44.690   1.486   5.158
 5921POPC   GL174173  44.762   1.479   5.683
 5921POPC   GL274174  44.700   1.150   5.867
 5921POPC   C1A74175  44.691   1.517   6.187
 5921POPC   D2A74176  44.919   1.223   6.434
 5921POPC   C3A74177   0.018   1.257   6.831
 5921POPC   C4A74178  44.735   1.178   7.135
 5921POPC   C1B74179  44.604   0.872   6.201
 5921POPC   C2B74180  44.729   0.684   6.572
 5921POPC   C3B74181  44.548   0.721   6.966
 5921POPC   C4B74182  44.668   0.685   7.352
 5922POPC   NC374183  14.575  20.555   5.324
 5922POPC   PO474184  13.852  20.536   5.294
 5922POPC   GL174185  14.201  20.448   5.659
 5922POPC   GL274186  14.425  20.765   5.767
 5922POPC   C1A74187  14.397  20.373   6.109
 5922POPC   D2A74188  14.496  20.681   6.454
 5922POPC   C3A74189  14.288  20.735   6.880
 5922POPC   C4A74190  14.336  20.439   7.211
 5922POPC   C1B74191  14.753  20.933   6.047
 5922POPC   C2B74192  15.004  20.902   6.425
 5922POPC   C3B74193  14.800  20.845   6.840
 5922POPC   C4B74194  14.616  20.944   7.233
 5923POPC   NC374195  20.344  38.613   5.458
 5923POPC   PO474196  20.851  38.782   5.114
 5923POPC   GL174197  20.793  38.557   5.686
 5923POPC   GL274198  20.593  38.256   5.755
 5923POPC   C1A74199  20.670  38.604   6.136
 5923POPC   D2A74200  20.548  38.442   6.533
 5923POPC   C3A74201  20.672  38.603   6.936
 5923POPC   C4A74202  20.432  38.701   7.311
 5923POPC   C1B74203  20.731  38.091   6.183
 5923POPC   C2B74204  20.564  37.913   6.545
 5923POPC   C3B74205  20.718  38.084   6.919
 5923POPC   C4B74206  20.634  38.225   7.318
 5924POPC   NC374207  40.570  23.562   5.249
 5924POPC   PO474208  41.198  23.562   5.519
 5924POPC   GL174209  40.922  23.710   5.886
 5924POPC   GL274210  40.529  23.669   5.854
 5924POPC   C1A74211  40.812  23.541   6.304
 5924POPC   D2A74212  41.015  23.571   6.694
 5924POPC   C3A74213  40.818  23.497   7.051
 5924POPC   C4A74214  40.747  23.824   7.276
 5924POPC   C1B74215  40.403  23.847   6.286
 5924POPC   C2B74216  40.532  23.819   6.749
 5924POPC   C3B74217  40.313  23.609   7.112
 5924POPC   C4B74218  40.400  23.639   7.594
 5925POPC   NC374219   0.835  11.284   5.386
 5925POPC   PO474220   1.376  11.022   5.205
 5925POPC   GL174221   1.220  11.077   5.689
 5925POPC   GL274222   1.030  11.396   5.830
 5925POPC   C1A74223   1.389  11.164   6.150
 5925POPC   D2A74224   1.567  11.327   6.558
 5925POPC   C3A74225   1.360  11.262   6.982
 5925POPC   C4A74226   1.493  11.024   7.356
 5925POPC   C1B74227   1.020  11.564   6.242
 5925POPC   C2B74228   1.155  11.635   6.661
 5925POPC   C3B74229   1.012  11.653   7.094
 5925POPC   C4B74230   0.995  11.756   7.541
 5926POPC   NC374231  41.405  41.643   5.165
 5926POPC   PO474232  41.964  41.380   5.191
 5926POPC   GL174233  41.662  41.404   5.532
 5926POPC   GL274234  41.687  41.745   5.638
 5926POPC   C1A74235  41.635  41.380   5.995
 5926POPC   D2A74236  41.664  41.485   6.450
 5926POPC   C3A74237  41.574  41.310   6.876
 5926POPC   C4A74238  41.737  41.350   7.301
 5926POPC   C1B74239  41.728  41.901   6.060
 5926POPC   C2B74240  41.597  42.008   6.481
 5926POPC   C3B74241  41.505  41.812   6.837
 5926POPC   C4B74242  41.555  41.872   7.256
 5927POPC   NC374243  43.628  33.082   5.457
 5927POPC   PO474244  44.166  32.706   5.462
 5927POPC   GL174245  43.981  32.956   5.833
 5927POPC   GL274246  43.961  33.327   5.855
 5927POPC   C1A74247  43.826  33.071   6.282
 5927POPC   D2A74248  43.664  33.178   6.727
 5927POPC   C3A74249  43.843  33.090   7.147
 5927POPC   C4A74250  44.004  32.820   7.465
 5927POPC   C1B74251  44.235  33.427   6.198
 5927POPC   C2B74252  44.338  33.621   6.604
 5927POPC   C3B74253  44.088  33.476   6.938
 5927POPC   C4B74254  43.819  33.602   7.290
 5928POPC   NC374255  34.130   8.642   5.540
 5928POPC   PO474256  33.423   8.639   5.418
 5928POPC   GL174257  33.506   8.906   5.797
 5928POPC   GL274258  33.875   9.019   5.811
 5928POPC   C1A74259  33.605   8.838   6.216
 5928POPC   D2A74260  33.671   8.574   6.540
 5928POPC   C3A74261  33.401   8.677   6.885
 5928POPC   C4A74262  33.607   8.856   7.242
 5928POPC   C1B74263  34.161   8.865   6.176
 5928POPC   C2B74264  34.312   8.791   6.631
 5928POPC   C3B74265  34.087   8.866   7.042
 5928POPC   C4B74266  34.166   9.255   7.296
 5929POPC   NC374267  43.552  41.126   5.589
 5929POPC   PO474268  43.363  40.582   5.241
 5929POPC   GL174269  43.302  40.619   5.681
 5929POPC   GL274270  43.577  40.439   5.796
 5929POPC   C1A74271  43.034  40.769   6.060
 5929POPC   D2A74272  43.119  40.635   6.508
 5929POPC   C3A74273  42.964  40.838   6.893
 5929POPC   C4A74274  43.028  40.677   7.302
 5929POPC   C1B74275  43.516  40.681   6.172
 5929POPC   C2B74276  43.621  40.836   6.590
 5929POPC   C3B74277  43.461  40.775   7.004
 5929POPC   C4B74278  43.511  40.504   7.345
 5930POPC   NC374279  20.136  43.481   5.387
 5930POPC   PO474280  20.755  43.729   5.335
 5930POPC   GL174281  20.678  43.862   5.742
 5930POPC   GL274282  20.958  43.767   5.877
 5930POPC   C1A74283  20.537  43.788   6.181
 5930POPC   D2A74284  20.710  43.701   6.596
 5930POPC   C3A74285  20.622  43.986   6.937
 5930POPC   C4A74286  20.354  44.051   7.286
 5930POPC   C1B74287  20.860  44.185   6.116
 5930POPC   C2B74288  20.767  44.348   6.538
 5930POPC   C3B74289  21.008  44.307   6.942
 5930POPC   C4B74290  20.721  44.422   7.270
 5931POPC   NC374291  16.568  21.423   5.414
 5931POPC   PO474292  17.160  21.603   5.517
 5931POPC   GL174293  16.907  21.387   5.846
 5931POPC   GL274294  16.617  21.575   5.892
 5931POPC   C1A74295  16.808  21.072   6.186
 5931POPC   D2A74296  16.997  20.987   6.577
 5931POPC   C3A74297  16.968  21.333   6.840
 5931POPC   C4A74298  16.678  21.164   7.125
 5931POPC   C1B74299  16.396  21.377   6.221
 5931POPC   C2B74300  16.458  21.258   6.630
 5931POPC   C3B74301  16.536  21.590   6.896
 5931POPC   C4B74302  16.729  21.652   7.258
 5932POPC   NC374303   2.514  40.868   5.523
 5932POPC   PO474304   1.762  40.751   5.392
 5932POPC   GL174305   2.058  40.612   5.692
 5932POPC   GL274306   2.091  40.941   5.778
 5932POPC   C1A74307   2.042  40.576   6.157
 5932POPC   D2A74308   1.792  40.599   6.541
 5932POPC   C3A74309   1.945  40.503   6.976
 5932POPC   C4A74310   1.832  40.524   7.453
 5932POPC   C1B74311   2.091  41.154   6.138
 5932POPC   C2B74312   2.005  41.074   6.529
 5932POPC   C3B74313   2.234  41.046   6.866
 5932POPC   C4B74314   2.024  40.952   7.230
 5933POPC   NC374315   7.785  18.501   5.214
 5933POPC   PO474316   7.314  18.096   5.542
 5933POPC   GL174317   7.267  18.309   5.916
 5933POPC   GL274318   7.425  18.619   5.787
 5933POPC   C1A74319   7.378  18.123   6.315
 5933POPC   D2A74320   7.614  18.054   6.701
 5933POPC   C3A74321   7.453  18.046   7.127
 5933POPC   C4A74322   7.764  18.290   7.343
 5933POPC   C1B74323   7.568  18.609   6.225
 5933POPC   C2B74324   7.404  18.549   6.619
 5933POPC   C3B74325   7.348  18.533   7.030
 5933POPC   C4B74326   7.102  18.822   7.255
 5934POPC   NC374327  15.130   0.795   5.345
 5934POPC   PO474328  15.411   0.173   5.427
 5934POPC   GL174329  15.161   0.428   5.753
 5934POPC   GL274330  15.315   0.771   5.816
 5934POPC   C1A74331  14.953   0.249   6.134
 5934POPC   D2A74332  15.124   0.114   6.538
 5934POPC   C3A74333  14.977   0.209   6.941
 5934POPC   C4A74334  15.006   0.380   7.336
 5934POPC   C1B74335  14.978   0.761   6.121
 5934POPC   C2B74336  14.960   0.594   6.553
 5934POPC   C3B74337  15.163   0.695   6.943
 5934POPC   C4B74338  14.954   0.906   7.236
 5935POPC   NC374339   4.935  26.112   5.386
 5935POPC   PO474340   5.485  25.807   5.324
 5935POPC   GL174341   5.341  26.040   5.733
 5935POPC   GL274342   5.015  25.937   5.841
 5935POPC   C1A74343   5.269  26.208   6.195
 5935POPC   D2A74344   5.038  26.386   6.569
 5935POPC   C3A74345   4.974  26.085   6.918
 5935POPC   C4A74346   4.646  26.098   7.239
 5935POPC   C1B74347   5.234  25.699   6.141
 5935POPC   C2B74348   5.066  25.665   6.546
 5935POPC   C3B74349   5.082  25.550   6.961
 5935POPC   C4B74350   4.970  25.727   7.301
 5936POPC   NC374351   1.290   3.656   5.055
 5936POPC   PO474352   0.901   3.562   5.579
 5936POPC   GL174353   1.155   3.637   5.908
 5936POPC   GL274354   1.376   3.336   6.009
 5936POPC   C1A74355   1.172   3.721   6.317
 5936POPC   D2A74356   1.365   3.545   6.629
 5936POPC   C3A74357   1.248   3.744   6.974
 5936POPC   C4A74358   1.231   3.689   7.421
 5936POPC   C1B74359   1.403   3.095   6.370
 5936POPC   C2B74360   1.028   3.172   6.592
 5936POPC   C3B74361   1.019   3.279   7.028
 5936POPC   C4B74362   0.752   3.024   7.297
 5937POPC   NC374363  26.035  19.494   5.428
 5937POPC   PO474364  25.732  18.863   5.481
 5937POPC   GL174365  25.985  19.063   5.763
 5937POPC   GL274366  26.348  18.964   5.691
 5937POPC   C1A74367  25.862  19.023   6.185
 5937POPC   D2A74368  25.710  18.791   6.550
 5937POPC   C3A74369  25.775  18.980   6.984
 5937POPC   C4A74370  25.996  19.146   7.337
 5937POPC   C1B74371  26.371  19.131   6.130
 5937POPC   C2B74372  26.195  19.031   6.568
 5937POPC   C3B74373  26.347  19.013   6.979
 5937POPC   C4B74374  26.426  19.379   7.231
 5938POPC   NC374375  41.423  15.044   5.560
 5938POPC   PO474376  41.775  15.600   5.462
 5938POPC   GL174377  41.725  15.368   5.848
 5938POPC   GL274378  41.379  15.346   5.969
 5938POPC   C1A74379  41.862  15.167   6.238
 5938POPC   D2A74380  42.012  15.164   6.668
 5938POPC   C3A74381  41.772  15.006   6.985
 5938POPC   C4A74382  41.734  15.204   7.319
 5938POPC   C1B74383  41.351  15.006   6.281
 5938POPC   C2B74384  41.326  14.936   6.733
 5938POPC   C3B74385  41.190  14.985   7.176
 5938POPC   C4B74386  41.249  15.281   7.552
 5939POPC   NC374387  38.545  19.064   5.414
 5939POPC   PO474388  38.122  19.530   5.503
 5939POPC   GL174389  38.349  19.297   5.858
 5939POPC   GL274390  38.434  18.912   5.880
 5939POPC   C1A74391  38.696  19.227   6.183
 5939POPC   D2A74392  38.642  18.905   6.508
 5939POPC   C3A74393  38.379  19.078   6.828
 5939POPC   C4A74394  38.503  19.123   7.224
 5939POPC   C1B74395  38.177  18.830   6.241
 5939POPC   C2B74396  38.206  18.638   6.643
 5939POPC   C3B74397  38.334  18.621   7.091
 5939POPC   C4B74398  38.163  18.791   7.441
 5940POPC   NC374399  44.292  33.470   5.497
 5940POPC   PO474400  44.735  33.907   5.222
 5940POPC   GL174401  44.658  33.923   5.672
 5940POPC   GL274402  44.584  33.632   5.891
 5940POPC   C1A74403  44.764  34.049   6.109
 5940POPC   D2A74404  44.573  34.080   6.512
 5940POPC   C3A74405  44.743  33.879   6.837
 5940POPC   C4A74406  44.761  34.071   7.203
 5940POPC   C1B74407  44.998  33.581   6.080
 5940POPC   C2B74408   0.017  33.470   6.514
 5940POPC   C3B74409   0.112  33.512   6.932
 5940POPC   C4B74410  44.811  33.539   7.235
 5941POPC   NC374411  14.856   3.814   5.603
 5941POPC   PO474412  14.344   3.396   5.462
 5941POPC   GL174413  14.520   3.450   5.850
 5941POPC   GL274414  14.441   3.784   5.937
 5941POPC   C1A74415  14.483   3.412   6.290
 5941POPC   D2A74416  14.276   3.680   6.580
 5941POPC   C3A74417  14.195   3.532   7.004
 5941POPC   C4A74418  14.131   3.761   7.394
 5941POPC   C1B74419  14.772   3.848   6.273
 5941POPC   C2B74420  14.685   3.976   6.701
 5941POPC   C3B74421  14.666   3.729   7.079
 5941POPC   C4B74422  14.658   3.760   7.512
 5942POPC   NC374423  43.908   9.486   5.394
 5942POPC   PO474424  44.406   9.946   5.560
 5942POPC   GL174425  44.160   9.756   5.809
 5942POPC   GL274426  43.852   9.844   5.771
 5942POPC   C1A74427  44.155   9.587   6.216
 5942POPC   D2A74428  44.188   9.432   6.612
 5942POPC   C3A74429  44.034   9.715   6.918
 5942POPC   C4A74430  44.167   9.727   7.305
 5942POPC   C1B74431  43.652   9.690   6.132
 5942POPC   C2B74432  43.696   9.629   6.546
 5942POPC   C3B74433  43.572   9.451   6.918
 5942POPC   C4B74434  43.684   9.473   7.326
 5943POPC   NC374435  35.987   7.546   5.132
 5943POPC   PO474436  36.139   6.964   5.452
 5943POPC   GL174437  36.028   7.324   5.666
 5943POPC   GL274438  36.370   7.398   5.750
 5943POPC   C1A74439  35.974   7.613   6.016
 5943POPC   D2A74440  36.194   7.619   6.403
 5943POPC   C3A74441  36.082   7.511   6.825
 5943POPC   C4A74442  36.330   7.511   7.230
 5943POPC   C1B74443  36.275   7.180   6.141
 5943POPC   C2B74444  36.088   7.073   6.553
 5943POPC   C3B74445  36.206   7.029   6.995
 5943POPC   C4B74446  36.102   7.030   7.425
 5944POPC   NC374447  37.605  18.746   5.426
 5944POPC   PO474448  37.465  18.113   5.207
 5944POPC   GL174449  37.666  18.259   5.620
 5944POPC   GL274450  37.425  18.397   5.831
 5944POPC   C1A74451  37.867  18.261   6.077
 5944POPC   D2A74452  37.758  18.176   6.523
 5944POPC   C3A74453  38.029  18.231   6.885
 5944POPC   C4A74454  37.982  18.294   7.326
 5944POPC   C1B74455  37.302  18.442   6.282
 5944POPC   C2B74456  37.246  18.460   6.735
 5944POPC   C3B74457  37.488  18.356   7.093
 5944POPC   C4B74458  37.485  18.347   7.525
 5945POPC   NC374459   1.033  19.296   5.545
 5945POPC   PO474460   1.279  18.659   5.545
 5945POPC   GL174461   1.314  18.947   5.881
 5945POPC   GL274462   0.955  18.918   5.890
 5945POPC   C1A74463   1.213  18.983   6.340
 5945POPC   D2A74464   1.490  18.994   6.696
 5945POPC   C3A74465   1.402  19.307   6.992
 5945POPC   C4A74466   1.121  19.371   7.324
 5945POPC   C1B74467   0.806  18.607   6.170
 5945POPC   C2B74468   0.806  18.675   6.595
 5945POPC   C3B74469   1.105  18.657   6.900
 5945POPC   C4B74470   1.060  18.846   7.284
 5946POPC   NC374471  43.177   8.362   5.222
 5946POPC   PO474472  43.289   7.736   5.438
 5946POPC   GL174473  43.359   8.026   5.783
 5946POPC   GL274474  43.341   8.406   5.714
 5946POPC   C1A74475  43.233   8.200   6.206
 5946POPC   D2A74476  43.089   8.271   6.654
 5946POPC   C3A74477  43.147   8.098   7.078
 5946POPC   C4A74478  43.021   8.260   7.496
 5946POPC   C1B74479  43.423   8.673   6.095
 5946POPC   C2B74480  43.541   8.532   6.519
 5946POPC   C3B74481  43.370   8.602   6.953
 5946POPC   C4B74482  43.456   8.524   7.404
 5947POPC   NC374483   2.972  32.646   5.618
 5947POPC   PO474484   2.585  32.165   5.562
 5947POPC   GL174485   2.782  32.210   5.917
 5947POPC   GL274486   2.559  32.099   6.192
 5947POPC   C1A74487   2.928  32.444   6.270
 5947POPC   D2A74488   3.181  32.337   6.642
 5947POPC   C3A74489   2.992  32.542   6.971
 5947POPC   C4A74490   2.600  32.569   7.223
 5947POPC   C1B74491   2.952  31.930   6.331
 5947POPC   C2B74492   3.103  31.802   6.732
 5947POPC   C3B74493   2.845  32.039   7.034
 5947POPC   C4B74494   2.492  32.033   7.319
 5948POPC   NC374495  43.630  39.166   5.372
 5948POPC   PO474496  43.021  39.021   5.396
 5948POPC   GL174497  42.931  39.208   5.806
 5948POPC   GL274498  43.217  39.404   5.779
 5948POPC   C1A74499  42.977  39.341   6.235
 5948POPC   D2A74500  43.138  39.147   6.601
 5948POPC   C3A74501  43.034  39.371   6.910
 5948POPC   C4A74502  43.005  39.200   7.237
 5948POPC   C1B74503  43.464  39.226   6.174
 5948POPC   C2B74504  43.631  39.156   6.592
 5948POPC   C3B74505  43.481  39.176   7.027
 5948POPC   C4B74506  43.443  39.162   7.492
 5949POPC   NC374507  29.116  22.677   5.312
 5949POPC   PO474508  29.346  23.305   5.442
 5949POPC   GL174509  29.173  22.989   5.724
 5949POPC   GL274510  28.847  23.088   5.776
 5949POPC   C1A74511  29.125  22.833   6.165
 5949POPC   D2A74512  29.305  22.849   6.603
 5949POPC   C3A74513  29.040  22.794   6.977
 5949POPC   C4A74514  29.156  22.881   7.385
 5949POPC   C1B74515  28.758  23.260   6.179
 5949POPC   C2B74516  28.844  23.118   6.616
 5949POPC   C3B74517  28.853  23.255   7.075
 5949POPC   C4B74518  28.825  23.242   7.531
 5950POPC   NC374519  32.855   1.733   5.390
 5950POPC   PO474520  33.258   2.223   5.417
 5950POPC   GL174521  33.025   2.119   5.775
 5950POPC   GL274522  32.928   1.787   5.896
 5950POPC   C1A74523  32.939   2.227   6.201
 5950POPC   D2A74524  33.032   2.000   6.581
 5950POPC   C3A74525  33.184   2.110   6.992
 5950POPC   C4A74526  33.195   1.811   7.348
 5950POPC   C1B74527  32.643   1.785   6.247
 5950POPC   C2B74528  32.540   1.961   6.650
 5950POPC   C3B74529  32.711   1.932   7.062
 5950POPC   C4B74530  32.736   1.546   7.283
 5951POPC   NC374531  10.883  20.551   5.240
 5951POPC   PO474532  10.254  20.734   5.499
 5951POPC   GL174533  10.440  20.576   5.865
 5951POPC   GL274534  10.769  20.410   5.821
 5951POPC   C1A74535  10.677  20.735   6.222
 5951POPC   D2A74536  10.640  20.549   6.621
 5951POPC   C3A74537  10.610  20.714   7.025
 5951POPC   C4A74538  10.601  20.461   7.434
 5951POPC   C1B74539  10.987  20.309   6.222
 5951POPC   C2B74540  10.870  20.082   6.612
 5951POPC   C3B74541  10.824  20.229   7.040
 5951POPC   C4B74542  11.043  20.593   7.246
 5952POPC   NC374543  29.152   1.030   5.628
 5952POPC   PO474544  29.389   1.496   5.277
 5952POPC   GL174545  29.138   1.586   5.684
 5952POPC   GL274546  28.818   1.383   5.787
 5952POPC   C1A74547  29.177   1.480   6.139
 5952POPC   D2A74548  29.058   1.283   6.520
 5952POPC   C3A74549  29.305   1.309   6.881
 5952POPC   C4A74550  29.204   1.193   7.270
 5952POPC   C1B74551  28.719   1.087   6.189
 5952POPC   C2B74552  28.772   0.859   6.603
 5952POPC   C3B74553  28.970   0.828   6.990
 5952POPC   C4B74554  28.760   0.958   7.335
 5953POPC   NC374555  34.164  38.096   5.679
 5953POPC   PO474556  33.762  37.563   5.431
 5953POPC   GL174557  33.832  37.586   5.843
 5953POPC   GL274558  34.177  37.514   5.777
 5953POPC   C1A74559  33.695  37.755   6.273
 5953POPC   D2A74560  33.730  37.990   6.662
 5953POPC   C3A74561  33.560  37.801   7.044
 5953POPC   C4A74562  33.675  37.435   7.320
 5953POPC   C1B74563  34.177  37.644   6.214
 5953POPC   C2B74564  34.291  37.512   6.627
 5953POPC   C3B74565  34.086  37.601   7.006
 5953POPC   C4B74566  34.275  37.333   7.282
 5954POPC   NC374567  41.912  11.176   5.614
 5954POPC   PO474568  41.399  11.480   5.278
 5954POPC   GL174569  41.474  11.422   5.725
 5954POPC   GL274570  41.749  11.644   5.722
 5954POPC   C1A74571  41.463  11.216   6.162
 5954POPC   D2A74572  41.466  11.033   6.604
 5954POPC   C3A74573  41.489  11.259   7.007
 5954POPC   C4A74574  41.112  11.487   7.126
 5954POPC   C1B74575  41.729  11.663   6.159
 5954POPC   C2B74576  41.485  11.583   6.541
 5954POPC   C3B74577  41.499  11.784   6.938
 5954POPC   C4B74578  41.820  11.618   7.210
 5955POPC   NC374579  14.564   5.496   5.499
 5955POPC   PO474580  14.436   4.865   5.323
 5955POPC   GL174581  14.364   5.096   5.769
 5955POPC   GL274582  14.087   5.371   5.773
 5955POPC   C1A74583  14.434   4.980   6.240
 5955POPC   D2A74584  14.372   4.638   6.584
 5955POPC   C3A74585  14.527   4.726   7.004
 5955POPC   C4A74586  14.588   5.155   7.074
 5955POPC   C1B74587  13.937   5.060   6.092
 5955POPC   C2B74588  13.872   5.059   6.540
 5955POPC   C3B74589  14.075   5.259   6.900
 5955POPC   C4B74590  14.139   4.983   7.245
 5956POPC   NC374591  36.150  41.145   5.657
 5956POPC   PO474592  36.094  40.617   5.367
 5956POPC   GL174593  35.919  40.689   5.783
 5956POPC   GL274594  35.739  40.386   5.823
 5956POPC   C1A74595  36.059  40.842   6.253
 5956POPC   D2A74596  36.258  40.797   6.679
 5956POPC   C3A74597  36.176  41.048   7.066
 5956POPC   C4A74598  36.373  40.965   7.459
 5956POPC   C1B74599  35.984  40.341   6.185
 5956POPC   C2B74600  35.827  40.465   6.571
 5956POPC   C3B74601  35.873  40.602   6.976
 5956POPC   C4B74602  36.269  40.557   7.171
 5957POPC   NC374603  17.421  31.716   5.285
 5957POPC   PO474604  17.644  31.167   5.314
 5957POPC   GL174605  17.340  31.357   5.665
 5957POPC   GL274606  17.332  31.741   5.780
 5957POPC   C1A74607  17.411  31.374   6.124
 5957POPC   D2A74608  17.693  31.535   6.437
 5957POPC   C3A74609  17.584  31.485   6.856
 5957POPC   C4A74610  17.723  31.529   7.262
 5957POPC   C1B74611  17.109  31.808   6.160
 5957POPC   C2B74612  17.166  31.561   6.548
 5957POPC   C3B74613  17.089  31.681   6.976
 5957POPC   C4B74614  17.188  31.641   7.410
 5958POPC   NC374615  42.075  24.430   5.213
 5958POPC   PO474616  42.647  24.668   5.496
 5958POPC   GL174617  42.442  24.423   5.787
 5958POPC   GL274618  42.082  24.416   5.725
 5958POPC   C1A74619  42.333  24.594   6.199
 5958POPC   D2A74620  42.563  24.627   6.585
 5958POPC   C3A74621  42.311  24.599   6.946
 5958POPC   C4A74622  42.504  24.546   7.334
 5958POPC   C1B74623  42.024  24.185   6.117
 5958POPC   C2B74624  42.099  24.304   6.558
 5958POPC   C3B74625  41.962  24.085   6.926
 5958POPC   C4B74626  42.061  24.188   7.332
 5959POPC   NC374627  25.498   3.263   5.577
 5959POPC   PO474628  25.004   2.924   5.143
 5959POPC   GL174629  25.264   2.783   5.541
 5959POPC   GL274630  25.597   2.764   5.689
 5959POPC   C1A74631  25.159   2.735   6.004
 5959POPC   D2A74632  25.117   2.840   6.459
 5959POPC   C3A74633  25.266   2.564   6.793
 5959POPC   C4A74634  25.463   2.571   7.182
 5959POPC   C1B74635  25.596   2.964   6.130
 5959POPC   C2B74636  25.719   3.022   6.555
 5959POPC   C3B74637  25.489   3.050   6.930
 5959POPC   C4B74638  25.584   3.043   7.379
 5960POPC   NC374639  24.633  16.311   5.498
 5960POPC   PO474640  24.174  15.837   5.464
 5960POPC   GL174641  24.232  16.153   5.795
 5960POPC   GL274642  24.562  16.017   5.930
 5960POPC   C1A74643  24.283  16.370   6.206
 5960POPC   D2A74644  24.441  16.128   6.571
 5960POPC   C3A74645  24.231  15.858   6.866
 5960POPC   C4A74646  24.205  15.931   7.302
 5960POPC   C1B74647  24.822  16.252   6.241
 5960POPC   C2B74648  24.872  16.352   6.701
 5960POPC   C3B74649  24.686  16.150   7.093
 5960POPC   C4B74650  24.769  16.151   7.541
 5961POPC   NC374651  37.117   5.295   5.430
 5961POPC   PO474652  36.623   4.716   5.533
 5961POPC   GL174653  36.742   5.095   5.729
 5961POPC   GL274654  36.485   5.356   5.700
 5961POPC   C1A74655  36.972   5.282   6.084
 5961POPC   D2A74656  37.184   5.221   6.493
 5961POPC   C3A74657  37.013   5.358   6.881
 5961POPC   C4A74658  37.133   5.156   7.272
 5961POPC   C1B74659  36.449   5.197   6.128
 5961POPC   C2B74660  36.661   5.303   6.503
 5961POPC   C3B74661  36.501   5.307   6.892
 5961POPC   C4B74662  36.416   5.092   7.265
 5962POPC   NC374663  27.146  41.097   5.508
 5962POPC   PO474664  26.897  41.617   5.251
 5962POPC   GL174665  26.963  41.616   5.791
 5962POPC   GL274666  26.673  41.832   5.981
 5962POPC   C1A74667  26.900  41.345   6.160
 5962POPC   D2A74668  26.559  41.193   6.410
 5962POPC   C3A74669  26.749  41.265   6.780
 5962POPC   C4A74670  27.023  41.392   7.106
 5962POPC   C1B74671  26.571  41.700   6.380
 5962POPC   C2B74672  26.779  41.758   6.750
 5962POPC   C3B74673  26.532  41.670   7.083
 5962POPC   C4B74674  26.391  41.950   7.420
 5963POPC   NC374675  14.615  21.541   5.251
 5963POPC   PO474676  15.305  21.463   5.250
 5963POPC   GL174677  15.304  21.335   5.701
 5963POPC   GL274678  15.021  21.205   5.686
 5963POPC   C1A74679  15.435  21.293   6.151
 5963POPC   D2A74680  15.523  21.594   6.508
 5963POPC   C3A74681  15.530  21.386   6.933
 5963POPC   C4A74682  15.415  21.459   7.376
 5963POPC   C1B74683  14.941  21.393   6.150
 5963POPC   C2B74684  15.077  21.376   6.619
 5963POPC   C3B74685  15.026  21.255   7.058
 5963POPC   C4B74686  14.975  21.169   7.515
 5964POPC   NC374687  24.549  29.856   5.388
 5964POPC   PO474688  24.616  30.495   5.503
 5964POPC   GL174689  24.695  30.148   5.807
 5964POPC   GL274690  24.824  29.813   5.833
 5964POPC   C1A74691  24.529  29.958   6.217
 5964POPC   D2A74692  24.326  29.891   6.617
 5964POPC   C3A74693  24.604  30.005   6.994
 5964POPC   C4A74694  24.449  30.190   7.390
 5964POPC   C1B74695  24.937  29.636   6.228
 5964POPC   C2B74696  24.770  29.646   6.633
 5964POPC   C3B74697  24.795  29.505   7.053
 5964POPC   C4B74698  24.685  29.724   7.439
 5965POPC   NC374699   1.424   8.906   5.224
 5965POPC   PO474700   0.902   9.241   5.505
 5965POPC   GL174701   1.095   8.995   5.815
 5965POPC   GL274702   1.429   8.871   5.761
 5965POPC   C1A74703   1.193   8.823   6.205
 5965POPC   D2A74704   0.987   8.880   6.562
 5965POPC   C3A74705   1.186   8.858   6.947
 5965POPC   C4A74706   1.100   8.689   7.317
 5965POPC   C1B74707   1.566   9.153   6.120
 5965POPC   C2B74708   1.507   9.079   6.550
 5965POPC   C3B74709   1.572   9.219   6.954
 5965POPC   C4B74710   1.472   9.068   7.356
 5966POPC   NC374711  44.443  12.602   5.387
 5966POPC   PO474712   0.079  12.669   5.201
 5966POPC   GL174713  44.799  12.719   5.686
 5966POPC   GL274714  44.776  13.036   5.860
 5966POPC   C1A74715  44.747  12.594   6.136
 5966POPC   D2A74716  44.792  12.737   6.549
 5966POPC   C3A74717  44.553  12.586   6.870
 5966POPC   C4A74718  44.668  12.616   7.288
 5966POPC   C1B74719   0.023  13.092   6.240
 5966POPC   C2B74720  44.946  13.217   6.650
 5966POPC   C3B74721  44.802  13.025   7.005
 5966POPC   C4B74722  44.613  13.110   7.397
 5967POPC   NC374723  15.878   2.279   5.218
 5967POPC   PO474724  15.250   2.028   5.348
 5967POPC   GL174725  15.145   2.134   5.777
 5967POPC   GL274726  15.486   2.165   5.873
 5967POPC   C1A74727  15.004   2.015   6.195
 5967POPC   D2A74728  15.174   2.033   6.589
 5967POPC   C3A74729  14.944   1.933   6.917
 5967POPC   C4A74730  14.831   1.963   7.326
 5967POPC   C1B74731  15.387   1.723   6.037
 5967POPC   C2B74732  15.275   1.544   6.459
 5967POPC   C3B74733  15.380   1.622   6.894
 5967POPC   C4B74734  15.348   1.898   7.246
 5968POPC   NC374735  16.186  27.662   5.614
 5968POPC   PO474736  15.539  27.880   5.538
 5968POPC   GL174737  15.740  27.625   5.858
 5968POPC   GL274738  15.994  27.805   6.040
 5968POPC   C1A74739  15.843  27.339   6.211
 5968POPC   D2A74740  15.835  27.225   6.657
 5968POPC   C3A74741  15.942  27.563   6.966
 5968POPC   C4A74742  16.303  27.809   7.150
 5968POPC   C1B74743  15.694  28.040   6.186
 5968POPC   C2B74744  15.696  27.880   6.571
 5968POPC   C3B74745  15.520  27.894   6.930
 5968POPC   C4B74746  15.804  28.001   7.223
 5969POPC   NC374747  25.328  18.818   5.260
 5969POPC   PO474748  24.810  19.191   5.276
 5969POPC   GL174749  25.111  19.072   5.644
 5969POPC   GL274750  25.430  19.263   5.641
 5969POPC   C1A74751  25.347  18.970   6.053
 5969POPC   D2A74752  25.236  19.024   6.498
 5969POPC   C3A74753  25.308  18.780   6.869
 5969POPC   C4A74754  25.151  19.038   7.158
 5969POPC   C1B74755  25.581  19.446   6.035
 5969POPC   C2B74756  25.623  19.380   6.477
 5969POPC   C3B74757  25.443  19.370   6.873
 5969POPC   C4B74758  25.578  19.414   7.266
 5970POPC   NC374759  38.982  26.483   5.487
 5970POPC   PO474760  39.267  27.160   5.341
 5970POPC   GL174761  39.299  27.215   5.793
 5970POPC   GL274762  39.078  26.910   5.854
 5970POPC   C1A74763  39.097  27.280   6.207
 5970POPC   D2A74764  38.975  26.987   6.546
 5970POPC   C3A74765  39.232  27.011   6.892
 5970POPC   C4A74766  39.121  26.969   7.303
 5970POPC   C1B74767  39.337  26.784   6.233
 5970POPC   C2B74768  39.245  26.526   6.616
 5970POPC   C3B74769  38.976  26.537   6.957
 5970POPC   C4B74770  39.010  26.469   7.379
 5971POPC   NC374771  22.653   2.532   5.446
 5971POPC   PO474772  23.081   3.059   5.330
 5971POPC   GL174773  22.915   2.861   5.721
 5971POPC   GL274774  22.586   3.033   5.719
 5971POPC   C1A74775  22.946   2.589   6.117
 5971POPC   D2A74776  23.242   2.591   6.478
 5971POPC   C3A74777  23.004   2.617   6.878
 5971POPC   C4A74778  23.124   2.417   7.271
 5971POPC   C1B74779  22.831   3.101   6.153
 5971POPC   C2B74780  23.058   3.055   6.569
 5971POPC   C3B74781  22.914   3.129   7.000
 5971POPC   C4B74782  22.867   2.857   7.354
 5972POPC   NC374783  40.713  42.873   5.417
 5972POPC   PO474784  40.525  42.197   5.447
 5972POPC   GL174785  40.830  42.332   5.793
 5972POPC   GL274786  41.180  42.152   5.875
 5972POPC   C1A74787  40.933  42.540   6.184
 5972POPC   D2A74788  40.818  42.704   6.590
 5972POPC   C3A74789  40.939  42.449   6.916
 5972POPC   C4A74790  40.636  42.211   7.145
 5972POPC   C1B74791  40.905  42.024   6.218
 5972POPC   C2B74792  41.067  42.032   6.633
 5972POPC   C3B74793  41.086  41.987   7.071
 5972POPC   C4B74794  41.079  41.938   7.501
 5973POPC   NC374795  34.485  25.502   5.414
 5973POPC   PO474796  35.055  25.664   5.314
 5973POPC   GL174797  34.933  25.368   5.713
 5973POPC   GL274798  34.670  25.083   5.729
 5973POPC   C1A74799  34.749  25.337   6.183
 5973POPC   D2A74800  34.723  25.214   6.669
 5973POPC   C3A74801  34.421  25.431   7.015
 5973POPC   C4A74802  34.317  25.282   7.460
 5973POPC   C1B74803  34.400  24.927   6.117
 5973POPC   C2B74804  34.305  24.774   6.551
 5973POPC   C3B74805  34.401  24.921   6.966
 5973POPC   C4B74806  34.732  25.075   7.216
 5974POPC   NC374807  20.821   2.706   5.617
 5974POPC   PO474808  21.411   2.678   5.269
 5974POPC   GL174809  21.433   2.675   5.752
 5974POPC   GL274810  21.138   2.585   5.995
 5974POPC   C1A74811  21.489   2.977   6.105
 5974POPC   D2A74812  21.608   3.017   6.552
 5974POPC   C3A74813  21.260   2.914   6.826
 5974POPC   C4A74814  21.344   2.947   7.235
 5974POPC   C1B74815  21.470   2.343   6.186
 5974POPC   C2B74816  21.608   2.482   6.576
 5974POPC   C3B74817  21.657   2.632   6.982
 5974POPC   C4B74818  21.602   2.516   7.409
 5975POPC   NC374819  18.799  44.170   5.462
 5975POPC   PO474820  19.026  43.531   5.381
 5975POPC   GL174821  19.163  43.676   5.791
 5975POPC   GL274822  19.093  44.026   5.860
 5975POPC   C1A74823  19.068  43.710   6.246
 5975POPC   D2A74824  19.131  44.007   6.560
 5975POPC   C3A74825  19.092  43.734   6.910
 5975POPC   C4A74826  18.985  43.658   7.333
 5975POPC   C1B74827  18.739  44.146   6.159
 5975POPC   C2B74828  18.647  44.315   6.594
 5975POPC   C3B74829  18.836  44.165   6.997
 5975POPC   C4B74830  18.904  44.154   7.455
 5976POPC   NC374831  15.366  29.651   5.368
 5976POPC   PO474832  15.032  30.152   5.113
 5976POPC   GL174833  15.270  30.186   5.550
 5976POPC   GL274834  15.178  29.903   5.749
 5976POPC   C1A74835  15.296  30.269   6.052
 5976POPC   D2A74836  15.176  30.039   6.444
 5976POPC   C3A74837  15.235  30.152   6.887
 5976POPC   C4A74838  15.265  29.995   7.302
 5976POPC   C1B74839  15.303  29.679   6.113
 5976POPC   C2B74840  15.494  29.650   6.528
 5976POPC   C3B74841  15.341  29.638   6.932
 5976POPC   C4B74842  15.576  29.434   7.220
 5977POPC   NC374843  30.883  15.669   5.397
 5977POPC   PO474844  30.430  16.176   5.538
 5977POPC   GL174845  30.542  16.017   5.929
 5977POPC   GL274846  30.734  15.758   5.877
 5977POPC   C1A74847  30.874  16.118   6.256
 5977POPC   D2A74848  30.955  16.155   6.708
 5977POPC   C3A74849  30.564  16.082   6.895
 5977POPC   C4A74850  30.321  16.159   7.232
 5977POPC   C1B74851  31.085  15.678   6.107
 5977POPC   C2B74852  31.067  15.560   6.519
 5977POPC   C3B74853  30.910  15.627   6.899
 5977POPC   C4B74854  30.978  15.944   7.188
 5978POPC   NC374855  14.675  34.709   5.384
 5978POPC   PO474856  14.174  34.184   5.446
 5978POPC   GL174857  14.482  34.346   5.751
 5978POPC   GL274858  14.330  34.676   5.816
 5978POPC   C1A74859  14.491  34.391   6.206
 5978POPC   D2A74860  14.414  34.642   6.555
 5978POPC   C3A74861  14.572  34.414   6.885
 5978POPC   C4A74862  14.543  34.399   7.283
 5978POPC   C1B74863  14.641  34.860   6.113
 5978POPC   C2B74864  14.778  35.001   6.554
 5978POPC   C3B74865  14.634  34.934   7.002
 5978POPC   C4B74866  14.639  34.889   7.470
 5979POPC   NC374867  37.260  14.260   5.182
 5979POPC   PO474868  36.789  14.608   5.437
 5979POPC   GL174869  36.940  14.502   5.852
 5979POPC   GL274870  37.008  14.168   5.734
 5979POPC   C1A74871  37.052  14.541   6.304
 5979POPC   D2A74872  37.181  14.636   6.729
 5979POPC   C3A74873  36.802  14.550   6.958
 5979POPC   C4A74874  36.537  14.327   7.226
 5979POPC   C1B74875  36.967  14.011   6.189
 5979POPC   C2B74876  37.069  13.895   6.631
 5979POPC   C3B74877  37.152  14.160   6.999
 5979POPC   C4B74878  36.971  14.095   7.404
 5980POPC   NC374879  13.462  10.417   5.445
 5980POPC   PO474880  13.994  10.745   5.398
 5980POPC   GL174881  13.795  10.737   5.796
 5980POPC   GL274882  13.834  10.383   5.770
 5980POPC   C1A74883  13.842  10.913   6.244
 5980POPC   D2A74884  13.959  10.892   6.714
 5980POPC   C3A74885  13.595  10.830   7.021
 5980POPC   C4A74886  13.216  10.663   7.205
 5980POPC   C1B74887  13.551  10.332   6.101
 5980POPC   C2B74888  13.606  10.511   6.486
 5980POPC   C3B74889  13.567  10.369   6.861
 5980POPC   C4B74890  13.620  10.368   7.265
 5981POPC   NC374891  42.109  30.164   5.077
 5981POPC   PO474892  42.312  29.714   5.581
 5981POPC   GL174893  42.433  29.879   5.943
 5981POPC   GL274894  42.647  30.157   5.797
 5981POPC   C1A74895  42.374  29.851   6.406
 5981POPC   D2A74896  42.062  29.943   6.699
 5981POPC   C3A74897  41.998  29.705   7.068
 5981POPC   C4A74898  42.043  29.817   7.481
 5981POPC   C1B74899  42.533  30.309   6.180
 5981POPC   C2B74900  42.707  30.267   6.546
 5981POPC   C3B74901  42.557  30.097   6.908
 5981POPC   C4B74902  42.565  30.245   7.308
 5982POPC   NC374903  41.814   3.737   5.462
 5982POPC   PO474904  41.312   3.131   5.443
 5982POPC   GL174905  41.487   3.404   5.770
 5982POPC   GL274906  41.328   3.745   5.724
 5982POPC   C1A74907  41.447   3.335   6.217
 5982POPC   D2A74908  41.580   3.555   6.576
 5982POPC   C3A74909  41.494   3.359   6.961
 5982POPC   C4A74910  41.671   3.637   7.244
 5982POPC   C1B74911  41.441   3.866   6.164
 5982POPC   C2B74912  41.542   4.089   6.561
 5982POPC   C3B74913  41.405   3.944   6.943
 5982POPC   C4B74914  41.158   3.664   7.195
 5983POPC   NC374915   4.953  40.278   5.446
 5983POPC   PO474916   5.142  39.651   5.440
 5983POPC   GL174917   5.292  39.900   5.785
 5983POPC   GL274918   5.422  40.224   5.667
 5983POPC   C1A74919   5.179  39.863   6.225
 5983POPC   D2A74920   5.135  39.612   6.593
 5983POPC   C3A74921   5.158  39.870   6.925
 5983POPC   C4A74922   4.970  40.155   7.183
 5983POPC   C1B74923   5.521  40.243   6.134
 5983POPC   C2B74924   5.563  40.074   6.559
 5983POPC   C3B74925   5.515  40.251   6.977
 5983POPC   C4B74926   5.443  40.315   7.406
 5984POPC   NC374927  12.364  44.448   5.507
 5984POPC   PO474928  11.791  44.918   5.566
 5984POPC   GL174929  12.037  44.714   5.907
 5984POPC   GL274930  12.222  44.372   6.018
 5984POPC   C1A74931  12.011  44.808   6.351
 5984POPC   D2A74932  11.996  44.525   6.702
 5984POPC   C3A74933  12.309  44.473   6.996
 5984POPC   C4A74934  12.229  44.750   7.347
 5984POPC   C1B74935  11.794  44.372   6.227
 5984POPC   C2B74936  11.625  44.188   6.552
 5984POPC   C3B74937  11.605  44.316   6.958
 5984POPC   C4B74938  11.894  44.348   7.284
 5985POPC   NC374939   8.330  12.761   5.379
 5985POPC   PO474940   7.942  13.331   5.401
 5985POPC   GL174941   8.037  13.004   5.773
 5985POPC   GL274942   8.198  12.685   5.847
 5985POPC   C1A74943   8.290  13.037   6.221
 5985POPC   D2A74944   8.438  13.303   6.629
 5985POPC   C3A74945   8.343  13.049   6.997
 5985POPC   C4A74946   8.016  12.827   7.236
 5985POPC   C1B74947   8.098  12.536   6.229
 5985POPC   C2B74948   8.021  12.729   6.616
 5985POPC   C3B74949   8.153  12.465   6.932
 5985POPC   C4B74950   8.507  12.593   7.183
 5986POPC   NC374951  24.830  34.102   5.469
 5986POPC   PO474952  24.261  34.349   5.330
 5986POPC   GL174953  24.250  34.142   5.729
 5986POPC   GL274954  24.278  33.774   5.662
 5986POPC   C1A74955  24.472  34.131   6.124
 5986POPC   D2A74956  24.354  33.955   6.519
 5986POPC   C3A74957  24.467  34.030   6.947
 5986POPC   C4A74958  24.252  33.820   7.283
 5986POPC   C1B74959  24.352  33.630   6.099
 5986POPC   C2B74960  24.343  33.442   6.519
 5986POPC   C3B74961  24.461  33.508   6.926
 5986POPC   C4B74962  24.768  33.672   7.228
 5987POPC   NC374963  39.545  21.158   5.392
 5987POPC   PO474964  40.231  21.406   5.465
 5987POPC   GL174965  39.929  21.478   5.850
 5987POPC   GL274966  39.692  21.206   5.901
 5987POPC   C1A74967  39.799  21.545   6.294
 5987POPC   D2A74968  39.910  21.361   6.718
 5987POPC   C3A74969  39.842  21.650   7.054
 5987POPC   C4A74970  40.158  21.762   7.353
 5987POPC   C1B74971  39.920  21.056   6.291
 5987POPC   C2B74972  39.933  20.852   6.670
 5987POPC   C3B74973  39.948  20.917   7.089
 5987POPC   C4B74974  39.959  21.239   7.305
 5988POPC   NC374975  34.807  10.150   5.529
 5988POPC   PO474976  34.375  10.667   5.408
 5988POPC   GL174977  34.463  10.488   5.809
 5988POPC   GL274978  34.349  10.176   5.870
 5988POPC   C1A74979  34.724  10.483   6.215
 5988POPC   D2A74980  34.830  10.675   6.619
 5988POPC   C3A74981  34.946  10.597   7.046
 5988POPC   C4A74982  34.714  10.749   7.384
 5988POPC   C1B74983  34.245  10.326   6.269
 5988POPC   C2B74984  34.458  10.315   6.695
 5988POPC   C3B74985  34.424  10.381   7.153
 5988POPC   C4B74986  34.065  10.303   7.488
 5989POPC   NC374987  29.774  23.140   5.425
 5989POPC   PO474988  29.790  22.476   5.357
 5989POPC   GL174989  29.639  22.723   5.746
 5989POPC   GL274990  29.954  22.882   5.891
 5989POPC   C1A74991  29.647  22.676   6.240
 5989POPC   D2A74992  29.828  22.775   6.682
 5989POPC   C3A74993  29.575  22.853   7.054
 5989POPC   C4A74994  29.670  22.888   7.471
 5989POPC   C1B74995  30.193  22.832   6.324
 5989POPC   C2B74996  30.256  23.078   6.748
 5989POPC   C3B74997  30.063  23.084   7.190
 5989POPC   C4B74998  30.174  23.075   7.635
 5990POPC   NC374999  44.543   4.697   5.465
 5990POPC   PO475000   0.077   4.254   5.477
 5990POPC   GL175001  44.839   4.283   5.893
 5990POPC   GL275002  44.562   4.542   5.937
 5990POPC   C1A75003  44.685   4.311   6.365
 5990POPC   D2A75004  44.350   4.155   6.642
 5990POPC   C3A75005  44.441   4.246   7.045
 5990POPC   C4A75006  44.849   4.460   7.100
 5990POPC   C1B75007  44.502   4.796   6.323
 5990POPC   C2B75008  44.466   4.683   6.780
 5990POPC   C3B75009  44.367   4.737   7.225
 5990POPC   C4B75010  44.244   4.836   7.672
 5991POPC   NC375011  24.550   2.684   5.284
 5991POPC   PO475012  24.980   3.187   5.574
 5991POPC   GL175013  24.743   2.824   5.741
 5991POPC   GL275014  24.371   2.828   5.763
 5991POPC   C1A75015  24.665   2.786   6.184
 5991POPC   D2A75016  24.620   3.023   6.540
 5991POPC   C3A75017  24.771   2.771   6.867
 5991POPC   C4A75018  24.880   2.529   7.230
 5991POPC   C1B75019  24.252   3.075   6.148
 5991POPC   C2B75020  24.070   3.033   6.573
 5991POPC   C3B75021  24.326   3.057   6.954
 5991POPC   C4B75022  24.416   2.731   7.259
 5992POPC   NC375023  40.823  30.148   5.185
 5992POPC   PO475024  40.946  30.775   5.444
 5992POPC   GL175025  40.769  30.655   5.817
 5992POPC   GL275026  40.791  31.001   5.944
 5992POPC   C1A75027  40.835  30.418   6.232
 5992POPC   D2A75028  40.986  30.507   6.661
 5992POPC   C3A75029  40.938  30.269   7.060
 5992POPC   C4A75030  40.849  30.343   7.512
 5992POPC   C1B75031  40.478  30.816   6.199
 5992POPC   C2B75032  40.400  30.784   6.634
 5992POPC   C3B75033  40.662  30.758   6.993
 5992POPC   C4B75034  40.607  30.792   7.468
 5993POPC   NC375035  16.369  18.170   5.347
 5993POPC   PO475036  16.855  18.626   5.353
 5993POPC   GL175037  16.788  18.253   5.701
 5993POPC   GL275038  16.541  17.971   5.810
 5993POPC   C1A75039  16.846  18.154   6.170
 5993POPC   D2A75040  16.591  18.304   6.531
 5993POPC   C3A75041  16.732  18.187   6.969
 5993POPC   C4A75042  16.915  18.139   7.372
 5993POPC   C1B75043  16.432  17.847   6.288
 5993POPC   C2B75044  16.361  17.893   6.763
 5993POPC   C3B75045  16.467  17.841   7.227
 5993POPC   C4B75046  16.628  17.805   7.660
 5994POPC   NC375047  20.700  31.890   5.606
 5994POPC   PO475048  20.994  31.373   5.309
 5994POPC   GL175049  20.855  31.472   5.832
 5994POPC   GL275050  20.507  31.592   5.959
 5994POPC   C1A75051  20.809  31.440   6.326
 5994POPC   D2A75052  20.810  31.822   6.587
 5994POPC   C3A75053  20.767  31.787   7.019
 5994POPC   C4A75054  20.780  31.365   7.173
 5994POPC   C1B75055  20.318  31.601   6.352
 5994POPC   C2B75056  20.184  31.328   6.653
 5994POPC   C3B75057  20.315  31.221   7.031
 5994POPC   C4B75058  20.335  31.602   7.261
 5995POPC   NC375059  31.401  30.008   5.289
 5995POPC   PO475060  31.852  29.539   5.542
 5995POPC   GL175061  31.513  29.776   5.771
 5995POPC   GL275062  31.222  29.548   5.772
 5995POPC   C1A75063  31.554  30.094   6.127
 5995POPC   D2A75064  31.474  30.136   6.604
 5995POPC   C3A75065  31.703  30.002   6.981
 5995POPC   C4A75066  31.712  29.689   7.313
 5995POPC   C1B75067  31.097  29.532   6.179
 5995POPC   C2B75068  31.020  29.804   6.522
 5995POPC   C3B75069  31.195  29.812   6.944
 5995POPC   C4B75070  31.225  29.760   7.406
 5996POPC   NC375071  22.528  32.584   5.662
 5996POPC   PO475072  22.728  32.047   5.431
 5996POPC   GL175073  22.960  32.168   5.823
 5996POPC   GL275074  23.097  32.472   5.962
 5996POPC   C1A75075  22.802  32.024   6.256
 5996POPC   D2A75076  22.975  32.019   6.668
 5996POPC   C3A75077  22.775  31.916   7.050
 5996POPC   C4A75078  23.081  31.891   7.384
 5996POPC   C1B75079  22.773  32.535   6.287
 5996POPC   C2B75080  22.777  32.517   6.746
 5996POPC   C3B75081  22.593  32.643   7.114
 5996POPC   C4B75082  22.881  32.363   7.280
 5997POPC   NC375083   7.808  33.993   4.994
 5997POPC   PO475084   7.325  33.819   5.338
 5997POPC   GL175085   7.300  33.696   5.775
 5997POPC   GL275086   7.655  33.659   5.861
 5997POPC   C1A75087   7.323  33.870   6.194
 5997POPC   D2A75088   7.374  33.745   6.611
 5997POPC   C3A75089   7.386  33.956   6.975
 5997POPC   C4A75090   7.440  33.897   7.385
 5997POPC   C1B75091   7.830  33.784   6.297
 5997POPC   C2B75092   7.839  33.915   6.755
 5997POPC   C3B75093   7.854  33.730   7.148
 5997POPC   C4B75094   7.694  33.429   7.472
 5998POPC   NC375095  10.847  27.536   5.357
 5998POPC   PO475096  10.181  27.680   5.444
 5998POPC   GL175097  10.324  27.796   5.849
 5998POPC   GL275098  10.584  27.514   5.840
 5998POPC   C1A75099  10.343  27.694   6.292
 5998POPC   D2A75100  10.600  27.458   6.568
 5998POPC   C3A75101  10.459  27.427   6.997
 5998POPC   C4A75102  10.214  27.535   7.366
 5998POPC   C1B75103  10.833  27.705   6.146
 5998POPC   C2B75104  11.020  27.763   6.568
 5998POPC   C3B75105  10.766  27.843   6.914
 5998POPC   C4B75106  10.653  27.791   7.363
 5999POPC   NC375107   6.699  21.937   5.419
 5999POPC   PO475108   6.470  22.595   5.451
 5999POPC   GL175109   6.697  22.327   5.814
 5999POPC   GL275110   6.707  21.944   5.910
 5999POPC   C1A75111   6.789  22.261   6.279
 5999POPC   D2A75112   6.767  22.005   6.665
 5999POPC   C3A75113   6.841  22.123   7.093
 5999POPC   C4A75114   6.739  22.433   7.389
 5999POPC   C1B75115   6.515  21.768   6.279
 5999POPC   C2B75116   6.262  21.886   6.652
 5999POPC   C3B75117   6.337  21.963   7.094
 5999POPC   C4B75118   6.563  21.971   7.498
 6000POPC   NC375119  11.741  41.277   5.473
 6000POPC   PO475120  11.114  41.205   5.662
 6000POPC   GL175121  11.154  41.625   5.861
 6000POPC   GL275122  11.489  41.620   5.756
 6000POPC   C1A75123  11.469  41.891   6.175
 6000POPC   D2A75124  11.703  41.896   6.581
 6000POPC   C3A75125  11.445  41.933   6.946
 6000POPC   C4A75126  11.510  41.694   7.334
 6000POPC   C1B75127  11.449  41.355   6.167
 6000POPC   C2B75128  11.290  41.518   6.551
 6000POPC   C3B75129  11.537  41.438   6.894
 6000POPC   C4B75130  11.577  41.109   7.169
 6001POPC   NC375131  42.390   2.434   5.457
 6001POPC   PO475132  42.108   3.058   5.340
 6001POPC   GL175133  42.315   2.913   5.708
 6001POPC   GL275134  42.142   2.635   5.892
 6001POPC   C1A75135  42.405   3.040   6.130
 6001POPC   D2A75136  42.251   2.803   6.466
 6001POPC   C3A75137  42.305   3.038   6.805
 6001POPC   C4A75138  42.382   2.984   7.228
 6001POPC   C1B75139  42.557   2.542   6.109
 6001POPC   C2B75140  42.779   2.645   6.474
 6001POPC   C3B75141  42.584   2.615   6.869
 6001POPC   C4B75142  42.288   2.436   7.163
 6002POPC   NC375143  40.807   1.044   5.249
 6002POPC   PO475144  40.299   1.376   5.562
 6002POPC   GL175145  40.616   1.132   5.787
 6002POPC   GL275146  40.756   1.414   5.955
 6002POPC   C1A75147  40.804   1.005   6.232
 6002POPC   D2A75148  40.990   1.148   6.663
 6002POPC   C3A75149  40.958   0.929   7.080
 6002POPC   C4A75150  40.576   0.954   7.357
 6002POPC   C1B75151  40.950   1.557   6.333
 6002POPC   C2B75152  41.002   1.662   6.767
 6002POPC   C3B75153  40.844   1.437   7.128
 6002POPC   C4B75154  41.063   1.285   7.499
 6003POPC   NC375155  33.149  10.701   5.251
 6003POPC   PO475156  32.796  10.091   5.378
 6003POPC   GL175157  32.830  10.128   5.837
 6003POPC   GL275158  33.003  10.426   5.892
 6003POPC   C1A75159  33.028  10.043   6.258
 6003POPC   D2A75160  33.270  10.289   6.568
 6003POPC   C3A75161  33.009  10.614   6.763
 6003POPC   C4A75162  32.851  10.589   7.164
 6003POPC   C1B75163  33.371  10.595   6.126
 6003POPC   C2B75164  33.460  10.778   6.529
 6003POPC   C3B75165  33.481  10.629   6.953
 6003POPC   C4B75166  33.265  10.863   7.230
 6004POPC   NC375167   8.904   5.822   5.240
 6004POPC   PO475168   8.320   5.541   5.339
 6004POPC   GL175169   8.760   5.625   5.682
 6004POPC   GL275170   8.782   6.000   5.737
 6004POPC   C1A75171   9.085   5.847   6.085
 6004POPC   D2A75172   8.855   6.056   6.458
 6004POPC   C3A75173   8.979   5.953   6.883
 6004POPC   C4A75174   9.334   6.074   7.159
 6004POPC   C1B75175   8.607   5.721   6.154
 6004POPC   C2B75176   8.570   5.629   6.634
 6004POPC   C3B75177   8.744   5.485   7.049
 6004POPC   C4B75178   9.170   5.573   7.163
 6005POPC   NC375179  13.858  12.586   5.424
 6005POPC   PO475180  13.459  13.054   5.340
 6005POPC   GL175181  13.566  12.842   5.736
 6005POPC   GL275182  13.835  13.024   5.827
 6005POPC   C1A75183  13.595  12.780   6.193
 6005POPC   D2A75184  13.806  12.808   6.596
 6005POPC   C3A75185  13.485  12.777   6.910
 6005POPC   C4A75186  13.241  12.728   7.265
 6005POPC   C1B75187  13.820  13.243   6.251
 6005POPC   C2B75188  13.676  13.281   6.699
 6005POPC   C3B75189  13.889  13.079   7.069
 6005POPC   C4B75190  13.809  13.180   7.506
 6006POPC   NC375191  23.879  34.525   5.508
 6006POPC   PO475192  23.203  34.770   5.425
 6006POPC   GL175193  23.521  34.864   5.834
 6006POPC   GL275194  23.677  34.532   5.963
 6006POPC   C1A75195  23.650  34.850   6.337
 6006POPC   D2A75196  23.684  34.878   6.799
 6006POPC   C3A75197  23.581  34.500   7.029
 6006POPC   C4A75198  23.580  34.370   7.482
 6006POPC   C1B75199  23.981  34.280   6.227
 6006POPC   C2B75200  23.946  34.217   6.693
 6006POPC   C3B75201  24.025  34.245   7.132
 6006POPC   C4B75202  24.089  34.237   7.616
 6007POPC   NC375203  27.005  31.228   5.390
 6007POPC   PO475204  27.518  31.749   5.380
 6007POPC   GL175205  27.387  31.666   5.792
 6007POPC   GL275206  27.635  31.381   5.800
 6007POPC   C1A75207  27.509  31.602   6.233
 6007POPC   D2A75208  27.739  31.405   6.540
 6007POPC   C3A75209  27.661  31.558   6.980
 6007POPC   C4A75210  27.364  31.291   7.218
 6007POPC   C1B75211  27.775  31.030   6.099
 6007POPC   C2B75212  27.717  30.866   6.524
 6007POPC   C3B75213  27.689  31.027   6.924
 6007POPC   C4B75214  27.876  31.210   7.300
 6008POPC   NC375215   6.995  37.710   5.336
 6008POPC   PO475216   6.406  37.557   5.309
 6008POPC   GL175217   6.621  37.670   5.700
 6008POPC   GL275218   6.856  37.387   5.742
 6008POPC   C1A75219   6.547  37.809   6.129
 6008POPC   D2A75220   6.694  37.713   6.569
 6008POPC   C3A75221   6.621  38.007   6.911
 6008POPC   C4A75222   6.288  38.053   7.193
 6008POPC   C1B75223   6.688  37.329   6.157
 6008POPC   C2B75224   6.758  37.189   6.582
 6008POPC   C3B75225   6.932  37.302   6.964
 6008POPC   C4B75226   7.074  37.715   7.097
 6009POPC   NC375227  10.036  19.433   5.580
 6009POPC   PO475228   9.665  20.009   5.527
 6009POPC   GL175229   9.906  19.875   5.843
 6009POPC   GL275230   9.704  19.642   5.986
 6009POPC   C1A75231  10.027  19.944   6.266
 6009POPC   D2A75232   9.801  20.137   6.606
 6009POPC   C3A75233   9.864  19.977   7.014
 6009POPC   C4A75234   9.846  20.301   7.316
 6009POPC   C1B75235   9.537  19.437   6.371
 6009POPC   C2B75236   9.548  19.602   6.806
 6009POPC   C3B75237   9.732  19.472   7.199
 6009POPC   C4B75238   9.546  19.443   7.627
 6010POPC   NC375239  39.850  40.662   5.505
 6010POPC   PO475240  40.346  41.217   5.360
 6010POPC   GL175241  40.297  40.867   5.712
 6010POPC   GL275242  40.017  40.959   5.932
 6010POPC   C1A75243  40.274  40.588   6.140
 6010POPC   D2A75244  40.274  40.830   6.533
 6010POPC   C3A75245  40.131  40.732   6.957
 6010POPC   C4A75246  40.286  40.554   7.341
 6010POPC   C1B75247  39.835  40.993   6.344
 6010POPC   C2B75248  39.660  40.739   6.683
 6010POPC   C3B75249  39.578  40.781   7.132
 6010POPC   C4B75250  39.869  41.107   7.237
 6011POPC   NC375251   9.276  17.282   5.400
 6011POPC   PO475252   8.798  17.775   5.419
 6011POPC   GL175253   8.962  17.512   5.768
 6011POPC   GL275254   8.687  17.352   5.938
 6011POPC   C1A75255   9.154  17.495   6.214
 6011POPC   D2A75256   9.066  17.349   6.653
 6011POPC   C3A75257   9.269  17.438   7.053
 6011POPC   C4A75258   9.026  17.351   7.434
 6011POPC   C1B75259   8.694  17.744   6.166
 6011POPC   C2B75260   8.803  17.792   6.593
 6011POPC   C3B75261   8.778  17.613   6.997
 6011POPC   C4B75262   8.696  17.768   7.404
 6012POPC   NC375263  31.104  22.350   5.048
 6012POPC   PO475264  31.628  22.013   5.099
 6012POPC   GL175265  31.610  22.002   5.605
 6012POPC   GL275266  31.338  21.811   5.732
 6012POPC   C1A75267  31.527  22.203   6.028
 6012POPC   D2A75268  31.636  22.170   6.484
 6012POPC   C3A75269  31.424  22.246   6.894
 6012POPC   C4A75270  31.610  22.294   7.327
 6012POPC   C1B75271  31.396  21.734   6.162
 6012POPC   C2B75272  31.291  21.779   6.587
 6012POPC   C3B75273  31.314  21.762   7.015
 6012POPC   C4B75274  31.156  22.039   7.301
 6013POPC   NC375275   5.687  11.669   5.497
 6013POPC   PO475276   6.027  12.211   5.352
 6013POPC   GL175277   6.024  12.022   5.778
 6013POPC   GL275278   6.185  11.724   5.727
 6013POPC   C1A75279   5.899  12.020   6.259
 6013POPC   D2A75280   5.675  12.025   6.699
 6013POPC   C3A75281   5.846  12.259   7.074
 6013POPC   C4A75282   5.616  12.469   7.413
 6013POPC   C1B75283   6.020  11.547   6.108
 6013POPC   C2B75284   6.001  11.463   6.560
 6013POPC   C3B75285   5.793  11.582   6.945
 6013POPC   C4B75286   5.944  11.812   7.286
 6014POPC   NC375287  12.071  11.257   5.455
 6014POPC   PO475288  12.682  11.672   5.569
 6014POPC   GL175289  12.344  11.455   5.813
 6014POPC   GL275290  12.376  11.170   6.030
 6014POPC   C1A75291  11.895  11.432   6.058
 6014POPC   D2A75292  11.647  11.449   6.446
 6014POPC   C3A75293  11.842  11.202   6.774
 6014POPC   C4A75294  11.755  11.243   7.222
 6014POPC   C1B75295  12.335  11.572   6.286
 6014POPC   C2B75296  12.062  11.757   6.572
 6014POPC   C3B75297  11.883  11.678   6.956
 6014POPC   C4B75298  12.129  11.625   7.312
 6015POPC   NC375299  15.989  11.476   5.526
 6015POPC   PO475300  16.297  10.989   5.119
 6015POPC   GL175301  16.044  10.994   5.633
 6015POPC   GL275302  16.129  11.258   5.949
 6015POPC   C1A75303  15.787  10.924   6.047
 6015POPC   D2A75304  15.948  11.119   6.463
 6015POPC   C3A75305  15.765  11.315   6.857
 6015POPC   C4A75306  15.780  11.187   7.282
 6015POPC   C1B75307  16.345  11.477   6.273
 6015POPC   C2B75308  16.223  11.564   6.704
 6015POPC   C3B75309  16.185  11.500   7.142
 6015POPC   C4B75310  16.294  11.787   7.458
 6016POPC   NC375311  13.840  39.476   5.419
 6016POPC   PO475312  13.303  39.150   5.448
 6016POPC   GL175313  13.471  39.338   5.816
 6016POPC   GL275314  13.782  39.148   5.832
 6016POPC   C1A75315  13.450  39.293   6.295
 6016POPC   D2A75316  13.497  39.536   6.689
 6016POPC   C3A75317  13.561  39.355   7.099
 6016POPC   C4A75318  13.479  39.523   7.485
 6016POPC   C1B75319  13.951  39.275   6.261
 6016POPC   C2B75320  13.902  39.195   6.732
 6016POPC   C3B75321  13.994  39.011   7.176
 6016POPC   C4B75322  14.214  38.960   7.606
 6017POPC   NC375323  23.417  30.957   5.424
 6017POPC   PO475324  23.901  30.549   5.545
 6017POPC   GL175325  23.883  30.862   5.822
 6017POPC   GL275326  23.538  30.924   5.907
 6017POPC   C1A75327  24.033  30.889   6.244
 6017POPC   D2A75328  23.938  30.716   6.634
 6017POPC   C3A75329  23.989  30.984   7.002
 6017POPC   C4A75330  23.787  30.873   7.381
 6017POPC   C1B75331  23.333  30.603   6.167
 6017POPC   C2B75332  23.424  30.426   6.575
 6017POPC   C3B75333  23.558  30.631   6.960
 6017POPC   C4B75334  23.515  30.445   7.345
 6018POPC   NC375335   2.091  11.657   5.341
 6018POPC   PO475336   1.491  11.496   5.594
 6018POPC   GL175337   1.896  11.366   5.795
 6018POPC   GL275338   2.059  11.002   5.861
 6018POPC   C1A75339   2.053  11.372   6.224
 6018POPC   D2A75340   2.043  11.596   6.607
 6018POPC   C3A75341   1.864  11.449   6.992
 6018POPC   C4A75342   2.160  11.272   7.270
 6018POPC   C1B75343   1.835  10.894   6.251
 6018POPC   C2B75344   1.952  11.001   6.681
 6018POPC   C3B75345   1.878  10.874   7.111
 6018POPC   C4B75346   1.961  10.945   7.617
 6019POPC   NC375347  14.997  30.587   5.257
 6019POPC   PO475348  15.609  30.569   5.423
 6019POPC   GL175349  15.295  30.695   5.761
 6019POPC   GL275350  14.944  30.535   5.757
 6019POPC   C1A75351  15.124  30.731   6.207
 6019POPC   D2A75352  15.138  30.878   6.637
 6019POPC   C3A75353  15.304  30.643   6.990
 6019POPC   C4A75354  15.293  30.731   7.471
 6019POPC   C1B75355  14.782  30.363   6.134
 6019POPC   C2B75356  14.886  30.429   6.562
 6019POPC   C3B75357  14.752  30.362   6.939
 6019POPC   C4B75358  14.954  30.396   7.280
 6020POPC   NC375359  32.574   0.357   5.423
 6020POPC   PO475360  31.946   0.255   5.389
 6020POPC   GL175361  32.065   0.177   5.833
 6020POPC   GL275362  32.280   0.445   5.860
 6020POPC   C1A75363  32.097   0.162   6.308
 6020POPC   D2A75364  32.327   0.418   6.618
 6020POPC   C3A75365  32.246   0.389   7.068
 6020POPC   C4A75366  32.153  44.978   7.283
 6020POPC   C1B75367  32.532   0.106   6.069
 6020POPC   C2B75368  32.673   0.049   6.516
 6020POPC   C3B75369  32.725   0.253   6.921
 6020POPC   C4B75370  32.634   0.220   7.366
 6021POPC   NC375371  22.977   1.057   5.370
 6021POPC   PO475372  22.375   1.357   5.391
 6021POPC   GL175373  22.599   1.495   5.771
 6021POPC   GL275374  22.925   1.300   5.809
 6021POPC   C1A75375  22.719   1.532   6.205
 6021POPC   D2A75376  22.739   1.152   6.422
 6021POPC   C3A75377  22.636   1.166   6.847
 6021POPC   C4A75378  22.814   1.221   7.232
 6021POPC   C1B75379  23.217   1.425   6.111
 6021POPC   C2B75380  23.239   1.325   6.528
 6021POPC   C3B75381  23.202   1.106   6.907
 6021POPC   C4B75382  23.313   1.291   7.289
 6022POPC   NC375383  18.522  24.896   5.396
 6022POPC   PO475384  18.039  24.463   5.586
 6022POPC   GL175385  18.204  24.780   5.818
 6022POPC   GL275386  18.538  24.671   5.885
 6022POPC   C1A75387  18.279  24.940   6.250
 6022POPC   D2A75388  18.426  24.722   6.647
 6022POPC   C3A75389  18.149  24.623   7.004
 6022POPC   C4A75390  17.936  24.624   7.419
 6022POPC   C1B75391  18.317  24.416   6.231
 6022POPC   C2B75392  18.130  24.239   6.632
 6022POPC   C3B75393  18.282  24.106   7.029
 6022POPC   C4B75394  18.569  24.224   7.338
 6023POPC   NC375395   0.335  19.643   5.255
 6023POPC   PO475396   0.817  20.103   5.301
 6023POPC   GL175397   0.389  20.044   5.635
 6023POPC   GL275398   0.399  19.699   5.762
 6023POPC   C1A75399   0.132  19.944   6.099
 6023POPC   D2A75400   0.170  19.686   6.519
 6023POPC   C3A75401   0.177  19.922   6.928
 6023POPC   C4A75402   0.565  20.020   7.157
 6023POPC   C1B75403   0.610  19.478   6.131
 6023POPC   C2B75404   0.649  19.128   6.445
 6023POPC   C3B75405   0.809  19.117   6.891
 6023POPC   C4B75406   0.687  19.511   7.082
 6024POPC   NC375407  30.794  39.403   5.208
 6024POPC   PO475408  30.692  38.811   5.461
 6024POPC   GL175409  30.676  39.207   5.709
 6024POPC   GL275410  30.410  39.453   5.654
 6024POPC   C1A75411  30.689  39.278   6.179
 6024POPC   D2A75412  30.629  39.068   6.606
 6024POPC   C3A75413  30.787  39.273   6.953
 6024POPC   C4A75414  30.893  39.232   7.377
 6024POPC   C1B75415  30.237  39.513   6.090
 6024POPC   C2B75416  30.381  39.497   6.538
 6024POPC   C3B75417  30.346  39.646   6.938
 6024POPC   C4B75418  30.583  39.607   7.307
 6025POPC   NC375419   4.439  22.729   5.424
 6025POPC   PO475420   4.101  23.359   5.473
 6025POPC   GL175421   4.219  23.047   5.789
 6025POPC   GL275422   4.043  22.694   5.846
 6025POPC   C1A75423   4.406  22.938   6.191
 6025POPC   D2A75424   4.687  22.939   6.555
 6025POPC   C3A75425   4.520  23.164   6.898
 6025POPC   C4A75426   4.635  23.119   7.312
 6025POPC   C1B75427   4.167  22.453   6.243
 6025POPC   C2B75428   4.278  22.301   6.671
 6025POPC   C3B75429   4.480  22.618   6.966
 6025POPC   C4B75430   4.197  22.863   7.253
 6026POPC   NC375431  29.899   5.051   5.505
 6026POPC   PO475432  29.968   5.678   5.513
 6026POPC   GL175433  30.118   5.353   5.842
 6026POPC   GL275434  29.795   5.238   5.967
 6026POPC   C1A75435  30.207   5.063   6.216
 6026POPC   D2A75436  30.312   5.113   6.665
 6026POPC   C3A75437  30.244   4.812   7.008
 6026POPC   C4A75438  29.829   4.687   7.133
 6026POPC   C1B75439  29.721   5.234   6.403
 6026POPC   C2B75440  29.637   5.409   6.799
 6026POPC   C3B75441  29.934   5.224   7.067
 6026POPC   C4B75442  30.063   5.090   7.435
 6027POPC   NC375443   4.981  43.000   5.544
 6027POPC   PO475444   5.502  43.421   5.409
 6027POPC   GL175445   5.363  43.195   5.832
 6027POPC   GL275446   5.376  42.808   5.798
 6027POPC   C1A75447   5.069  43.236   6.239
 6027POPC   D2A75448   4.703  43.222   6.589
 6027POPC   C3A75449   4.825  43.367   7.023
 6027POPC   C4A75450   5.204  43.400   7.269
 6027POPC   C1B75451   5.028  42.729   6.114
 6027POPC   C2B75452   4.957  42.808   6.510
 6027POPC   C3B75453   5.179  43.034   6.825
 6027POPC   C4B75454   5.106  42.910   7.248
 6028POPC   NC375455  31.912  29.148   5.278
 6028POPC   PO475456  32.570  29.327   5.389
 6028POPC   GL175457  32.273  29.292   5.741
 6028POPC   GL275458  32.059  29.010   5.731
 6028POPC   C1A75459  32.197  29.419   6.184
 6028POPC   D2A75460  32.185  29.211   6.600
 6028POPC   C3A75461  32.172  29.348   7.040
 6028POPC   C4A75462  32.125  29.428   7.464
 6028POPC   C1B75463  32.112  28.880   6.147
 6028POPC   C2B75464  32.019  28.725   6.547
 6028POPC   C3B75465  31.927  28.913   6.944
 6028POPC   C4B75466  32.122  28.928   7.381
 6029POPC   NC375467  14.291  24.159   5.639
 6029POPC   PO475468  14.039  24.606   5.266
 6029POPC   GL175469  14.147  24.680   5.739
 6029POPC   GL275470  14.483  24.654   5.846
 6029POPC   C1A75471  14.057  24.735   6.191
 6029POPC   D2A75472  14.276  24.472   6.490
 6029POPC   C3A75473  14.477  24.569   6.889
 6029POPC   C4A75474  14.255  24.430   7.242
 6029POPC   C1B75475  14.736  24.366   6.098
 6029POPC   C2B75476  14.771  24.323   6.523
 6029POPC   C3B75477  14.675  24.048   6.844
 6029POPC   C4B75478  14.563  24.036   7.264
 6030POPC   NC375479  17.785  19.282   5.412
 6030POPC   PO475480  17.677  18.594   5.564
 6030POPC   GL175481  17.551  18.824   5.924
 6030POPC   GL275482  17.306  19.127   5.885
 6030POPC   C1A75483  17.712  18.807   6.341
 6030POPC   D2A75484  17.475  18.676   6.680
 6030POPC   C3A75485  17.342  18.978   6.955
 6030POPC   C4A75486  17.613  18.914   7.275
 6030POPC   C1B75487  17.287  19.128   6.360
 6030POPC   C2B75488  17.630  19.258   6.649
 6030POPC   C3B75489  17.658  19.385   7.095
 6030POPC   C4B75490  17.383  19.379   7.497
 6031POPC   NC375491   8.971  14.026   5.438
 6031POPC   PO475492   9.143  14.637   5.409
 6031POPC   GL175493   9.082  14.367   5.800
 6031POPC   GL275494   8.766  14.251   5.849
 6031POPC   C1A75495   9.127  14.182   6.207
 6031POPC   D2A75496   8.885  14.247   6.563
 6031POPC   C3A75497   9.070  14.439   6.902
 6031POPC   C4A75498   9.246  14.280   7.283
 6031POPC   C1B75499   8.515  14.192   6.199
 6031POPC   C2B75500   8.388  14.169   6.614
 6031POPC   C3B75501   8.540  14.287   6.980
 6031POPC   C4B75502   8.737  14.273   7.353
 6032POPC   NC375503  39.485  33.624   5.309
 6032POPC   PO475504  39.014  34.025   5.404
 6032POPC   GL175505  39.019  33.677   5.682
 6032POPC   GL275506  39.284  33.464   5.777
 6032POPC   C1A75507  39.061  33.759   6.120
 6032POPC   D2A75508  39.329  33.913   6.435
 6032POPC   C3A75509  39.169  33.813   6.816
 6032POPC   C4A75510  39.234  33.617   7.185
 6032POPC   C1B75511  39.489  33.457   6.184
 6032POPC   C2B75512  39.384  33.361   6.627
 6032POPC   C3B75513  39.615  33.311   7.015
 6032POPC   C4B75514  39.553  33.327   7.449
 6033POPC   NC375515  28.935  12.652   5.286
 6033POPC   PO475516  29.300  13.209   5.141
 6033POPC   GL175517  29.098  13.180   5.602
 6033POPC   GL275518  29.098  12.808   5.748
 6033POPC   C1A75519  29.169  13.159   6.091
 6033POPC   D2A75520  29.241  12.922   6.459
 6033POPC   C3A75521  29.123  13.041   6.876
 6033POPC   C4A75522  29.100  12.823   7.286
 6033POPC   C1B75523  29.392  12.592   6.073
 6033POPC   C2B75524  29.545  12.512   6.515
 6033POPC   C3B75525  29.429  12.605   6.951
 6033POPC   C4B75526  29.416  12.415   7.383
 6034POPC   NC375527  35.638  24.796   5.459
 6034POPC   PO475528  35.132  24.293   5.456
 6034POPC   GL175529  35.320  24.530   5.780
 6034POPC   GL275530  35.632  24.326   5.734
 6034POPC   C1A75531  35.456  24.707   6.196
 6034POPC   D2A75532  35.740  24.796   6.557
 6034POPC   C3A75533  35.520  24.801   6.970
 6034POPC   C4A75534  35.214  24.770   7.353
 6034POPC   C1B75535  35.528  24.195   6.170
 6034POPC   C2B75536  35.406  24.365   6.598
 6034POPC   C3B75537  35.311  24.331   7.038
 6034POPC   C4B75538  35.578  24.026   7.265
 6035POPC   NC375539   5.315  35.397   5.508
 6035POPC   PO475540   5.907  35.255   5.313
 6035POPC   GL175541   6.039  35.315   5.704
 6035POPC   GL275542   6.185  35.000   5.731
 6035POPC   C1A75543   5.882  35.379   6.125
 6035POPC   D2A75544   5.904  35.540   6.530
 6035POPC   C3A75545   5.754  35.378   6.880
 6035POPC   C4A75546   5.886  35.536   7.270
 6035POPC   C1B75547   6.047  34.902   6.112
 6035POPC   C2B75548   5.919  34.976   6.527
 6035POPC   C3B75549   6.147  34.878   6.846
 6035POPC   C4B75550   6.095  35.096   7.164
 6036POPC   NC375551  42.473   6.548   5.587
 6036POPC   PO475552  41.930   6.892   5.328
 6036POPC   GL175553  42.164   6.930   5.767
 6036POPC   GL275554  42.488   6.907   5.970
 6036POPC   C1A75555  42.078   6.728   6.212
 6036POPC   D2A75556  42.251   6.508   6.617
 6036POPC   C3A75557  42.014   6.385   6.984
 6036POPC   C4A75558  42.009   6.592   7.371
 6036POPC   C1B75559  42.564   6.522   6.220
 6036POPC   C2B75560  42.795   6.405   6.610
 6036POPC   C3B75561  42.641   6.477   7.030
 6036POPC   C4B75562  42.519   6.466   7.473
 6037POPC   NC375563   2.240  20.167   5.324
 6037POPC   PO475564   2.020  20.727   5.602
 6037POPC   GL175565   2.031  20.705   5.963
 6037POPC   GL275566   2.130  20.337   5.948
 6037POPC   C1A75567   2.188  20.663   6.371
 6037POPC   D2A75568   2.249  20.927   6.723
 6037POPC   C3A75569   2.085  20.711   7.100
 6037POPC   C4A75570   1.932  20.574   7.492
 6037POPC   C1B75571   1.730  20.400   6.186
 6037POPC   C2B75572   1.648  20.686   6.522
 6037POPC   C3B75573   1.595  20.623   6.950
 6037POPC   C4B75574   1.731  20.264   7.137
 6038POPC   NC375575  11.796   1.236   5.384
 6038POPC   PO475576  12.241   0.771   5.430
 6038POPC   GL175577  12.181   1.075   5.744
 6038POPC   GL275578  12.485   1.237   5.699
 6038POPC   C1A75579  12.096   1.366   6.098
 6038POPC   D2A75580  12.009   1.284   6.527
 6038POPC   C3A75581  12.013   1.447   6.946
 6038POPC   C4A75582  11.914   1.089   7.194
 6038POPC   C1B75583  12.620   1.023   6.082
 6038POPC   C2B75584  12.538   0.976   6.500
 6038POPC   C3B75585  12.246   0.883   6.799
 6038POPC   C4B75586  12.311   0.793   7.215
 6039POPC   NC375587  22.724  44.106   5.019
 6039POPC   PO475588  22.728  44.692   5.459
 6039POPC   GL175589  22.767  44.554   5.918
 6039POPC   GL275590  22.542  44.308   6.013
 6039POPC   C1A75591  23.008  44.499   6.321
 6039POPC   D2A75592  23.280  44.563   6.692
 6039POPC   C3A75593  23.082  44.537   7.096
 6039POPC   C4A75594  23.083  44.879   7.405
 6039POPC   C1B75595  22.494  44.467   6.404
 6039POPC   C2B75596  22.701  44.576   6.754
 6039POPC   C3B75597  22.567  44.483   7.170
 6039POPC   C4B75598  22.795  44.465   7.539
 6040POPC   NC375599  37.606  43.293   5.296
 6040POPC   PO475600  37.708  42.652   5.311
 6040POPC   GL175601  37.640  42.976   5.703
 6040POPC   GL275602  37.889  43.262   5.752
 6040POPC   C1A75603  37.518  43.294   6.098
 6040POPC   D2A75604  37.648  43.194   6.557
 6040POPC   C3A75605  37.613  43.454   6.934
 6040POPC   C4A75606  37.354  43.440   7.305
 6040POPC   C1B75607  37.949  42.998   6.160
 6040POPC   C2B75608  38.103  42.923   6.617
 6040POPC   C3B75609  37.888  42.967   6.982
 6040POPC   C4B75610  37.785  43.176   7.357
 6041POPC   NC375611  26.302  29.586   5.411
 6041POPC   PO475612  25.846  29.914   4.994
 6041POPC   GL175613  26.026  29.971   5.564
 6041POPC   GL275614  26.330  30.189   5.613
 6041POPC   C1A75615  26.003  29.798   6.056
 6041POPC   D2A75616  26.175  29.638   6.500
 6041POPC   C3A75617  26.049  29.825   6.923
 6041POPC   C4A75618  25.935  29.979   7.345
 6041POPC   C1B75619  26.361  30.159   6.074
 6041POPC   C2B75620  26.377  30.113   6.545
 6041POPC   C3B75621  26.520  30.084   6.990
 6041POPC   C4B75622  26.412  30.172   7.426
 6042POPC   NC375623  19.431  19.282   5.407
 6042POPC   PO475624  18.844  19.556   5.690
 6042POPC   GL175625  19.036  19.159   5.807
 6042POPC   GL275626  18.795  18.891   5.776
 6042POPC   C1A75627  19.165  19.057   6.208
 6042POPC   D2A75628  19.194  19.353   6.561
 6042POPC   C3A75629  19.036  19.158   6.937
 6042POPC   C4A75630  19.117  19.236   7.354
 6042POPC   C1B75631  18.714  18.711   6.171
 6042POPC   C2B75632  18.874  18.810   6.564
 6042POPC   C3B75633  18.859  18.651   6.969
 6042POPC   C4B75634  18.511  18.567   7.228
 6043POPC   NC375635  41.591  33.430   5.328
 6043POPC   PO475636  41.231  33.976   5.370
 6043POPC   GL175637  41.429  33.753   5.728
 6043POPC   GL275638  41.820  33.712   5.710
 6043POPC   C1A75639  41.276  33.518   6.108
 6043POPC   D2A75640  41.416  33.476   6.550
 6043POPC   C3A75641  41.372  33.690   6.994
 6043POPC   C4A75642  41.286  33.562   7.438
 6043POPC   C1B75643  41.782  33.652   6.172
 6043POPC   C2B75644  41.929  33.463   6.586
 6043POPC   C3B75645  41.917  33.678   6.957
 6043POPC   C4B75646  41.794  33.587   7.339
 6044POPC   NC375647  26.574   9.317   5.443
 6044POPC   PO475648  26.572   8.608   5.445
 6044POPC   GL175649  26.730   8.916   5.775
 6044POPC   GL275650  26.836   9.283   5.886
 6044POPC   C1A75651  26.724   8.888   6.227
 6044POPC   D2A75652  26.737   8.594   6.567
 6044POPC   C3A75653  26.680   8.751   6.984
 6044POPC   C4A75654  27.036   8.705   7.214
 6044POPC   C1B75655  27.120   9.223   6.250
 6044POPC   C2B75656  27.025   9.036   6.675
 6044POPC   C3B75657  26.941   9.225   7.102
 6044POPC   C4B75658  27.075   9.512   7.455
 6045POPC   NC375659  14.088  23.240   5.341
 6045POPC   PO475660  14.514  23.763   5.520
 6045POPC   GL175661  14.228  23.575   5.796
 6045POPC   GL275662  14.399  23.306   5.755
 6045POPC   C1A75663  14.193  23.571   6.252
 6045POPC   D2A75664  14.278  23.938   6.527
 6045POPC   C3A75665  14.165  23.889   6.956
 6045POPC   C4A75666  14.084  23.921   7.383
 6045POPC   C1B75667  14.650  23.326   6.122
 6045POPC   C2B75668  14.801  23.542   6.494
 6045POPC   C3B75669  14.684  23.542   6.925
 6045POPC   C4B75670  14.431  23.561   7.284
 6046POPC   NC375671   3.470  26.417   5.440
 6046POPC   PO475672   3.697  25.725   5.410
 6046POPC   GL175673   3.501  25.909   5.795
 6046POPC   GL275674   3.187  26.005   5.673
 6046POPC   C1A75675   3.615  25.868   6.251
 6046POPC   D2A75676   3.805  26.124   6.600
 6046POPC   C3A75677   3.680  25.990   6.988
 6046POPC   C4A75678   3.335  25.855   7.179
 6046POPC   C1B75679   3.123  26.205   6.062
 6046POPC   C2B75680   3.302  26.239   6.446
 6046POPC   C3B75681   3.253  26.259   6.872
 6046POPC   C4B75682   3.419  26.366   7.264
 6047POPC   NC375683  39.582   4.149   5.510
 6047POPC   PO475684  39.107   4.663   5.419
 6047POPC   GL175685  39.178   4.368   5.773
 6047POPC   GL275686  38.828   4.232   5.896
 6047POPC   C1A75687  39.326   4.169   6.173
 6047POPC   D2A75688  39.070   4.176   6.531
 6047POPC   C3A75689  39.150   4.012   6.935
 6047POPC   C4A75690  39.323   4.131   7.262
 6047POPC   C1B75691  38.955   4.590   6.181
 6047POPC   C2B75692  39.107   4.691   6.589
 6047POPC   C3B75693  39.073   4.526   6.991
 6047POPC   C4B75694  38.880   4.358   7.333
 6048POPC   NC375695   3.953  30.615   5.398
 6048POPC   PO475696   4.637  30.709   5.473
 6048POPC   GL175697   4.368  30.790   5.812
 6048POPC   GL275698   4.140  30.518   5.866
 6048POPC   C1A75699   4.501  30.799   6.241
 6048POPC   D2A75700   4.689  30.535   6.553
 6048POPC   C3A75701   4.524  30.631   6.960
 6048POPC   C4A75702   4.401  30.962   7.225
 6048POPC   C1B75703   3.988  30.609   6.271
 6048POPC   C2B75704   4.135  30.442   6.655
 6048POPC   C3B75705   3.968  30.553   7.054
 6048POPC   C4B75706   4.069  30.649   7.482
 6049POPC   NC375707  27.429  25.169   5.022
 6049POPC   PO475708  28.050  25.351   5.323
 6049POPC   GL175709  27.714  25.306   5.625
 6049POPC   GL275710  27.494  25.079   5.686
 6049POPC   C1A75711  27.706  25.359   6.090
 6049POPC   D2A75712  27.595  25.415   6.566
 6049POPC   C3A75713  27.878  25.231   6.913
 6049POPC   C4A75714  28.001  25.293   7.375
 6049POPC   C1B75715  27.238  25.180   6.047
 6049POPC   C2B75716  27.266  25.032   6.491
 6049POPC   C3B75717  27.459  24.929   6.906
 6049POPC   C4B75718  27.499  25.211   7.285
 6050POPC   NC375719  38.248  12.981   5.431
 6050POPC   PO475720  38.874  12.803   5.549
 6050POPC   GL175721  38.536  12.924   5.873
 6050POPC   GL275722  38.218  12.727   5.879
 6050POPC   C1A75723  38.456  12.858   6.338
 6050POPC   D2A75724  38.715  12.577   6.638
 6050POPC   C3A75725  38.717  12.754   7.057
 6050POPC   C4A75726  38.653  13.212   7.217
 6050POPC   C1B75727  37.932  12.886   6.168
 6050POPC   C2B75728  37.996  12.917   6.586
 6050POPC   C3B75729  38.231  12.869   6.935
 6050POPC   C4B75730  38.124  13.190   7.223
 6051POPC   NC375731  10.674  13.867   5.374
 6051POPC   PO475732  10.127  13.434   5.212
 6051POPC   GL175733  10.337  13.473   5.666
 6051POPC   GL275734  10.716  13.558   5.763
 6051POPC   C1A75735  10.440  13.401   6.148
 6051POPC   D2A75736  10.529  13.568   6.548
 6051POPC   C3A75737  10.505  13.365   6.961
 6051POPC   C4A75738  10.434  13.710   7.268
 6051POPC   C1B75739  10.906  13.654   6.183
 6051POPC   C2B75740  10.961  13.882   6.578
 6051POPC   C3B75741  10.810  13.777   6.927
 6051POPC   C4B75742  10.925  13.533   7.262
 6052POPC   NC375743  12.890  29.480   5.342
 6052POPC   PO475744  13.210  28.931   5.356
 6052POPC   GL175745  13.038  28.890   5.759
 6052POPC   GL275746  12.689  28.936   5.687
 6052POPC   C1A75747  12.915  29.197   6.103
 6052POPC   D2A75748  13.039  29.096   6.549
 6052POPC   C3A75749  13.204  29.395   6.868
 6052POPC   C4A75750  13.015  29.270   7.224
 6052POPC   C1B75751  12.679  28.737   6.101
 6052POPC   C2B75752  12.688  28.674   6.541
 6052POPC   C3B75753  12.618  28.925   6.907
 6052POPC   C4B75754  12.508  29.252   7.169
 6053POPC   NC375755   2.601   3.160   5.518
 6053POPC   PO475756   2.861   2.523   5.361
 6053POPC   GL175757   2.646   2.598   5.759
 6053POPC   GL275758   2.335   2.802   5.776
 6053POPC   C1A75759   2.633   2.537   6.212
 6053POPC   D2A75760   2.726   2.309   6.597
 6053POPC   C3A75761   2.647   2.582   6.953
 6053POPC   C4A75762   2.948   2.714   7.247
 6053POPC   C1B75763   2.405   3.005   6.195
 6053POPC   C2B75764   2.605   2.961   6.599
 6053POPC   C3B75765   2.691   3.106   7.026
 6053POPC   C4B75766   2.396   3.229   7.348
 6054POPC   NC375767  21.051   1.735   5.548
 6054POPC   PO475768  21.743   1.945   5.514
 6054POPC   GL175769  21.468   1.925   5.805
 6054POPC   GL275770  21.239   2.177   5.717
 6054POPC   C1A75771  21.531   1.806   6.205
 6054POPC   D2A75772  21.373   1.890   6.579
 6054POPC   C3A75773  21.579   2.078   6.909
 6054POPC   C4A75774  21.454   1.908   7.293
 6054POPC   C1B75775  21.070   2.042   6.138
 6054POPC   C2B75776  20.990   2.230   6.528
 6054POPC   C3B75777  21.069   2.088   6.949
 6054POPC   C4B75778  21.182   2.441   7.153
 6055POPC   NC375779  41.786  44.116   5.074
 6055POPC   PO475780  41.500  43.624   5.442
 6055POPC   GL175781  41.452  43.727   5.857
 6055POPC   GL275782  41.126  43.889   5.864
 6055POPC   C1A75783  41.684  43.900   6.219
 6055POPC   D2A75784  41.880  44.135   6.569
 6055POPC   C3A75785  41.735  43.934   6.919
 6055POPC   C4A75786  41.834  43.794   7.298
 6055POPC   C1B75787  41.172  43.853   6.273
 6055POPC   C2B75788  41.315  44.060   6.592
 6055POPC   C3B75789  41.222  43.905   6.965
 6055POPC   C4B75790  41.354  44.024   7.329
 6056POPC   NC375791  16.218  35.865   5.281
 6056POPC   PO475792  15.891  36.372   5.535
 6056POPC   GL175793  15.914  35.926   5.689
 6056POPC   GL275794  16.263  35.789   5.784
 6056POPC   C1A75795  15.868  35.830   6.121
 6056POPC   D2A75796  16.023  35.657   6.515
 6056POPC   C3A75797  15.953  35.928   6.848
 6056POPC   C4A75798  15.864  36.075   7.255
 6056POPC   C1B75799  16.402  35.916   6.216
 6056POPC   C2B75800  16.466  35.903   6.682
 6056POPC   C3B75801  16.367  36.024   7.135
 6056POPC   C4B75802  16.249  36.425   7.393
 6057POPC   NC375803  31.822  39.885   5.318
 6057POPC   PO475804  32.429  39.815   5.050
 6057POPC   GL175805  32.324  39.830   5.548
 6057POPC   GL275806  32.523  39.604   5.793
 6057POPC   C1A75807  32.112  39.949   5.998
 6057POPC   D2A75808  31.992  39.878   6.501
 6057POPC   C3A75809  32.073  40.140   6.908
 6057POPC   C4A75810  32.168  40.401   7.308
 6057POPC   C1B75811  32.561  39.786   6.227
 6057POPC   C2B75812  32.533  39.970   6.687
 6057POPC   C3B75813  32.525  39.974   7.187
 6057POPC   C4B75814  32.751  39.891   7.610
 6058POPC   NC375815   9.198  30.123   5.524
 6058POPC   PO475816   8.689  29.695   5.718
 6058POPC   GL175817   9.040  29.738   5.903
 6058POPC   GL275818   9.071  30.085   6.017
 6058POPC   C1A75819   9.074  29.646   6.296
 6058POPC   D2A75820   9.137  29.897   6.616
 6058POPC   C3A75821   9.036  29.697   6.953
 6058POPC   C4A75822   9.285  29.786   7.304
 6058POPC   C1B75823   8.752  30.064   6.322
 6058POPC   C2B75824   8.622  29.989   6.741
 6058POPC   C3B75825   8.672  30.009   7.165
 6058POPC   C4B75826   8.915  30.133   7.478
 6059POPC   NC375827   2.952  19.988   5.387
 6059POPC   PO475828   2.412  19.735   5.391
 6059POPC   GL175829   2.531  20.054   5.741
 6059POPC   GL275830   2.859  19.991   5.879
 6059POPC   C1A75831   2.562  20.231   6.203
 6059POPC   D2A75832   2.882  20.155   6.547
 6059POPC   C3A75833   2.674  20.131   6.930
 6059POPC   C4A75834   2.583  19.834   7.190
 6059POPC   C1B75835   3.013  19.635   6.078
 6059POPC   C2B75836   2.857  19.522   6.466
 6059POPC   C3B75837   2.929  19.665   6.855
 6059POPC   C4B75838   3.124  19.544   7.229
 6060POPC   NC375839  29.704  33.244   5.380
 6060POPC   PO475840  29.731  32.636   5.596
 6060POPC   GL175841  29.928  32.968   5.800
 6060POPC   GL275842  29.828  33.309   5.864
 6060POPC   C1A75843  30.015  32.868   6.203
 6060POPC   D2A75844  29.815  32.934   6.585
 6060POPC   C3A75845  30.055  32.927   6.955
 6060POPC   C4A75846  29.769  33.158   7.196
 6060POPC   C1B75847  30.240  33.301   6.087
 6060POPC   C2B75848  30.289  33.176   6.522
 6060POPC   C3B75849  30.043  33.410   6.814
 6060POPC   C4B75850  30.227  33.397   7.225
 6061POPC   NC375851  33.579  19.294   5.344
 6061POPC   PO475852  34.286  19.399   5.375
 6061POPC   GL175853  33.961  19.335   5.749
 6061POPC   GL275854  33.664  19.056   5.785
 6061POPC   C1A75855  33.986  19.131   6.173
 6061POPC   D2A75856  33.817  19.249   6.586
 6061POPC   C3A75857  33.989  19.158   7.008
 6061POPC   C4A75858  33.897  18.754   7.210
 6061POPC   C1B75859  33.488  19.245   6.159
 6061POPC   C2B75860  33.340  19.398   6.583
 6061POPC   C3B75861  33.487  19.208   6.990
 6061POPC   C4B75862  33.602  19.117   7.409
 6062POPC   NC375863   1.743  36.753   5.424
 6062POPC   PO475864   2.332  37.092   5.429
 6062POPC   GL175865   1.989  37.047   5.797
 6062POPC   GL275866   1.808  36.697   5.932
 6062POPC   C1A75867   2.060  37.014   6.261
 6062POPC   D2A75868   2.378  36.870   6.567
 6062POPC   C3A75869   2.218  36.921   6.994
 6062POPC   C4A75870   1.853  37.179   7.106
 6062POPC   C1B75871   1.823  36.567   6.397
 6062POPC   C2B75872   1.800  36.670   6.855
 6062POPC   C3B75873   1.693  36.720   7.292
 6062POPC   C4B75874   1.699  36.701   7.748
 6063POPC   NC375875  11.623  29.897   5.469
 6063POPC   PO475876  11.044  30.188   5.514
 6063POPC   GL175877  11.256  29.981   5.815
 6063POPC   GL275878  11.239  29.614   5.719
 6063POPC   C1A75879  11.354  30.181   6.193
 6063POPC   D2A75880  11.214  30.414   6.572
 6063POPC   C3A75881  11.204  30.123   6.916
 6063POPC   C4A75882  10.946  30.102   7.272
 6063POPC   C1B75883  11.471  29.623   6.118
 6063POPC   C2B75884  11.415  29.772   6.525
 6063POPC   C3B75885  11.349  29.619   6.919
 6063POPC   C4B75886  11.322  29.760   7.299
 6064POPC   NC375887   3.745  39.104   5.100
 6064POPC   PO475888   3.542  39.600   5.491
 6064POPC   GL175889   3.614  39.220   5.709
 6064POPC   GL275890   3.958  39.266   5.767
 6064POPC   C1A75891   3.559  39.068   6.142
 6064POPC   D2A75892   3.501  38.968   6.581
 6064POPC   C3A75893   3.860  39.028   6.863
 6064POPC   C4A75894   3.756  38.981   7.269
 6064POPC   C1B75895   3.783  39.526   6.100
 6064POPC   C2B75896   3.798  39.382   6.499
 6064POPC   C3B75897   3.533  39.436   6.840
 6064POPC   C4B75898   3.606  39.788   7.082
 6065POPC   NC375899  38.528  39.048   5.628
 6065POPC   PO475900  38.172  39.542   5.695
 6065POPC   GL175901  38.113  39.135   5.894
 6065POPC   GL275902  37.881  38.856   5.773
 6065POPC   C1A75903  38.280  39.135   6.331
 6065POPC   D2A75904  38.590  39.503   6.481
 6065POPC   C3A75905  38.744  39.444   6.887
 6065POPC   C4A75906  38.456  39.272   7.118
 6065POPC   C1B75907  38.144  38.672   6.101
 6065POPC   C2B75908  38.063  38.673   6.521
 6065POPC   C3B75909  38.121  38.973   6.839
 6065POPC   C4B75910  38.128  38.948   7.275
 6066POPC   NC375911  25.765   9.799   5.553
 6066POPC   PO475912  26.253   9.642   5.210
 6066POPC   GL175913  26.187   9.769   5.796
 6066POPC   GL275914  25.926   9.914   6.016
 6066POPC   C1A75915  26.120   9.492   6.204
 6066POPC   D2A75916  26.300   9.406   6.609
 6066POPC   C3A75917  26.181   9.705   6.907
 6066POPC   C4A75918  25.933   9.675   7.259
 6066POPC   C1B75919  25.742   9.870   6.394
 6066POPC   C2B75920  25.810  10.057   6.801
 6066POPC   C3B75921  25.646  10.129   7.204
 6066POPC   C4B75922  25.752  10.157   7.628
 6067POPC   NC375923  15.582  35.119   5.477
 6067POPC   PO475924  16.290  35.355   5.413
 6067POPC   GL175925  15.936  35.368   5.768
 6067POPC   GL275926  15.846  35.001   5.887
 6067POPC   C1A75927  15.724  35.361   6.206
 6067POPC   D2A75928  15.602  35.361   6.653
 6067POPC   C3A75929  15.867  35.427   6.981
 6067POPC   C4A75930  15.540  35.337   7.282
 6067POPC   C1B75931  16.195  35.102   6.142
 6067POPC   C2B75932  16.260  35.203   6.585
 6067POPC   C3B75933  16.195  35.009   6.977
 6067POPC   C4B75934  15.963  35.081   7.337
 6068POPC   NC375935  19.237  21.398   5.263
 6068POPC   PO475936  18.795  21.629   5.622
 6068POPC   GL175937  18.927  21.198   5.701
 6068POPC   GL275938  19.206  21.339   5.803
 6068POPC   C1A75939  18.913  21.031   6.145
 6068POPC   D2A75940  18.698  21.267   6.503
 6068POPC   C3A75941  18.895  21.394   6.912
 6068POPC   C4A75942  18.881  21.167   7.297
 6068POPC   C1B75943  19.127  21.501   6.214
 6068POPC   C2B75944  19.332  21.392   6.584
 6068POPC   C3B75945  19.404  21.616   6.940
 6068POPC   C4B75946  19.308  21.441   7.320
 6069POPC   NC375947  32.300   1.314   5.513
 6069POPC   PO475948  32.721   0.803   5.408
 6069POPC   GL175949  32.497   0.951   5.820
 6069POPC   GL275950  32.117   0.936   5.845
 6069POPC   C1A75951  32.338   1.299   6.164
 6069POPC   D2A75952  32.275   1.537   6.563
 6069POPC   C3A75953  31.963   1.468   6.887
 6069POPC   C4A75954  32.032   1.316   7.300
 6069POPC   C1B75955  32.293   0.800   6.267
 6069POPC   C2B75956  32.228   1.027   6.654
 6069POPC   C3B75957  32.443   1.227   6.985
 6069POPC   C4B75958  32.450   0.989   7.360
 6070POPC   NC375959  25.689  23.875   5.355
 6070POPC   PO475960  26.203  23.554   5.564
 6070POPC   GL175961  26.016  23.844   5.868
 6070POPC   GL275962  25.867  23.545   5.953
 6070POPC   C1A75963  25.714  23.895   6.267
 6070POPC   D2A75964  25.559  23.910   6.708
 6070POPC   C3A75965  25.945  23.925   6.936
 6070POPC   C4A75966  26.160  24.087   7.275
 6070POPC   C1B75967  26.113  23.460   6.255
 6070POPC   C2B75968  25.885  23.503   6.607
 6070POPC   C3B75969  25.831  23.439   7.024
 6070POPC   C4B75970  26.209  23.558   7.229
 6071POPC   NC375971   7.437  12.311   5.347
 6071POPC   PO475972   7.741  11.662   5.571
 6071POPC   GL175973   7.443  11.773   5.872
 6071POPC   GL275974   7.422  12.128   5.827
 6071POPC   C1A75975   7.463  11.918   6.316
 6071POPC   D2A75976   7.201  12.063   6.657
 6071POPC   C3A75977   7.173  11.889   7.079
 6071POPC   C4A75978   7.313  12.059   7.443
 6071POPC   C1B75979   7.612  12.385   6.146
 6071POPC   C2B75980   7.688  12.331   6.593
 6071POPC   C3B75981   7.564  12.234   7.028
 6071POPC   C4B75982   7.677  12.407   7.455
 6072POPC   NC375983  34.727  23.055   5.480
 6072POPC   PO475984  34.142  22.849   5.323
 6072POPC   GL175985  34.277  22.987   5.766
 6072POPC   GL275986  34.543  22.761   5.885
 6072POPC   C1A75987  34.512  23.150   6.179
 6072POPC   D2A75988  34.697  22.901   6.517
 6072POPC   C3A75989  34.687  23.085   6.912
 6072POPC   C4A75990  34.368  22.960   7.174
 6072POPC   C1B75991  34.868  22.565   6.138
 6072POPC   C2B75992  34.967  22.434   6.546
 6072POPC   C3B75993  35.029  22.669   6.879
 6072POPC   C4B75994  34.870  22.743   7.237
 6073POPC   NC375995  30.312  19.734   5.699
 6073POPC   PO475996  29.717  19.679   5.436
 6073POPC   GL175997  29.814  19.750   5.830
 6073POPC   GL275998  29.954  19.388   5.822
 6073POPC   C1A75999  29.976  20.011   6.223
 6073POPC   D2A76000  29.932  20.078   6.677
 6073POPC   C3A76001  30.101  20.210   7.068
 6073POPC   C4A76002  29.942  20.002   7.433
 6073POPC   C1B76003  29.898  19.500   6.248
 6073POPC   C2B76004  30.089  19.558   6.635
 6073POPC   C3B76005  29.962  19.686   7.029
 6073POPC   C4B76006  29.715  19.503   7.341
 6074POPC   NC376007  40.417  17.069   5.564
 6074POPC   PO476008  39.956  16.524   5.392
 6074POPC   GL176009  39.870  16.747   5.770
 6074POPC   GL276010  40.154  16.747   5.955
 6074POPC   C1A76011  39.682  16.858   6.138
 6074POPC   D2A76012  39.880  16.713   6.508
 6074POPC   C3A76013  39.694  16.835   6.864
 6074POPC   C4A76014  39.860  16.811   7.258
 6074POPC   C1B76015  40.339  16.424   6.252
 6074POPC   C2B76016  40.377  16.582   6.675
 6074POPC   C3B76017  40.310  16.632   7.110
 6074POPC   C4B76018  40.349  16.495   7.556
 6075POPC   NC376019  20.315   8.799   5.530
 6075POPC   PO476020  20.944   8.771   5.435
 6075POPC   GL176021  20.869   8.930   5.827
 6075POPC   GL276022  20.542   8.836   5.988
 6075POPC   C1A76023  20.947   9.011   6.242
 6075POPC   D2A76024  20.720   8.812   6.520
 6075POPC   C3A76025  20.897   8.908   6.890
 6075POPC   C4A76026  20.756   8.814   7.286
 6075POPC   C1B76027  20.334   9.086   6.320
 6075POPC   C2B76028  20.293   9.025   6.793
 6075POPC   C3B76029  20.368   9.174   7.227
 6075POPC   C4B76030  20.188   9.289   7.648
 6076POPC   NC376031  38.953  33.111   5.532
 6076POPC   PO476032  39.608  33.225   5.493
 6076POPC   GL176033  39.499  32.929   5.827
 6076POPC   GL276034  39.146  32.865   5.901
 6076POPC   C1A76035  39.458  32.961   6.267
 6076POPC   D2A76036  39.139  32.901   6.546
 6076POPC   C3A76037  39.327  32.892   6.913
 6076POPC   C4A76038  39.530  32.854   7.283
 6076POPC   C1B76039  39.030  33.238   6.173
 6076POPC   C2B76040  38.888  33.473   6.516
 6076POPC   C3B76041  38.946  33.291   6.915
 6076POPC   C4B76042  39.101  33.116   7.324
 6077POPC   NC376043  19.568  15.147   5.426
 6077POPC   PO476044  20.048  14.724   5.514
 6077POPC   GL176045  19.951  15.093   5.808
 6077POPC   GL276046  20.059  15.473   5.884
 6077POPC   C1A76047  19.730  15.080   6.220
 6077POPC   D2A76048  19.576  14.883   6.620
 6077POPC   C3A76049  19.686  14.982   7.070
 6077POPC   C4A76050  19.725  14.830   7.514
 6077POPC   C1B76051  20.147  15.372   6.307
 6077POPC   C2B76052  20.034  15.189   6.714
 6077POPC   C3B76053  20.201  15.048   7.122
 6077POPC   C4B76054  20.038  15.209   7.483
 6078POPC   NC376055  35.975  18.199   4.970
 6078POPC   PO476056  36.208  18.664   5.353
 6078POPC   GL176057  36.211  18.494   5.767
 6078POPC   GL276058  36.048  18.174   5.683
 6078POPC   C1A76059  36.329  18.600   6.226
 6078POPC   D2A76060  36.100  18.620   6.631
 6078POPC   C3A76061  36.263  18.588   7.061
 6078POPC   C4A76062  36.215  18.575   7.555
 6078POPC   C1B76063  35.891  18.247   6.122
 6078POPC   C2B76064  35.758  18.043   6.507
 6078POPC   C3B76065  35.873  18.197   6.893
 6078POPC   C4B76066  36.022  18.162   7.302
 6079POPC   NC376067   7.660  31.908   5.438
 6079POPC   PO476068   6.930  32.043   5.500
 6079POPC   GL176069   7.285  32.073   5.771
 6079POPC   GL276070   7.416  32.385   5.645
 6079POPC   C1A76071   7.467  31.978   6.200
 6079POPC   D2A76072   7.741  31.941   6.578
 6079POPC   C3A76073   7.535  32.073   6.912
 6079POPC   C4A76074   7.756  32.185   7.252
 6079POPC   C1B76075   7.368  32.485   6.078
 6079POPC   C2B76076   7.538  32.433   6.507
 6079POPC   C3B76077   7.542  32.580   6.926
 6079POPC   C4B76078   7.376  32.524   7.290
 6080POPC   NC376079  34.871  24.671   5.448
 6080POPC   PO476080  34.244  24.247   5.414
 6080POPC   GL176081  34.586  24.206   5.705
 6080POPC   GL276082  34.583  24.547   5.840
 6080POPC   C1A76083  34.775  24.175   6.139
 6080POPC   D2A76084  34.681  24.360   6.567
 6080POPC   C3A76085  34.726  24.058   6.908
 6080POPC   C4A76086  34.551  23.982   7.308
 6080POPC   C1B76087  34.917  24.762   6.125
 6080POPC   C2B76088  35.081  24.787   6.572
 6080POPC   C3B76089  34.898  24.672   6.948
 6080POPC   C4B76090  34.857  24.409   7.291
 6081POPC   NC376091  32.511   6.168   5.262
 6081POPC   PO476092  31.940   5.757   5.284
 6081POPC   GL176093  31.885   5.780   5.794
 6081POPC   GL276094  32.209   5.796   6.039
 6081POPC   C1A76095  31.767   6.009   6.173
 6081POPC   D2A76096  32.031   6.181   6.509
 6081POPC   C3A76097  31.888   6.102   6.943
 6081POPC   C4A76098  31.752   6.332   7.280
 6081POPC   C1B76099  32.513   6.081   6.307
 6081POPC   C2B76100  32.577   6.295   6.736
 6081POPC   C3B76101  32.574   6.028   7.120
 6081POPC   C4B76102  32.343   5.597   7.117
 6082POPC   NC376103  18.068  25.783   5.307
 6082POPC   PO476104  18.125  25.120   5.348
 6082POPC   GL176105  18.182  25.288   5.802
 6082POPC   GL276106  18.549  25.189   5.827
 6082POPC   C1A76107  18.194  25.453   6.274
 6082POPC   D2A76108  18.169  25.498   6.759
 6082POPC   C3A76109  18.088  25.150   7.066
 6082POPC   C4A76110  18.045  25.101   7.527
 6082POPC   C1B76111  18.698  25.411   6.177
 6082POPC   C2B76112  18.577  25.239   6.575
 6082POPC   C3B76113  18.586  25.115   6.978
 6082POPC   C4B76114  18.497  25.274   7.371
 6083POPC   NC376115  13.536   5.237   5.382
 6083POPC   PO476116  13.742   4.691   5.532
 6083POPC   GL176117  13.519   4.969   5.827
 6083POPC   GL276118  13.555   5.352   5.865
 6083POPC   C1A76119  13.412   5.077   6.282
 6083POPC   D2A76120  13.342   5.061   6.741
 6083POPC   C3A76121  13.671   4.988   7.025
 6083POPC   C4A76122  13.670   5.060   7.489
 6083POPC   C1B76123  13.710   5.496   6.263
 6083POPC   C2B76124  13.598   5.492   6.692
 6083POPC   C3B76125  13.625   5.465   7.120
 6083POPC   C4B76126  13.998   5.453   7.397
 6084POPC   NC376127  18.364  33.258   5.269
 6084POPC   PO476128  17.997  32.759   5.500
 6084POPC   GL176129  18.143  33.096   5.760
 6084POPC   GL276130  18.483  33.227   5.769
 6084POPC   C1A76131  18.218  32.971   6.184
 6084POPC   D2A76132  17.979  32.814   6.523
 6084POPC   C3A76133  18.201  32.838   6.904
 6084POPC   C4A76134  18.157  32.868   7.348
 6084POPC   C1B76135  18.437  33.422   6.189
 6084POPC   C2B76136  18.463  33.247   6.651
 6084POPC   C3B76137  18.268  33.327   7.092
 6084POPC   C4B76138  18.444  33.257   7.551
 6085POPC   NC376139   9.865   1.630   5.115
 6085POPC   PO476140   9.687   0.956   5.284
 6085POPC   GL176141   9.861   1.163   5.678
 6085POPC   GL276142  10.096   0.971   5.851
 6085POPC   C1A76143   9.747   1.374   6.070
 6085POPC   D2A76144   9.716   1.594   6.481
 6085POPC   C3A76145   9.747   1.324   6.872
 6085POPC   C4A76146   9.830   1.320   7.325
 6085POPC   C1B76147   9.864   0.836   6.239
 6085POPC   C2B76148   9.790   0.713   6.689
 6085POPC   C3B76149   9.841   0.835   7.147
 6085POPC   C4B76150   9.810   0.917   7.638
 6086POPC   NC376151  35.012  43.487   5.510
 6086POPC   PO476152  35.532  43.161   5.231
 6086POPC   GL176153  35.445  43.033   5.685
 6086POPC   GL276154  35.320  43.337   5.886
 6086POPC   C1A76155  35.341  42.889   6.136
 6086POPC   D2A76156  35.277  43.085   6.553
 6086POPC   C3A76157  35.407  42.977   6.975
 6086POPC   C4A76158  35.153  43.045   7.356
 6086POPC   C1B76159  35.345  43.618   6.267
 6086POPC   C2B76160  35.492  43.531   6.695
 6086POPC   C3B76161  35.327  43.483   7.102
 6086POPC   C4B76162  35.466  43.422   7.529
 6087POPC   NC376163  42.584  14.966   5.168
 6087POPC   PO476164  42.446  15.631   5.273
 6087POPC   GL176165  42.485  15.292   5.638
 6087POPC   GL276166  42.688  14.951   5.696
 6087POPC   C1A76167  42.368  15.160   6.081
 6087POPC   D2A76168  42.489  15.453   6.414
 6087POPC   C3A76169  42.428  15.382   6.858
 6087POPC   C4A76170  42.261  15.094   7.180
 6087POPC   C1B76171  42.864  15.083   6.128
 6087POPC   C2B76172  42.787  15.073   6.558
 6087POPC   C3B76173  42.666  14.897   6.900
 6087POPC   C4B76174  42.761  15.006   7.294
 6088POPC   NC376175  39.407  28.462   5.563
 6088POPC   PO476176  38.768  28.582   5.361
 6088POPC   GL176177  38.957  28.550   5.765
 6088POPC   GL276178  39.049  28.169   5.764
 6088POPC   C1A76179  38.937  28.394   6.171
 6088POPC   D2A76180  38.942  28.325   6.568
 6088POPC   C3A76181  39.229  28.553   6.813
 6088POPC   C4A76182  39.236  28.503   7.247
 6088POPC   C1B76183  39.398  28.185   6.137
 6088POPC   C2B76184  39.401  28.075   6.557
 6088POPC   C3B76185  39.312  28.069   6.963
 6088POPC   C4B76186  39.672  28.246   7.167
 6089POPC   NC376187  17.973   9.567   5.268
 6089POPC   PO476188  18.424  10.080   5.340
 6089POPC   GL176189  18.388   9.826   5.731
 6089POPC   GL276190  18.587   9.531   5.733
 6089POPC   C1A76191  18.387   9.804   6.202
 6089POPC   D2A76192  18.188   9.824   6.611
 6089POPC   C3A76193  18.448   9.897   6.969
 6089POPC   C4A76194  18.462  10.259   7.221
 6089POPC   C1B76195  18.641   9.369   6.151
 6089POPC   C2B76196  18.635   9.525   6.593
 6089POPC   C3B76197  18.501   9.349   6.971
 6089POPC   C4B76198  18.279   9.556   7.317
 6090POPC   NC376199  42.796  11.612   5.445
 6090POPC   PO476200  42.993  12.225   5.356
 6090POPC   GL176201  42.970  12.146   5.799
 6090POPC   GL276202  43.115  11.826   5.847
 6090POPC   C1A76203  43.169  12.187   6.221
 6090POPC   D2A76204  43.053  11.985   6.608
 6090POPC   C3A76205  43.155  12.126   7.031
 6090POPC   C4A76206  43.426  11.853   7.283
 6090POPC   C1B76207  42.740  11.722   6.097
 6090POPC   C2B76208  42.606  11.556   6.515
 6090POPC   C3B76209  42.852  11.624   6.910
 6090POPC   C4B76210  42.960  11.614   7.336
 6091POPC   NC376211  44.752   9.133   5.486
 6091POPC   PO476212   0.127   8.608   5.497
 6091POPC   GL176213  44.815   8.725   5.820
 6091POPC   GL276214  44.455   8.803   5.816
 6091POPC   C1A76215  44.809   9.016   6.168
 6091POPC   D2A76216  44.630   9.146   6.579
 6091POPC   C3A76217  44.749   9.039   6.971
 6091POPC   C4A76218  44.515   9.129   7.383
 6091POPC   C1B76219  44.524   8.613   6.248
 6091POPC   C2B76220  44.926   8.650   6.519
 6091POPC   C3B76221  44.998   8.540   6.955
 6091POPC   C4B76222  44.836   8.736   7.351
 6092POPC   NC376223  10.895  43.918   5.270
 6092POPC   PO476224  11.534  43.650   5.206
 6092POPC   GL176225  11.490  43.881   5.635
 6092POPC   GL276226  11.154  43.861   5.838
 6092POPC   C1A76227  11.619  43.900   6.098
 6092POPC   D2A76228  11.693  43.688   6.518
 6092POPC   C3A76229  11.558  43.806   6.897
 6092POPC   C4A76230  11.635  43.910   7.281
 6092POPC   C1B76231  11.141  44.027   6.297
 6092POPC   C2B76232  11.169  44.091   6.766
 6092POPC   C3B76233  11.192  44.178   7.226
 6092POPC   C4B76234  10.983  44.162   7.640
 6093POPC   NC376235  14.576  33.904   5.481
 6093POPC   PO476236  14.183  33.408   5.699
 6093POPC   GL176237  14.446  33.651   5.910
 6093POPC   GL276238  14.196  33.911   5.871
 6093POPC   C1A76239  14.597  33.900   6.261
 6093POPC   D2A76240  14.735  33.921   6.717
 6093POPC   C3A76241  14.471  33.906   7.076
 6093POPC   C4A76242  14.410  33.587   7.415
 6093POPC   C1B76243  14.038  34.183   6.188
 6093POPC   C2B76244  14.240  34.149   6.603
 6093POPC   C3B76245  14.073  34.293   7.012
 6093POPC   C4B76246  14.131  34.113   7.402
 6094POPC   NC376247  24.621  35.605   5.374
 6094POPC   PO476248  24.164  35.043   5.428
 6094POPC   GL176249  24.491  35.147   5.692
 6094POPC   GL276250  24.440  35.463   5.827
 6094POPC   C1A76251  24.525  35.100   6.147
 6094POPC   D2A76252  24.487  35.363   6.502
 6094POPC   C3A76253  24.602  35.103   6.840
 6094POPC   C4A76254  24.595  34.907   7.234
 6094POPC   C1B76255  24.798  35.521   6.069
 6094POPC   C2B76256  24.951  35.570   6.477
 6094POPC   C3B76257  24.761  35.675   6.864
 6094POPC   C4B76258  24.606  35.461   7.217
 6095POPC   NC376259  43.502  14.602   5.371
 6095POPC   PO476260  43.100  14.176   5.811
 6095POPC   GL176261  43.090  14.609   6.018
 6095POPC   GL276262  43.403  14.625   5.895
 6095POPC   C1A76263  43.109  14.713   6.435
 6095POPC   D2A76264  43.044  14.380   6.662
 6095POPC   C3A76265  42.886  14.455   7.042
 6095POPC   C4A76266  42.813  14.184   7.355
 6095POPC   C1B76267  43.448  14.377   6.286
 6095POPC   C2B76268  43.577  14.459   6.659
 6095POPC   C3B76269  43.411  14.335   7.014
 6095POPC   C4B76270  43.279  14.447   7.381
 6096POPC   NC376271   8.234  26.410   5.201
 6096POPC   PO476272   8.080  25.878   5.650
 6096POPC   GL176273   7.941  26.173   5.958
 6096POPC   GL276274   8.143  25.975   6.167
 6096POPC   C1A76275   7.983  26.400   6.382
 6096POPC   D2A76276   8.300  26.351   6.712
 6096POPC   C3A76277   8.241  26.008   6.999
 6096POPC   C4A76278   8.149  26.002   7.441
 6096POPC   C1B76279   8.533  26.041   6.356
 6096POPC   C2B76280   8.796  26.209   6.682
 6096POPC   C3B76281   8.769  25.970   7.053
 6096POPC   C4B76282   8.521  25.662   7.302
 6097POPC   NC376283   6.582   2.109   5.404
 6097POPC   PO476284   6.437   1.454   5.514
 6097POPC   GL176285   6.583   1.758   5.807
 6097POPC   GL276286   6.903   1.977   5.791
 6097POPC   C1A76287   6.386   1.960   6.124
 6097POPC   D2A76288   6.274   2.210   6.462
 6097POPC   C3A76289   6.337   2.105   6.910
 6097POPC   C4A76290   6.556   1.964   7.260
 6097POPC   C1B76291   6.861   2.003   6.231
 6097POPC   C2B76292   6.674   1.793   6.582
 6097POPC   C3B76293   6.916   1.836   6.945
 6097POPC   C4B76294   7.025   2.208   7.159
 6098POPC   NC376295  20.617  40.984   5.408
 6098POPC   PO476296  20.873  40.426   5.047
 6098POPC   GL176297  20.798  40.538   5.607
 6098POPC   GL276298  20.704  40.869   5.868
 6098POPC   C1A76299  20.613  40.435   6.065
 6098POPC   D2A76300  20.522  40.724   6.433
 6098POPC   C3A76301  20.590  40.579   6.853
 6098POPC   C4A76302  20.515  40.796   7.229
 6098POPC   C1B76303  20.993  40.834   6.199
 6098POPC   C2B76304  21.151  40.857   6.621
 6098POPC   C3B76305  20.949  40.934   7.006
 6098POPC   C4B76306  20.900  41.087   7.441
 6099POPC   NC376307   6.122  37.879   5.495
 6099POPC   PO476308   5.883  37.233   5.524
 6099POPC   GL176309   5.830  37.540   5.826
 6099POPC   GL276310   5.497  37.403   5.883
 6099POPC   C1A76311   6.018  37.783   6.179
 6099POPC   D2A76312   6.249  37.989   6.521
 6099POPC   C3A76313   6.152  37.713   6.837
 6099POPC   C4A76314   5.824  37.848   7.112
 6099POPC   C1B76315   5.665  37.396   6.295
 6099POPC   C2B76316   5.671  37.679   6.636
 6099POPC   C3B76317   5.420  37.550   6.989
 6099POPC   C4B76318   5.482  37.290   7.316
 6100POPC   NC376319  41.782   5.576   5.561
 6100POPC   PO476320  42.093   4.935   5.498
 6100POPC   GL176321  41.809   5.067   5.849
 6100POPC   GL276322  41.459   5.257   5.827
 6100POPC   C1A76323  41.856   5.147   6.290
 6100POPC   D2A76324  41.656   5.225   6.672
 6100POPC   C3A76325  41.671   4.908   6.967
 6100POPC   C4A76326  41.634   5.027   7.389
 6100POPC   C1B76327  41.330   5.308   6.259
 6100POPC   C2B76328  41.110   5.210   6.644
 6100POPC   C3B76329  41.266   5.239   7.043
 6100POPC   C4B76330  41.259   5.380   7.459
 6101POPC   NC376331  24.410  18.961   5.313
 6101POPC   PO476332  24.358  19.598   5.489
 6101POPC   GL176333  24.566  19.215   5.738
 6101POPC   GL276334  24.366  18.872   5.801
 6101POPC   C1A76335  24.793  18.997   6.090
 6101POPC   D2A76336  24.730  19.184   6.507
 6101POPC   C3A76337  24.664  19.027   6.935
 6101POPC   C4A76338  24.659  19.220   7.324
 6101POPC   C1B76339  24.283  18.990   6.201
 6101POPC   C2B76340  24.310  18.868   6.593
 6101POPC   C3B76341  24.166  18.918   7.016
 6101POPC   C4B76342  24.213  18.976   7.448
 6102POPC   NC376343  17.239  18.477   5.565
 6102POPC   PO476344  17.697  18.111   5.200
 6102POPC   GL176345  17.637  18.038   5.675
 6102POPC   GL276346  17.521  18.286   5.929
 6102POPC   C1A76347  17.852  17.963   6.096
 6102POPC   D2A76348  17.719  18.285   6.407
 6102POPC   C3A76349  17.559  18.160   6.755
 6102POPC   C4A76350  17.544  18.337   7.121
 6102POPC   C1B76351  17.257  18.475   6.241
 6102POPC   C2B76352  17.096  18.314   6.621
 6102POPC   C3B76353  17.103  18.528   7.012
 6102POPC   C4B76354  17.212  18.548   7.453
 6103POPC   NC376355  19.841  25.614   5.312
 6103POPC   PO476356  19.835  24.998   5.419
 6103POPC   GL176357  19.728  25.222   5.822
 6103POPC   GL276358  19.589  24.905   5.934
 6103POPC   C1A76359  19.577  25.247   6.284
 6103POPC   D2A76360  19.549  24.940   6.595
 6103POPC   C3A76361  19.680  25.123   6.971
 6103POPC   C4A76362  19.543  25.470   7.189
 6103POPC   C1B76363  19.979  24.939   6.171
 6103POPC   C2B76364  20.043  25.075   6.601
 6103POPC   C3B76365  20.186  24.974   7.014
 6103POPC   C4B76366  20.286  25.109   7.404
 6104POPC   NC376367  39.511   7.964   5.477
 6104POPC   PO476368  38.808   8.167   5.368
 6104POPC   GL176369  39.075   8.165   5.732
 6104POPC   GL276370  39.148   7.807   5.815
 6104POPC   C1A76371  39.325   8.165   6.143
 6104POPC   D2A76372  39.519   7.996   6.534
 6104POPC   C3A76373  39.286   8.188   6.867
 6104POPC   C4A76374  39.207   8.467   7.247
 6104POPC   C1B76375  38.863   7.918   6.129
 6104POPC   C2B76376  38.739   8.031   6.508
 6104POPC   C3B76377  38.828   7.899   6.908
 6104POPC   C4B76378  39.035   7.991   7.276
 6105POPC   NC376379  33.934  20.211   5.523
 6105POPC   PO476380  33.594  19.711   5.524
 6105POPC   GL176381  33.698  19.895   5.880
 6105POPC   GL276382  34.024  19.844   5.896
 6105POPC   C1A76383  33.691  19.687   6.267
 6105POPC   D2A76384  33.554  19.866   6.619
 6105POPC   C3A76385  33.659  19.677   6.962
 6105POPC   C4A76386  33.730  19.943   7.247
 6105POPC   C1B76387  33.987  20.094   6.307
 6105POPC   C2B76388  33.938  20.198   6.769
 6105POPC   C3B76389  34.152  20.192   7.171
 6105POPC   C4B76390  34.270  19.875   7.526
 6106POPC   NC376391   5.252   8.120   5.068
 6106POPC   PO476392   5.162   7.575   5.425
 6106POPC   GL176393   5.004   7.589   5.834
 6106POPC   GL276394   5.324   7.479   5.927
 6106POPC   C1A76395   4.937   7.487   6.283
 6106POPC   D2A76396   5.073   7.633   6.705
 6106POPC   C3A76397   5.116   7.361   7.065
 6106POPC   C4A76398   5.185   7.365   7.515
 6106POPC   C1B76399   5.439   7.577   6.341
 6106POPC   C2B76400   5.517   7.357   6.739
 6106POPC   C3B76401   5.593   7.500   7.168
 6106POPC   C4B76402   5.761   7.289   7.543
 6107POPC   NC376403  14.532   1.054   5.434
 6107POPC   PO476404  13.928   1.004   5.278
 6107POPC   GL176405  14.168   1.205   5.727
 6107POPC   GL276406  14.297   0.846   5.876
 6107POPC   C1A76407  14.423   1.251   6.154
 6107POPC   D2A76408  14.738   1.062   6.475
 6107POPC   C3A76409  14.569   1.087   6.906
 6107POPC   C4A76410  14.190   1.377   7.001
 6107POPC   C1B76411  14.100   0.820   6.326
 6107POPC   C2B76412  14.010   0.951   6.763
 6107POPC   C3B76413  14.193   0.878   7.196
 6107POPC   C4B76414  14.107   0.917   7.676
 6108POPC   NC376415  26.985  33.680   5.400
 6108POPC   PO476416  26.532  33.122   5.594
 6108POPC   GL176417  26.644  33.522   5.817
 6108POPC   GL276418  26.747  33.873   5.848
 6108POPC   C1A76419  26.940  33.548   6.173
 6108POPC   D2A76420  26.749  33.684   6.545
 6108POPC   C3A76421  26.891  33.627   6.940
 6108POPC   C4A76422  26.608  33.557   7.239
 6108POPC   C1B76423  26.939  34.056   6.237
 6108POPC   C2B76424  26.964  34.125   6.693
 6108POPC   C3B76425  26.660  34.094   7.035
 6108POPC   C4B76426  26.548  34.046   7.470
 6109POPC   NC376427  44.244  43.709   5.631
 6109POPC   PO476428  44.550  44.090   5.132
 6109POPC   GL176429  44.657  44.036   5.574
 6109POPC   GL276430  44.364  44.218   5.673
 6109POPC   C1A76431  44.771  43.987   6.058
 6109POPC   D2A76432  44.909  43.783   6.499
 6109POPC   C3A76433  44.827  43.900   6.924
 6109POPC   C4A76434  44.522  43.834   7.215
 6109POPC   C1B76435  44.315  44.250   6.125
 6109POPC   C2B76436  44.499  44.082   6.514
 6109POPC   C3B76437  44.490  44.283   6.897
 6109POPC   C4B76438  44.469  44.337   7.280
 6110POPC   NC376439  12.845  11.192   5.584
 6110POPC   PO476440  13.434  11.566   5.512
 6110POPC   GL176441  13.113  11.540   5.869
 6110POPC   GL276442  12.969  11.856   5.999
 6110POPC   C1A76443  12.890  11.332   6.230
 6110POPC   D2A76444  13.012  11.387   6.685
 6110POPC   C3A76445  12.936  11.079   7.033
 6110POPC   C4A76446  12.737  11.017   7.432
 6110POPC   C1B76447  12.799  11.791   6.401
 6110POPC   C2B76448  12.540  11.635   6.750
 6110POPC   C3B76449  12.593  11.469   7.167
 6110POPC   C4B76450  12.590  11.467   7.627
 6111POPC   NC376451  31.824   6.873   5.441
 6111POPC   PO476452  31.597   6.274   5.539
 6111POPC   GL176453  31.612   6.608   5.850
 6111POPC   GL276454  31.917   6.817   5.947
 6111POPC   C1A76455  31.353   6.784   6.166
 6111POPC   D2A76456  31.159   6.624   6.521
 6111POPC   C3A76457  31.131   6.778   6.899
 6111POPC   C4A76458  31.349   6.660   7.274
 6111POPC   C1B76459  31.812   6.681   6.389
 6111POPC   C2B76460  31.650   6.683   6.831
 6111POPC   C3B76461  31.852   6.822   7.199
 6111POPC   C4B76462  31.780   6.745   7.616
 6112POPC   NC376463  41.408  40.888   5.271
 6112POPC   PO476464  41.741  40.450   5.483
 6112POPC   GL176465  41.517  40.706   5.766
 6112POPC   GL276466  41.343  41.043   5.736
 6112POPC   C1A76467  41.629  40.894   6.154
 6112POPC   D2A76468  41.787  40.982   6.548
 6112POPC   C3A76469  41.571  40.803   6.917
 6112POPC   C4A76470  41.751  40.698   7.313
 6112POPC   C1B76471  41.167  41.168   6.112
 6112POPC   C2B76472  41.281  41.056   6.505
 6112POPC   C3B76473  41.053  40.986   6.822
 6112POPC   C4B76474  41.188  41.013   7.188
 6113POPC   NC376475   9.633   3.891   5.349
 6113POPC   PO476476  10.142   3.440   5.433
 6113POPC   GL176477   9.889   3.696   5.777
 6113POPC   GL276478   9.523   3.703   5.831
 6113POPC   C1A76479   9.875   3.836   6.235
 6113POPC   D2A76480  10.001   3.607   6.607
 6113POPC   C3A76481   9.760   3.447   6.923
 6113POPC   C4A76482   9.962   3.618   7.262
 6113POPC   C1B76483   9.430   3.536   6.227
 6113POPC   C2B76484   9.457   3.741   6.619
 6113POPC   C3B76485   9.454   3.826   7.061
 6113POPC   C4B76486   9.471   3.504   7.356
 6114POPC   NC376487  40.000  21.829   5.486
 6114POPC   PO476488  39.715  22.488   5.556
 6114POPC   GL176489  40.022  22.233   5.830
 6114POPC   GL276490  40.372  22.338   5.899
 6114POPC   C1A76491  40.135  21.986   6.207
 6114POPC   D2A76492  40.053  21.860   6.636
 6114POPC   C3A76493  39.987  22.144   6.991
 6114POPC   C4A76494  39.745  22.082   7.404
 6114POPC   C1B76495  40.380  22.540   6.282
 6114POPC   C2B76496  40.372  22.554   6.705
 6114POPC   C3B76497  40.350  22.495   7.098
 6114POPC   C4B76498  40.245  22.241   7.430
 6115POPC   NC376499  20.225  27.578   5.287
 6115POPC   PO476500  19.630  27.724   5.244
 6115POPC   GL176501  19.585  27.730   5.659
 6115POPC   GL276502  19.940  27.812   5.682
 6115POPC   C1A76503  19.568  27.655   6.085
 6115POPC   D2A76504  19.804  27.523   6.431
 6115POPC   C3A76505  19.634  27.432   6.840
 6115POPC   C4A76506  19.793  27.523   7.216
 6115POPC   C1B76507  20.148  27.758   6.086
 6115POPC   C2B76508  20.223  27.821   6.533
 6115POPC   C3B76509  20.225  27.595   6.941
 6115POPC   C4B76510  20.267  27.791   7.348
 6116POPC   NC376511   3.809  17.804   5.485
 6116POPC   PO476512   3.288  17.444   5.488
 6116POPC   GL176513   3.507  17.455   5.924
 6116POPC   GL276514   3.837  17.530   5.901
 6116POPC   C1A76515   3.668  17.474   6.404
 6116POPC   D2A76516   3.839  17.242   6.788
 6116POPC   C3A76517   3.525  17.237   7.098
 6116POPC   C4A76518   3.195  17.569   7.096
 6116POPC   C1B76519   3.902  17.884   6.169
 6116POPC   C2B76520   3.813  18.000   6.605
 6116POPC   C3B76521   3.700  17.702   6.924
 6116POPC   C4B76522   3.803  17.621   7.359
 6117POPC   NC376523   0.295  25.508   5.350
 6117POPC   PO476524   0.717  25.057   5.321
 6117POPC   GL176525   0.547  24.985   5.709
 6117POPC   GL276526   0.743  24.716   5.790
 6117POPC   C1A76527   0.390  25.180   6.100
 6117POPC   D2A76528   0.358  25.405   6.487
 6117POPC   C3A76529   0.187  25.166   6.805
 6117POPC   C4A76530   0.177  25.119   7.227
 6117POPC   C1B76531   0.818  24.911   6.173
 6117POPC   C2B76532   0.669  24.999   6.581
 6117POPC   C3B76533   0.851  24.919   6.985
 6117POPC   C4B76534   0.592  24.843   7.333
 6118POPC   NC376535  12.633   6.776   5.470
 6118POPC   PO476536  13.167   6.334   5.255
 6118POPC   GL176537  12.937   6.384   5.667
 6118POPC   GL276538  13.162   6.621   5.827
 6118POPC   C1A76539  12.734   6.530   6.105
 6118POPC   D2A76540  12.654   6.637   6.564
 6118POPC   C3A76541  12.750   6.579   7.015
 6118POPC   C4A76542  12.482   6.322   7.315
 6118POPC   C1B76543  13.123   6.870   6.213
 6118POPC   C2B76544  13.110   6.880   6.671
 6118POPC   C3B76545  13.157   6.940   7.094
 6118POPC   C4B76546  13.084   6.693   7.428
 6119POPC   NC376547  21.869  22.569   5.557
 6119POPC   PO476548  21.328  22.142   5.530
 6119POPC   GL176549  21.338  22.267   5.928
 6119POPC   GL276550  21.551  22.548   5.965
 6119POPC   C1A76551  21.280  22.202   6.353
 6119POPC   D2A76552  21.008  22.069   6.632
 6119POPC   C3A76553  21.259  22.001   6.948
 6119POPC   C4A76554  21.384  22.234   7.243
 6119POPC   C1B76555  21.765  22.340   6.312
 6119POPC   C2B76556  21.700  22.275   6.754
 6119POPC   C3B76557  21.692  22.584   7.066
 6119POPC   C4B76558  21.744  22.585   7.511
 6120POPC   NC376559  38.007  34.628   5.524
 6120POPC   PO476560  37.483  34.273   5.517
 6120POPC   GL176561  37.577  34.560   5.836
 6120POPC   GL276562  37.312  34.828   5.757
 6120POPC   C1A76563  37.877  34.608   6.207
 6120POPC   D2A76564  38.086  34.639   6.634
 6120POPC   C3A76565  37.766  34.468   6.912
 6120POPC   C4A76566  37.482  34.318   7.212
 6120POPC   C1B76567  37.473  34.934   6.170
 6120POPC   C2B76568  37.680  34.988   6.543
 6120POPC   C3B76569  37.470  34.896   6.885
 6120POPC   C4B76570  37.563  34.835   7.259
 6121POPC   NC376571  20.790  28.459   5.371
 6121POPC   PO476572  20.288  28.022   5.319
 6121POPC   GL176573  20.429  28.116   5.772
 6121POPC   GL276574  20.808  28.198   5.823
 6121POPC   C1A76575  20.278  28.260   6.214
 6121POPC   D2A76576  20.250  28.364   6.666
 6121POPC   C3A76577  20.513  28.066   6.898
 6121POPC   C4A76578  20.898  28.000   7.102
 6121POPC   C1B76579  20.780  28.480   6.195
 6121POPC   C2B76580  20.732  28.582   6.647
 6121POPC   C3B76581  20.615  28.568   7.076
 6121POPC   C4B76582  20.857  28.618   7.462
 6122POPC   NC376583  21.630   3.181   5.330
 6122POPC   PO476584  21.165   3.569   5.627
 6122POPC   GL176585  21.394   3.528   5.934
 6122POPC   GL276586  21.452   3.871   5.951
 6122POPC   C1A76587  21.541   3.468   6.312
 6122POPC   D2A76588  21.624   3.647   6.671
 6122POPC   C3A76589  21.523   3.366   6.968
 6122POPC   C4A76590  21.452   3.416   7.397
 6122POPC   C1B76591  21.186   3.864   6.341
 6122POPC   C2B76592  21.160   3.846   6.804
 6122POPC   C3B76593  21.468   3.867   7.114
 6122POPC   C4B76594  21.180   4.043   7.329
 6123POPC   NC376595  27.040  25.450   5.399
 6123POPC   PO476596  26.798  26.132   5.460
 6123POPC   GL176597  26.791  25.907   5.791
 6123POPC   GL276598  27.092  25.808   5.757
 6123POPC   C1A76599  26.749  26.008   6.214
 6123POPC   D2A76600  26.795  26.276   6.549
 6123POPC   C3A76601  26.716  26.097   6.908
 6123POPC   C4A76602  26.584  26.020   7.285
 6123POPC   C1B76603  27.183  25.705   6.160
 6123POPC   C2B76604  27.232  25.992   6.480
 6123POPC   C3B76605  27.215  26.009   6.913
 6123POPC   C4B76606  27.131  25.705   7.245
 6124POPC   NC376607  34.348  43.760   5.518
 6124POPC   PO476608  34.988  43.929   5.393
 6124POPC   GL176609  34.770  43.861   5.778
 6124POPC   GL276610  34.485  44.037   5.948
 6124POPC   C1A76611  34.834  43.733   6.183
 6124POPC   D2A76612  34.686  43.928   6.540
 6124POPC   C3A76613  34.475  43.729   6.902
 6124POPC   C4A76614  34.519  43.720   7.359
 6124POPC   C1B76615  34.248  44.163   6.338
 6124POPC   C2B76616  34.226  44.205   6.796
 6124POPC   C3B76617  34.236  44.143   7.246
 6124POPC   C4B76618  34.335  44.178   7.710
 6125POPC   NC376619  33.701  32.770   5.494
 6125POPC   PO476620  33.785  33.407   5.494
 6125POPC   GL176621  33.829  33.111   5.842
 6125POPC   GL276622  33.488  33.017   5.883
 6125POPC   C1A76623  34.093  32.921   6.185
 6125POPC   D2A76624  34.364  32.802   6.569
 6125POPC   C3A76625  34.136  32.731   6.934
 6125POPC   C4A76626  33.885  33.024   7.142
 6125POPC   C1B76627  33.590  32.879   6.286
 6125POPC   C2B76628  33.617  32.971   6.715
 6125POPC   C3B76629  33.395  32.920   7.103
 6125POPC   C4B76630  33.313  32.602   7.420
 6126POPC   NC376631   9.732  39.326   5.403
 6126POPC   PO476632  10.111  38.831   5.455
 6126POPC   GL176633   9.858  39.019   5.819
 6126POPC   GL276634   9.478  39.167   5.807
 6126POPC   C1A76635   9.760  39.169   6.240
 6126POPC   D2A76636   9.748  39.426   6.603
 6126POPC   C3A76637   9.803  39.246   7.009
 6126POPC   C4A76638  10.142  39.097   7.230
 6126POPC   C1B76639   9.311  38.951   6.175
 6126POPC   C2B76640   9.346  39.125   6.574
 6126POPC   C3B76641   9.380  38.970   7.001
 6126POPC   C4B76642   9.459  39.145   7.428
 6127POPC   NC376643  34.062  24.682   5.508
 6127POPC   PO476644  33.488  24.427   5.441
 6127POPC   GL176645  33.718  24.459   5.831
 6127POPC   GL276646  34.030  24.283   5.861
 6127POPC   C1A76647  33.889  24.651   6.224
 6127POPC   D2A76648  33.795  24.747   6.666
 6127POPC   C3A76649  33.932  24.579   7.048
 6127POPC   C4A76650  33.763  24.203   7.208
 6127POPC   C1B76651  34.286  24.354   6.210
 6127POPC   C2B76652  34.080  24.292   6.579
 6127POPC   C3B76653  34.191  24.151   6.929
 6127POPC   C4B76654  34.429  24.438   7.054
 6128POPC   NC376655  24.024  42.052   5.396
 6128POPC   PO476656  23.752  42.639   5.412
 6128POPC   GL176657  23.644  42.479   5.820
 6128POPC   GL276658  23.778  42.189   5.820
 6128POPC   C1A76659  23.351  42.552   6.147
 6128POPC   D2A76660  23.326  42.370   6.545
 6128POPC   C3A76661  23.540  42.414   6.904
 6128POPC   C4A76662  23.605  42.359   7.294
 6128POPC   C1B76663  23.631  42.112   6.224
 6128POPC   C2B76664  23.566  41.934   6.642
 6128POPC   C3B76665  23.824  41.938   6.969
 6128POPC   C4B76666  23.843  41.951   7.396
 6129POPC   NC376667  18.853  35.579   5.537
 6129POPC   PO476668  18.899  34.955   5.480
 6129POPC   GL176669  19.139  35.087   5.845
 6129POPC   GL276670  19.301  35.435   5.802
 6129POPC   C1A76671  19.045  35.298   6.238
 6129POPC   D2A76672  19.172  35.273   6.662
 6129POPC   C3A76673  18.915  35.211   7.035
 6129POPC   C4A76674  19.128  34.968   7.376
 6129POPC   C1B76675  19.486  35.584   6.205
 6129POPC   C2B76676  19.368  35.759   6.614
 6129POPC   C3B76677  19.359  35.555   7.035
 6129POPC   C4B76678  19.070  35.568   7.373
 6130POPC   NC376679  12.391  18.616   5.423
 6130POPC   PO476680  12.769  17.985   5.336
 6130POPC   GL176681  12.916  18.146   5.745
 6130POPC   GL276682  13.034  18.505   5.822
 6130POPC   C1A76683  12.921  18.048   6.184
 6130POPC   D2A76684  13.071  18.219   6.584
 6130POPC   C3A76685  12.973  18.058   6.961
 6130POPC   C4A76686  12.801  18.298   7.264
 6130POPC   C1B76687  12.879  18.577   6.239
 6130POPC   C2B76688  12.844  18.703   6.664
 6130POPC   C3B76689  13.119  18.601   6.992
 6130POPC   C4B76690  13.104  18.660   7.453
 6131POPC   NC376691  37.827  17.786   5.254
 6131POPC   PO476692  37.504  17.211   5.437
 6131POPC   GL176693  37.732  17.477   5.729
 6131POPC   GL276694  37.929  17.223   5.867
 6131POPC   C1A76695  37.763  17.572   6.196
 6131POPC   D2A76696  37.819  17.271   6.561
 6131POPC   C3A76697  37.893  17.463   6.963
 6131POPC   C4A76698  37.727  17.881   7.107
 6131POPC   C1B76699  37.516  17.135   6.122
 6131POPC   C2B76700  37.288  17.305   6.520
 6131POPC   C3B76701  37.419  17.233   6.958
 6131POPC   C4B76702  37.187  17.322   7.318
 6132POPC   NC376703  20.595   1.734   5.036
 6132POPC   PO476704  20.796   2.263   5.469
 6132POPC   GL176705  20.671   2.005   5.795
 6132POPC   GL276706  20.670   2.300   5.966
 6132POPC   C1A76707  20.618   1.816   6.220
 6132POPC   D2A76708  20.862   1.746   6.596
 6132POPC   C3A76709  20.662   1.604   6.979
 6132POPC   C4A76710  20.314   1.708   7.224
 6132POPC   C1B76711  20.694   2.571   6.263
 6132POPC   C2B76712  20.798   2.716   6.641
 6132POPC   C3B76713  20.703   2.439   6.937
 6132POPC   C4B76714  20.603   2.105   7.155
 6133POPC   NC376715  28.812   6.084   5.576
 6133POPC   PO476716  28.251   5.784   5.382
 6133POPC   GL176717  28.446   5.765   5.781
 6133POPC   GL276718  28.384   6.084   5.878
 6133POPC   C1A76719  28.590   5.771   6.237
 6133POPC   D2A76720  28.740   5.781   6.691
 6133POPC   C3A76721  28.344   5.714   6.924
 6133POPC   C4A76722  28.163   5.872   7.276
 6133POPC   C1B76723  28.657   6.307   6.204
 6133POPC   C2B76724  28.838   6.321   6.646
 6133POPC   C3B76725  28.579   6.172   7.014
 6133POPC   C4B76726  28.595   6.162   7.470
 6134POPC   NC376727  40.298  18.619   5.409
 6134POPC   PO476728  39.766  18.142   5.358
 6134POPC   GL176729  40.035  18.212   5.714
 6134POPC   GL276730  39.957  18.554   5.829
 6134POPC   C1A76731  40.014  18.190   6.181
 6134POPC   D2A76732  40.229  18.421   6.492
 6134POPC   C3A76733  40.101  18.348   6.902
 6134POPC   C4A76734  39.808  18.151   7.170
 6134POPC   C1B76735  39.749  18.641   6.258
 6134POPC   C2B76736  39.892  18.769   6.685
 6134POPC   C3B76737  39.787  18.679   7.148
 6134POPC   C4B76738  39.680  18.715   7.608
 6135POPC   NC376739  32.637   9.720   5.122
 6135POPC   PO476740  32.031   9.866   5.416
 6135POPC   GL176741  32.174   9.576   5.754
 6135POPC   GL276742  32.470   9.755   5.827
 6135POPC   C1A76743  32.245   9.561   6.224
 6135POPC   D2A76744  32.021   9.828   6.535
 6135POPC   C3A76745  32.132   9.865   6.972
 6135POPC   C4A76746  32.153   9.451   7.155
 6135POPC   C1B76747  32.500   9.996   6.239
 6135POPC   C2B76748  32.528   9.757   6.636
 6135POPC   C3B76749  32.622   9.721   7.076
 6135POPC   C4B76750  32.453   9.850   7.480
 6136POPC   NC376751   1.793   1.442   5.057
 6136POPC   PO476752   2.180   1.014   5.452
 6136POPC   GL176753   2.074   1.184   5.832
 6136POPC   GL276754   1.802   1.380   5.804
 6136POPC   C1A76755   1.906   1.096   6.237
 6136POPC   D2A76756   2.127   0.910   6.565
 6136POPC   C3A76757   2.079   1.136   6.874
 6136POPC   C4A76758   2.202   1.292   7.223
 6136POPC   C1B76759   1.564   1.507   6.182
 6136POPC   C2B76760   1.623   1.382   6.598
 6136POPC   C3B76761   1.664   1.394   7.000
 6136POPC   C4B76762   1.725   1.116   7.273
 6137POPC   NC376763  31.189  11.089   5.265
 6137POPC   PO476764  31.726  11.452   5.333
 6137POPC   GL176765  31.452  11.274   5.686
 6137POPC   GL276766  31.208  10.994   5.776
 6137POPC   C1A76767  31.335  11.403   6.113
 6137POPC   D2A76768  31.496  11.516   6.532
 6137POPC   C3A76769  31.411  11.280   6.868
 6137POPC   C4A76770  31.360  11.345   7.257
 6137POPC   C1B76771  31.042  10.973   6.213
 6137POPC   C2B76772  31.113  10.902   6.690
 6137POPC   C3B76773  30.971  11.012   7.120
 6137POPC   C4B76774  31.104  10.954   7.578
 6138POPC   NC376775  23.807  37.995   5.638
 6138POPC   PO476776  23.573  37.442   5.322
 6138POPC   GL176777  23.881  37.493   5.738
 6138POPC   GL276778  24.146  37.776   5.951
 6138POPC   C1A76779  23.757  37.594   6.180
 6138POPC   D2A76780  23.652  37.719   6.563
 6138POPC   C3A76781  23.907  37.844   6.877
 6138POPC   C4A76782  23.695  37.769   7.250
 6138POPC   C1B76783  24.006  38.056   6.323
 6138POPC   C2B76784  24.216  38.226   6.723
 6138POPC   C3B76785  24.212  38.153   7.220
 6138POPC   C4B76786  24.005  37.953   7.609
 6139POPC   NC376787  28.043   5.446   5.620
 6139POPC   PO476788  28.492   4.978   5.355
 6139POPC   GL176789  28.566   5.237   5.788
 6139POPC   GL276790  28.303   5.351   6.050
 6139POPC   C1A76791  28.776   5.290   6.208
 6139POPC   D2A76792  28.493   5.335   6.581
 6139POPC   C3A76793  28.658   5.316   7.007
 6139POPC   C4A76794  28.382   5.428   7.386
 6139POPC   C1B76795  28.369   4.936   6.258
 6139POPC   C2B76796  28.305   4.804   6.697
 6139POPC   C3B76797  28.234   5.030   7.080
 6139POPC   C4B76798  27.949   5.398   7.110
 6140POPC   NC376799  17.712  33.967   5.208
 6140POPC   PO476800  17.095  33.919   5.284
 6140POPC   GL176801  17.361  33.847   5.684
 6140POPC   GL276802  17.593  33.586   5.728
 6140POPC   C1A76803  17.583  33.959   6.117
 6140POPC   D2A76804  17.745  33.805   6.520
 6140POPC   C3A76805  17.563  33.848   6.953
 6140POPC   C4A76806  17.536  33.638   7.396
 6140POPC   C1B76807  17.343  33.512   6.125
 6140POPC   C2B76808  17.453  33.382   6.558
 6140POPC   C3B76809  17.322  33.386   6.992
 6140POPC   C4B76810  16.991  33.448   7.298
 6141POPC   NC376811  42.945  20.984   5.300
 6141POPC   PO476812  43.428  20.685   5.561
 6141POPC   GL176813  43.076  20.595   5.852
 6141POPC   GL276814  42.790  20.809   5.740
 6141POPC   C1A76815  43.138  20.589   6.314
 6141POPC   D2A76816  43.317  20.371   6.690
 6141POPC   C3A76817  43.229  20.555   7.132
 6141POPC   C4A76818  43.523  20.590   7.478
 6141POPC   C1B76819  42.671  20.801   6.118
 6141POPC   C2B76820  42.716  20.795   6.545
 6141POPC   C3B76821  42.983  20.897   6.862
 6141POPC   C4B76822  42.847  20.908   7.303
 6142POPC   NC376823  14.090  25.035   5.397
 6142POPC   PO476824  14.701  25.340   5.420
 6142POPC   GL176825  14.467  25.167   5.753
 6142POPC   GL276826  14.264  25.457   5.752
 6142POPC   C1A76827  14.440  25.101   6.215
 6142POPC   D2A76828  14.199  25.123   6.610
 6142POPC   C3A76829  14.495  25.111   6.953
 6142POPC   C4A76830  14.566  25.107   7.393
 6142POPC   C1B76831  14.542  25.582   6.051
 6142POPC   C2B76832  14.445  25.608   6.485
 6142POPC   C3B76833  14.231  25.593   6.891
 6142POPC   C4B76834  14.527  25.588   7.225
 6143POPC   NC376835  19.849  32.364   5.382
 6143POPC   PO476836  19.474  31.805   5.374
 6143POPC   GL176837  19.707  31.952   5.780
 6143POPC   GL276838  19.620  32.337   5.833
 6143POPC   C1A76839  19.867  31.816   6.245
 6143POPC   D2A76840  20.044  31.820   6.729
 6143POPC   C3A76841  19.792  31.863   7.111
 6143POPC   C4A76842  19.932  31.752   7.514
 6143POPC   C1B76843  20.005  32.279   6.063
 6143POPC   C2B76844  19.984  32.261   6.500
 6143POPC   C3B76845  19.912  32.332   6.952
 6143POPC   C4B76846  19.622  32.419   7.293
 6144POPC   NC376847  17.277   5.622   5.085
 6144POPC   PO476848  17.473   6.187   5.339
 6144POPC   GL176849  17.428   6.016   5.827
 6144POPC   GL276850  17.378   5.649   5.894
 6144POPC   C1A76851  17.492   5.944   6.318
 6144POPC   D2A76852  17.287   5.666   6.664
 6144POPC   C3A76853  17.446   5.707   7.097
 6144POPC   C4A76854  17.855   5.866   7.127
 6144POPC   C1B76855  17.728   5.515   6.205
 6144POPC   C2B76856  17.819   5.647   6.650
 6144POPC   C3B76857  17.821   5.364   7.013
 6144POPC   C4B76858  17.646   5.388   7.447
 6145POPC   NC376859   8.876  27.823   5.414
 6145POPC   PO476860   9.045  27.209   5.411
 6145POPC   GL176861   8.880  27.438   5.807
 6145POPC   GL276862   8.808  27.787   5.925
 6145POPC   C1A76863   8.941  27.397   6.277
 6145POPC   D2A76864   9.223  27.592   6.627
 6145POPC   C3A76865   9.162  27.616   7.102
 6145POPC   C4A76866   8.963  27.524   7.520
 6145POPC   C1B76867   8.849  27.879   6.402
 6145POPC   C2B76868   8.740  27.692   6.791
 6145POPC   C3B76869   8.611  27.706   7.206
 6145POPC   C4B76870   8.556  27.813   7.613
 6146POPC   NC376871  14.681  11.825   5.413
 6146POPC   PO476872  14.166  12.240   5.413
 6146POPC   GL176873  14.466  12.194   5.757
 6146POPC   GL276874  14.362  12.313   6.092
 6146POPC   C1A76875  14.630  11.883   6.066
 6146POPC   D2A76876  14.447  11.726   6.445
 6146POPC   C3A76877  14.544  11.958   6.795
 6146POPC   C4A76878  14.491  11.701   7.108
 6146POPC   C1B76879  14.103  11.930   6.126
 6146POPC   C2B76880  13.930  11.881   6.544
 6146POPC   C3B76881  14.030  12.015   6.972
 6146POPC   C4B76882  14.356  12.297   7.130
 6147POPC   NC376883  25.875  13.717   5.063
 6147POPC   PO476884  25.912  13.414   5.660
 6147POPC   GL176885  26.180  13.430   5.986
 6147POPC   GL276886  26.136  13.788   5.979
 6147POPC   C1A76887  25.968  13.426   6.374
 6147POPC   D2A76888  25.619  13.661   6.530
 6147POPC   C3A76889  25.755  13.687   6.963
 6147POPC   C4A76890  26.037  13.370   7.092
 6147POPC   C1B76891  26.400  13.708   6.351
 6147POPC   C2B76892  26.392  13.528   6.747
 6147POPC   C3B76893  26.267  13.840   7.068
 6147POPC   C4B76894  26.044  13.947   7.416
 6148POPC   NC376895  15.535   6.380   5.116
 6148POPC   PO476896  14.876   6.661   5.324
 6148POPC   GL176897  15.098   6.654   5.738
 6148POPC   GL276898  14.780   6.638   5.858
 6148POPC   C1A76899  15.354   6.673   6.156
 6148POPC   D2A76900  15.486   6.866   6.569
 6148POPC   C3A76901  15.452   6.724   7.001
 6148POPC   C4A76902  15.557   6.988   7.335
 6148POPC   C1B76903  14.660   6.816   6.242
 6148POPC   C2B76904  14.630   6.618   6.631
 6148POPC   C3B76905  14.865   6.577   7.014
 6148POPC   C4B76906  14.877   6.356   7.393
 6149POPC   NC376907   0.767  22.325   5.725
 6149POPC   PO476908   0.190  22.331   5.348
 6149POPC   GL176909   0.296  22.125   5.784
 6149POPC   GL276910   0.623  21.875   5.905
 6149POPC   C1A76911   0.199  22.265   6.209
 6149POPC   D2A76912   0.164  22.114   6.622
 6149POPC   C3A76913   0.214  22.271   7.032
 6149POPC   C4A76914   0.266  21.865   7.278
 6149POPC   C1B76915   0.639  22.074   6.331
 6149POPC   C2B76916   0.632  22.326   6.690
 6149POPC   C3B76917   0.715  22.132   7.079
 6149POPC   C4B76918   0.607  22.134   7.508
 6150POPC   NC376919  38.126  29.626   5.585
 6150POPC   PO476920  38.527  30.032   5.257
 6150POPC   GL176921  38.584  29.977   5.739
 6150POPC   GL276922  38.858  29.791   5.838
 6150POPC   C1A76923  38.448  30.152   6.167
 6150POPC   D2A76924  38.360  30.333   6.582
 6150POPC   C3A76925  38.233  30.144   6.973
 6150POPC   C4A76926  38.277  30.266   7.361
 6150POPC   C1B76927  38.524  29.655   6.166
 6150POPC   C2B76928  38.710  29.830   6.491
 6150POPC   C3B76929  38.795  29.717   6.845
 6150POPC   C4B76930  38.576  29.789   7.167
 6151POPC   NC376931  31.751   9.465   5.443
 6151POPC   PO476932  31.147   9.471   5.457
 6151POPC   GL176933  31.357   9.665   5.840
 6151POPC   GL276934  31.705   9.827   5.809
 6151POPC   C1A76935  31.427   9.974   6.206
 6151POPC   D2A76936  31.569  10.019   6.640
 6151POPC   C3A76937  31.274   9.856   6.926
 6151POPC   C4A76938  31.266  10.090   7.284
 6151POPC   C1B76939  31.734   9.537   6.172
 6151POPC   C2B76940  31.541   9.528   6.566
 6151POPC   C3B76941  31.703   9.597   6.957
 6151POPC   C4B76942  31.549   9.657   7.352
 6152POPC   NC376943  27.019  12.140   5.469
 6152POPC   PO476944  26.355  11.785   5.486
 6152POPC   GL176945  26.660  11.910   5.790
 6152POPC   GL276946  26.730  12.266   5.874
 6152POPC   C1A76947  26.595  11.799   6.207
 6152POPC   D2A76948  26.858  11.745   6.536
 6152POPC   C3A76949  26.667  11.745   6.918
 6152POPC   C4A76950  26.963  11.711   7.292
 6152POPC   C1B76951  26.993  12.155   6.237
 6152POPC   C2B76952  27.139  12.184   6.683
 6152POPC   C3B76953  26.884  12.160   7.072
 6152POPC   C4B76954  26.643  12.261   7.440
 6153POPC   NC376955   6.223  39.617   5.317
 6153POPC   PO476956   5.646  39.169   5.287
 6153POPC   GL176957   5.833  39.164   5.743
 6153POPC   GL276958   6.025  39.502   5.813
 6153POPC   C1A76959   5.688  39.210   6.182
 6153POPC   D2A76960   5.501  39.259   6.593
 6153POPC   C3A76961   5.743  39.181   6.976
 6153POPC   C4A76962   6.099  38.904   7.021
 6153POPC   C1B76963   6.192  39.290   6.173
 6153POPC   C2B76964   6.151  39.176   6.594
 6153POPC   C3B76965   6.147  39.482   6.945
 6153POPC   C4B76966   6.024  39.461   7.344
 6154POPC   NC376967   7.334  36.750   5.482
 6154POPC   PO476968   7.402  37.484   5.356
 6154POPC   GL176969   7.351  37.221   5.772
 6154POPC   GL276970   7.543  36.960   5.961
 6154POPC   C1A76971   7.092  37.022   6.149
 6154POPC   D2A76972   7.276  37.062   6.558
 6154POPC   C3A76973   7.264  36.818   6.926
 6154POPC   C4A76974   7.199  37.034   7.293
 6154POPC   C1B76975   7.636  37.321   6.236
 6154POPC   C2B76976   7.880  37.361   6.635
 6154POPC   C3B76977   7.897  37.093   7.023
 6154POPC   C4B76978   7.686  37.061   7.427
 6155POPC   NC376979  17.377  44.686   4.879
 6155POPC   PO476980  17.679  44.528   5.439
 6155POPC   GL176981  17.608  44.642   5.838
 6155POPC   GL276982  17.254  44.690   5.807
 6155POPC   C1A76983  17.725  44.810   6.238
 6155POPC   D2A76984  17.518  44.937   6.628
 6155POPC   C3A76985  17.704  44.785   7.029
 6155POPC   C4A76986  18.022  44.861   7.332
 6155POPC   C1B76987  17.248  44.599   6.250
 6155POPC   C2B76988  17.161  44.301   6.586
 6155POPC   C3B76989  17.040  44.505   6.948
 6155POPC   C4B76990  17.245  44.697   7.289
 6156POPC   NC376991  29.525  27.203   5.433
 6156POPC   PO476992  30.020  27.783   5.427
 6156POPC   GL176993  30.178  27.715   5.828
 6156POPC   GL276994  29.944  27.432   5.844
 6156POPC   C1A76995  30.158  27.683   6.271
 6156POPC   D2A76996  29.826  27.751   6.544
 6156POPC   C3A76997  29.995  27.786   6.941
 6156POPC   C4A76998  29.776  27.851   7.310
 6156POPC   C1B76999  29.704  27.362   6.207
 6156POPC   C2B77000  29.780  27.260   6.645
 6156POPC   C3B77001  29.623  27.420   7.033
 6156POPC   C4B77002  29.987  27.391   7.277
 6157POPC   NC377003  30.458  41.210   5.489
 6157POPC   PO477004  30.723  40.634   5.545
 6157POPC   GL177005  30.504  40.639   5.905
 6157POPC   GL277006  30.564  40.278   5.941
 6157POPC   C1A77007  30.569  40.949   6.254
 6157POPC   D2A77008  30.792  40.901   6.649
 6157POPC   C3A77009  30.586  40.966   7.035
 6157POPC   C4A77010  30.320  40.892   7.350
 6157POPC   C1B77011  30.557  40.449   6.376
 6157POPC   C2B77012  30.534  40.490   6.820
 6157POPC   C3B77013  30.843  40.513   7.118
 6157POPC   C4B77014  30.723  40.612   7.496
 6158POPC   NC377015  20.765  41.837   5.327
 6158POPC   PO477016  20.410  41.319   5.156
 6158POPC   GL177017  20.642  41.452   5.610
 6158POPC   GL277018  20.453  41.713   5.799
 6158POPC   C1A77019  20.698  41.347   6.076
 6158POPC   D2A77020  20.784  41.202   6.508
 6158POPC   C3A77021  20.465  41.107   6.814
 6158POPC   C4A77022  20.544  41.342   7.185
 6158POPC   C1B77023  20.597  41.872   6.220
 6158POPC   C2B77024  20.564  42.077   6.634
 6158POPC   C3B77025  20.742  42.123   7.008
 6158POPC   C4B77026  20.768  41.803   7.282
 6159POPC   NC377027  31.786  32.238   5.772
 6159POPC   PO477028  31.239  32.144   5.364
 6159POPC   GL177029  31.288  32.055   5.830
 6159POPC   GL277030  31.546  31.792   5.864
 6159POPC   C1A77031  31.268  32.247   6.282
 6159POPC   D2A77032  31.409  32.598   6.584
 6159POPC   C3A77033  31.436  32.598   7.039
 6159POPC   C4A77034  31.211  32.455   7.367
 6159POPC   C1B77035  31.584  31.840   6.287
 6159POPC   C2B77036  31.542  32.039   6.673
 6159POPC   C3B77037  31.542  32.098   7.114
 6159POPC   C4B77038  31.816  31.921   7.421
 6160POPC   NC377039  27.927  40.854   5.529
 6160POPC   PO477040  27.253  40.635   5.453
 6160POPC   GL177041  27.491  40.778   5.799
 6160POPC   GL277042  27.740  40.511   5.881
 6160POPC   C1A77043  27.407  41.043   6.155
 6160POPC   D2A77044  27.561  41.125   6.566
 6160POPC   C3A77045  27.395  40.943   6.939
 6160POPC   C4A77046  27.436  40.929   7.437
 6160POPC   C1B77047  27.841  40.784   6.230
 6160POPC   C2B77048  27.899  40.738   6.674
 6160POPC   C3B77049  27.881  40.946   7.073
 6160POPC   C4B77050  27.931  40.798   7.482
 6161POPC   NC377051  17.944   7.156   5.537
 6161POPC   PO477052  17.303   7.210   5.181
 6161POPC   GL177053  17.264   7.499   5.606
 6161POPC   GL277054  17.580   7.688   5.754
 6161POPC   C1A77055  17.184   7.549   6.083
 6161POPC   D2A77056  17.290   7.309   6.458
 6161POPC   C3A77057  17.233   7.409   6.908
 6161POPC   C4A77058  17.303   7.701   7.256
 6161POPC   C1B77059  17.680   7.379   6.116
 6161POPC   C2B77060  17.754   7.055   6.462
 6161POPC   C3B77061  17.731   7.159   6.910
 6161POPC   C4B77062  17.775   7.573   7.115
 6162POPC   NC377063  35.360  23.018   5.365
 6162POPC   PO477064  34.787  22.602   5.466
 6162POPC   GL177065  35.195  22.677   5.736
 6162POPC   GL277066  35.567  22.849   5.798
 6162POPC   C1A77067  35.371  22.586   6.166
 6162POPC   D2A77068  35.195  22.880   6.412
 6162POPC   C3A77069  35.361  23.015   6.744
 6162POPC   C4A77070  35.176  23.135   7.139
 6162POPC   C1B77071  35.639  23.080   6.218
 6162POPC   C2B77072  35.820  23.199   6.631
 6162POPC   C3B77073  35.696  23.162   7.072
 6162POPC   C4B77074  35.527  22.735   7.188
 6163POPC   NC377075  43.696  28.218   5.351
 6163POPC   PO477076  44.236  28.566   5.404
 6163POPC   GL177077  43.950  28.520   5.800
 6163POPC   GL277078  43.694  28.246   5.867
 6163POPC   C1A77079  44.029  28.410   6.264
 6163POPC   D2A77080  43.717  28.182   6.523
 6163POPC   C3A77081  43.850  28.098   6.947
 6163POPC   C4A77082  44.207  28.299   7.142
 6163POPC   C1B77083  43.557  28.566   6.161
 6163POPC   C2B77084  43.442  28.640   6.544
 6163POPC   C3B77085  43.755  28.590   6.821
 6163POPC   C4B77086  43.722  28.533   7.236
 6164POPC   NC377087   7.046  34.109   5.592
 6164POPC   PO477088   6.489  33.723   5.430
 6164POPC   GL177089   6.753  33.724   5.759
 6164POPC   GL277090   6.584  34.044   5.840
 6164POPC   C1A77091   6.829  33.753   6.199
 6164POPC   D2A77092   7.022  33.449   6.428
 6164POPC   C3A77093   7.018  33.480   6.880
 6164POPC   C4A77094   6.941  33.813   7.177
 6164POPC   C1B77095   6.342  33.689   6.071
 6164POPC   C2B77096   6.420  33.588   6.488
 6164POPC   C3B77097   6.594  33.823   6.785
 6164POPC   C4B77098   6.389  33.768   7.147
 6165POPC   NC377099  16.992   7.956   5.543
 6165POPC   PO477100  16.573   8.540   5.572
 6165POPC   GL177101  16.754   8.273   5.876
 6165POPC   GL277102  17.100   8.354   5.855
 6165POPC   C1A77103  16.947   7.997   6.218
 6165POPC   D2A77104  17.105   8.105   6.630
 6165POPC   C3A77105  16.923   7.879   6.995
 6165POPC   C4A77106  16.608   7.823   7.306
 6165POPC   C1B77107  17.032   8.498   6.267
 6165POPC   C2B77108  16.653   8.589   6.477
 6165POPC   C3B77109  16.516   8.573   6.901
 6165POPC   C4B77110  16.755   8.305   7.196
 6166POPC   NC377111  24.543  28.851   5.369
 6166POPC   PO477112  24.764  29.448   5.458
 6166POPC   GL177113  24.725  29.116   5.770
 6166POPC   GL277114  24.372  29.161   5.722
 6166POPC   C1A77115  24.585  29.005   6.198
 6166POPC   D2A77116  24.746  29.116   6.621
 6166POPC   C3A77117  24.518  28.990   6.985
 6166POPC   C4A77118  24.679  28.730   7.295
 6166POPC   C1B77119  24.472  29.469   6.045
 6166POPC   C2B77120  24.347  29.390   6.455
 6166POPC   C3B77121  24.303  29.447   6.868
 6166POPC   C4B77122  24.285  29.451   7.288
 6167POPC   NC377123   3.274  35.950   5.229
 6167POPC   PO477124   2.746  36.347   5.438
 6167POPC   GL177125   2.784  36.225   5.869
 6167POPC   GL277126   2.828  35.910   5.747
 6167POPC   C1A77127   2.959  36.108   6.294
 6167POPC   D2A77128   3.063  35.998   6.755
 6167POPC   C3A77129   2.821  36.161   7.141
 6167POPC   C4A77130   2.683  36.333   7.574
 6167POPC   C1B77131   2.553  35.773   6.076
 6167POPC   C2B77132   2.278  35.906   6.423
 6167POPC   C3B77133   2.496  35.943   6.803
 6167POPC   C4B77134   2.547  35.695   7.159
 6168POPC   NC377135  31.673  34.347   5.468
 6168POPC   PO477136  31.182  34.763   5.366
 6168POPC   GL177137  31.307  34.615   5.758
 6168POPC   GL277138  31.624  34.787   5.767
 6168POPC   C1A77139  31.334  34.400   6.168
 6168POPC   D2A77140  31.225  34.607   6.561
 6168POPC   C3A77141  31.256  34.361   6.928
 6168POPC   C4A77142  31.267  34.527   7.298
 6168POPC   C1B77143  31.825  34.547   6.134
 6168POPC   C2B77144  31.730  34.440   6.550
 6168POPC   C3B77145  31.716  34.598   6.946
 6168POPC   C4B77146  31.909  34.490   7.306
 6169POPC   NC377147  17.788  22.512   5.550
 6169POPC   PO477148  17.397  22.165   5.157
 6169POPC   GL177149  17.470  22.067   5.644
 6169POPC   GL277150  17.728  22.181   5.906
 6169POPC   C1A77151  17.404  21.866   6.091
 6169POPC   D2A77152  17.288  22.089   6.481
 6169POPC   C3A77153  17.407  22.130   6.923
 6169POPC   C4A77154  17.152  22.393   7.190
 6169POPC   C1B77155  17.732  22.457   6.295
 6169POPC   C2B77156  17.611  22.583   6.737
 6169POPC   C3B77157  17.815  22.432   7.132
 6169POPC   C4B77158  17.661  22.169   7.444
 6170POPC   NC377159  17.700  42.696   5.497
 6170POPC   PO477160  18.222  43.051   5.323
 6170POPC   GL177161  18.301  43.106   5.751
 6170POPC   GL277162  17.988  42.998   5.800
 6170POPC   C1A77163  18.317  43.191   6.193
 6170POPC   D2A77164  18.495  43.315   6.561
 6170POPC   C3A77165  18.347  43.195   6.904
 6170POPC   C4A77166  18.328  43.302   7.301
 6170POPC   C1B77167  17.931  42.830   6.182
 6170POPC   C2B77168  17.887  42.683   6.590
 6170POPC   C3B77169  17.935  42.869   6.993
 6170POPC   C4B77170  17.837  42.692   7.387
 6171POPC   NC377171  42.519   3.275   5.352
 6171POPC   PO477172  42.299   3.960   5.423
 6171POPC   GL177173  42.316   3.626   5.719
 6171POPC   GL277174  42.056   3.378   5.736
 6171POPC   C1A77175  42.400   3.583   6.155
 6171POPC   D2A77176  42.582   3.413   6.522
 6171POPC   C3A77177  42.550   3.454   6.952
 6171POPC   C4A77178  42.624   3.817   7.139
 6171POPC   C1B77179  41.893   3.563   6.113
 6171POPC   C2B77180  42.061   3.373   6.482
 6171POPC   C3B77181  41.999   3.452   6.885
 6171POPC   C4B77182  42.167   3.536   7.250
 6172POPC   NC377183  32.403  31.968   5.425
 6172POPC   PO477184  32.089  32.580   5.644
 6172POPC   GL177185  32.387  32.372   5.865
 6172POPC   GL277186  32.168  32.496   6.131
 6172POPC   C1A77187  32.424  32.076   6.229
 6172POPC   D2A77188  32.207  32.037   6.615
 6172POPC   C3A77189  32.339  32.179   6.989
 6172POPC   C4A77190  32.375  31.850   7.283
 6172POPC   C1B77191  31.863  32.347   6.404
 6172POPC   C2B77192  31.870  32.410   6.823
 6172POPC   C3B77193  32.032  32.591   7.171
 6172POPC   C4B77194  32.185  32.305   7.465
 6173POPC   NC377195  11.122  28.229   5.349
 6173POPC   PO477196  11.637  27.883   5.449
 6173POPC   GL177197  11.451  28.223   5.789
 6173POPC   GL277198  11.065  28.240   5.878
 6173POPC   C1A77199  11.392  28.353   6.271
 6173POPC   D2A77200  11.459  28.088   6.688
 6173POPC   C3A77201  11.278  28.177   7.118
 6173POPC   C4A77202  10.974  28.164   7.492
 6173POPC   C1B77203  10.935  28.602   6.170
 6173POPC   C2B77204  11.131  28.772   6.511
 6173POPC   C3B77205  11.184  28.644   6.899
 6173POPC   C4B77206  10.988  28.779   7.265
 6174POPC   NC377207  17.104  34.316   5.530
 6174POPC   PO477208  16.873  34.900   5.280
 6174POPC   GL177209  16.836  34.741   5.775
 6174POPC   GL277210  16.457  34.621   5.930
 6174POPC   C1A77211  16.762  34.949   6.198
 6174POPC   D2A77212  16.928  34.970   6.624
 6174POPC   C3A77213  16.701  35.032   6.971
 6174POPC   C4A77214  16.804  34.771   7.284
 6174POPC   C1B77215  16.304  34.263   6.235
 6174POPC   C2B77216  16.129  34.340   6.682
 6174POPC   C3B77217  16.437  34.507   7.004
 6174POPC   C4B77218  16.877  34.322   7.017
 6175POPC   NC377219   3.173  36.443   5.576
 6175POPC   PO477220   3.707  36.075   5.395
 6175POPC   GL177221   3.548  36.179   5.774
 6175POPC   GL277222   3.353  35.921   5.780
 6175POPC   C1A77223   3.404  36.374   6.176
 6175POPC   D2A77224   3.236  36.646   6.466
 6175POPC   C3A77225   3.278  36.480   6.864
 6175POPC   C4A77226   3.572  36.562   7.203
 6175POPC   C1B77227   3.603  35.915   6.193
 6175POPC   C2B77228   3.561  35.889   6.611
 6175POPC   C3B77229   3.642  36.103   6.960
 6175POPC   C4B77230   3.333  36.109   7.238
 6176POPC   NC377231  24.904  11.585   5.512
 6176POPC   PO477232  24.222  11.316   5.331
 6176POPC   GL177233  24.237  11.429   5.755
 6176POPC   GL277234  24.558  11.371   5.828
 6176POPC   C1A77235  24.221  11.353   6.203
 6176POPC   D2A77236  24.504  11.285   6.558
 6176POPC   C3A77237  24.235  11.248   6.917
 6176POPC   C4A77238  24.393  11.332   7.306
 6176POPC   C1B77239  24.824  11.492   6.194
 6176POPC   C2B77240  24.827  11.712   6.611
 6176POPC   C3B77241  24.677  11.686   7.031
 6176POPC   C4B77242  24.921  11.744   7.385
 6177POPC   NC377243  34.405  23.789   5.373
 6177POPC   PO477244  35.015  23.420   5.429
 6177POPC   GL177245  34.756  23.655   5.736
 6177POPC   GL277246  34.402  23.498   5.791
 6177POPC   C1A77247  34.753  23.606   6.174
 6177POPC   D2A77248  34.963  23.357   6.446
 6177POPC   C3A77249  34.810  23.558   6.757
 6177POPC   C4A77250  34.800  23.548   7.159
 6177POPC   C1B77251  34.356  23.880   6.046
 6177POPC   C2B77252  34.429  23.891   6.507
 6177POPC   C3B77253  34.331  23.668   6.919
 6177POPC   C4B77254  34.081  23.804   7.287
 6178POPC   NC377255  38.033  42.551   5.638
 6178POPC   PO477256  38.472  42.208   5.207
 6178POPC   GL177257  38.489  42.178   5.668
 6178POPC   GL277258  38.246  41.988   5.841
 6178POPC   C1A77259  38.585  42.296   6.109
 6178POPC   D2A77260  38.566  42.186   6.554
 6178POPC   C3A77261  38.451  42.504   6.851
 6178POPC   C4A77262  38.604  42.685   7.238
 6178POPC   C1B77263  38.145  42.081   6.273
 6178POPC   C2B77264  38.204  41.841   6.654
 6178POPC   C3B77265  38.265  42.027   7.045
 6178POPC   C4B77266  38.198  42.398   7.279
 6179POPC   NC377267   8.540  19.638   5.406
 6179POPC   PO477268   7.867  19.600   5.419
 6179POPC   GL177269   7.997  19.913   5.762
 6179POPC   GL277270   8.358  20.046   5.743
 6179POPC   C1A77271   7.913  20.004   6.203
 6179POPC   D2A77272   7.798  19.871   6.617
 6179POPC   C3A77273   8.041  19.809   6.994
 6179POPC   C4A77274   8.179  19.936   7.391
 6179POPC   C1B77275   8.395  20.171   6.180
 6179POPC   C2B77276   8.299  20.000   6.591
 6179POPC   C3B77277   8.316  20.255   7.031
 6179POPC   C4B77278   8.546  20.270   7.494
 6180POPC   NC377279  14.709  44.266   5.302
 6180POPC   PO477280  14.443  44.926   5.384
 6180POPC   GL177281  14.558  44.806   5.779
 6180POPC   GL277282  14.547  44.441   5.760
 6180POPC   C1A77283  14.446  44.972   6.179
 6180POPC   D2A77284  14.307  44.758   6.553
 6180POPC   C3A77285  14.531  44.939   6.887
 6180POPC   C4A77286  14.754  44.801   7.226
 6180POPC   C1B77287  14.566  44.477   6.209
 6180POPC   C2B77288  14.724  44.480   6.630
 6180POPC   C3B77289  14.498  44.413   7.008
 6180POPC   C4B77290  14.669  44.334   7.425
 6181POPC   NC377291  14.380  11.018   5.430
 6181POPC   PO477292  14.894  11.425   5.339
 6181POPC   GL177293  14.621  11.382   5.724
 6181POPC   GL277294  14.679  11.042   5.869
 6181POPC   C1A77295  14.341  11.346   6.109
 6181POPC   D2A77296  14.437  11.094   6.488
 6181POPC   C3A77297  14.329  11.244   6.906
 6181POPC   C4A77298  14.296  11.034   7.299
 6181POPC   C1B77299  14.899  10.920   6.287
 6181POPC   C2B77300  14.923  10.907   6.765
 6181POPC   C3B77301  14.783  11.150   7.152
 6181POPC   C4B77302  14.712  11.036   7.626
 6182POPC   NC377303   7.738  16.933   4.992
 6182POPC   PO477304   7.408  16.500   5.406
 6182POPC   GL177305   7.573  16.812   5.720
 6182POPC   GL277306   7.281  16.967   5.899
 6182POPC   C1A77307   7.590  16.703   6.184
 6182POPC   D2A77308   7.698  16.739   6.621
 6182POPC   C3A77309   7.393  16.731   6.956
 6182POPC   C4A77310   7.390  16.496   7.353
 6182POPC   C1B77311   7.320  17.108   6.358
 6182POPC   C2B77312   7.529  17.213   6.738
 6182POPC   C3B77313   7.538  17.161   7.181
 6182POPC   C4B77314   7.230  16.958   7.456
 6183POPC   NC377315   9.321  40.840   5.369
 6183POPC   PO477316   8.775  40.464   5.376
 6183POPC   GL177317   8.696  40.695   5.737
 6183POPC   GL277318   8.835  41.048   5.678
 6183POPC   C1A77319   8.719  40.567   6.167
 6183POPC   D2A77320   8.656  40.748   6.543
 6183POPC   C3A77321   8.747  40.499   6.905
 6183POPC   C4A77322   8.730  40.715   7.290
 6183POPC   C1B77323   9.105  40.874   6.034
 6183POPC   C2B77324   9.152  40.694   6.473
 6183POPC   C3B77325   9.045  40.911   6.876
 6183POPC   C4B77326   9.229  40.841   7.273
 6184POPC   NC377327   1.711  18.566   5.454
 6184POPC   PO477328   2.182  19.062   5.398
 6184POPC   GL177329   1.851  19.022   5.715
 6184POPC   GL277330   2.118  19.189   5.903
 6184POPC   C1A77331   1.755  18.979   6.196
 6184POPC   D2A77332   2.156  18.922   6.443
 6184POPC   C3A77333   2.354  18.879   6.862
 6184POPC   C4A77334   2.267  18.915   7.317
 6184POPC   C1B77335   2.052  19.429   6.294
 6184POPC   C2B77336   1.898  19.329   6.722
 6184POPC   C3B77337   1.890  19.196   7.145
 6184POPC   C4B77338   2.035  19.328   7.585
 6185POPC   NC377339  31.533   1.591   5.333
 6185POPC   PO477340  31.520   2.287   5.191
 6185POPC   GL177341  31.569   2.079   5.682
 6185POPC   GL277342  31.752   1.755   5.799
 6185POPC   C1A77343  31.426   1.981   6.162
 6185POPC   D2A77344  31.213   2.128   6.577
 6185POPC   C3A77345  31.474   2.325   6.909
 6185POPC   C4A77346  31.535   2.190   7.397
 6185POPC   C1B77347  31.723   1.563   6.256
 6185POPC   C2B77348  31.485   1.603   6.632
 6185POPC   C3B77349  31.564   1.843   6.993
 6185POPC   C4B77350  31.809   1.769   7.329
 6186POPC   NC377351  12.247  36.350   5.269
 6186POPC   PO477352  11.852  36.799   5.262
 6186POPC   GL177353  12.052  36.759   5.683
 6186POPC   GL277354  12.067  36.425   5.767
 6186POPC   C1A77355  12.039  36.883   6.148
 6186POPC   D2A77356  11.881  37.049   6.566
 6186POPC   C3A77357  12.125  36.962   6.936
 6186POPC   C4A77358  12.184  37.068   7.387
 6186POPC   C1B77359  11.961  36.353   6.185
 6186POPC   C2B77360  12.126  36.546   6.558
 6186POPC   C3B77361  12.314  36.454   6.946
 6186POPC   C4B77362  12.067  36.579   7.281
 6187POPC   NC377363  39.222  22.418   5.482
 6187POPC   PO477364  39.419  21.743   5.302
 6187POPC   GL177365  39.411  21.829   5.745
 6187POPC   GL277366  39.113  22.028   5.843
 6187POPC   C1A77367  39.623  21.997   6.120
 6187POPC   D2A77368  39.676  22.229   6.536
 6187POPC   C3A77369  39.503  22.013   6.906
 6187POPC   C4A77370  39.372  21.753   7.258
 6187POPC   C1B77371  39.258  22.345   6.181
 6187POPC   C2B77372  39.138  22.241   6.619
 6187POPC   C3B77373  38.993  22.091   7.024
 6187POPC   C4B77374  39.271  22.253   7.302
 6188POPC   NC377375  27.301  20.853   5.229
 6188POPC   PO477376  27.546  21.424   5.423
 6188POPC   GL177377  27.463  21.242   5.788
 6188POPC   GL277378  27.811  21.138   5.831
 6188POPC   C1A77379  27.522  21.424   6.198
 6188POPC   D2A77380  27.422  21.597   6.577
 6188POPC   C3A77381  27.411  21.434   6.980
 6188POPC   C4A77382  27.787  21.392   7.226
 6188POPC   C1B77383  27.649  20.950   6.214
 6188POPC   C2B77384  27.683  21.119   6.639
 6188POPC   C3B77385  27.579  20.942   7.043
 6188POPC   C4B77386  27.835  20.907   7.439
 6189POPC   NC377387  44.081  27.310   5.476
 6189POPC   PO477388  44.178  27.960   5.400
 6189POPC   GL177389  44.011  27.845   5.782
 6189POPC   GL277390  44.296  27.651   5.827
 6189POPC   C1A77391  43.991  27.798   6.244
 6189POPC   D2A77392  43.967  27.435   6.549
 6189POPC   C3A77393  43.839  27.478   6.998
 6189POPC   C4A77394  43.575  27.527   7.376
 6189POPC   C1B77395  44.398  27.368   6.152
 6189POPC   C2B77396  44.340  27.109   6.522
 6189POPC   C3B77397  44.343  27.372   6.911
 6189POPC   C4B77398  44.225  27.315   7.357
 6190POPC   NC377399  24.535  39.115   5.296
 6190POPC   PO477400  24.189  39.562   5.676
 6190POPC   GL177401  24.415  39.182   5.780
 6190POPC   GL277402  24.726  39.363   5.830
 6190POPC   C1A77403  24.516  38.962   6.133
 6190POPC   D2A77404  24.411  39.234   6.457
 6190POPC   C3A77405  24.448  39.167   6.874
 6190POPC   C4A77406  24.526  39.087   7.282
 6190POPC   C1B77407  24.889  39.307   6.267
 6190POPC   C2B77408  24.835  39.447   6.707
 6190POPC   C3B77409  24.985  39.362   7.186
 6190POPC   C4B77410  24.779  39.312   7.651
 6191POPC   NC377411   3.250   2.040   5.502
 6191POPC   PO477412   3.661   1.495   5.413
 6191POPC   GL177413   3.616   1.759   5.796
 6191POPC   GL277414   3.257   1.706   5.875
 6191POPC   C1A77415   3.692   1.891   6.253
 6191POPC   D2A77416   3.650   2.144   6.667
 6191POPC   C3A77417   3.882   2.087   7.071
 6191POPC   C4A77418   3.739   1.999   7.489
 6191POPC   C1B77419   3.072   1.836   6.276
 6191POPC   C2B77420   3.141   2.025   6.685
 6191POPC   C3B77421   3.362   1.991   7.087
 6191POPC   C4B77422   3.235   2.120   7.514
 6192POPC   NC377423  18.571  37.319   5.432
 6192POPC   PO477424  18.418  37.948   5.290
 6192POPC   GL177425  18.500  37.703   5.744
 6192POPC   GL277426  18.581  37.366   5.923
 6192POPC   C1A77427  18.260  37.680   6.144
 6192POPC   D2A77428  18.358  37.656   6.590
 6192POPC   C3A77429  18.097  37.550   6.954
 6192POPC   C4A77430  17.940  37.795   7.288
 6192POPC   C1B77431  18.770  37.565   6.274
 6192POPC   C2B77432  18.859  37.700   6.689
 6192POPC   C3B77433  18.603  37.566   7.033
 6192POPC   C4B77434  18.434  37.703   7.428
 6193POPC   NC377435  31.992  11.082   5.433
 6193POPC   PO477436  32.355  11.564   5.554
 6193POPC   GL177437  32.224  11.326   5.869
 6193POPC   GL277438  31.904  11.479   5.821
 6193POPC   C1A77439  32.372  11.328   6.309
 6193POPC   D2A77440  32.483  11.691   6.576
 6193POPC   C3A77441  32.294  11.530   6.940
 6193POPC   C4A77442  32.353  11.112   7.040
 6193POPC   C1B77443  31.845  11.297   6.220
 6193POPC   C2B77444  31.896  11.190   6.656
 6193POPC   C3B77445  31.846  11.059   7.068
 6193POPC   C4B77446  31.878  11.423   7.268
 6194POPC   NC377447  31.904  20.674   5.338
 6194POPC   PO477448  32.525  20.882   5.232
 6194POPC   GL177449  32.341  20.700   5.638
 6194POPC   GL277450  32.405  20.330   5.601
 6194POPC   C1A77451  32.194  20.490   6.046
 6194POPC   D2A77452  31.976  20.626   6.420
 6194POPC   C3A77453  32.184  20.620   6.813
 6194POPC   C4A77454  32.110  20.735   7.253
 6194POPC   C1B77455  32.624  20.209   5.980
 6194POPC   C2B77456  32.634  20.258   6.442
 6194POPC   C3B77457  32.646  20.153   6.877
 6194POPC   C4B77458  32.439  20.377   7.180
 6195POPC   NC377459  41.265  18.363   5.410
 6195POPC   PO477460  41.514  17.832   5.135
 6195POPC   GL177461  41.517  17.968   5.625
 6195POPC   GL277462  41.687  18.294   5.701
 6195POPC   C1A77463  41.488  17.966   6.099
 6195POPC   D2A77464  41.780  18.047   6.483
 6195POPC   C3A77465  41.598  18.146   6.894
 6195POPC   C4A77466  41.758  18.226   7.263
 6195POPC   C1B77467  41.714  18.453   6.130
 6195POPC   C2B77468  41.581  18.529   6.558
 6195POPC   C3B77469  41.709  18.644   6.962
 6195POPC   C4B77470  41.488  18.748   7.323
 6196POPC   NC377471  38.681   4.387   5.404
 6196POPC   PO477472  37.993   4.107   5.316
 6196POPC   GL177473  38.317   4.154   5.700
 6196POPC   GL277474  38.347   4.487   5.802
 6196POPC   C1A77475  38.365   4.140   6.189
 6196POPC   D2A77476  38.183   4.028   6.597
 6196POPC   C3A77477  38.287   4.179   6.989
 6196POPC   C4A77478  38.530   3.993   7.298
 6196POPC   C1B77479  38.461   4.629   6.205
 6196POPC   C2B77480  38.617   4.420   6.587
 6196POPC   C3B77481  38.563   4.599   6.999
 6196POPC   C4B77482  38.395   4.501   7.435
 6197POPC   NC377483  28.637  22.329   5.355
 6197POPC   PO477484  28.099  22.010   5.500
 6197POPC   GL177485  28.380  22.188   5.788
 6197POPC   GL277486  28.662  21.995   5.763
 6197POPC   C1A77487  28.373  22.319   6.204
 6197POPC   D2A77488  28.592  22.448   6.573
 6197POPC   C3A77489  28.415  22.376   6.927
 6197POPC   C4A77490  28.716  22.355   7.196
 6197POPC   C1B77491  28.559  21.833   6.180
 6197POPC   C2B77492  28.387  21.951   6.590
 6197POPC   C3B77493  28.532  21.893   7.009
 6197POPC   C4B77494  28.692  21.916   7.448
 6198POPC   NC377495   7.799  28.987   5.419
 6198POPC   PO477496   8.491  29.281   5.357
 6198POPC   GL177497   8.185  29.190   5.726
 6198POPC   GL277498   7.926  29.422   5.788
 6198POPC   C1A77499   8.061  28.962   6.126
 6198POPC   D2A77500   8.238  28.915   6.570
 6198POPC   C3A77501   8.185  29.125   6.978
 6198POPC   C4A77502   8.103  28.969   7.392
 6198POPC   C1B77503   8.003  29.439   6.245
 6198POPC   C2B77504   7.833  29.322   6.660
 6198POPC   C3B77505   7.851  29.543   7.063
 6198POPC   C4B77506   8.059  29.483   7.468
 6199POPC   NC377507  23.772   1.289   5.128
 6199POPC   PO477508  23.212   1.473   5.416
 6199POPC   GL177509  23.520   1.264   5.704
 6199POPC   GL277510  23.891   1.326   5.641
 6199POPC   C1A77511  23.671   1.207   6.173
 6199POPC   D2A77512  23.655   1.011   6.608
 6199POPC   C3A77513  23.705   1.051   7.079
 6199POPC   C4A77514  23.687   0.713   7.421
 6199POPC   C1B77515  24.119   1.430   6.050
 6199POPC   C2B77516  24.109   1.312   6.525
 6199POPC   C3B77517  24.121   1.349   7.008
 6199POPC   C4B77518  24.069   1.449   7.468
 6200POPC   NC377519  44.110   0.841   5.362
 6200POPC   PO477520  43.689   0.249   5.536
 6200POPC   GL177521  43.880   0.382   5.876
 6200POPC   GL277522  44.159   0.552   5.779
 6200POPC   C1A77523  43.943   0.246   6.288
 6200POPC   D2A77524  43.826   0.465   6.639
 6200POPC   C3A77525  43.871   0.249   7.039
 6200POPC   C4A77526  43.942   0.193   7.466
 6200POPC   C1B77527  44.069   0.743   6.180
 6200POPC   C2B77528  44.221   0.825   6.579
 6200POPC   C3B77529  44.045   0.757   6.974
 6200POPC   C4B77530  44.160   0.636   7.360
 6201POPC   NC377531  25.204   5.678   5.241
 6201POPC   PO477532  25.197   6.220   5.589
 6201POPC   GL177533  25.108   5.893   5.866
 6201POPC   GL277534  25.177   5.587   5.744
 6201POPC   C1A77535  25.362   5.707   6.226
 6201POPC   D2A77536  25.529   5.505   6.622
 6201POPC   C3A77537  25.420   5.673   7.065
 6201POPC   C4A77538  25.696   5.956   7.352
 6201POPC   C1B77539  24.925   5.463   6.123
 6201POPC   C2B77540  25.004   5.491   6.573
 6201POPC   C3B77541  24.963   5.419   7.019
 6201POPC   C4B77542  24.894   5.520   7.488
 6202POPC   NC377543  28.970  13.504   4.997
 6202POPC   PO477544  29.353  13.929   5.443
 6202POPC   GL177545  29.030  13.732   5.677
 6202POPC   GL277546  29.294  13.587   5.874
 6202POPC   C1A77547  28.859  13.683   6.118
 6202POPC   D2A77548  29.177  13.554   6.429
 6202POPC   C3A77549  29.129  13.568   6.876
 6202POPC   C4A77550  28.789  13.741   7.100
 6202POPC   C1B77551  29.610  13.405   6.186
 6202POPC   C2B77552  29.589  13.254   6.625
 6202POPC   C3B77553  29.527  13.273   7.087
 6202POPC   C4B77554  29.255  13.507   7.401
 6203POPC   NC377555  22.425  20.585   5.119
 6203POPC   PO477556  22.059  20.745   5.637
 6203POPC   GL177557  22.168  20.628   6.004
 6203POPC   GL277558  22.507  20.651   5.962
 6203POPC   C1A77559  22.219  20.384   6.352
 6203POPC   D2A77560  22.084  20.432   6.719
 6203POPC   C3A77561  22.234  20.781   6.939
 6203POPC   C4A77562  21.997  20.580   7.227
 6203POPC   C1B77563  22.715  20.382   6.256
 6203POPC   C2B77564  22.672  20.237   6.691
 6203POPC   C3B77565  22.474  20.330   7.088
 6203POPC   C4B77566  22.476  20.663   7.388
 6204POPC   NC377567   4.850  27.729   5.464
 6204POPC   PO477568   5.506  27.455   5.417
 6204POPC   GL177569   5.219  27.571   5.772
 6204POPC   GL277570   5.260  27.943   5.731
 6204POPC   C1A77571   4.909  27.658   6.116
 6204POPC   D2A77572   4.753  27.459   6.499
 6204POPC   C3A77573   4.942  27.571   6.878
 6204POPC   C4A77574   5.254  27.496   7.224
 6204POPC   C1B77575   5.191  28.095   6.142
 6204POPC   C2B77576   5.070  27.929   6.528
 6204POPC   C3B77577   5.336  27.870   6.888
 6204POPC   C4B77578   5.283  28.043   7.260
 6205POPC   NC377579  13.063  30.557   5.497
 6205POPC   PO477580  13.740  30.852   5.403
 6205POPC   GL177581  13.649  30.670   5.750
 6205POPC   GL277582  13.324  30.837   5.811
 6205POPC   C1A77583  13.848  30.730   6.158
 6205POPC   D2A77584  13.848  30.532   6.565
 6205POPC   C3A77585  13.826  30.780   6.962
 6205POPC   C4A77586  13.975  30.639   7.369
 6205POPC   C1B77587  13.385  30.552   6.157
 6205POPC   C2B77588  13.311  30.507   6.569
 6205POPC   C3B77589  13.462  30.414   6.937
 6205POPC   C4B77590  13.472  30.641   7.314
 6206POPC   NC377591  37.409  25.219   5.313
 6206POPC   PO477592  37.920  25.709   5.383
 6206POPC   GL177593  37.866  25.369   5.663
 6206POPC   GL277594  37.546  25.410   5.797
 6206POPC   C1A77595  37.984  25.219   6.103
 6206POPC   D2A77596  38.066  25.327   6.550
 6206POPC   C3A77597  37.863  25.123   6.934
 6206POPC   C4A77598  37.935  25.038   7.402
 6206POPC   C1B77599  37.573  25.513   6.223
 6206POPC   C2B77600  37.545  25.417   6.642
 6206POPC   C3B77601  37.613  25.584   7.022
 6206POPC   C4B77602  37.993  25.563   7.235
 6207POPC   NC377603   8.561  37.762   5.405
 6207POPC   PO477604   9.129  37.396   5.449
 6207POPC   GL177605   8.894  37.546   5.783
 6207POPC   GL277606   8.956  37.870   5.790
 6207POPC   C1A77607   8.958  37.562   6.229
 6207POPC   D2A77608   9.181  37.674   6.589
 6207POPC   C3A77609   8.956  37.567   6.935
 6207POPC   C4A77610   9.110  37.471   7.280
 6207POPC   C1B77611   8.860  38.063   6.172
 6207POPC   C2B77612   8.744  37.930   6.581
 6207POPC   C3B77613   8.889  38.078   6.965
 6207POPC   C4B77614   8.587  37.949   7.223
 6208POPC   NC377615  23.345  42.404   5.421
 6208POPC   PO477616  22.740  42.085   5.535
 6208POPC   GL177617  22.920  42.262   5.897
 6208POPC   GL277618  23.241  42.122   5.881
 6208POPC   C1A77619  22.868  42.381   6.346
 6208POPC   D2A77620  22.970  42.672   6.732
 6208POPC   C3A77621  23.052  42.404   7.058
 6208POPC   C4A77622  22.753  42.177   7.302
 6208POPC   C1B77623  23.145  41.911   6.286
 6208POPC   C2B77624  23.067  41.972   6.747
 6208POPC   C3B77625  23.316  41.973   7.121
 6208POPC   C4B77626  23.367  41.989   7.571
 6209POPC   NC377627  13.609  22.883   5.222
 6209POPC   PO477628  13.958  22.370   5.503
 6209POPC   GL177629  13.696  22.733   5.730
 6209POPC   GL277630  13.762  23.084   5.758
 6209POPC   C1A77631  13.402  22.794   6.109
 6209POPC   D2A77632  13.238  22.526   6.479
 6209POPC   C3A77633  13.348  22.729   6.878
 6209POPC   C4A77634  13.613  22.561   7.200
 6209POPC   C1B77635  13.720  23.300   6.132
 6209POPC   C2B77636  13.885  23.211   6.526
 6209POPC   C3B77637  13.808  22.986   6.904
 6209POPC   C4B77638  13.567  23.075   7.268
 6210POPC   NC377639  33.457   3.375   5.410
 6210POPC   PO477640  33.951   3.786   5.486
 6210POPC   GL177641  33.790   3.580   5.847
 6210POPC   GL277642  33.832   3.246   5.798
 6210POPC   C1A77643  33.967   3.514   6.253
 6210POPC   D2A77644  33.923   3.280   6.618
 6210POPC   C3A77645  33.842   3.518   6.965
 6210POPC   C4A77646  33.920   3.433   7.390
 6210POPC   C1B77647  33.609   3.160   6.194
 6210POPC   C2B77648  33.410   3.219   6.564
 6210POPC   C3B77649  33.508   3.109   6.988
 6210POPC   C4B77650  33.393   3.461   7.225
 6211POPC   NC377651  44.359   1.324   5.427
 6211POPC   PO477652  43.709   1.087   5.282
 6211POPC   GL177653  43.886   1.221   5.682
 6211POPC   GL277654  44.190   1.070   5.822
 6211POPC   C1A77655  43.750   1.256   6.119
 6211POPC   D2A77656  43.751   0.996   6.484
 6211POPC   C3A77657  43.660   1.126   6.894
 6211POPC   C4A77658  43.822   1.065   7.301
 6211POPC   C1B77659  44.254   1.237   6.230
 6211POPC   C2B77660  44.450   1.293   6.634
 6211POPC   C3B77661  44.237   1.240   7.018
 6211POPC   C4B77662  44.344   1.083   7.422
 6212POPC   NC377663  25.436  22.664   5.362
 6212POPC   PO477664  25.128  23.296   5.552
 6212POPC   GL177665  25.240  23.172   5.960
 6212POPC   GL277666  25.467  22.920   5.830
 6212POPC   C1A77667  25.290  22.846   6.311
 6212POPC   D2A77668  25.393  22.609   6.709
 6212POPC   C3A77669  25.126  22.661   7.020
 6212POPC   C4A77670  25.125  22.824   7.424
 6212POPC   C1B77671  25.720  23.116   6.199
 6212POPC   C2B77672  25.641  23.061   6.647
 6212POPC   C3B77673  25.422  23.116   7.049
 6212POPC   C4B77674  25.615  23.200   7.468
 6213POPC   NC377675  20.714  23.900   5.519
 6213POPC   PO477676  20.260  23.417   5.384
 6213POPC   GL177677  20.351  23.504   5.828
 6213POPC   GL277678  20.674  23.704   5.971
 6213POPC   C1A77679  20.219  23.721   6.197
 6213POPC   D2A77680  20.538  23.813   6.461
 6213POPC   C3A77681  20.453  23.819   6.876
 6213POPC   C4A77682  20.194  23.629   7.166
 6213POPC   C1B77683  20.941  23.560   6.294
 6213POPC   C2B77684  20.860  23.497   6.741
 6213POPC   C3B77685  20.699  23.490   7.177
 6213POPC   C4B77686  21.002  23.449   7.472
 6214POPC   NC377687  43.645  23.359   5.036
 6214POPC   PO477688  44.019  23.764   5.483
 6214POPC   GL177689  43.923  23.632   5.853
 6214POPC   GL277690  43.761  23.960   5.978
 6214POPC   C1A77691  43.774  23.529   6.224
 6214POPC   D2A77692  43.939  23.677   6.592
 6214POPC   C3A77693  43.818  23.558   6.987
 6214POPC   C4A77694  43.646  23.850   7.263
 6214POPC   C1B77695  44.118  24.065   6.272
 6214POPC   C2B77696  44.367  23.938   6.666
 6214POPC   C3B77697  44.221  23.946   7.109
 6214POPC   C4B77698  43.961  24.256   7.385
 6215POPC   NC377699  14.135   7.108   5.194
 6215POPC   PO477700  14.750   7.319   5.340
 6215POPC   GL177701  14.509   7.444   5.743
 6215POPC   GL277702  14.207   7.274   5.721
 6215POPC   C1A77703  14.478   7.669   6.182
 6215POPC   D2A77704  14.341   7.837   6.610
 6215POPC   C3A77705  14.492   7.532   6.924
 6215POPC   C4A77706  14.320   7.336   7.296
 6215POPC   C1B77707  14.307   7.198   6.158
 6215POPC   C2B77708  14.409   7.108   6.592
 6215POPC   C3B77709  14.552   6.997   6.983
 6215POPC   C4B77710  14.614   6.841   7.372
 6216POPC   NC377711  27.322  24.022   5.486
 6216POPC   PO477712  27.740  23.427   5.379
 6216POPC   GL177713  27.587  23.653   5.734
 6216POPC   GL277714  27.717  23.999   5.829
 6216POPC   C1A77715  27.592  23.662   6.185
 6216POPC   D2A77716  27.649  23.462   6.558
 6216POPC   C3A77717  27.367  23.494   6.900
 6216POPC   C4A77718  27.484  23.665   7.314
 6216POPC   C1B77719  27.455  24.189   6.148
 6216POPC   C2B77720  27.363  24.000   6.568
 6216POPC   C3B77721  27.700  23.894   6.859
 6216POPC   C4B77722  28.051  24.102   7.091
 6217POPC   NC377723  20.998  24.237   5.147
 6217POPC   PO477724  21.441  24.711   5.466
 6217POPC   GL177725  21.316  24.452   5.811
 6217POPC   GL277726  20.964  24.364   5.788
 6217POPC   C1A77727  21.475  24.388   6.233
 6217POPC   D2A77728  21.328  24.340   6.649
 6217POPC   C3A77729  21.421  24.655   6.964
 6217POPC   C4A77730  21.462  24.507   7.393
 6217POPC   C1B77731  20.986  24.573   6.223
 6217POPC   C2B77732  20.916  24.632   6.668
 6217POPC   C3B77733  20.988  24.450   7.080
 6217POPC   C4B77734  20.989  24.372   7.525
 6218POPC   NC377735  31.186   3.647   5.501
 6218POPC   PO477736  31.601   3.204   5.341
 6218POPC   GL177737  31.682   3.360   5.804
 6218POPC   GL277738  31.515   3.666   5.869
 6218POPC   C1A77739  31.600   3.413   6.293
 6218POPC   D2A77740  31.438   3.178   6.683
 6218POPC   C3A77741  31.551   3.369   7.072
 6218POPC   C4A77742  31.472   3.700   7.380
 6218POPC   C1B77743  31.233   3.768   6.237
 6218POPC   C2B77744  31.270   3.695   6.683
 6218POPC   C3B77745  31.484   3.999   6.966
 6218POPC   C4B77746  31.316   4.209   7.336
 6219POPC   NC377747  20.356   9.789   5.397
 6219POPC   PO477748  21.020   9.827   5.426
 6219POPC   GL177749  20.791   9.789   5.787
 6219POPC   GL277750  20.946   9.440   5.798
 6219POPC   C1A77751  20.544   9.963   6.146
 6219POPC   D2A77752  20.612   9.825   6.571
 6219POPC   C3A77753  20.682  10.067   6.951
 6219POPC   C4A77754  20.419   9.934   7.258
 6219POPC   C1B77755  20.731   9.471   6.202
 6219POPC   C2B77756  20.688   9.321   6.628
 6219POPC   C3B77757  20.630   9.535   7.008
 6219POPC   C4B77758  20.760   9.603   7.442
 6220POPC   NC377759   2.725  36.827   5.345
 6220POPC   PO477760   3.329  37.114   5.502
 6220POPC   GL177761   2.940  37.104   5.754
 6220POPC   GL277762   2.821  36.758   5.835
 6220POPC   C1A77763   2.726  37.142   6.179
 6220POPC   D2A77764   2.873  36.994   6.586
 6220POPC   C3A77765   2.692  37.222   6.906
 6220POPC   C4A77766   2.827  37.111   7.299
 6220POPC   C1B77767   2.762  36.599   6.244
 6220POPC   C2B77768   2.770  36.436   6.655
 6220POPC   C3B77769   2.660  36.670   6.984
 6220POPC   C4B77770   2.495  36.756   7.386
 6221POPC   NC377771  12.624   2.803   5.342
 6221POPC   PO477772  13.217   2.817   5.490
 6221POPC   GL177773  12.889   2.777   5.790
 6221POPC   GL277774  12.519   2.667   5.817
 6221POPC   C1A77775  13.071   2.734   6.175
 6221POPC   D2A77776  13.287   2.579   6.518
 6221POPC   C3A77777  13.020   2.479   6.830
 6221POPC   C4A77778  13.023   2.681   7.218
 6221POPC   C1B77779  12.586   2.886   6.200
 6221POPC   C2B77780  12.715   2.819   6.606
 6221POPC   C3B77781  12.551   2.655   6.998
 6221POPC   C4B77782  12.516   2.881   7.372
 6222POPC   NC377783  35.382  21.113   5.539
 6222POPC   PO477784  35.158  21.682   5.394
 6222POPC   GL177785  35.337  21.582   5.799
 6222POPC   GL277786  35.641  21.371   5.893
 6222POPC   C1A77787  35.408  21.696   6.217
 6222POPC   D2A77788  35.564  21.727   6.613
 6222POPC   C3A77789  35.544  21.406   6.894
 6222POPC   C4A77790  35.482  21.623   7.267
 6222POPC   C1B77791  35.364  21.136   6.187
 6222POPC   C2B77792  35.385  20.932   6.613
 6222POPC   C3B77793  35.282  20.949   7.043
 6222POPC   C4B77794  35.502  21.125   7.372
 6223POPC   NC377795  44.997  10.482   5.427
 6223POPC   PO477796   0.621  10.853   5.448
 6223POPC   GL177797   0.515  10.498   5.706
 6223POPC   GL277798   0.252  10.641   5.840
 6223POPC   C1A77799   0.446  10.236   6.108
 6223POPC   D2A77800   0.641  10.133   6.510
 6223POPC   C3A77801   0.563  10.366   6.897
 6223POPC   C4A77802   0.384  10.349   7.337
 6223POPC   C1B77803   0.392  10.770   6.224
 6223POPC   C2B77804   0.317  10.930   6.634
 6223POPC   C3B77805   0.304  10.807   7.070
 6223POPC   C4B77806   0.398  11.015   7.460
 6224POPC   NC377807  28.210  26.419   5.629
 6224POPC   PO477808  27.998  27.022   5.423
 6224POPC   GL177809  28.356  26.918   5.698
 6224POPC   GL277810  28.650  26.705   5.642
 6224POPC   C1A77811  28.356  26.876   6.141
 6224POPC   D2A77812  28.451  27.094   6.517
 6224POPC   C3A77813  28.620  27.225   6.921
 6224POPC   C4A77814  28.310  27.018   7.155
 6224POPC   C1B77815  28.689  26.478   6.076
 6224POPC   C2B77816  28.504  26.498   6.483
 6224POPC   C3B77817  28.304  26.561   6.883
 6224POPC   C4B77818  28.528  26.559   7.243
 6225POPC   NC377819  29.560  42.659   5.444
 6225POPC   PO477820  29.063  43.207   5.324
 6225POPC   GL177821  29.056  43.103   5.771
 6225POPC   GL277822  28.933  43.401   5.901
 6225POPC   C1A77823  28.970  42.996   6.226
 6225POPC   D2A77824  28.986  43.180   6.655
 6225POPC   C3A77825  28.989  42.962   7.054
 6225POPC   C4A77826  29.389  42.783   7.163
 6225POPC   C1B77827  29.178  43.471   6.238
 6225POPC   C2B77828  29.339  43.533   6.622
 6225POPC   C3B77829  29.356  43.332   7.030
 6225POPC   C4B77830  29.087  43.515   7.317
 6226POPC   NC377831  37.535  26.777   5.253
 6226POPC   PO477832  36.859  26.945   5.422
 6226POPC   GL177833  37.007  26.934   5.839
 6226POPC   GL277834  36.935  26.584   5.861
 6226POPC   C1A77835  36.923  26.842   6.294
 6226POPC   D2A77836  36.718  26.891   6.671
 6226POPC   C3A77837  36.973  26.867   7.027
 6226POPC   C4A77838  36.776  26.714   7.411
 6226POPC   C1B77839  37.029  26.354   6.244
 6226POPC   C2B77840  37.154  26.434   6.676
 6226POPC   C3B77841  36.984  26.366   7.088
 6226POPC   C4B77842  37.086  26.312   7.536
 6227POPC   NC377843  34.130  28.502   5.520
 6227POPC   PO477844  33.612  28.217   5.198
 6227POPC   GL177845  33.785  28.163   5.687
 6227POPC   GL277846  33.759  28.429   5.882
 6227POPC   C1A77847  33.904  28.113   6.218
 6227POPC   D2A77848  33.928  27.909   6.626
 6227POPC   C3A77849  33.745  28.103   6.957
 6227POPC   C4A77850  33.719  28.086   7.403
 6227POPC   C1B77851  33.599  28.601   6.244
 6227POPC   C2B77852  33.738  28.667   6.660
 6227POPC   C3B77853  33.729  28.590   7.088
 6227POPC   C4B77854  33.906  28.647   7.488
 6228POPC   NC377855  33.117  13.460   5.331
 6228POPC   PO477856  32.682  13.765   5.748
 6228POPC   GL177857  33.098  13.617   5.863
 6228POPC   GL277858  33.328  13.343   5.783
 6228POPC   C1A77859  33.126  13.548   6.301
 6228POPC   D2A77860  33.160  13.645   6.724
 6228POPC   C3A77861  32.880  13.638   7.064
 6228POPC   C4A77862  33.241  13.769   7.264
 6228POPC   C1B77863  33.452  13.181   6.200
 6228POPC   C2B77864  33.386  13.189   6.661
 6228POPC   C3B77865  33.301  13.293   7.095
 6228POPC   C4B77866  33.458  13.363   7.528
 6229POPC   NC377867  31.013   7.429   5.373
 6229POPC   PO477868  31.347   6.885   5.435
 6229POPC   GL177869  31.504   7.128   5.788
 6229POPC   GL277870  31.362   7.463   5.779
 6229POPC   C1A77871  31.664   7.197   6.214
 6229POPC   D2A77872  31.462   7.073   6.586
 6229POPC   C3A77873  31.524   7.168   7.010
 6229POPC   C4A77874  31.507   7.110   7.448
 6229POPC   C1B77875  31.299   7.571   6.236
 6229POPC   C2B77876  31.536   7.590   6.628
 6229POPC   C3B77877  31.402   7.674   7.041
 6229POPC   C4B77878  31.164   7.575   7.372
 6230POPC   NC377879   2.449   2.238   5.343
 6230POPC   PO477880   2.903   1.665   5.492
 6230POPC   GL177881   2.724   1.708   5.889
 6230POPC   GL277882   2.651   2.049   5.779
 6230POPC   C1A77883   2.589   1.607   6.327
 6230POPC   D2A77884   2.533   1.589   6.787
 6230POPC   C3A77885   2.812   1.817   7.013
 6230POPC   C4A77886   2.898   2.200   7.154
 6230POPC   C1B77887   2.386   2.078   6.122
 6230POPC   C2B77888   2.262   1.995   6.529
 6230POPC   C3B77889   2.368   2.131   6.920
 6230POPC   C4B77890   2.432   2.256   7.326
 6231POPC   NC377891  26.420  10.025   5.436
 6231POPC   PO477892  25.761  10.230   5.263
 6231POPC   GL177893  25.997  10.296   5.711
 6231POPC   GL277894  26.342  10.248   5.908
 6231POPC   C1A77895  25.935  10.427   6.176
 6231POPC   D2A77896  26.168  10.482   6.586
 6231POPC   C3A77897  25.969  10.503   6.999
 6231POPC   C4A77898  25.817  10.647   7.404
 6231POPC   C1B77899  26.407  10.655   6.159
 6231POPC   C2B77900  26.531  10.886   6.531
 6231POPC   C3B77901  26.428  10.762   6.950
 6231POPC   C4B77902  26.333  10.617   7.346
 6232POPC   NC377903  23.564   8.606   5.525
 6232POPC   PO477904  23.876   7.971   5.408
 6232POPC   GL177905  23.509   7.979   5.696
 6232POPC   GL277906  23.682   8.213   5.847
 6232POPC   C1A77907  23.445   7.894   6.144
 6232POPC   D2A77908  23.419   8.174   6.502
 6232POPC   C3A77909  23.400   7.974   6.870
 6232POPC   C4A77910  23.517   8.038   7.277
 6232POPC   C1B77911  23.849   8.280   6.246
 6232POPC   C2B77912  23.859   8.480   6.609
 6232POPC   C3B77913  23.634   8.449   6.943
 6232POPC   C4B77914  23.832   8.437   7.294
 6233POPC   NC377915  40.783  34.005   5.204
 6233POPC   PO477916  40.552  33.395   5.405
 6233POPC   GL177917  40.841  33.725   5.648
 6233POPC   GL277918  40.606  34.000   5.732
 6233POPC   C1A77919  40.952  33.926   6.091
 6233POPC   D2A77920  40.652  33.953   6.478
 6233POPC   C3A77921  40.788  33.894   6.914
 6233POPC   C4A77922  41.034  33.973   7.289
 6233POPC   C1B77923  40.574  33.593   6.060
 6233POPC   C2B77924  40.755  33.395   6.446
 6233POPC   C3B77925  40.660  33.387   6.902
 6233POPC   C4B77926  40.776  33.533   7.304
 6234POPC   NC377927  35.452  39.352   5.494
 6234POPC   PO477928  35.638  38.715   5.712
 6234POPC   GL177929  35.341  39.009   5.893
 6234POPC   GL277930  35.143  39.337   5.894
 6234POPC   C1A77931  35.354  39.106   6.319
 6234POPC   D2A77932  35.415  39.327   6.663
 6234POPC   C3A77933  35.350  39.222   7.069
 6234POPC   C4A77934  34.969  39.102   7.164
 6234POPC   C1B77935  35.395  39.603   6.170
 6234POPC   C2B77936  35.410  39.812   6.551
 6234POPC   C3B77937  35.607  39.710   6.931
 6234POPC   C4B77938  35.690  39.904   7.274
 6235POPC   NC377939   1.987  25.140   5.525
 6235POPC   PO477940   2.314  25.741   5.563
 6235POPC   GL177941   2.141  25.515   5.876
 6235POPC   GL277942   1.785  25.445   5.885
 6235POPC   C1A77943   2.066  25.567   6.288
 6235POPC   D2A77944   2.249  25.336   6.587
 6235POPC   C3A77945   2.101  25.418   6.968
 6235POPC   C4A77946   1.734  25.532   7.174
 6235POPC   C1B77947   1.842  25.123   6.238
 6235POPC   C2B77948   1.742  25.179   6.691
 6235POPC   C3B77949   1.808  24.997   7.129
 6235POPC   C4B77950   1.747  24.941   7.611
 6236POPC   NC377951  37.539  22.190   5.290
 6236POPC   PO477952  38.029  22.292   5.718
 6236POPC   GL177953  37.585  22.325   5.781
 6236POPC   GL277954  37.618  21.975   5.814
 6236POPC   C1A77955  37.360  22.302   6.164
 6236POPC   D2A77956  37.597  22.341   6.548
 6236POPC   C3A77957  37.439  22.427   6.952
 6236POPC   C4A77958  37.729  22.444   7.290
 6236POPC   C1B77959  37.762  21.895   6.268
 6236POPC   C2B77960  37.797  21.897   6.744
 6236POPC   C3B77961  37.685  21.932   7.197
 6236POPC   C4B77962  37.448  21.738   7.557
 6237W        W77963  27.191  10.771  14.590
 6238W        W77964  21.162  22.526   3.782
 6239W        W77965  23.370  28.838   4.901
 6240W        W77966   9.860  16.003  12.189
 6241W        W77967  26.663  13.734   3.776
 6242W        W77968  37.343  16.557  10.772
 6243W        W77969  34.876   2.400  12.933
 6244W        W77970  28.902  26.579   2.264
 6245W        W77971   5.390  21.694  10.656
 6246W        W77972   3.753  40.431   1.235
 6247W        W77973  14.382   7.363   1.903
 6248W        W77974  38.080  28.664  10.622
 6249W        W77975  32.918  25.465   4.509
 6250W        W77976   6.423   7.458   2.794
 6251W        W77977  18.741   8.344  10.663
 6252W        W77978  20.160  37.727   0.559
 6253W        W77979   5.299  15.196  13.826
 6254W        W77980  22.201   4.235   0.301
 6255W        W77981  11.129  30.941   1.738
 6256W        W77982  19.200  36.812  12.319
 6257W        W77983  11.735  40.281   2.721
 6258W        W77984  13.612  36.646  12.561
 6259W        W77985  18.620   4.925   0.079
 6260W        W77986  31.645   8.757  11.253
 6261W        W77987  19.572  44.430  12.012
 6262W        W77988  18.353  38.033  13.764
 6263W        W77989  11.098  34.676  13.362
 6264W        W77990  16.338  10.338   0.567
 6265W        W77991  12.051   3.579  12.480
 6266W        W77992  23.381   3.475  13.877
 6267W        W77993   4.756  42.439  11.179
 6268W        W77994   5.132   5.135  14.287
 6269W        W77995  29.468  27.891   1.893
 6270W        W77996   9.663  36.919   1.839
 6271W        W77997  42.891  26.981  14.360
 6272W        W77998  10.818  41.788   3.299
 6273W        W77999   0.253  31.049  10.607
 6274W        W78000  22.852  14.235  12.448
 6275W        W78001  19.425  26.899   3.764
 6276W        W78002   0.828  27.112  10.811
 6277W        W78003   5.453  37.472   3.829
 6278W        W78004   7.246  15.645  14.911
 6279W        W78005   4.222   4.754   1.962
 6280W        W78006  19.590  14.305  11.613
 6281W        W78007  14.389  37.293  13.997
 6282W        W78008  42.896  40.657  14.399
 6283W        W78009  39.864  15.786  11.857
 6284W        W78010  36.979  40.008   2.292
 6285W        W78011   3.841  29.287  14.364
 6286W        W78012  41.156  36.788  11.606
 6287W        W78013  12.126  29.494  14.748
 6288W        W78014  36.368  33.988   2.229
 6289W        W78015   2.670  20.206  14.914
 6290W        W78016  38.001  33.033   1.828
 6291W        W78017  23.000  13.343  14.497
 6292W        W78018  42.048  23.694  11.083
 6293W        W78019   2.727   8.475  13.352
 6294W        W78020   5.226  24.468  14.108
 6295W        W78021  21.589  11.143  13.885
 6296W        W78022   5.191  16.667   1.379
 6297W        W78023  35.636   9.168  11.750
 6298W        W78024   4.378  42.570  13.931
 6299W        W78025  15.344  40.413  12.396
 6300W        W78026  21.753   7.720  12.203
 6301W        W78027  14.676  26.432  14.925
 6302W        W78028   7.503  10.891  13.837
 6303W        W78029   8.662  26.638   4.998
 6304W        W78030  41.836  41.794   2.132
 6305W        W78031  14.579  31.593   4.794
 6306W        W78032  38.940  21.284  13.815
 6307W        W78033  37.017  38.699  12.017
 6308W        W78034  33.379   3.251  11.586
 6309W        W78035   0.694  34.102   1.267
 6310W        W78036  15.779   1.447  11.725
 6311W        W78037  40.105  32.136   4.607
 6312W        W78038   1.544  28.367  14.500
 6313W        W78039  37.466  44.337   1.833
 6314W        W78040  15.715  18.456  11.943
 6315W        W78041  44.775   8.651  13.484
 6316W        W78042  42.170  44.232  14.500
 6317W        W78043  37.499  10.609   1.101
 6318W        W78044  12.232  22.316  12.485
 6319W        W78045   6.536  32.640   1.919
 6320W        W78046  32.970  35.588  10.666
 6321W        W78047  38.923  32.375   2.586
 6322W        W78048  21.264  15.133   0.411
 6323W        W78049  21.683  30.851   2.410
 6324W        W78050  26.883  35.569  14.959
 6325W        W78051  13.172   3.915  11.187
 6326W        W78052  31.159  26.420   4.629
 6327W        W78053  11.272  29.909   4.897
 6328W        W78054   4.562   5.959   1.304
 6329W        W78055   6.982  11.617  13.899
 6330W        W78056  10.957  15.797   2.693
 6331W        W78057   0.377  16.424  13.065
 6332W        W78058  36.561  24.036   1.388
 6333W        W78059  19.846  11.352  11.606
 6334W        W78060   1.600  24.692   0.768
 6335W        W78061  29.989  24.264  12.469
 6336W        W78062  18.244  27.938  13.945
 6337W        W78063   8.280  35.574  13.534
 6338W        W78064  44.521  25.548   0.056
 6339W        W78065   5.226  29.503   4.832
 6340W        W78066  21.198  28.885  10.658
 6341W        W78067  10.138  40.952  11.236
 6342W        W78068  43.729  40.336   1.300
 6343W        W78069  26.265  38.944  11.239
 6344W        W78070  35.417  10.162  13.179
 6345W        W78071  34.112  43.337  14.981
 6346W        W78072  28.505  40.521   2.419
 6347W        W78073   2.823  24.633   0.812
 6348W        W78074   9.747  37.623  12.933
 6349W        W78075  42.531  24.952  10.698
 6350W        W78076   7.706  10.096  11.998
 6351W        W78077  35.097  23.195  11.505
 6352W        W78078  16.600  24.706   0.959
 6353W        W78079   0.056  25.750  12.420
 6354W        W78080   6.701  23.797  12.102
 6355W        W78081  21.716  41.340  13.982
 6356W        W78082  42.413   0.443  12.152
 6357W        W78083  15.222   5.341  14.532
 6358W        W78084  34.476  27.058  11.892
 6359W        W78085  24.551   4.471   4.495
 6360W        W78086  36.823  19.086   4.934
 6361W        W78087  23.653  28.483  13.898
 6362W        W78088  24.917   9.535  10.913
 6363W        W78089   4.290  13.607  14.001
 6364W        W78090  40.009  39.100  12.570
 6365W        W78091  42.030   6.729   2.388
 6366W        W78092   0.877   5.946   0.646
 6367W        W78093   4.181   8.843   2.217
 6368W        W78094  44.855   2.001  13.368
 6369W        W78095  39.466   4.193   3.883
 6370W        W78096  40.903  42.678  13.850
 6371W        W78097   9.580  44.127  14.498
 6372W        W78098  15.818  38.953   4.589
 6373W        W78099  15.909  30.538   2.373
 6374W        W78100  19.620  17.866  12.973
 6375W        W78101  34.979  21.406   0.042
 6376W        W78102  19.675  20.430  14.640
 6377W        W78103   7.237   5.439   4.110
 6378W        W78104   2.950   5.024  10.780
 6379W        W78105  35.588   3.337  12.416
 6380W        W78106  37.501  37.647  10.574
 6381W        W78107   9.703  20.033   3.233
 6382W        W78108  28.729   4.928  10.907
 6383W        W78109  15.615   1.466  11.253
 6384W        W78110   1.777  40.350  10.640
 6385W        W78111  29.576  34.122   2.746
 6386W        W78112  10.643  11.153   0.358
 6387W        W78113   0.062   8.942   0.808
 6388W        W78114  13.540  20.013  11.923
 6389W        W78115  22.963   9.237   1.881
 6390W        W78116  37.332  43.747  12.468
 6391W        W78117  39.412  20.629   4.115
 6392W        W78118  14.631  19.650  12.791
 6393W        W78119  13.412  30.968  13.760
 6394W        W78120  19.407  37.713   5.125
 6395W        W78121   1.763  31.050  14.362
 6396W        W78122   6.845  12.491  10.659
 6397W        W78123   1.350  25.075   1.683
 6398W        W78124  15.524  41.394   0.805
 6399W        W78125  19.049  30.152  11.130
 6400W        W78126  11.161  40.324  12.310
 6401W        W78127  33.648  32.513  12.495
 6402W        W78128   0.443  44.383  12.865
 6403W        W78129   0.828  11.675   9.883
 6404W        W78130  13.174  17.377   2.352
 6405W        W78131  25.582  35.750   2.726
 6406W        W78132  16.020  14.501   2.171
 6407W        W78133  27.495  44.701  13.334
 6408W        W78134   6.355  29.398  13.390
 6409W        W78135  29.190  19.737   1.431
 6410W        W78136  17.208  44.027   0.339
 6411W        W78137  13.508  39.387  14.764
 6412W        W78138  18.181  15.070  11.169
 6413W        W78139  42.853  29.585  12.165
 6414W        W78140  22.163   6.866   5.028
 6415W        W78141   3.201   3.826   2.620
 6416W        W78142   9.693   7.723  12.952
 6417W        W78143   5.229   1.736   2.682
 6418W        W78144  40.367  26.526  12.036
 6419W        W78145  15.640   2.347  11.183
 6420W        W78146  33.589   3.966  13.977
 6421W        W78147  17.292  16.209  14.008
 6422W        W78148  28.621  22.699   1.897
 6423W        W78149  41.504   2.489  14.331
 6424W        W78150  22.656   3.396   3.983
 6425W        W78151  18.389  15.167   2.326
 6426W        W78152  32.375  44.695  11.881
 6427W        W78153  15.612  31.860   2.628
 6428W        W78154   5.981   5.883   2.176
 6429W        W78155  10.163  29.313   3.746
 6430W        W78156   3.883  23.462  10.798
 6431W        W78157   2.960  43.030   0.001
 6432W        W78158  35.587   4.272  10.747
 6433W        W78159  44.032  21.846   3.820
 6434W        W78160  22.993  22.730   4.084
 6435W        W78161  27.481  17.663  12.589
 6436W        W78162  27.196  35.311  10.893
 6437W        W78163  43.897  31.780   1.844
 6438W        W78164  12.832  41.683  12.495
 6439W        W78165   1.639  36.153   2.799
 6440W        W78166   8.428  12.534   2.659
 6441W        W78167  38.111  40.923   0.349
 6442W        W78168   5.891  31.372  12.377
 6443W        W78169  33.898  15.685   2.277
 6444W        W78170  13.287  38.386  12.021
 6445W        W78171  22.779  15.326  10.226
 6446W        W78172  34.143  16.492   1.131
 6447W        W78173  17.732   0.890   4.090
 6448W        W78174   6.429  32.099  11.176
 6449W        W78175   2.404  38.880  12.361
 6450W        W78176   0.794   9.389  14.915
 6451W        W78177   9.822  44.938  11.642
 6452W        W78178  22.349  42.837   0.888
 6453W        W78179  33.570  38.724   1.129
 6454W        W78180   6.093  29.401  14.304
 6455W        W78181  40.948  22.787  11.569
 6456W        W78182   3.643  38.136   0.858
 6457W        W78183  30.256   5.300   1.159
 6458W        W78184   7.739  44.249   1.221
 6459W        W78185  13.808  18.272  12.918
 6460W        W78186   6.787  24.997   0.562
 6461W        W78187  27.188  23.233   2.593
 6462W        W78188  12.404  18.050   2.792
 6463W        W78189  26.762   7.612  14.237
 6464W        W78190  44.947  36.939   4.622
 6465W        W78191  15.077  11.278   0.420
 6466W        W78192  34.348   7.860  11.677
 6467W        W78193  21.468  13.248  13.435
 6468W        W78194  39.293  31.434  14.365
 6469W        W78195   6.144   4.990  12.559
 6470W        W78196  10.620  19.694  12.910
 6471W        W78197  32.121  34.578   0.343
 6472W        W78198  25.943  41.076   0.298
 6473W        W78199  40.376  30.503   4.617
 6474W        W78200  30.557  43.823   5.065
 6475W        W78201  34.488  11.961   0.268
 6476W        W78202  40.994  40.128  10.769
 6477W        W78203  19.015  43.757  13.780
 6478W        W78204  30.937  18.680   0.736
 6479W        W78205   3.284  39.301   4.959
 6480W        W78206  33.950  26.435   0.581
 6481W        W78207  12.064  12.142   3.632
 6482W        W78208  13.095  13.280  10.800
 6483W        W78209  31.563  10.654  11.715
 6484W        W78210  15.198  12.367  11.255
 6485W        W78211  23.094  10.995   4.779
 6486W        W78212  44.433  19.818  13.540
 6487W        W78213  29.860  16.588  10.799
 6488W        W78214  20.768  23.910  12.836
 6489W        W78215  20.762  14.912  12.290
 6490W        W78216   0.975  18.433   4.681
 6491W        W78217  13.315   3.645   1.835
 6492W        W78218  22.034  28.301   5.407
 6493W        W78219  13.558  35.423  13.791
 6494W        W78220  18.297  15.884   1.095
 6495W        W78221  44.891   7.158  14.239
 6496W        W78222  41.877  24.025   3.826
 6497W        W78223  33.436  13.886   4.531
 6498W        W78224  29.152  27.556   1.652
 6499W        W78225  31.467   3.836  12.962
 6500W        W78226  19.831  21.004  14.350
 6501W        W78227  42.936   2.738   4.123
 6502W        W78228  22.584  18.248   0.997
 6503W        W78229  11.100  38.234  11.575
 6504W        W78230  21.553   9.123  12.659
 6505W        W78231   0.908  14.630   0.904
 6506W        W78232   9.468  38.468   4.858
 6507W        W78233  29.975  24.574   2.109
 6508W        W78234   6.824  16.068   4.106
 6509W        W78235   1.528  44.702   4.384
 6510W        W78236  31.159  21.630   2.190
 6511W        W78237   3.881  32.558  10.402
 6512W        W78238  27.951  26.721   0.902
 6513W        W78239   6.504  33.512   0.405
 6514W        W78240  44.381   7.971  11.544
 6515W        W78241  41.758  31.014  12.452
 6516W        W78242   5.849  30.645  13.838
 6517W        W78243  12.685  19.448  14.356
 6518W        W78244  16.352   4.601  10.679
 6519W        W78245  27.705  42.444   2.139
 6520W        W78246  28.261  25.561   0.461
 6521W        W78247  30.528  11.737   3.727
 6522W        W78248  36.307  26.261   1.191
 6523W        W78249  24.930  34.988   1.734
 6524W        W78250  16.983  32.955   2.853
 6525W        W78251  43.260   7.262  13.929
 6526W        W78252  24.585  40.705   1.867
 6527W        W78253  27.497   8.809  13.718
 6528W        W78254  42.288  14.210   3.874
 6529W        W78255   4.948  40.123  14.436
 6530W        W78256  30.681   9.780  12.371
 6531W        W78257  18.662  24.755  13.838
 6532W        W78258  15.724  12.251   2.756
 6533W        W78259  17.125  37.900  12.406
 6534W        W78260  10.100   6.674   1.775
 6535W        W78261  33.124  21.004   3.884
 6536W        W78262  17.615  30.424  12.831
 6537W        W78263  23.004  28.622   2.270
 6538W        W78264  12.972  12.450  11.727
 6539W        W78265   5.299  17.722  10.505
 6540W        W78266  15.747  34.909   3.234
 6541W        W78267   6.377   2.843   4.164
 6542W        W78268  31.922  10.781  11.381
 6543W        W78269  20.647  26.110   3.679
 6544W        W78270  28.083  10.907   2.338
 6545W        W78271  41.859   5.226  12.200
 6546W        W78272  11.348  23.068   1.354
 6547W        W78273  18.487  30.211   0.203
 6548W        W78274   9.723  18.391  12.424
 6549W        W78275   3.911  15.707  12.465
 6550W        W78276  32.222  19.993  11.601
 6551W        W78277  15.657  20.033   3.645
 6552W        W78278  43.740  21.270   4.655
 6553W        W78279  11.635  18.577   4.657
 6554W        W78280  29.929  22.476  11.918
 6555W        W78281  10.129  41.035  13.369
 6556W        W78282  11.716  39.345  11.567
 6557W        W78283  29.699   3.500  11.535
 6558W        W78284  15.372  30.791  11.253
 6559W        W78285  21.905   9.220  14.918
 6560W        W78286   9.794  19.847   3.697
 6561W        W78287  21.194   2.629   3.031
 6562W        W78288  40.264  32.420   4.157
 6563W        W78289  16.269  28.513  10.410
 6564W        W78290  19.690   9.929   2.581
 6565W        W78291  17.738  42.761   3.138
 6566W        W78292   6.907   9.686   3.858
 6567W        W78293  36.475   9.148  10.709
 6568W        W78294  28.583  11.449  12.461
 6569W        W78295  16.866   6.928  14.362
 6570W        W78296  40.577  28.405   4.549
 6571W        W78297  19.317   8.600  14.524
 6572W        W78298  32.882  24.161   5.076
 6573W        W78299  32.075  28.402  13.328
 6574W        W78300   9.235   5.021   1.495
 6575W        W78301   3.402  33.882   3.773
 6576W        W78302  37.510  10.702   4.785
 6577W        W78303   9.121   3.141   2.244
 6578W        W78304  17.092  17.036   1.788
 6579W        W78305  20.949  25.850  11.130
 6580W        W78306   7.150  15.311  14.412
 6581W        W78307  24.251   8.143   4.467
 6582W        W78308  21.351  32.993   4.830
 6583W        W78309  26.946  38.997   0.930
 6584W        W78310  24.993  17.180   1.882
 6585W        W78311  20.067   6.804  12.938
 6586W        W78312  11.946  44.367  13.078
 6587W        W78313   7.856  28.218   3.605
 6588W        W78314  21.092  13.615   0.296
 6589W        W78315  43.755  39.445  13.360
 6590W        W78316  21.059  11.493   0.503
 6591W        W78317  34.167  40.313   4.278
 6592W        W78318  21.691  35.848  13.402
 6593W        W78319   2.391  44.326  10.659
 6594W        W78320  24.205  16.662  14.864
 6595W        W78321  16.737  17.542  13.992
 6596W        W78322  17.647  30.158   4.330
 6597W        W78323  42.747  38.421  13.833
 6598W        W78324  41.744  14.596   4.165
 6599W        W78325  13.673  31.623  10.781
 6600W        W78326  36.111  16.856  11.424
 6601W        W78327  25.175  32.382  11.023
 6602W        W78328  35.167  22.657  12.676
 6603W        W78329   5.867   7.935   1.441
 6604W        W78330  41.176  30.473  11.060
 6605W        W78331  18.439  12.849  13.462
 6606W        W78332  38.840   7.177  13.961
 6607W        W78333   2.209  27.041   3.625
 6608W        W78334  15.178   4.475  10.979
 6609W        W78335  17.479  14.812   4.040
 6610W        W78336  31.028  43.370   1.542
 6611W        W78337  10.842  23.224   2.278
 6612W        W78338  10.054  12.644   1.259
 6613W        W78339  24.039  38.766   0.425
 6614W        W78340   4.850  39.277  10.535
 6615W        W78341  28.280  36.368  14.470
 6616W        W78342  35.099   7.210  11.584
 6617W        W78343  27.138  31.016   2.134
 6618W        W78344  23.321  38.755   0.887
 6619W        W78345  25.146  40.495   3.149
 6620W        W78346  37.588  17.075  10.764
 6621W        W78347   4.407  35.160  13.063
 6622W        W78348  36.405  41.172   1.932
 6623W        W78349  24.536  44.790   9.927
 6624W        W78350   4.307  11.877  14.919
 6625W        W78351   0.520  17.300   3.236
 6626W        W78352  24.144  16.586   4.560
 6627W        W78353  17.256   3.482   0.725
 6628W        W78354  22.001  29.383  14.186
 6629W        W78355   8.775  42.364   2.602
 6630W        W78356   6.172  25.552  12.062
 6631W        W78357  21.756   2.001  14.302
 6632W        W78358   0.360  21.759   0.969
 6633W        W78359  10.808  39.870   3.663
 6634W        W78360   2.938  39.989   1.294
 6635W        W78361  43.275  41.893   0.054
 6636W        W78362  22.110  23.131  10.520
 6637W        W78363   6.894  13.842  13.815
 6638W        W78364  28.421  10.740   0.324
 6639W        W78365  25.713  11.602  12.365
 6640W        W78366  33.556  24.534  12.963
 6641W        W78367  36.169  26.010   3.748
 6642W        W78368  19.441  13.889  14.923
 6643W        W78369  22.253  20.316  13.845
 6644W        W78370  41.502  18.011  11.935
 6645W        W78371  11.581   0.346   3.036
 6646W        W78372  32.073  12.788  14.714
 6647W        W78373  39.347   6.721   1.403
 6648W        W78374  24.879  37.199  13.459
 6649W        W78375  21.498  15.519  12.662
 6650W        W78376  16.598  24.951   2.821
 6651W        W78377   6.682  22.646  14.966
 6652W        W78378   0.415  11.895  11.259
 6653W        W78379  31.424  25.930   1.725
 6654W        W78380  14.212  18.254   3.996
 6655W        W78381  42.520  36.091  13.012
 6656W        W78382  38.943  30.114  13.372
 6657W        W78383  22.593  22.705   3.297
 6658W        W78384  35.033  19.571  14.537
 6659W        W78385  15.269  16.852   0.373
 6660W        W78386  28.445  42.037   0.151
 6661W        W78387  28.471   5.752   3.941
 6662W        W78388  39.336  30.592  10.648
 6663W        W78389  22.522  43.976  12.069
 6664W        W78390  26.606  11.754   2.567
 6665W        W78391   8.922   3.750  14.309
 6666W        W78392   3.165  24.097  11.609
 6667W        W78393  16.364  40.995  14.543
 6668W        W78394  15.238  44.711  11.073
 6669W        W78395  36.844  21.745   1.231
 6670W        W78396  30.489  23.005  14.432
 6671W        W78397  29.026  23.192   0.350
 6672W        W78398  26.724  39.386  11.777
 6673W        W78399   3.891  38.242  11.139
 6674W        W78400   0.384   0.231  11.980
 6675W        W78401  28.448   3.217  14.460
 6676W        W78402  34.410  32.089   4.136
 6677W        W78403  23.213  30.417  11.104
 6678W        W78404  35.829  19.213  14.430
 6679W        W78405  17.795   3.008  11.926
 6680W        W78406  42.259  18.252   1.453
 6681W        W78407  23.100   5.018   1.490
 6682W        W78408  12.265  43.802  14.803
 6683W        W78409  19.181   3.275  13.312
 6684W        W78410   5.828  41.723   0.367
 6685W        W78411  42.786  16.561  14.050
 6686W        W78412  20.227  36.819  14.322
 6687W        W78413  30.651  43.815  13.424
 6688W        W78414  26.573  29.684   2.368
 6689W        W78415  25.053  27.063   0.133
 6690W        W78416   8.453  34.980  12.839
 6691W        W78417   8.210  22.095  12.410
 6692W        W78418  44.729   3.223   1.662
 6693W        W78419   7.891  19.426  14.386
 6694W        W78420  26.389   9.327   1.007
 6695W        W78421  41.963  18.778   4.985
 6696W        W78422  24.183  18.143  11.470
 6697W        W78423  40.854  36.881   0.752
 6698W        W78424   1.717  29.174   4.106
 6699W        W78425  27.072  14.920  11.252
 6700W        W78426   6.730  12.289   4.579
 6701W        W78427  24.228  28.908   1.831
 6702W        W78428  19.085  14.857  13.511
 6703W        W78429   9.213  36.042   1.540
 6704W        W78430  42.288   4.824   0.982
 6705W        W78431  21.766  16.573  11.245
 6706W        W78432  35.334  35.993  11.599
 6707W        W78433  11.854  37.617  11.973
 6708W        W78434  31.166  11.478  10.673
 6709W        W78435  40.706   3.793  14.362
 6710W        W78436  20.084   7.932  11.210
 6711W        W78437  13.347  10.313  13.849
 6712W        W78438  11.472  16.139  14.002
 6713W        W78439  17.830  44.492  12.874
 6714W        W78440  19.788  43.977   1.206
 6715W        W78441  25.546  24.923   2.791
 6716W        W78442  29.112  12.136   4.231
 6717W        W78443  33.007  27.445  11.049
 6718W        W78444  27.499  39.146  13.893
 6719W        W78445  41.928  36.775   2.219
 6720W        W78446  31.384   7.282  13.393
 6721W        W78447  32.925  34.580   4.707
 6722W        W78448  42.236   6.438   3.872
 6723W        W78449  24.649  20.965   4.226
 6724W        W78450   7.737  11.641  11.898
 6725W        W78451  22.465   6.483   1.022
 6726W        W78452  36.151  25.019   0.996
 6727W        W78453  26.148  41.848  12.556
 6728W        W78454   9.149   8.794  10.482
 6729W        W78455  33.153  14.865   1.819
 6730W        W78456   8.168  35.498   2.724
 6731W        W78457  11.220  37.911  13.433
 6732W        W78458  20.172  39.582  12.053
 6733W        W78459  43.715  10.731  13.250
 6734W        W78460  43.935  37.420  14.530
 6735W        W78461  35.566  10.665  13.038
 6736W        W78462  36.731  24.525   1.727
 6737W        W78463  25.498  15.377  11.695
 6738W        W78464   9.387  10.838   1.697
 6739W        W78465  26.140  27.667  11.907
 6740W        W78466  32.096   7.826  13.823
 6741W        W78467   1.950   5.619  12.168
 6742W        W78468   1.012   2.520  12.870
 6743W        W78469  33.273  38.981   9.877
 6744W        W78470   4.972  39.414  13.902
 6745W        W78471  20.576  25.530   9.861
 6746W        W78472  27.215  21.907  14.349
 6747W        W78473  27.268  10.879   2.023
 6748W        W78474  33.602   7.326  12.740
 6749W        W78475  38.745  22.641  10.030
 6750W        W78476   5.870  24.777  11.572
 6751W        W78477  17.108  38.493   5.412
 6752W        W78478  22.691   1.264   1.674
 6753W        W78479  37.549  20.113   0.019
 6754W        W78480  16.961   3.967   2.196
 6755W        W78481   6.107  30.007   1.744
 6756W        W78482   7.759  23.318   0.263
 6757W        W78483  28.549  21.556   4.678
 6758W        W78484  14.668  34.667   2.860
 6759W        W78485  14.409  36.708   2.064
 6760W        W78486  34.557  36.622  12.898
 6761W        W78487   3.735  23.059   1.318
 6762W        W78488   2.155  22.494  13.713
 6763W        W78489   3.742  36.572   1.524
 6764W        W78490  18.247  10.726  13.276
 6765W        W78491   4.790  32.787   0.417
 6766W        W78492  27.975  22.208  14.812
 6767W        W78493  35.934  21.194  14.878
 6768W        W78494  41.245  39.996  13.491
 6769W        W78495  32.654   5.438   2.097
 6770W        W78496  29.652   7.740   0.526
 6771W        W78497  32.607  37.358  11.039
 6772W        W78498   0.703  25.013   0.428
 6773W        W78499  18.232   2.352   4.180
 6774W        W78500   9.276   1.878  12.518
 6775W        W78501  35.009  44.506   4.656
 6776W        W78502   5.651  32.683   3.662
 6777W        W78503  20.495  40.849  11.912
 6778W        W78504  39.043  16.657  13.444
 6779W        W78505  20.199  18.613  10.484
 6780W        W78506  21.666  14.856   3.809
 6781W        W78507   9.829  32.599   3.906
 6782W        W78508   8.293  28.560   1.415
 6783W        W78509  27.935  28.281   3.503
 6784W        W78510  10.045  39.790  10.846
 6785W        W78511   4.648  21.908  13.190
 6786W        W78512  25.591   9.697   2.590
 6787W        W78513  11.264  20.785   4.643
 6788W        W78514  33.315   6.836  14.937
 6789W        W78515   2.444  42.514   1.488
 6790W        W78516  22.737  16.747  12.359
 6791W        W78517  24.982  14.393  12.706
 6792W        W78518  41.408  41.971   3.407
 6793W        W78519  19.808  27.462   0.732
 6794W        W78520  36.891  15.390   2.355
 6795W        W78521  19.184  27.856   0.387
 6796W        W78522   7.730  28.030   3.150
 6797W        W78523  26.953  18.609  13.984
 6798W        W78524  27.894   9.899  13.820
 6799W        W78525   9.757  33.773  10.637
 6800W        W78526  18.277  34.401   1.428
 6801W        W78527   3.686   7.279  10.796
 6802W        W78528  12.716  20.287  11.625
 6803W        W78529  11.080   2.939  11.033
 6804W        W78530  39.122  31.121   1.343
 6805W        W78531   8.517  44.555   3.883
 6806W        W78532  26.871  12.031  14.954
 6807W        W78533  39.026  26.176  11.344
 6808W        W78534  14.703  13.340   2.726
 6809W        W78535  20.314   7.259  12.988
 6810W        W78536  36.916  15.165   4.656
 6811W        W78537  23.069  36.984  10.759
 6812W        W78538  43.549  23.063  10.395
 6813W        W78539  20.229  27.243  11.643
 6814W        W78540  10.575  16.216   0.813
 6815W        W78541  27.475  36.432   0.170
 6816W        W78542  10.658  43.490   2.795
 6817W        W78543   2.023  20.431   0.782
 6818W        W78544  13.118  29.021  10.475
 6819W        W78545  22.423  41.001  11.974
 6820W        W78546  30.625   0.500   1.392
 6821W        W78547  19.637  23.172   0.006
 6822W        W78548   2.904  41.463  14.941
 6823W        W78549  19.855  32.169  11.814
 6824W        W78550  42.341  16.998   4.722
 6825W        W78551  22.147  28.685  11.506
 6826W        W78552  30.361  11.776   2.661
 6827W        W78553  11.345  43.945   0.228
 6828W        W78554  14.213  39.218   1.993
 6829W        W78555  43.762  19.285   2.907
 6830W        W78556  41.918   3.476  12.355
 6831W        W78557   8.672  26.521  14.217
 6832W        W78558  14.087  20.201   1.182
 6833W        W78559   6.146   8.051  14.762
 6834W        W78560  39.086  24.910   1.283
 6835W        W78561  35.068  39.458  10.736
 6836W        W78562  13.711   5.738  14.510
 6837W        W78563  33.435  33.723   4.452
 6838W        W78564  15.736  41.579  10.447
 6839W        W78565  21.536  37.303  10.560
 6840W        W78566  21.586  18.143   5.069
 6841W        W78567   0.995  31.498   1.297
 6842W        W78568   6.370   7.857   3.186
 6843W        W78569  24.261  40.414   0.129
 6844W        W78570  32.942  14.492  14.974
 6845W        W78571  25.592  19.253   2.111
 6846W        W78572  42.907  38.139   1.454
 6847W        W78573   6.195  19.355  13.433
 6848W        W78574  10.045   9.091   4.764
 6849W        W78575  42.842  39.966  14.448
 6850W        W78576   2.979   5.353   4.090
 6851W        W78577   4.359  38.483   3.392
 6852W        W78578   3.802  24.493   2.805
 6853W        W78579  41.506   2.381   4.696
 6854W        W78580   2.463  40.018  13.359
 6855W        W78581   8.140  15.728   0.794
 6856W        W78582  32.452  42.554  14.216
 6857W        W78583   9.046  39.471   0.354
 6858W        W78584  17.264  14.148   2.579
 6859W        W78585  33.499   1.203   2.334
 6860W        W78586   0.464  11.997  13.545
 6861W        W78587  38.328  15.583   4.090
 6862W        W78588  26.439  22.308   2.199
 6863W        W78589  20.641  12.784   1.750
 6864W        W78590   7.330  32.091   3.648
 6865W        W78591  38.022  27.515   3.335
 6866W        W78592  18.630  20.314   2.775
 6867W        W78593  34.117  41.814   4.131
 6868W        W78594   3.742   6.728  12.581
 6869W        W78595   2.940  24.594  11.963
 6870W        W78596  30.586   9.140   3.716
 6871W        W78597  26.129  39.040  10.733
 6872W        W78598  24.634  31.635  12.054
 6873W        W78599  40.705  37.781   2.781
 6874W        W78600  44.041  28.968  11.438
 6875W        W78601   6.447  28.517  14.202
 6876W        W78602   3.689  23.349  14.756
 6877W        W78603  11.327   5.892   4.126
 6878W        W78604   6.154   9.687  11.940
 6879W        W78605  11.843   0.794   0.162
 6880W        W78606  19.725  41.352   3.836
 6881W        W78607  13.056  23.839   5.223
 6882W        W78608   3.000   6.783  13.785
 6883W        W78609  31.772   1.817  11.215
 6884W        W78610  44.862  18.842  11.665
 6885W        W78611   5.605  18.743   3.770
 6886W        W78612  26.664  38.386  13.897
 6887W        W78613   9.793  25.860   0.411
 6888W        W78614  35.023  32.859  14.871
 6889W        W78615  14.237  28.434   4.278
 6890W        W78616  26.348  41.252   5.196
 6891W        W78617  16.169  21.956  12.813
 6892W        W78618  28.689   9.795  14.297
 6893W        W78619   2.303   4.955  13.872
 6894W        W78620  10.236   6.126   3.732
 6895W        W78621  16.024  29.144  12.095
 6896W        W78622   3.257  23.605  14.960
 6897W        W78623   1.818  19.551  10.564
 6898W        W78624  21.355  41.658   4.154
 6899W        W78625  20.028  28.466   3.200
 6900W        W78626   5.441  39.707   0.818
 6901W        W78627   3.261   9.189  11.170
 6902W        W78628  36.622  13.788   4.317
 6903W        W78629  27.144   0.826  10.173
 6904W        W78630  10.266  24.036  11.445
 6905W        W78631  20.998  28.526   3.306
 6906W        W78632   7.861  23.557  10.770
 6907W        W78633  15.172  26.747   1.973
 6908W        W78634  16.083  38.779  12.382
 6909W        W78635  16.894   6.806   1.900
 6910W        W78636  14.234  44.363   9.955
 6911W        W78637  11.313  15.586   1.825
 6912W        W78638  22.857  24.012   2.015
 6913W        W78639  39.880  44.155  11.907
 6914W        W78640  14.778  39.307   2.444
 6915W        W78641   5.514   2.760  11.838
 6916W        W78642   8.871  34.351  10.729
 6917W        W78643  22.757  25.922   0.800
 6918W        W78644  28.966  40.994   0.030
 6919W        W78645  24.625  24.471  11.537
 6920W        W78646   1.860  21.253  11.078
 6921W        W78647   7.757   6.905  13.883
 6922W        W78648  18.163  36.473  10.945
 6923W        W78649  23.662  22.406   1.408
 6924W        W78650  36.694   5.216   3.116
 6925W        W78651  42.307  31.522  14.483
 6926W        W78652  37.024  29.865   1.846
 6927W        W78653  21.307  43.313   0.843
 6928W        W78654   9.930  23.755   2.789
 6929W        W78655   9.218  39.713  11.923
 6930W        W78656  39.862   4.136  12.535
 6931W        W78657  16.306   5.685   1.732
 6932W        W78658  40.301   4.925  11.148
 6933W        W78659  31.438  23.707   0.174
 6934W        W78660   7.295  35.162  13.417
 6935W        W78661  42.923  21.743  14.654
 6936W        W78662  22.668  10.421   2.228
 6937W        W78663  26.088  41.965  11.622
 6938W        W78664  41.332   9.761  10.987
 6939W        W78665  26.096   3.272   0.793
 6940W        W78666   9.658  37.102  12.828
 6941W        W78667  11.229  29.946   2.873
 6942W        W78668  40.319   6.477   3.758
 6943W        W78669  30.560  41.463   4.059
 6944W        W78670  31.947   6.889   4.900
 6945W        W78671  32.565   9.633   2.101
 6946W        W78672  13.076  22.106   4.712
 6947W        W78673   4.303   9.181  10.570
 6948W        W78674  36.509   7.466  14.518
 6949W        W78675   0.251  15.945  12.915
 6950W        W78676  34.602  19.314  11.465
 6951W        W78677  29.376   9.642   2.316
 6952W        W78678   5.611  21.014   3.918
 6953W        W78679  14.395  30.926  13.882
 6954W        W78680   7.738   1.868  11.444
 6955W        W78681  22.557   4.825  11.514
 6956W        W78682   7.443   7.148  14.882
 6957W        W78683  18.520  40.533  11.232
 6958W        W78684  16.535  36.869   4.674
 6959W        W78685  22.151  31.452   3.843
 6960W        W78686  35.835  36.045   4.145
 6961W        W78687  43.218  31.818  13.188
 6962W        W78688   6.978   5.667   2.406
 6963W        W78689  13.288  33.204  13.347
 6964W        W78690  29.591  37.931  11.716
 6965W        W78691  23.770  23.574   3.431
 6966W        W78692   2.936  33.436   0.817
 6967W        W78693  26.718  12.222  13.959
 6968W        W78694   4.746  13.538   2.884
 6969W        W78695  35.999  42.464   2.903
 6970W        W78696   9.153  18.746  11.066
 6971W        W78697  10.389  44.214  12.912
 6972W        W78698  18.060  42.293  12.220
 6973W        W78699  33.892  31.193   3.581
 6974W        W78700  34.548  28.318   2.843
 6975W        W78701  42.291   2.504   4.082
 6976W        W78702  37.268  16.365  13.411
 6977W        W78703  23.528  13.618  11.880
 6978W        W78704  25.763  13.137   1.316
 6979W        W78705   7.884  27.841  10.321
 6980W        W78706   6.895  33.351  14.462
 6981W        W78707  23.189  23.443  14.474
 6982W        W78708   7.571  44.846   2.094
 6983W        W78709  28.675  10.829  10.779
 6984W        W78710  39.881  34.962   4.394
 6985W        W78711  17.708  14.338   2.336
 6986W        W78712  18.865  34.780   4.997
 6987W        W78713  17.838  39.387   1.401
 6988W        W78714  19.925  21.107  12.448
 6989W        W78715  44.216  35.852   3.308
 6990W        W78716  20.905   4.439  11.054
 6991W        W78717  11.099  36.119  11.909
 6992W        W78718  22.665  35.251  13.466
 6993W        W78719  36.046   8.852   0.375
 6994W        W78720  40.741  28.950   1.788
 6995W        W78721  14.522  32.611  11.090
 6996W        W78722  31.717  37.031   1.295
 6997W        W78723  25.082  19.792  10.921
 6998W        W78724  13.375  29.246  11.285
 6999W        W78725  28.022  10.422  11.492
 7000W        W78726  29.080  40.751   2.219
 7001W        W78727  28.705  20.171   0.755
 7002W        W78728  42.845  22.936   2.765
 7003W        W78729  38.936  44.376   4.110
 7004W        W78730   2.313   2.828   4.366
 7005W        W78731  23.676  24.263  14.348
 7006W        W78732   5.858   9.404   2.688
 7007W        W78733  41.668  27.178  11.987
 7008W        W78734  28.007  10.376   4.623
 7009W        W78735  11.412   4.347   2.884
 7010W        W78736  39.150  41.121   2.797
 7011W        W78737  43.744  27.061  12.605
 7012W        W78738  28.837  29.692   0.026
 7013W        W78739  28.411  41.181   4.198
 7014W        W78740   9.376  20.744   0.728
 7015W        W78741  42.855  42.869  10.737
 7016W        W78742  10.722  41.558   3.760
 7017W        W78743  20.727   1.656  12.514
 7018W        W78744  19.017  21.595   4.303
 7019W        W78745  24.828   1.511  11.582
 7020W        W78746  29.065  43.358  14.902
 7021W        W78747  24.699   7.149  14.288
 7022W        W78748   8.720  33.009  11.126
 7023W        W78749   1.217   6.321   4.395
 7024W        W78750  36.483  37.663  11.081
 7025W        W78751  41.548  34.215   0.304
 7026W        W78752   1.204  15.036  12.496
 7027W        W78753  44.226   9.828  13.862
 7028W        W78754  42.338  35.173  13.074
 7029W        W78755   6.391  33.209   2.112
 7030W        W78756  29.158  19.260  12.045
 7031W        W78757  18.513  37.856   2.702
 7032W        W78758  24.073  25.659   3.674
 7033W        W78759  23.122  35.531   0.233
 7034W        W78760  34.841   6.854   2.358
 7035W        W78761  13.124  19.577   2.199
 7036W        W78762   3.393  30.729  13.415
 7037W        W78763  42.797  32.889  12.604
 7038W        W78764   0.895  22.209  13.976
 7039W        W78765  15.128  40.845   0.219
 7040W        W78766  42.849  36.917   1.698
 7041W        W78767  38.081   0.517   3.592
 7042W        W78768  36.246  28.200  14.434
 7043W        W78769   5.003   4.384   0.964
 7044W        W78770  22.220   2.800  10.756
 7045W        W78771  42.917   5.511  14.055
 7046W        W78772   9.326  30.189   1.438
 7047W        W78773  26.100  23.625  13.791
 7048W        W78774  38.085  36.184  11.628
 7049W        W78775  21.597  28.320   4.125
 7050W        W78776  43.227  39.983  10.732
 7051W        W78777  11.371  10.809   2.400
 7052W        W78778  16.626  33.831   0.358
 7053W        W78779  41.815  30.984  11.494
 7054W        W78780  44.001  44.556   4.067
 7055W        W78781  24.456  16.780   2.149
 7056W        W78782  27.917  28.679   2.180
 7057W        W78783  22.356  40.087   2.177
 7058W        W78784  29.187   3.953   0.727
 7059W        W78785   0.449   4.812  11.540
 7060W        W78786  38.325  25.698  14.824
 7061W        W78787  35.300  11.838   1.273
 7062W        W78788  43.914   1.130  13.264
 7063W        W78789   9.102  27.204  12.012
 7064W        W78790  13.698  21.290   1.929
 7065W        W78791  17.211   0.360   2.711
 7066W        W78792  37.609  23.789  12.839
 7067W        W78793  21.540  21.708   1.783
 7068W        W78794  25.149   4.709   4.064
 7069W        W78795  13.084  44.073   4.086
 7070W        W78796  44.549   3.506   2.818
 7071W        W78797  34.189  22.505  12.372
 7072W        W78798  44.937  10.224  14.969
 7073W        W78799  42.835  12.744  13.515
 7074W        W78800  30.037  24.669   1.612
 7075W        W78801   6.038  39.857  10.498
 7076W        W78802  20.530  10.781   2.170
 7077W        W78803  44.983  20.784   3.184
 7078W        W78804  19.023   4.306  12.359
 7079W        W78805  19.512  31.964  13.510
 7080W        W78806  30.969  29.875   1.274
 7081W        W78807  21.974  11.851  12.543
 7082W        W78808  35.379   2.687  11.473
 7083W        W78809  13.275  21.607  10.421
 7084W        W78810  29.595  17.256   0.940
 7085W        W78811   2.957  38.035   3.873
 7086W        W78812  22.746  13.413  12.946
 7087W        W78813  15.592   0.698   0.796
 7088W        W78814  38.427  20.681  14.400
 7089W        W78815  40.409   0.078   4.056
 7090W        W78816  36.039  26.701  14.034
 7091W        W78817  25.061  15.430   3.710
 7092W        W78818  23.692  20.244   2.711
 7093W        W78819  35.547  17.461  12.006
 7094W        W78820  32.652  10.266   2.434
 7095W        W78821   2.428  23.394   3.779
 7096W        W78822  41.972  11.886   3.631
 7097W        W78823  34.286  26.161  11.054
 7098W        W78824  12.259  40.772   3.302
 7099W        W78825  24.902   0.749  10.028
 7100W        W78826  28.425  23.083   1.028
 7101W        W78827   2.845  39.688  13.444
 7102W        W78828  29.122   9.621   2.929
 7103W        W78829  13.847  15.358   2.295
 7104W        W78830  38.806  33.106   0.205
 7105W        W78831  31.542   1.310   2.350
 7106W        W78832  18.493  38.469  11.623
 7107W        W78833  18.746  11.788  12.998
 7108W        W78834  21.555  30.165   0.580
 7109W        W78835  14.466   9.156   4.107
 7110W        W78836   2.971   6.361  12.457
 7111W        W78837   7.504  10.347   1.039
 7112W        W78838  31.456   6.793  13.878
 7113W        W78839  12.247   4.646   3.400
 7114W        W78840   1.821  19.625   4.075
 7115W        W78841  30.102  14.286   3.794
 7116W        W78842  20.644  15.144  14.881
 7117W        W78843  24.104  40.815   4.109
 7118W        W78844  40.577  35.330  13.474
 7119W        W78845  11.775  35.128  12.309
 7120W        W78846  14.145  29.385   2.679
 7121W        W78847   3.494   0.396   0.772
 7122W        W78848   4.815   0.412   1.261
 7123W        W78849   4.003  17.090  11.552
 7124W        W78850   9.346  21.728  13.962
 7125W        W78851  42.005  37.993   0.003
 7126W        W78852  31.693  29.916   3.708
 7127W        W78853  42.397  33.636  10.694
 7128W        W78854  38.423  42.551  11.490
 7129W        W78855  12.872  32.611  12.976
 7130W        W78856  39.576  24.178  11.947
 7131W        W78857  44.906  26.537   1.482
 7132W        W78858  22.083  32.446   0.032
 7133W        W78859  44.536   6.764   2.365
 7134W        W78860   7.674  34.806  11.921
 7135W        W78861  43.134  11.368  10.563
 7136W        W78862  44.746  20.164  13.286
 7137W        W78863  11.057  12.333   3.845
 7138W        W78864  12.109   4.567   4.866
 7139W        W78865  43.278  32.809  12.784
 7140W        W78866   6.085  28.072  12.530
 7141W        W78867   3.689  35.628  13.557
 7142W        W78868   1.460  31.985   1.459
 7143W        W78869  21.605  32.975   3.604
 7144W        W78870  34.800  30.511   1.143
 7145W        W78871  42.210  44.331  13.564
 7146W        W78872   9.958  13.813   3.697
 7147W        W78873  11.807   0.539  10.625
 7148W        W78874  43.947  37.101   3.843
 7149W        W78875   9.646  37.400  11.383
 7150W        W78876  34.153  16.045   4.880
 7151W        W78877   0.221  36.621  13.019
 7152W        W78878  23.546  25.938  11.462
 7153W        W78879  18.810   6.750  14.942
 7154W        W78880   1.608  39.131  12.927
 7155W        W78881   8.898   4.735   0.698
 7156W        W78882  11.171  24.269  12.131
 7157W        W78883   4.946  43.932   2.121
 7158W        W78884  24.479   0.306   4.900
 7159W        W78885  20.100  10.210   2.353
 7160W        W78886  42.546  34.985   0.826
 7161W        W78887  41.029  41.015  13.186
 7162W        W78888  22.495   6.249   2.590
 7163W        W78889   7.664  14.757  10.662
 7164W        W78890  22.998  24.609  13.979
 7165W        W78891  44.922  38.440  12.493
 7166W        W78892  11.689  23.641   2.148
 7167W        W78893  31.119  34.638  12.026
 7168W        W78894  10.223   2.369   2.206
 7169W        W78895   1.387  26.719   3.713
 7170W        W78896  10.338  36.191   5.178
 7171W        W78897  29.003  41.489  13.497
 7172W        W78898  40.314  36.497  13.847
 7173W        W78899   6.285  16.692  10.130
 7174W        W78900  31.122   4.199  12.923
 7175W        W78901  27.170   4.551  10.526
 7176W        W78902  27.585  25.605   1.214
 7177W        W78903  24.060  12.290   1.291
 7178W        W78904   6.407  41.588  14.509
 7179W        W78905  21.238   4.751   1.237
 7180W        W78906  38.865   7.883  14.724
 7181W        W78907  43.304  11.729  14.441
 7182W        W78908  32.996  26.234  11.614
 7183W        W78909  12.719   1.255   4.188
 7184W        W78910   7.864  27.394   2.352
 7185W        W78911  14.847  13.674  12.034
 7186W        W78912  42.358  36.249  12.036
 7187W        W78913  38.303  24.942   3.792
 7188W        W78914  26.657  12.101  12.979
 7189W        W78915  36.034  17.960  10.648
 7190W        W78916  44.425   6.227  11.201
 7191W        W78917   8.729  43.562  13.845
 7192W        W78918  20.180  19.214  12.091
 7193W        W78919  28.691  28.489  10.499
 7194W        W78920  27.038  21.562  13.430
 7195W        W78921  13.130  34.718  13.419
 7196W        W78922  10.405  29.483  10.865
 7197W        W78923  37.446  42.222   3.250
 7198W        W78924  20.640  37.891  11.506
 7199W        W78925  20.743  28.240  12.526
 7200W        W78926  37.036  38.277   1.002
 7201W        W78927  41.612  35.627   3.826
 7202W        W78928  30.442  39.756   4.539
 7203W        W78929  28.480  31.641   4.680
 7204W        W78930   2.676  12.488   1.450
 7205W        W78931   1.237  42.547   2.824
 7206W        W78932  28.446  20.511   3.759
 7207W        W78933  23.003  11.087  12.890
 7208W        W78934  23.782  44.412   2.407
 7209W        W78935   8.970  17.458   0.881
 7210W        W78936  40.831   0.517  14.766
 7211W        W78937  31.272  31.565  12.034
 7212W        W78938  23.882  15.716  10.642
 7213W        W78939  20.106   8.241   3.295
 7214W        W78940  34.248   8.155  14.770
 7215W        W78941  10.249  36.451  14.258
 7216W        W78942  27.467  16.637  11.159
 7217W        W78943  41.391  40.170   4.589
 7218W        W78944  37.380  14.262   3.677
 7219W        W78945  29.430  37.448  13.859
 7220W        W78946  35.202  43.279   3.353
 7221W        W78947   4.795  37.352  10.554
 7222W        W78948  21.013  13.498   4.583
 7223W        W78949   4.095   8.328   0.540
 7224W        W78950  10.827  16.314   2.791
 7225W        W78951   5.417  11.738   3.643
 7226W        W78952   8.460  44.811   2.359
 7227W        W78953   8.512  16.871  13.776
 7228W        W78954  41.902  25.422   9.877
 7229W        W78955   1.700  41.440  13.782
 7230W        W78956  33.740  14.272  11.313
 7231W        W78957  43.518  22.849   1.735
 7232W        W78958  30.423  19.986  13.955
 7233W        W78959  28.947   5.879   4.110
 7234W        W78960  14.226   9.297   0.948
 7235W        W78961  15.609  28.702  14.012
 7236W        W78962  16.731   2.567  12.616
 7237W        W78963  22.523  16.316  14.523
 7238W        W78964  14.898  41.560  14.464
 7239W        W78965  43.804   1.089   4.084
 7240W        W78966   4.170  10.265  12.452
 7241W        W78967  43.369  35.063   3.044
 7242W        W78968   9.866  20.682   4.674
 7243W        W78969  36.220  26.980   4.608
 7244W        W78970   8.332  31.176   2.368
 7245W        W78971  36.826  10.986   3.180
 7246W        W78972  11.333   2.756   3.295
 7247W        W78973  26.766  21.326   1.062
 7248W        W78974   4.506  38.246   4.755
 7249W        W78975  14.037   1.454   1.199
 7250W        W78976   2.442  35.958  14.763
 7251W        W78977   0.392  25.563   3.353
 7252W        W78978  35.666  23.000  14.493
 7253W        W78979  15.518  36.330   1.754
 7254W        W78980  23.654   8.640   4.145
 7255W        W78981  31.530  14.596  11.095
 7256W        W78982  24.453  25.075   0.734
 7257W        W78983  43.218  27.738   2.826
 7258W        W78984   3.837  28.329  14.755
 7259W        W78985  13.787   6.911   2.459
 7260W        W78986  35.953  14.288  10.705
 7261W        W78987  21.138  22.283   0.612
 7262W        W78988   3.007  38.377   1.929
 7263W        W78989  43.284  20.255   4.389
 7264W        W78990  10.422  18.304   3.345
 7265W        W78991  23.040  20.233   0.257
 7266W        W78992   8.679  28.903   4.621
 7267W        W78993  27.521  13.055  14.358
 7268W        W78994  42.245  35.011   2.832
 7269W        W78995  28.997  25.214   0.756
 7270W        W78996   8.829  39.880   9.916
 7271W        W78997  27.050  12.937  11.209
 7272W        W78998   5.175   1.526   4.050
 7273W        W78999  13.884   2.449   3.624
 7274W        W79000  23.951  15.659  14.338
 7275W        W79001  38.045  20.272  14.051
 7276W        W79002  39.531  11.273   0.672
 7277W        W79003   7.904  27.685   2.786
 7278W        W79004  40.535  40.960   3.354
 7279W        W79005  34.619   3.495   2.366
 7280W        W79006  35.499   5.886   0.777
 7281W        W79007   1.523  18.476  13.924
 7282W        W79008  25.564  14.568   3.710
 7283W        W79009  43.320  19.923   2.350
 7284W        W79010  26.478   0.390  10.620
 7285W        W79011  20.016  17.147   1.751
 7286W        W79012  44.368   9.973  11.050
 7287W        W79013  24.711   1.848   4.162
 7288W        W79014  37.961  26.953  11.923
 7289W        W79015   6.918  38.430   4.659
 7290W        W79016  38.901  13.640   1.346
 7291W        W79017   3.651  12.775   3.344
 7292W        W79018  16.355  23.914  12.539
 7293W        W79019  11.383  43.804   2.369
 7294W        W79020   4.212  11.071  14.531
 7295W        W79021  37.638  15.705  12.983
 7296W        W79022  21.759   9.842   2.213
 7297W        W79023  43.934  40.306  13.850
 7298W        W79024  27.090  12.853  12.617
 7299W        W79025   4.924  10.086  11.045
 7300W        W79026  15.119  18.780   0.247
 7301W        W79027  37.254   6.595  14.789
 7302W        W79028  36.031  15.852  11.554
 7303W        W79029  23.551   4.352  13.423
 7304W        W79030  43.810   6.908   3.654
 7305W        W79031   1.061   8.974   0.073
 7306W        W79032  23.645  39.348   4.710
 7307W        W79033  42.471  43.499  10.980
 7308W        W79034  24.973   9.105  11.514
 7309W        W79035  31.891  11.336  14.775
 7310W        W79036   6.258  34.380   0.157
 7311W        W79037  20.592  18.299  11.100
 7312W        W79038  30.423  14.114  12.029
 7313W        W79039   2.399  34.644   0.894
 7314W        W79040  23.509  23.464   0.514
 7315W        W79041  15.162  16.097  12.841
 7316W        W79042  42.455  10.296   2.868
 7317W        W79043  28.145   7.870  14.478
 7318W        W79044  28.020   2.764  12.821
 7319W        W79045  43.963  21.219  14.031
 7320W        W79046  13.264  43.566   2.226
 7321W        W79047  19.339  14.957   0.894
 7322W        W79048  18.792   1.292  12.996
 7323W        W79049   2.747  15.992  10.600
 7324W        W79050   7.220  24.518  13.877
 7325W        W79051  39.358   3.369   2.860
 7326W        W79052  40.440   7.390   5.003
 7327W        W79053  22.995  20.279  12.042
 7328W        W79054  37.576   9.193  11.487
 7329W        W79055   6.293  29.662   3.367
 7330W        W79056  23.553  34.876  12.877
 7331W        W79057  13.693  36.990   4.136
 7332W        W79058  26.981  17.235   0.163
 7333W        W79059  14.355  25.198   2.212
 7334W        W79060  13.242  36.223  12.215
 7335W        W79061  27.777  39.156   2.725
 7336W        W79062  22.570  33.063  12.075
 7337W        W79063  44.479  14.644  13.954
 7338W        W79064  36.869  27.782  13.958
 7339W        W79065  29.731  41.079   3.917
 7340W        W79066  15.344  32.539   3.087
 7341W        W79067  14.683  39.054  12.525
 7342W        W79068  36.589  33.868   1.262
 7343W        W79069   1.027  12.258   3.245
 7344W        W79070  31.833  28.980  12.487
 7345W        W79071  29.389  13.278  12.473
 7346W        W79072   3.682  31.704  11.027
 7347W        W79073   8.693  43.433   1.013
 7348W        W79074  12.876   8.471   4.114
 7349W        W79075  22.638   3.451   0.727
 7350W        W79076  37.924  11.650   0.766
 7351W        W79077  42.477  26.022  12.484
 7352W        W79078   6.540  30.654  10.789
 7353W        W79079   6.996  17.648  10.845
 7354W        W79080  32.747   2.811   3.301
 7355W        W79081   3.182  43.510  12.032
 7356W        W79082  11.165  44.829  10.627
 7357W        W79083  36.997  40.041  11.528
 7358W        W79084   2.275  21.360   1.800
 7359W        W79085  19.261  24.152  13.993
 7360W        W79086  15.055  39.047  13.277
 7361W        W79087  32.628  32.628  12.387
 7362W        W79088   0.695   4.363  11.488
 7363W        W79089  31.377  11.374   1.785
 7364W        W79090  44.822  28.823   2.216
 7365W        W79091  31.163  19.945   2.658
 7366W        W79092   5.849   1.512  14.410
 7367W        W79093   8.391  19.438   0.013
 7368W        W79094  15.015  33.144   4.262
 7369W        W79095   3.411  19.895  11.962
 7370W        W79096  18.555   2.661  12.689
 7371W        W79097   6.429  23.094  14.916
 7372W        W79098  18.704  26.591  13.886
 7373W        W79099  32.670  19.996   0.304
 7374W        W79100  18.025  34.250  12.602
 7375W        W79101   6.091   6.092   1.263
 7376W        W79102  24.589  19.559   2.376
 7377W        W79103  14.091  44.972  13.780
 7378W        W79104  35.579  37.051  12.081
 7379W        W79105  25.531  44.810  11.466
 7380W        W79106  24.126  24.412   2.340
 7381W        W79107  14.618  41.505   3.246
 7382W        W79108   8.171  29.066  13.856
 7383W        W79109   4.297  13.603   0.519
 7384W        W79110   7.760  17.186  11.189
 7385W        W79111   7.160  41.839  14.931
 7386W        W79112  20.000  42.449  13.809
 7387W        W79113  26.630  40.502   3.133
 7388W        W79114  42.028  25.552  10.905
 7389W        W79115  23.010  11.233   3.350
 7390W        W79116  13.224  20.563  12.427
 7391W        W79117  39.913   8.809   3.280
 7392W        W79118  35.479  18.775  10.792
 7393W        W79119  11.430  29.978  14.507
 7394W        W79120  32.872  44.452  11.398
 7395W        W79121   9.422  13.060  13.023
 7396W        W79122  36.902   1.644   2.423
 7397W        W79123  41.771  10.483  14.954
 7398W        W79124  35.532  28.670  12.963
 7399W        W79125  26.151  40.822  14.914
 7400W        W79126  18.360  13.676   2.308
 7401W        W79127   6.517   5.398  12.484
 7402W        W79128   4.879  42.119   1.880
 7403W        W79129  31.539   6.405  10.667
 7404W        W79130  17.673   9.770   4.381
 7405W        W79131  24.336  16.937  12.036
 7406W        W79132  33.889  32.646   3.084
 7407W        W79133  26.200  38.454  11.197
 7408W        W79134   8.641   4.725  11.030
 7409W        W79135  10.849  17.998   2.391
 7410W        W79136  34.242  21.695  11.875
 7411W        W79137  12.357   2.505  11.202
 7412W        W79138  20.832   5.531   2.834
 7413W        W79139  24.057  17.003   3.708
 7414W        W79140  30.141   0.387  10.289
 7415W        W79141  35.501  27.251   1.433
 7416W        W79142   3.840  43.956   2.766
 7417W        W79143  12.131   9.331  11.660
 7418W        W79144   1.385  29.922   1.687
 7419W        W79145   1.387  39.512  10.681
 7420W        W79146  21.916   1.439   0.176
 7421W        W79147  35.904  13.122  13.012
 7422W        W79148  19.746  17.194   3.230
 7423W        W79149   5.679  20.690   0.690
 7424W        W79150  33.927   8.892  14.375
 7425W        W79151  20.444   3.320  14.034
 7426W        W79152  13.992  37.436  12.206
 7427W        W79153  11.615   7.954  11.904
 7428W        W79154  19.031   9.856  10.624
 7429W        W79155  26.056  23.034   4.030
 7430W        W79156  26.507   3.531  13.509
 7431W        W79157  29.625   8.773   4.126
 7432W        W79158  42.503   3.989  14.480
 7433W        W79159  44.774  24.587   4.123
 7434W        W79160  36.743   4.187  12.474
 7435W        W79161  22.579   2.291   1.726
 7436W        W79162  29.368  39.954   4.078
 7437W        W79163  12.059  27.178   2.257
 7438W        W79164   4.166  43.975   0.896
 7439W        W79165  27.978  13.970   1.295
 7440W        W79166  43.091  26.951  11.186
 7441W        W79167   8.194  20.721  13.415
 7442W        W79168  29.854   4.406   2.668
 7443W        W79169  34.400   6.913   0.146
 7444W        W79170  23.990  13.860  10.760
 7445W        W79171  24.751  27.069   1.159
 7446W        W79172  22.776  36.934   0.314
 7447W        W79173  43.804  10.368   1.388
 7448W        W79174  15.700   5.623  10.375
 7449W        W79175  41.649  13.124  13.880
 7450W        W79176  22.985  37.994  13.477
 7451W        W79177  11.803  10.404   2.605
 7452W        W79178  35.086  37.050   1.049
 7453W        W79179  42.513  44.074  12.923
 7454W        W79180  27.609  44.338   2.453
 7455W        W79181  37.547   0.338   3.242
 7456W        W79182  36.606   5.215  10.567
 7457W        W79183  44.277  26.081  14.813
 7458W        W79184  14.582   5.282  12.467
 7459W        W79185  29.464  17.958  12.351
 7460W        W79186  23.036  15.032  13.745
 7461W        W79187  34.836  44.280   3.298
 7462W        W79188  14.135  24.575   4.337
 7463W        W79189  27.983  11.757   3.325
 7464W        W79190  14.623  17.404  11.788
 7465W        W79191  28.253  24.595   2.371
 7466W        W79192   5.161   5.827   4.562
 7467W        W79193  20.168   3.183   4.162
 7468W        W79194  26.758  33.540  14.683
 7469W        W79195  13.819  13.780   3.696
 7470W        W79196  44.426  38.042  12.653
 7471W        W79197   2.971   9.895   0.430
 7472W        W79198  32.109   8.259   4.256
 7473W        W79199  30.611  38.418   0.210
 7474W        W79200  28.674   6.729   1.461
 7475W        W79201  41.008  15.631  10.934
 7476W        W79202  26.543   6.147   0.297
 7477W        W79203  39.418  25.055   0.618
 7478W        W79204  36.125   5.950   4.289
 7479W        W79205   7.758  15.810   4.138
 7480W        W79206  38.173  40.486   4.024
 7481W        W79207   9.347   4.980   4.988
 7482W        W79208  38.444  19.547  11.101
 7483W        W79209  25.392  41.235   1.702
 7484W        W79210  28.215  34.739   4.279
 7485W        W79211   1.710  31.738  10.213
 7486W        W79212  12.553  41.892   1.088
 7487W        W79213   7.622  32.944   3.926
 7488W        W79214  26.472   2.900  14.091
 7489W        W79215  35.006  24.204  11.576
 7490W        W79216  44.793  38.358   3.731
 7491W        W79217  39.842  42.722   0.792
 7492W        W79218  23.588  11.713   0.222
 7493W        W79219  16.808   4.763  14.035
 7494W        W79220  32.409  32.618   1.822
 7495W        W79221  41.602  32.163   0.477
 7496W        W79222  17.057  13.850  11.547
 7497W        W79223  19.694  25.744   0.328
 7498W        W79224  10.412  22.308  10.936
 7499W        W79225   6.675  43.397  10.707
 7500W        W79226   5.056   2.646  11.075
 7501W        W79227   6.909   7.227   3.658
 7502W        W79228  42.027  33.519  11.646
 7503W        W79229  13.792  26.491   2.479
 7504W        W79230  24.904  23.314   0.702
 7505W        W79231   9.912  42.647  10.199
 7506W        W79232   3.668  43.515  13.328
 7507W        W79233  43.266  44.581   3.126
 7508W        W79234  14.231   8.337   1.952
 7509W        W79235   8.666   8.428   4.288
 7510W        W79236  16.179  34.922   0.408
 7511W        W79237   3.801   9.861   1.272
 7512W        W79238  11.599  18.114   2.722
 7513W        W79239  38.416   1.028  12.075
 7514W        W79240   6.206  44.392  13.295
 7515W        W79241  17.216  14.390  12.503
 7516W        W79242  30.960   6.458   4.028
 7517W        W79243  36.914  44.033  13.857
 7518W        W79244   2.169   0.879  13.960
 7519W        W79245  27.572  20.696   4.356
 7520W        W79246  43.118  21.756   1.214
 7521W        W79247  42.862  25.675  11.859
 7522W        W79248  43.293   8.325  13.784
 7523W        W79249  43.213  18.566   2.893
 7524W        W79250  44.848   8.166   3.179
 7525W        W79251  23.963  41.068   4.536
 7526W        W79252  11.655  23.810  14.804
 7527W        W79253  30.488  29.875  10.821
 7528W        W79254  38.771  25.676   4.213
 7529W        W79255  20.825  44.442  13.991
 7530W        W79256  41.323   3.697   3.564
 7531W        W79257  44.976  15.688  11.575
 7532W        W79258  43.740  34.499   4.815
 7533W        W79259  12.877  32.007   1.392
 7534W        W79260  13.242  34.610   0.236
 7535W        W79261  31.664   8.875   0.769
 7536W        W79262   5.185  15.118  13.323
 7537W        W79263   0.690  37.763   1.010
 7538W        W79264   7.534  25.144   3.223
 7539W        W79265   8.226  21.762   1.231
 7540W        W79266  25.437  23.316   0.803
 7541W        W79267  38.457   6.991   3.398
 7542W        W79268   7.727  36.426  11.519
 7543W        W79269  32.427   4.181  11.384
 7544W        W79270  13.930  26.677   0.873
 7545W        W79271  19.410  23.885  11.748
 7546W        W79272   7.924  25.004  10.222
 7547W        W79273  13.491   9.633  14.889
 7548W        W79274  24.017  34.151  12.129
 7549W        W79275  40.324  35.960   5.059
 7550W        W79276   5.727   2.256   0.257
 7551W        W79277  43.030  38.404  14.276
 7552W        W79278  26.551  28.374  13.487
 7553W        W79279  28.449   6.680   4.284
 7554W        W79280   0.988  11.665   4.523
 7555W        W79281   5.382  41.959  10.790
 7556W        W79282  26.079  24.692  12.450
 7557W        W79283  18.951   5.919  11.383
 7558W        W79284  26.191  33.904   2.814
 7559W        W79285  19.988  10.956   1.455
 7560W        W79286  14.433  13.657  11.263
 7561W        W79287  35.819  14.990   0.933
 7562W        W79288  17.729   7.273  12.441
 7563W        W79289  18.554  30.408   1.078
 7564W        W79290   7.171  36.532  14.228
 7565W        W79291   7.203  22.578  14.878
 7566W        W79292   7.541  11.023  14.540
 7567W        W79293  28.209  15.251   1.795
 7568W        W79294  13.673  34.831   5.018
 7569W        W79295  25.639   1.244  10.035
 7570W        W79296  29.540  38.655   0.768
 7571W        W79297  29.014  43.239  13.961
 7572W        W79298   9.282  42.962  14.290
 7573W        W79299  32.769  41.342  12.574
 7574W        W79300  40.624  12.156  12.988
 7575W        W79301   2.243   0.657  11.961
 7576W        W79302  40.731  43.161  12.119
 7577W        W79303  41.103  36.896  13.724
 7578W        W79304  14.511  19.177   4.940
 7579W        W79305  23.601  28.566   0.491
 7580W        W79306   3.928  27.005  12.886
 7581W        W79307  34.548   8.682   2.732
 7582W        W79308  42.450  18.045  10.363
 7583W        W79309  28.558  27.746  13.376
 7584W        W79310  18.263  38.563   0.254
 7585W        W79311  28.716  36.866  12.793
 7586W        W79312  23.777  20.058  13.376
 7587W        W79313  12.911  23.513   2.635
 7588W        W79314  43.454  42.913  10.162
 7589W        W79315  20.848  38.059  12.398
 7590W        W79316  36.539  42.312   1.314
 7591W        W79317  20.146  17.295   2.226
 7592W        W79318  34.832  24.117  14.350
 7593W        W79319  13.738   9.659  14.426
 7594W        W79320  42.520  32.926  11.102
 7595W        W79321   0.001  44.217   1.861
 7596W        W79322  21.241   3.182  10.853
 7597W        W79323  23.498  14.614  12.792
 7598W        W79324   9.243  20.291   2.429
 7599W        W79325   0.980  43.227   0.351
 7600W        W79326   3.950  37.861  14.543
 7601W        W79327   9.129  34.043   0.338
 7602W        W79328  42.779   9.444  11.093
 7603W        W79329   6.302  44.357   1.885
 7604W        W79330  30.490  36.659  13.540
 7605W        W79331  21.432  42.524   1.371
 7606W        W79332  34.675  31.546   3.247
 7607W        W79333  13.726  39.811  14.501
 7608W        W79334  11.138  21.789  11.047
 7609W        W79335  40.710   8.652  10.601
 7610W        W79336  10.185  19.093   2.373
 7611W        W79337   5.364  18.132  13.072
 7612W        W79338   0.285   2.262   2.725
 7613W        W79339  19.960   8.559   0.319
 7614W        W79340  12.885  24.578   0.438
 7615W        W79341   9.159  17.738   3.236
 7616W        W79342  39.018  39.868   0.454
 7617W        W79343  18.551  14.842  11.620
 7618W        W79344   7.164   8.709  12.656
 7619W        W79345  14.520   8.076   2.862
 7620W        W79346  42.069  14.955   0.081
 7621W        W79347  19.008   6.626  13.698
 7622W        W79348  33.338  10.628   0.554
 7623W        W79349   8.821  13.214  14.484
 7624W        W79350   7.942  24.719  14.721
 7625W        W79351   4.276  34.482   3.070
 7626W        W79352  28.441  19.786   3.256
 7627W        W79353  37.967  44.380   1.978
 7628W        W79354   4.985  13.680  10.573
 7629W        W79355  39.795  10.876  14.313
 7630W        W79356  28.736  19.182   2.577
 7631W        W79357  33.295   2.984  14.334
 7632W        W79358  34.132  12.159   3.236
 7633W        W79359   1.383  44.467  14.729
 7634W        W79360  39.297  26.164  14.885
 7635W        W79361  31.258  43.220  10.687
 7636W        W79362  39.570  13.664  14.992
 7637W        W79363  22.373  19.875   0.858
 7638W        W79364   5.623  30.012   1.903
 7639W        W79365  13.527   0.200   1.643
 7640W        W79366   5.256   7.815  12.817
 7641W        W79367  41.422  23.730   1.950
 7642W        W79368  24.418   7.341   2.728
 7643W        W79369  20.672   2.608   0.874
 7644W        W79370   7.398  22.011   1.209
 7645W        W79371  39.701  35.839   2.670
 7646W        W79372  23.247  44.573  14.333
 7647W        W79373  14.640   7.266   3.308
 7648W        W79374   7.385   2.198   3.549
 7649W        W79375  37.929   1.356  14.360
 7650W        W79376  29.432  30.978   1.329
 7651W        W79377  27.034   7.550   0.963
 7652W        W79378  38.602   3.874   3.132
 7653W        W79379   9.868  17.136  12.800
 7654W        W79380  39.613  43.285  12.778
 7655W        W79381  11.924   6.822   1.507
 7656W        W79382  39.436  44.408  14.917
 7657W        W79383  16.190  38.557   3.366
 7658W        W79384  38.581  22.041  14.403
 7659W        W79385  32.356  18.262   9.736
 7660W        W79386  26.716  17.863  11.246
 7661W        W79387   7.909  28.209   2.699
 7662W        W79388  13.019  14.814   0.818
 7663W        W79389   0.430   1.889  14.728
 7664W        W79390  29.891  25.712  11.512
 7665W        W79391  11.658  36.064   2.188
 7666W        W79392  31.706  41.833  10.684
 7667W        W79393  25.154  34.793   4.315
 7668W        W79394  23.681   0.374  13.099
 7669W        W79395   4.768  33.894   4.485
 7670W        W79396  25.390   4.816  11.595
 7671W        W79397  34.605   4.464   1.278
 7672W        W79398  22.054  23.965   4.030
 7673W        W79399  32.779   0.191  10.902
 7674W        W79400  34.357  37.618   3.330
 7675W        W79401  26.101   0.036   2.828
 7676W        W79402  36.109  19.431   0.438
 7677W        W79403  42.206  16.078  12.133
 7678W        W79404  13.665   6.372  12.521
 7679W        W79405  38.157  17.045   4.153
 7680W        W79406  34.501  26.072   1.936
 7681W        W79407   3.805   5.269   4.448
 7682W        W79408  32.478  43.443   2.917
 7683W        W79409  39.394  11.186  11.660
 7684W        W79410  19.777   7.709  14.999
 7685W        W79411  41.878  28.788   1.646
 7686W        W79412  21.839  43.533  11.496
 7687W        W79413  39.425  25.984  11.074
 7688W        W79414  40.784  14.645   0.462
 7689W        W79415  10.152  24.959  13.447
 7690W        W79416  33.740   8.733  12.005
 7691W        W79417  36.817  24.023   1.840
 7692W        W79418  14.601  33.555   0.727
 7693W        W79419   4.466  21.226   2.235
 7694W        W79420   3.546  11.782   1.791
 7695W        W79421  16.760  41.741  13.506
 7696W        W79422  33.604  18.966  13.026
 7697W        W79423  33.249  37.491   4.597
 7698W        W79424  12.207  28.029   1.848
 7699W        W79425   8.225  25.726   1.451
 7700W        W79426  44.756  19.741  11.705
 7701W        W79427   1.002  25.506   1.877
 7702W        W79428  24.586  44.257   4.079
 7703W        W79429  18.184  33.566   2.431
 7704W        W79430  10.127  24.040   4.605
 7705W        W79431   1.511  21.694  14.743
 7706W        W79432  13.086  41.752  10.725
 7707W        W79433  37.286   5.416  12.961
 7708W        W79434  13.812  26.067  13.040
 7709W        W79435  24.163  24.238   1.838
 7710W        W79436  38.495   1.398   4.676
 7711W        W79437   1.236  41.003  10.946
 7712W        W79438   3.276  14.770   3.254
 7713W        W79439  11.208   5.392   2.651
 7714W        W79440  13.186   7.695   3.236
 7715W        W79441  25.502  32.369  12.558
 7716W        W79442  13.099  41.245  10.815
 7717W        W79443  11.127  10.609  11.743
 7718W        W79444   0.360  32.868  11.680
 7719W        W79445  13.706  21.696  11.213
 7720W        W79446   2.714  24.705  12.418
 7721W        W79447  29.824  21.147  11.076
 7722W        W79448   7.651   1.251  11.136
 7723W        W79449  35.991  31.326   1.402
 7724W        W79450  38.142  19.652   4.726
 7725W        W79451   5.969   1.310  12.618
 7726W        W79452  37.432   5.728  10.744
 7727W        W79453  33.252  42.434   5.293
 7728W        W79454  36.080  22.530   2.651
 7729W        W79455  43.921  35.764   2.831
 7730W        W79456  37.957  14.846   2.676
 7731W        W79457  27.409  33.628   2.406
 7732W        W79458   5.434  20.435  12.185
 7733W        W79459  27.615   6.955  10.540
 7734W        W79460  27.750  28.077  13.045
 7735W        W79461  41.721  31.589   0.388
 7736W        W79462  19.176  10.333   4.694
 7737W        W79463  17.794  42.011   1.755
 7738W        W79464   0.685  28.593  10.327
 7739W        W79465  43.368  37.902   1.321
 7740W        W79466  17.270  39.795   1.865
 7741W        W79467  41.430  26.433   2.393
 7742W        W79468  31.898   1.215  14.509
 7743W        W79469  17.729  39.440   3.582
 7744W        W79470   9.522  35.816  12.886
 7745W        W79471  14.635  30.422  13.903
 7746W        W79472   0.988  17.447  13.277
 7747W        W79473   4.941  14.818  14.349
 7748W        W79474  19.475  12.679  11.172
 7749W        W79475  39.313  14.298  13.409
 7750W        W79476  42.796  15.537   2.214
 7751W        W79477  33.611   9.298   1.039
 7752W        W79478  38.994  16.488   1.200
 7753W        W79479  26.588  16.841   2.603
 7754W        W79480  41.561  14.540  14.782
 7755W        W79481  29.504  32.982   1.873
 7756W        W79482  29.454  22.501  11.600
 7757W        W79483  41.450   4.578   2.348
 7758W        W79484  19.814  16.061  11.112
 7759W        W79485  10.781  23.354  12.439
 7760W        W79486  29.447  15.722  11.500
 7761W        W79487   7.218  10.699   4.040
 7762W        W79488  29.378  10.036  11.965
 7763W        W79489  16.679   7.845  11.197
 7764W        W79490  12.615  29.084  10.613
 7765W        W79491  28.240  40.432  12.059
 7766W        W79492  29.908  31.426   3.215
 7767W        W79493  16.049  15.620   3.629
 7768W        W79494   6.817  13.914   4.513
 7769W        W79495  30.081  23.158   4.974
 7770W        W79496  18.752  11.561   3.643
 7771W        W79497  25.466  32.227  14.997
 7772W        W79498  19.144  37.435  13.327
 7773W        W79499   9.180  11.583  13.053
 7774W        W79500  28.890  33.883  11.552
 7775W        W79501   5.003  21.742   2.684
 7776W        W79502   1.225  39.458  12.484
 7777W        W79503  23.036   0.439  14.535
 7778W        W79504  29.697   1.153   1.386
 7779W        W79505  30.649  14.158   3.097
 7780W        W79506  18.521  40.309   3.239
 7781W        W79507  36.976   0.493   1.199
 7782W        W79508  15.237   1.967  14.956
 7783W        W79509   6.208  18.368   4.261
 7784W        W79510   3.415  33.345   5.213
 7785W        W79511  10.355  40.433  13.661
 7786W        W79512  14.168  31.443  10.688
 7787W        W79513  11.703   8.743   4.956
 7788W        W79514   6.876  21.379   3.299
 7789W        W79515  29.948  28.999  14.835
 7790W        W79516  23.803  26.972  13.949
 7791W        W79517  43.833  14.187   4.593
 7792W        W79518  41.304   2.551   2.628
 7793W        W79519  17.505  40.473  11.957
 7794W        W79520  35.156  16.600   0.330
 7795W        W79521   7.309   1.239   2.301
 7796W        W79522  39.875  37.018  12.429
 7797W        W79523  44.486  26.558  14.912
 7798W        W79524  37.348  37.761  11.041
 7799W        W79525   5.909  11.575  11.529
 7800W        W79526  10.843   4.386   1.320
 7801W        W79527   7.954   2.924  10.542
 7802W        W79528  15.149  36.974   3.790
 7803W        W79529   1.437  28.163   3.208
 7804W        W79530  13.147  38.861   1.761
 7805W        W79531  15.809   9.166   4.618
 7806W        W79532  29.219  37.281  13.369
 7807W        W79533  42.817  23.547  10.631
 7808W        W79534  42.231  35.094  13.920
 7809W        W79535  32.525  19.191   2.873
 7810W        W79536  34.120  38.803  12.575
 7811W        W79537  16.781  24.651  11.052
 7812W        W79538  16.407  29.476   4.891
 7813W        W79539  36.036  40.410   1.591
 7814W        W79540  33.997  24.562  14.420
 7815W        W79541  40.747  18.160   4.205
 7816W        W79542  20.535   2.863   4.849
 7817W        W79543  35.912  17.183   0.279
 7818W        W79544  40.410  43.336   0.234
 7819W        W79545  23.526  11.735   0.738
 7820W        W79546  39.504   1.421   3.797
 7821W        W79547  38.865  39.358   4.686
 7822W        W79548  36.870   2.830   0.448
 7823W        W79549  15.827   9.473  14.497
 7824W        W79550  16.677  39.087   0.665
 7825W        W79551  27.480  14.201  12.358
 7826W        W79552  35.649  16.617  11.179
 7827W        W79553  31.031   1.142  14.294
 7828W        W79554  30.169  28.902  13.102
 7829W        W79555  21.646   2.191  14.805
 7830W        W79556  34.159  41.487   1.912
 7831W        W79557   6.372  20.631  14.583
 7832W        W79558  41.754  12.211   0.327
 7833W        W79559  11.817  24.429  14.474
 7834W        W79560  20.622  13.415  12.394
 7835W        W79561   3.797  37.296   2.535
 7836W        W79562  21.047  32.264  12.783
 7837W        W79563   6.641  18.095   4.338
 7838W        W79564  31.219   9.814  12.384
 7839W        W79565   5.729  38.962  11.513
 7840W        W79566  13.350  34.155   4.542
 7841W        W79567  16.611   2.008  12.042
 7842W        W79568  21.966  34.192   1.865
 7843W        W79569  31.919  31.175   0.732
 7844W        W79570   4.539  19.073   2.323
 7845W        W79571  16.163  42.363   0.004
 7846W        W79572  22.207  30.310   3.021
 7847W        W79573  20.092  24.380  14.940
 7848W        W79574  10.708  44.893   4.564
 7849W        W79575  35.421   9.599   0.483
 7850W        W79576  15.676  15.553   0.433
 7851W        W79577  30.451  44.530  14.009
 7852W        W79578  34.800  13.298  13.867
 7853W        W79579  35.624   6.306  12.140
 7854W        W79580  12.784  40.304  10.498
 7855W        W79581   0.221  44.009  11.194
 7856W        W79582  16.080  38.280  13.314
 7857W        W79583  35.469  36.798   4.488
 7858W        W79584  12.688  11.999  14.023
 7859W        W79585  34.492   3.052   0.488
 7860W        W79586  43.464  12.573  13.897
 7861W        W79587  44.396  27.193  13.806
 7862W        W79588   7.929  23.841   1.527
 7863W        W79589  14.686  23.778  13.772
 7864W        W79590  32.638   4.007  14.929
 7865W        W79591  44.851   3.890   0.802
 7866W        W79592  25.967  24.015   4.333
 7867W        W79593  41.301  33.460  13.776
 7868W        W79594  28.676  11.203   2.198
 7869W        W79595   2.950  20.719   1.463
 7870W        W79596   7.296  23.007   4.953
 7871W        W79597  38.486  41.606  13.291
 7872W        W79598  11.277  24.530   2.213
 7873W        W79599  32.038  15.790   0.767
 7874W        W79600  38.402  26.940   3.816
 7875W        W79601  28.096   9.591  13.468
 7876W        W79602   6.473  18.803   1.230
 7877W        W79603  40.991   4.899  12.392
 7878W        W79604  15.983  25.799  11.624
 7879W        W79605   0.427   4.889  10.651
 7880W        W79606  18.629   1.197   3.177
 7881W        W79607   7.373  36.939  12.805
 7882W        W79608  41.402  12.116  14.415
 7883W        W79609  35.502  25.207  13.029
 7884W        W79610  23.200   5.122  12.192
 7885W        W79611   3.816  13.264   2.328
 7886W        W79612  14.242  34.430   2.721
 7887W        W79613   8.725  13.146  11.010
 7888W        W79614   2.918  40.897   0.286
 7889W        W79615  44.033  18.891  14.339
 7890W        W79616  31.403  24.523   5.047
 7891W        W79617   8.662  10.753  10.769
 7892W        W79618  20.993   3.144   3.087
 7893W        W79619  31.843   4.976   1.680
 7894W        W79620  20.706  32.979  13.260
 7895W        W79621  36.338  20.211   3.751
 7896W        W79622  13.632   7.656   1.853
 7897W        W79623  22.234  10.546   0.980
 7898W        W79624  10.673  18.094  11.123
 7899W        W79625  25.635   3.232  12.692
 7900W        W79626  21.167  21.769   5.226
 7901W        W79627  43.335   5.460   2.310
 7902W        W79628   1.909  22.141   2.414
 7903W        W79629  39.767  25.254   2.367
 7904W        W79630  42.003  35.595  13.952
 7905W        W79631  12.627  22.273   0.941
 7906W        W79632  30.371  30.439  14.548
 7907W        W79633  43.943  31.645  11.557
 7908W        W79634  17.537  28.393   4.088
 7909W        W79635  12.631   8.878  12.954
 7910W        W79636   5.481  32.423  14.681
 7911W        W79637  44.409  28.047  14.938
 7912W        W79638  40.150  20.414   0.887
 7913W        W79639  13.758  22.773   4.715
 7914W        W79640  22.853  18.635   1.322
 7915W        W79641  21.207  21.510  12.014
 7916W        W79642  20.612  41.906   1.247
 7917W        W79643  37.455   5.041   3.632
 7918W        W79644  36.278  44.848  14.215
 7919W        W79645  23.488  12.235   2.884
 7920W        W79646  24.655  28.476   4.049
 7921W        W79647  42.851  26.170  13.904
 7922W        W79648   2.231  19.839   0.365
 7923W        W79649   2.423  13.138   0.431
 7924W        W79650  33.631  16.672   1.231
 7925W        W79651  23.946  14.379  10.822
 7926W        W79652  18.135  29.352  10.632
 7927W        W79653  37.313  35.475  14.448
 7928W        W79654  35.129  16.712   3.340
 7929W        W79655  24.069  12.866   1.340
 7930W        W79656  13.315  40.105  14.316
 7931W        W79657  33.117  24.017   4.642
 7932W        W79658   1.315  29.491   4.618
 7933W        W79659  25.841  37.290   0.669
 7934W        W79660  34.058  24.585   1.903
 7935W        W79661  18.362  38.410  14.770
 7936W        W79662  44.786   5.711  13.458
 7937W        W79663  44.620   5.624   0.288
 7938W        W79664  20.740  16.695  14.017
 7939W        W79665  25.932  24.415  12.900
 7940W        W79666   4.725   1.633   1.896
 7941W        W79667  15.170  33.032  10.802
 7942W        W79668  16.189  28.993   1.091
 7943W        W79669   4.984  31.491   3.100
 7944W        W79670   5.628  34.389   4.161
 7945W        W79671  12.317  25.590  11.636
 7946W        W79672  18.287  15.882  14.468
 7947W        W79673  10.151  30.798   1.666
 7948W        W79674  13.460  16.681  12.843
 7949W        W79675   7.162   4.294  11.865
 7950W        W79676  17.920  26.650  12.647
 7951W        W79677  22.980  11.616  14.502
 7952W        W79678  18.669  44.968   2.581
 7953W        W79679  32.478  22.227   2.638
 7954W        W79680  10.196   5.726   2.227
 7955W        W79681  23.188  15.543  12.855
 7956W        W79682   1.354  29.936  11.540
 7957W        W79683   4.291   2.939  14.578
 7958W        W79684  27.037  34.326  11.747
 7959W        W79685  18.111  21.232  11.531
 7960W        W79686  12.466  37.735   3.739
 7961W        W79687  18.258  17.165   2.292
 7962W        W79688  43.691   2.690  10.662
 7963W        W79689  31.854   7.658  14.233
 7964W        W79690  25.108   8.837   0.548
 7965W        W79691   9.416  19.343  10.453
 7966W        W79692  19.642  35.933   2.734
 7967W        W79693  43.345  21.835  13.461
 7968W        W79694  36.044  34.603   3.354
 7969W        W79695  37.277   3.311   1.467
 7970W        W79696  30.130  14.204  14.702
 7971W        W79697  24.262  31.704   3.229
 7972W        W79698  16.186   2.347  11.935
 7973W        W79699  12.426  39.355  14.744
 7974W        W79700   4.139   4.332   0.282
 7975W        W79701  42.222  17.247   1.936
 7976W        W79702  44.984  34.509  13.207
 7977W        W79703  15.790  13.531  11.113
 7978W        W79704  17.743  10.733  13.098
 7979W        W79705   3.841  41.824  13.935
 7980W        W79706  41.894  19.126  13.870
 7981W        W79707  44.756   1.492   1.777
 7982W        W79708  42.645  18.293   3.355
 7983W        W79709  22.629   0.841  13.811
 7984W        W79710  44.269  21.879   1.823
 7985W        W79711  40.794  16.605  14.236
 7986W        W79712  38.525  11.287   1.174
 7987W        W79713   2.388  20.592   3.441
 7988W        W79714  11.512  18.592  12.788
 7989W        W79715   4.892  11.772   3.678
 7990W        W79716   1.897  17.444  14.872
 7991W        W79717  30.294  21.278  10.882
 7992W        W79718  32.813  40.492   1.473
 7993W        W79719  12.104   4.058   1.614
 7994W        W79720  25.629   5.552   0.744
 7995W        W79721   4.923  42.259   0.397
 7996W        W79722   6.687   4.869  13.505
 7997W        W79723  15.153  33.613   1.829
 7998W        W79724  44.213  39.186   5.101
 7999W        W79725  36.556  31.567   0.782
 8000W        W79726   2.325  30.182  12.001
 8001W        W79727   8.295  27.254   3.106
 8002W        W79728   9.647   9.136  14.309
 8003W        W79729  43.693  14.403  11.195
 8004W        W79730  35.997  14.918   3.652
 8005W        W79731  24.046  43.467  12.605
 8006W        W79732  10.876  35.947   0.772
 8007W        W79733  26.453  12.837  14.825
 8008W        W79734  18.038  16.294  12.415
 8009W        W79735  44.588  12.760  11.084
 8010W        W79736   6.517  25.517   1.294
 8011W        W79737  19.064   5.301  13.754
 8012W        W79738  38.827  35.954   9.535
 8013W        W79739   0.702  28.083  14.400
 8014W        W79740  40.369  38.737  12.928
 8015W        W79741   9.194  13.982  10.679
 8016W        W79742   0.384  42.404   0.292
 8017W        W79743  15.941   0.355   4.184
 8018W        W79744  22.327  18.354   2.445
 8019W        W79745   5.984  19.662  13.866
 8020W        W79746  20.568  36.984   4.886
 8021W        W79747  41.930  12.150   4.513
 8022W        W79748   7.974  23.194  11.181
 8023W        W79749  37.299  25.960  14.900
 8024W        W79750  11.325  39.397   1.976
 8025W        W79751  23.192  37.552   2.686
 8026W        W79752  38.048  35.162   4.627
 8027W        W79753  29.537  18.698   2.803
 8028W        W79754   8.304  31.163   4.107
 8029W        W79755  38.356  41.655   4.371
 8030W        W79756  14.853  34.451  13.074
 8031W        W79757   8.125  19.941  13.773
 8032W        W79758   9.376   6.528  12.081
 8033W        W79759  23.100  41.317   2.323
 8034W        W79760  21.752  10.103   0.937
 8035W        W79761  34.421  27.489   2.408
 8036W        W79762   4.394  30.910   0.441
 8037W        W79763  11.270  43.540  13.916
 8038W        W79764  43.948   9.675  10.555
 8039W        W79765  39.068  16.468   3.187
 8040W        W79766  28.978  11.773  12.611
 8041W        W79767  44.791  35.939  13.977
 8042W        W79768   8.579  38.808  12.456
 8043W        W79769   7.699  26.414   1.199
 8044W        W79770  32.952  14.409   1.833
 8045W        W79771  41.817  35.287   4.666
 8046W        W79772   7.183  34.145   0.497
 8047W        W79773  21.571   6.461   2.046
 8048W        W79774  12.149  17.256  13.129
 8049W        W79775  13.235  31.414  12.462
 8050W        W79776  24.423  39.960   0.370
 8051W        W79777  34.191  25.496   3.714
 8052W        W79778   5.172  42.668  12.253
 8053W        W79779  31.642   8.906   2.300
 8054W        W79780  24.295  42.903  13.515
 8055W        W79781  20.024  37.491  14.742
 8056W        W79782  42.192   8.095  11.452
 8057W        W79783  37.552  13.267  11.095
 8058W        W79784  30.535  15.298  13.517
 8059W        W79785  26.138  36.371  10.713
 8060W        W79786  37.453  24.061  13.479
 8061W        W79787  26.933  31.435   0.812
 8062W        W79788  34.406   7.440   3.840
 8063W        W79789  13.584  15.770  12.350
 8064W        W79790  19.657  18.512  14.706
 8065W        W79791   1.318  38.653  13.284
 8066W        W79792  13.183  43.693  10.559
 8067W        W79793  34.949  37.329  11.739
 8068W        W79794   5.133  31.885  12.007
 8069W        W79795  42.472  35.570   2.189
 8070W        W79796  31.938  18.988   1.624
 8071W        W79797  17.193   6.302   0.688
 8072W        W79798  41.210  15.210  13.483
 8073W        W79799  32.005  34.835  10.443
 8074W        W79800  34.167   3.807   1.689
 8075W        W79801   9.349  34.930   0.434
 8076W        W79802  44.575  38.799   4.852
 8077W        W79803   7.594   5.135  11.602
 8078W        W79804  26.352  31.507   3.366
 8079W        W79805   2.325  19.629  14.125
 8080W        W79806  12.367   2.693   1.638
 8081W        W79807  35.788  35.979   0.611
 8082W        W79808   2.727  22.804   3.166
 8083W        W79809  23.995  16.199   0.631
 8084W        W79810  21.884   7.207   4.745
 8085W        W79811  13.190  10.347   3.924
 8086W        W79812  20.890  18.258   1.892
 8087W        W79813  35.764  25.164   0.228
 8088W        W79814   7.353  31.558  12.569
 8089W        W79815  33.607  42.409   4.323
 8090W        W79816  43.872  39.977  12.656
 8091W        W79817  26.736  41.610   9.831
 8092W        W79818   7.812   9.906   4.299
 8093W        W79819  23.548  11.431   1.731
 8094W        W79820  44.165   8.446  11.661
 8095W        W79821   2.267  36.057   1.028
 8096W        W79822  14.959  10.280   0.524
 8097W        W79823  37.652  31.776  13.242
 8098W        W79824  15.605   3.638  10.739
 8099W        W79825   8.830  18.087   4.705
 8100W        W79826  27.137  26.931   4.534
 8101W        W79827  20.669   4.781  11.472
 8102W        W79828  22.328  29.068   3.145
 8103W        W79829   8.582  29.515  12.993
 8104W        W79830  29.811  18.823   4.393
 8105W        W79831   5.229   1.341  11.978
 8106W        W79832   7.762  34.947   1.345
 8107W        W79833  16.307  21.768   1.335
 8108W        W79834  14.553   0.222  13.841
 8109W        W79835   5.654  19.878  13.543
 8110W        W79836  33.838   8.222   2.707
 8111W        W79837  24.017  23.656   3.857
 8112W        W79838  36.788  19.560   0.134
 8113W        W79839  17.757  15.251  13.881
 8114W        W79840  38.363  16.973   1.900
 8115W        W79841   9.713   3.718   3.973
 8116W        W79842  32.485  16.447   2.602
 8117W        W79843  36.115  39.383   1.010
 8118W        W79844  15.349   2.306  12.515
 8119W        W79845  40.390  27.142  12.469
 8120W        W79846  17.588  25.232  11.107
 8121W        W79847  29.979  32.605  11.917
 8122W        W79848  26.176  17.757  11.216
 8123W        W79849  43.880  43.882  13.570
 8124W        W79850  29.488  27.506  10.783
 8125W        W79851  23.777  44.313  12.583
 8126W        W79852  11.816  10.357  14.787
 8127W        W79853  21.292   3.225  11.392
 8128W        W79854  44.680  32.349   5.078
 8129W        W79855   8.901  11.195  10.706
 8130W        W79856  27.671  36.967  12.591
 8131W        W79857  18.828  11.428  13.386
 8132W        W79858  39.874  44.925   1.423
 8133W        W79859   5.792   1.800   4.565
 8134W        W79860  19.809  24.129   3.732
 8135W        W79861   9.620  38.965  11.104
 8136W        W79862  43.891   3.950   0.367
 8137W        W79863  16.270  15.518   2.239
 8138W        W79864  44.740  24.778   2.842
 8139W        W79865   6.858  41.136  11.076
 8140W        W79866  37.235  34.624  11.570
 8141W        W79867  30.160  40.258   1.441
 8142W        W79868  20.648  42.496  13.958
 8143W        W79869  26.075  24.515  13.782
 8144W        W79870  12.441  37.452  11.436
 8145W        W79871  40.304   4.280   0.400
 8146W        W79872   6.658  38.237  13.404
 8147W        W79873  20.095  13.352   0.337
 8148W        W79874  39.354  11.643   4.281
 8149W        W79875  33.620  13.244  14.596
 8150W        W79876   0.643  39.364  14.768
 8151W        W79877  41.935  28.968  14.815
 8152W        W79878  27.180  44.852  12.815
 8153W        W79879   3.596  29.266  13.150
 8154W        W79880  10.627  42.508  10.495
 8155W        W79881  31.637  17.670  10.776
 8156W        W79882   0.027  14.270  12.531
 8157W        W79883  23.104  44.847   1.685
 8158W        W79884  28.915   9.783   2.489
 8159W        W79885  29.629  29.781   0.524
 8160W        W79886   8.441  21.176  13.398
 8161W        W79887  31.709  20.148  14.200
 8162W        W79888  28.629  24.192   3.694
 8163W        W79889  26.837  34.439   0.442
 8164W        W79890  34.810  12.623   2.411
 8165W        W79891  31.819  17.735   4.418
 8166W        W79892  26.396   9.856  13.288
 8167W        W79893  38.346  11.581  14.014
 8168W        W79894  26.531  29.826   3.700
 8169W        W79895  21.721   6.756   3.982
 8170W        W79896  12.896  43.835  13.977
 8171W        W79897  24.215  21.438  11.151
 8172W        W79898  31.156   6.069  12.127
 8173W        W79899   6.496   9.094   0.947
 8174W        W79900   7.382  15.787  14.440
 8175W        W79901  24.635  33.570   1.833
 8176W        W79902  17.806  25.571  11.553
 8177W        W79903  24.605  32.101  10.313
 8178W        W79904  16.032   2.292   2.726
 8179W        W79905  31.636  36.381  14.352
 8180W        W79906   6.647  28.870   3.198
 8181W        W79907  20.638  28.570   1.909
 8182W        W79908  15.610  39.916  13.082
 8183W        W79909  35.871  26.959   0.754
 8184W        W79910  39.143  16.083  13.934
 8185W        W79911  24.936   6.737  12.475
 8186W        W79912  38.962  30.706   3.323
 8187W        W79913  26.484  34.931  11.460
 8188W        W79914   5.223   9.268  13.307
 8189W        W79915  39.322  16.251   0.181
 8190W        W79916  21.742   2.238   4.582
 8191W        W79917  20.238  29.994  12.561
 8192W        W79918  42.548   9.835  14.279
 8193W        W79919  27.538   4.904  10.681
 8194W        W79920   0.394  20.271   2.273
 8195W        W79921   3.224  15.199  10.989
 8196W        W79922  24.474  24.170  11.150
 8197W        W79923  20.216  35.788  12.356
 8198W        W79924  32.568  14.120   2.355
 8199W        W79925  18.197   7.711   4.370
 8200W        W79926   0.419  36.563   3.861
 8201W        W79927   3.818  15.882  13.514
 8202W        W79928  16.657  33.178   3.477
 8203W        W79929  14.314  32.156  12.919
 8204W        W79930  38.489  41.622  11.470
 8205W        W79931  30.163  11.462   3.398
 8206W        W79932   1.936  41.572  12.015
 8207W        W79933  38.550  19.362   2.128
 8208W        W79934  30.413  17.838  12.556
 8209W        W79935  16.356  33.351   1.331
 8210W        W79936  31.489  20.109   1.338
 8211W        W79937  38.788  33.021   4.078
 8212W        W79938  25.505  42.291   0.763
 8213W        W79939  39.572  34.522   2.464
 8214W        W79940  41.834  43.926  14.832
 8215W        W79941  19.223  23.705  11.203
 8216W        W79942   6.814  44.536   4.215
 8217W        W79943  13.826  26.020   1.844
 8218W        W79944  23.469   8.723  14.310
 8219W        W79945   5.693  30.591  11.956
 8220W        W79946  18.256   2.648   2.455
 8221W        W79947   6.564  24.365  13.026
 8222W        W79948  17.050  29.365   0.296
 8223W        W79949  32.862   8.317  13.837
 8224W        W79950  20.700  44.787   1.006
 8225W        W79951  19.689  27.561   1.649
 8226W        W79952  29.969  42.112  12.551
 8227W        W79953  39.816  19.773   2.761
 8228W        W79954   6.904  30.677   2.861
 8229W        W79955  16.559   0.459  12.472
 8230W        W79956  39.288  15.155  11.723
 8231W        W79957  43.898  21.271  10.639
 8232W        W79958  13.141  42.301  10.718
 8233W        W79959   8.548  26.133  11.493
 8234W        W79960  44.356  36.128  11.570
 8235W        W79961   0.031  10.883  12.489
 8236W        W79962   6.919   9.778  11.248
 8237W        W79963  11.703   6.858  11.055
 8238W        W79964  37.904  34.816  10.568
 8239W        W79965  28.178  37.823   3.742
 8240W        W79966  38.038   8.859   4.588
 8241W        W79967  14.244  34.617  14.487
 8242W        W79968  23.441  14.213   1.179
 8243W        W79969  44.472  29.946   1.859
 8244W        W79970  18.511  12.665   0.880
 8245W        W79971   1.563   1.511  13.937
 8246W        W79972  39.339   4.070   1.832
 8247W        W79973  42.915   1.811   1.683
 8248W        W79974  35.161  21.479   0.520
 8249W        W79975  40.397  15.401   4.106
 8250W        W79976  16.598  19.795   2.760
 8251W        W79977  18.374   5.835  14.536
 8252W        W79978  37.799   3.870  11.522
 8253W        W79979  31.021   4.261  11.571
 8254W        W79980  43.838  21.606   4.269
 8255W        W79981  33.363  17.242   3.682
 8256W        W79982  12.145  22.403   0.173
 8257W        W79983  33.533  38.538  10.540
 8258W        W79984   3.479   5.892   0.927
 8259W        W79985  24.544   5.260   0.326
 8260W        W79986  11.704   7.618  14.542
 8261W        W79987   1.229  36.682  13.026
 8262W        W79988  38.402  26.488   1.718
 8263W        W79989  36.784  41.901   2.185
 8264W        W79990  37.984  32.215  14.025
 8265W        W79991  16.384  14.857  11.377
 8266W        W79992  42.024  16.166   3.439
 8267W        W79993  31.668  34.474   4.144
 8268W        W79994   5.401  18.669  11.683
 8269W        W79995  12.588   5.165   3.889
 8270W        W79996  36.892  34.472  14.339
 8271W        W79997  18.647   8.913   4.568
 8272W        W79998  19.956  31.088   4.487
 8273W        W79999   7.318   9.750  11.996
 8274W        W80000   5.767   0.673  14.682
 8275W        W80001  36.507  19.939   4.158
 8276W        W80002   8.329   9.175   4.438
 8277W        W80003  17.554   3.483   3.702
 8278W        W80004  36.286   8.233  14.840
 8279W        W80005   4.057  18.894  13.376
 8280W        W80006  35.454   8.938  10.567
 8281W        W80007  35.917  38.480   4.376
 8282W        W80008  16.277   6.883   2.697
 8283W        W80009   4.036  21.965  14.895
 8284W        W80010  20.578  34.179  11.985
 8285W        W80011   1.698  27.731   3.145
 8286W        W80012   7.673  35.067  10.499
 8287W        W80013  36.598  15.717  13.042
 8288W        W80014  30.019  19.203  12.954
 8289W        W80015  34.339  10.697  11.913
 8290W        W80016  36.109  36.365   0.022
 8291W        W80017  21.619   1.444  10.462
 8292W        W80018  21.147  11.521   5.014
 8293W        W80019  26.721  13.842   0.801
 8294W        W80020  36.425  19.685  12.008
 8295W        W80021  33.228  12.605  13.089
 8296W        W80022  16.326  13.304   2.156
 8297W        W80023  12.138   5.871  14.984
 8298W        W80024  20.061  15.812  13.475
 8299W        W80025  31.665  44.469  11.030
 8300W        W80026  24.479  26.406  13.722
 8301W        W80027   3.413  15.718   2.585
 8302W        W80028  40.867  36.589  14.576
 8303W        W80029  41.138  20.209   3.064
 8304W        W80030  43.299  40.054   1.221
 8305W        W80031  41.300  32.088   3.305
 8306W        W80032  38.818  33.219  13.443
 8307W        W80033  44.356  19.442  11.083
 8308W        W80034  28.386  36.908   1.365
 8309W        W80035  34.876  42.047   4.707
 8310W        W80036  29.678  42.562  11.419
 8311W        W80037  35.267  36.045   0.445
 8312W        W80038  21.622  40.900  11.499
 8313W        W80039  35.958  28.237  13.072
 8314W        W80040  44.438  38.540   2.727
 8315W        W80041  26.953   6.022   2.605
 8316W        W80042  10.380  39.461  11.096
 8317W        W80043   0.632  30.312  14.497
 8318W        W80044  16.769  31.085   3.388
 8319W        W80045  13.042  40.950  14.478
 8320W        W80046   7.789  30.087  12.493
 8321W        W80047   0.039  10.718  14.208
 8322W        W80048  20.669  31.721   3.743
 8323W        W80049  22.253  28.195   0.152
 8324W        W80050  24.977   0.876   1.109
 8325W        W80051  12.269  42.044   3.359
 8326W        W80052   8.446   5.045   2.834
 8327W        W80053   9.651   3.349  11.924
 8328W        W80054  23.672  36.420   2.920
 8329W        W80055  15.729  32.874  11.892
 8330W        W80056  41.973  30.559   2.622
 8331W        W80057  28.013   5.324  12.478
 8332W        W80058   5.037   4.382  11.169
 8333W        W80059  19.766  20.380   0.196
 8334W        W80060  27.179  15.163   3.747
 8335W        W80061  25.306  19.643   3.151
 8336W        W80062  12.207  15.051  11.620
 8337W        W80063  29.634   5.552  14.902
 8338W        W80064  31.069   0.946  13.353
 8339W        W80065   0.809   0.266   4.642
 8340W        W80066  32.284   0.973   4.428
 8341W        W80067  27.820  32.425  11.068
 8342W        W80068  41.545  42.657  12.998
 8343W        W80069  21.116  27.527   3.220
 8344W        W80070  18.023  25.478  13.407
 8345W        W80071  30.965  35.488  10.635
 8346W        W80072   9.681  32.019   2.593
 8347W        W80073  21.087  31.622   4.197
 8348W        W80074  11.098  18.683  14.062
 8349W        W80075  35.545   7.174   4.125
 8350W        W80076  24.552  24.190   1.448
 8351W        W80077  18.007  29.349   3.963
 8352W        W80078  44.839  28.189  10.604
 8353W        W80079   8.946  42.241   2.136
 8354W        W80080  20.296  11.198   0.880
 8355W        W80081  11.278  40.442   1.429
 8356W        W80082  30.053  36.274  12.023
 8357W        W80083  21.286   4.487   4.593
 8358W        W80084  10.631   2.684  14.797
 8359W        W80085  28.699  31.894   0.962
 8360W        W80086  27.580  28.513   2.917
 8361W        W80087  17.898   1.578   3.639
 8362W        W80088   3.761   7.292   1.494
 8363W        W80089  40.097   5.424  11.728
 8364W        W80090   5.309   5.411   1.010
 8365W        W80091  42.254  17.843  12.116
 8366W        W80092  16.817  11.741   1.716
 8367W        W80093  38.115   9.345   2.653
 8368W        W80094  27.927  22.096   2.256
 8369W        W80095  34.861  20.824   4.876
 8370W        W80096  25.622  39.986  13.587
 8371W        W80097  37.313  22.984   1.690
 8372W        W80098  26.157  39.001   4.110
 8373W        W80099  11.391  27.438  13.308
 8374W        W80100  43.432   2.353  13.554
 8375W        W80101  13.849   4.706  11.721
 8376W        W80102   3.215  40.070   3.041
 8377W        W80103   3.618  32.735  12.873
 8378W        W80104   7.480  40.387   1.222
 8379W        W80105  19.774  14.682   2.644
 8380W        W80106  32.465  25.290   3.749
 8381W        W80107   2.638  16.171  14.813
 8382W        W80108  28.709  25.238  14.318
 8383W        W80109  39.938  41.578   4.493
 8384W        W80110  16.559  10.673  11.010
 8385W        W80111  39.036  15.265  11.083
 8386W        W80112  14.070  22.962  11.705
 8387W        W80113  24.684  18.762  11.386
 8388W        W80114  25.766  31.109  11.951
 8389W        W80115   7.565  32.377  13.556
 8390W        W80116  22.276   2.492  13.021
 8391W        W80117  38.931  20.721  12.063
 8392W        W80118  17.241  39.427  10.764
 8393W        W80119  40.266  16.292  13.553
 8394W        W80120  20.363   4.912   2.297
 8395W        W80121  37.973  21.734   0.980
 8396W        W80122  24.530  31.004   1.419
 8397W        W80123  42.465  20.744  11.629
 8398W        W80124  34.494  29.395  14.394
 8399W        W80125  12.976  39.607  12.991
 8400W        W80126  17.763  10.134  13.277
 8401W        W80127  37.589  39.756  12.305
 8402W        W80128  38.911  19.986  14.892
 8403W        W80129  41.704  37.087  10.778
 8404W        W80130  38.169  37.606  12.594
 8405W        W80131  11.753  38.354   4.080
 8406W        W80132  39.907  14.472   1.438
 8407W        W80133  18.012  19.100   3.344
 8408W        W80134   7.914  10.913  11.466
 8409W        W80135  43.033   5.437  11.725
 8410W        W80136   3.760  37.679  11.996
 8411W        W80137  11.671  19.103   0.706
 8412W        W80138  33.577  28.254  11.090
 8413W        W80139   4.953  13.464  14.924
 8414W        W80140  24.043   3.220  11.068
 8415W        W80141   3.058   1.556   1.718
 8416W        W80142  18.630  29.581  10.660
 8417W        W80143  42.788  33.402  12.478
 8418W        W80144   0.512  38.936  12.479
 8419W        W80145  20.750   1.461  10.443
 8420W        W80146  15.144  13.129  14.026
 8421W        W80147  15.605   9.313  14.051
 8422W        W80148  11.941  16.143   4.164
 8423W        W80149   5.509  14.201   0.484
 8424W        W80150   7.936  13.862   1.233
 8425W        W80151  24.594  26.598   9.408
 8426W        W80152   6.655  10.069   3.651
 8427W        W80153   9.510   1.457   2.834
 8428W        W80154  17.352   9.825   1.875
 8429W        W80155  12.148  39.347  13.841
 8430W        W80156  19.133  44.724  12.034
 8431W        W80157  28.908  11.675   1.305
 8432W        W80158  44.914  41.408  13.968
 8433W        W80159   4.501  29.135   2.739
 8434W        W80160  19.769   1.302  12.869
 8435W        W80161  17.131  27.771  12.871
 8436W        W80162  34.260  13.315  13.946
 8437W        W80163   7.879  44.452   2.166
 8438W        W80164  25.220  30.423  14.973
 8439W        W80165  25.735   0.978  12.099
 8440W        W80166  42.438   0.499  13.910
 8441W        W80167   8.528  13.579  10.759
 8442W        W80168  36.907  38.482  11.537
 8443W        W80169  23.614   2.936  10.994
 8444W        W80170  15.872  26.032  14.934
 8445W        W80171  25.769  44.432   0.464
 8446W        W80172  27.288   2.092   4.092
 8447W        W80173  44.800  35.019   1.506
 8448W        W80174  21.644  35.911   1.831
 8449W        W80175   0.256  28.980  13.895
 8450W        W80176   8.113  39.369   0.882
 8451W        W80177   7.940  26.648   0.791
 8452W        W80178  33.554  14.156   2.380
 8453W        W80179  15.667  40.993  11.663
 8454W        W80180   2.511   2.804   1.328
 8455W        W80181   6.241  26.053  10.746
 8456W        W80182  30.163  30.441   2.859
 8457W        W80183  23.259  31.579  14.295
 8458W        W80184  19.611  26.527  14.585
 8459W        W80185  18.151  35.502   3.436
 8460W        W80186  15.841   9.776   2.877
 8461W        W80187  39.653  18.712  12.567
 8462W        W80188   6.945  32.573   3.238
 8463W        W80189  26.563  38.648   0.876
 8464W        W80190  20.973  13.441   3.751
 8465W        W80191   3.142   3.452   4.334
 8466W        W80192   5.303   7.163  12.541
 8467W        W80193  28.148   4.259   3.352
 8468W        W80194  18.165  25.928  10.740
 8469W        W80195  44.003  26.898   4.126
 8470W        W80196  29.271   2.988   0.804
 8471W        W80197  24.285  27.174  11.728
 8472W        W80198  34.982   9.678  14.761
 8473W        W80199  40.824  21.734  12.499
 8474W        W80200  13.180  13.935  13.451
 8475W        W80201   1.344   9.074   0.539
 8476W        W80202   2.454  24.779   2.343
 8477W        W80203  15.666  30.058   3.144
 8478W        W80204   4.204   8.919   3.368
 8479W        W80205  14.240  16.862  14.141
 8480W        W80206  36.341  33.676  13.419
 8481W        W80207   9.128   5.750  14.864
 8482W        W80208  44.250   5.366  10.676
 8483W        W80209  42.856   6.316  11.273
 8484W        W80210  17.296   1.504   3.551
 8485W        W80211  17.762   0.418   0.040
 8486W        W80212  24.513   6.257  11.134
 8487W        W80213  33.577  40.116  11.555
 8488W        W80214  12.769  29.910   1.784
 8489W        W80215  44.240  10.815   1.401
 8490W        W80216  44.618  28.156   3.944
 8491W        W80217  31.584  34.907  11.695
 8492W        W80218   9.128  15.535   3.282
 8493W        W80219  15.671   2.771   0.846
 8494W        W80220  42.162  28.105  14.108
 8495W        W80221   3.708  37.373  11.586
 8496W        W80222  44.600  44.987  12.713
 8497W        W80223   6.893  14.223   3.204
 8498W        W80224   4.753  40.489   4.736
 8499W        W80225  24.478  40.812  12.643
 8500W        W80226  44.399  24.599   2.211
 8501W        W80227   7.633   9.398  12.471
 8502W        W80228   5.128   8.293  13.057
 8503W        W80229  11.865  35.498   0.042
 8504W        W80230  35.314  37.828   3.238
 8505W        W80231  24.626  34.493  11.568
 8506W        W80232  18.808  19.730   3.276
 8507W        W80233  44.442  22.433   0.467
 8508W        W80234   8.230  33.340   2.771
 8509W        W80235  25.700  19.641   1.749
 8510W        W80236   5.402   4.895   0.406
 8511W        W80237   0.956  34.364   1.637
 8512W        W80238  24.107   7.297  14.302
 8513W        W80239  20.646  14.292   4.587
 8514W        W80240   0.284  20.209  10.618
 8515W        W80241  24.722  15.845   1.787
 8516W        W80242  31.880  32.498   2.701
 8517W        W80243  17.548   3.001   0.993
 8518W        W80244   3.335   5.775   3.845
 8519W        W80245  33.172  35.619   2.734
 8520W        W80246   3.234   7.815   1.725
 8521W        W80247  16.796  12.100   2.421
 8522W        W80248  17.357   5.346  10.751
 8523W        W80249   6.917  17.793   3.555
 8524W        W80250  34.100  21.048  11.828
 8525W        W80251  31.974   8.312  12.471
 8526W        W80252  33.121   0.347  13.288
 8527W        W80253   9.589   5.956  12.874
 8528W        W80254   3.093  31.606   3.573
 8529W        W80255  39.482  34.511   0.537
 8530W        W80256   8.603   6.160   1.502
 8531W        W80257  42.582  31.169  13.339
 8532W        W80258  34.420  41.630   2.653
 8533W        W80259   3.970  27.821  10.606
 8534W        W80260   2.911  16.744   0.082
 8535W        W80261  40.930   3.244   4.236
 8536W        W80262  20.589  33.748  12.852
 8537W        W80263  42.020  42.280  11.947
 8538W        W80264   1.781  28.152  12.593
 8539W        W80265  40.368  16.363   4.335
 8540W        W80266  13.764  29.340  14.740
 8541W        W80267  10.590  34.042  11.019
 8542W        W80268   1.965  23.225  14.161
 8543W        W80269   8.530   5.023  14.897
 8544W        W80270   6.483  41.501   4.234
 8545W        W80271  34.480  17.207   2.162
 8546W        W80272  39.398  13.601   1.913
 8547W        W80273  19.974  10.897   4.030
 8548W        W80274  23.145  12.317  10.650
 8549W        W80275  35.663  14.785   2.775
 8550W        W80276   0.925  35.071   4.071
 8551W        W80277  17.119  29.407  13.518
 8552W        W80278   1.008  26.837   3.331
 8553W        W80279   6.581   3.919   1.757
 8554W        W80280  13.371  33.141  11.159
 8555W        W80281  29.794  29.541   1.716
 8556W        W80282   9.384   3.331  14.044
 8557W        W80283  31.538  14.194  14.848
 8558W        W80284  28.117  28.459  12.811
 8559W        W80285   2.030  31.078  13.365
 8560W        W80286  37.431  41.734   0.541
 8561W        W80287  22.100  25.888   2.394
 8562W        W80288  12.120  37.644  10.553
 8563W        W80289   5.369  14.388  14.500
 8564W        W80290  23.452  22.658   3.708
 8565W        W80291  35.976  31.430   0.535
 8566W        W80292  20.270   8.763  12.878
 8567W        W80293  17.092  43.967  10.642
 8568W        W80294  21.175  37.475   1.032
 8569W        W80295  38.968   4.956   3.747
 8570W        W80296  22.292  27.562  11.073
 8571W        W80297  39.224  38.468   1.678
 8572W        W80298   3.855   0.584  10.358
 8573W        W80299  44.064   9.959  11.991
 8574W        W80300  30.512   4.964  14.092
 8575W        W80301   0.226  13.075  14.977
 8576W        W80302  28.480  15.602  11.671
 8577W        W80303  40.363   5.878  11.160
 8578W        W80304  42.403  34.892  12.233
 8579W        W80305  13.264   8.337   2.360
 8580W        W80306  22.264  17.170   3.238
 8581W        W80307  42.318  21.667   2.568
 8582W        W80308  10.400  17.549  14.867
 8583W        W80309  44.800   8.915  14.462
 8584W        W80310  40.073   7.841  13.841
 8585W        W80311  31.812  43.723   0.792
 8586W        W80312  21.125  35.991   1.781
 8587W        W80313  40.707  44.342  12.528
 8588W        W80314  25.548  18.068  14.744
 8589W        W80315  16.725   4.876  12.107
 8590W        W80316  35.065  37.383   3.135
 8591W        W80317  24.961  18.207  13.016
 8592W        W80318  17.581  22.051  10.620
 8593W        W80319   5.762  14.094  11.448
 8594W        W80320  11.601  22.154   3.162
 8595W        W80321   8.248  33.275   2.239
 8596W        W80322  41.956   1.401   1.251
 8597W        W80323   3.470  10.857   0.796
 8598W        W80324  34.734  30.475   4.492
 8599W        W80325  12.309   0.492  14.905
 8600W        W80326   5.750   3.194   2.816
 8601W        W80327   3.316  22.306  11.224
 8602W        W80328   6.853   5.890   1.960
 8603W        W80329  14.025   9.642  14.942
 8604W        W80330  22.805  14.897   4.975
 8605W        W80331  35.063  40.930   3.566
 8606W        W80332  20.703   4.782  10.391
 8607W        W80333  29.269   7.935  12.446
 8608W        W80334  19.228   2.850   4.197
 8609W        W80335  32.304  36.362  11.170
 8610W        W80336  10.414   4.382  13.949
 8611W        W80337  13.688   5.354  13.556
 8612W        W80338   7.921  21.202  13.503
 8613W        W80339  41.295  35.363  12.884
 8614W        W80340   4.691  10.125   4.189
 8615W        W80341  40.026   6.679   0.255
 8616W        W80342   0.210  36.021  14.813
 8617W        W80343  13.749  39.734   2.363
 8618W        W80344  36.169  17.512   4.108
 8619W        W80345  19.633  44.816  13.557
 8620W        W80346  31.490  18.724   1.695
 8621W        W80347  10.615  17.399   3.144
 8622W        W80348  43.274  28.849  13.946
 8623W        W80349  21.579  32.071   3.936
 8624W        W80350   8.119  36.510   0.865
 8625W        W80351  29.466  25.652   2.824
 8626W        W80352  11.411  27.782   4.666
 8627W        W80353  26.837   9.982  14.623
 8628W        W80354  21.516  22.185   3.606
 8629W        W80355  26.003   1.281  14.407
 8630W        W80356  17.614  44.441  13.358
 8631W        W80357   7.801  27.048   2.856
 8632W        W80358  12.829  27.385   4.748
 8633W        W80359  19.536  42.196   2.379
 8634W        W80360   8.543   3.351   4.931
 8635W        W80361   8.431  15.259   2.165
 8636W        W80362  11.443  15.885   2.387
 8637W        W80363  44.232   7.148   3.856
 8638W        W80364  12.811  13.152   0.810
 8639W        W80365  34.510  28.539  11.257
 8640W        W80366  22.363  33.974  11.655
 8641W        W80367  43.859  21.103   3.616
 8642W        W80368  42.719  11.940   0.327
 8643W        W80369  31.226  26.897  10.624
 8644W        W80370  22.591  19.717  14.524
 8645W        W80371  21.019  25.981  13.950
 8646W        W80372  23.698  12.364   4.110
 8647W        W80373  14.704  34.432   0.210
 8648W        W80374  19.269  10.822  10.694
 8649W        W80375  32.551  36.541   1.156
 8650W        W80376  37.580  29.950   4.179
 8651W        W80377   2.757   4.417   4.663
 8652W        W80378  41.814  28.472   4.141
 8653W        W80379  15.157  19.486  13.643
 8654W        W80380  16.262  21.067  12.404
 8655W        W80381  36.518  20.181  12.878
 8656W        W80382  44.207  32.046   3.217
 8657W        W80383  20.602  37.023   2.613
 8658W        W80384  16.613  17.739   1.360
 8659W        W80385  34.284  30.222  10.792
 8660W        W80386  14.936  30.193   0.406
 8661W        W80387  23.750  32.957  12.434
 8662W        W80388  23.811   8.191   1.730
 8663W        W80389  44.265  31.187   0.399
 8664W        W80390   4.358  19.125   0.726
 8665W        W80391  37.595  37.603  13.347
 8666W        W80392  34.332  39.884   4.556
 8667W        W80393  16.097   1.967  13.962
 8668W        W80394  38.513   3.330   4.827
 8669W        W80395  25.082  27.425  13.360
 8670W        W80396  13.232  25.555   1.470
 8671W        W80397   3.955  12.754  14.523
 8672W        W80398   3.771   6.191   1.959
 8673W        W80399  42.239  31.997  14.267
 8674W        W80400   5.786  31.826   3.395
 8675W        W80401  42.852  11.076   0.802
 8676W        W80402  36.122  13.629   4.294
 8677W        W80403  17.023  13.347   0.491
 8678W        W80404  16.143  27.043   0.718
 8679W        W80405  35.684  13.210  11.197
 8680W        W80406  14.028  41.964   4.543
 8681W        W80407  31.529   2.750   2.739
 8682W        W80408  43.009  34.500  10.716
 8683W        W80409  11.838  27.510  10.187
 8684W        W80410  37.971  23.084  14.657
 8685W        W80411  23.296  11.624  11.128
 8686W        W80412   2.324  36.638   4.187
 8687W        W80413  25.621  20.607  12.429
 8688W        W80414  21.514  36.096  12.014
 8689W        W80415  41.035  36.227  11.909
 8690W        W80416  37.357  24.414   0.914
 8691W        W80417   5.015  11.773   0.305
 8692W        W80418  26.145  44.376  14.588
 8693W        W80419  34.151  33.128  12.980
 8694W        W80420  15.481   6.859   3.285
 8695W        W80421  39.468  43.791  12.766
 8696W        W80422  44.496  29.553  12.078
 8697W        W80423  22.072   4.306  12.179
 8698W        W80424   1.040   1.820   0.455
 8699W        W80425  37.829  30.026   1.942
 8700W        W80426   9.784   5.783  11.580
 8701W        W80427  38.048  27.585   4.762
 8702W        W80428  32.952  31.866   1.841
 8703W        W80429  14.226   2.701   3.263
 8704W        W80430   9.902  32.471  12.854
 8705W        W80431  44.110  23.632   5.002
 8706W        W80432  30.133   7.033   1.364
 8707W        W80433  14.581  39.372   0.413
 8708W        W80434  28.947  21.999  13.722
 8709W        W80435  14.141  33.909  11.638
 8710W        W80436   7.810  30.824   0.028
 8711W        W80437  30.147  29.714   4.143
 8712W        W80438  38.557  30.438   4.966
 8713W        W80439  29.232   6.642   4.763
 8714W        W80440  38.313   4.021  13.817
 8715W        W80441  29.868  30.304  14.493
 8716W        W80442  16.302   7.674  14.950
 8717W        W80443  25.245  21.221   3.654
 8718W        W80444  19.186  16.668  14.053
 8719W        W80445  37.962  37.026   3.297
 8720W        W80446  17.800  40.010  14.245
 8721W        W80447  25.412  26.726   3.165
 8722W        W80448  27.185  24.603   4.315
 8723W        W80449  40.503   7.738  14.117
 8724W        W80450  25.512  29.219  11.561
 8725W        W80451  17.215  36.306  14.919
 8726W        W80452  17.842  22.232  11.056
 8727W        W80453  39.499  36.831   3.088
 8728W        W80454   5.046  32.837   4.180
 8729W        W80455  39.029  43.344  14.779
 8730W        W80456  37.333  39.884  13.316
 8731W        W80457  30.111  27.505   1.413
 8732W        W80458  25.230   9.277  10.581
 8733W        W80459  28.892  37.049   1.312
 8734W        W80460   3.475  11.686   4.582
 8735W        W80461   4.408  14.223   3.562
 8736W        W80462   4.853  18.784   4.374
 8737W        W80463   9.886  24.485  10.833
 8738W        W80464  23.732  21.226  12.470
 8739W        W80465  37.083  20.574   1.289
 8740W        W80466  35.074  43.962   1.367
 8741W        W80467  23.764  12.537   4.995
 8742W        W80468  42.791   4.304  10.637
 8743W        W80469  13.117  33.613  11.044
 8744W        W80470  13.175  43.731  14.917
 8745W        W80471   5.675   2.469   2.295
 8746W        W80472  42.062  12.568   2.252
 8747W        W80473  27.994   8.573  11.558
 8748W        W80474  22.584  33.477   3.617
 8749W        W80475  29.195   8.185  13.027
 8750W        W80476  44.013   7.070  12.613
 8751W        W80477  15.737  27.413  13.559
 8752W        W80478   2.112  29.778  10.062
 8753W        W80479  29.786   6.359   0.944
 8754W        W80480  31.590   0.196  13.390
 8755W        W80481  36.971  39.402  13.445
 8756W        W80482  18.343   4.189   0.508
 8757W        W80483   2.214  13.066  11.585
 8758W        W80484  20.747  28.460   2.863
 8759W        W80485  42.443  19.996   3.341
 8760W        W80486   1.146  44.219   1.451
 8761W        W80487  27.062  39.137   1.823
 8762W        W80488  13.712   6.839   4.236
 8763W        W80489  40.628   1.194  11.156
 8764W        W80490  30.549  44.201   0.477
 8765W        W80491  35.090   6.128   1.849
 8766W        W80492   9.878  35.432  13.018
 8767W        W80493  19.723  27.580  11.529
 8768W        W80494  19.982  21.714  13.392
 8769W        W80495  38.012  17.127   0.692
 8770W        W80496  23.018  14.208  14.450
 8771W        W80497   8.681  21.183   2.643
 8772W        W80498  10.302  37.048   3.214
 8773W        W80499  42.445  20.534   4.204
 8774W        W80500  32.322  23.545   4.675
 8775W        W80501  35.053  33.947  10.686
 8776W        W80502  20.749   0.916   2.754
 8777W        W80503  39.465  24.691  11.543
 8778W        W80504  11.608  34.912  10.182
 8779W        W80505  36.405  34.567   2.657
 8780W        W80506  33.073   0.430   3.945
 8781W        W80507  34.038  25.851  13.784
 8782W        W80508   5.499  41.325   3.628
 8783W        W80509  43.326  33.463   3.649
 8784W        W80510  28.634  13.705   3.811
 8785W        W80511   6.419  17.102  13.588
 8786W        W80512   5.302   3.995   3.970
 8787W        W80513  27.191   5.870   4.679
 8788W        W80514   3.211  16.639   4.138
 8789W        W80515  11.626  19.604   4.027
 8790W        W80516  28.051   5.673   3.652
 8791W        W80517  12.300   3.306   4.720
 8792W        W80518   7.825   4.815   1.684
 8793W        W80519  31.175  38.398   4.205
 8794W        W80520  27.146  40.838  14.273
 8795W        W80521   4.967  31.436  12.978
 8796W        W80522  29.556  12.336  14.392
 8797W        W80523  17.024  36.428  14.435
 8798W        W80524  31.028   3.144  10.562
 8799W        W80525  15.783  20.143   5.030
 8800W        W80526  19.209  35.088  11.627
 8801W        W80527  12.245  17.105   1.951
 8802W        W80528  39.340  26.949  14.246
 8803W        W80529  43.461  33.139  13.705
 8804W        W80530  22.448  21.448  13.557
 8805W        W80531  36.980  42.098  12.608
 8806W        W80532  22.478  27.535   3.432
 8807W        W80533  42.837  18.065   4.823
 8808W        W80534  18.326   2.070  10.228
 8809W        W80535  34.973  10.410  10.661
 8810W        W80536  24.474  28.962  10.690
 8811W        W80537  35.558  33.834   1.603
 8812W        W80538   6.909  13.375  12.096
 8813W        W80539  27.741  30.638   4.885
 8814W        W80540  38.097  35.150  12.663
 8815W        W80541  10.388   3.325   2.706
 8816W        W80542  17.107  39.116  12.757
 8817W        W80543  10.892   9.801   3.277
 8818W        W80544  10.780  28.170  12.949
 8819W        W80545  10.449  10.658   2.938
 8820W        W80546   4.710  42.023   4.656
 8821W        W80547   0.317  30.466  14.922
 8822W        W80548  38.605  22.142   4.382
 8823W        W80549   6.304  15.325   0.995
 8824W        W80550  24.059  22.030   1.295
 8825W        W80551  38.132  41.902   2.319
 8826W        W80552  12.762  22.543   3.260
 8827W        W80553  19.231  11.397  10.806
 8828W        W80554   4.886  31.106  12.411
 8829W        W80555  15.578  15.309  13.519
 8830W        W80556  40.967  10.835  14.549
 8831W        W80557  28.915  13.813  14.221
 8832W        W80558  12.419  26.758  12.022
 8833W        W80559  38.819   4.887   3.235
 8834W        W80560  22.704  21.461   2.423
 8835W        W80561  11.255  44.558  13.843
 8836W        W80562   2.503  28.512  14.961
 8837W        W80563  18.667  36.809  13.050
 8838W        W80564  44.123  21.212  12.987
 8839W        W80565   3.384  34.636  13.322
 8840W        W80566  42.566  26.632   0.981
 8841W        W80567  35.814  27.590   0.468
 8842W        W80568   9.859  38.848  12.036
 8843W        W80569   2.209   9.075   3.735
 8844W        W80570  13.076  22.565  12.582
 8845W        W80571  32.517   9.462  13.805
 8846W        W80572  40.259  33.384   3.171
 8847W        W80573  32.035  16.304   2.868
 8848W        W80574   2.855  42.389  14.314
 8849W        W80575  20.548  35.437   3.584
 8850W        W80576   3.897  20.784  10.680
 8851W        W80577  31.191  30.773  11.628
 8852W        W80578  34.630   0.448   4.648
 8853W        W80579   7.673   7.690   3.422
 8854W        W80580  36.003  32.970   1.154
 8855W        W80581  43.300   8.502  11.138
 8856W        W80582  25.454  32.389   1.743
 8857W        W80583  34.500  36.798   1.018
 8858W        W80584  37.038  27.947   4.148
 8859W        W80585  25.563  20.295   3.806
 8860W        W80586   7.133   7.030  13.340
 8861W        W80587  38.815  29.088   3.156
 8862W        W80588  26.404   3.855   3.583
 8863W        W80589  26.412   8.333  10.759
 8864W        W80590  38.509  38.032  11.448
 8865W        W80591  42.437  23.335  12.823
 8866W        W80592  23.049  17.830  13.430
 8867W        W80593   4.263  34.916   1.085
 8868W        W80594   0.754  16.181  12.110
 8869W        W80595   8.704  37.703   1.280
 8870W        W80596  16.087   3.621  11.054
 8871W        W80597   6.932  37.302  12.359
 8872W        W80598  31.486  24.923  13.374
 8873W        W80599  32.051   0.682  13.255
 8874W        W80600  19.537  24.040  10.481
 8875W        W80601  37.886   4.575   4.478
 8876W        W80602  13.285   3.260  14.834
 8877W        W80603  32.138  26.640  14.958
 8878W        W80604   4.253   2.550   1.195
 8879W        W80605  39.014  41.315   4.994
 8880W        W80606  26.416  19.097   1.202
 8881W        W80607  35.594  14.101   4.884
 8882W        W80608   9.447  22.930   2.372
 8883W        W80609  25.600  21.720   2.199
 8884W        W80610  10.526  41.495  14.766
 8885W        W80611  43.638  22.090   2.356
 8886W        W80612   1.291  44.838  14.338
 8887W        W80613  32.295   4.776  10.759
 8888W        W80614  15.447   8.978   4.965
 8889W        W80615  29.414  20.577  13.399
 8890W        W80616  20.557   4.922  11.972
 8891W        W80617  18.225   5.047   2.322
 8892W        W80618  41.037  22.330   2.670
 8893W        W80619  40.767  37.733   4.904
 8894W        W80620   4.258   5.296  14.169
 8895W        W80621   2.360  38.848   3.699
 8896W        W80622  29.912  20.557  12.539
 8897W        W80623  14.639  31.392  11.897
 8898W        W80624   2.757  22.326  14.312
 8899W        W80625  15.009  39.112  14.796
 8900W        W80626  44.787  23.078   2.922
 8901W        W80627  24.825  44.562  13.905
 8902W        W80628  19.057  20.465  11.492
 8903W        W80629  36.990  33.452  13.559
 8904W        W80630  44.229  24.112   5.126
 8905W        W80631  30.328  39.033   3.341
 8906W        W80632  44.326  42.951  11.563
 8907W        W80633   0.804  20.575  13.155
 8908W        W80634   5.676   6.997  10.359
 8909W        W80635  23.283  23.923   0.247
 8910W        W80636  31.269  17.592  10.439
 8911W        W80637  20.136  23.671   2.258
 8912W        W80638   9.670  33.171   1.355
 8913W        W80639  28.891  34.967  14.004
 8914W        W80640   6.052  17.009   5.141
 8915W        W80641  12.280  44.958   3.540
 8916W        W80642   0.991  11.554   0.280
 8917W        W80643  26.737  21.773  13.874
 8918W        W80644  16.121   8.760   3.292
 8919W        W80645  10.312  26.865   0.244
 8920W        W80646  36.173  39.209  14.023
 8921W        W80647  36.421  31.549   2.775
 8922W        W80648   1.777  13.730   1.699
 8923W        W80649   0.229  29.490  11.562
 8924W        W80650  40.723  34.089  14.954
 8925W        W80651  30.968  18.346  12.549
 8926W        W80652   6.010  34.162   3.803
 8927W        W80653  36.408   3.455   5.017
 8928W        W80654   5.822   3.090   5.026
 8929W        W80655  11.659  29.865  13.088
 8930W        W80656  20.060  41.958   0.736
 8931W        W80657  32.528  14.357  10.627
 8932W        W80658  31.873  30.664   0.716
 8933W        W80659  38.322   6.674  11.596
 8934W        W80660  14.090  20.972   1.195
 8935W        W80661  15.911  28.452  12.748
 8936W        W80662   6.713  23.294  14.535
 8937W        W80663  30.581   4.317   1.655
 8938W        W80664   4.652  29.431   4.122
 8939W        W80665  26.882  12.195  11.602
 8940W        W80666   3.016   6.209   0.904
 8941W        W80667  39.514  35.162   1.843
 8942W        W80668   9.945  32.243  11.565
 8943W        W80669  26.209  15.704   3.090
 8944W        W80670  29.373   8.162  11.978
 8945W        W80671  25.200  17.521   0.348
 8946W        W80672   7.779  29.934   2.171
 8947W        W80673  19.097  40.746  13.555
 8948W        W80674  26.662  11.314   0.775
 8949W        W80675   4.959  42.081  14.468
 8950W        W80676  42.403  23.695  14.680
 8951W        W80677  21.778  11.265   1.436
 8952W        W80678  14.450  31.624  14.469
 8953W        W80679  10.162  29.961  14.994
 8954W        W80680  15.294  20.669  13.337
 8955W        W80681  16.385  18.208   2.683
 8956W        W80682  33.970  10.685  14.554
 8957W        W80683  38.825  34.293   0.844
 8958W        W80684  38.338  17.710  13.480
 8959W        W80685   9.787  16.504  14.170
 8960W        W80686  14.277   3.190  12.763
 8961W        W80687   6.434  42.057  14.243
 8962W        W80688   4.972  18.749  11.406
 8963W        W80689   9.149  12.306  13.578
 8964W        W80690  20.760  31.596  13.806
 8965W        W80691  21.265  17.101   4.314
 8966W        W80692  32.138  16.113   4.574
 8967W        W80693  11.856  39.102   1.470
 8968W        W80694  34.270   2.212  14.734
 8969W        W80695  18.006  24.839  13.156
 8970W        W80696  26.173  44.930  12.796
 8971W        W80697  33.627  16.571  13.010
 8972W        W80698  12.141  25.273  12.998
 8973W        W80699   1.452   9.155  10.479
 8974W        W80700  18.786  25.187  11.599
 8975W        W80701  25.064  16.623   3.246
 8976W        W80702  42.261  32.791  11.959
 8977W        W80703  17.175  40.114   3.276
 8978W        W80704  36.481   5.846   1.773
 8979W        W80705   6.748  27.384  12.074
 8980W        W80706  37.397  43.819   2.692
 8981W        W80707  27.538  44.330   0.244
 8982W        W80708  19.606   4.292  14.057
 8983W        W80709  38.081  42.798   0.314
 8984W        W80710  29.191  19.300  14.031
 8985W        W80711  30.031  16.696   3.648
 8986W        W80712  14.653  22.183   0.278
 8987W        W80713  19.632  37.263  14.503
 8988W        W80714  19.679  35.408   4.522
 8989W        W80715   4.901  37.267  13.053
 8990W        W80716   0.581   1.817   2.762
 8991W        W80717  18.512   1.901  11.107
 8992W        W80718   7.558  14.216  14.862
 8993W        W80719  31.070  28.498   4.573
 8994W        W80720  28.390  31.926  11.611
 8995W        W80721  38.493  37.490  13.378
 8996W        W80722   8.106  29.405  11.492
 8997W        W80723  29.038  44.256  11.214
 8998W        W80724  44.288  18.418   5.175
 8999W        W80725  18.547  42.169   2.842
 9000W        W80726  17.306  10.290   3.204
 9001W        W80727  23.409  41.782  13.820
 9002W        W80728  31.064  17.739   1.130
 9003W        W80729  20.730   5.931   1.198
 9004W        W80730  36.747  14.586   1.821
 9005W        W80731  11.476   8.215  13.461
 9006W        W80732  26.066  43.765  11.573
 9007W        W80733  10.573  31.336  14.035
 9008W        W80734  30.088  44.542   0.434
 9009W        W80735  42.334  13.714  11.527
 9010W        W80736  37.962   8.498  12.585
 9011W        W80737  32.138  38.833   3.136
 9012W        W80738  25.135  12.366  14.301
 9013W        W80739  33.088  37.791  11.505
 9014W        W80740  13.967  39.020   9.962
 9015W        W80741   9.305  34.317   1.791
 9016W        W80742  27.196   2.265   3.612
 9017W        W80743  42.426  34.581   1.945
 9018W        W80744  43.308  21.308   2.846
 9019W        W80745  19.118  10.388   3.293
 9020W        W80746  31.001  25.462   3.720
 9021W        W80747  37.589  27.012   3.582
 9022W        W80748  26.615  23.935  13.314
 9023W        W80749  35.573  18.530  14.453
 9024W        W80750  34.016  25.678  14.294
 9025W        W80751  38.955  34.515  12.649
 9026W        W80752  30.335  42.900   2.275
 9027W        W80753   5.779  36.007  10.405
 9028W        W80754  23.099  24.988  11.172
 9029W        W80755  29.655  32.855  13.023
 9030W        W80756   7.398  32.335   3.159
 9031W        W80757  39.723  20.342  13.445
 9032W        W80758  13.068  20.350  14.342
 9033W        W80759  14.214  25.053  12.794
 9034W        W80760  15.598  36.833  12.390
 9035W        W80761  27.003  19.657   0.496
 9036W        W80762  14.826   8.330   4.176
 9037W        W80763  18.639  23.381  10.029
 9038W        W80764   1.278   1.049  13.902
 9039W        W80765  10.294  42.270   2.331
 9040W        W80766   2.686  27.585   4.178
 9041W        W80767   7.059  14.202   4.053
 9042W        W80768  25.461  35.390  12.182
 9043W        W80769  44.448   5.465   1.649
 9044W        W80770  39.758   6.906  14.814
 9045W        W80771  44.870  32.151   1.788
 9046W        W80772  40.404  39.743   3.227
 9047W        W80773  43.185  19.650   3.750
 9048W        W80774   6.875  14.890   4.613
 9049W        W80775   1.601  21.486   2.284
 9050W        W80776  20.787  23.050   3.332
 9051W        W80777   3.169  20.509  12.588
 9052W        W80778  15.438  32.127  10.012
 9053W        W80779  39.908  15.364   2.360
 9054W        W80780  25.679  37.000   1.079
 9055W        W80781  16.932  33.144  10.686
 9056W        W80782   2.741   3.195   0.001
 9057W        W80783  21.999  10.242   4.475
 9058W        W80784  12.734   0.966   3.229
 9059W        W80785  20.813  41.837   2.285
 9060W        W80786  33.885  34.816  12.302
 9061W        W80787  31.278  28.039  13.150
 9062W        W80788  26.545  36.883  13.540
 9063W        W80789   3.799   0.761   1.331
 9064W        W80790  25.241   6.491  11.766
 9065W        W80791  23.814   9.452  14.490
 9066W        W80792  31.362  17.844   4.649
 9067W        W80793  24.729  17.134   1.439
 9068W        W80794  12.618   5.779  11.717
 9069W        W80795  21.796   0.711   1.802
 9070W        W80796  16.836  35.571  13.317
 9071W        W80797  40.506  21.758   3.304
 9072W        W80798  10.687  27.709  12.618
 9073W        W80799  20.131   9.209  13.159
 9074W        W80800  18.053   1.792  13.565
 9075W        W80801  33.991  43.247   0.846
 9076W        W80802  17.693  29.950   2.799
 9077W        W80803   5.820  43.765   3.758
 9078W        W80804  32.191  32.365   4.646
 9079W        W80805  42.948   3.954   0.856
 9080W        W80806  39.027  28.786  13.010
 9081W        W80807  19.965  16.963  14.400
 9082W        W80808  26.139  40.622  13.555
 9083W        W80809   4.360   6.949   2.840
 9084W        W80810   6.036  28.900  11.607
 9085W        W80811  43.062  37.025  12.063
 9086W        W80812  37.393  16.812  11.227
 9087W        W80813  35.113  35.703  10.623
 9088W        W80814  27.602  39.437   0.466
 9089W        W80815  16.338  41.621   4.094
 9090W        W80816   6.757  22.765  12.889
 9091W        W80817   5.021  28.240  13.431
 9092W        W80818  20.813  31.425  10.349
 9093W        W80819  12.865  42.815  11.271
 9094W        W80820  23.066  27.593  10.664
 9095W        W80821  42.019  44.411  13.050
 9096W        W80822  41.432  43.286  11.567
 9097W        W80823  38.846  26.150   1.705
 9098W        W80824  35.176  24.136   3.765
 9099W        W80825  23.485  18.249  10.707
 9100W        W80826  25.442  28.075  11.559
 9101W        W80827  13.629  38.063   0.457
 9102W        W80828  24.079  12.838  12.682
 9103W        W80829  31.909  37.489  12.760
 9104W        W80830  18.299   0.466   0.232
 9105W        W80831   0.790  34.604  10.890
 9106W        W80832  29.988   4.253  13.211
 9107W        W80833  41.149   6.505   0.028
 9108W        W80834  41.297   2.980   1.853
 9109W        W80835   9.131  22.134  11.636
 9110W        W80836  19.730  39.816   3.642
 9111W        W80837  27.271  41.295   3.352
 9112W        W80838  13.971  12.374   2.293
 9113W        W80839   0.997  26.479   0.102
 9114W        W80840  42.060  18.240  11.209
 9115W        W80841  11.325   8.156   4.802
 9116W        W80842   7.809   7.612  14.445
 9117W        W80843   7.278  43.901   2.496
 9118W        W80844   9.327  13.926   4.250
 9119W        W80845   9.369  15.075   2.222
 9120W        W80846  27.989  15.475  12.448
 9121W        W80847  27.112   6.434  11.220
 9122W        W80848   4.399  22.970  12.100
 9123W        W80849  12.149  41.870  13.343
 9124W        W80850  13.889   6.357  11.257
 9125W        W80851  41.916  41.306  10.637
 9126W        W80852  33.163   2.243   1.402
 9127W        W80853   5.294  34.112   4.457
 9128W        W80854  43.046  22.071  13.813
 9129W        W80855  19.749  17.369   5.025
 9130W        W80856  13.688  32.392   0.347
 9131W        W80857  14.098  18.031   3.039
 9132W        W80858   6.539  40.327  12.635
 9133W        W80859  41.841  15.368   4.503
 9134W        W80860   8.910  37.874   1.730
 9135W        W80861   2.751  35.553   0.393
 9136W        W80862  13.593  29.438   4.827
 9137W        W80863   3.400   8.837  13.029
 9138W        W80864  37.142   6.346  14.335
 9139W        W80865  25.769   0.485  13.390
 9140W        W80866  38.211  24.532  13.391
 9141W        W80867   7.623   3.127  13.466
 9142W        W80868  18.000  12.286  11.857
 9143W        W80869   2.348  29.667  12.040
 9144W        W80870  40.479  40.940  13.953
 9145W        W80871  17.459  30.668  10.516
 9146W        W80872   6.948  39.064   4.214
 9147W        W80873  38.890   6.389  11.123
 9148W        W80874  37.301  19.768   1.897
 9149W        W80875  10.296  41.556  12.587
 9150W        W80876  40.838  39.025  14.361
 9151W        W80877  42.078  24.461   4.152
 9152W        W80878  31.600  40.519  14.962
 9153W        W80879  31.073  26.087   2.104
 9154W        W80880   3.434  17.291   1.383
 9155W        W80881  43.425   2.377   1.438
 9156W        W80882  23.690  18.710   1.891
 9157W        W80883  24.711  41.061   4.577
 9158W        W80884  11.712   6.339   2.971
 9159W        W80885  34.584  12.536  13.594
 9160W        W80886  41.282   4.011  11.980
 9161W        W80887  22.675  30.085   2.930
 9162W        W80888  13.241  33.981   1.778
 9163W        W80889  15.399  29.378   1.685
 9164W        W80890  16.522  27.161   2.637
 9165W        W80891  44.520  39.987   2.865
 9166W        W80892   3.490  17.401  14.158
 9167W        W80893  18.479  12.927  11.302
 9168W        W80894  37.538   4.761  11.694
 9169W        W80895  24.197  24.434   3.211
 9170W        W80896   3.816  41.539   0.694
 9171W        W80897  24.521   9.576  14.420
 9172W        W80898  22.554  33.375  11.622
 9173W        W80899  16.185  21.850   3.755
 9174W        W80900   4.912   5.659  12.999
 9175W        W80901   4.461   4.914   2.396
 9176W        W80902   7.340   4.302   9.620
 9177W        W80903  38.838  27.914  10.231
 9178W        W80904  28.076  29.581  14.070
 9179W        W80905  18.044  14.236  13.954
 9180W        W80906  32.580  36.117  13.351
 9181W        W80907  24.601   6.688   1.296
 9182W        W80908   0.235  16.216  12.217
 9183W        W80909  19.160   5.206   0.199
 9184W        W80910  15.731   0.881   3.590
 9185W        W80911  24.992  18.795   2.276
 9186W        W80912  24.921  13.791  10.953
 9187W        W80913  25.622  25.438   4.826
 9188W        W80914  37.005  30.222  12.181
 9189W        W80915  31.351  42.917   2.269
 9190W        W80916  41.999   2.375   1.552
 9191W        W80917  42.368  40.493  12.003
 9192W        W80918  20.009  22.019   1.186
 9193W        W80919  41.278  19.695   3.957
 9194W        W80920  20.711  30.052   3.295
 9195W        W80921   4.699  29.707   3.684
 9196W        W80922   9.688  26.362   0.367
 9197W        W80923  43.234   0.780  14.164
 9198W        W80924  11.092  12.254   4.888
 9199W        W80925  26.677   0.820  11.390
 9200W        W80926  40.935  19.292   0.693
 9201W        W80927  24.960  19.480   3.536
 9202W        W80928  39.502   7.725   1.472
 9203W        W80929  36.976  24.271  11.582
 9204W        W80930  17.316  32.542   2.884
 9205W        W80931  44.298  43.315   4.490
 9206W        W80932  36.658  41.826  14.019
 9207W        W80933  11.084  24.223  11.243
 9208W        W80934  41.717   4.301  13.649
 9209W        W80935  10.621  40.740  10.653
 9210W        W80936  14.896   4.581  14.203
 9211W        W80937  36.357  22.558  10.770
 9212W        W80938  44.419   1.168  14.479
 9213W        W80939  44.701  32.511   2.432
 9214W        W80940  32.493  34.632   2.128
 9215W        W80941  26.410  43.348  11.608
 9216W        W80942  30.412  25.017   3.241
 9217W        W80943   6.406  21.250  14.851
 9218W        W80944  39.836  39.998   4.521
 9219W        W80945  32.253   7.066  12.043
 9220W        W80946   4.125  39.838   4.559
 9221W        W80947  43.286   7.163   2.451
 9222W        W80948  17.039  36.852   4.064
 9223W        W80949  43.777  31.482   3.665
 9224W        W80950  41.824  42.168   0.329
 9225W        W80951  13.275  20.855  11.116
 9226W        W80952  19.636  24.484  13.919
 9227W        W80953   2.725   5.591   3.726
 9228W        W80954  26.157  33.570  12.598
 9229W        W80955   5.985   9.176  13.830
 9230W        W80956  39.090  23.258  13.243
 9231W        W80957  11.472  42.890  10.741
 9232W        W80958  17.215  10.748  14.860
 9233W        W80959  38.386  18.201  11.904
 9234W        W80960  43.507   3.960  13.476
 9235W        W80961  19.250   9.952  14.373
 9236W        W80962  29.737  26.570   1.326
 9237W        W80963  36.248   0.972   3.652
 9238W        W80964   6.872  22.407  14.502
 9239W        W80965  22.716  18.700  14.406
 9240W        W80966  42.005  38.793  12.434
 9241W        W80967  16.587   2.905   2.155
 9242W        W80968  24.035  18.446   0.238
 9243W        W80969  11.724  27.328   2.790
 9244W        W80970   8.848  13.220   4.572
 9245W        W80971  33.599   4.294  14.423
 9246W        W80972  35.887  31.809  13.450
 9247W        W80973   1.754   3.133  11.890
 9248W        W80974   3.283  20.447   3.163
 9249W        W80975  26.559  44.199   4.536
 9250W        W80976  24.699   5.663   2.312
 9251W        W80977  30.532  40.251  14.248
 9252W        W80978  18.143  10.770   0.373
 9253W        W80979  30.933   4.927  10.250
 9254W        W80980  38.571  32.105  12.128
 9255W        W80981  28.647   6.895  12.032
 9256W        W80982  28.609  13.195   3.156
 9257W        W80983   1.177   6.432  14.006
 9258W        W80984  16.119   7.941  13.117
 9259W        W80985   9.258  26.622   0.411
 9260W        W80986   6.963  32.141  11.081
 9261W        W80987  42.996  13.076  14.490
 9262W        W80988  38.991  36.443  10.406
 9263W        W80989   2.714   5.842   1.143
 9264W        W80990   2.418  21.811  12.925
 9265W        W80991   1.982  20.201  13.510
 9266W        W80992  43.712  40.734  14.930
 9267W        W80993  37.560  31.016  12.203
 9268W        W80994  16.880  39.962   3.661
 9269W        W80995  21.261   8.297   4.625
 9270W        W80996  23.445  20.070   0.760
 9271W        W80997  11.675  42.241   0.830
 9272W        W80998  43.441  28.064   3.767
 9273W        W80999  33.031   4.255  13.074
 9274W        W81000  44.281  17.564  11.577
 9275W        W81001  21.146  34.916  14.776
 9276W        W81002   9.887  39.399  12.045
 9277W        W81003  10.991  18.841  10.789
 9278W        W81004  44.979  18.286   2.233
 9279W        W81005  18.594  37.061  14.938
 9280W        W81006  10.815  23.968  13.301
 9281W        W81007   4.324   5.695  11.625
 9282W        W81008  41.870  15.144  11.143
 9283W        W81009  17.329  25.716   1.393
 9284W        W81010  23.055  28.258  14.551
 9285W        W81011  19.977  42.878  14.415
 9286W        W81012  35.632  11.077   2.916
 9287W        W81013   1.715  26.349   3.275
 9288W        W81014  26.425  39.795  13.411
 9289W        W81015  25.401  44.391   3.370
 9290W        W81016   1.882  21.825  14.374
 9291W        W81017  23.652  18.040   4.277
 9292W        W81018  25.306   9.193   1.378
 9293W        W81019   2.389  18.496  13.572
 9294W        W81020  43.792  10.592  12.753
 9295W        W81021  10.940   5.274  10.517
 9296W        W81022  41.258   7.448  11.005
 9297W        W81023  18.217  34.136  14.841
 9298W        W81024   1.020  36.444  14.862
 9299W        W81025   4.783  25.769  14.998
 9300W        W81026  19.030  41.894   0.740
 9301W        W81027  13.250  28.945  12.667
 9302W        W81028   1.805   6.664  12.767
 9303W        W81029  15.785  13.803   4.561
 9304W        W81030  29.913  24.204   5.047
 9305W        W81031  14.139  15.773   1.864
 9306W        W81032  26.930  18.718  12.114
 9307W        W81033  14.839  21.298  14.904
 9308W        W81034   4.005  37.528   1.381
 9309W        W81035  23.436   1.328   3.249
 9310W        W81036  38.355  22.715  14.042
 9311W        W81037  14.310  24.953  10.389
 9312W        W81038   3.499  43.917   4.313
 9313W        W81039  17.088  11.926  11.987
 9314W        W81040  29.687  13.686  14.920
 9315W        W81041  39.604  36.469   3.702
 9316W        W81042  40.717   5.869  13.429
 9317W        W81043  24.895  44.391  12.776
 9318W        W81044  33.881  26.027  11.678
 9319W        W81045  10.852   2.404   0.371
 9320W        W81046  11.271   9.538  12.573
 9321W        W81047  13.132  13.242   1.724
 9322W        W81048   9.345  25.776   4.740
 9323W        W81049  17.750  40.457   3.776
 9324W        W81050  19.652  39.067   0.363
 9325W        W81051  33.694  34.970   4.879
 9326W        W81052  38.599  17.576   0.577
 9327W        W81053  29.705   1.009  14.510
 9328W        W81054   4.499   6.063   5.057
 9329W        W81055   6.755  19.383   1.861
 9330W        W81056  11.423   3.926   3.190
 9331W        W81057  20.432  42.932  11.226
 9332W        W81058  31.540  37.679  10.533
 9333W        W81059  18.028   8.653  13.348
 9334W        W81060  13.293  26.711   1.835
 9335W        W81061  23.989  35.851  11.649
 9336W        W81062   1.282   1.030   3.178
 9337W        W81063  38.446  10.656   3.579
 9338W        W81064  41.737  40.934   1.791
 9339W        W81065  18.630  10.050   0.206
 9340W        W81066   6.832  23.069   2.213
 9341W        W81067  12.347  15.850  11.132
 9342W        W81068  40.312  28.952   3.270
 9343W        W81069  40.233  17.538  13.384
 9344W        W81070  30.902  39.448  13.029
 9345W        W81071  11.358  37.530  12.137
 9346W        W81072  23.979  23.613  10.670
 9347W        W81073  40.565  19.728  12.420
 9348W        W81074   9.810  16.574   1.937
 9349W        W81075   5.025  17.200  11.538
 9350W        W81076  17.085  17.571   2.725
 9351W        W81077  43.869  39.556   4.519
 9352W        W81078  10.428  10.890   1.931
 9353W        W81079  44.182  43.520  12.845
 9354W        W81080  19.038   8.696   1.397
 9355W        W81081   3.241   5.744   4.331
 9356W        W81082  41.780  44.719   0.291
 9357W        W81083  42.897  28.927  12.827
 9358W        W81084  13.420  27.687   2.069
 9359W        W81085  14.000  32.630  10.949
 9360W        W81086  22.404   8.100  12.949
 9361W        W81087  30.685   5.217   4.556
 9362W        W81088  26.317  41.824  13.058
 9363W        W81089  43.161  18.340   0.444
 9364W        W81090   6.057  38.819  14.127
 9365W        W81091  29.131  38.547  12.507
 9366W        W81092  14.801  12.049   4.192
 9367W        W81093  30.328  39.937  13.305
 9368W        W81094  15.963  21.629   0.503
 9369W        W81095  43.303  21.674   4.180
 9370W        W81096   8.467  35.958  11.492
 9371W        W81097  17.815  17.221  10.966
 9372W        W81098  26.097  32.097  13.594
 9373W        W81099  12.804  22.739   1.403
 9374W        W81100   1.885  24.216   1.451
 9375W        W81101  38.835  18.121   4.652
 9376W        W81102  13.760  41.760   2.287
 9377W        W81103  14.216  24.057  13.955
 9378W        W81104  25.637  10.941  13.018
 9379W        W81105  34.114  21.566  14.537
 9380W        W81106  39.489  36.820  12.067
 9381W        W81107   8.179  20.763  14.596
 9382W        W81108  15.510  39.571   0.787
 9383W        W81109  14.056  27.232   1.215
 9384W        W81110   6.858  41.261  11.721
 9385W        W81111  13.731  38.977   0.062
 9386W        W81112  11.234  26.770   3.217
 9387W        W81113  19.130  33.866   0.327
 9388W        W81114  26.679  37.833   1.366
 9389W        W81115   0.810   2.758  12.467
 9390W        W81116  17.064  31.078   3.867
 9391W        W81117  13.664  12.886   0.414
 9392W        W81118  18.744  31.913   1.800
 9393W        W81119  32.617   1.953  12.156
 9394W        W81120  44.442   0.522   0.533
 9395W        W81121  33.457  36.609   4.111
 9396W        W81122  15.108  24.211   2.854
 9397W        W81123  25.792  30.020  13.868
 9398W        W81124   2.948  18.117  11.920
 9399W        W81125  40.254   9.083   0.002
 9400W        W81126   9.795  24.551   4.585
 9401W        W81127  37.365  33.690  10.889
 9402W        W81128  13.658  21.154  11.908
 9403W        W81129  18.691  23.798   1.377
 9404W        W81130  17.595  16.135   4.051
 9405W        W81131  28.050  37.322   1.353
 9406W        W81132  32.044  22.515  14.377
 9407W        W81133   3.245  20.865   0.414
 9408W        W81134  44.452  27.928   2.917
 9409W        W81135  14.656  12.217  12.579
 9410W        W81136  42.306  14.879  11.401
 9411W        W81137   4.957  31.878  13.414
 9412W        W81138  35.370  26.115   4.166
 9413W        W81139  13.644  17.580  11.616
 9414W        W81140  10.219  20.636  12.793
 9415W        W81141  24.121   5.683  13.883
 9416W        W81142   4.282  14.676   4.314
 9417W        W81143  26.935  15.088   3.306
 9418W        W81144  19.074  20.579  14.835
 9419W        W81145  27.773  14.550   4.255
 9420W        W81146  10.160  42.321  11.918
 9421W        W81147  32.121   8.114   2.796
 9422W        W81148  26.695   5.690   3.260
 9423W        W81149  28.742  29.416   1.704
 9424W        W81150  35.959  30.496   4.453
 9425W        W81151  17.564   3.864   0.509
 9426W        W81152  19.689  36.098   0.406
 9427W        W81153  40.331  40.303   1.911
 9428W        W81154   2.340  23.529  12.402
 9429W        W81155   8.134   3.984  13.095
 9430W        W81156  17.945  28.523  14.377
 9431W        W81157  34.294  34.565   1.949
 9432W        W81158  24.102   2.294   0.788
 9433W        W81159   8.332  28.451  11.193
 9434W        W81160   3.975   1.856  10.780
 9435W        W81161  41.442   3.410  14.593
 9436W        W81162  37.445   1.050  11.093
 9437W        W81163   7.823  28.041  11.887
 9438W        W81164  15.571  18.070  12.467
 9439W        W81165  19.410   0.962  14.212
 9440W        W81166  13.365   7.405  14.808
 9441W        W81167  42.449  21.147  10.690
 9442W        W81168  28.386  29.160  11.940
 9443W        W81169  12.448  22.164  12.040
 9444W        W81170   7.808  16.816  11.603
 9445W        W81171  33.448   2.950  11.995
 9446W        W81172  40.846   3.982  11.195
 9447W        W81173  17.613   4.000   4.578
 9448W        W81174  34.365  12.947  14.493
 9449W        W81175  16.574  16.105  11.802
 9450W        W81176   1.629  18.671   4.272
 9451W        W81177  40.529  43.995  10.479
 9452W        W81178  16.948  22.995  14.276
 9453W        W81179   3.364  19.971   2.227
 9454W        W81180  35.016  35.613  13.338
 9455W        W81181  28.607  25.199  11.595
 9456W        W81182  20.085  21.545   1.913
 9457W        W81183  19.855  32.130   1.383
 9458W        W81184  37.734  36.807   1.234
 9459W        W81185   5.604  14.256   2.183
 9460W        W81186  39.906  11.693   2.816
 9461W        W81187  14.107   0.979  13.373
 9462W        W81188  44.908  31.184   1.786
 9463W        W81189  25.436  18.205   2.789
 9464W        W81190   8.418  27.700   2.861
 9465W        W81191   1.427  18.781  14.893
 9466W        W81192  25.725  25.509  12.468
 9467W        W81193  12.019  27.574  12.538
 9468W        W81194  25.701  44.412  11.990
 9469W        W81195  25.283  29.179  10.721
 9470W        W81196   8.123   1.363   1.792
 9471W        W81197  11.217  22.752   0.455
 9472W        W81198  44.284  39.252   3.793
 9473W        W81199  34.890   7.977   3.269
 9474W        W81200  11.680  42.956  12.064
 9475W        W81201  21.706  41.891   3.869
 9476W        W81202  29.544  36.598  11.611
 9477W        W81203  25.533  24.636  10.558
 9478W        W81204   6.494   2.411  14.104
 9479W        W81205  15.606   1.964   2.785
 9480W        W81206  40.567   5.358  13.543
 9481W        W81207  32.342   0.696  11.657
 9482W        W81208  35.324  22.534  10.652
 9483W        W81209  39.490  26.141  13.077
 9484W        W81210  35.202   4.743  13.792
 9485W        W81211  23.599  39.567   0.919
 9486W        W81212  31.717  13.385  13.064
 9487W        W81213   7.886   5.894   3.658
 9488W        W81214   9.116  22.633   0.542
 9489W        W81215  25.878   7.223   2.756
 9490W        W81216  25.670  13.724  12.573
 9491W        W81217  20.506  43.764   3.440
 9492W        W81218  19.293  34.972  13.418
 9493W        W81219   1.379  22.890   2.232
 9494W        W81220   7.880  29.566   4.709
 9495W        W81221  18.812  23.360   4.723
 9496W        W81222   8.659  14.092  13.895
 9497W        W81223  18.001   8.349  14.953
 9498W        W81224  23.128   5.188  14.277
 9499W        W81225  23.948  34.121   1.874
 9500W        W81226  25.582  30.769   2.681
 9501W        W81227  36.160  32.082   1.950
 9502W        W81228  30.391  29.980  13.972
 9503W        W81229  20.240  35.953  13.451
 9504W        W81230  11.533  21.739   2.335
 9505W        W81231   2.696   2.255   4.291
 9506W        W81232  12.921  24.793   3.671
 9507W        W81233  37.247  27.111   4.496
 9508W        W81234  12.626  27.056  14.871
 9509W        W81235  22.269  19.716  13.038
 9510W        W81236  44.861   4.774   4.711
 9511W        W81237  37.937   9.774   4.630
 9512W        W81238  11.902  42.841   4.592
 9513W        W81239  43.961  27.421   4.079
 9514W        W81240  37.053  13.153   0.358
 9515W        W81241   7.411  30.579   1.259
 9516W        W81242  19.344  39.457   2.452
 9517W        W81243  36.255   9.731   3.303
 9518W        W81244   6.212  18.183  11.050
 9519W        W81245  11.159  18.193   1.002
 9520W        W81246  32.506  27.500   3.181
 9521W        W81247  23.138   9.643   4.495
 9522W        W81248  37.542  41.247  11.491
 9523W        W81249  41.962  32.199  11.006
 9524W        W81250   7.163  28.740   3.348
 9525W        W81251  17.751  42.938  11.138
 9526W        W81252  25.397  31.778   0.815
 9527W        W81253   3.667  42.238   1.998
 9528W        W81254   1.360  26.111  12.821
 9529W        W81255  22.281  14.723   1.126
 9530W        W81256  21.543   2.085   2.303
 9531W        W81257   1.837   5.310  14.912
 9532W        W81258  36.376   9.116  14.995
 9533W        W81259  12.121  36.355  11.461
 9534W        W81260   8.346   2.254   2.383
 9535W        W81261  33.852  21.333   1.845
 9536W        W81262   0.790   6.196  14.291
 9537W        W81263  31.896  11.197   0.334
 9538W        W81264  26.073  22.527  14.907
 9539W        W81265  29.814  39.826  14.638
 9540W        W81266  15.577  30.894   4.133
 9541W        W81267  29.518  38.004   3.760
 9542W        W81268   7.444  14.949   9.654
 9543W        W81269  29.055  42.359   4.557
 9544W        W81270  24.961  15.798   2.806
 9545W        W81271  31.248  37.748   2.847
 9546W        W81272  42.072  43.744   3.607
 9547W        W81273  38.162  37.792  13.084
 9548W        W81274  24.225  18.065  13.975
 9549W        W81275   4.246  29.386   2.275
 9550W        W81276  18.767  29.929   0.839
 9551W        W81277  33.391  22.224   0.464
 9552W        W81278   3.137  21.819  11.179
 9553W        W81279  11.347  32.682   0.351
 9554W        W81280  31.720  31.574   4.069
 9555W        W81281  18.769  31.914   0.050
 9556W        W81282  35.151   7.731  14.414
 9557W        W81283  12.095  26.041  11.501
 9558W        W81284   5.558   4.185   0.985
 9559W        W81285  37.612  23.215  14.279
 9560W        W81286  18.243  21.578   1.103
 9561W        W81287  39.538  27.393   1.243
 9562W        W81288   6.816  32.179  12.919
 9563W        W81289  35.455  44.474   1.080
 9564W        W81290   7.295   6.848  14.482
 9565W        W81291  27.522  28.984  14.860
 9566W        W81292   5.788  33.090  12.047
 9567W        W81293  39.351  39.161  12.140
 9568W        W81294  39.233  34.938  12.771
 9569W        W81295  21.370  33.861   0.989
 9570W        W81296  16.062  36.898   9.809
 9571W        W81297  40.817   3.265  13.517
 9572W        W81298  44.373  15.327  12.168
 9573W        W81299  18.098  21.691  12.823
 9574W        W81300   0.297  22.772   1.943
 9575W        W81301  19.133  35.854  11.104
 9576W        W81302  24.608  29.915  10.395
 9577W        W81303  16.256  21.598   4.195
 9578W        W81304   7.361   6.987  12.466
 9579W        W81305  17.128  43.816   1.821
 9580W        W81306  25.435   2.271   1.396
 9581W        W81307  33.139   6.380  11.939
 9582W        W81308  18.391   4.950   1.350
 9583W        W81309  34.920   9.739   2.646
 9584W        W81310   5.392   5.665   3.280
 9585W        W81311  37.759   9.186  14.519
 9586W        W81312  31.053  26.650  13.821
 9587W        W81313  33.905  15.800   4.473
 9588W        W81314  19.042  37.452   3.791
 9589W        W81315  24.160  43.395  13.615
 9590W        W81316  40.759  20.310   2.721
 9591W        W81317  18.064  33.560  11.911
 9592W        W81318  10.736  19.294  10.610
 9593W        W81319  28.615  21.041   3.756
 9594W        W81320  25.921   4.431  12.103
 9595W        W81321  21.184  43.101  13.528
 9596W        W81322  26.103  37.114   3.234
 9597W        W81323  16.925   0.080  11.123
 9598W        W81324  11.444   4.324  11.024
 9599W        W81325   6.247   0.421   0.298
 9600W        W81326  26.748  39.104  11.325
 9601W        W81327  12.997   8.023  14.193
 9602W        W81328  12.581  38.347  12.459
 9603W        W81329  30.688  40.777  12.208
 9604W        W81330  25.534  26.380   2.781
 9605W        W81331  11.097  38.540   3.749
 9606W        W81332  39.351  39.314   0.800
 9607W        W81333  37.384  20.295   1.785
 9608W        W81334  40.467  42.902   9.958
 9609W        W81335  44.948  19.692   3.378
 9610W        W81336  23.673  20.681  12.160
 9611W        W81337  24.269  16.295  11.207
 9612W        W81338  17.765   4.546  11.980
 9613W        W81339  35.997   4.721   0.825
 9614W        W81340   6.443  32.115  13.326
 9615W        W81341   8.425  33.914   3.679
 9616W        W81342   9.616  36.914   3.716
 9617W        W81343   9.659  24.428   1.338
 9618W        W81344   9.469   5.335   3.273
 9619W        W81345   5.156   4.826  12.790
 9620W        W81346  18.697  37.341  13.040
 9621W        W81347  26.255  19.344  14.318
 9622W        W81348  25.276   5.766   0.442
 9623W        W81349  33.442   3.748   3.761
 9624W        W81350   2.033  11.255   3.131
 9625W        W81351   6.296  22.890   2.218
 9626W        W81352  23.573  30.411  11.485
 9627W        W81353  11.177  39.903  12.963
 9628W        W81354  27.149  10.701   3.644
 9629W        W81355  37.787  15.453   4.794
 9630W        W81356   3.884   8.703  13.141
 9631W        W81357  18.148  13.018  14.913
 9632W        W81358  33.566  15.592  11.212
 9633W        W81359  16.682  43.749   2.119
 9634W        W81360  16.109  32.060   1.649
 9635W        W81361  22.421   9.759  10.736
 9636W        W81362  19.225  19.763  12.514
 9637W        W81363  23.627  28.125   2.078
 9638W        W81364  38.152  31.108   3.953
 9639W        W81365  20.474  17.789  11.044
 9640W        W81366   9.232   7.421  12.915
 9641W        W81367  41.441  30.335   0.694
 9642W        W81368  21.253  16.462  12.739
 9643W        W81369  29.231  15.287   1.747
 9644W        W81370  44.365   9.213  12.901
 9645W        W81371  41.593  30.217   5.040
 9646W        W81372   8.410  32.489  10.548
 9647W        W81373   5.214  16.564  12.039
 9648W        W81374  16.423  19.188  11.618
 9649W        W81375  37.286  18.005  12.093
 9650W        W81376  30.507   1.035  11.991
 9651W        W81377  12.677  33.870  13.268
 9652W        W81378  33.816   4.452   3.298
 9653W        W81379  14.703  39.324   1.383
 9654W        W81380  25.447   4.295  12.922
 9655W        W81381  25.925  43.174  14.554
 9656W        W81382  36.463  28.524   3.696
 9657W        W81383  31.423  29.633   2.292
 9658W        W81384   9.676  19.569   4.548
 9659W        W81385  20.626  18.449   3.143
 9660W        W81386  43.209   2.893   4.539
 9661W        W81387   4.356  33.478   0.896
 9662W        W81388  27.144  21.281   2.877
 9663W        W81389   0.332  13.327   4.956
 9664W        W81390   7.670  37.413   3.110
 9665W        W81391   5.868   6.684  13.845
 9666W        W81392  39.400  20.562  13.798
 9667W        W81393  15.909  14.562  13.872
 9668W        W81394  18.730  23.272   1.341
 9669W        W81395   5.146   9.464   4.472
 9670W        W81396  39.383   1.886   4.055
 9671W        W81397  22.273  22.306   3.153
 9672W        W81398  12.087   1.670   4.929
 9673W        W81399  28.336   1.763   3.117
 9674W        W81400  32.972   1.367  11.485
 9675W        W81401   6.244  10.814   0.544
 9676W        W81402  10.900  42.538   1.369
 9677W        W81403  11.394  34.810   4.632
 9678W        W81404  23.114  32.665  14.933
 9679W        W81405  20.341   3.721   2.802
 9680W        W81406  17.308  37.303   5.152
 9681W        W81407  17.104  23.967  13.278
 9682W        W81408   6.455  43.399   3.975
 9683W        W81409  44.904  10.236  14.404
 9684W        W81410  37.607  18.497  10.986
 9685W        W81411  19.765  41.295   1.407
 9686W        W81412  36.655   7.587  10.424
 9687W        W81413  39.830  40.939   2.376
 9688W        W81414  24.481   3.225  10.296
 9689W        W81415  12.383  36.333  14.815
 9690W        W81416  29.097   8.745   2.762
 9691W        W81417  28.522  43.662   4.929
 9692W        W81418  44.406  17.988  11.299
 9693W        W81419  33.629  41.949  12.605
 9694W        W81420  21.051   7.226   1.828
 9695W        W81421  42.896  20.062   3.593
 9696W        W81422  39.227  14.118   0.344
 9697W        W81423  42.003  31.611  12.600
 9698W        W81424   7.406  41.028   4.074
 9699W        W81425   6.932  10.253  14.511
 9700W        W81426  27.634  19.761   1.351
 9701W        W81427  11.799  23.797   2.630
 9702W        W81428  24.578  39.348  10.715
 9703W        W81429   9.425  22.055  13.562
 9704W        W81430  30.673  22.355   3.715
 9705W        W81431   5.859  36.025  14.264
 9706W        W81432  33.900  24.495   1.223
 9707W        W81433  11.205   4.752  14.597
 9708W        W81434  31.970  14.300  11.174
 9709W        W81435  34.318  29.026  13.918
 9710W        W81436   1.398   3.887   0.508
 9711W        W81437  34.427  36.168   4.395
 9712W        W81438  23.545   0.309   4.272
 9713W        W81439  37.150  31.388  14.848
 9714W        W81440  37.487   3.336   3.506
 9715W        W81441   1.240  10.797   3.186
 9716W        W81442   1.575   4.298  13.091
 9717W        W81443  39.369  11.650   4.840
 9718W        W81444  36.607  32.479   3.481
 9719W        W81445   7.904  31.191   3.757
 9720W        W81446  21.332  35.506   1.881
 9721W        W81447  28.928   9.757  13.853
 9722W        W81448  21.741  43.746   0.039
 9723W        W81449  19.133  36.808  12.822
 9724W        W81450  18.819   0.499  11.992
 9725W        W81451  17.848  15.485  12.938
 9726W        W81452  31.413  13.797   3.266
 9727W        W81453  10.736  42.929   4.158
 9728W        W81454  39.565  22.202  12.397
 9729W        W81455  32.741   7.510   2.857
 9730W        W81456  42.463   1.714  14.977
 9731W        W81457  11.822  43.224   0.837
 9732W        W81458   4.127  14.262  14.898
 9733W        W81459  11.696  44.414  14.087
 9734W        W81460  34.448   8.399  12.014
 9735W        W81461  11.080   3.343  10.693
 9736W        W81462  26.057  18.108   0.776
 9737W        W81463   0.682  41.077   0.889
 9738W        W81464  13.194  29.768   5.014
 9739W        W81465  30.694  18.857   3.337
 9740W        W81466  30.629  24.221  10.179
 9741W        W81467  17.469  35.560  11.387
 9742W        W81468  37.443  20.718   2.132
 9743W        W81469   0.244   7.324  12.887
 9744W        W81470   6.926  31.670   1.825
 9745W        W81471  11.486  21.804   1.495
 9746W        W81472  42.844  27.649   4.807
 9747W        W81473  18.712  10.489   1.692
 9748W        W81474  33.553   5.977   4.050
 9749W        W81475   9.184  43.255   0.639
 9750W        W81476  26.509  10.869  12.289
 9751W        W81477   6.709  15.108   3.724
 9752W        W81478  20.018  44.470  13.542
 9753W        W81479  29.104  24.538  10.955
 9754W        W81480  21.265  23.965   3.686
 9755W        W81481   9.298   5.700  11.451
 9756W        W81482  27.772  43.359   4.146
 9757W        W81483  18.122   0.973   0.308
 9758W        W81484  19.074  42.415   3.317
 9759W        W81485   5.916  27.937  11.506
 9760W        W81486  44.763  24.503  11.220
 9761W        W81487  35.097   8.886  12.309
 9762W        W81488  10.671  23.562  14.058
 9763W        W81489  35.064  44.624  11.603
 9764W        W81490  16.289  15.723  11.592
 9765W        W81491  29.171  15.731   2.337
 9766W        W81492  21.566  13.516   0.059
 9767W        W81493  41.442   8.700   3.499
 9768W        W81494  29.113   9.113   0.319
 9769W        W81495  41.971  24.182  12.863
 9770W        W81496  39.829   2.351   0.272
 9771W        W81497   9.910  35.158  11.575
 9772W        W81498  27.502  25.285   0.813
 9773W        W81499  37.918  32.257  12.494
 9774W        W81500   3.756  18.666  14.819
 9775W        W81501   0.999  39.619   4.578
 9776W        W81502  43.303   2.181   2.298
 9777W        W81503   5.897   2.714   0.449
 9778W        W81504  44.322   7.590  13.544
 9779W        W81505  37.385  19.109   2.740
 9780W        W81506  19.633  32.126   0.299
 9781W        W81507  15.712  18.324  11.047
 9782W        W81508   3.000  15.734   4.302
 9783W        W81509  41.487  29.600   1.857
 9784W        W81510  16.739   9.752  10.619
 9785W        W81511  38.925  40.479  10.992
 9786W        W81512  23.751  25.712   5.356
 9787W        W81513  12.730  41.285  13.850
 9788W        W81514  14.378  14.568  14.772
 9789W        W81515   9.996  22.609  10.660
 9790W        W81516  36.117   2.869  12.960
 9791W        W81517  35.389  40.094   1.123
 9792W        W81518  29.543  44.244   4.159
 9793W        W81519  31.040  39.044  14.741
 9794W        W81520  16.712  41.969   4.264
 9795W        W81521  40.610  18.768   4.441
 9796W        W81522  16.130  23.057   0.385
 9797W        W81523   3.168  32.979  12.914
 9798W        W81524  31.468  14.840  13.027
 9799W        W81525  19.807  28.563  10.744
 9800W        W81526  27.940  18.572  14.411
 9801W        W81527   8.911  29.413  10.733
 9802W        W81528  25.577  16.942  10.284
 9803W        W81529  43.089  23.679   1.217
 9804W        W81530  36.077  34.200   4.362
 9805W        W81531  18.548   5.452   3.229
 9806W        W81532  24.176   1.529  11.523
 9807W        W81533  19.658  36.814   3.740
 9808W        W81534  25.490  20.231  10.713
 9809W        W81535  41.058   4.326  12.938
 9810W        W81536  20.278  16.582  11.606
 9811W        W81537   2.999  35.949  11.994
 9812W        W81538  41.668   8.044  11.532
 9813W        W81539  10.645  19.113   1.953
 9814W        W81540  34.979  27.224   0.995
 9815W        W81541   0.984  40.849  12.584
 9816W        W81542  43.063  44.471  11.570
 9817W        W81543  39.093   3.069   4.171
 9818W        W81544   8.287   7.102   1.225
 9819W        W81545  41.600  30.886  10.665
 9820W        W81546  22.739   4.887   3.742
 9821W        W81547  36.095  29.544  12.496
 9822W        W81548  34.627   8.171   3.678
 9823W        W81549  30.087  32.062  11.500
 9824W        W81550  18.974   1.308   3.780
 9825W        W81551   8.600  23.594   1.377
 9826W        W81552  37.066  41.580  12.827
 9827W        W81553  13.625  10.695   3.123
 9828W        W81554  22.751  16.288   3.397
 9829W        W81555  25.051  14.821   2.723
 9830W        W81556  21.216  31.162  10.595
 9831W        W81557   2.990  33.410  14.015
 9832W        W81558  28.594  44.488   4.370
 9833W        W81559  27.991   1.940   2.691
 9834W        W81560  39.295  12.510  11.027
 9835W        W81561  30.131  37.278  11.930
 9836W        W81562  34.896   1.426  11.840
 9837W        W81563   5.898  44.404  14.273
 9838W        W81564  33.438  30.250   4.646
 9839W        W81565   8.610  25.250  11.593
 9840W        W81566   6.674  36.431  13.782
 9841W        W81567  29.488  14.585  13.919
 9842W        W81568  39.392  13.719   1.401
 9843W        W81569   6.331   4.968   2.556
 9844W        W81570  33.549  13.662  12.870
 9845W        W81571  24.525  34.826   2.108
 9846W        W81572  25.991   1.182   1.137
 9847W        W81573   5.986  23.485   3.261
 9848W        W81574  34.461  12.855   0.465
 9849W        W81575  35.936  13.110   0.342
 9850W        W81576  23.255   2.367   4.508
 9851W        W81577  22.727  16.189   2.905
 9852W        W81578  22.925  36.163   1.251
 9853W        W81579  33.370  35.622   2.196
 9854W        W81580  14.228  41.068   2.185
 9855W        W81581   1.210  44.957  11.055
 9856W        W81582  26.671   2.516   1.869
 9857W        W81583  23.716   2.857   0.005
 9858W        W81584  10.773  12.676  12.532
 9859W        W81585  25.604  34.970  11.670
 9860W        W81586   3.959  17.660  14.227
 9861W        W81587  44.780  42.462   1.543
 9862W        W81588  14.396  16.542  13.746
 9863W        W81589  11.204  12.176   2.194
 9864W        W81590  13.800  23.072  10.424
 9865W        W81591   2.821  30.957  14.478
 9866W        W81592  42.273  36.604   0.654
 9867W        W81593  36.502   8.141  13.320
 9868W        W81594  30.949  21.825  12.000
 9869W        W81595  19.488  18.729  11.102
 9870W        W81596  34.406  17.574  14.811
 9871W        W81597  41.215  36.575   0.014
 9872W        W81598  42.027  18.629   1.804
 9873W        W81599  25.938  30.832  11.121
 9874W        W81600  43.047  43.660   3.145
 9875W        W81601   4.995  26.021  11.630
 9876W        W81602  25.613  25.006   4.547
 9877W        W81603  17.787   6.162  10.433
 9878W        W81604  27.877  19.744   1.833
 9879W        W81605  20.127  20.291  12.551
 9880W        W81606   1.900  37.109   2.838
 9881W        W81607   9.664   6.116  11.968
 9882W        W81608   4.221  25.076  12.870
 9883W        W81609   5.188  38.514  13.920
 9884W        W81610   5.325  31.031   0.035
 9885W        W81611  35.728   6.685  13.143
 9886W        W81612  32.429   0.602  12.587
 9887W        W81613  17.349  24.470   4.122
 9888W        W81614   3.311   0.773   1.564
 9889W        W81615   7.854  16.646   4.579
 9890W        W81616  43.770   2.242   0.665
 9891W        W81617  30.588   2.879   2.176
 9892W        W81618  19.663  16.242   3.610
 9893W        W81619   1.716  34.518  11.083
 9894W        W81620  18.853  14.747  11.231
 9895W        W81621   3.821  19.134   4.696
 9896W        W81622  28.031  21.506   2.182
 9897W        W81623  10.931  20.658  10.572
 9898W        W81624  15.707   1.830  10.471
 9899W        W81625  35.483   9.629  12.492
 9900W        W81626  43.461  26.951   1.995
 9901W        W81627  11.718  16.520  11.978
 9902W        W81628  31.368  28.695  10.707
 9903W        W81629   5.645  32.040   0.000
 9904W        W81630   4.157   7.615   1.729
 9905W        W81631  22.761  11.212   2.657
 9906W        W81632  20.281  36.810   3.296
 9907W        W81633  15.757  32.666   3.782
 9908W        W81634   8.389  24.077   1.435
 9909W        W81635  13.375  12.314  12.919
 9910W        W81636  37.760  42.012   4.638
 9911W        W81637  35.375  17.685  12.916
 9912W        W81638  33.031   2.654   2.216
 9913W        W81639  44.800   3.322   4.185
 9914W        W81640  24.717   9.505   2.648
 9915W        W81641   7.869   5.729   4.550
 9916W        W81642   5.204  25.540  11.490
 9917W        W81643  14.829   2.409  12.509
 9918W        W81644  10.157  16.746  14.447
 9919W        W81645  29.457  40.118   3.216
 9920W        W81646  36.474  24.250   0.932
 9921W        W81647  25.972  41.300  14.802
 9922W        W81648  24.251   7.408  13.787
 9923W        W81649  24.689  31.868   3.026
 9924W        W81650  22.279  29.895  12.649
 9925W        W81651  28.139  38.829  13.449
 9926W        W81652  34.957  35.606   4.952
 9927W        W81653  18.712  40.785   0.827
 9928W        W81654   4.178  20.804  13.326
 9929W        W81655   6.963  35.977  11.471
 9930W        W81656  22.898  41.971  11.114
 9931W        W81657  11.222   5.630  11.014
 9932W        W81658   4.590  21.703   1.779
 9933W        W81659  44.715  14.346   4.476
 9934W        W81660  34.650  44.105   0.439
 9935W        W81661  11.046  41.413  14.801
 9936W        W81662  17.489  42.968  10.682
 9937W        W81663  33.966  25.380   1.504
 9938W        W81664  44.021  13.808   2.253
 9939W        W81665  28.408  19.759   1.840
 9940W        W81666  10.928  13.690   4.769
 9941W        W81667  33.481  20.982   1.699
 9942W        W81668   0.262  24.207  14.752
 9943W        W81669  12.816   4.187   3.803
 9944W        W81670  12.836   9.929  11.430
 9945W        W81671  22.323  24.400   4.285
 9946W        W81672   8.461  40.931   0.357
 9947W        W81673   1.583  26.588   2.486
 9948W        W81674  42.773  37.022  10.771
 9949W        W81675  17.937  30.846  10.615
 9950W        W81676  32.297  19.566   4.478
 9951W        W81677  41.004   0.535  12.871
 9952W        W81678  10.144  29.468  12.276
 9953W        W81679  11.423  40.710  10.957
 9954W        W81680  24.248  22.418   0.031
 9955W        W81681  27.328  21.255   3.369
 9956W        W81682  26.978   0.932   1.384
 9957W        W81683  13.786  42.065  12.530
 9958W        W81684  43.862   6.866   3.115
 9959W        W81685  30.569  20.310   3.209
 9960W        W81686  24.921  25.741   2.764
 9961W        W81687   8.447   6.845   5.069
 9962W        W81688   5.896  15.651  14.251
 9963W        W81689  27.446  27.027   1.287
 9964W        W81690   5.636  28.632   1.789
 9965W        W81691  23.695  13.279  14.862
 9966W        W81692  43.841  26.710  13.951
 9967W        W81693  41.386   5.076   2.457
 9968W        W81694   4.984  18.289   0.958
 9969W        W81695  15.724  42.317  13.223
 9970W        W81696  23.142  36.573  14.509
 9971W        W81697  22.115  43.009   0.438
 9972W        W81698  27.725  27.822   2.395
 9973W        W81699  12.931  16.126  14.378
 9974W        W81700  40.610  30.430   0.925
 9975W        W81701  13.000  12.546   2.221
 9976W        W81702  41.640  10.171   1.841
 9977W        W81703  24.097  41.860  10.546
 9978W        W81704  29.649  18.392   4.151
 9979W        W81705  10.324   7.825  11.501
 9980W        W81706  15.602  19.366   0.780
 9981W        W81707  14.883   3.513  11.539
 9982W        W81708  37.465   2.849   1.312
 9983W        W81709   9.389  40.907   0.341
 9984W        W81710   0.058   8.709  11.743
 9985W        W81711   6.874  37.246   4.205
 9986W        W81712  38.592  13.350  11.459
 9987W        W81713  32.614   2.282  13.483
 9988W        W81714  10.351   1.410   0.967
 9989W        W81715  11.082   9.214  12.937
 9990W        W81716  31.477  42.149   5.775
 9991W        W81717   0.522  19.239  12.447
 9992W        W81718   4.848  36.347  12.709
 9993W        W81719  15.802  44.966   3.692
 9994W        W81720   3.991  29.057   2.682
 9995W        W81721  15.173   3.211   3.236
 9996W        W81722  21.080  18.024   2.856
 9997W        W81723   5.921   8.442   1.309
 9998W        W81724  37.953  32.527  11.587
 9999W        W81725  15.577   3.357  12.434
10000W        W81726  10.687  35.550  11.455
10001W        W81727   7.689  21.665  12.009
10002W        W81728  34.338  31.139   3.273
10003W        W81729  22.282   7.563  14.008
10004W        W81730   4.172  31.448   1.792
10005W        W81731   8.826  19.265   2.680
10006W        W81732  34.714  16.072   2.320
10007W        W81733  13.309  17.567   4.179
10008W        W81734  34.437  31.678  12.422
10009W        W81735  16.594  29.944  11.169
10010W        W81736  37.486  42.206   5.154
10011W        W81737  40.040  12.764   0.799
10012W        W81738  12.201  34.120  10.358
10013W        W81739  35.013   9.104   1.674
10014W        W81740   3.176  21.130  11.961
10015W        W81741  21.607   6.729   2.888
10016W        W81742  21.403  31.530  12.970
10017W        W81743  14.819  20.287   4.315
10018W        W81744  30.483   8.400  13.476
10019W        W81745   2.416   0.361  10.688
10020W        W81746  13.172   7.903   3.722
10021W        W81747  26.911  17.139   4.153
10022W        W81748  36.535  23.502  11.506
10023W        W81749  15.788  29.620  12.800
10024W        W81750   3.609  29.077   3.659
10025W        W81751  41.448  33.824  12.950
10026W        W81752   1.141   0.950   1.782
10027W        W81753  15.556  11.194  11.665
10028W        W81754  24.569  38.251   3.783
10029W        W81755  34.894  17.852  14.114
10030W        W81756   1.192  15.731  11.248
10031W        W81757  17.157   9.136   2.213
10032W        W81758  21.017   0.233  11.496
10033W        W81759  25.305  20.133  14.418
10034W        W81760  39.511  19.588  12.861
10035W        W81761  31.877  35.373   5.005
10036W        W81762   2.284  40.424  10.682
10037W        W81763  27.194   5.185   0.831
10038W        W81764   6.961  15.915   1.299
10039W        W81765  14.219   5.850  10.455
10040W        W81766   9.690  40.277   0.879
10041W        W81767  37.404  24.778   1.283
10042W        W81768   4.186  24.733  12.463
10043W        W81769  15.692  27.032   0.989
10044W        W81770  20.575  39.789   2.713
10045W        W81771   6.955  36.018  12.854
10046W        W81772  13.708  26.184   4.227
10047W        W81773  29.711   3.931   0.767
10048W        W81774  33.843  10.757  12.004
10049W        W81775   8.868  40.697  13.547
10050W        W81776  31.016  44.727   3.621
10051W        W81777  22.604   1.735   1.498
10052W        W81778  20.199  13.735  13.136
10053W        W81779  40.324  14.343   4.184
10054W        W81780  19.798  17.825  12.495
10055W        W81781   1.087   2.786   1.363
10056W        W81782  22.732  38.666  10.968
10057W        W81783   4.698  15.330   2.254
10058W        W81784  44.481  15.199  12.648
10059W        W81785  34.988  35.051   4.130
10060W        W81786  19.770  21.837   3.700
10061W        W81787   7.646   2.813  11.415
10062W        W81788  15.241  25.012   3.854
10063W        W81789  38.511  20.430   3.136
10064W        W81790  13.744  10.749   4.573
10065W        W81791  32.679  34.532   1.209
10066W        W81792   5.731  18.756   0.705
10067W        W81793  11.766  37.005   0.841
10068W        W81794   1.434  20.920  12.550
10069W        W81795  32.014  42.929  10.434
10070W        W81796   5.280   4.408   0.534
10071W        W81797   0.439  33.910  11.044
10072W        W81798   1.330   4.969  12.900
10073W        W81799  12.834  17.159  14.969
10074W        W81800  36.444  39.525   3.839
10075W        W81801   2.193   4.834   0.727
10076W        W81802   6.606   3.778   0.835
10077W        W81803   5.159  43.905  12.839
10078W        W81804   0.324  43.248   4.197
10079W        W81805  32.468  38.392  13.185
10080W        W81806  15.240  11.652  14.307
10081W        W81807  17.393   4.271   1.206
10082W        W81808  30.253   4.820   4.591
10083W        W81809  26.513  29.348  14.762
10084W        W81810   3.965  28.127   0.834
10085W        W81811   9.727  36.936  14.798
10086W        W81812  13.058  20.032  10.712
10087W        W81813  30.717  44.427  11.028
10088W        W81814  24.701  36.511   3.487
10089W        W81815  44.882  10.261   2.007
10090W        W81816  19.091  15.961   2.237
10091W        W81817  19.246   4.344   1.898
10092W        W81818  39.020  33.613   0.256
10093W        W81819  15.258  20.002   4.365
10094W        W81820  11.594  44.285   2.369
10095W        W81821  28.642  24.929  12.493
10096W        W81822  41.283  44.644  11.461
10097W        W81823   8.215  24.811   3.782
10098W        W81824   0.361  20.465  13.957
10099W        W81825  26.653   9.062  10.518
10100W        W81826  10.218   1.757   1.357
10101W        W81827   8.620  13.437   4.160
10102W        W81828  29.082  16.252  11.373
10103W        W81829  44.285   1.963  12.064
10104W        W81830  25.329  43.142   3.758
10105W        W81831  16.284  12.201   0.987
10106W        W81832  17.683  41.751   0.421
10107W        W81833   9.309   6.498   2.787
10108W        W81834  39.333  40.603   0.515
10109W        W81835  21.598  10.648  12.429
10110W        W81836  14.046  32.916   4.086
10111W        W81837   1.417   4.812   3.525
10112W        W81838  22.197  30.948   1.806
10113W        W81839  41.808  41.541  11.572
10114W        W81840  36.485  12.598   4.895
10115W        W81841  30.383  19.556   4.782
10116W        W81842  20.198  24.251  14.018
10117W        W81843   4.923  33.001  14.275
10118W        W81844  18.578   1.910  13.482
10119W        W81845   8.823  34.415   1.597
10120W        W81846  31.694  28.204  13.639
10121W        W81847  35.832  19.670  13.284
10122W        W81848  22.290   9.966  12.935
10123W        W81849  22.719  31.961  14.641
10124W        W81850  16.214  30.642  11.991
10125W        W81851  22.438  33.992   1.834
10126W        W81852  32.399  23.924   0.867
10127W        W81853  23.254   8.760   3.828
10128W        W81854  36.975  21.028   2.883
10129W        W81855   3.072  25.502   4.176
10130W        W81856  22.434   7.482   0.286
10131W        W81857  28.174  30.285  11.282
10132W        W81858  38.066  42.780   1.212
10133W        W81859  36.919  26.683   2.397
10134W        W81860  40.670  39.632   3.754
10135W        W81861  25.218   7.775   0.016
10136W        W81862   1.662  26.865   3.287
10137W        W81863  16.394  43.762  14.509
10138W        W81864  38.799  41.961  14.500
10139W        W81865  12.681  11.804  13.138
10140W        W81866  35.137  22.929   2.327
10141W        W81867  12.533  23.075  12.684
10142W        W81868  26.097  28.139  13.482
10143W        W81869  21.830  29.435  13.343
10144W        W81870  44.853   1.237   4.732
10145W        W81871  21.428  13.649  13.759
10146W        W81872  35.118  27.547   1.754
10147W        W81873  37.474  13.418  12.532
10148W        W81874  43.946   5.846  11.498
10149W        W81875  19.718  40.132  13.022
10150W        W81876  44.373  22.550  11.686
10151W        W81877  15.041  39.967  10.539
10152W        W81878   5.964  37.367  13.911
10153W        W81879  36.499   2.304   4.965
10154W        W81880   3.389  33.915  12.581
10155W        W81881  30.489   7.787   3.660
10156W        W81882   1.919  39.016  14.304
10157W        W81883  39.905  38.364   0.240
10158W        W81884  25.560  36.022   2.273
10159W        W81885  28.164  27.103   4.900
10160W        W81886  28.994  41.995   0.387
10161W        W81887  33.183  14.609   2.768
10162W        W81888  14.478   7.818  13.344
10163W        W81889  29.691  34.904  12.977
10164W        W81890  16.893  43.608  14.357
10165W        W81891  25.668  31.373  14.833
10166W        W81892  44.086  24.280   1.722
10167W        W81893  27.518  42.183  12.079
10168W        W81894  42.087  43.914   4.102
10169W        W81895  16.276  15.827  12.107
10170W        W81896   8.161  31.040   1.892
10171W        W81897   2.285  43.921   1.819
10172W        W81898   7.958   3.417   5.000
10173W        W81899   1.011   8.643  12.897
10174W        W81900  23.087  12.622  12.888
10175W        W81901  38.377  42.202  12.329
10176W        W81902   8.767  19.541   4.613
10177W        W81903  13.253  16.870  14.796
10178W        W81904  43.507  10.392   0.930
10179W        W81905  29.997   4.845   3.317
10180W        W81906  12.601  30.128   3.093
10181W        W81907   2.898  42.935   2.749
10182W        W81908  11.202  42.139   4.926
10183W        W81909  37.132  26.921  14.492
10184W        W81910  28.929   5.644  12.207
10185W        W81911  27.490  40.146  14.780
10186W        W81912  27.687  34.551  14.467
10187W        W81913  12.296  21.828   3.720
10188W        W81914  35.994  44.771   2.775
10189W        W81915  19.264   2.000  13.583
10190W        W81916  33.659   5.388   0.912
10191W        W81917  19.449  41.935  11.949
10192W        W81918   1.810  44.799   2.644
10193W        W81919  20.547  37.001   2.108
10194W        W81920  28.637  10.428  10.399
10195W        W81921  43.583  21.974  13.044
10196W        W81922   7.654  44.813  12.483
10197W        W81923  43.240   7.905  14.774
10198W        W81924  42.555   1.303  10.965
10199W        W81925  10.147  17.123  13.826
10200W        W81926  10.110  27.021   2.698
10201W        W81927  33.551   9.119   9.904
10202W        W81928  32.942  27.217  12.520
10203W        W81929  12.271  10.625  13.803
10204W        W81930  28.845  15.283   3.140
10205W        W81931   8.414  44.022  10.691
10206W        W81932  26.536  16.564   0.410
10207W        W81933  38.579  16.079   4.065
10208W        W81934  42.444  30.748   2.685
10209W        W81935  43.080  38.883  12.978
10210W        W81936  21.528   6.997  10.548
10211W        W81937  41.669   6.041   4.601
10212W        W81938  10.436  38.013   1.888
10213W        W81939   9.865  21.580  13.782
10214W        W81940  10.584  31.612   2.244
10215W        W81941  10.861  10.367  11.142
10216W        W81942  31.772  13.715   0.027
10217W        W81943  18.832  20.116   0.881
10218W        W81944   2.927  26.565   4.653
10219W        W81945  10.712   9.101   2.692
10220W        W81946  13.937  29.639   1.421
10221W        W81947  10.416  13.692   2.766
10222W        W81948   6.646  37.790   2.055
10223W        W81949  33.827  26.393  10.936
10224W        W81950  16.146  29.900  13.088
10225W        W81951  33.649  18.082  10.174
10226W        W81952  36.564  30.862   2.315
10227W        W81953  15.276  12.874   3.221
10228W        W81954  33.320  12.772  14.447
10229W        W81955  29.412  44.920   3.597
10230W        W81956  29.005  11.703   3.220
10231W        W81957  23.308  27.524  11.124
10232W        W81958   6.906  41.030   2.388
10233W        W81959  35.772  43.890   0.003
10234W        W81960  38.542  23.577   3.637
10235W        W81961  40.368  37.137   0.029
10236W        W81962  38.341  42.205   3.264
10237W        W81963  12.421  23.718  12.857
10238W        W81964  27.831  17.725   2.581
10239W        W81965  34.018   6.080  14.927
10240W        W81966  37.374   8.129   0.490
10241W        W81967   7.280   6.649  14.990
10242W        W81968  41.564  39.397   0.742
10243W        W81969  21.712  28.723  12.880
10244W        W81970  15.580  34.015   0.310
10245W        W81971  16.351  12.386  14.811
10246W        W81972  29.715  15.720   2.272
10247W        W81973  10.817  44.078   4.248
10248W        W81974  38.646   6.926  13.443
10249W        W81975  21.045  24.005  10.696
10250W        W81976  35.823   0.697   0.408
10251W        W81977   5.746  27.567  13.215
10252W        W81978  40.122  38.339   1.867
10253W        W81979  38.971  18.628  10.445
10254W        W81980  12.408  14.222   0.179
10255W        W81981   8.094  30.905  12.090
10256W        W81982  20.122  30.296  10.196
10257W        W81983  21.073  34.399   2.704
10258W        W81984  33.016  38.883  11.636
10259W        W81985  24.386   5.360   4.652
10260W        W81986  40.580   5.209   0.429
10261W        W81987  27.024  43.815  12.577
10262W        W81988  36.746  11.772  14.949
10263W        W81989  18.503  35.654   4.705
10264W        W81990  16.693  33.147  11.992
10265W        W81991   2.859  31.027   1.955
10266W        W81992   0.879   8.859  14.564
10267W        W81993   3.691  39.531   0.413
10268W        W81994  36.092  40.539  11.572
10269W        W81995  13.204  15.840   0.096
10270W        W81996  25.214  12.793  11.124
10271W        W81997   2.245  38.597   4.941
10272W        W81998  21.421  10.752   4.053
10273W        W81999   6.369  21.183  12.471
10274W        W82000   8.846   8.208   3.869
10275W        W82001  43.996   7.913   0.935
10276W        W82002   2.244  15.005  10.706
10277W        W82003  14.318  38.378   5.542
10278W        W82004  33.500  39.761  14.913
10279W        W82005   5.407  40.475   3.515
10280W        W82006  25.647  16.091  14.225
10281W        W82007  18.803  17.584  12.295
10282W        W82008  44.539  12.984   1.852
10283W        W82009  13.572  10.324  12.310
10284W        W82010  23.931  19.778  14.497
10285W        W82011  13.740  26.521   1.975
10286W        W82012   7.836   6.123   2.252
10287W        W82013   3.791  22.711  13.057
10288W        W82014  10.286  40.541  10.261
10289W        W82015  10.958  23.012   3.225
10290W        W82016  13.947  25.313   0.468
10291W        W82017  15.251  16.685  11.436
10292W        W82018  14.818  31.746  13.667
10293W        W82019  16.623  27.878  12.721
10294W        W82020  12.826  36.922   2.213
10295W        W82021   8.933  11.640   1.940
10296W        W82022  43.331  37.317   4.030
10297W        W82023  21.702   1.482  13.436
10298W        W82024  33.437  26.739   4.758
10299W        W82025  28.616  10.865   1.772
10300W        W82026   3.192  33.987  11.608
10301W        W82027   9.245  16.355   2.676
10302W        W82028  44.983  23.632  11.675
10303W        W82029  38.998  24.942  13.344
10304W        W82030  38.016  30.875   2.180
10305W        W82031  25.089  41.239  14.319
10306W        W82032  31.744  17.038   3.791
10307W        W82033  42.698   3.569  12.973
10308W        W82034  11.288  14.111   0.058
10309W        W82035  43.326  19.168  13.732
10310W        W82036  13.395  37.084   4.869
10311W        W82037  14.673  44.863  12.425
10312W        W82038   3.372  41.895   4.074
10313W        W82039   8.067  27.632   4.213
10314W        W82040  18.881   5.048   1.470
10315W        W82041  38.857   7.816   3.272
10316W        W82042   2.653  21.048  12.087
10317W        W82043  43.149  13.845  11.527
10318W        W82044  40.479   9.839  12.358
10319W        W82045  23.720  27.796   1.203
10320W        W82046  26.268  10.685   2.261
10321W        W82047  25.294  30.724  11.471
10322W        W82048  13.240  14.118   3.745
10323W        W82049  41.462  15.246   2.391
10324W        W82050  39.121  44.944  11.084
10325W        W82051   3.834  40.462  14.090
10326W        W82052   1.846   9.381  11.338
10327W        W82053  29.472   6.922  11.686
10328W        W82054  15.253  30.925   2.823
10329W        W82055  39.853  15.560   1.305
10330W        W82056  25.413  43.513  12.025
10331W        W82057  25.495  38.719   0.485
10332W        W82058  12.667   4.807  12.924
10333W        W82059  18.247  32.126   0.910
10334W        W82060   6.978  23.248   2.684
10335W        W82061   0.714  38.863  14.667
10336W        W82062  26.960  21.556   2.151
10337W        W82063  22.698  33.648  14.787
10338W        W82064  22.587  14.246  13.840
10339W        W82065  43.324   3.920   2.314
10340W        W82066  42.380  43.223  14.758
10341W        W82067  36.067  31.873  12.931
10342W        W82068  38.809  33.108   2.178
10343W        W82069   7.043  37.760  12.591
10344W        W82070  31.579  25.786  13.151
10345W        W82071  15.047  28.352  11.705
10346W        W82072  29.722  15.656  10.727
10347W        W82073  29.273  24.779   0.632
10348W        W82074  25.685  39.871   3.180
10349W        W82075  23.033  15.039  12.746
10350W        W82076  14.135  34.362  12.549
10351W        W82077  29.088  39.968   1.311
10352W        W82078  19.708  35.598   1.604
10353W        W82079  13.818  41.228  14.393
10354W        W82080  41.676  30.519  11.070
10355W        W82081   3.791   6.916   2.417
10356W        W82082  43.288  17.529   3.222
10357W        W82083  31.150  39.911  14.767
10358W        W82084  10.823  38.219   4.532
10359W        W82085   5.305   1.947   0.208
10360W        W82086  25.167  36.515  11.643
10361W        W82087   6.152   3.963  13.507
10362W        W82088  36.276  21.445  12.537
10363W        W82089  12.778   9.574  11.054
10364W        W82090  40.309  21.646   2.739
10365W        W82091  11.841   2.160   2.224
10366W        W82092  36.615  22.155   2.372
10367W        W82093   6.012  30.513   2.673
10368W        W82094  22.111   2.297   0.470
10369W        W82095  16.714  36.409   1.832
10370W        W82096   7.646   9.854   2.673
10371W        W82097  27.033  41.797   1.720
10372W        W82098  36.187   0.533  10.780
10373W        W82099   2.304   3.918   2.912
10374W        W82100   0.818  41.857   0.441
10375W        W82101  35.695   5.339  12.027
10376W        W82102   0.993  34.897   0.696
10377W        W82103  33.343  32.581   1.851
10378W        W82104   6.989  40.580  12.404
10379W        W82105  30.720   3.243  12.951
10380W        W82106   7.363  37.328   1.925
10381W        W82107  22.514  32.733   4.109
10382W        W82108   3.338  33.120  14.262
10383W        W82109  34.225  32.562   4.484
10384W        W82110  44.969  15.847  12.482
10385W        W82111  10.836  31.501   1.771
10386W        W82112  29.209  41.773  11.612
10387W        W82113  27.708  41.024  12.484
10388W        W82114  10.155  28.978  12.450
10389W        W82115  37.511   4.293  11.501
10390W        W82116  34.365  44.388   1.237
10391W        W82117  35.146  30.245  11.179
10392W        W82118  18.071  22.611  12.890
10393W        W82119  30.006  24.178   1.773
10394W        W82120  41.622  35.089   0.840
10395W        W82121  29.037  27.513  12.520
10396W        W82122  24.631  37.074   0.411
10397W        W82123  39.442  11.318   3.678
10398W        W82124  31.809  44.956  11.126
10399W        W82125   4.871  20.156  12.952
10400W        W82126  27.955  30.564  10.124
10401W        W82127   1.782  38.303  14.043
10402W        W82128  41.959  24.563   2.863
10403W        W82129  30.377   7.830  11.555
10404W        W82130   6.412  12.781  10.611
10405W        W82131  33.975  14.810  12.979
10406W        W82132   6.836  12.100   0.326
10407W        W82133   7.596   8.487   2.245
10408W        W82134  35.171  36.860  14.706
10409W        W82135   0.421  35.330   2.106
10410W        W82136  14.417  16.317  11.213
10411W        W82137   3.729   0.445  14.345
10412W        W82138  30.419  12.679   4.133
10413W        W82139   5.972  39.431  13.311
10414W        W82140  36.444  29.305   1.969
10415W        W82141   0.968  14.870  11.544
10416W        W82142  14.142  27.399  14.438
10417W        W82143  39.032   6.649  14.344
10418W        W82144  13.883  16.324  11.123
10419W        W82145  34.291  43.894  11.108
10420W        W82146   6.152  29.011  12.117
10421W        W82147  14.796  35.834  14.921
10422W        W82148  44.451  38.424  11.199
10423W        W82149  10.373  34.150  12.648
10424W        W82150  32.140  31.697  11.510
10425W        W82151  11.100   3.226  12.527
10426W        W82152  11.066  34.883  10.181
10427W        W82153  17.319   3.358   2.171
10428W        W82154   1.477   4.799   1.433
10429W        W82155  21.714  36.539   2.918
10430W        W82156  16.698  22.516  14.243
10431W        W82157  41.161  38.933   4.352
10432W        W82158   5.392  15.819  12.458
10433W        W82159  28.878  15.736   3.376
10434W        W82160  20.064  26.679  14.327
10435W        W82161  38.308  10.313  11.035
10436W        W82162  28.909   3.292  10.496
10437W        W82163   6.646   9.815   1.216
10438W        W82164  42.927  33.635   2.758
10439W        W82165  20.850   3.759   2.670
10440W        W82166   9.657  17.571   3.178
10441W        W82167  43.350  13.417  11.216
10442W        W82168   8.955  22.231  14.697
10443W        W82169  30.889  36.032  13.904
10444W        W82170   9.231  40.835   3.688
10445W        W82171  14.848  42.967  11.553
10446W        W82172  10.076   5.701  12.008
10447W        W82173   7.310  35.841  11.031
10448W        W82174  10.146  19.896   2.093
10449W        W82175  18.569  41.673   2.891
10450W        W82176   3.178  34.598  12.078
10451W        W82177   7.142  39.452   1.205
10452W        W82178  38.099  33.958  13.799
10453W        W82179   3.971  30.143   4.105
10454W        W82180  32.609  15.835   4.623
10455W        W82181  42.237   0.402   1.229
10456W        W82182  41.492  40.323   1.186
10457W        W82183  30.121   5.952  14.340
10458W        W82184  17.106   6.636   4.268
10459W        W82185  22.543  12.572   0.502
10460W        W82186  18.063  36.417   4.195
10461W        W82187  26.477  30.940  13.961
10462W        W82188  20.976  26.664  11.242
10463W        W82189  35.195  24.355   0.467
10464W        W82190  40.924  36.180  13.012
10465W        W82191   8.743  12.113   2.067
10466W        W82192  34.963  20.954  14.822
10467W        W82193  32.633  31.937  10.791
10468W        W82194  39.349  14.940   0.871
10469W        W82195  34.991  37.218   2.651
10470W        W82196  32.433  22.562  12.535
10471W        W82197  27.979  23.463   1.052
10472W        W82198  33.992  37.409  14.855
10473W        W82199  35.406  30.567   4.495
10474W        W82200  12.956   6.865   3.748
10475W        W82201  38.534  42.980  11.863
10476W        W82202   2.403  30.067   1.758
10477W        W82203   8.654  19.151   3.235
10478W        W82204   7.502  18.414  13.409
10479W        W82205  41.211   4.600   0.349
10480W        W82206   4.857   6.267  14.917
10481W        W82207  31.923   7.219  14.490
10482W        W82208  17.056  20.079   1.950
10483W        W82209  41.414   3.389  13.093
10484W        W82210  25.194  37.343   3.133
10485W        W82211  36.948  31.564   1.303
10486W        W82212  26.181   5.382   4.422
10487W        W82213   4.127   4.614   4.991
10488W        W82214  30.711   7.104  13.960
10489W        W82215  26.467  26.421  14.469
10490W        W82216  20.674  37.987  13.631
10491W        W82217  44.178  38.876  11.115
10492W        W82218  24.305  35.024   0.903
10493W        W82219  10.243  27.437   3.231
10494W        W82220   8.085   7.312  10.325
10495W        W82221  37.089   2.585  10.692
10496W        W82222  12.848  36.469  13.802
10497W        W82223   5.041   1.904  13.008
10498W        W82224  20.329   8.603   1.663
10499W        W82225  37.588  18.303   3.747
10500W        W82226   7.858  37.743  12.832
10501W        W82227   0.051  20.183  11.832
10502W        W82228  23.138  22.621   0.879
10503W        W82229   7.485   5.004   2.911
10504W        W82230   7.373  27.785   4.498
10505W        W82231  29.200  42.222   3.620
10506W        W82232  32.100   2.435   2.485
10507W        W82233  25.243   2.436   3.179
10508W        W82234   6.796  33.313  12.071
10509W        W82235  30.539  15.055  14.818
10510W        W82236  18.950   1.033  13.423
10511W        W82237  25.955  12.103   1.402
10512W        W82238  12.639  15.389   4.675
10513W        W82239  36.753  28.447   0.910
10514W        W82240  26.793  26.190   3.209
10515W        W82241  24.531   4.252   2.970
10516W        W82242  17.821  34.664   1.294
10517W        W82243  28.029  37.886   3.219
10518W        W82244   5.862  10.327   2.147
10519W        W82245   6.923  37.906  10.586
10520W        W82246  30.613   2.918  13.422
10521W        W82247  41.312   6.866   2.970
10522W        W82248  21.300  17.117   5.322
10523W        W82249   2.858   1.849  11.041
10524W        W82250  43.408  19.666  13.859
10525W        W82251  35.087   6.868   2.828
10526W        W82252  43.395   6.764   0.340
10527W        W82253  15.223  16.246   0.719
10528W        W82254  20.564  13.605   2.110
10529W        W82255   6.926  25.833   1.323
10530W        W82256   3.364   5.367  10.590
10531W        W82257  14.003   4.193  11.072
10532W        W82258  10.094  35.161   0.057
10533W        W82259  12.898  19.123   2.384
10534W        W82260  17.736  14.391   0.434
10535W        W82261  32.450  31.871  12.861
10536W        W82262  23.428   4.355   2.768
10537W        W82263  15.624   5.134  14.256
10538W        W82264  14.866  13.921   1.827
10539W        W82265  21.585  12.638  14.987
10540W        W82266  12.321   0.917   0.968
10541W        W82267   4.813  22.468  10.689
10542W        W82268  10.432  27.223  12.933
10543W        W82269   7.278  12.913  11.147
10544W        W82270  27.600  25.304  11.548
10545W        W82271   7.787  43.472   3.834
10546W        W82272  21.678  25.449  11.927
10547W        W82273  42.414  38.340  11.567
10548W        W82274  26.853  23.570   2.415
10549W        W82275  29.823  29.303   0.383
10550W        W82276   6.962  36.889  10.678
10551W        W82277   1.999  12.732  12.472
10552W        W82278   1.892  24.596   4.673
10553W        W82279  14.730   9.869   1.318
10554W        W82280   3.351  16.791  13.796
10555W        W82281  26.770  25.504  14.433
10556W        W82282  24.778  27.025   3.398
10557W        W82283   5.895  35.567  12.144
10558W        W82284  13.765   9.927   0.290
10559W        W82285  12.103  41.938   1.342
10560W        W82286   0.732   5.346  13.358
10561W        W82287  43.766  17.254   4.857
10562W        W82288   3.264  20.705  14.402
10563W        W82289  44.562  23.002  12.525
10564W        W82290  19.673  30.936  13.289
10565W        W82291  35.370  22.961  11.904
10566W        W82292   9.866  41.612   1.410
10567W        W82293  34.040  39.313  13.381
10568W        W82294  27.404  43.274  13.044
10569W        W82295  30.400  33.445  14.871
10570W        W82296  41.252  16.604   0.682
10571W        W82297   6.190   8.326  14.259
10572W        W82298   8.725  36.291  13.533
10573W        W82299  13.167  18.347   3.360
10574W        W82300   5.886  44.208  10.820
10575W        W82301   6.402   3.094  12.209
10576W        W82302  25.154   7.831   1.265
10577W        W82303  22.419   5.800   1.732
10578W        W82304  12.318   5.808   4.137
10579W        W82305   5.162   6.949  12.097
10580W        W82306  16.878  14.406  12.899
10581W        W82307   8.119  40.851  10.621
10582W        W82308  14.797  43.378   2.031
10583W        W82309  36.564  11.426   0.664
10584W        W82310  42.076  24.654  11.140
10585W        W82311  23.071  31.604   3.768
10586W        W82312  27.200   0.312   0.019
10587W        W82313  30.876   3.421   2.437
10588W        W82314  32.820  41.319  14.454
10589W        W82315   4.331  10.199   0.731
10590W        W82316   6.226  32.332  10.730
10591W        W82317  27.356   1.833   3.373
10592W        W82318   7.443  28.380   0.891
10593W        W82319  31.055  16.160  12.998
10594W        W82320   6.163  21.813   3.516
10595W        W82321  13.072  35.631   1.595
10596W        W82322   3.422  42.832  14.873
10597W        W82323  28.010  40.056   1.038
10598W        W82324  28.326  12.076  14.694
10599W        W82325  13.373  23.963  10.527
10600W        W82326  41.363  11.399   2.808
10601W        W82327  14.207  17.744   0.322
10602W        W82328   8.449  18.249   0.314
10603W        W82329   6.808  44.020   3.205
10604W        W82330  14.343  16.362  14.235
10605W        W82331  17.256   1.520  11.599
10606W        W82332  19.262  27.325   3.509
10607W        W82333  40.699  29.523   4.016
10608W        W82334   4.162  36.404   1.886
10609W        W82335  20.983  33.178  11.130
10610W        W82336   7.493  18.083   0.020
10611W        W82337  33.605  36.245  10.220
10612W        W82338  41.916  27.632   4.729
10613W        W82339  30.496  41.450  12.914
10614W        W82340  33.909  28.968   1.472
10615W        W82341  13.131  32.824   3.714
10616W        W82342  17.829  26.603   1.785
10617W        W82343   7.586  44.894  14.773
10618W        W82344  36.663   3.983   3.162
10619W        W82345  27.448  43.111  12.321
10620W        W82346  33.097   0.297  14.785
10621W        W82347   8.812  22.378  12.865
10622W        W82348  44.811  25.186  12.912
10623W        W82349   4.251  13.053  12.107
10624W        W82350   5.028   9.407   3.047
10625W        W82351  28.458  24.120   2.172
10626W        W82352  30.050  34.143  13.651
10627W        W82353   9.268   5.169  12.686
10628W        W82354  17.739  11.360   4.502
10629W        W82355  38.840  39.116   3.273
10630W        W82356  21.270  18.233  11.518
10631W        W82357  34.384  12.346   1.390
10632W        W82358  13.230  34.165   4.035
10633W        W82359   0.673  17.714   4.037
10634W        W82360  16.013  36.981   0.678
10635W        W82361   2.445  22.603  13.305
10636W        W82362  37.672  44.401   1.007
10637W        W82363  20.059  22.243  12.465
10638W        W82364  41.405  16.621  13.306
10639W        W82365   6.302   0.226  10.289
10640W        W82366  26.166  29.429   4.098
10641W        W82367   1.687  38.581  11.846
10642W        W82368  38.496   1.825   2.794
10643W        W82369   7.192  24.205   4.944
10644W        W82370  41.424  24.047  12.111
10645W        W82371  39.467  13.770  10.614
10646W        W82372  26.211  31.632  12.729
10647W        W82373  42.868  36.844   2.204
10648W        W82374   7.217  19.719  10.694
10649W        W82375   8.815  12.218   4.623
10650W        W82376  25.773  32.635  14.848
10651W        W82377  19.781  37.102   1.364
10652W        W82378  30.537  29.043   1.139
10653W        W82379  19.817  36.330  13.384
10654W        W82380  38.347  18.041  13.072
10655W        W82381  16.936  12.545  11.155
10656W        W82382  34.540  24.298  10.722
10657W        W82383   5.716  40.064   1.618
10658W        W82384   2.473   5.817  12.992
10659W        W82385  38.029   2.664   3.184
10660W        W82386  22.125   5.665  14.226
10661W        W82387  27.148   2.816  14.472
10662W        W82388  41.984  16.005   2.953
10663W        W82389  10.288  35.382  11.141
10664W        W82390   8.865  32.771  10.662
10665W        W82391  23.335  10.536  11.137
10666W        W82392   2.518   4.263  12.141
10667W        W82393  24.601   6.901   1.768
10668W        W82394  19.611  12.544   3.590
10669W        W82395  16.361  38.068  12.919
10670W        W82396   7.879   3.766   2.885
10671W        W82397   2.699  32.249  12.548
10672W        W82398   7.479  41.845   2.252
10673W        W82399  29.783   5.690  11.342
10674W        W82400  32.003   5.644   0.069
10675W        W82401  12.145   9.271   2.718
10676W        W82402  16.853   0.323   3.156
10677W        W82403   2.352  35.638   2.297
10678W        W82404  39.827  27.183   1.999
10679W        W82405   0.929  23.238  14.012
10680W        W82406  38.083  23.610   0.386
10681W        W82407   4.564  36.089   4.965
10682W        W82408  17.701  10.760  12.115
10683W        W82409  26.020  38.928   2.212
10684W        W82410   2.266  40.535   0.089
10685W        W82411  18.660  31.982  12.225
10686W        W82412  11.209  17.564   4.125
10687W        W82413   6.615  17.716   3.990
10688W        W82414  26.367  22.090   0.816
10689W        W82415  10.822  39.883  14.455
10690W        W82416  40.020   6.999   5.010
10691W        W82417   9.237   0.984   1.301
10692W        W82418  33.192  30.693   1.223
10693W        W82419  18.509  20.251  13.464
10694W        W82420   1.747  11.829  14.902
10695W        W82421  11.188   7.656  11.822
10696W        W82422  15.237   3.414   1.363
10697W        W82423  27.002  30.685  12.764
10698W        W82424  41.297   3.930  10.968
10699W        W82425   3.916   9.640   1.768
10700W        W82426  28.484  15.235   0.906
10701W        W82427  23.930  27.240  13.459
10702W        W82428  34.128  23.640   0.811
10703W        W82429   5.292  23.803   1.004
10704W        W82430  27.444  23.200   2.149
10705W        W82431  19.197  37.941   1.634
10706W        W82432  30.582  40.523   1.591
10707W        W82433  24.636  17.782  12.818
10708W        W82434   3.248  43.477  14.146
10709W        W82435  17.128  24.478  13.362
10710W        W82436  39.892  20.344  14.483
10711W        W82437  18.014   3.647   4.535
10712W        W82438   3.082  10.835  13.895
10713W        W82439  11.633   1.771   4.645
10714W        W82440  35.850  10.853   3.896
10715W        W82441  33.494  31.155  12.383
10716W        W82442  32.691  30.007  11.541
10717W        W82443  12.763   4.654   0.906
10718W        W82444  40.581   6.800  14.466
10719W        W82445  25.263  20.223  13.428
10720W        W82446  26.231  17.740   2.801
10721W        W82447  36.935  17.686   2.077
10722W        W82448  37.650   1.286  13.342
10723W        W82449  27.495  21.756   3.438
10724W        W82450  23.644  11.200   0.081
10725W        W82451  30.998   9.256   4.235
10726W        W82452  17.010  15.711  12.844
10727W        W82453  35.305  28.478  12.567
10728W        W82454  24.742   4.636   3.272
10729W        W82455  23.175  38.550   2.329
10730W        W82456  24.087  28.708   0.306
10731W        W82457  41.513  26.401  10.666
10732W        W82458  28.119  41.535  14.017
10733W        W82459  32.389  27.473   1.335
10734W        W82460   4.434  15.190   4.289
10735W        W82461  33.361  40.978   1.038
10736W        W82462   6.339  31.237   4.715
10737W        W82463   6.515  39.435  14.786
10738W        W82464  44.710  17.220   4.635
10739W        W82465  13.220  18.347  13.495
10740W        W82466  15.116  34.355  10.935
10741W        W82467  11.421  18.932   1.421
10742W        W82468  23.516  25.076   4.193
10743W        W82469   0.414  41.336  13.279
10744W        W82470   9.644   8.592   4.154
10745W        W82471  18.839  27.191   4.149
10746W        W82472  30.819  25.623   2.255
10747W        W82473  17.921  21.161   3.951
10748W        W82474   7.867  10.386  11.584
10749W        W82475  44.106   4.229  13.466
10750W        W82476  33.959  12.080  14.758
10751W        W82477  14.707   9.832   0.385
10752W        W82478  37.471  31.544  12.049
10753W        W82479  23.156  35.591   2.051
10754W        W82480  25.955  25.248  13.332
10755W        W82481  35.604  30.007   1.568
10756W        W82482  30.706  24.050   3.621
10757W        W82483  34.210  27.941   3.001
10758W        W82484   5.218   9.407  11.514
10759W        W82485   8.432   2.677  13.475
10760W        W82486  35.770   1.397  11.926
10761W        W82487   9.929  23.758  11.973
10762W        W82488  27.056  14.236  10.739
10763W        W82489   6.181   6.348  14.146
10764W        W82490  25.656  21.799  10.754
10765W        W82491  28.768   5.230  14.876
10766W        W82492  30.890   9.632   3.392
10767W        W82493  26.773  14.813  12.580
10768W        W82494  18.434  21.278   4.056
10769W        W82495  30.874  19.825   4.057
10770W        W82496   3.185  35.631   1.191
10771W        W82497   2.685  13.382   3.170
10772W        W82498  43.291  39.391  13.070
10773W        W82499   0.405  28.080  13.862
10774W        W82500  32.622  35.369   0.475
10775W        W82501  34.914   8.363  10.807
10776W        W82502  42.202   0.041   2.617
10777W        W82503   5.350  44.206  12.460
10778W        W82504   8.954   8.727  11.560
10779W        W82505   1.921  31.572  12.409
10780W        W82506  12.414  30.933  13.982
10781W        W82507  33.381  29.236   4.694
10782W        W82508  30.835  26.731   5.142
10783W        W82509  23.015  23.457  12.085
10784W        W82510  27.441  29.126  13.946
10785W        W82511  17.330   4.387  12.878
10786W        W82512  42.027  33.261  12.100
10787W        W82513   2.294  15.742   4.575
10788W        W82514  33.714  28.189  13.064
10789W        W82515  29.954   1.063   1.885
10790W        W82516  14.271   4.332  14.808
10791W        W82517  35.354   9.343  14.873
10792W        W82518   1.369  27.055   1.286
10793W        W82519  20.272  41.362   3.143
10794W        W82520  35.908  44.239   2.801
10795W        W82521  37.156  22.097   1.486
10796W        W82522  33.972  14.755  14.378
10797W        W82523  29.822  33.460  11.562
10798W        W82524   1.312  26.029   1.290
10799W        W82525   4.482  44.747   1.370
10800W        W82526  13.233  43.360   3.709
10801W        W82527  17.793  19.536  11.524
10802W        W82528   2.709  30.099   0.371
10803W        W82529  33.878   1.924   3.255
10804W        W82530  16.246  34.562  14.021
10805W        W82531   3.691   3.823   2.388
10806W        W82532  22.965   9.864  13.634
10807W        W82533   7.148   1.338   0.861
10808W        W82534  34.191  28.117   1.289
10809W        W82535  24.794  35.088   2.841
10810W        W82536  34.170  25.603  12.500
10811W        W82537  11.915   4.897   9.899
10812W        W82538  21.255  18.136   4.667
10813W        W82539  17.183  28.662  11.772
10814W        W82540  13.299  18.290   3.862
10815W        W82541  25.600  12.222   4.651
10816W        W82542   8.711  29.996  13.793
10817W        W82543  10.969  15.795   2.154
10818W        W82544   2.960   4.931   3.254
10819W        W82545  11.964  24.969   0.182
10820W        W82546  14.655  23.495  10.726
10821W        W82547   8.323  20.897  12.965
10822W        W82548  36.226  40.468   3.604
10823W        W82549  14.828  14.318   2.182
10824W        W82550   0.462  30.460   0.925
10825W        W82551  37.839  30.114   0.864
10826W        W82552  30.267  27.091   4.609
10827W        W82553   2.296  13.506   2.374
10828W        W82554  10.892   8.716  13.051
10829W        W82555  16.551  28.531  13.476
10830W        W82556  38.108  11.270  11.822
10831W        W82557  30.033  34.676   3.331
10832W        W82558  35.110  36.126   1.901
10833W        W82559  29.964  36.765  11.931
10834W        W82560  26.983   2.002   1.341
10835W        W82561  11.077  17.863  14.340
10836W        W82562  22.819  31.268  13.393
10837W        W82563  15.088  26.309   0.260
10838W        W82564  13.605  25.623  14.754
10839W        W82565  31.864  37.028  12.982
10840W        W82566  14.092  20.986  14.649
10841W        W82567   0.255  39.995   4.025
10842W        W82568  12.991  22.983  10.926
10843W        W82569  27.517  15.007  12.889
10844W        W82570  10.389  30.317   1.728
10845W        W82571  39.889  43.548   1.958
10846W        W82572   3.490   2.894  13.014
10847W        W82573  39.032   8.606   4.520
10848W        W82574  40.957  26.130  13.764
10849W        W82575  16.608  31.201  13.841
10850W        W82576  33.759   9.712  14.330
10851W        W82577  32.570  24.679  10.221
10852W        W82578  44.359   1.004  13.973
10853W        W82579  38.815  30.678  10.775
10854W        W82580   0.290  34.597   3.067
10855W        W82581  28.894   1.206  11.073
10856W        W82582   4.628  10.214   1.175
10857W        W82583  18.684   6.274  14.498
10858W        W82584  42.713  22.572   0.280
10859W        W82585  14.184  28.235   2.317
10860W        W82586  18.518  23.655  13.374
10861W        W82587  43.414  33.689   2.421
10862W        W82588   6.662   2.147  11.881
10863W        W82589   0.911   1.868  11.236
10864W        W82590   9.195   0.663   2.292
10865W        W82591  28.591  41.262  14.807
10866W        W82592  32.529  37.129   4.950
10867W        W82593  11.366  32.868   3.754
10868W        W82594  38.563  13.674  14.816
10869W        W82595  33.332  42.947   0.369
10870W        W82596  30.743  18.967  13.959
10871W        W82597  39.551  18.112  14.783
10872W        W82598  10.379   6.660   2.218
10873W        W82599  23.659  42.518   4.046
10874W        W82600  17.711  13.800  12.989
10875W        W82601  23.201  25.243  10.225
10876W        W82602  12.761  40.090   3.497
10877W        W82603  33.447  26.914  10.710
10878W        W82604  15.563  43.766   4.884
10879W        W82605  22.058  36.132  13.892
10880W        W82606  20.475  14.860  11.564
10881W        W82607  21.094  17.194  13.926
10882W        W82608  29.637  42.853  10.948
10883W        W82609  18.311  38.101   4.066
10884W        W82610  17.585  14.787  10.744
10885W        W82611  29.906  13.251   2.427
10886W        W82612   1.880  25.519  12.328
10887W        W82613  21.117  20.996  11.990
10888W        W82614  25.085  22.449   3.184
10889W        W82615   9.190   2.826   4.560
10890W        W82616  33.067  11.677   4.787
10891W        W82617   8.352  44.228  12.361
10892W        W82618  28.523  29.190  13.292
10893W        W82619  29.523  29.662  12.387
10894W        W82620  41.894  37.986   1.448
10895W        W82621  13.940   4.358  13.001
10896W        W82622  22.200  12.691   0.918
10897W        W82623  32.402  10.295  13.476
10898W        W82624  19.284  37.504   2.390
10899W        W82625  22.094  30.865   2.714
10900W        W82626  34.041  36.324  12.006
10901W        W82627  12.610  21.587   0.402
10902W        W82628  41.967   4.300   3.330
10903W        W82629  18.573   1.419   0.618
10904W        W82630  41.415  40.739  14.952
10905W        W82631   9.909  14.210   3.114
10906W        W82632  20.320  18.239   0.321
10907W        W82633   6.683  18.703  12.391
10908W        W82634  24.174   5.629   1.569
10909W        W82635   9.755  38.538  14.530
10910W        W82636  17.865  26.385   1.229
10911W        W82637  23.033  24.277  14.927
10912W        W82638   1.768   9.697  14.169
10913W        W82639  14.214  42.232  11.706
10914W        W82640  24.249  32.539   2.684
10915W        W82641   0.191  41.726  11.637
10916W        W82642  41.368  34.051   1.282
10917W        W82643  43.920  16.341  10.500
10918W        W82644   8.001  28.320   4.098
10919W        W82645   7.351  28.379   3.697
10920W        W82646   7.768  20.782  14.024
10921W        W82647  24.930  19.252  14.781
10922W        W82648  22.378  43.774   1.631
10923W        W82649  38.707  26.468  13.379
10924W        W82650  27.936   4.240  13.392
10925W        W82651  32.058  12.350  14.443
10926W        W82652  24.760  13.286  13.053
10927W        W82653   1.938   7.588   2.228
10928W        W82654  14.674  20.240   2.726
10929W        W82655  11.185   5.208   0.316
10930W        W82656   0.317  23.302  13.630
10931W        W82657  24.035  26.057   4.747
10932W        W82658  44.433   0.414  10.414
10933W        W82659  25.668  32.028   3.236
10934W        W82660  11.423  17.552   3.669
10935W        W82661   0.504  15.594  11.631
10936W        W82662  38.802   0.430  14.270
10937W        W82663  24.583  12.203  11.248
10938W        W82664  36.548  14.613  14.855
10939W        W82665  36.969  25.769   0.283
10940W        W82666  19.595  16.770   0.862
10941W        W82667   7.712  31.179   2.952
10942W        W82668   8.220   9.330  13.122
10943W        W82669  25.012   1.237   3.789
10944W        W82670  43.968  21.259  10.064
10945W        W82671  40.355  35.413  12.116
10946W        W82672  18.713  23.930   4.116
10947W        W82673  30.353  16.844   3.250
10948W        W82674  24.896   8.232   2.811
10949W        W82675  40.489  22.420   5.053
10950W        W82676  37.938  26.442   2.858
10951W        W82677  18.739  12.863   3.167
10952W        W82678  38.600  42.832   1.413
10953W        W82679  25.478  25.086  10.820
10954W        W82680  10.854   3.390  11.152
10955W        W82681  20.032   6.329   4.171
10956W        W82682   3.145  16.100  13.521
10957W        W82683  25.032   3.824   1.430
10958W        W82684  41.124  38.589   1.787
10959W        W82685  24.244  13.950   5.238
10960W        W82686  20.597   5.427  14.888
10961W        W82687  37.107   7.258  10.473
10962W        W82688  18.806  28.843  11.496
10963W        W82689  10.052   0.429  11.183
10964W        W82690  35.788  28.449  14.251
10965W        W82691  33.897  32.808   4.137
10966W        W82692   8.885  15.350  11.620
10967W        W82693  28.724   9.313   3.321
10968W        W82694  34.334   5.778   2.485
10969W        W82695  12.264  30.261   0.979
10970W        W82696  33.233  11.380  11.707
10971W        W82697  30.940  32.179   2.742
10972W        W82698   4.736  28.704   2.977
10973W        W82699  44.268  30.848  14.953
10974W        W82700  19.135   9.225   1.280
10975W        W82701  18.196   5.368  11.914
10976W        W82702  24.544  12.623  10.576
10977W        W82703  25.132  27.436   0.503
10978W        W82704  17.375  38.297   4.104
10979W        W82705  21.027  32.673   3.982
10980W        W82706  40.771   8.260   0.502
10981W        W82707  33.299  15.744  14.946
10982W        W82708  32.914   8.224  10.942
10983W        W82709   4.239  11.119   0.373
10984W        W82710  24.526   8.264   3.775
10985W        W82711   6.654  15.310   0.230
10986W        W82712  18.630  34.191   3.231
10987W        W82713  26.477  42.522  11.180
10988W        W82714   0.266  24.700   2.902
10989W        W82715   9.674  42.715  12.998
10990W        W82716  32.188  44.383  13.499
10991W        W82717  22.941  16.568  14.353
10992W        W82718  30.502  26.579   3.336
10993W        W82719  12.187  43.438   2.399
10994W        W82720  12.694   3.264  12.747
10995W        W82721  10.624  16.270  14.946
10996W        W82722  20.561  39.898  13.554
10997W        W82723   1.351  42.005   4.262
10998W        W82724   9.189   2.441   3.718
10999W        W82725  20.971  39.838   2.368
11000W        W82726  20.071   5.377  14.773
11001W        W82727  26.977   3.368  11.405
11002W        W82728  42.402   6.154  12.542
11003W        W82729  42.431  11.347   0.914
11004W        W82730  35.415  38.428   3.753
11005W        W82731  18.117  26.934  11.623
11006W        W82732  22.979  15.684  10.688
11007W        W82733  42.909  43.516   0.400
11008W        W82734   8.916   9.150   2.767
11009W        W82735   4.854  31.037   1.382
11010W        W82736  22.568  13.179   3.176
11011W        W82737  27.342  36.985  12.974
11012W        W82738  28.763  37.428   4.271
11013W        W82739  30.211  23.726  13.916
11014W        W82740  43.433  14.874   0.265
11015W        W82741  35.539  29.504   1.748
11016W        W82742   4.321  23.161   0.810
11017W        W82743  12.533  39.655  13.787
11018W        W82744  40.161  23.475  12.923
11019W        W82745  20.609  18.534   4.597
11020W        W82746  39.818  40.593   3.130
11021W        W82747  24.373   9.888   2.657
11022W        W82748   6.667  39.403   3.220
11023W        W82749   2.607   5.695   0.640
11024W        W82750  11.320   0.933  12.941
11025W        W82751  43.493  35.401   3.888
11026W        W82752  24.865  36.382  14.936
11027W        W82753  14.089  35.851  12.375
11028W        W82754   4.461  42.099  10.934
11029W        W82755  20.162   8.075   2.423
11030W        W82756  22.623   0.706  14.718
11031W        W82757  26.969  33.669   1.761
11032W        W82758  19.182  20.223  14.005
11033W        W82759  31.384  35.976  12.598
11034W        W82760  41.219  27.566  13.204
11035W        W82761  40.224   0.714  11.611
11036W        W82762   2.762  39.339   2.398
11037W        W82763  17.282  40.855  11.157
11038W        W82764  21.280  20.655   4.201
11039W        W82765   9.432  19.605   3.431
11040W        W82766  33.595  38.066   3.633
11041W        W82767  18.796  38.337   2.758
11042W        W82768  16.299  28.700  10.888
11043W        W82769   7.751   4.796  11.180
11044W        W82770  21.782  43.970  14.583
11045W        W82771  27.135  14.847   2.296
11046W        W82772  12.085   6.450   1.849
11047W        W82773  25.735   6.491  14.897
11048W        W82774   7.352  34.994  11.501
11049W        W82775  41.387  29.984   1.534
11050W        W82776  10.615  42.794  13.969
11051W        W82777   4.182  41.562   2.382
11052W        W82778  34.871  36.452   4.349
11053W        W82779  43.480   2.819  12.179
11054W        W82780   1.364  20.183   2.209
11055W        W82781   0.611   4.430  14.333
11056W        W82782   5.387  31.151   2.855
11057W        W82783  37.471   1.412   1.875
11058W        W82784  37.027  13.181   3.703
11059W        W82785  38.943  35.044  10.424
11060W        W82786  23.023  16.346  13.092
11061W        W82787  22.492  15.382   9.799
11062W        W82788  23.605   3.877  11.673
11063W        W82789  39.297  44.948   3.544
11064W        W82790  25.455   1.537  13.912
11065W        W82791  24.264  26.491  12.916
11066W        W82792   7.805  30.699   0.954
11067W        W82793  27.387  34.606  14.896
11068W        W82794  22.122  28.686  10.568
11069W        W82795  10.386   4.317   3.737
11070W        W82796   4.063  29.016  13.525
11071W        W82797  27.236  34.804   1.150
11072W        W82798  10.175  44.298   4.119
11073W        W82799  41.860   6.185   3.241
11074W        W82800  14.591  44.955  10.504
11075W        W82801  34.505  10.265   5.092
11076W        W82802  17.590   1.286   1.370
11077W        W82803  38.123  41.031   4.302
11078W        W82804  23.590  28.516  11.400
11079W        W82805  12.420  10.699   4.230
11080W        W82806  22.182   4.221  11.135
11081W        W82807  43.690  19.224  12.947
11082W        W82808  38.880  15.175   2.565
11083W        W82809  37.327  40.739   4.043
11084W        W82810  18.486  15.697   2.671
11085W        W82811  36.912  28.642   0.438
11086W        W82812   4.411   2.822  12.660
11087W        W82813  13.761   7.290   4.769
11088W        W82814  14.402  36.848   4.580
11089W        W82815  36.030  12.186  11.042
11090W        W82816  31.512   4.726   4.194
11091W        W82817  11.496  41.014   4.567
11092W        W82818  15.702  23.244  10.888
11093W        W82819   3.750  16.612   2.354
11094W        W82820  21.249  35.643  12.010
11095W        W82821  10.303  43.816  14.876
11096W        W82822  26.918   8.456   1.345
11097W        W82823  14.581   8.857   3.680
11098W        W82824  38.477   4.904   3.671
11099W        W82825  16.710  24.586   1.468
11100W        W82826  34.519   3.314  14.625
11101W        W82827  41.574  24.641  11.165
11102W        W82828  13.610  13.440   4.922
11103W        W82829  12.173  13.095  13.629
11104W        W82830  33.106  38.590   2.268
11105W        W82831  40.404  22.997  12.968
11106W        W82832   2.023   5.133  11.867
11107W        W82833  34.873  23.631  13.295
11108W        W82834  31.358   3.499  12.613
11109W        W82835  33.062   3.387  14.577
11110W        W82836   1.250  44.938   2.733
11111W        W82837  13.746   0.039  10.926
11112W        W82838  12.701  13.766   1.386
11113W        W82839  17.499  41.471   1.774
11114W        W82840  26.524   2.241   1.438
11115W        W82841  18.558  33.736  11.948
11116W        W82842   1.104  24.679  13.153
11117W        W82843  14.901   3.024   2.816
11118W        W82844   0.255  31.802   0.801
11119W        W82845  22.480  12.692   2.381
11120W        W82846  10.247   5.724   0.238
11121W        W82847  36.102  30.101  12.858
11122W        W82848   1.387  15.778   4.671
11123W        W82849  43.123  12.050  14.804
11124W        W82850   4.952   4.519  14.111
11125W        W82851   4.352  44.540   2.381
11126W        W82852  37.677  28.090  13.334
11127W        W82853  12.801  36.104   1.625
11128W        W82854  18.716  23.023  14.585
11129W        W82855  16.823   7.242   1.185
11130W        W82856  21.145  19.689  13.413
11131W        W82857   6.875  43.296  12.893
11132W        W82858  32.875   0.907  12.499
11133W        W82859   9.094  33.608  11.990
11134W        W82860   7.732  20.148   4.541
11135W        W82861   5.259  30.589  11.039
11136W        W82862  40.613  29.617  11.611
11137W        W82863  30.992  23.183  10.742
11138W        W82864  44.975  30.134  13.504
11139W        W82865  27.160  33.962  10.396
11140W        W82866  31.629  33.539   1.386
11141W        W82867  13.235  19.718  13.473
11142W        W82868   7.717  18.554  12.932
11143W        W82869  33.499  26.146   4.802
11144W        W82870  19.511   9.544   0.416
11145W        W82871   2.338  17.631   3.070
11146W        W82872   6.463  13.738   3.701
11147W        W82873  24.776  39.891  12.377
11148W        W82874  14.712   5.449   4.527
11149W        W82875  25.035   3.987  11.498
11150W        W82876   8.902  11.789   2.478
11151W        W82877  21.624  15.169  13.852
11152W        W82878  28.056  32.690  14.960
11153W        W82879  14.098  31.000   3.260
11154W        W82880  38.915  16.721   2.748
11155W        W82881   2.696  18.820   1.736
11156W        W82882  39.896   6.425   4.116
11157W        W82883   8.890  39.371  13.441
11158W        W82884  24.123  22.864  14.740
11159W        W82885  31.692  43.379  13.481
11160W        W82886  10.504  23.115  11.039
11161W        W82887  43.108  40.497  12.399
11162W        W82888  31.694  33.859  13.511
11163W        W82889  40.435  25.518   2.169
11164W        W82890   4.024  15.432  12.027
11165W        W82891  18.127  29.347  13.383
11166W        W82892  39.655  11.773   3.835
11167W        W82893  35.532   8.101  13.540
11168W        W82894  20.005  27.449  14.881
11169W        W82895   1.231  41.397   3.515
11170W        W82896   7.114  35.994   0.814
11171W        W82897  24.628  41.259  12.015
11172W        W82898   8.035  13.257  14.837
11173W        W82899  19.471   6.753   0.479
11174W        W82900   6.574   3.667   0.335
11175W        W82901  36.853  34.852   4.322
11176W        W82902  10.609  40.768  12.489
11177W        W82903   3.455   4.738   1.351
11178W        W82904  39.928  10.669   4.578
11179W        W82905   6.376  39.609  13.573
11180W        W82906   7.805   7.454   2.678
11181W        W82907  25.908  24.923  14.500
11182W        W82908  19.044   3.802   2.157
11183W        W82909  28.931  35.457   0.307
11184W        W82910  40.845  36.735   4.600
11185W        W82911  30.460  39.499  11.200
11186W        W82912  26.490  16.531  14.353
11187W        W82913   7.649   0.685  11.113
11188W        W82914  11.006  19.504  13.862
11189W        W82915  20.080  21.457  12.130
11190W        W82916   7.368  16.694  14.700
11191W        W82917  23.229  17.837  12.543
11192W        W82918  32.700   3.800   4.838
11193W        W82919   7.011  24.153  14.808
11194W        W82920   2.280  28.426  11.938
11195W        W82921  39.077   1.068   0.970
11196W        W82922  41.821  11.607   3.193
11197W        W82923   2.012   9.377   4.121
11198W        W82924  37.436  27.132  12.148
11199W        W82925   6.871  11.529  12.860
11200W        W82926  32.653  41.370   4.044
11201W        W82927  43.512  11.703   0.667
11202W        W82928   5.413  13.213   0.837
11203W        W82929  10.291  34.000   3.907
11204W        W82930   4.925  28.003   4.994
11205W        W82931  13.591  24.781  11.986
11206W        W82932  10.727  23.070  13.797
11207W        W82933  28.601  14.255  10.452
11208W        W82934  31.827  33.866   2.259
11209W        W82935   1.194  44.221  13.563
11210W        W82936  36.883  31.675  10.781
11211W        W82937  33.550  35.266   2.726
11212W        W82938  16.333  30.519   1.459
11213W        W82939   1.580  33.436   4.515
11214W        W82940  18.582  37.395   4.063
11215W        W82941  21.489  15.815   3.778
11216W        W82942  30.620  22.497  13.387
11217W        W82943  17.121   7.932   2.821
11218W        W82944  22.978  27.155  13.606
11219W        W82945   5.616  38.413   0.396
11220W        W82946  25.078  43.580   2.926
11221W        W82947  35.128   3.372  11.461
11222W        W82948  23.082  14.336  11.146
11223W        W82949  19.178  36.518   2.873
11224W        W82950   0.035  33.616  10.322
11225W        W82951  22.968   1.443  12.892
11226W        W82952  24.166  26.658   9.726
11227W        W82953  19.300  26.610  12.875
11228W        W82954  14.097   1.031  12.460
11229W        W82955   2.706  44.424   2.293
11230W        W82956  32.701   2.837   0.256
11231W        W82957  14.245  14.137  13.829
11232W        W82958  27.997  26.524  12.304
11233W        W82959   5.132  39.917   3.279
11234W        W82960   5.493  14.765  13.552
11235W        W82961  15.084  42.807  14.782
11236W        W82962  16.994  16.272   2.159
11237W        W82963  27.622  25.011  13.808
11238W        W82964  23.071  25.570  12.883
11239W        W82965  36.000  16.909   3.198
11240W        W82966  21.734  30.716  14.781
11241W        W82967  21.089  20.046   1.183
11242W        W82968  26.121  34.684  13.444
11243W        W82969  10.771  25.679   1.847
11244W        W82970  43.208   6.232   1.433
11245W        W82971  35.080  15.272  11.178
11246W        W82972  30.986  29.859  12.420
11247W        W82973  42.864  43.862  10.289
11248W        W82974  10.743  24.920  11.059
11249W        W82975  32.543   1.159  11.712
11250W        W82976   7.846  15.824  11.652
11251W        W82977  15.596  44.511  13.456
11252W        W82978  25.118  32.908  11.068
11253W        W82979  22.610  29.936  14.480
11254W        W82980  23.300   6.701   0.744
11255W        W82981  44.241  25.980   4.574
11256W        W82982  41.913  31.033   3.537
11257W        W82983   9.630   3.966  13.416
11258W        W82984  39.117  29.849  13.814
11259W        W82985  36.908  24.446   0.665
11260W        W82986  25.122  40.013  13.748
11261W        W82987  33.457  34.252   2.558
11262W        W82988  13.119  30.850   0.292
11263W        W82989  15.657   6.963   5.283
11264W        W82990  12.764  24.978   2.330
11265W        W82991   4.830   1.716   0.456
11266W        W82992  38.849  33.586  11.391
11267W        W82993  42.174  34.323   4.620
11268W        W82994   6.964  24.486   4.575
11269W        W82995  14.427  28.099  12.563
11270W        W82996  25.252  13.769  14.342
11271W        W82997   9.110  35.938   3.203
11272W        W82998  23.148  22.802   2.323
11273W        W82999   7.258  21.156   5.156
11274W        W83000  16.982  34.354   0.232
11275W        W83001   1.738  10.901   1.755
11276W        W83002  23.037   6.145  14.314
11277W        W83003  28.131  26.059  10.142
11278W        W83004  16.033  28.032   0.775
11279W        W83005  17.195  24.119  14.326
11280W        W83006  44.716   2.879  11.384
11281W        W83007  21.048  39.305   3.246
11282W        W83008  40.869  11.154   2.775
11283W        W83009  20.064  27.691   3.890
11284W        W83010  28.377  11.545  13.433
11285W        W83011   0.845  10.384  14.917
11286W        W83012   3.324  36.984   4.864
11287W        W83013  10.119  43.630   1.325
11288W        W83014  38.945  30.608   0.420
11289W        W83015  14.024  18.181   1.175
11290W        W83016   8.406   9.215   2.836
11291W        W83017  41.256  30.185  11.811
11292W        W83018  12.143   0.243  14.456
11293W        W83019   4.207  43.497  14.959
11294W        W83020  15.577  42.428  11.470
11295W        W83021   7.499   0.293  12.455
11296W        W83022   7.450  31.080   0.967
11297W        W83023   9.754   9.171   1.654
11298W        W83024  30.170  16.059   0.605
11299W        W83025  22.092   0.724   4.127
11300W        W83026  36.698  18.638  12.503
11301W        W83027  15.863  35.503  12.491
11302W        W83028  25.656  26.732  14.390
11303W        W83029  43.260   3.470  14.373
11304W        W83030  37.323  40.952  12.122
11305W        W83031  10.304  19.078  14.004
11306W        W83032  42.396  13.414   0.984
11307W        W83033  19.886   5.695   2.776
11308W        W83034  35.456  19.423  14.820
11309W        W83035  33.986  38.653   2.331
11310W        W83036  31.851  10.284  11.944
11311W        W83037  15.810  11.828   3.561
11312W        W83038   7.638  13.561  12.473
11313W        W83039   5.288   6.014  11.748
11314W        W83040  22.175  38.947  14.985
11315W        W83041  37.019   0.385   4.382
11316W        W83042   9.154   0.483   4.181
11317W        W83043  37.965  44.529   3.174
11318W        W83044   9.283  10.234  10.563
11319W        W83045   8.006  15.069   0.331
11320W        W83046  41.851   6.574  10.018
11321W        W83047  39.461  26.685  13.806
11322W        W83048  14.225  29.435  13.830
11323W        W83049  11.766  18.299  10.280
11324W        W83050   2.262  32.166  11.877
11325W        W83051  18.294   2.244   0.957
11326W        W83052  33.172  26.106  14.294
11327W        W83053  38.068  40.707  14.368
11328W        W83054  35.596  11.063  13.417
11329W        W83055   8.319   2.188  10.745
11330W        W83056  25.405  10.165   0.671
11331W        W83057  35.655   8.282   0.807
11332W        W83058  38.416  41.751  12.632
11333W        W83059  24.108  29.950  13.010
11334W        W83060  17.781  31.987  13.788
11335W        W83061   9.083   4.291  12.554
11336W        W83062  39.505  11.687   1.466
11337W        W83063  25.532  15.228   1.665
11338W        W83064  24.134  39.584   4.726
11339W        W83065  23.705  26.664  13.288
11340W        W83066  30.916  40.049   0.335
11341W        W83067  27.246   9.459   3.170
11342W        W83068   5.794  28.690  14.847
11343W        W83069   1.613  41.142  14.929
11344W        W83070  25.673  40.433   3.235
11345W        W83071  18.221   1.442  11.049
11346W        W83072  39.513   8.259   4.570
11347W        W83073  28.579  30.592   2.668
11348W        W83074  43.727  35.344   0.923
11349W        W83075  30.786  43.367   1.989
11350W        W83076   9.773   0.560   1.881
11351W        W83077  37.396  19.848  11.427
11352W        W83078   4.474   6.322   4.595
11353W        W83079   8.692  19.836   4.199
11354W        W83080  28.970  18.071   1.326
11355W        W83081   0.880  27.993  12.944
11356W        W83082   8.925  30.473  13.954
11357W        W83083  38.759  34.662   1.218
11358W        W83084   8.338  11.556   4.659
11359W        W83085  27.112  35.572  13.760
11360W        W83086  39.961   1.718   1.322
11361W        W83087  31.143  18.697   1.259
11362W        W83088  28.906   7.574  14.997
11363W        W83089  29.385   1.447   0.273
11364W        W83090  37.342  11.790   4.216
11365W        W83091  33.603  20.885   4.028
11366W        W83092  43.676  31.997   3.309
11367W        W83093  25.012  19.314   2.257
11368W        W83094  21.608  21.299  14.436
11369W        W83095  12.931  18.565   0.647
11370W        W83096   0.484  30.926   3.044
11371W        W83097  24.253  17.251  11.152
11372W        W83098  41.255  42.675  13.456
11373W        W83099   0.003  44.729   2.035
11374W        W83100  34.594  25.165   2.032
11375W        W83101  13.730  38.876   3.851
11376W        W83102  35.326  19.614   2.404
11377W        W83103  32.484   8.324   5.238
11378W        W83104  13.231  33.905  14.506
11379W        W83105  38.022   6.201  12.429
11380W        W83106  35.987  39.341  13.566
11381W        W83107  31.532  44.321  13.750
11382W        W83108  38.388  17.171   1.309
11383W        W83109   3.249   6.799  14.968
11384W        W83110  16.559  40.636   4.965
11385W        W83111  41.736  37.344   4.090
11386W        W83112  39.473  10.234   2.153
11387W        W83113  16.407  12.586  12.469
11388W        W83114   2.473  21.025   1.243
11389W        W83115  20.031   5.894  11.604
11390W        W83116  17.269  43.949  14.482
11391W        W83117   9.844  10.863  14.898
11392W        W83118  38.715   3.398  12.489
11393W        W83119  42.460  34.126   0.407
11394W        W83120  43.528  17.637  14.315
11395W        W83121   0.801  11.378  11.615
11396W        W83122  17.471  14.589  14.602
11397W        W83123  15.781  25.129  12.582
11398W        W83124  40.061  23.591  11.399
11399W        W83125   8.759  29.211  12.120
11400W        W83126  23.651  37.624   2.410
11401W        W83127  30.158  34.541  13.300
11402W        W83128  15.565  34.482  12.500
11403W        W83129  37.388  35.860  11.601
11404W        W83130   3.416  36.039  10.578
11405W        W83131  34.846  31.822  13.544
11406W        W83132   3.723  16.215  14.919
11407W        W83133  31.154  11.609  14.911
11408W        W83134   5.342  18.813   4.569
11409W        W83135  25.592  41.461   2.118
11410W        W83136  15.827  43.908   3.775
11411W        W83137  43.245   0.288  11.171
11412W        W83138  44.257  26.548  13.178
11413W        W83139  19.130  14.209  11.278
11414W        W83140   4.817  32.170  13.870
11415W        W83141   6.262  34.173   3.335
11416W        W83142  14.215   1.372  11.907
11417W        W83143  24.718  16.059  14.436
11418W        W83144  15.085  22.524   0.859
11419W        W83145  32.127  36.257   1.941
11420W        W83146  34.622  33.733   2.168
11421W        W83147   8.691  10.363   5.080
11422W        W83148  36.672  16.926   0.419
11423W        W83149  20.233  35.850   4.209
11424W        W83150  13.738  24.042   2.671
11425W        W83151   9.116  31.186  13.426
11426W        W83152  27.845  42.552  11.144
11427W        W83153  21.111   9.793   4.391
11428W        W83154  13.959  13.236   1.359
11429W        W83155  20.180  20.659  10.823
11430W        W83156  33.324  44.429   0.528
11431W        W83157  20.239  26.472  12.396
11432W        W83158  12.067  15.210   1.493
11433W        W83159  12.444  11.228   4.209
11434W        W83160   6.480  26.167  11.744
11435W        W83161  14.516   5.798  12.564
11436W        W83162  35.565  18.309   2.782
11437W        W83163  20.768  17.974  10.683
11438W        W83164  23.498  19.522   3.276
11439W        W83165   4.845   2.988   1.385
11440W        W83166   9.336  32.314   0.309
11441W        W83167  33.859  26.458   4.605
11442W        W83168  17.046  19.740   0.322
11443W        W83169  39.980  29.153  14.841
11444W        W83170   7.842   2.861  12.417
11445W        W83171   1.358  14.311   1.695
11446W        W83172  34.924  20.963   0.907
11447W        W83173  30.014  16.687  13.831
11448W        W83174   2.416  15.732   1.098
11449W        W83175  33.741  20.532   3.164
11450W        W83176  35.620  13.680   1.499
11451W        W83177  43.876   7.506   3.743
11452W        W83178  24.078  26.523   2.416
11453W        W83179   4.291  26.903   3.799
11454W        W83180   4.157  19.045  14.872
11455W        W83181  19.670  37.751  11.420
11456W        W83182   6.768  24.014   1.699
11457W        W83183   4.027  41.845   0.284
11458W        W83184  22.742  36.347   1.831
11459W        W83185  39.640  11.145  12.111
11460W        W83186  36.319  21.665  13.746
11461W        W83187  38.009  18.012   0.973
11462W        W83188  16.743   1.542  12.345
11463W        W83189  33.427  38.100  13.735
11464W        W83190  43.119  13.908  10.492
11465W        W83191  14.129  18.524   2.846
11466W        W83192  26.998  39.955  14.890
11467W        W83193  30.810  32.444  14.789
11468W        W83194   2.457  21.068   4.116
11469W        W83195  12.303  35.741  11.931
11470W        W83196  42.880  29.980   4.105
11471W        W83197  29.192  41.210  11.652
11472W        W83198  32.641  29.826   0.245
11473W        W83199  11.771  31.937   0.468
11474W        W83200  41.256  26.883  11.537
11475W        W83201  39.418   1.885  12.579
11476W        W83202   4.295  15.688  11.075
11477W        W83203  31.488   8.599  11.718
11478W        W83204  15.886   7.487   3.745
11479W        W83205  26.163   5.412  12.729
11480W        W83206  37.352  38.398   1.865
11481W        W83207  11.741  20.020   3.075
11482W        W83208  39.267  36.162   0.398
11483W        W83209  28.902   1.169   0.440
11484W        W83210   5.294  16.077   4.882
11485W        W83211   3.949  20.629   3.054
11486W        W83212  39.065   3.255  12.836
11487W        W83213  35.000  16.632  10.646
11488W        W83214  25.567  31.628  11.943
11489W        W83215  20.406  23.547  12.031
11490W        W83216  32.131  23.020  14.330
11491W        W83217  17.792  39.348  13.785
11492W        W83218  32.865  32.405  13.477
11493W        W83219   0.604  37.543  12.908
11494W        W83220   1.170  13.093   3.666
11495W        W83221  11.976   7.131   3.304
11496W        W83222  15.043   9.475  11.899
11497W        W83223  12.739  10.357   1.794
11498W        W83224  36.597  21.858  14.397
11499W        W83225  20.185  32.337  12.953
11500W        W83226   7.202  12.661  14.740
11501W        W83227   9.227  38.173  13.493
11502W        W83228  20.422  37.492   4.939
11503W        W83229  25.770  26.084   0.047
11504W        W83230  32.128  12.689   2.899
11505W        W83231  11.726   8.451  11.943
11506W        W83232  25.707  29.425  12.440
11507W        W83233  21.018   4.019  10.787
11508W        W83234  24.515   9.184  10.699
11509W        W83235   6.368  29.253   4.130
11510W        W83236   5.974  14.824  10.930
11511W        W83237   2.012   5.098   3.242
11512W        W83238  42.186  25.583   4.679
11513W        W83239  35.523  19.671   3.728
11514W        W83240   7.071   8.424   2.166
11515W        W83241  14.743  32.046  11.278
11516W        W83242  19.257  22.119  14.348
11517W        W83243  36.986  12.597   0.187
11518W        W83244   7.694   1.087  13.987
11519W        W83245  32.095  30.929  12.607
11520W        W83246   3.913  11.134  11.986
11521W        W83247  43.977  12.338  10.323
11522W        W83248  37.459  28.459  10.545
11523W        W83249  24.239   7.236   3.247
11524W        W83250  31.383  24.113  10.639
11525W        W83251   0.047   5.213  12.117
11526W        W83252  28.964   8.360   4.191
11527W        W83253  24.182  18.558   2.653
11528W        W83254  11.773   2.395  10.452
11529W        W83255  44.521  13.822  10.297
11530W        W83256  30.005  32.348  11.059
11531W        W83257  19.543  19.040  11.511
11532W        W83258  16.059  42.183   1.002
11533W        W83259  20.344  39.599  10.718
11534W        W83260   3.613   0.795  14.930
11535W        W83261  20.495  23.648   1.221
11536W        W83262   6.451   8.169  10.593
11537W        W83263  14.700  14.181  14.944
11538W        W83264   5.372   6.780  14.297
11539W        W83265  27.496   0.914  10.558
11540W        W83266  23.461  23.273  11.708
11541W        W83267  21.956  27.689  14.767
11542W        W83268   6.138  16.282   3.579
11543W        W83269   7.276  21.747   3.179
11544W        W83270  26.304   6.405  10.706
11545W        W83271   2.331  23.822   2.437
11546W        W83272  12.747  23.213   1.137
11547W        W83273  22.116  16.030   4.334
11548W        W83274  11.981   8.136  13.576
11549W        W83275  11.647   2.236  13.851
11550W        W83276  31.393  13.337  14.927
11551W        W83277   5.797  43.379   2.807
11552W        W83278  14.597  31.166   2.600
11553W        W83279  12.540  42.278  14.258
11554W        W83280  35.096  40.975   2.668
11555W        W83281  30.582  26.741  12.961
11556W        W83282  43.278  37.533   0.156
11557W        W83283  10.175  36.268  10.881
11558W        W83284  11.669  42.025  14.130
11559W        W83285  32.558  44.269   3.282
11560W        W83286  33.586  28.743   9.844
11561W        W83287  33.055  31.995   4.382
11562W        W83288  32.949   2.847   0.781
11563W        W83289  22.692  35.573  12.919
11564W        W83290  25.143  22.028   4.606
11565W        W83291  22.198   8.248  10.728
11566W        W83292  33.578  18.053   2.116
11567W        W83293  39.054   2.750  10.816
11568W        W83294  27.866  43.003   4.545
11569W        W83295   0.457  12.199   0.007
11570W        W83296  26.512  28.053  13.931
11571W        W83297  26.409   9.910  11.531
11572W        W83298  11.187  18.596   0.099
11573W        W83299  21.057  32.515  14.498
11574W        W83300  41.961   1.766   5.125
11575W        W83301   4.701  35.522   2.281
11576W        W83302  14.587  40.302   3.205
11577W        W83303  43.985  23.027   3.207
11578W        W83304  31.121   0.236   0.339
11579W        W83305  18.825   8.925  13.292
11580W        W83306  38.425   6.417   4.830
11581W        W83307  16.345  20.565   4.582
11582W        W83308  34.499  22.999  14.767
11583W        W83309   8.365  21.231  10.949
11584W        W83310  27.206  18.086   0.348
11585W        W83311  28.480  40.392   1.017
11586W        W83312   1.432  21.954   2.362
11587W        W83313  18.753  43.742   2.208
11588W        W83314  24.118  28.160   0.392
11589W        W83315   6.365   3.318   3.426
11590W        W83316  43.737  42.734  10.660
11591W        W83317   8.725  30.650   4.589
11592W        W83318  41.445  14.419   0.914
11593W        W83319  18.054   4.366   2.877
11594W        W83320  39.925  43.394   4.902
11595W        W83321  11.902   8.083   4.208
11596W        W83322  41.805  42.275   2.338
11597W        W83323  20.068   2.948  12.023
11598W        W83324   4.759   3.175   1.874
11599W        W83325  28.280  14.084  11.412
11600W        W83326  28.971  25.641   1.897
11601W        W83327   3.923  38.119  12.911
11602W        W83328  26.115  34.100  12.582
11603W        W83329  39.289  42.791   3.819
11604W        W83330  43.850  37.296  11.179
11605W        W83331  25.612   9.722   4.049
11606W        W83332  33.444  28.601   1.355
11607W        W83333  36.273  22.657   4.084
11608W        W83334  40.888   3.751   4.378
11609W        W83335  20.819  11.683  11.091
11610W        W83336  44.004  36.009  13.053
11611W        W83337   2.338  25.754  10.653
11612W        W83338  21.796  39.596   0.743
11613W        W83339  33.111  33.013   3.648
11614W        W83340  39.756  15.681  14.437
11615W        W83341   2.698   5.300   0.291
11616W        W83342  40.443   6.437   4.629
11617W        W83343  43.574  29.519   2.343
11618W        W83344  39.033  17.845   0.747
11619W        W83345  21.975   2.819  13.881
11620W        W83346  33.694  35.117  14.940
11621W        W83347   8.143  40.541  11.768
11622W        W83348  18.359  19.476   3.213
11623W        W83349   4.246  17.178   2.757
11624W        W83350   3.622  29.507  13.935
11625W        W83351   7.870  34.375  11.663
11626W        W83352   2.315  34.095   1.380
11627W        W83353  20.109  28.237   4.720
11628W        W83354   9.001   8.942  12.980
11629W        W83355  40.075  22.793  14.471
11630W        W83356   4.184  33.302  11.123
11631W        W83357  23.745  27.640   0.206
11632W        W83358  36.871  15.597  14.442
11633W        W83359   8.399  23.346  13.903
11634W        W83360  23.633  11.747   3.064
11635W        W83361  30.242  17.199   3.657
11636W        W83362   4.243  38.902  11.090
11637W        W83363   5.710  16.889  12.911
11638W        W83364  24.141  18.169   4.390
11639W        W83365  15.711  27.399   1.733
11640W        W83366  10.416  17.311   4.377
11641W        W83367   0.243  10.639   2.085
11642W        W83368  29.459  20.734   0.437
11643W        W83369  10.669   2.199  13.537
11644W        W83370  13.204  27.242  13.400
11645W        W83371  39.734  17.268  14.107
11646W        W83372   1.841  22.719  14.067
11647W        W83373  15.644  12.439  14.570
11648W        W83374   9.219   4.019   3.137
11649W        W83375   4.603  20.753   0.023
11650W        W83376  32.001  30.624   2.136
11651W        W83377  14.652  26.464  10.060
11652W        W83378   2.441  24.595   0.479
11653W        W83379  28.707  28.079   2.235
11654W        W83380  25.890  32.960  13.056
11655W        W83381   8.334  10.704  11.639
11656W        W83382   8.712  24.547   2.393
11657W        W83383  21.577  37.361  14.778
11658W        W83384  19.278  31.724   2.718
11659W        W83385  12.095  11.412   1.474
11660W        W83386  18.601  28.450   3.293
11661W        W83387   2.696  25.732  14.931
11662W        W83388  11.408  16.790  14.687
11663W        W83389  36.102  24.033  10.719
11664W        W83390  42.587   7.779   3.967
11665W        W83391   4.265   5.136   0.821
11666W        W83392   5.092   2.590  14.768
11667W        W83393   1.816  40.609   3.074
11668W        W83394  25.133  21.166  11.505
11669W        W83395  37.811   4.004  13.795
11670W        W83396   7.241  20.029  13.844
11671W        W83397  12.877  29.083   3.826
11672W        W83398  14.877  18.801  11.687
11673W        W83399  41.905  19.507   4.548
11674W        W83400  19.033  12.713   1.751
11675W        W83401  13.670  26.519   3.836
11676W        W83402  33.914  41.077  14.440
11677W        W83403  19.367  36.335  11.109
11678W        W83404  44.966  21.699   2.264
11679W        W83405   0.798  22.945   1.997
11680W        W83406   9.866  15.031   5.106
11681W        W83407  40.628  28.527   1.388
11682W        W83408  33.086  16.581   0.482
11683W        W83409  40.509  42.847   0.384
11684W        W83410  43.473  13.750  11.930
11685W        W83411  24.098  38.072   4.519
11686W        W83412   6.773  37.413   1.720
11687W        W83413  35.829   2.275   0.324
11688W        W83414  40.315  33.977  12.252
11689W        W83415  13.243  32.658  13.341
11690W        W83416  21.707  33.694  11.140
11691W        W83417  24.028  36.647   3.227
11692W        W83418  12.869  30.601   3.116
11693W        W83419  41.592   3.351  10.737
11694W        W83420  20.597  32.717  12.815
11695W        W83421  38.387  42.966  13.479
11696W        W83422  10.653   5.497  13.398
11697W        W83423   3.408  21.557  14.192
11698W        W83424   4.681  33.653  12.000
11699W        W83425   6.618   2.480   1.297
11700W        W83426  41.009  16.576  11.267
11701W        W83427  24.218  33.048   1.330
11702W        W83428  23.136  43.872  14.996
11703W        W83429  40.453   1.034  13.369
11704W        W83430  20.556  10.023   1.655
11705W        W83431  17.717  10.212   0.979
11706W        W83432   9.054  12.863   1.274
11707W        W83433   3.008  24.645   0.326
11708W        W83434  34.336   2.317   0.662
11709W        W83435  19.462  28.358  14.744
11710W        W83436  19.614   4.763  14.281
11711W        W83437  15.226   9.000   3.802
11712W        W83438  13.288  35.215  13.381
11713W        W83439  25.186  20.719  10.586
11714W        W83440  44.204  34.658   1.127
11715W        W83441   9.361  37.785  11.579
11716W        W83442  21.588   0.943  14.297
11717W        W83443  27.637  41.685   1.110
11718W        W83444  15.062  10.627   0.930
11719W        W83445  27.482  32.053  14.934
11720W        W83446   4.669  12.162   0.300
11721W        W83447  20.561  18.342   0.909
11722W        W83448  33.193  39.024   1.328
11723W        W83449  24.702  41.500   0.423
11724W        W83450   1.968  28.862  11.073
11725W        W83451   1.900   2.857   0.175
11726W        W83452  41.071  29.614   3.098
11727W        W83453  25.729  44.278  14.911
11728W        W83454  40.444   3.777  11.557
11729W        W83455   6.671  13.295   5.086
11730W        W83456  36.423   3.028   0.281
11731W        W83457  29.250   0.880   2.266
11732W        W83458  21.112  26.230   0.948
11733W        W83459  44.907  33.504   1.490
11734W        W83460  34.819  35.383  12.928
11735W        W83461  20.946  20.179  13.336
11736W        W83462   5.688  15.140   2.840
11737W        W83463  14.579   9.807  11.226
11738W        W83464  27.210  11.333  13.986
11739W        W83465  10.212  24.779   2.892
11740W        W83466  44.793   6.567  12.151
11741W        W83467   6.641  27.742  11.262
11742W        W83468   3.386  34.118  12.083
11743W        W83469   4.808  42.097  11.566
11744W        W83470  43.728  44.022  11.753
11745W        W83471  34.561   3.443   1.410
11746W        W83472  40.996  25.531  11.151
11747W        W83473  36.916   0.995   1.252
11748W        W83474   4.386  41.473   2.840
11749W        W83475   6.810  16.120   9.772
11750W        W83476  26.898  31.454  11.653
11751W        W83477  11.631  27.375  14.218
11752W        W83478   9.215  26.720  10.445
11753W        W83479  44.878  14.088   0.279
11754W        W83480  37.369  34.629   2.851
11755W        W83481  40.168  39.851  10.997
11756W        W83482  25.745  23.016   1.698
11757W        W83483   7.254  12.560   1.292
11758W        W83484  25.632  41.044   1.279
11759W        W83485  12.210  14.223  14.704
11760W        W83486  29.043   8.869  14.272
11761W        W83487  10.466  26.129   1.227
11762W        W83488  28.457  14.232  12.971
11763W        W83489  31.917  29.450   2.264
11764W        W83490   3.181  38.571   1.379
11765W        W83491  17.200  15.349  10.997
11766W        W83492  25.792   7.546  11.632
11767W        W83493  31.620  27.703  10.783
11768W        W83494   6.292  33.190  11.963
11769W        W83495  24.138  37.433  12.016
11770W        W83496  32.378   3.711   0.260
11771W        W83497  22.688  39.588  11.134
11772W        W83498  42.792  28.790  14.253
11773W        W83499  39.753  33.568   4.403
11774W        W83500  41.535  38.983   2.582
11775W        W83501  14.095  31.840   2.754
11776W        W83502  24.799   9.781  12.171
11777W        W83503   8.856  21.658   2.394
11778W        W83504   6.878  22.593   4.522
11779W        W83505  30.043   3.495  10.825
11780W        W83506  35.682  12.262   4.198
11781W        W83507   5.677   4.017  14.289
11782W        W83508  10.356  32.020   1.017
11783W        W83509  43.311  43.519  11.488
11784W        W83510  32.020  16.780  13.011
11785W        W83511  38.047  44.316  11.046
11786W        W83512  42.898   5.228   2.979
11787W        W83513  21.128   2.198  14.738
11788W        W83514   7.606   2.396  12.147
11789W        W83515   7.260  15.013   2.809
11790W        W83516  20.174  19.770  10.341
11791W        W83517  31.886  11.957   3.568
11792W        W83518  10.122  12.584   3.535
11793W        W83519   7.386  43.246   3.596
11794W        W83520  27.392  36.527   4.319
11795W        W83521  12.333  37.789  12.662
11796W        W83522   3.938   3.249   4.577
11797W        W83523  42.449  21.311   3.650
11798W        W83524   2.175   7.694   3.085
11799W        W83525  36.802  38.282  13.982
11800W        W83526   9.995  29.423  14.691
11801W        W83527  19.188   7.312  11.884
11802W        W83528  22.139   7.385   2.479
11803W        W83529  36.435  17.883   0.410
11804W        W83530   3.679  39.393   4.286
11805W        W83531   7.722  14.584   4.496
11806W        W83532  11.773  11.587   1.858
11807W        W83533  11.937  38.441  14.906
11808W        W83534  34.134  24.741   2.394
11809W        W83535  36.598  22.783  12.053
11810W        W83536  20.303  26.054  10.587
11811W        W83537   8.253   4.007  14.803
11812W        W83538   8.506  33.383  14.040
11813W        W83539   1.361  43.922   2.488
11814W        W83540   4.497  12.904  10.555
11815W        W83541  21.665  32.543  12.132
11816W        W83542  36.051   8.150  12.050
11817W        W83543  38.572  18.442  12.834
11818W        W83544   6.138  27.178  12.545
11819W        W83545   9.688  32.389  13.336
11820W        W83546  36.669  11.649   4.790
11821W        W83547  24.724  21.957  12.605
11822W        W83548  20.675  12.607   3.725
11823W        W83549   2.975  24.631   3.292
11824W        W83550  32.941  26.566  10.093
11825W        W83551  19.540   9.452   2.307
11826W        W83552  12.638   0.283  14.234
11827W        W83553  38.397  24.152  13.090
11828W        W83554   6.304  42.489   3.391
11829W        W83555  41.608  20.632  14.902
11830W        W83556   4.751  28.562   5.096
11831W        W83557  33.006  27.961   4.642
11832W        W83558  27.601  25.277   3.200
11833W        W83559  12.830  20.643   0.020
11834W        W83560  31.075  10.524   1.678
11835W        W83561  36.448  39.252   2.272
11836W        W83562  25.525  18.651  10.795
11837W        W83563  16.121  15.821  14.263
11838W        W83564  43.219  10.672  11.125
11839W        W83565   9.822  31.854  13.508
11840W        W83566  18.788  31.225  13.862
11841W        W83567  38.656  15.475  12.989
11842W        W83568   6.866   4.934   0.362
11843W        W83569  12.558  41.822  12.976
11844W        W83570  16.321  22.982   3.261
11845W        W83571   3.421  31.441  12.984
11846W        W83572  10.982  35.458  13.989
11847W        W83573  23.611  32.912   3.123
11848W        W83574   6.491  30.340   2.914
11849W        W83575  12.632  32.892   1.404
11850W        W83576  28.935  10.717  12.099
11851W        W83577  26.694  32.691  14.254
11852W        W83578  26.619  27.536   3.050
11853W        W83579  44.473   6.371   2.798
11854W        W83580   1.250  30.994  10.614
11855W        W83581  39.930  13.171  13.357
11856W        W83582  32.165  35.059   4.668
11857W        W83583  18.392   9.084  14.567
11858W        W83584  15.007   7.116   0.832
11859W        W83585   7.781  17.435  13.868
11860W        W83586   2.361   8.894  11.237
11861W        W83587  10.241   6.911   0.910
11862W        W83588   3.107   7.254   4.298
11863W        W83589  17.690  29.454   2.127
11864W        W83590  31.886   9.198  12.654
11865W        W83591  36.668  43.871  11.115
11866W        W83592  23.604  36.481  13.123
11867W        W83593  14.289   4.708   1.736
11868W        W83594  44.972  14.888  14.052
11869W        W83595  15.275  36.432   3.831
11870W        W83596  25.677  35.970  14.883
11871W        W83597  35.391  13.618  10.791
11872W        W83598  15.007  33.182   0.534
11873W        W83599  13.344  14.704   2.784
11874W        W83600  36.084  11.305   0.898
11875W        W83601  37.694  16.882  13.598
11876W        W83602  21.737  34.312  13.377
11877W        W83603  26.773  43.264   0.494
11878W        W83604  29.580   2.600  12.647
11879W        W83605  14.274  30.391  11.520
11880W        W83606  35.359   2.368   0.511
11881W        W83607  27.570  44.379   4.697
11882W        W83608   9.597  25.257   1.865
11883W        W83609  26.007  24.012  14.906
11884W        W83610  14.061  41.897  14.001
11885W        W83611   3.012  20.209  11.598
11886W        W83612  21.744  16.517  13.491
11887W        W83613  31.986  37.718   4.190
11888W        W83614  15.995  36.564  14.424
11889W        W83615   9.271   1.382  10.727
11890W        W83616  31.205  21.183   1.308
11891W        W83617  34.617  22.054   4.216
11892W        W83618  21.088  21.795  11.575
11893W        W83619  15.244   6.358   1.367
11894W        W83620   9.147   5.741   2.324
11895W        W83621  29.140  28.418  10.771
11896W        W83622  12.083  30.835   1.210
11897W        W83623  18.376  11.719   4.588
11898W        W83624  18.080  34.589   2.401
11899W        W83625  37.901  22.087   3.653
11900W        W83626  21.704   2.927  10.803
11901W        W83627  23.056  29.029  10.849
11902W        W83628   4.896  34.860   0.322
11903W        W83629  19.486  24.633  14.391
11904W        W83630  20.191  36.408   2.949
11905W        W83631  23.703  36.637  11.521
11906W        W83632  13.418   3.612  14.466
11907W        W83633  17.560   4.861   1.907
11908W        W83634  12.441   4.315  13.888
11909W        W83635  38.916  32.363   1.775
11910W        W83636  30.007  23.670   1.893
11911W        W83637  37.353  31.779   1.772
11912W        W83638  20.084  23.760  14.335
11913W        W83639  35.792  37.982  10.972
11914W        W83640  31.366  11.902  14.503
11915W        W83641   1.618   2.248  13.697
11916W        W83642  40.275  12.598  14.449
11917W        W83643  39.158  37.454   2.333
11918W        W83644   4.307  37.053   2.688
11919W        W83645   4.841   3.391   2.831
11920W        W83646   7.912  15.362   3.886
11921W        W83647  22.485   5.075   0.805
11922W        W83648  21.376  21.246   2.038
11923W        W83649  31.132  43.911   4.152
11924W        W83650  34.453  18.346  11.708
11925W        W83651  33.212  28.228  13.809
11926W        W83652   7.751  44.027   4.651
11927W        W83653  43.090   0.782  13.484
11928W        W83654  14.044  33.057  12.868
11929W        W83655  38.732  14.492   0.322
11930W        W83656  31.205  41.614  10.083
11931W        W83657  17.995  44.045   3.301
11932W        W83658  15.081  14.732   0.875
11933W        W83659   6.436   4.665   0.251
11934W        W83660  32.071  21.725   0.379
11935W        W83661  12.093  35.058   2.293
11936W        W83662  43.295  19.158   1.681
11937W        W83663  42.781   6.018   1.176
11938W        W83664  36.978  24.344  12.957
11939W        W83665   6.729  18.198  13.068
11940W        W83666  32.086  25.547  11.107
11941W        W83667  12.681  40.517   3.205
11942W        W83668  15.297  31.895  13.755
11943W        W83669  17.772   0.356   4.121
11944W        W83670   7.351   1.407  10.711
11945W        W83671  31.662  38.699  11.511
11946W        W83672  39.508  22.780  10.369
11947W        W83673  19.748  19.730  11.622
11948W        W83674  27.600   6.994   3.225
11949W        W83675   3.699  43.323  11.153
11950W        W83676  26.040  38.154   4.215
11951W        W83677  33.704  28.754  10.926
11952W        W83678   0.370  39.939  11.871
11953W        W83679  26.483   0.665  13.298
11954W        W83680  12.878  25.044  13.840
11955W        W83681  19.701   2.489   0.248
11956W        W83682  15.535  18.326  10.129
11957W        W83683  19.123  20.694   2.366
11958W        W83684  21.940  30.703  13.403
11959W        W83685  34.851  27.777   1.381
11960W        W83686  13.290  35.926   2.409
11961W        W83687  39.505  12.210   4.068
11962W        W83688  41.934  19.731   1.196
11963W        W83689  42.647   7.992  14.382
11964W        W83690  17.538  22.505   4.773
11965W        W83691  36.142  19.441  12.391
11966W        W83692  35.233  11.621   2.140
11967W        W83693  20.658  22.040   4.929
11968W        W83694  32.106  27.540   0.072
11969W        W83695  31.888  40.058   1.331
11970W        W83696   6.961   6.736   3.796
11971W        W83697  11.238  12.520   3.369
11972W        W83698  20.880  24.383   2.416
11973W        W83699  30.158  30.943   4.589
11974W        W83700  18.740  39.267  10.968
11975W        W83701  23.917  30.162  12.542
11976W        W83702  35.297  30.980  10.741
11977W        W83703  31.966  14.374   0.733
11978W        W83704  12.650  28.083  13.403
11979W        W83705  24.244  18.326   3.121
11980W        W83706  22.292  24.203   3.637
11981W        W83707  34.176   0.933   3.397
11982W        W83708  28.089  17.915   1.159
11983W        W83709   4.502   3.402   1.462
11984W        W83710  44.032  13.973   5.092
11985W        W83711   0.881  30.791   3.643
11986W        W83712  41.039  15.544  13.851
11987W        W83713  13.772  31.380   0.189
11988W        W83714  36.405  29.681  12.881
11989W        W83715   1.378   5.943  11.547
11990W        W83716  16.717  12.414  13.002
11991W        W83717  15.054  36.133  12.548
11992W        W83718  13.879  32.187  11.463
11993W        W83719  16.575  29.601  12.854
11994W        W83720  28.473   5.938   0.389
11995W        W83721  27.397  23.519  13.881
11996W        W83722   7.810   0.373   1.259
11997W        W83723  30.122  15.519  14.826
11998W        W83724   6.737   5.328  11.868
11999W        W83725  12.399  18.081  11.568
12000W        W83726  13.579   0.503  11.182
12001W        W83727  22.843  43.262   2.827
12002W        W83728  23.520   4.330  11.421
12003W        W83729  33.214  35.512  14.301
12004W        W83730   5.452  22.993  11.079
12005W        W83731  27.473  35.626   4.494
12006W        W83732  19.548  15.916  11.547
12007W        W83733  20.596  18.539   3.676
12008W        W83734  20.560  18.142  13.963
12009W        W83735  27.649  33.859   1.143
12010W        W83736  11.296  33.888   5.584
12011W        W83737  13.410   3.143   0.742
12012W        W83738   7.295  39.734  12.722
12013W        W83739  36.814  37.978  13.558
12014W        W83740  29.420  40.606   2.565
12015W        W83741  29.672  38.926  14.256
12016W        W83742  29.847  28.445   3.270
12017W        W83743  22.041  12.857   2.166
12018W        W83744  28.996  15.820   2.872
12019W        W83745   9.900   3.447  14.326
12020W        W83746   7.927  15.397   1.135
12021W        W83747   9.978  15.259  14.857
12022W        W83748  39.794   2.597  11.138
12023W        W83749  15.645   2.720   4.555
12024W        W83750  27.378  41.447  11.625
12025W        W83751  18.682  28.167   0.457
12026W        W83752  39.990   5.057  12.540
12027W        W83753  31.020  38.439   2.124
12028W        W83754  35.851  16.704   1.825
12029W        W83755  35.051  30.136  10.368
12030W        W83756  22.546  43.303   1.390
12031W        W83757  43.910  15.745  14.317
12032W        W83758  24.276  39.865  12.515
12033W        W83759  34.246  25.610   1.877
12034W        W83760  26.485  13.875  14.806
12035W        W83761  31.891  10.386   3.085
12036W        W83762  20.642   2.563  13.016
12037W        W83763  23.927  43.845   3.740
12038W        W83764   4.440  28.935   1.838
12039W        W83765  30.943   0.279   3.606
12040W        W83766  11.656  42.021   1.603
12041W        W83767  23.092  25.541   9.804
12042W        W83768  36.705   2.125  14.562
12043W        W83769  21.541  10.324  11.972
12044W        W83770  13.874  19.625   2.767
12045W        W83771  21.457  42.231  12.042
12046W        W83772  21.689   2.432  10.581
12047W        W83773  35.614  29.556   4.199
12048W        W83774  42.356  35.031   3.650
12049W        W83775  10.108  13.299  14.898
12050W        W83776  25.729  44.720  12.966
12051W        W83777  18.652  27.933  10.673
12052W        W83778   5.128  43.386   1.765
12053W        W83779  40.350  37.925   1.636
12054W        W83780  36.875  31.594  11.296
12055W        W83781   4.200   1.376   1.828
12056W        W83782  33.693  25.079  13.593
12057W        W83783  32.562  17.468   1.301
12058W        W83784  21.450  40.803   0.329
12059W        W83785  41.021   1.804   1.478
12060W        W83786  12.453  16.143  14.127
12061W        W83787   3.642  18.702  12.115
12062W        W83788  28.651  38.607  12.250
12063W        W83789  43.546  14.953   3.780
12064W        W83790  25.483  34.036  11.962
12065W        W83791  33.910  23.220   0.474
12066W        W83792  35.046  14.581   0.946
12067W        W83793  29.850  44.055   2.316
12068W        W83794  34.854  23.757  11.913
12069W        W83795  36.907  21.350  11.114
12070W        W83796  37.846   7.903   0.257
12071W        W83797  23.159  23.219   1.351
12072W        W83798   6.354   5.741  10.894
12073W        W83799  44.797  30.434  12.423
12074W        W83800   9.637  16.600  11.963
12075W        W83801  31.030  26.641   0.036
12076W        W83802  14.677  17.757  12.194
12077W        W83803  15.765   4.738   0.997
12078W        W83804  10.213  17.762  14.444
12079W        W83805   3.249  26.218   1.808
12080W        W83806  42.311  14.877  10.386
12081W        W83807  44.507  11.269   3.296
12082W        W83808  43.533  43.886   4.563
12083W        W83809  41.566  34.538   1.451
12084W        W83810  36.381  41.490  11.189
12085W        W83811   7.125  10.312  13.144
12086W        W83812   1.172  17.107  14.506
12087W        W83813  12.155  16.539   2.202
12088W        W83814  21.888  18.991   3.766
12089W        W83815  31.429  13.319   4.075
12090W        W83816   3.893  26.108   1.589
12091W        W83817  26.236  40.511  11.501
12092W        W83818  20.608  11.315   2.209
12093W        W83819  31.592  25.925   0.825
12094W        W83820  10.490  39.630  11.626
12095W        W83821  23.469  12.059  10.061
12096W        W83822   5.040  33.636  14.443
12097W        W83823  10.691   8.100  13.972
12098W        W83824  41.494  19.530  12.459
12099W        W83825  16.594   5.359   3.259
12100W        W83826   3.719  21.577   4.899
12101W        W83827  43.403  23.506   3.214
12102W        W83828   4.630  20.366   4.145
12103W        W83829  40.509  26.062   4.816
12104W        W83830  22.602  20.402  11.701
12105W        W83831   6.676  40.791   2.791
12106W        W83832   2.099  40.312   2.725
12107W        W83833   9.035  11.867   3.388
12108W        W83834   3.086  42.193   2.700
12109W        W83835  41.233  43.989  14.187
12110W        W83836  39.635  27.863   3.476
12111W        W83837   8.565   7.928  11.156
12112W        W83838  24.426  29.922  14.526
12113W        W83839   2.089  13.416  13.926
12114W        W83840  41.253  30.268   0.228
12115W        W83841  37.823  27.511   4.221
12116W        W83842  40.343  17.104   0.915
12117W        W83843  42.849  23.281   0.901
12118W        W83844   8.335  16.600   0.688
12119W        W83845  36.902  36.650   2.846
12120W        W83846  26.903  20.267   2.300
12121W        W83847  24.192   5.239  12.115
12122W        W83848  15.447   7.374   0.968
12123W        W83849  31.656  14.326   4.152
12124W        W83850   3.881   8.849   1.319
12125W        W83851  42.621   3.389   2.864
12126W        W83852   3.625  37.769   0.457
12127W        W83853  34.090   1.858   0.529
12128W        W83854  28.144  33.588   3.583
12129W        W83855   0.747  18.385  14.415
12130W        W83856  40.401  18.874  13.895
12131W        W83857  17.198   4.934  10.459
12132W        W83858  32.118  38.958  11.553
12133W        W83859  28.980  28.798   4.639
12134W        W83860  35.030  34.024   2.336
12135W        W83861   5.399  13.384   3.559
12136W        W83862  21.733   5.370   3.310
12137W        W83863  12.318   4.500   1.420
12138W        W83864  16.363  39.060   2.640
12139W        W83865  40.324  11.788  13.974
12140W        W83866  39.530  40.519   3.907
12141W        W83867  33.032  21.898  11.633
12142W        W83868  19.212  43.776  14.878
12143W        W83869  37.126  39.069   0.543
12144W        W83870  42.758  31.180   1.321
12145W        W83871   3.099  43.990  11.484
12146W        W83872  27.606   8.229  11.629
12147W        W83873  39.719  26.517   3.634
12148W        W83874  35.163  28.662   4.214
12149W        W83875  14.806   1.091   2.653
12150W        W83876  32.871  13.017   0.022
12151W        W83877   0.732  36.787   3.309
12152W        W83878  42.735  16.669  11.664
12153W        W83879   5.411  39.383   2.721
12154W        W83880  21.740  28.209  12.499
12155W        W83881   0.313  13.382  10.955
12156W        W83882  32.875  29.558   2.295
12157W        W83883   2.973  12.640  14.297
12158W        W83884   8.920   3.931  11.640
12159W        W83885  34.531   5.300   2.360
12160W        W83886  20.696  10.580  14.854
12161W        W83887  32.060   1.194  13.193
12162W        W83888  16.496  43.383   0.568
12163W        W83889  29.862  11.744   2.734
12164W        W83890   5.819  12.918   1.011
12165W        W83891  29.578  42.859   2.719
12166W        W83892   0.247  32.946   1.492
12167W        W83893  33.019   2.665  12.034
12168W        W83894  37.984  18.234  11.234
12169W        W83895  39.486  31.470  11.634
12170W        W83896  20.589  29.025   4.539
12171W        W83897  40.860  43.711  14.492
12172W        W83898  13.414  21.465   1.526
12173W        W83899   8.859  24.809  14.815
12174W        W83900  25.070  14.305  12.192
12175W        W83901  10.640  32.333  13.601
12176W        W83902   2.752  11.638   2.252
12177W        W83903   3.734  26.426  10.731
12178W        W83904  40.491  19.375  14.015
12179W        W83905  38.957  41.558   4.267
12180W        W83906   4.525  14.423   1.209
12181W        W83907  38.900  26.842  13.053
12182W        W83908  23.465   8.312  12.834
12183W        W83909  20.776  40.298   2.298
12184W        W83910  32.597  28.315  10.232
12185W        W83911  37.079  22.940  13.054
12186W        W83912  24.964   8.644   2.414
12187W        W83913  39.228  33.361   2.350
12188W        W83914  43.804  13.323   2.234
12189W        W83915  26.802  22.772   4.161
12190W        W83916  10.666  22.526   4.120
12191W        W83917  37.317   5.255   4.107
12192W        W83918   3.751  36.477  13.436
12193W        W83919   7.921   6.723  10.966
12194W        W83920  30.053   5.901   4.684
12195W        W83921  24.183  31.891  13.141
12196W        W83922  21.967  38.929   1.833
12197W        W83923  43.588  44.974  12.426
12198W        W83924  36.531   7.289   0.056
12199W        W83925  41.523  33.708   0.343
12200W        W83926  31.817   7.685   0.258
12201W        W83927   0.417  16.506  14.421
12202W        W83928  21.508  14.994  12.439
12203W        W83929   6.804  35.960  11.959
12204W        W83930  10.152  33.962   4.434
12205W        W83931  23.837   6.937   4.685
12206W        W83932  19.513  20.121  10.606
12207W        W83933  25.460  24.778   4.087
12208W        W83934  22.203   7.258   2.968
12209W        W83935   6.469  39.987  13.938
12210W        W83936  11.171   9.801   2.262
12211W        W83937  28.339   3.879   0.454
12212W        W83938  34.317  20.619  12.071
12213W        W83939   9.892   5.230  14.958
12214W        W83940  11.369  25.246   2.456
12215W        W83941   0.656  18.115   1.474
12216W        W83942   5.967  39.820   2.888
12217W        W83943  31.601  31.530  12.831
12218W        W83944  25.165  33.449   1.433
12219W        W83945   7.437   4.367  10.512
12220W        W83946  10.956  10.926  12.145
12221W        W83947  29.973  44.275  14.052
12222W        W83948  24.711  34.917  13.439
12223W        W83949  25.088  41.876   3.747
12224W        W83950  37.903  23.702   0.891
12225W        W83951  34.869  13.112  12.440
12226W        W83952   3.843  27.620  11.075
12227W        W83953  38.224  18.800   1.197
12228W        W83954  36.588  24.762   0.928
12229W        W83955  32.424  24.197  13.218
12230W        W83956  39.966  25.719   2.261
12231W        W83957  15.058  28.527   1.915
12232W        W83958   8.245  44.823   2.883
12233W        W83959  35.487  17.224   4.635
12234W        W83960  29.417  25.388   1.844
12235W        W83961  40.052  43.172   0.570
12236W        W83962  15.179   7.415   1.909
12237W        W83963   4.467  44.148   3.810
12238W        W83964  25.491   2.352  12.570
12239W        W83965  18.208  20.502  14.322
12240W        W83966  23.468  15.651   1.182
12241W        W83967   5.308  12.089  12.683
12242W        W83968  16.645   0.784   3.160
12243W        W83969  29.203  38.477   3.165
12244W        W83970  28.578   5.362  12.532
12245W        W83971  31.927  34.395  14.880
12246W        W83972  14.786  41.607   1.108
12247W        W83973  10.234  44.863   0.479
12248W        W83974  27.674  44.688   1.234
12249W        W83975  23.978  13.122  13.522
12250W        W83976   6.720  24.050   0.256
12251W        W83977   2.866  34.645   3.615
12252W        W83978  39.431  32.391   4.464
12253W        W83979  26.519  36.060  14.332
12254W        W83980  40.812   1.929   1.009
12255W        W83981  43.289  37.313  12.443
12256W        W83982  44.595  22.080   1.455
12257W        W83983  44.269  24.325  13.010
12258W        W83984   2.038  38.587   2.242
12259W        W83985  13.066  14.262   2.738
12260W        W83986  36.068  40.939  10.683
12261W        W83987  18.419  40.260  11.644
12262W        W83988   8.342   8.746   5.146
12263W        W83989  22.252  10.207  13.466
12264W        W83990  29.410   8.027   2.460
12265W        W83991   2.898  16.994   2.040
12266W        W83992   8.147  22.742  12.939
12267W        W83993   1.834  14.489  11.438
12268W        W83994  40.676  35.574  11.057
12269W        W83995  12.389  33.477   1.397
12270W        W83996  16.167  11.380  11.144
12271W        W83997  43.037  42.894   3.626
12272W        W83998  17.746  17.254   3.842
12273W        W83999  21.113  33.220  12.950
12274W        W84000  16.127  22.123  11.856
12275W        W84001  29.521   4.704  13.930
12276W        W84002   9.299  26.224  13.833
12277W        W84003  13.673   4.243   3.718
12278W        W84004   6.471  36.723  13.349
12279W        W84005   5.554  18.775  14.793
12280W        W84006  28.217  10.758  12.981
12281W        W84007  18.143  26.961   2.441
12282W        W84008   7.147  16.720  13.733
12283W        W84009   2.977  26.976  14.385
12284W        W84010  20.140   9.192  11.570
12285W        W84011  30.412  31.841   5.053
12286W        W84012  12.625  23.697   1.775
12287W        W84013  32.463   8.445   0.785
12288W        W84014  22.093  16.095   4.855
12289W        W84015  14.460  24.214  13.512
12290W        W84016  36.381  27.981  11.741
12291W        W84017  28.970  43.882   1.824
12292W        W84018  41.961  13.535  12.167
12293W        W84019  19.316   3.768   2.782
12294W        W84020  26.081  16.884   1.204
12295W        W84021   2.403  10.387  12.938
12296W        W84022  25.180  35.154  13.476
12297W        W84023   9.232  38.027  12.432
12298W        W84024  40.432  35.960  12.804
12299W        W84025   2.898  44.581   1.209
12300W        W84026  38.406  22.716  11.213
12301W        W84027  28.099  32.639  13.446
12302W        W84028   7.175  11.074  10.604
12303W        W84029  24.082   2.548  12.536
12304W        W84030  23.120  31.629   4.780
12305W        W84031   8.812  15.866  14.528
12306W        W84032  21.074  16.499   1.481
12307W        W84033  41.104  19.769  13.317
12308W        W84034   7.286  41.746  14.398
12309W        W84035  19.190  23.531   3.929
12310W        W84036  16.252  35.620   3.657
12311W        W84037  26.537  23.229  12.777
12312W        W84038  25.764  17.779   1.849
12313W        W84039  43.703  29.767   0.384
12314W        W84040   6.948  11.350   2.940
12315W        W84041  11.858   4.406  12.901
12316W        W84042  32.991  28.971   4.472
12317W        W84043  43.841   5.341   2.932
12318W        W84044  14.592  40.823   2.456
12319W        W84045  31.183  28.432   3.656
12320W        W84046  42.063   0.401   2.263
12321W        W84047  12.732  30.022   0.077
12322W        W84048  17.631  21.536   4.311
12323W        W84049  21.638  26.859   3.918
12324W        W84050   9.304  40.012  12.479
12325W        W84051  22.082  44.734   1.920
12326W        W84052  32.856   4.752  14.428
12327W        W84053   8.681  26.428   3.166
12328W        W84054  41.564  33.833   4.101
12329W        W84055  27.615  28.337   2.401
12330W        W84056  34.905   3.314   3.489
12331W        W84057  37.074   9.986   1.365
12332W        W84058   0.497  43.934  14.779
12333W        W84059  28.502  36.652  12.178
12334W        W84060  11.286  11.173  14.979
12335W        W84061  20.714  26.574   3.855
12336W        W84062  39.792   9.780   3.150
12337W        W84063  14.430  11.574   5.029
12338W        W84064  28.727  25.634   3.281
12339W        W84065   0.378  42.655   3.382
12340W        W84066  15.639  26.537  12.403
12341W        W84067  29.632   4.896   0.885
12342W        W84068  11.732   8.234   0.946
12343W        W84069  22.944  11.780   2.217
12344W        W84070  31.895  11.103   4.640
12345W        W84071  15.086   9.018   0.276
12346W        W84072   3.077  21.029   3.768
12347W        W84073  24.240   7.177  12.188
12348W        W84074  19.002  36.851   1.682
12349W        W84075  43.345  35.500   1.697
12350W        W84076  33.553  34.839  11.468
12351W        W84077  13.343  21.034   2.218
12352W        W84078  27.994  25.666   4.360
12353W        W84079  44.562  26.003  13.332
12354W        W84080   3.167  38.980  11.878
12355W        W84081   0.438  13.405   2.191
12356W        W84082  17.607  41.997   4.621
12357W        W84083  43.736  21.358  11.175
12358W        W84084  23.844  25.773  13.439
12359W        W84085  36.016  16.537   0.804
12360W        W84086  34.472   9.705  11.560
12361W        W84087  21.121  29.652   0.342
12362W        W84088  27.818   1.799   3.167
12363W        W84089  32.482  17.617   3.894
12364W        W84090   2.353  24.359  13.742
12365W        W84091  23.210  14.671  12.392
12366W        W84092  13.117  11.101   0.268
12367W        W84093  39.922  39.701  14.934
12368W        W84094  39.594  13.526   2.381
12369W        W84095  33.163  27.884   1.322
12370W        W84096  11.307   9.656  13.772
12371W        W84097  33.354  39.368  14.605
12372W        W84098  16.085  17.213   4.586
12373W        W84099  35.575  34.277   2.456
12374W        W84100  37.858  29.218   3.830
12375W        W84101   9.345  24.883   3.058
12376W        W84102   3.425   2.574  12.515
12377W        W84103  22.012  38.064  13.175
12378W        W84104  20.027  30.107  12.066
12379W        W84105  31.662   9.408   0.011
12380W        W84106  22.399   3.430   2.345
12381W        W84107  25.679  23.981   2.638
12382W        W84108  43.400   4.347   3.717
12383W        W84109  12.101  29.081   3.345
12384W        W84110   0.710  20.041   4.070
12385W        W84111  29.894  16.855   0.292
12386W        W84112   6.125  44.827   3.978
12387W        W84113  11.107  27.505  12.365
12388W        W84114  19.973   8.526   5.210
12389W        W84115  34.026  16.049   3.935
12390W        W84116  32.908  39.528  14.381
12391W        W84117   2.196   4.282   1.416
12392W        W84118   2.716  22.441   4.653
12393W        W84119  14.959   7.741  11.563
12394W        W84120   2.267  41.945  11.922
12395W        W84121  10.972  25.045  14.288
12396W        W84122  35.065   3.383   1.752
12397W        W84123  34.285  26.525  13.358
12398W        W84124  36.006  32.354   4.660
12399W        W84125  31.417  20.579  14.142
12400W        W84126  27.472  24.269  12.531
12401W        W84127  44.478  28.225  11.134
12402W        W84128  33.126  15.423   3.281
12403W        W84129  21.762  28.452  13.601
12404W        W84130   8.514  20.020   3.710
12405W        W84131  24.988   1.981   0.037
12406W        W84132   6.322  13.622  10.169
12407W        W84133  22.022  25.111   9.801
12408W        W84134  10.451  29.868  10.522
12409W        W84135  28.622  37.058  14.787
12410W        W84136  18.224  29.558  13.981
12411W        W84137  11.794  36.251  13.916
12412W        W84138  18.194  35.604   2.187
12413W        W84139   6.264  16.542   0.272
12414W        W84140  22.742  17.789  11.384
12415W        W84141  31.492  33.483   0.479
12416W        W84142  33.366  32.869   4.296
12417W        W84143  11.011   6.233   1.682
12418W        W84144  30.130  20.153   0.174
12419W        W84145  22.242  29.412  14.686
12420W        W84146  27.385  23.212   3.071
12421W        W84147   7.297  14.841  11.014
12422W        W84148   7.221   2.971  11.691
12423W        W84149  25.628  33.424  13.451
12424W        W84150  29.273   6.207   0.958
12425W        W84151  15.038  10.110  11.200
12426W        W84152   7.833  23.761   4.549
12427W        W84153  33.198   2.813   0.327
12428W        W84154  37.739  42.512   4.814
12429W        W84155  33.436   0.061   4.131
12430W        W84156   0.213  10.139   4.601
12431W        W84157  40.501  27.394  13.952
12432W        W84158  13.163  25.801  13.708
12433W        W84159   7.578   9.310  10.776
12434W        W84160   9.715   7.005   1.732
12435W        W84161  25.470  15.993  13.729
12436W        W84162  36.509   3.858  14.015
12437W        W84163  18.623  28.171  13.665
12438W        W84164  34.063  27.950   0.301
12439W        W84165  36.925  43.223   2.220
12440W        W84166   3.731  24.683   4.311
12441W        W84167   0.430   4.463  12.457
12442W        W84168   2.466   4.751  12.923
12443W        W84169  17.572  32.983   3.869
12444W        W84170  29.042   5.144  12.334
12445W        W84171  43.728  42.464   4.961
12446W        W84172  20.546  16.813   2.807
12447W        W84173  37.673  43.436   1.787
12448W        W84174  41.596  37.601   1.669
12449W        W84175  21.549  21.156   0.453
12450W        W84176  33.025  11.236  11.135
12451W        W84177  12.021  36.376   4.096
12452W        W84178   7.640  22.652   1.681
12453W        W84179  32.940  23.081  10.566
12454W        W84180   9.504  16.673  13.310
12455W        W84181   5.780  11.263   4.382
12456W        W84182  27.893  31.192   0.345
12457W        W84183  42.518  24.222   0.926
12458W        W84184   2.833  17.678  11.102
12459W        W84185  24.825  39.818  10.708
12460W        W84186  21.648  32.237   2.010
12461W        W84187  19.259  13.536   2.115
12462W        W84188  44.391   4.308   3.368
12463W        W84189  14.349  26.076   1.761
12464W        W84190  31.162  10.572   0.850
12465W        W84191  43.856   6.586   0.251
12466W        W84192  16.494  30.980   0.247
12467W        W84193  39.759  33.374  10.564
12468W        W84194  11.629  28.565   2.295
12469W        W84195  26.221  34.983   1.676
12470W        W84196  25.458  27.946  14.809
12471W        W84197  14.311  44.446  11.657
12472W        W84198   8.689  16.253   1.891
12473W        W84199  12.725  23.944  14.486
12474W        W84200   8.738  40.499   4.319
12475W        W84201  23.853   0.083   5.408
12476W        W84202  15.011   3.896   1.322
12477W        W84203  41.793  32.012  14.009
12478W        W84204  15.251  43.194  13.378
12479W        W84205   6.726  42.843   4.028
12480W        W84206  21.680  13.080  12.095
12481W        W84207  23.238  28.048   0.555
12482W        W84208   4.506  38.456   1.784
12483W        W84209  42.018  17.978  11.658
12484W        W84210   1.949   7.254   1.339
12485W        W84211  31.261   8.646   3.192
12486W        W84212  17.226   7.139  14.016
12487W        W84213   7.455  17.750  11.638
12488W        W84214  25.736  33.607  10.324
12489W        W84215  42.630  43.333   4.452
12490W        W84216  30.985  44.597   2.271
12491W        W84217  11.600  25.736   2.390
12492W        W84218  13.253  22.410   3.314
12493W        W84219  33.814   7.225   4.595
12494W        W84220  43.816  35.313   3.149
12495W        W84221  32.013  43.468   1.196
12496W        W84222  26.601  10.542   0.364
12497W        W84223  31.878  41.480   0.370
12498W        W84224  36.934  33.348   0.842
12499W        W84225  31.494   6.921  10.529
12500W        W84226  16.102  10.210  13.144
12501W        W84227  38.962   0.661   4.063
12502W        W84228  20.592  35.607  13.986
12503W        W84229  36.072  30.511  14.942
12504W        W84230  41.825   1.854  12.980
12505W        W84231  24.267  27.205   2.721
12506W        W84232  18.568  14.211   0.327
12507W        W84233   5.341  11.105   1.791
12508W        W84234  27.751  12.063   4.458
12509W        W84235  37.857  41.747  14.531
12510W        W84236  24.977  27.224  10.160
12511W        W84237  32.559  18.164  12.933
12512W        W84238  11.871  34.456   9.997
12513W        W84239   5.639  40.439   4.222
12514W        W84240  34.106  23.189  11.009
12515W        W84241  18.265  29.416   4.447
12516W        W84242  18.094  40.795   1.351
12517W        W84243  18.785  32.018   2.674
12518W        W84244  21.001   3.898  12.940
12519W        W84245  33.003  23.971  10.271
12520W        W84246  38.850  28.045   2.064
12521W        W84247  14.588  36.439   1.648
12522W        W84248  37.528  15.729   1.935
12523W        W84249  26.147   3.086   1.690
12524W        W84250  17.703  30.647  14.483
12525W        W84251  38.032  32.946   1.316
12526W        W84252   3.924  39.598   0.876
12527W        W84253  24.765  27.138  13.015
12528W        W84254  28.879  43.808   0.885
12529W        W84255  11.814  18.055  10.738
12530W        W84256  38.036  41.261  14.469
12531W        W84257   4.688  18.039  11.611
12532W        W84258   2.155  44.470   0.257
12533W        W84259   1.260  33.577  11.063
12534W        W84260  36.075  36.357  12.595
12535W        W84261   5.364  22.315   4.602
12536W        W84262  42.582  26.455  14.253
12537W        W84263  38.834   2.172   4.176
12538W        W84264  13.599  34.409   0.543
12539W        W84265  44.705  35.543   1.314
12540W        W84266  44.990   1.258  11.162
12541W        W84267   9.881  42.219  11.067
12542W        W84268  13.246  29.683   1.772
12543W        W84269   7.464  11.790  13.997
12544W        W84270  18.672   3.241  10.698
12545W        W84271  22.054  20.204   0.238
12546W        W84272  43.777  27.696  11.962
12547W        W84273  28.713  44.707  12.821
12548W        W84274   5.513  23.973   4.105
12549W        W84275   5.852  31.818  10.339
12550W        W84276  22.747  27.833  12.337
12551W        W84277   1.560  31.956   0.560
12552W        W84278  10.117  30.932   3.176
12553W        W84279   6.418   6.621  11.474
12554W        W84280   1.071   5.927  13.927
12555W        W84281  35.869  29.886   3.029
12556W        W84282  37.895   8.862   0.369
12557W        W84283  36.961  15.849   4.751
12558W        W84284  19.468  29.182  11.985
12559W        W84285  15.176  37.061  10.644
12560W        W84286   7.004  43.579  12.030
12561W        W84287  19.693  27.703  11.036
12562W        W84288   6.332  41.768  11.261
12563W        W84289  33.778  40.955   3.229
12564W        W84290  36.204  38.049  11.283
12565W        W84291  40.056   0.454   1.778
12566W        W84292  22.526  14.361  12.843
12567W        W84293   3.495   0.818   0.453
12568W        W84294  40.558  14.611   4.558
12569W        W84295  23.264  38.057  11.218
12570W        W84296  36.626  44.199   2.194
12571W        W84297  25.063  20.092   5.069
12572W        W84298  23.435  34.412  14.594
12573W        W84299  11.666  18.969  12.429
12574W        W84300  27.145  38.611   3.571
12575W        W84301   4.515  42.005  10.434
12576W        W84302  41.922  34.353  12.082
12577W        W84303  36.109   1.555   3.188
12578W        W84304  33.082  34.598  12.001
12579W        W84305  13.896   7.883  14.173
12580W        W84306  27.586  35.592  13.515
12581W        W84307  31.197  15.637  10.164
12582W        W84308  32.375   6.123   0.756
12583W        W84309  37.309  25.297   2.143
12584W        W84310  39.761  35.324  11.132
12585W        W84311  31.669   1.856   1.759
12586W        W84312  13.845  40.991   1.837
12587W        W84313  16.303  19.167  12.150
12588W        W84314  10.117  18.242   4.724
12589W        W84315  27.054  33.491  10.575
12590W        W84316   9.572  35.088  12.477
12591W        W84317  17.802  23.844  11.124
12592W        W84318   7.308  26.367  11.631
12593W        W84319  29.700   0.902  11.081
12594W        W84320   0.487  38.067   3.594
12595W        W84321  36.177  13.271   2.769
12596W        W84322  10.074   5.435  12.458
12597W        W84323  33.408  24.121   5.044
12598W        W84324  17.860  35.124   3.243
12599W        W84325   8.931  20.179  12.568
12600W        W84326   7.403   9.374   3.696
12601W        W84327  31.848  34.149  13.074
12602W        W84328  32.195  18.507  13.052
12603W        W84329   5.013  15.720   3.114
12604W        W84330  32.649  36.516   3.836
12605W        W84331  16.821   6.207  12.614
12606W        W84332  36.784  29.508  11.168
12607W        W84333  40.273  21.551   4.917
12608W        W84334  21.048  44.859  13.762
12609W        W84335  21.165  27.584   1.329
12610W        W84336  29.611  23.059   1.877
12611W        W84337  16.008  28.988  13.891
12612W        W84338  12.580   1.767   0.002
12613W        W84339  37.080  38.964  12.507
12614W        W84340  44.016  25.614  12.468
12615W        W84341  18.100  23.703  14.099
12616W        W84342  32.903  12.077  14.350
12617W        W84343  40.350  43.991  13.329
12618W        W84344  30.076  13.335   4.788
12619W        W84345  11.843   8.756   2.248
12620W        W84346  43.751  28.099  13.513
12621W        W84347  20.157  12.106  12.078
12622W        W84348   6.879  40.737  11.924
12623W        W84349  29.540  25.719   3.775
12624W        W84350  31.453   7.374   2.905
12625W        W84351  16.201   6.325   3.363
12626W        W84352  13.634  43.579  11.691
12627W        W84353  27.954  35.927  13.802
12628W        W84354  20.239   6.385  11.635
12629W        W84355  21.986  25.258   1.230
12630W        W84356  15.877  38.053   4.292
12631W        W84357   7.571   2.321  11.125
12632W        W84358  30.145  20.322  14.270
12633W        W84359  11.004  26.613   2.774
12634W        W84360  27.912   1.411  11.227
12635W        W84361   2.005   5.612   3.223
12636W        W84362  24.408  25.196  11.718
12637W        W84363  33.348  11.172   5.012
12638W        W84364  35.085  32.812  14.353
12639W        W84365  15.797   6.133  12.485
12640W        W84366  32.398   6.700  11.405
12641W        W84367  25.894   9.873  11.577
12642W        W84368   1.520  10.686  11.046
12643W        W84369  12.395  15.036  12.504
12644W        W84370  16.710  40.581   4.267
12645W        W84371   4.549   5.131   0.382
12646W        W84372   8.242  24.229   0.304
12647W        W84373   7.335  29.346   2.631
12648W        W84374   4.292  38.514  10.377
12649W        W84375  23.016  20.041  11.579
12650W        W84376  13.537  27.052  13.013
12651W        W84377  37.781   9.708   2.765
12652W        W84378  39.842  18.196   0.236
12653W        W84379  23.437  25.261  14.308
12654W        W84380  25.796  43.421  10.096
12655W        W84381  38.983   2.131  11.413
12656W        W84382  13.199   5.469   1.195
12657W        W84383  28.990   1.906  12.992
12658W        W84384   5.359  14.312  10.657
12659W        W84385   0.348  18.615  14.860
12660W        W84386   6.394  28.180   3.633
12661W        W84387  23.579   3.303  12.849
12662W        W84388  27.676   1.498  14.792
12663W        W84389  12.307  32.906   2.785
12664W        W84390  33.641  33.595  11.597
12665W        W84391  41.560   4.298  12.335
12666W        W84392  41.853  28.705   3.645
12667W        W84393  11.426  30.236   0.826
12668W        W84394   2.010  25.860  11.222
12669W        W84395   1.308  30.366   0.422
12670W        W84396  27.271  30.064   4.386
12671W        W84397  14.862   8.843   4.125
12672W        W84398  43.876  40.467   0.498
12673W        W84399  18.051  25.511   4.870
12674W        W84400  15.308  21.844  14.744
12675W        W84401   6.427  23.252  12.481
12676W        W84402  29.245   2.004   0.881
12677W        W84403   6.926  26.987  12.972
12678W        W84404  24.688  35.983  12.152
12679W        W84405  34.008   3.154  12.971
12680W        W84406  42.852  29.449  12.702
12681W        W84407  33.649  21.991   0.844
12682W        W84408  44.807  29.686   1.013
12683W        W84409  24.094  43.322   1.337
12684W        W84410  23.689   5.631   1.308
12685W        W84411  30.994   9.786  14.495
12686W        W84412   5.871  23.274   0.333
12687W        W84413   9.583   4.344   3.354
12688W        W84414  42.161  41.573   2.976
12689W        W84415  21.287  40.977  14.856
12690W        W84416  18.965  27.047  11.145
12691W        W84417  26.953  16.055   4.233
12692W        W84418  36.977  10.160  14.112
12693W        W84419  36.080   4.754   3.863
12694W        W84420  40.437   9.787   1.786
12695W        W84421  14.703  42.026  11.596
12696W        W84422   8.180  44.345   5.150
12697W        W84423   0.402  21.796  10.265
12698W        W84424  18.544  15.626  13.111
12699W        W84425   8.955  19.143  11.687
12700W        W84426  13.839   2.901   0.926
12701W        W84427  36.522  36.539   0.783
12702W        W84428  22.313  40.076  14.407
12703W        W84429  38.493   0.109   2.218
12704W        W84430  40.341  44.544  13.291
12705W        W84431  40.911  32.675  14.733
12706W        W84432  14.875   9.197  12.830
12707W        W84433  32.619  33.839   3.669
12708W        W84434  21.963  42.319  12.048
12709W        W84435  44.417  28.649  12.177
12710W        W84436  26.570  41.711  12.291
12711W        W84437  44.577  27.003  12.823
12712W        W84438   2.102  24.464  13.304
12713W        W84439  35.996  14.907  12.506
12714W        W84440  27.788  25.553  14.512
12715W        W84441  18.747  35.869   3.890
12716W        W84442  14.140  22.208  14.522
12717W        W84443  26.035  39.603   0.396
12718W        W84444   6.486  43.339   2.840
12719W        W84445  12.816  31.052  12.426
12720W        W84446  11.031  28.711   3.768
12721W        W84447  15.200  30.936   0.880
12722W        W84448  26.840   8.183   1.795
12723W        W84449  21.872  16.414   3.828
12724W        W84450  15.351  34.335  12.972
12725W        W84451   3.850  23.757  12.103
12726W        W84452  28.135   2.476   2.616
12727W        W84453  21.145  39.565   2.787
12728W        W84454  10.476  40.563   2.863
12729W        W84455   3.527  10.760  12.897
12730W        W84456  25.624  10.150   1.575
12731W        W84457  15.941  29.363  11.459
12732W        W84458   0.937  11.730  13.500
12733W        W84459  11.206  43.048   4.928
12734W        W84460  17.775  37.886   3.204
12735W        W84461  41.025  18.169  11.050
12736W        W84462  41.956  18.509  11.655
12737W        W84463  35.556  30.898   2.246
12738W        W84464  38.288  24.270   4.559
12739W        W84465   8.236   6.779  14.567
12740W        W84466  12.562  38.934  14.344
12741W        W84467   8.747  32.868  12.393
12742W        W84468  36.650  11.996  10.416
12743W        W84469  40.990  42.486   2.691
12744W        W84470  44.750  32.695  14.816
12745W        W84471  31.907   2.105   2.140
12746W        W84472  10.314  25.894  12.620
12747W        W84473  13.715  41.419   2.768
12748W        W84474  27.107  36.935  12.514
12749W        W84475   4.830  40.754   3.004
12750W        W84476   0.582  30.851  13.335
12751W        W84477  14.815  15.342   4.191
12752W        W84478  29.354  12.650   3.393
12753W        W84479  42.918  20.012   4.109
12754W        W84480  24.729  13.629   2.224
12755W        W84481  21.646  33.947   3.605
12756W        W84482  40.485  43.896  12.476
12757W        W84483  35.352  37.569   2.745
12758W        W84484  42.087  31.991  10.142
12759W        W84485  24.022  11.212  14.724
12760W        W84486  39.577  31.984  11.968
12761W        W84487  31.498  19.258  11.921
12762W        W84488  23.460  36.946  10.443
12763W        W84489  17.357  36.043  12.473
12764W        W84490  25.954  37.741   4.534
12765W        W84491   2.710  26.114   2.939
12766W        W84492  14.675  41.315  12.958
12767W        W84493   1.361  43.095   3.416
12768W        W84494  16.824  39.495  10.460
12769W        W84495  33.898  43.867   2.751
12770W        W84496  10.953   5.719  13.776
12771W        W84497   2.731   3.947  10.772
12772W        W84498   4.149  22.108  14.392
12773W        W84499   7.619  40.873  10.692
12774W        W84500  20.810  42.245   0.635
12775W        W84501  34.026   5.802   3.972
12776W        W84502  24.205   5.350  14.382
12777W        W84503  26.630  29.023  11.463
12778W        W84504  21.795   1.981  11.095
12779W        W84505  18.598  19.664   0.713
12780W        W84506  12.908  26.528  14.223
12781W        W84507  38.153  30.354   2.182
12782W        W84508   2.263   6.261  13.793
12783W        W84509  26.125   5.782   2.392
12784W        W84510  38.257  19.507   3.435
12785W        W84511   2.155  18.158   0.790
12786W        W84512  44.514  10.024   1.690
12787W        W84513  32.137  27.284   4.150
12788W        W84514  25.975  42.678  14.397
12789W        W84515  40.995   1.471  13.832
12790W        W84516  33.084  10.664   1.878
12791W        W84517   4.474  20.123   3.671
12792W        W84518  35.434  44.671   0.602
12793W        W84519  11.780   2.244  12.486
12794W        W84520  41.227   1.834   3.056
12795W        W84521  18.116  20.092   2.862
12796W        W84522  23.608   5.150   1.606
12797W        W84523  30.544  40.985  13.129
12798W        W84524  21.162  22.783  14.054
12799W        W84525  16.763  41.195  13.152
12800W        W84526  33.506  37.892   1.733
12801W        W84527  42.591  22.767   3.990
12802W        W84528  28.058  27.128   2.724
12803W        W84529  26.649   7.296  10.534
12804W        W84530  12.610  25.084   3.316
12805W        W84531   0.219  38.011   1.106
12806W        W84532  12.123  26.256   5.120
12807W        W84533  39.502  13.401  14.555
12808W        W84534  40.928  32.059  12.400
12809W        W84535  18.116  27.023   1.877
12810W        W84536   8.788  35.324   0.415
12811W        W84537   4.822  41.002   4.785
12812W        W84538  35.601   1.789   3.706
12813W        W84539  13.060  37.441   1.474
12814W        W84540  31.498  35.427  11.896
12815W        W84541  32.455   9.148  14.737
12816W        W84542  29.945   5.736   3.392
12817W        W84543  33.656  17.080   3.222
12818W        W84544  43.287   8.139   0.315
12819W        W84545  16.228  27.470   4.553
12820W        W84546   3.274   8.304   1.915
12821W        W84547  14.506  34.605   3.717
12822W        W84548  24.281  30.766   0.358
12823W        W84549  39.583  43.773  14.354
12824W        W84550  40.040  14.572   0.002
12825W        W84551  31.847  30.729  13.035
12826W        W84552  36.191  42.516   2.416
12827W        W84553  19.022  42.977   4.794
12828W        W84554   4.791  36.543   2.133
12829W        W84555  35.115  41.880  13.893
12830W        W84556   3.919  37.472  10.640
12831W        W84557   9.941  21.416  11.084
12832W        W84558  37.404   5.220   0.883
12833W        W84559   6.032  15.365  13.832
12834W        W84560  32.086  29.147  13.915
12835W        W84561  32.897  41.509  12.098
12836W        W84562   8.455  28.801  12.947
12837W        W84563  18.762  41.914  13.225
12838W        W84564   9.788  29.183   3.293
12839W        W84565  43.978   7.859  13.905
12840W        W84566  27.916  36.176   4.164
12841W        W84567  41.913  11.389   1.725
12842W        W84568  23.037   2.225  14.621
12843W        W84569  44.408  42.782   4.473
12844W        W84570   8.752  41.160   4.910
12845W        W84571  18.236  40.696  13.850
12846W        W84572  35.025  23.596  14.285
12847W        W84573  30.792  27.648   4.426
12848W        W84574  26.899  15.757  11.216
12849W        W84575  24.969  28.013  10.661
12850W        W84576  40.557  34.563   1.415
12851W        W84577  14.723  30.595   0.171
12852W        W84578  29.310   7.224  10.348
12853W        W84579   0.961  44.519   1.813
12854W        W84580   9.376  11.381   1.778
12855W        W84581  34.586  10.792  12.741
12856W        W84582   2.678  30.570   1.816
12857W        W84583  24.635  11.076  12.569
12858W        W84584  19.702  42.389  11.849
12859W        W84585  40.479  34.878   2.309
12860W        W84586  29.166  35.927  12.457
12861W        W84587  40.045  19.509  12.547
12862W        W84588  43.474  13.616  10.759
12863W        W84589  28.408  18.146  14.947
12864W        W84590  14.853  25.055   1.256
12865W        W84591  41.453  19.516   1.845
12866W        W84592  43.525   8.702   5.084
12867W        W84593  11.869  19.149   4.240
12868W        W84594  19.173  20.063   1.327
12869W        W84595   1.734   1.736   3.350
12870W        W84596   8.936  40.294   2.485
12871W        W84597  19.579  37.862   2.671
12872W        W84598  37.840  34.297   3.714
12873W        W84599  11.643  34.873  14.242
12874W        W84600  10.322   2.233   4.549
12875W        W84601   7.770  38.810  12.981
12876W        W84602  27.188  13.171   3.165
12877W        W84603  36.885  37.507  12.655
12878W        W84604  32.913  11.881  13.482
12879W        W84605  11.312  29.450   2.709
12880W        W84606  20.099   2.716  10.693
12881W        W84607  23.093   3.289   1.503
12882W        W84608  30.098  38.891   2.896
12883W        W84609  10.189  17.879   1.735
12884W        W84610  44.397  42.340   0.356
12885W        W84611  22.389  38.130  11.494
12886W        W84612  11.414  26.626  11.428
12887W        W84613  10.203  34.843  13.850
12888W        W84614   9.039   7.151  13.911
12889W        W84615  17.586   1.270   0.397
12890W        W84616   4.340  23.952  14.945
12891W        W84617  41.845  34.595   1.014
12892W        W84618  40.233  25.765  11.617
12893W        W84619  31.503  13.582  11.192
12894W        W84620  29.182   5.221  10.836
12895W        W84621  41.948  38.072   3.673
12896W        W84622  34.365  15.226   1.409
12897W        W84623   5.815  22.250  13.980
12898W        W84624  33.536   4.443   1.812
12899W        W84625  17.368  10.325  11.986
12900W        W84626  37.089  15.362   2.827
12901W        W84627   6.863  23.703   2.871
12902W        W84628  13.920   3.707   3.384
12903W        W84629  42.848  36.008   4.159
12904W        W84630  22.065  21.187  13.294
12905W        W84631   7.744   3.772  14.911
12906W        W84632  23.115  37.518  12.090
12907W        W84633  28.701  17.187   4.753
12908W        W84634  42.915   2.516  11.180
12909W        W84635  29.552  21.742   0.337
12910W        W84636  15.286  41.497   3.689
12911W        W84637  10.688  15.126  10.587
12912W        W84638   7.861  15.804  14.249
12913W        W84639  43.775   3.801  12.049
12914W        W84640   2.944  33.991  12.897
12915W        W84641  25.570  28.547   4.101
12916W        W84642  34.879  37.343  13.404
12917W        W84643  14.814  12.471  12.177
12918W        W84644   2.638  13.712   0.036
12919W        W84645  31.957   3.451   0.438
12920W        W84646  44.139  29.299   3.712
12921W        W84647  27.746  21.770   1.827
12922W        W84648   5.862  43.302  14.763
12923W        W84649  14.954  21.595   4.878
12924W        W84650  18.875  37.053   4.934
12925W        W84651   1.285  30.406  12.326
12926W        W84652   1.710   6.120   4.927
12927W        W84653  19.862  21.068   2.680
12928W        W84654  31.562  15.193  14.808
12929W        W84655  13.931  32.640   3.628
12930W        W84656   0.273  11.540  11.590
12931W        W84657  17.996  44.652   2.395
12932W        W84658  18.774   8.598   2.667
12933W        W84659  19.650  39.885  11.584
12934W        W84660  30.586  32.068  11.652
12935W        W84661  18.381  11.799   9.840
12936W        W84662  16.104   6.236  11.633
12937W        W84663  32.962  18.363  13.490
12938W        W84664  35.274  35.955  13.642
12939W        W84665   3.540   1.310   0.832
12940W        W84666  35.015  37.940   2.796
12941W        W84667  41.816  22.192   3.359
12942W        W84668   7.131  27.923   0.894
12943W        W84669   9.335  15.279  13.628
12944W        W84670   4.348   6.126   0.849
12945W        W84671   2.693   2.458  10.540
12946W        W84672  44.729  28.183   3.273
12947W        W84673  18.208  21.564   2.554
12948W        W84674  11.733   3.835   0.924
12949W        W84675  26.101  19.646  12.454
12950W        W84676  41.550   7.670  13.884
12951W        W84677   9.359  10.495  12.465
12952W        W84678  22.713  34.995  14.981
12953W        W84679  38.864   8.293  14.398
12954W        W84680   5.897  34.447  12.442
12955W        W84681  32.855   5.028   1.796
12956W        W84682  36.494  44.257   4.994
12957W        W84683  13.261  35.509   0.211
12958W        W84684  26.437   0.683   3.107
12959W        W84685  23.966  20.710   3.584
12960W        W84686   0.028  19.220  14.280
12961W        W84687   8.471  11.615   1.449
12962W        W84688   3.105  18.846   2.132
12963W        W84689  10.837  19.637  13.384
12964W        W84690  31.460  12.617   3.954
12965W        W84691  36.177  35.044  13.139
12966W        W84692  22.950  24.099  11.235
12967W        W84693  24.212   3.264  14.489
12968W        W84694  21.138   3.092  13.551
12969W        W84695   8.318  10.054   4.247
12970W        W84696  17.788   6.208   2.271
12971W        W84697  31.420  18.045  14.884
12972W        W84698  39.931  19.226   3.777
12973W        W84699  34.971  29.998   0.032
12974W        W84700  28.200  41.552   0.851
12975W        W84701  43.990  20.921  11.067
12976W        W84702  29.001  31.103   3.350
12977W        W84703  18.270   6.232   0.878
12978W        W84704  10.723  15.093   4.371
12979W        W84705   9.672  11.308  11.984
12980W        W84706  36.973  20.093   1.523
12981W        W84707  32.995  44.509   3.084
12982W        W84708   7.779   1.293   3.134
12983W        W84709  34.463  44.821   4.913
12984W        W84710  26.490  42.024   2.854
12985W        W84711  23.545  44.862   0.011
12986W        W84712  34.874  16.991   2.426
12987W        W84713  25.891  35.384  11.867
12988W        W84714  37.057  44.039   3.163
12989W        W84715  33.565   4.875  11.107
12990W        W84716   4.944  21.832  10.898
12991W        W84717   5.481  15.730   3.309
12992W        W84718  29.388  16.998  13.459
12993W        W84719  20.285  19.032   1.862
12994W        W84720  41.387  12.331   4.875
12995W        W84721  20.022  19.184  14.123
12996W        W84722  24.776  37.730  12.504
12997W        W84723  25.034  13.179   2.047
12998W        W84724  19.310  15.350  13.841
12999W        W84725  17.312  19.478  14.371
13000W        W84726  23.711  18.706   2.835
13001W        W84727  33.089  43.466  14.426
13002W        W84728   8.778  16.091  11.215
13003W        W84729   7.903   1.949   3.370
13004W        W84730  10.350  30.929  13.765
13005W        W84731   2.811  35.133  12.627
13006W        W84732  26.117  37.967   2.014
13007W        W84733  26.549  34.250  12.984
13008W        W84734  16.107  14.389  10.143
13009W        W84735  34.673   6.434  11.233
13010W        W84736   7.557   6.203   9.813
13011W        W84737   0.469  17.177  14.040
13012W        W84738   9.780  38.194   4.131
13013W        W84739  42.564  24.055  11.492
13014W        W84740  18.035   4.876  13.077
13015W        W84741  33.232  11.540  14.864
13016W        W84742  11.597  15.331   4.740
13017W        W84743  22.106  30.379  12.525
13018W        W84744  15.588  15.820   5.082
13019W        W84745  31.571  41.903   0.343
13020W        W84746   1.887  31.639   4.092
13021W        W84747  21.721   2.782   4.225
13022W        W84748  14.364  11.310  11.131
13023W        W84749  33.852  39.945  10.692
13024W        W84750  35.828  16.257   1.464
13025W        W84751   1.229   6.910  14.489
13026W        W84752  17.853  12.263   1.249
13027W        W84753  37.407  26.867  10.492
13028W        W84754  22.042   0.456   2.219
13029W        W84755   1.196  20.203  13.021
13030W        W84756  32.394  23.577   3.266
13031W        W84757  43.473   1.337  13.044
13032W        W84758  24.187  27.653  10.050
13033W        W84759  24.774   4.143   1.739
13034W        W84760  42.491  17.294   2.790
13035W        W84761  27.478   9.398   0.921
13036W        W84762  25.652  29.510   3.175
13037W        W84763   9.325  40.002  13.850
13038W        W84764  33.492  39.619  11.590
13039W        W84765   9.837  30.994  13.806
13040W        W84766  40.428   0.306  13.979
13041W        W84767  23.037  19.516   1.840
13042W        W84768  14.685  19.039  14.432
13043W        W84769  27.534  35.546  10.572
13044W        W84770  37.193  39.076  10.955
13045W        W84771   1.924  24.478  10.451
13046W        W84772   1.517  18.028  11.484
13047W        W84773  37.157   8.371  11.194
13048W        W84774  40.734  31.331  12.984
13049W        W84775  30.707  17.294  14.406
13050W        W84776  17.631  38.384   3.172
13051W        W84777  29.941  39.314   2.603
13052W        W84778  13.830  25.069  13.502
13053W        W84779  34.458  19.038   4.154
13054W        W84780  14.716  43.036   0.715
13055W        W84781   5.973  43.933  14.493
13056W        W84782  32.141  25.659  13.984
13057W        W84783  29.590  43.882  12.898
13058W        W84784  35.852  26.671  12.002
13059W        W84785  29.193   3.470  11.490
13060W        W84786   5.450  15.855   3.814
13061W        W84787  24.446  12.899   4.600
13062W        W84788  17.010   6.088   1.490
13063W        W84789  20.955  43.292   2.251
13064W        W84790  25.144   7.728   2.605
13065W        W84791   9.634  20.176   4.590
13066W        W84792  20.577  29.536   4.574
13067W        W84793   8.254  42.317   1.700
13068W        W84794  20.138  19.219  13.607
13069W        W84795  23.538   3.479  13.348
13070W        W84796  15.803  42.284  13.733
13071W        W84797   2.632   5.352   2.320
13072W        W84798   0.960  41.490  12.080
13073W        W84799   4.720  36.865  10.667
13074W        W84800  40.433  39.312   4.605
13075W        W84801  13.311  27.944  12.523
13076W        W84802  39.609  27.090  11.091
13077W        W84803  15.799  15.605   3.155
13078W        W84804  31.601  14.546  14.405
13079W        W84805  12.820  15.780   3.795
13080W        W84806  18.003   0.415   1.509
13081W        W84807  25.053  17.038  13.736
13082W        W84808   5.230  35.570   0.803
13083W        W84809   0.728  12.209   2.797
13084W        W84810  20.773  33.875  12.375
13085W        W84811   5.276  13.678   1.145
13086W        W84812  20.145  12.777   1.620
13087W        W84813  18.265  39.038   4.036
13088W        W84814  24.266  36.823   2.815
13089W        W84815   2.365  17.095   0.916
13090W        W84816  31.573  10.674  10.472
13091W        W84817   5.868   6.124   3.865
13092W        W84818  38.653   8.208  13.027
13093W        W84819  24.995  20.603  13.669
13094W        W84820  20.965  24.949  11.535
13095W        W84821   3.766  10.814   3.651
13096W        W84822   6.941  40.268   1.773
13097W        W84823   4.695  16.778  12.909
13098W        W84824  25.736  44.679   2.196
13099W        W84825  42.404  28.960  13.624
13100W        W84826   6.511   9.846  11.568
13101W        W84827   0.535  17.195  14.918
13102W        W84828   5.984  17.796   2.204
13103W        W84829   6.732  21.565  11.391
13104W        W84830  24.195  22.919   0.247
13105W        W84831  11.183   7.574  14.411
13106W        W84832  33.505  25.895  10.681
13107W        W84833  10.970  30.665  12.121
13108W        W84834  17.255  36.350  13.326
13109W        W84835   7.269  21.716   2.248
13110W        W84836   4.096  19.592   3.797
13111W        W84837  39.847  13.711   1.669
13112W        W84838  27.018  39.330  10.979
13113W        W84839  11.092   5.904  11.996
13114W        W84840  33.170   7.715  11.185
13115W        W84841   3.283  32.621  11.131
13116W        W84842  44.303   4.471  11.603
13117W        W84843   9.476  32.020  11.542
13118W        W84844   7.204  39.907  11.691
13119W        W84845  13.787   6.421   4.562
13120W        W84846  35.900  26.471   0.912
13121W        W84847  34.544   8.957   1.828
13122W        W84848  19.278  28.181   4.407
13123W        W84849   0.722   2.826   0.974
13124W        W84850  42.325  40.529   4.466
13125W        W84851  37.465  32.195   3.270
13126W        W84852   1.976  19.766  14.500
13127W        W84853  35.602  27.582   3.448
13128W        W84854  38.360  34.912   3.381
13129W        W84855  38.621  38.905   4.591
13130W        W84856   3.002  25.559   1.784
13131W        W84857  35.492  14.612   2.333
13132W        W84858  34.554  24.843   4.192
13133W        W84859   5.106  25.857  13.345
13134W        W84860  12.265   5.364  10.613
13135W        W84861  11.382  10.999   3.256
13136W        W84862  34.617  43.221  13.375
13137W        W84863  12.440   7.438  11.594
13138W        W84864   3.504  14.716   2.774
13139W        W84865  18.725   8.080  11.503
13140W        W84866   7.289  23.370   2.298
13141W        W84867  32.869  34.639   1.703
13142W        W84868  37.606   1.997  12.693
13143W        W84869  29.542  31.182  12.412
13144W        W84870  24.286  20.731  10.626
13145W        W84871   1.161  38.403   2.275
13146W        W84872  33.166  16.093  12.937
13147W        W84873  33.017  37.056   2.725
13148W        W84874  41.037  26.435  11.591
13149W        W84875  18.098   1.224   2.544
13150W        W84876  12.204  12.095  13.826
13151W        W84877  13.893  19.034   1.220
13152W        W84878  12.130   2.821  14.364
13153W        W84879   3.637  30.507   0.090
13154W        W84880   6.416  16.990   3.332
13155W        W84881  19.334  42.855  13.356
13156W        W84882  31.485  18.280   0.453
13157W        W84883  37.815  36.113   0.225
13158W        W84884  36.935  22.285   4.444
13159W        W84885  10.839  18.846  14.811
13160W        W84886   9.863  18.187   2.213
13161W        W84887  42.801  28.578  11.598
13162W        W84888   0.746   1.927  10.371
13163W        W84889   7.928  20.714   0.397
13164W        W84890  42.373  40.022  11.228
13165W        W84891  39.854  37.071   3.349
13166W        W84892   2.459   7.807  13.028
13167W        W84893  37.481  19.072  11.680
13168W        W84894  13.874  29.201  12.999
13169W        W84895  25.470  21.568   1.712
13170W        W84896  18.592  31.437   1.514
13171W        W84897  40.100  16.152   0.805
13172W        W84898  40.653  32.433  11.605
13173W        W84899  24.950  20.957  11.932
13174W        W84900  31.744  43.722  11.535
13175W        W84901  27.915  17.218  13.657
13176W        W84902  12.752  37.190  13.130
13177W        W84903   6.828   8.280   4.678
13178W        W84904  43.218  19.800  11.549
13179W        W84905   3.345  44.004   0.023
13180W        W84906  11.815  31.637  12.166
13181W        W84907  10.153  33.314  14.807
13182W        W84908  23.059  14.910  11.110
13183W        W84909  42.609  32.041   4.156
13184W        W84910   8.905  25.957   3.697
13185W        W84911   7.450  35.863  12.841
13186W        W84912  22.061   6.640  13.957
13187W        W84913  43.363   6.595   3.163
13188W        W84914  20.202  20.350  14.913
13189W        W84915   5.232  33.619   4.588
13190W        W84916  11.416  38.612   1.278
13191W        W84917  27.661   0.406  14.468
13192W        W84918   6.723   4.659   3.371
13193W        W84919  40.783  32.104  11.218
13194W        W84920  40.543  13.173   0.260
13195W        W84921  22.979  20.009   2.596
13196W        W84922  25.303   5.885  12.535
13197W        W84923  41.070  40.912  11.791
13198W        W84924  17.759  36.753  10.627
13199W        W84925  34.463  38.141   3.091
13200W        W84926  34.880  17.851  13.585
13201W        W84927  21.177  33.975  11.119
13202W        W84928  28.200   0.429   1.628
13203W        W84929  21.500  41.335  10.730
13204W        W84930  37.088  39.526   1.456
13205W        W84931  31.640  42.368   2.484
13206W        W84932  28.558  16.559   0.461
13207W        W84933  15.375  19.808  13.988
13208W        W84934   0.429  22.180   4.779
13209W        W84935  12.335  29.616   3.574
13210W        W84936   6.803  16.599  12.483
13211W        W84937  41.870  38.290  10.718
13212W        W84938  23.007  25.243   1.978
13213W        W84939  38.396   0.065   1.331
13214W        W84940  23.427  21.125  12.070
13215W        W84941  32.778  15.653  14.975
13216W        W84942   7.401  33.626   4.275
13217W        W84943  14.142  43.203   5.172
13218W        W84944  15.683  14.719   3.558
13219W        W84945  24.198  44.380  13.525
13220W        W84946  12.600  13.331   1.660
13221W        W84947  32.981  17.181  11.372
13222W        W84948   9.807  22.549  10.183
13223W        W84949   1.754  39.992  11.901
13224W        W84950  39.940  28.931  11.206
13225W        W84951  43.391  29.382   3.174
13226W        W84952  23.525  38.871   0.437
13227W        W84953  41.741   3.733   3.846
13228W        W84954  21.531  30.141   1.098
13229W        W84955  28.524   2.340   1.685
13230W        W84956   9.340  27.444  12.526
13231W        W84957  20.252  44.877   2.287
13232W        W84958  44.674  39.119   1.827
13233W        W84959  44.485  14.039   3.365
13234W        W84960  33.957  24.067   1.763
13235W        W84961  41.801  16.800  12.351
13236W        W84962  32.625  10.380  13.957
13237W        W84963  12.079  42.758  14.842
13238W        W84964  10.383  18.732  13.488
13239W        W84965  21.868  18.235   0.365
13240W        W84966  28.076  39.833   4.058
13241W        W84967   1.538  27.546   1.398
13242W        W84968  23.686  26.671   5.049
13243W        W84969  44.123   9.290   0.931
13244W        W84970  38.323   6.204   2.736
13245W        W84971  14.882  40.877   2.030
13246W        W84972  42.964  30.260   3.696
13247W        W84973   1.872  39.508   0.682
13248W        W84974  21.513  16.135  13.978
13249W        W84975   0.351  23.689   3.204
13250W        W84976  40.048  21.531   0.330
13251W        W84977  42.550   2.897  13.711
13252W        W84978  19.820   1.920   4.517
13253W        W84979  16.802  36.085  13.338
13254W        W84980   8.172  23.477  14.389
13255W        W84981   9.893  10.437  12.464
13256W        W84982  21.515   8.781  14.236
13257W        W84983  11.892  38.045   3.186
13258W        W84984  14.083  10.382   1.801
13259W        W84985  10.913  16.253   0.400
13260W        W84986  44.438  18.761   3.165
13261W        W84987  30.729  18.116   2.889
13262W        W84988   8.841  15.941  10.312
13263W        W84989  44.451  26.423  11.799
13264W        W84990  38.173  33.980  13.279
13265W        W84991  23.268   7.326   1.409
13266W        W84992  18.999  41.052   1.332
13267W        W84993  20.380  36.031   2.400
13268W        W84994  22.911  26.320   3.354
13269W        W84995  20.902   9.298   4.355
13270W        W84996  21.111  25.123   2.645
13271W        W84997  12.339  11.781   2.608
13272W        W84998  22.643  30.922  13.028
13273W        W84999  33.019  33.632   1.157
13274W        W85000  32.430  12.166   4.765
13275W        W85001   3.743  25.297   2.474
13276W        W85002  37.119  25.938   4.881
13277W        W85003  36.856  41.898   4.804
13278W        W85004  33.176  23.289  10.980
13279W        W85005  30.929  24.422   1.318
13280W        W85006   2.384  17.556  14.994
13281W        W85007   2.182  32.364   2.211
13282W        W85008  31.771  31.335   1.460
13283W        W85009  35.583  44.743  11.080
13284W        W85010  12.717   2.475   3.622
13285W        W85011   8.962  35.994   4.875
13286W        W85012  42.045   6.283  11.254
13287W        W85013   5.521   4.258   3.587
13288W        W85014  21.318   6.960  14.344
13289W        W85015  15.115  29.510  12.164
13290W        W85016   3.197   4.105  10.954
13291W        W85017  13.819  35.814  13.026
13292W        W85018  31.592  21.863   1.977
13293W        W85019  10.421   9.081  10.725
13294W        W85020  37.647   3.774   3.222
13295W        W85021  28.236  19.741   0.019
13296W        W85022  42.855  42.043   2.689
13297W        W85023  41.545   2.731   1.485
13298W        W85024  33.168  33.326  13.515
13299W        W85025  28.775   1.451  12.871
13300W        W85026  13.986   2.363   2.935
13301W        W85027   7.982  15.417  13.927
13302W        W85028  36.484   0.287  14.029
13303W        W85029  12.046  24.509  10.435
13304W        W85030  32.147   7.400   4.700
13305W        W85031  28.644  41.215   5.057
13306W        W85032   2.975  35.179  11.631
13307W        W85033   9.871  36.426   1.808
13308W        W85034  12.841   8.711   1.223
13309W        W85035  19.237   5.470   3.888
13310W        W85036  10.838  42.383   4.208
13311W        W85037   4.230  28.206  12.719
13312W        W85038  31.982  36.145   2.643
13313W        W85039  39.751  28.380  14.891
13314W        W85040  12.521   8.149  13.994
13315W        W85041  34.860  40.166  14.432
13316W        W85042  41.006  28.974  13.004
13317W        W85043  23.194   0.076  14.210
13318W        W85044  34.840   0.304   1.173
13319W        W85045  24.668   5.136   3.175
13320W        W85046  41.939  37.134  12.046
13321W        W85047   2.063  44.979  11.047
13322W        W85048  27.941  11.327   1.297
13323W        W85049   8.736  22.105   3.160
13324W        W85050  26.574  34.873  14.649
13325W        W85051  10.983  16.889   4.088
13326W        W85052   7.242  38.612   4.205
13327W        W85053   4.400  10.660   1.007
13328W        W85054   2.221   3.785   4.093
13329W        W85055  23.205  32.326   2.766
13330W        W85056  35.355  26.895   4.597
13331W        W85057  14.095  32.362   2.698
13332W        W85058  37.655  28.836  14.580
13333W        W85059  28.106   4.427   4.214
13334W        W85060  39.001   0.218   2.110
13335W        W85061  13.365  34.936  10.889
13336W        W85062  36.513  34.108   3.823
13337W        W85063  36.047  30.609   3.137
13338W        W85064  22.455   6.171   2.080
13339W        W85065  43.319  23.435  10.718
13340W        W85066  44.037  23.570  11.709
13341W        W85067  40.817  14.568   4.106
13342W        W85068   1.752  42.019   2.996
13343W        W85069  12.515   1.877  13.889
13344W        W85070  32.633  41.477  14.963
13345W        W85071  25.935   4.514  12.978
13346W        W85072  20.557  19.707   0.414
13347W        W85073  14.219  23.219  14.351
13348W        W85074  15.254  14.386  12.414
13349W        W85075  14.116  36.378   4.631
13350W        W85076  34.301  38.255  11.119
13351W        W85077  10.726  32.950  12.992
13352W        W85078   4.655   5.831   4.594
13353W        W85079  17.490  29.124   0.458
13354W        W85080  18.076  18.139  12.327
13355W        W85081  32.017  21.482   0.849
13356W        W85082  30.664  32.116   3.592
13357W        W85083  25.726  15.091   2.792
13358W        W85084   1.787  15.610  13.991
13359W        W85085  13.803  17.818   4.300
13360W        W85086  28.830  36.770   2.281
13361W        W85087  10.635  17.999  14.602
13362W        W85088  38.990  31.165  13.545
13363W        W85089   5.210  14.681   4.356
13364W        W85090  27.410  34.838  14.057
13365W        W85091  10.769  11.451   4.675
13366W        W85092  15.693   2.349   3.149
13367W        W85093   0.932  16.664   1.524
13368W        W85094  11.762  44.903   3.651
13369W        W85095  38.454  10.861  11.812
13370W        W85096  19.193  21.153  13.550
13371W        W85097  29.600   7.179  12.893
13372W        W85098   7.402  34.058  13.890
13373W        W85099   4.734  26.379  12.862
13374W        W85100   3.721  42.619  13.076
13375W        W85101  23.687  23.986   4.096
13376W        W85102  21.606  14.746   4.643
13377W        W85103  12.209  42.350  11.119
13378W        W85104   4.355   1.961   4.560
13379W        W85105  34.016  31.017   4.717
13380W        W85106   8.697  33.588   2.181
13381W        W85107  22.307  22.740  13.404
13382W        W85108  26.566  13.117   0.260
13383W        W85109  30.615  22.613   2.391
13384W        W85110  13.480   8.764   3.263
13385W        W85111   3.864   2.764  14.336
13386W        W85112  19.333  25.782  11.456
13387W        W85113  19.640  39.440   1.710
13388W        W85114  16.068   8.383   2.864
13389W        W85115  29.171  21.804   2.868
13390W        W85116  35.768  18.280  10.945
13391W        W85117   2.856   6.904   3.124
13392W        W85118  30.678  32.182  12.157
13393W        W85119  22.661  11.180  12.466
13394W        W85120   6.072  24.693   2.414
13395W        W85121   2.440  11.741  14.242
13396W        W85122  26.952   6.298  13.929
13397W        W85123   3.447  27.896  11.437
13398W        W85124  29.892  42.220   3.170
13399W        W85125  32.934  33.185  12.119
13400W        W85126  31.489  20.901  11.211
13401W        W85127  27.651   7.660   0.324
13402W        W85128  13.743  37.965   3.306
13403W        W85129   6.185  19.737   2.340
13404W        W85130   9.299  38.947   3.241
13405W        W85131   3.505   8.657   2.817
13406W        W85132   0.999   8.865   3.337
13407W        W85133  24.733  31.626  11.110
13408W        W85134  41.061  39.919   0.406
13409W        W85135  42.259  43.775   1.271
13410W        W85136  32.853  29.120  12.559
13411W        W85137  23.875  25.105   4.563
13412W        W85138  23.780  29.430   0.911
13413W        W85139  36.543  13.674   1.480
13414W        W85140  43.814   2.311   2.395
13415W        W85141  11.930  15.832  13.750
13416W        W85142  32.914  29.860   3.211
13417W        W85143   9.401  34.170   9.965
13418W        W85144  18.437  39.116   0.843
13419W        W85145  13.871  29.034  13.900
13420W        W85146   9.390  44.668  12.851
13421W        W85147   9.155  42.351   3.810
13422W        W85148  11.119  21.997  11.535
13423W        W85149   7.843  32.164   4.459
13424W        W85150  20.576  10.338  14.406
13425W        W85151   8.166  17.671   4.246
13426W        W85152   4.889  33.571   0.834
13427W        W85153   7.136  22.474  13.623
13428W        W85154  40.650  38.912   4.250
13429W        W85155   5.173  27.727  11.154
13430W        W85156  36.052  35.607  13.819
13431W        W85157  35.543  16.589   4.151
13432W        W85158  33.181  28.124   3.286
13433W        W85159  34.061  16.722  14.442
13434W        W85160  44.344  10.378   3.743
13435W        W85161  39.323  26.899   2.663
13436W        W85162  20.034  33.846   0.725
13437W        W85163  44.789   0.222  14.068
13438W        W85164  21.225  26.291  10.979
13439W        W85165  19.739  10.821  12.048
13440W        W85166  23.118  40.753   4.142
13441W        W85167   1.036   0.816  11.880
13442W        W85168  12.775  37.548  11.059
13443W        W85169  37.076   5.071  13.763
13444W        W85170  24.629  25.247   0.280
13445W        W85171  21.707  19.154   3.302
13446W        W85172  11.661   0.282  11.598
13447W        W85173  35.977  44.485  10.755
13448W        W85174  26.042  16.356   1.289
13449W        W85175   7.911  29.224  12.160
13450W        W85176  26.194   0.820  12.674
13451W        W85177   9.646  37.401   1.007
13452W        W85178  15.788  22.237  12.535
13453W        W85179  18.167  16.866   4.164
13454W        W85180  36.434  36.564   1.767
13455W        W85181   4.401  32.076  11.089
13456W        W85182  20.703  26.006   9.731
13457W        W85183  32.841  41.930   2.085
13458W        W85184  12.700  22.307   1.679
13459W        W85185  32.344   5.117   0.808
13460W        W85186  25.426   7.610  13.868
13461W        W85187  10.133  36.315   1.373
13462W        W85188   8.351   2.813  12.067
13463W        W85189   0.810   8.320  10.735
13464W        W85190  35.667  22.937   2.374
13465W        W85191  40.001  23.623  11.926
13466W        W85192  14.161   6.156   0.482
13467W        W85193  36.992  33.974   4.596
13468W        W85194   3.333  38.812  13.784
13469W        W85195  26.083  21.658   0.915
13470W        W85196  42.505  36.502   1.650
13471W        W85197  38.419   2.563  13.087
13472W        W85198  15.441  31.476  14.474
13473W        W85199  16.232   6.157  13.193
13474W        W85200  38.867  40.296  11.520
13475W        W85201   0.766  28.101   1.900
13476W        W85202   5.109   3.473  12.059
13477W        W85203  25.451  44.279  10.233
13478W        W85204  14.807  23.784   2.786
13479W        W85205  23.632  12.122  10.534
13480W        W85206   7.696  35.578  11.231
13481W        W85207  18.200  28.951   4.252
13482W        W85208  38.291  36.544  13.797
13483W        W85209  32.695   5.314  13.340
13484W        W85210  42.793  29.693  11.614
13485W        W85211  25.234   8.616   2.850
13486W        W85212  29.972  25.558   2.704
13487W        W85213  41.924   7.348   3.787
13488W        W85214  21.004  36.826  12.591
13489W        W85215  23.535  37.435  14.337
13490W        W85216  42.475  37.932  14.790
13491W        W85217  31.749  16.557  15.000
13492W        W85218  14.026  38.874   1.623
13493W        W85219  27.672  32.290  13.389
13494W        W85220  10.802  14.821   1.112
13495W        W85221  12.107  35.851   3.710
13496W        W85222  15.138  17.209   4.668
13497W        W85223  34.882  37.097  10.705
13498W        W85224  13.389  12.402  12.042
13499W        W85225  43.704  31.657  13.309
13500W        W85226  39.504  21.056  13.606
13501W        W85227  25.576  40.795   2.118
13502W        W85228  12.261   7.903   1.753
13503W        W85229   5.359  36.054  12.187
13504W        W85230  20.098  23.599  12.897
13505W        W85231  18.015  20.461  13.463
13506W        W85232   8.274   1.829   9.877
13507W        W85233  24.300  27.650  11.051
13508W        W85234  10.250  21.182  10.739
13509W        W85235  42.851  24.057  11.924
13510W        W85236  33.082  28.910  13.524
13511W        W85237  38.069  34.793   5.018
13512W        W85238  44.936   4.823   9.636
13513W        W85239  43.234  24.321   3.751
13514W        W85240  44.138  19.584  12.601
13515W        W85241  32.000  43.369   1.697
13516W        W85242   4.833  35.610   3.732
13517W        W85243  25.565  19.223  12.836
13518W        W85244   4.831  28.785  11.986
13519W        W85245  32.086  16.835   0.265
13520W        W85246  41.545  33.358   2.704
13521W        W85247  10.709  27.208   1.824
13522W        W85248   1.840  40.534  11.972
13523W        W85249  43.409  28.830  12.954
13524W        W85250  35.313  25.099  14.976
13525W        W85251  25.490  43.814  12.435
13526W        W85252  17.331  30.481  11.382
13527W        W85253  37.579  44.816   3.353
13528W        W85254  30.697   7.934  12.434
13529W        W85255   8.715  39.455   2.686
13530W        W85256  32.040  40.800  11.109
13531W        W85257  20.045  23.438   1.810
13532W        W85258   3.260  40.407  11.584
13533W        W85259  16.615  39.392   3.498
13534W        W85260   5.365  28.004  10.726
13535W        W85261  41.517  38.466   2.144
13536W        W85262  20.580  27.987   2.710
13537W        W85263  13.105  26.432   5.001
13538W        W85264  12.299  20.504  12.541
13539W        W85265  17.093  14.128   4.620
13540W        W85266  18.322  39.412   0.010
13541W        W85267  31.124  31.396  13.167
13542W        W85268  29.046  24.253   0.512
13543W        W85269  13.035  42.512  12.552
13544W        W85270  34.631  27.424   1.936
13545W        W85271  19.002   2.952   0.721
13546W        W85272  11.351  41.340   2.290
13547W        W85273  21.784  37.145   2.205
13548W        W85274  15.829  34.014   4.497
13549W        W85275  43.421  12.556   3.685
13550W        W85276  24.742  20.708  10.890
13551W        W85277  12.271  37.293  11.928
13552W        W85278  16.621  42.886   4.528
13553W        W85279  44.789  24.038  11.412
13554W        W85280   9.477  17.669  13.400
13555W        W85281   2.924  43.259   3.213
13556W        W85282   9.374  18.043   4.027
13557W        W85283   4.306  13.358  10.678
13558W        W85284  15.322  15.690  10.712
13559W        W85285  15.501   2.684  13.029
13560W        W85286  33.479  11.102  11.351
13561W        W85287  19.281   6.915  13.366
13562W        W85288  38.011  29.448  13.548
13563W        W85289  17.697  35.708   1.353
13564W        W85290  26.456  15.306  13.622
13565W        W85291  16.201  41.087  12.007
13566W        W85292  11.937   3.105  13.090
13567W        W85293  26.278  24.704   2.390
13568W        W85294  10.662   0.775  12.445
13569W        W85295   6.334  19.817   4.099
13570W        W85296   1.020   3.537   1.777
13571W        W85297   5.223  24.133  13.160
13572W        W85298  41.051  23.996   1.726
13573W        W85299   5.116  36.994  12.545
13574W        W85300  34.347  42.572   2.943
13575W        W85301  22.448  16.712  11.923
13576W        W85302  44.692  22.776  12.084
13577W        W85303  25.514  10.931  14.493
13578W        W85304  13.166  39.033   2.263
13579W        W85305  17.824  16.645   2.145
13580W        W85306  12.776  21.477  13.324
13581W        W85307  23.275  38.383  13.266
13582W        W85308  30.802  27.793  13.192
13583W        W85309  39.849   0.262   3.181
13584W        W85310  36.100  20.527  11.227
13585W        W85311   2.797   2.449  12.550
13586W        W85312   4.183  44.413  10.742
13587W        W85313  44.007  17.801   0.752
13588W        W85314   1.841   5.190   0.936
13589W        W85315  26.488  35.142   0.774
13590W        W85316  15.840  40.913   3.092
13591W        W85317  18.212  41.983  14.456
13592W        W85318   7.682   8.198   0.830
13593W        W85319  29.103  19.822  14.068
13594W        W85320  39.718  32.427  12.587
13595W        W85321  32.123  29.985  13.440
13596W        W85322  14.561  36.037   3.779
13597W        W85323  22.020   8.848   4.469
13598W        W85324  20.604  14.743   3.154
13599W        W85325  24.028  21.728   2.600
13600W        W85326  26.251  18.071  13.053
13601W        W85327  31.026  23.542   0.470
13602W        W85328  11.160   3.931   3.629
13603W        W85329  30.947  34.391   1.992
13604W        W85330  10.103  23.517  13.428
13605W        W85331  26.403   4.734   2.186
13606W        W85332  28.261  43.375  14.378
13607W        W85333  43.495   7.201   1.782
13608W        W85334  21.583   2.534  12.098
13609W        W85335  42.754  44.218   0.789
13610W        W85336  40.559  44.602   4.971
13611W        W85337  35.613   2.183   4.506
13612W        W85338  25.383  12.797   3.281
13613W        W85339   7.855  14.964  12.631
13614W        W85340  17.680   4.466   4.786
13615W        W85341  17.106  10.285   4.985
13616W        W85342  44.313  10.326  13.681
13617W        W85343  13.397  19.554   0.784
13618W        W85344  15.348  19.530   3.006
13619W        W85345  16.158  35.419  11.100
13620W        W85346   7.270  44.296  10.398
13621W        W85347  22.484  10.195  12.088
13622W        W85348   1.041  22.137  12.096
13623W        W85349  33.870  19.539  11.011
13624W        W85350  16.671  33.321   2.619
13625W        W85351  32.920  36.948  10.923
13626W        W85352  38.302  24.631  12.857
13627W        W85353  16.318  37.625   2.556
13628W        W85354  34.537   8.496  13.123
13629W        W85355  16.321   6.824   0.251
13630W        W85356  44.196  37.497   4.588
13631W        W85357  44.006   2.805   1.717
13632W        W85358  10.585  12.175  12.440
13633W        W85359   7.217  42.719  14.393
13634W        W85360  20.615   8.177   1.783
13635W        W85361   0.910  40.266  14.637
13636W        W85362  24.649  30.493   2.357
13637W        W85363  34.238  42.928   4.141
13638W        W85364  39.093  23.433  12.493
13639W        W85365  38.679  35.650   4.256
13640W        W85366  18.087   3.508  14.318
13641W        W85367  15.195  43.708  13.405
13642W        W85368  30.218  27.265   3.797
13643W        W85369  15.223  39.318   2.088
13644W        W85370  14.140  31.249   0.527
13645W        W85371  10.669  39.232  12.430
13646W        W85372  41.689  22.508  12.155
13647W        W85373  20.603  22.717   0.167
13648W        W85374  19.006  17.598   2.789
13649W        W85375  17.619  32.623   1.258
13650W        W85376  19.412  30.990  10.942
13651W        W85377  33.345  37.506  10.266
13652W        W85378  13.653  36.530   4.400
13653W        W85379  31.891  29.979   4.273
13654W        W85380  18.604  27.954  12.281
13655W        W85381  36.459   3.887   0.670
13656W        W85382   6.434  25.634   2.159
13657W        W85383  44.313  34.307  13.542
13658W        W85384  15.622  32.068   0.337
13659W        W85385  16.529  15.133   1.814
13660W        W85386  10.643  44.884  12.630
13661W        W85387  34.496  30.110   3.229
13662W        W85388  10.757  11.747   1.733
13663W        W85389  33.956  10.156  14.667
13664W        W85390  39.043   5.706  13.027
13665W        W85391  18.198   0.058  10.792
13666W        W85392  37.199  33.506   4.798
13667W        W85393  42.915  15.013   3.678
13668W        W85394  11.161  29.963   3.420
13669W        W85395  40.079  22.090   0.440
13670W        W85396  42.451  20.327   1.784
13671W        W85397  11.746  12.384  13.446
13672W        W85398  37.563  22.057   2.151
13673W        W85399  15.344  32.475   0.033
13674W        W85400  36.559  23.775   2.794
13675W        W85401  12.939  32.405  12.222
13676W        W85402  35.848   6.396   3.607
13677W        W85403   4.656  18.216  10.732
13678W        W85404   6.349   7.408   0.732
13679W        W85405  25.063  23.741   0.365
13680W        W85406  32.162  17.254   1.004
13681W        W85407  32.057  39.922  10.500
13682W        W85408   8.355   7.435   3.819
13683W        W85409  10.818  21.817  14.972
13684W        W85410  14.759  26.760   0.311
13685W        W85411  21.600  27.306   3.266
13686W        W85412  20.739  44.294   1.320
13687W        W85413   4.733  12.799  11.005
13688W        W85414   4.322   4.882   4.169
13689W        W85415  18.292  37.903  10.713
13690W        W85416   5.830   5.847  13.577
13691W        W85417  10.744  28.705  12.898
13692W        W85418  16.801  41.234  13.666
13693W        W85419  25.499  35.221   0.385
13694W        W85420  38.636   4.775  12.468
13695W        W85421  12.059   1.136  14.391
13696W        W85422   7.695  13.053   4.256
13697W        W85423  33.841  43.715   1.757
13698W        W85424  42.501  20.802  13.926
13699W        W85425  40.499  33.653  13.199
13700W        W85426  31.051   7.685  13.383
13701W        W85427  22.965  30.904   2.681
13702W        W85428  30.147  42.580  11.195
13703W        W85429  27.931  37.061  12.150
13704W        W85430   9.595  10.642   3.195
13705W        W85431  34.718  39.902  12.413
13706W        W85432  28.156  23.228  11.647
13707W        W85433  24.645  24.594   0.669
13708W        W85434  19.772   4.668  12.456
13709W        W85435   1.609  36.793  11.225
13710W        W85436  43.058  31.458  14.065
13711W        W85437  34.516  24.565  14.268
13712W        W85438   0.296   9.129  14.022
13713W        W85439   7.675  20.153   3.649
13714W        W85440  43.857  18.768  11.646
13715W        W85441  18.734   4.247   1.874
13716W        W85442  27.312  32.661  13.507
13717W        W85443   8.216  44.412   2.567
13718W        W85444   8.917  13.692  14.670
13719W        W85445  25.067  17.476   3.660
13720W        W85446  17.051  39.977  12.949
13721W        W85447   0.869  17.334   1.804
13722W        W85448   1.302   9.912  14.349
13723W        W85449  12.496  25.693   2.543
13724W        W85450  14.809  11.396  14.419
13725W        W85451  26.535   1.744   1.389
13726W        W85452  36.845  23.612   2.157
13727W        W85453   4.178  20.655   0.699
13728W        W85454  35.903  43.824   4.016
13729W        W85455   0.567   9.351  14.455
13730W        W85456  36.570  41.446  12.918
13731W        W85457   1.996  12.754   1.928
13732W        W85458  15.293  24.257  13.981
13733W        W85459  15.700  25.631   0.936
13734W        W85460   4.234   1.126   4.066
13735W        W85461  30.866  29.816   0.776
13736W        W85462  26.646   3.708  13.050
13737W        W85463   9.965  28.959   1.508
13738W        W85464   2.349  12.705  13.040
13739W        W85465  27.000  12.323   0.384
13740W        W85466  32.553  41.765   1.427
13741W        W85467   3.939  39.329   3.824
13742W        W85468  16.166  30.996   3.419
13743W        W85469  42.521  18.058  13.962
13744W        W85470  43.121  26.611   2.744
13745W        W85471  21.648  18.712  14.676
13746W        W85472  25.002   2.881   4.119
13747W        W85473  34.143   8.810  13.874
13748W        W85474  42.584  14.612   2.966
13749W        W85475  28.719   5.877   1.391
13750W        W85476  40.087  19.696  14.005
13751W        W85477   5.704   6.407   1.335
13752W        W85478   7.453   3.773   4.329
13753W        W85479  22.019   2.105  11.536
13754W        W85480  37.024   9.367   3.873
13755W        W85481  25.521  43.070  11.169
13756W        W85482  19.805  24.199  14.498
13757W        W85483  43.138   3.224  12.168
13758W        W85484   8.912  23.985   1.457
13759W        W85485  34.596   0.944   2.310
13760W        W85486  10.842  33.833  11.987
13761W        W85487  30.424  20.996   0.192
13762W        W85488   2.984  41.883   1.795
13763W        W85489  29.231   9.123  12.833
13764W        W85490  36.182  36.305  14.513
13765W        W85491  10.201  10.856  12.605
13766W        W85492  43.689  33.881   0.784
13767W        W85493   3.991   3.019  12.890
13768W        W85494  28.607  24.948   2.210
13769W        W85495  42.525   2.874   1.493
13770W        W85496  24.598  18.037   1.396
13771W        W85497   4.362  43.824  11.471
13772W        W85498  12.804  37.575  12.801
13773W        W85499  34.195   5.960  12.385
13774W        W85500  11.401  22.222   1.829
13775W        W85501  43.494   6.823  13.084
13776W        W85502  10.083  29.150   2.697
13777W        W85503  20.312  24.447  10.658
13778W        W85504   1.717  34.989  14.984
13779W        W85505  38.477  38.099   1.273
13780W        W85506  29.191   4.542   1.831
13781W        W85507  19.039  36.075   4.865
13782W        W85508  17.282  16.974   3.688
13783W        W85509  18.705   1.805  11.784
13784W        W85510  14.603  17.127   2.180
13785W        W85511  19.246  41.239  13.485
13786W        W85512  12.351   5.182   2.198
13787W        W85513  11.214  35.320   3.734
13788W        W85514  17.221  17.159  12.370
13789W        W85515  17.433   0.238  10.990
13790W        W85516  10.681  26.264   1.776
13791W        W85517  19.267  11.771   3.057
13792W        W85518   3.069  11.400   3.136
13793W        W85519  39.531   3.788   3.140
13794W        W85520   8.537  24.354  14.059
13795W        W85521  43.412  37.306   4.543
13796W        W85522  23.592  27.657  10.700
13797W        W85523  44.511  12.252  10.340
13798W        W85524  27.516  23.507  11.999
13799W        W85525  34.083  17.219   2.852
13800W        W85526  10.644  11.816  12.890
13801W        W85527  12.336   4.330   2.531
13802W        W85528  29.267  21.660  14.859
13803W        W85529  11.739  18.335   3.747
13804W        W85530  26.620  13.358   1.246
13805W        W85531  35.633   2.234   1.315
13806W        W85532  24.557   2.762  13.683
13807W        W85533  42.570   8.913   1.369
13808W        W85534  25.153  44.540   1.342
13809W        W85535  11.889  21.307   4.254
13810W        W85536  38.029   1.525  10.662
13811W        W85537   3.793  36.154   1.121
13812W        W85538  23.703  13.621  10.050
13813W        W85539  17.121  18.605   0.492
13814W        W85540   9.413  16.639   0.698
13815W        W85541  13.570  17.073  13.652
13816W        W85542  43.943  32.163  11.623
13817W        W85543   5.346  38.518   4.573
13818W        W85544  35.909  13.901  11.642
13819W        W85545  30.420  31.183  11.974
13820W        W85546  36.668  16.291   1.864
13821W        W85547  41.766  14.099   3.996
13822W        W85548   3.235  20.283  11.140
13823W        W85549  23.095   5.425  13.787
13824W        W85550   4.856   2.210   0.031
13825W        W85551  37.432  30.340   3.337
13826W        W85552  29.502  43.833   3.635
13827W        W85553  33.859  27.215   3.644
13828W        W85554  26.944  20.787  12.884
13829W        W85555   2.857  30.494  10.869
13830W        W85556  35.479  39.873   2.620
13831W        W85557  38.349  39.353   4.572
13832W        W85558  15.127   3.519  14.973
13833W        W85559  22.395   1.280   0.277
13834W        W85560  28.472  33.135   2.671
13835W        W85561  28.156  10.390   3.223
13836W        W85562  28.403  10.788  12.078
13837W        W85563  14.206  22.290   3.823
13838W        W85564  34.840  15.365   1.623
13839W        W85565   4.306  28.094  14.011
13840W        W85566  14.451  24.894  11.868
13841W        W85567  25.186  40.503  12.008
13842W        W85568  30.983  37.342   1.192
13843W        W85569  39.908  18.279   2.144
13844W        W85570  14.406  33.065  14.388
13845W        W85571  29.819  34.160  13.172
13846W        W85572  42.543   5.638  11.620
13847W        W85573  20.262  44.295  11.255
13848W        W85574  24.271  16.286   4.139
13849W        W85575   1.277   0.259   0.577
13850W        W85576  21.330  27.785   4.802
13851W        W85577  33.608  21.734   3.372
13852W        W85578  15.212  19.708  10.676
13853W        W85579  33.743  18.522  13.943
13854W        W85580  19.773   3.785   0.843
13855W        W85581  10.728  12.747   3.231
13856W        W85582  17.972   6.316   1.329
13857W        W85583   4.634  23.255  13.042
13858W        W85584  26.652  29.565   3.261
13859W        W85585  15.238  41.819   0.957
13860W        W85586  43.978  13.264  12.464
13861W        W85587  22.024  18.253  12.068
13862W        W85588  31.561  29.954   1.773
13863W        W85589  35.172  36.222   2.846
13864W        W85590  42.394  30.713   4.467
13865W        W85591  17.290  34.577  14.880
13866W        W85592  39.062  38.884   0.898
13867W        W85593  10.563  22.549   0.674
13868W        W85594  28.450  11.694   5.027
13869W        W85595  44.869  33.843  13.788
13870W        W85596  12.687  39.414  10.576
13871W        W85597  19.996  28.204  11.923
13872W        W85598  22.636  39.050   0.950
13873W        W85599  23.181  41.352   3.728
13874W        W85600  19.456  27.728  14.318
13875W        W85601  13.977  42.512   3.719
13876W        W85602  11.133   9.875   1.724
13877W        W85603  44.292  22.432  10.119
13878W        W85604  42.096  10.910   1.636
13879W        W85605  17.757  27.628  10.875
13880W        W85606  21.314   5.260   3.587
13881W        W85607   7.276  16.877  11.232
13882W        W85608  23.910  39.048   1.513
13883W        W85609  11.221  25.158  11.100
13884W        W85610  29.609   9.672  14.690
13885W        W85611  13.769  11.594  10.989
13886W        W85612  14.599  42.763  13.930
13887W        W85613  31.651   8.329  13.214
13888W        W85614   0.375   8.305  11.002
13889W        W85615  13.575  30.489   3.738
13890W        W85616   6.441  22.745  12.493
13891W        W85617  24.023  33.190  11.886
13892W        W85618  22.090  17.645   1.156
13893W        W85619  16.648  39.614   3.985
13894W        W85620   8.180   4.485  11.174
13895W        W85621  36.060  34.149  10.733
13896W        W85622   0.281   4.684   4.379
13897W        W85623  36.646  38.541   0.718
13898W        W85624  43.545   1.973  13.193
13899W        W85625  18.844  28.136   3.627
13900W        W85626   0.032  17.600   0.842
13901W        W85627   2.573   4.508  13.865
13902W        W85628  20.818   5.273  14.439
13903W        W85629   6.605  25.197  13.143
13904W        W85630  37.386  35.087  12.025
13905W        W85631   2.832  25.240  12.553
13906W        W85632  14.853  12.794  14.863
13907W        W85633  43.753  25.708  13.317
13908W        W85634  26.970   5.156   1.300
13909W        W85635   2.816  22.221   0.900
13910W        W85636  18.608  13.643  12.492
13911W        W85637  10.701  25.536  12.028
13912W        W85638   8.002  19.710   3.648
13913W        W85639  38.977  34.592   0.435
13914W        W85640   8.918  43.719  11.118
13915W        W85641  22.047  17.298   2.636
13916W        W85642  21.499  35.523  13.790
13917W        W85643  15.049  38.834   2.063
13918W        W85644  20.251  23.936   1.806
13919W        W85645  11.907  15.174   4.371
13920W        W85646  14.747  35.566   3.851
13921W        W85647  15.836  35.674   4.212
13922W        W85648  42.559  20.865  14.765
13923W        W85649   6.896  10.600   1.686
13924W        W85650  14.703  38.778  13.042
13925W        W85651  17.049  37.851  10.543
13926W        W85652  38.847  15.221   4.939
13927W        W85653  39.974   1.507   3.551
13928W        W85654  10.708  16.844   4.501
13929W        W85655   9.164  16.282  10.540
13930W        W85656  25.993  10.334  13.013
13931W        W85657   8.351  28.094  10.388
13932W        W85658  10.443   3.575  13.096
13933W        W85659  30.400  20.120  14.680
13934W        W85660  39.568  30.177   1.227
13935W        W85661  25.955  14.756  12.947
13936W        W85662  25.233  29.973   0.738
13937W        W85663  35.513  13.099  10.738
13938W        W85664   8.906  44.192   3.044
13939W        W85665  25.604  26.562   4.470
13940W        W85666  34.347   9.446  11.996
13941W        W85667  29.456  21.985  11.627
13942W        W85668  27.055   5.831  10.661
13943W        W85669   7.622  29.449  11.805
13944W        W85670  43.348  39.504   1.271
13945W        W85671   6.581  13.376   2.364
13946W        W85672  15.828  18.595   2.176
13947W        W85673  38.090  22.555   3.659
13948W        W85674  33.895  24.024  12.789
13949W        W85675  13.256  21.128  10.641
13950W        W85676  36.794  26.451   0.713
13951W        W85677  23.015  41.910  13.479
13952W        W85678  13.500   4.243  10.955
13953W        W85679   8.643  19.699  11.489
13954W        W85680   8.766  13.716   2.223
13955W        W85681  11.823   3.214   1.350
13956W        W85682  28.730  44.027   1.325
13957W        W85683  34.598  30.142  12.346
13958W        W85684  33.436  34.831  13.128
13959W        W85685  14.622  23.720  12.789
13960W        W85686  33.657  10.506  12.926
13961W        W85687  26.721  29.306   5.223
13962W        W85688  25.755  35.063   3.509
13963W        W85689  19.964  38.866  13.450
13964W        W85690  24.981  21.440   3.261
13965W        W85691   1.875  42.383  10.727
13966W        W85692  21.960  30.686   0.401
13967W        W85693  34.431  28.816   2.821
13968W        W85694  39.862   4.778  10.690
13969W        W85695  26.153   9.319  12.022
13970W        W85696  27.005  24.957  10.754
13971W        W85697  43.024   2.567  14.783
13972W        W85698   9.207  34.114   3.173
13973W        W85699  35.282  22.171   2.785
13974W        W85700  31.075  33.790   2.929
13975W        W85701  28.955  27.115   4.318
13976W        W85702  29.951  32.090   4.303
13977W        W85703   9.326   2.438  11.123
13978W        W85704  16.239  24.030  10.695
13979W        W85705   2.834  43.472   0.388
13980W        W85706   5.509  21.018   2.364
13981W        W85707  17.615  39.829  12.874
13982W        W85708  28.631  24.765  13.443
13983W        W85709  18.607  37.282  11.962
13984W        W85710  37.983   0.496   4.088
13985W        W85711  12.773  12.405   1.382
13986W        W85712  32.881  33.927  12.707
13987W        W85713  44.828  18.786   2.179
13988W        W85714   8.040  27.280  13.012
13989W        W85715  24.061  34.978   2.421
13990W        W85716  35.473  30.547  11.992
13991W        W85717  30.039   9.423  14.530
13992W        W85718  24.480  30.628  13.039
13993W        W85719   7.769   6.812   4.137
13994W        W85720   3.254   5.656  14.591
13995W        W85721  14.700   9.096   0.902
13996W        W85722  38.627   3.159   4.365
13997W        W85723   3.824  19.054  11.515
13998W        W85724  41.546   5.047   4.247
13999W        W85725  19.539   2.844   2.256
14000W        W85726   5.344  44.794   4.521
14001W        W85727  15.555  29.460  14.500
14002W        W85728  10.849   0.316   0.842
14003W        W85729  13.153   5.131  12.415
14004W        W85730  19.267   3.341   2.273
14005W        W85731  24.388  20.226   1.920
14006W        W85732  31.839  17.771  13.656
14007W        W85733  15.571  20.757   2.696
14008W        W85734  44.824  29.987  11.643
14009W        W85735   0.357  18.692   2.253
14010W        W85736  34.288  30.722   4.376
14011W        W85737  13.380  17.791   4.653
14012W        W85738  40.894  29.966  12.115
14013W        W85739  26.471  40.962  11.635
14014W        W85740  18.648  36.631  11.124
14015W        W85741  22.092  40.890   2.773
14016W        W85742  24.120  44.047  11.828
14017W        W85743   7.131  26.005   2.356
14018W        W85744  34.828  11.179  13.045
14019W        W85745  10.941  16.047  13.966
14020W        W85746  42.711  13.272   1.377
14021W        W85747  40.718  31.653   4.122
14022W        W85748  41.847  31.449  11.749
14023W        W85749  41.998  20.246   4.087
14024W        W85750  13.043  32.541  14.551
14025W        W85751  23.488   6.341  13.024
14026W        W85752  35.047  10.579   0.751
14027W        W85753  26.913  20.570  10.606
14028W        W85754  12.722  41.364  14.860
14029W        W85755  26.355  41.510  11.484
14030W        W85756  34.835   7.178  11.155
14031W        W85757  12.412  13.743  12.085
14032W        W85758  18.887  11.412  11.221
14033W        W85759  29.547  36.407  12.096
14034W        W85760   3.762  31.462  12.393
14035W        W85761  18.162  29.894  10.775
14036W        W85762  17.509  15.851  12.835
14037W        W85763  17.769  41.823   3.177
14038W        W85764  39.101  26.462   0.458
14039W        W85765  23.597   4.388   4.434
14040W        W85766   6.983  26.091  11.916
14041W        W85767  44.021  12.059  14.272
14042W        W85768  21.393  44.157  10.197
14043W        W85769  20.168  33.082   3.241
14044W        W85770   0.325  18.107   4.005
14045W        W85771  33.730  41.710   3.709
14046W        W85772  31.215  39.063  13.303
14047W        W85773  14.276  26.999   2.884
14048W        W85774  44.124  31.138   1.251
14049W        W85775  14.457  21.548  11.869
14050W        W85776  15.263   4.758   2.793
14051W        W85777  38.026  34.869   2.661
14052W        W85778  37.042  20.141   0.353
14053W        W85779  35.418   7.722  12.426
14054W        W85780   7.387  32.551  12.510
14055W        W85781  33.845  39.170   2.362
14056W        W85782  21.054  10.307   2.780
14057W        W85783  33.563  42.618   2.579
14058W        W85784  15.675  21.942  14.375
14059W        W85785   5.023  39.470  13.088
14060W        W85786   6.902  40.902   4.151
14061W        W85787  24.671  38.889   4.233
14062W        W85788  12.595  31.504  10.399
14063W        W85789  13.100   3.123   5.094
14064W        W85790   0.882  40.385   0.132
14065W        W85791  37.614  36.941   2.113
14066W        W85792  43.999  35.465   0.003
14067W        W85793   7.727  35.057   5.029
14068W        W85794  18.169  29.787   3.636
14069W        W85795  38.162   2.791   4.196
14070W        W85796  13.538  41.491   4.135
14071W        W85797  28.087  34.320  12.613
14072W        W85798  21.886  28.897   4.639
14073W        W85799   5.461   6.362   3.642
14074W        W85800  34.072  31.054   0.339
14075W        W85801  30.036  28.418   1.496
14076W        W85802   4.356  21.545   1.325
14077W        W85803   0.988  43.804  10.719
14078W        W85804  21.169   2.277   1.498
14079W        W85805   3.219   4.897  11.658
14080W        W85806  31.067  41.108   2.167
14081W        W85807   1.899   4.764   2.255
14082W        W85808  19.647   0.385   3.612
14083W        W85809  23.272  10.684  12.631
14084W        W85810  15.800  27.515   3.208
14085W        W85811   3.413   1.297   2.750
14086W        W85812   2.301  32.602  11.626
14087W        W85813  39.432  30.598   3.589
14088W        W85814  14.820   6.231   0.014
14089W        W85815  25.672  27.432   0.332
14090W        W85816   7.077  32.515   1.929
14091W        W85817  42.261   3.969  12.948
14092W        W85818  14.292  33.075  10.932
14093W        W85819   1.227  21.530   4.604
14094W        W85820  17.828  22.632   0.719
14095W        W85821  27.197  10.628   1.187
14096W        W85822  16.437  26.006   1.440
14097W        W85823  41.025  12.741   0.748
14098W        W85824  41.227  36.347  14.304
14099W        W85825  32.374  24.907  14.900
14100W        W85826  24.028  13.346   4.725
14101W        W85827  34.369  17.818   2.814
14102W        W85828  15.332   4.687  13.946
14103W        W85829  31.168  26.196   0.705
14104W        W85830   5.858  10.525  14.362
14105W        W85831  16.865  24.120  11.531
14106W        W85832   4.472  22.345  12.902
14107W        W85833   7.423  32.706  11.537
14108W        W85834  31.924   6.238   5.032
14109W        W85835  39.227  24.466  13.398
14110W        W85836  13.932  31.849  13.790
14111W        W85837  44.982  26.068   1.243
14112W        W85838  31.256  40.898  10.780
14113W        W85839  34.679  31.631   0.771
14114W        W85840  42.133  39.025   0.983
14115W        W85841  24.181  22.165   3.578
14116W        W85842  35.022  19.172   0.863
14117W        W85843  41.396  30.598  12.123
14118W        W85844  22.105  19.482   1.779
14119W        W85845   7.697   7.203   1.300
14120W        W85846  34.295  20.831   2.516
14121W        W85847  23.567   5.249  11.431
14122W        W85848   3.931  29.508   1.355
14123W        W85849  39.954  15.921  13.107
14124W        W85850  15.763  29.727   1.802
14125W        W85851  30.163  14.186   3.281
14126W        W85852  33.330  14.408   3.763
14127W        W85853  11.785   6.379  11.872
14128W        W85854  14.331  42.907  12.457
14129W        W85855  35.594   9.138   0.298
14130W        W85856  32.942  21.384  11.688
14131W        W85857  23.452  38.364   1.913
14132W        W85858  11.318   0.476  12.640
14133W        W85859  36.022  29.029   2.992
14134W        W85860  32.071   9.632  11.007
14135W        W85861  22.806  41.000   2.002
14136W        W85862  14.518  41.922   2.895
14137W        W85863  29.117  43.302   0.999
14138W        W85864  27.410  19.796  11.647
14139W        W85865  17.890  10.810  10.838
14140W        W85866  21.109   7.927   2.907
14141W        W85867  21.441  28.015  12.048
14142W        W85868  12.821  39.102  12.943
14143W        W85869   8.312  25.899  10.441
14144W        W85870  20.028  20.573  13.896
14145W        W85871  22.808  35.556  11.180
14146W        W85872  20.234  39.458   2.986
14147W        W85873   1.281   0.153  11.564
14148W        W85874  27.125  44.487   2.298
14149W        W85875   4.747  41.584   3.253
14150W        W85876  42.534  22.736   1.840
14151W        W85877  18.080  43.233   2.697
14152W        W85878  38.335  22.278   2.813
14153W        W85879   8.792  37.309  13.483
14154W        W85880  20.862  26.258   4.536
14155W        W85881  37.169   1.423   0.382
14156W        W85882  16.206   3.063  11.200
14157W        W85883  22.063  20.141  14.383
14158W        W85884  20.750  27.040   9.769
14159W        W85885  39.986  21.254   2.376
14160W        W85886  26.485  11.741  13.952
14161W        W85887  44.503  40.965   1.278
14162W        W85888  15.206  34.005  13.830
14163W        W85889  43.005   9.528   4.862
14164W        W85890  16.775  41.875  11.233
14165W        W85891   6.294  17.412  14.835
14166W        W85892   3.983  24.926   0.889
14167W        W85893  40.111   6.184   0.363
14168W        W85894  19.350  23.972  14.490
14169W        W85895  11.270   1.264   0.721
14170W        W85896   7.644  33.989   1.218
14171W        W85897  11.677  32.382   2.158
14172W        W85898  39.911   7.038   2.779
14173W        W85899   5.847  16.615  12.477
14174W        W85900  33.757  12.805  11.255
14175W        W85901  29.138  43.219   3.259
14176W        W85902  20.026   7.233  14.857
14177W        W85903  26.068  31.633   3.826
14178W        W85904  14.629  38.769  14.837
14179W        W85905  39.679  31.639  11.188
14180W        W85906  22.592  29.399  13.713
14181W        W85907  38.783  39.782  11.568
14182W        W85908  29.592  10.430  10.791
14183W        W85909  25.127  14.599   3.204
14184W        W85910  41.338  35.917  12.681
14185W        W85911  38.886  29.324  12.969
14186W        W85912   6.711  44.565  13.430
14187W        W85913  21.674   5.317   0.815
14188W        W85914  43.390  10.920  10.700
14189W        W85915  35.629  13.494   0.528
14190W        W85916  13.836  42.025  13.442
14191W        W85917  17.830  21.247  12.862
14192W        W85918  15.745  23.731   1.843
14193W        W85919  26.473   8.827   0.245
14194W        W85920  19.651  29.961   1.860
14195W        W85921  18.798  21.526   1.954
14196W        W85922   6.425  24.129   3.832
14197W        W85923  36.523   6.438  12.642
14198W        W85924  40.345   5.101   3.846
14199W        W85925   5.743  39.307   1.006
14200W        W85926  16.193   3.995  14.810
14201W        W85927  24.010  39.538  11.605
14202W        W85928  37.750  23.725   4.097
14203W        W85929  13.535  27.453   2.894
14204W        W85930  25.364   6.791   3.274
14205W        W85931   0.936  38.460  10.730
14206W        W85932  17.133   7.173   2.217
14207W        W85933   9.127  32.678  11.118
14208W        W85934  21.431  36.536   3.345
14209W        W85935   5.414  28.771  13.158
14210W        W85936  21.057  14.071   2.674
14211W        W85937  27.655  19.759   2.316
14212W        W85938  21.515  34.741  11.071
14213W        W85939   3.284  10.243  13.062
14214W        W85940  32.342  38.137  11.006
14215W        W85941   6.500  34.271   4.248
14216W        W85942  41.798   8.942  13.490
14217W        W85943  26.960  25.446   1.949
14218W        W85944  27.957  34.590  11.898
14219W        W85945  11.374  10.584  13.514
14220W        W85946   4.938  11.607   2.973
14221W        W85947  30.743  12.371   1.172
14222W        W85948  38.177   2.533  11.530
14223W        W85949  29.578  12.830   1.705
14224W        W85950  32.844  18.847  13.612
14225W        W85951  44.535  17.685   0.837
14226W        W85952  32.458  24.714  11.139
14227W        W85953  10.630   8.260  12.143
14228W        W85954  31.145  17.203  14.745
14229W        W85955   6.878  16.899   3.624
14230W        W85956  43.255  29.574  14.479
14231W        W85957  36.834  24.312  14.247
14232W        W85958  30.612   7.698  11.995
14233W        W85959  43.873  41.425   1.682
14234W        W85960  32.456  29.618   3.199
14235W        W85961  12.446  25.790  10.736
14236W        W85962  11.871   6.456   0.699
14237W        W85963  32.601  19.564  14.779
14238W        W85964   2.025  43.726   3.420
14239W        W85965  38.546  17.197  13.473
14240W        W85966   4.346  27.528  14.360
14241W        W85967   2.027  24.865   2.641
14242W        W85968  27.854   9.722   1.855
14243W        W85969  38.919  27.440   4.084
14244W        W85970  42.446  23.294  12.048
14245W        W85971  26.391  28.331   0.796
14246W        W85972  10.580  26.084  13.431
14247W        W85973   0.877  23.096   0.389
14248W        W85974  25.782  32.019  11.625
14249W        W85975  20.572  18.012   2.229
14250W        W85976  39.098  27.126  11.028
14251W        W85977   2.796  27.012   4.968
14252W        W85978  43.075  29.519   2.166
14253W        W85979  39.853  19.181   4.609
14254W        W85980  37.604  38.357   3.176
14255W        W85981  13.502  31.890  13.252
14256W        W85982  15.273  25.546   4.822
14257W        W85983  39.107  36.045  12.563
14258W        W85984  32.424  31.912   1.204
14259W        W85985   7.689  39.373  13.825
14260W        W85986   2.611  30.434  12.983
14261W        W85987   0.093   9.570  13.793
14262W        W85988  20.716  43.746   2.059
14263W        W85989  32.647  19.491   0.290
14264W        W85990  27.660  43.250  13.487
14265W        W85991  14.601  22.314  12.241
14266W        W85992  38.345  27.980   4.580
14267W        W85993  26.635  10.625  13.784
14268W        W85994  40.896   0.279   0.208
14269W        W85995  25.717  23.554  11.467
14270W        W85996  33.601  33.389   2.389
14271W        W85997  13.377  26.505  10.761
14272W        W85998  10.347  32.688  11.527
14273W        W85999  15.283   9.424   4.633
14274W        W86000  39.721   4.819  14.418
14275W        W86001  20.592  30.683   2.138
14276W        W86002  27.032  40.484   1.466
14277W        W86003  16.862  42.988  14.280
14278W        W86004  39.617  30.656  14.692
14279W        W86005  42.098  11.904   4.934
14280W        W86006  37.437  28.481  14.898
14281W        W86007   0.482  29.879   1.843
14282W        W86008  27.348  35.417   3.030
14283W        W86009  21.959  13.840   3.670
14284W        W86010  40.820  37.846  12.404
14285W        W86011   3.382   8.679   1.275
14286W        W86012  34.431   8.574  10.638
14287W        W86013  32.994   9.963   2.216
14288W        W86014  21.571  19.512   4.428
14289W        W86015  18.548  25.246   2.764
14290W        W86016  36.067  12.547   1.757
14291W        W86017   7.080   4.700   3.010
14292W        W86018  14.701  37.369  14.917
14293W        W86019  29.704  11.093  13.033
14294W        W86020  30.009  14.651   2.474
14295W        W86021  22.171   1.177   3.360
14296W        W86022  40.941  15.699   5.039
14297W        W86023  18.484   3.814   0.910
14298W        W86024  41.761  37.536  14.851
14299W        W86025  25.222  16.162  12.503
14300W        W86026  27.066   7.480  12.010
14301W        W86027  33.391  25.051   2.825
14302W        W86028  32.075  13.122   2.051
14303W        W86029  20.006  23.750   1.368
14304W        W86030  25.830  35.424   3.116
14305W        W86031  18.480   5.964   4.619
14306W        W86032   9.928  12.725  13.765
14307W        W86033  19.803  33.124  11.445
14308W        W86034  20.206  11.659  11.824
14309W        W86035   4.882  12.680  14.865
14310W        W86036  37.338  26.994  14.978
14311W        W86037   8.363  19.973   2.427
14312W        W86038  20.263  16.754  12.096
14313W        W86039   1.438  38.660  12.795
14314W        W86040  27.985  42.094  14.892
14315W        W86041  36.552  43.268  12.251
14316W        W86042  41.521  25.087   0.220
14317W        W86043  31.987   8.955   5.014
14318W        W86044  40.116  32.389  12.915
14319W        W86045  12.641  40.106   1.303
14320W        W86046  10.595  12.430   3.634
14321W        W86047  37.937   0.542  13.863
14322W        W86048   7.089  30.478  13.499
14323W        W86049  35.102  40.266   1.882
14324W        W86050  15.305  33.947   4.475
14325W        W86051  26.005  17.572  14.899
14326W        W86052  37.521  11.046   3.779
14327W        W86053  28.988  22.314  10.971
14328W        W86054  36.322  11.163  12.904
14329W        W86055  32.579  16.812  14.562
14330W        W86056   4.340  10.092  12.930
14331W        W86057  11.639   7.675   2.709
14332W        W86058   3.848  40.230  14.935
14333W        W86059  43.116  40.165   2.901
14334W        W86060  30.604  10.267  13.489
14335W        W86061   2.643  35.058   0.269
14336W        W86062  36.891  27.704   2.826
14337W        W86063  28.538  21.296  13.359
14338W        W86064  40.922   4.407   3.990
14339W        W86065  15.768   8.137  12.436
14340W        W86066   5.232  22.680  13.272
14341W        W86067  26.831  40.494   2.490
14342W        W86068  43.196  14.300  11.237
14343W        W86069  34.141  44.009  13.791
14344W        W86070   5.485  44.706   0.192
14345W        W86071  32.601  29.204  14.564
14346W        W86072  17.032  30.503  12.399
14347W        W86073  42.025  13.068  10.773
14348W        W86074   6.259  44.748   0.026
14349W        W86075   5.832  37.306   1.842
14350W        W86076  24.171  31.434  11.899
14351W        W86077  41.039  34.375  11.549
14352W        W86078  34.906  18.002   4.344
14353W        W86079  40.763  40.135   3.653
14354W        W86080  42.926  34.952   2.139
14355W        W86081  29.931   6.270  13.808
14356W        W86082  41.948   9.672  14.282
14357W        W86083  11.030  27.012   2.232
14358W        W86084  34.765  10.866  12.198
14359W        W86085  33.343  15.940   3.239
14360W        W86086  38.905  41.797   1.441
14361W        W86087  30.854   7.795   0.226
14362W        W86088   1.264  44.734  13.482
14363W        W86089  32.357  19.123  10.570
14364W        W86090  34.606  20.214  11.931
14365W        W86091  11.877  33.588   3.219
14366W        W86092  29.112  32.072  12.930
14367W        W86093  44.235  42.016  12.357
14368W        W86094  31.021   0.457   2.637
14369W        W86095  33.681   7.912   1.444
14370W        W86096  15.383  25.006  14.284
14371W        W86097  42.381  17.223  10.447
14372W        W86098  15.205  42.123  11.752
14373W        W86099  29.538  29.045   1.917
14374W        W86100  37.253   3.465   4.039
14375W        W86101  23.073  19.033  11.664
14376W        W86102   6.189  37.962  12.549
14377W        W86103  38.140  33.314   0.898
14378W        W86104  28.998  24.230   5.662
14379W        W86105  42.382  26.447  10.562
14380W        W86106  44.019  11.620   2.603
14381W        W86107   1.916  25.453  11.824
14382W        W86108   0.073  34.195  14.594
14383W        W86109  20.595  27.835   1.139
14384W        W86110  28.156  28.588   4.307
14385W        W86111  27.399   0.532   2.688
14386W        W86112  44.650  23.779  10.120
14387W        W86113  43.359  10.909   0.920
14388W        W86114  39.248  32.801   4.209
14389W        W86115   6.838  31.386  12.599
14390W        W86116   8.141  24.189   4.599
14391W        W86117   2.692  39.805  11.226
14392W        W86118  33.176  33.229  14.999
14393W        W86119  32.578  37.952   4.724
14394W        W86120  39.017  29.177   4.558
14395W        W86121  35.271  25.193   2.890
14396W        W86122  36.541  43.322  12.825
14397W        W86123  20.295  34.699  14.186
14398W        W86124  13.144   5.872   4.756
14399W        W86125  21.751   3.305   4.121
14400W        W86126   8.119  19.411  13.637
14401W        W86127  39.516  28.467  14.231
14402W        W86128   7.343  25.663   1.638
14403W        W86129  29.968  34.875   1.175
14404W        W86130  12.758  34.591   4.697
14405W        W86131  24.883  21.179  14.352
14406W        W86132   6.885  36.427  13.311
14407W        W86133   1.843  12.330  14.716
14408W        W86134   8.375  36.894  12.844
14409W        W86135  42.506  30.600   3.980
14410W        W86136  23.622  12.358  12.598
14411W        W86137   4.553  12.755   1.628
14412W        W86138   5.187   9.750  13.086
14413W        W86139  34.066  13.645  12.808
14414W        W86140  30.613  15.214  13.028
14415W        W86141  31.157  10.492  10.730
14416W        W86142  36.805  17.787  13.372
14417W        W86143  14.707  17.696  13.105
14418W        W86144  38.497  14.133  13.124
14419W        W86145  43.554  27.030   0.008
14420W        W86146   1.539  35.765  13.085
14421W        W86147  32.892  41.851  11.539
14422W        W86148  23.189  40.504  13.832
14423W        W86149  28.749  15.746   0.921
14424W        W86150  10.876   2.471   3.207
14425W        W86151  19.540   2.450   2.658
14426W        W86152  13.552   3.479   4.240
14427W        W86153  12.859  21.654  14.859
14428W        W86154   6.593  12.583  13.785
14429W        W86155   6.124  43.154   3.620
14430W        W86156  23.581   7.957  12.446
14431W        W86157  20.264   2.297   0.939
14432W        W86158  11.672  10.262  13.070
14433W        W86159  17.042  27.223   3.911
14434W        W86160   6.379  33.950   2.886
14435W        W86161  28.189  36.930  14.388
14436W        W86162  32.473  30.171   1.771
14437W        W86163   7.588  16.051   0.920
14438W        W86164  41.322   5.700   0.940
14439W        W86165   7.687  13.103   0.173
14440W        W86166  13.641  18.690   2.822
14441W        W86167  34.979  28.177   2.604
14442W        W86168  37.865  21.429  11.139
14443W        W86169  19.780  43.432  10.682
14444W        W86170  33.132  41.031   4.567
14445W        W86171  42.530  36.883   3.027
14446W        W86172  37.884   7.737  14.422
14447W        W86173   6.736  44.287   1.594
14448W        W86174  40.292  36.810  11.421
14449W        W86175  39.336   7.842  14.976
14450W        W86176  31.035  25.732  14.369
14451W        W86177   4.573  19.607   3.647
14452W        W86178  15.079  15.340  13.686
14453W        W86179   6.801  37.677   2.566
14454W        W86180  12.918  40.340  10.987
14455W        W86181  31.996  13.342   1.038
14456W        W86182  14.194   1.215  14.386
14457W        W86183  20.192  18.044   4.515
14458W        W86184  20.754  11.286  11.535
14459W        W86185  11.086   4.314   3.286
14460W        W86186  31.065  22.705  10.948
14461W        W86187  12.916  11.242   1.244
14462W        W86188  29.561  42.837  11.892
14463W        W86189  42.354  34.950  10.744
14464W        W86190  13.264  29.863   3.638
14465W        W86191  35.603   8.775   2.470
14466W        W86192   5.883  15.347   0.719
14467W        W86193  39.468  38.692  11.178
14468W        W86194  21.649  17.848  13.357
14469W        W86195  28.576  13.169   0.466
14470W        W86196  12.106   7.118   3.820
14471W        W86197  38.876  15.115  13.365
14472W        W86198  40.084  31.816   1.756
14473W        W86199  12.150   7.881   2.766
14474W        W86200  18.507   7.664  12.698
14475W        W86201  26.486   6.408  11.628
14476W        W86202   8.782   5.188   0.922
14477W        W86203   0.733  21.984   4.040
14478W        W86204  15.818  23.690   2.880
14479W        W86205  11.613  12.023  11.573
14480W        W86206   5.496  12.938   3.289
14481W        W86207  14.045  11.717   2.718
14482W        W86208   0.755   0.766   4.052
14483W        W86209  18.638  37.195   4.521
14484W        W86210   1.817  12.363  10.719
14485W        W86211  35.263  44.230  12.461
14486W        W86212  44.739  41.930  10.700
14487W        W86213  39.913  10.810  11.603
14488W        W86214   5.194   8.422   1.751
14489W        W86215  26.262  23.239  11.548
14490W        W86216  21.031  40.332   3.269
14491W        W86217  26.193   8.226   3.189
14492W        W86218   2.772  24.144   4.957
14493W        W86219  16.752  38.792  13.531
14494W        W86220  32.182   9.489   0.026
14495W        W86221   9.217  36.018  13.428
14496W        W86222   7.406  23.730  13.923
14497W        W86223  27.252  28.444  12.560
14498W        W86224   5.998  38.905   0.809
14499W        W86225  40.520   0.437  12.978
14500W        W86226   7.668  18.537  12.429
14501W        W86227  19.481   5.970   4.596
14502W        W86228  32.819  15.815  11.928
14503W        W86229  21.447  32.380   0.351
14504W        W86230   3.894  11.532   2.736
14505W        W86231  21.154  26.859  14.420
14506W        W86232  37.789   1.009  11.513
14507W        W86233   0.364  20.605   2.868
14508W        W86234   6.767  10.073   3.113
14509W        W86235   6.287   1.555  10.787
14510W        W86236  28.082  44.718   0.913
14511W        W86237  21.641  15.723  10.673
14512W        W86238  11.767  23.593   0.698
14513W        W86239  24.213  20.694   2.217
14514W        W86240   9.847  44.018   1.516
14515W        W86241  21.670  10.168  10.997
14516W        W86242  10.708  17.302   3.952
14517W        W86243  43.226  18.192  13.304
14518W        W86244  38.671  40.029   9.689
14519W        W86245  41.053  29.182  12.496
14520W        W86246  15.031  38.549  11.640
14521W        W86247  32.104  20.718   4.312
14522W        W86248  41.791  43.126   1.402
14523W        W86249  43.256  23.671   5.197
14524W        W86250  28.108  34.034  13.904
14525W        W86251  29.114  29.364   2.596
14526W        W86252  33.642   1.823   3.713
14527W        W86253  36.079  15.760   4.665
14528W        W86254  24.014  26.684   4.176
14529W        W86255  38.893  23.183   2.094
14530W        W86256  29.682  39.357   0.001
14531W        W86257  36.252  28.684  11.110
14532W        W86258  30.010  36.058   4.215
14533W        W86259  44.889   8.240   2.147
14534W        W86260  24.083   0.310   4.588
14535W        W86261  11.412   6.783  10.537
14536W        W86262  31.413  24.507  11.501
14537W        W86263  33.229  43.714   3.502
14538W        W86264   9.216  18.777  12.956
14539W        W86265  35.655  18.562  12.499
14540W        W86266  25.447  36.793  10.706
14541W        W86267  42.755  17.618   5.050
14542W        W86268  37.481  20.054  10.974
14543W        W86269   6.910  27.624  12.504
14544W        W86270  23.482  33.610   2.665
14545W        W86271  39.667  26.095   3.322
14546W        W86272  25.613  32.900   3.914
14547W        W86273   5.511   3.137   3.720
14548W        W86274  27.028  22.221  12.010
14549W        W86275  12.402  11.758  11.589
14550W        W86276  33.425  27.182   3.202
14551W        W86277  39.744   7.651   0.252
14552W        W86278  44.767  23.535   2.167
14553W        W86279  25.846  32.536   3.160
14554W        W86280  19.598   1.292  14.954
14555W        W86281  12.502  13.207  11.585
14556W        W86282  10.705   7.373  14.397
14557W        W86283  30.019   2.199  14.459
14558W        W86284  13.645  44.873  12.362
14559W        W86285  13.858  24.326   0.352
14560W        W86286  15.835  13.708  14.065
14561W        W86287   9.721  39.675  14.773
14562W        W86288  41.993  25.944  13.392
14563W        W86289  44.507  30.868  10.768
14564W        W86290   0.145  39.806  10.344
14565W        W86291  43.881  42.806   4.595
14566W        W86292  32.173  24.819   3.269
14567W        W86293  26.628   6.627   4.164
14568W        W86294  36.089  20.752   1.269
14569W        W86295  38.553   7.535  11.635
14570W        W86296  25.508   6.908  11.621
14571W        W86297  19.192  26.690  11.941
14572W        W86298   7.770  42.491   4.051
14573W        W86299   8.435  18.217   1.370
14574W        W86300   6.860  23.892   3.724
14575W        W86301   5.181   9.448  10.621
14576W        W86302  25.481   6.288  13.663
14577W        W86303   7.905   1.370  11.591
14578W        W86304  31.090  20.017   0.805
14579W        W86305  17.292  11.749  14.841
14580W        W86306   0.624  24.665   1.687
14581W        W86307   5.809  39.177  13.836
14582W        W86308  39.417   2.963  11.138
14583W        W86309  13.591  37.958   4.943
14584W        W86310  16.242  11.537  13.077
14585W        W86311   4.616  35.144   3.777
14586W        W86312  31.130   3.189   0.564
14587W        W86313   6.106  43.443   1.801
14588W        W86314  43.837   1.648  14.797
14589W        W86315  44.762  13.704   1.587
14590W        W86316   8.929   4.825   4.701
14591W        W86317   1.794  42.415   4.760
14592W        W86318  21.770  19.833   4.012
14593W        W86319  20.181  34.279   4.211
14594W        W86320   6.628   4.391   4.986
14595W        W86321  34.139  29.074  13.406
14596W        W86322   2.814  26.312  11.273
14597W        W86323  13.101  44.175   4.601
14598W        W86324  16.663  35.457   0.977
14599W        W86325   4.677   7.343   0.973
14600W        W86326   9.152  30.978   1.694
14601W        W86327  18.329  38.066   0.141
14602W        W86328  43.301  11.126   3.380
14603W        W86329  43.461  36.518   0.680
14604W        W86330  13.411  36.120   4.217
14605W        W86331  35.440  43.281  12.789
14606W        W86332  36.870  42.672  13.458
14607W        W86333   7.403  41.292   4.612
14608W        W86334  28.487  19.099  14.750
14609W        W86335  13.334  36.431  12.950
14610W        W86336  25.590  32.109   2.724
14611W        W86337  31.176  19.844  12.475
14612W        W86338  39.528  14.478  14.559
14613W        W86339  41.346  33.961  11.369
14614W        W86340  34.816  27.284   2.767
14615W        W86341  10.250   1.809  14.922
14616W        W86342   5.365  29.028  14.020
14617W        W86343  18.513  17.081  14.025
14618W        W86344  16.226  26.127  14.461
14619W        W86345  27.498  37.930  14.999
14620W        W86346  28.123   3.570  14.634
14621W        W86347  41.426  29.998   3.071
14622W        W86348  17.746  27.571  12.284
14623W        W86349   6.179   5.912  10.401
14624W        W86350   7.095   0.404  14.398
14625W        W86351  28.187  17.488   0.344
14626W        W86352  21.291  36.538  12.180
14627W        W86353  39.062  39.109  11.058
14628W        W86354  24.173   8.411  11.117
14629W        W86355   4.379  17.707  13.146
14630W        W86356  12.993  44.227   2.656
14631W        W86357  23.506   8.711  10.663
14632W        W86358  18.896   8.448   4.644
14633W        W86359  13.802  11.213   2.834
14634W        W86360  41.558  27.176  13.312
14635W        W86361  24.564  16.844   0.198
14636W        W86362   7.831  32.172   3.567
14637W        W86363  32.436  13.182  14.799
14638W        W86364  16.431  20.565   3.286
14639W        W86365  33.071  34.616   3.789
14640W        W86366   2.310  12.754   3.288
14641W        W86367  32.665  24.595  13.470
14642W        W86368   4.750  18.545   1.478
14643W        W86369  38.125  31.510   0.867
14644W        W86370  10.151  32.754  13.892
14645W        W86371  16.490   7.695  12.316
14646W        W86372   5.665  41.058   1.835
14647W        W86373  32.087  19.534   3.069
14648W        W86374   0.951   1.999  12.948
14649W        W86375   6.133  23.598  13.865
14650W        W86376  15.424  34.863  14.949
14651W        W86377  32.369  11.621   2.914
14652W        W86378  23.543   8.430   2.097
14653W        W86379  14.319   9.203  13.521
14654W        W86380  39.388  18.811  11.100
14655W        W86381  25.679  13.027   3.667
14656W        W86382  42.398  26.172  11.584
14657W        W86383  44.603  19.714  10.714
14658W        W86384  18.775  21.628   3.842
14659W        W86385  44.281   3.288   4.144
14660W        W86386  30.558   9.687  10.680
14661W        W86387   7.664  21.732  13.076
14662W        W86388  22.048  16.386  11.816
14663W        W86389  33.487  18.995   4.070
14664W        W86390   3.408  21.042  13.305
14665W        W86391  38.289  14.578  14.514
14666W        W86392  24.073   1.595   2.352
14667W        W86393  43.379  43.432   2.181
14668W        W86394  32.487  44.871  11.384
14669W        W86395   3.691  41.932  13.447
14670W        W86396   4.323   3.992  11.971
14671W        W86397   7.883  36.906  11.437
14672W        W86398  10.622  29.170  13.304
14673W        W86399  30.191   1.867  11.203
14674W        W86400  21.789  31.585   4.735
14675W        W86401  32.279  27.771   4.037
14676W        W86402  11.175   0.755   3.768
14677W        W86403  16.054  39.832   1.352
14678W        W86404  15.761  28.593   0.762
14679W        W86405  16.282  23.461  14.402
14680W        W86406  33.450  33.220  11.933
14681W        W86407  29.456  41.283  14.389
14682W        W86408  12.156  44.448   3.859
14683W        W86409  33.416  29.679   2.816
14684W        W86410   2.539  20.839   0.539
14685W        W86411  23.031  36.007   3.744
14686W        W86412  33.801  20.201  13.912
14687W        W86413  21.432  13.230   4.454
14688W        W86414  35.049  31.389  13.738
14689W        W86415   0.043   3.374   4.710
14690W        W86416  36.387  24.412  14.013
14691W        W86417  31.869  38.841   0.926
14692W        W86418  39.150  33.262  14.343
14693W        W86419  12.876  30.831   0.791
14694W        W86420  10.627  15.947  12.043
14695W        W86421  34.798  30.927  10.781
14696W        W86422  34.979  20.737  10.306
14697W        W86423  23.106   5.816  12.031
14698W        W86424  23.227  11.374   2.380
14699W        W86425  27.155  32.976  14.025
14700W        W86426   6.738  29.058  10.841
14701W        W86427   4.253  10.170  13.831
14702W        W86428  18.121  23.202  10.835
14703W        W86429  27.940  27.006   1.366
14704W        W86430  31.159  26.459   5.503
14705W        W86431  15.644  29.935  13.206
14706W        W86432  16.149  14.629  13.358
14707W        W86433  24.105  25.253   0.400
14708W        W86434  26.428   7.471   4.800
14709W        W86435  41.348   7.698  11.837
14710W        W86436  19.283  14.939  14.947
14711W        W86437  39.835  18.826  14.400
14712W        W86438   5.490  33.512   3.232
14713W        W86439   9.955  34.871  13.402
14714W        W86440  25.408  25.169   3.229
14715W        W86441  29.503  36.384  13.040
14716W        W86442  14.160  25.431   4.077
14717W        W86443   6.029  16.003  12.969
14718W        W86444  15.863  42.788  14.375
14719W        W86445  28.175  11.687   1.804
14720W        W86446  37.664  23.091  11.608
14721W        W86447  21.295  18.309  13.487
14722W        W86448  38.542   2.297  13.525
14723W        W86449  14.069   1.866   2.742
14724W        W86450  37.913   1.843   4.479
14725W        W86451  22.801  23.119   2.112
14726W        W86452  33.490  33.496  10.799
14727W        W86453  31.470  10.371   4.523
14728W        W86454  25.864  41.370   0.942
14729W        W86455  43.800  38.337  14.977
14730W        W86456  25.705  20.735  13.996
14731W        W86457   8.864  29.663  11.167
14732W        W86458  23.238  12.695   2.771
14733W        W86459  40.209  34.804  10.622
14734W        W86460   6.631   3.535  12.352
14735W        W86461  27.580  13.254  10.718
14736W        W86462   4.218  36.609  10.559
14737W        W86463  17.146   1.387   3.060
14738W        W86464  26.637  34.435  11.433
14739W        W86465  30.047  10.441   3.615
14740W        W86466  13.632  38.031  11.913
14741W        W86467  23.102  42.270   0.470
14742W        W86468  15.540  31.084  13.295
14743W        W86469  26.481  21.305  10.320
14744W        W86470  15.788  19.281  12.219
14745W        W86471  28.314  33.569   0.239
14746W        W86472  20.276  21.509  11.168
14747W        W86473   0.837  13.477  14.594
14748W        W86474  12.764  19.001  10.742
14749W        W86475  30.638  14.872  12.645
14750W        W86476   3.394  32.277  14.497
14751W        W86477   5.475  42.265   2.117
14752W        W86478  22.302  31.146  12.018
14753W        W86479  22.094   6.664   3.624
14754W        W86480  27.966  39.814  10.920
14755W        W86481  28.095  11.295   5.026
14756W        W86482  23.547   4.374   0.742
14757W        W86483  31.187  32.603   2.533
14758W        W86484   3.132  13.107   3.914
14759W        W86485   6.388  11.744  14.991
14760W        W86486   4.764  43.774   4.008
14761W        W86487  22.270  14.150   1.865
14762W        W86488  36.729  35.743  12.079
14763W        W86489   2.252  33.409  12.167
14764W        W86490  34.127  43.360  13.104
14765W        W86491  38.413   6.509  13.247
14766W        W86492  41.524   7.921  12.517
14767W        W86493  39.485  31.890   4.602
14768W        W86494   0.187  14.779   2.137
14769W        W86495  39.820  35.229   0.473
14770W        W86496  13.838  15.262  13.072
14771W        W86497  41.619  44.945   1.802
14772W        W86498  36.999  38.110  13.090
14773W        W86499  28.262   3.832  10.099
14774W        W86500  19.289  18.509  14.304
14775W        W86501  19.307  37.892   4.050
14776W        W86502  35.811  29.115   3.972
14777W        W86503  27.641   6.829   0.957
14778W        W86504   9.133  32.991   9.827
14779W        W86505  20.598  42.614   0.266
14780W        W86506  17.671  14.265   2.874
14781W        W86507  39.056  31.666   4.816
14782W        W86508  23.934  30.165   3.282
14783W        W86509  18.540  11.062   0.585
14784W        W86510  31.344  11.177  13.824
14785W        W86511   9.197  15.710  11.816
14786W        W86512  29.158  35.901  14.679
14787W        W86513  23.231  36.038   0.255
14788W        W86514   2.873  36.916   0.863
14789W        W86515  10.365   6.077  10.268
14790W        W86516  24.179   5.048  10.283
14791W        W86517   0.557  19.083   4.380
14792W        W86518  25.071  15.870   4.640
14793W        W86519  10.858  10.144  14.353
14794W        W86520  21.117  14.358  13.807
14795W        W86521  39.777  25.462   0.809
14796W        W86522  17.290  28.018  12.388
14797W        W86523   1.323  30.681   2.856
14798W        W86524  13.086  18.797   4.774
14799W        W86525  22.771  36.461   3.684
14800W        W86526   2.677   9.341  11.528
14801W        W86527  26.761   8.143   4.149
14802W        W86528  32.514  35.474   4.516
14803W        W86529   2.816  25.188  11.990
14804W        W86530  19.780  31.493   2.102
14805W        W86531  37.310   0.540  14.418
14806W        W86532  40.119   2.514   1.838
14807W        W86533   8.679  37.645  11.322
14808W        W86534  13.332  41.204  11.698
14809W        W86535  31.489  12.826   0.890
14810W        W86536   4.419   9.519   1.844
14811W        W86537   0.415  35.656  13.981
14812W        W86538   2.316   2.672   0.418
14813W        W86539   0.998   7.899  11.652
14814W        W86540  24.272  24.939  12.180
14815W        W86541  21.000  12.238   2.408
14816W        W86542  44.964   5.975   3.646
14817W        W86543  14.387   1.015  10.670
14818W        W86544  23.143  37.468  13.030
14819W        W86545  22.107  22.250   1.806
14820W        W86546  31.974   0.365   4.546
14821W        W86547   5.229  17.742  14.950
14822W        W86548  11.783  30.175   1.687
14823W        W86549  15.149  23.662  12.012
14824W        W86550   2.718   7.558  11.079
14825W        W86551  44.026  33.640   4.033
14826W        W86552  39.254  17.787   3.263
14827W        W86553  32.360   3.470   3.309
14828W        W86554  39.898  33.272   2.693
14829W        W86555  34.693  41.316   0.832
14830W        W86556  37.705  11.154   0.350
14831W        W86557  36.237  14.684  10.825
14832W        W86558   9.670  28.507   0.017
14833W        W86559  42.736   0.969  10.621
14834W        W86560  15.666  15.794  12.633
14835W        W86561  32.062  39.522   0.471
14836W        W86562  26.047  19.793   0.354
14837W        W86563  38.947  18.785   1.783
14838W        W86564  11.912  37.963  13.881
14839W        W86565  37.458  40.011  10.635
14840W        W86566  43.309   5.910  12.911
14841W        W86567  19.997  44.472   1.930
14842W        W86568  31.982  38.554   2.393
14843W        W86569  34.827   3.745   2.800
14844W        W86570  24.932  30.586  13.987
14845W        W86571   8.060  27.152   0.758
14846W        W86572  29.195   1.922  12.067
14847W        W86573   3.907  33.100  12.585
14848W        W86574  29.634  36.593  14.034
14849W        W86575  17.496  13.828   9.698
14850W        W86576  36.884  15.465  13.594
14851W        W86577  26.979  13.931  11.178
14852W        W86578   5.900  21.267  13.093
14853W        W86579  15.068  40.316  14.535
14854W        W86580  35.650  43.531   3.228
14855W        W86581  25.202   7.260   4.281
14856W        W86582  24.516  43.410  12.790
14857W        W86583  33.622  17.533   1.957
14858W        W86584  15.735  11.119  14.978
14859W        W86585  10.610  28.513   2.183
14860W        W86586  33.626  35.920   1.781
14861W        W86587  40.132  10.244  12.810
14862W        W86588   9.668  36.282  13.429
14863W        W86589  18.181  37.943   4.577
14864W        W86590  37.607   9.180   2.659
14865W        W86591   9.284  22.071   4.383
14866W        W86592  19.316   5.003   4.094
14867W        W86593  30.564  18.587  10.917
14868W        W86594   2.213  26.991  10.781
14869W        W86595  43.937   7.185   2.699
14870W        W86596  22.170  44.746  12.101
14871W        W86597  43.805  18.722  12.147
14872W        W86598  42.791  12.607  14.519
14873W        W86599   2.481  39.370   3.758
14874W        W86600  39.269  25.654  14.951
14875W        W86601  12.752  43.985  11.367
14876W        W86602  21.607  27.073  14.744
14877W        W86603  33.468   7.874  13.013
14878W        W86604  12.704  43.426   0.918
14879W        W86605  19.961  44.042   1.674
14880W        W86606  16.097  26.978   2.362
14881W        W86607  14.933  31.466   2.344
14882W        W86608  11.709  37.481   2.363
14883W        W86609   7.450  10.490  13.519
14884W        W86610  26.640  27.966  14.444
14885W        W86611  26.435  11.936   4.083
14886W        W86612  15.001  34.429  13.570
14887W        W86613  28.812  33.400  11.313
14888W        W86614  25.788  28.126   3.878
14889W        W86615  32.024  22.992   3.816
14890W        W86616   0.005   8.585   3.432
14891W        W86617  34.548  10.396   4.602
14892W        W86618   5.146   4.948   3.720
14893W        W86619  31.133  35.127  10.979
14894W        W86620   9.609   4.184  12.504
14895W        W86621   3.457  42.847   4.894
14896W        W86622  22.005  17.143  11.393
14897W        W86623   1.007  13.331   0.321
14898W        W86624  23.201  12.024  11.506
14899W        W86625  20.244  16.007   2.953
14900W        W86626  17.595  21.614  12.577
14901W        W86627  30.874  26.321  10.964
14902W        W86628  14.662  28.214   4.105
14903W        W86629  20.140  24.997   2.204
14904W        W86630  43.773   3.494   3.268
14905W        W86631   1.819  14.233   2.493
14906W        W86632  32.285  28.237   4.287
14907W        W86633  14.767   1.942   0.225
14908W        W86634  43.798  34.905  13.945
14909W        W86635  38.284   5.108  14.486
14910W        W86636  16.745  40.217   2.754
14911W        W86637   7.918  33.965   3.725
14912W        W86638  26.915  32.352   4.504
14913W        W86639  24.336   4.926   3.507
14914W        W86640  27.910  32.597   0.928
14915W        W86641  42.364  43.881   1.756
14916W        W86642  41.340   4.872   0.778
14917W        W86643   9.756   4.411   0.144
14918W        W86644   2.336  36.876   0.768
14919W        W86645  29.051  24.095  12.115
14920W        W86646   5.405  20.128   2.412
14921W        W86647  35.537  15.820  14.380
14922W        W86648   3.197   6.129  12.017
14923W        W86649   5.728  19.272  14.840
14924W        W86650  21.309  27.498  10.327
14925W        W86651   3.452  22.630   1.390
14926W        W86652  20.664  38.107   1.352
14927W        W86653   1.446  17.715  14.788
14928W        W86654   2.747  38.506   3.951
14929W        W86655  10.141  42.420  10.629
14930W        W86656  31.691  24.158   2.377
14931W        W86657  11.899  21.094  12.948
14932W        W86658   4.379   4.973  13.085
14933W        W86659   5.847   4.485  14.582
14934W        W86660  19.242  32.239   2.745
14935W        W86661  38.006  26.670  14.922
14936W        W86662  26.040   6.101  11.534
14937W        W86663  37.596  35.241  13.512
14938W        W86664   4.016  23.143   2.662
14939W        W86665  28.330  37.355  11.950
14940W        W86666  37.313   2.813  11.594
14941W        W86667   4.055  38.908  10.608
14942W        W86668  22.601  37.100   3.206
14943W        W86669  12.744  17.504  12.516
14944W        W86670   7.401  22.632   4.553
14945W        W86671  18.216  36.543   0.697
14946W        W86672  36.850  15.371  12.447
14947W        W86673  34.578   2.052   1.988
14948W        W86674  14.574  17.806  13.604
14949W        W86675  19.128   4.881  14.502
14950W        W86676   0.943  44.747   2.330
14951W        W86677  28.479   8.381  11.688
14952W        W86678  26.621  22.900  12.400
14953W        W86679  23.373   7.740   0.245
14954W        W86680   1.990  35.972   3.518
14955W        W86681   7.296  20.541  13.854
14956W        W86682  31.966   4.420   4.864
14957W        W86683  13.583  26.048  13.587
14958W        W86684  15.137  17.276   3.640
14959W        W86685  31.317  13.851   1.316
14960W        W86686  10.889  30.897   2.873
14961W        W86687  41.506  11.714   1.069
14962W        W86688  40.763  33.759   2.402
14963W        W86689  12.151  19.315  11.971
14964W        W86690  10.800  34.476  14.160
14965W        W86691   6.777  40.454  14.258
14966W        W86692  26.438  12.312  14.875
14967W        W86693   2.352  17.640  11.404
14968W        W86694   5.737  36.036  10.975
14969W        W86695  39.234  34.060   0.525
14970W        W86696  22.542  13.073  12.025
14971W        W86697  25.531   8.409   2.430
14972W        W86698  32.659   8.777  11.146
14973W        W86699  25.076   5.370   1.387
14974W        W86700  33.842  44.723  14.514
14975W        W86701  39.985   4.542  10.223
14976W        W86702  11.032  20.400   2.007
14977W        W86703   6.276   6.478  13.111
14978W        W86704  33.894  31.648   0.426
14979W        W86705  30.716   9.132   4.652
14980W        W86706  23.497  20.085   3.192
14981W        W86707   3.732  15.309   5.014
14982W        W86708  23.722   0.587   5.508
14983W        W86709  13.683  21.453   0.349
14984W        W86710  17.469  15.711  14.167
14985W        W86711   5.882  42.301   3.645
14986W        W86712   2.590  38.034  14.755
14987W        W86713  13.310   2.198  14.056
14988W        W86714  17.211  27.474  11.170
14989W        W86715  31.972   1.042  13.666
14990W        W86716  27.686  38.876   0.401
14991W        W86717  23.932  18.653  11.185
14992W        W86718  27.259  19.059   4.839
14993W        W86719  11.577  27.032  10.665
14994W        W86720  11.271  37.636  10.793
14995W        W86721  28.237  27.009  13.079
14996W        W86722  40.279  24.681  11.948
14997W        W86723  17.113  22.056  12.196
14998W        W86724  40.930  14.289   3.664
14999W        W86725  13.042   1.817  13.840
15000W        W86726  22.996  27.028   0.242
15001W        W86727  38.991  20.507   1.267
15002W        W86728  40.964  28.674   4.336
15003W        W86729   9.485  25.323  13.915
15004W        W86730  13.272  39.648  12.447
15005W        W86731  34.511  16.106  12.155
15006W        W86732  23.767  19.565  12.073
15007W        W86733  32.766  33.570  11.148
15008W        W86734  12.326  21.869   2.841
15009W        W86735  17.507  29.608  11.397
15010W        W86736  34.324  29.366  11.028
15011W        W86737   7.858  28.588  13.809
15012W        W86738   2.904   7.417  13.445
15013W        W86739   3.767  33.563   0.178
15014W        W86740  34.021  20.608   0.344
15015W        W86741  14.847   4.970  14.538
15016W        W86742  44.389  29.864   2.800
15017W        W86743  43.258  17.470  12.110
15018W        W86744  13.564  22.758   4.227
15019W        W86745   5.726  26.729   3.438
15020W        W86746  27.991  31.859   4.558
15021W        W86747  16.770  11.322   1.045
15022W        W86748  12.837  11.125  14.460
15023W        W86749  22.800  25.502  12.052
15024W        W86750   8.184  14.359  14.094
15025W        W86751   7.255  12.072   3.430
15026W        W86752  41.566  17.664   1.929
15027W        W86753  35.859   4.949   0.366
15028W        W86754  44.235  35.338  11.890
15029W        W86755  39.583  43.993   3.620
15030W        W86756  25.611  31.907   3.738
15031W        W86757  39.297  26.635   3.918
15032W        W86758  23.660  44.984  10.787
15033W        W86759  36.545  33.914  12.502
15034W        W86760  10.163  27.456   1.310
15035W        W86761  39.845  16.391   2.329
15036W        W86762   6.199   7.156   4.197
15037W        W86763   6.837  13.077   1.789
15038W        W86764   2.335   8.826  14.240
15039W        W86765   5.724  27.458   1.287
15040W        W86766   6.256  18.512   1.588
15041W        W86767  28.929   2.827  14.004
15042W        W86768  41.875   7.961  10.689
15043W        W86769   1.841  14.179   1.417
15044W        W86770   7.732  25.876   0.326
15045W        W86771  17.609  29.450   2.651
15046W        W86772   6.320   5.075   4.142
15047W        W86773   6.637  14.711  12.534
15048W        W86774   4.294  34.377  12.546
15049W        W86775   3.756  17.100   2.953
15050W        W86776  21.665  26.142  12.422
15051W        W86777  18.227  44.520   4.557
15052W        W86778   5.895  22.214  13.007
15053W        W86779  11.134  40.581   0.548
15054W        W86780   0.148   3.605  12.822
15055W        W86781  36.387   5.054   0.942
15056W        W86782  13.227   2.224   1.377
15057W        W86783  18.278  10.145  11.054
15058W        W86784  28.561  37.776   0.766
15059W        W86785   2.202  20.655  13.501
15060W        W86786   9.340  34.529  10.904
15061W        W86787  40.378  39.724  11.478
15062W        W86788   7.373  43.780   0.982
15063W        W86789  39.363  10.243  10.238
15064W        W86790  20.473  16.952  14.367
15065W        W86791   1.243  39.591  13.602
15066W        W86792  18.770  41.549   2.420
15067W        W86793  44.047   6.898   0.924
15068W        W86794  34.989  26.758   0.759
15069W        W86795  42.103   8.174   3.199
15070W        W86796  37.379   4.828   0.314
15071W        W86797  26.147  35.027  12.508
15072W        W86798  34.093   7.777   2.747
15073W        W86799   7.702  25.926  11.168
15074W        W86800  40.647  28.958   9.936
15075W        W86801  11.502  13.638   1.404
15076W        W86802  31.107  13.408  14.458
15077W        W86803  27.707  17.154   0.940
15078W        W86804  10.922  30.579   0.220
15079W        W86805  45.000  12.766  13.102
15080W        W86806  23.075  28.836  11.323
15081W        W86807  13.921   6.526   1.650
15082W        W86808  34.651  29.196  13.440
15083W        W86809  41.282  44.372   3.312
15084W        W86810  25.745   0.335   4.603
15085W        W86811  44.241  14.827   3.623
15086W        W86812  41.976   7.391   1.880
15087W        W86813  14.205  44.255  12.965
15088W        W86814   8.425  17.869  11.468
15089W        W86815  42.994  13.367   0.187
15090W        W86816  13.016  28.667  13.978
15091W        W86817  24.614  17.092  11.511
15092W        W86818  36.004  30.917   4.100
15093W        W86819  35.024  34.659  10.793
15094W        W86820   2.741  37.128  12.513
15095W        W86821  14.228  41.567   2.418
15096W        W86822  31.355  17.835  13.494
15097W        W86823   8.406   3.823  14.359
15098W        W86824  11.559  14.907   0.915
15099W        W86825  20.822  27.192   5.497
15100W        W86826  29.204  10.539  13.026
15101W        W86827  44.271   2.278   3.670
15102W        W86828  23.649  26.997   3.115
15103W        W86829  13.772  25.453   3.719
15104W        W86830   4.470  32.171  14.315
15105W        W86831  19.220  14.252   1.382
15106W        W86832  10.552  40.918  14.420
15107W        W86833  17.051  41.133  12.486
15108W        W86834   1.218  16.390  11.918
15109W        W86835   3.204  26.488   3.272
15110W        W86836   4.713  15.539   2.740
15111W        W86837   3.810   5.084  10.600
15112W        W86838   5.763   8.353   2.905
15113W        W86839  17.665   6.352   1.761
15114W        W86840  35.023  18.758   3.194
15115W        W86841   1.846  35.952  11.561
15116W        W86842  35.867   5.727  12.904
15117W        W86843  30.709  38.396  13.839
15118W        W86844  28.015  24.002   1.934
15119W        W86845  30.522  20.865  12.054
15120W        W86846  35.567  31.037   1.339
15121W        W86847  43.082  30.441  11.824
15122W        W86848  15.520  20.240  13.572
15123W        W86849  13.415   0.214  12.009
15124W        W86850   0.735  30.357   3.877
15125W        W86851  14.239  37.755   3.278
15126W        W86852  14.124  24.795   0.851
15127W        W86853  41.956  43.012   4.173
15128W        W86854   6.716  34.215   0.313
15129W        W86855  33.269  16.548   3.384
15130W        W86856  21.197   1.715  10.298
15131W        W86857  34.490  34.621  14.512
15132W        W86858  43.896  16.258  11.025
15133W        W86859  27.034  34.443  12.245
15134W        W86860  29.582  28.195  12.675
15135W        W86861  33.451  27.644   0.494
15136W        W86862  20.055  17.835   3.607
15137W        W86863  31.881   7.411  13.330
15138W        W86864  40.941  21.838  14.410
15139W        W86865  32.646  26.505   4.614
15140W        W86866  43.485  28.908   2.313
15141W        W86867  41.110  28.062   3.665
15142W        W86868  39.437  10.702  11.418
15143W        W86869  44.476  33.573  14.006
15144W        W86870  18.642  28.746   2.787
15145W        W86871   7.881  27.004   0.286
15146W        W86872   7.013  27.840   1.621
15147W        W86873   5.976   0.934   1.638
15148W        W86874  18.531   1.704  12.253
15149W        W86875  40.545  38.792  13.992
15150W        W86876  14.094  19.636   3.225
15151W        W86877  28.957  31.368   0.979
15152W        W86878  21.834  10.857  12.845
15153W        W86879  17.623  21.769   2.557
15154W        W86880  24.721  30.572   3.697
15155W        W86881  23.529  20.823   1.821
15156W        W86882  34.088  21.146  14.230
15157W        W86883  41.451  16.446  13.815
15158W        W86884  22.086  39.293  12.092
15159W        W86885  35.075  39.392   4.636
15160W        W86886  34.675  10.927   1.836
15161W        W86887  18.575  21.474  11.354
15162W        W86888  35.015   5.034   4.584
15163W        W86889  34.629  41.689   1.777
15164W        W86890   0.045  37.642  10.948
15165W        W86891   7.169  27.807  13.980
15166W        W86892   3.487  30.929  12.956
15167W        W86893  28.049  41.769  10.935
15168W        W86894  27.563  14.083  10.569
15169W        W86895  26.579   3.837   2.231
15170W        W86896  33.891  24.119   0.828
15171W        W86897  36.515   5.360   2.489
15172W        W86898  19.695  34.895   4.577
15173W        W86899  23.222  15.608  10.234
15174W        W86900  25.759  26.876   3.529
15175W        W86901  35.666  32.860  11.848
15176W        W86902   0.594  30.988   4.062
15177W        W86903  21.196  35.721   3.246
15178W        W86904  24.173  23.067   2.161
15179W        W86905  10.895  43.363  12.857
15180W        W86906  32.654  32.440  10.682
15181W        W86907  35.385  17.084   0.310
15182W        W86908  11.369   2.137  14.553
15183W        W86909   4.441  13.055  13.955
15184W        W86910  33.306  37.105  10.618
15185W        W86911   8.388  15.336  12.728
15186W        W86912  19.305   1.249  13.113
15187W        W86913  34.818  17.975  11.724
15188W        W86914   3.809   0.840   4.090
15189W        W86915  34.427   3.191   4.181
15190W        W86916   2.961  18.490   3.115
15191W        W86917   1.839  15.760   2.825
15192W        W86918   7.446  27.420   2.734
15193W        W86919  17.764   0.345   3.215
15194W        W86920  19.999  33.463  11.978
15195W        W86921  31.160  43.278  13.994
15196W        W86922  13.945   2.798  12.926
15197W        W86923  29.952  37.880   0.292
15198W        W86924  23.234  22.525   2.752
15199W        W86925  44.230  43.944  11.591
15200W        W86926  39.384  15.367  14.643
15201W        W86927  12.372  14.278  12.957
15202W        W86928   4.858   0.193  13.959
15203W        W86929  38.593  17.543  13.908
15204W        W86930  16.179   1.042   3.775
15205W        W86931   1.808  43.847   2.964
15206W        W86932  21.091  32.703  13.055
15207W        W86933  17.782  28.191  13.389
15208W        W86934  35.394  11.127  11.646
15209W        W86935  35.096  37.344   4.413
15210W        W86936  40.844  29.365  14.945
15211W        W86937  29.297   2.439   0.205
15212W        W86938  39.445  33.428   4.839
15213W        W86939  26.930   2.922   0.429
15214W        W86940  22.744  26.021  12.944
15215W        W86941  38.428  18.945  13.779
15216W        W86942   8.807   3.870   4.687
15217W        W86943  44.475   7.757  14.915
15218W        W86944  32.184  30.143   5.141
15219W        W86945  20.543  30.423   2.740
15220W        W86946  18.337  13.887  13.556
15221W        W86947  20.925  31.880  11.081
15222W        W86948  13.881  35.321   3.927
15223W        W86949  19.454  21.600  10.811
15224W        W86950  33.161  15.840  13.433
15225W        W86951  34.918  42.051  10.672
15226W        W86952  19.625  36.847   5.147
15227W        W86953  10.869  11.487   0.014
15228W        W86954  18.446  27.658  12.980
15229W        W86955  34.189   8.627   1.666
15230W        W86956  16.938  24.067  10.650
15231W        W86957  28.348  31.597   3.312
15232W        W86958  44.299  26.691  13.677
15233W        W86959   8.259  18.480   3.122
15234W        W86960   9.160   5.467   1.752
15235W        W86961  18.060  28.832  13.368
15236W        W86962  39.280  44.589  12.525
15237W        W86963  39.787  40.867   3.612
15238W        W86964  28.901  23.319   0.838
15239W        W86965   0.018  42.980  13.815
15240W        W86966  26.239  26.268  13.231
15241W        W86967  40.042  16.980   2.331
15242W        W86968   9.179  43.707   2.390
15243W        W86969   9.400  39.321   4.149
15244W        W86970  36.554   1.815   0.425
15245W        W86971  10.010  30.272   0.405
15246W        W86972   2.781  20.840  14.294
15247W        W86973  35.815   9.280  12.952
15248W        W86974  14.399   3.059   2.884
15249W        W86975  22.103  21.140   4.552
15250W        W86976  13.320  42.449  11.207
15251W        W86977  19.248  40.517   4.600
15252W        W86978  31.692  11.808   1.907
15253W        W86979  22.050  16.579  13.040
15254W        W86980  24.445  36.300   5.002
15255W        W86981  41.958  36.434   3.940
15256W        W86982  22.114   0.985  13.859
15257W        W86983   3.264  10.606   3.659
15258W        W86984   5.485  31.039  11.167
15259W        W86985  43.781  40.076   4.106
15260W        W86986  18.305   9.286   1.753
15261W        W86987  28.495  15.536   0.488
15262W        W86988  37.047   0.196   0.793
15263W        W86989  12.333   3.955   2.163
15264W        W86990  14.616  40.314  14.887
15265W        W86991  29.637  32.163  14.443
15266W        W86992   4.455  23.416   1.695
15267W        W86993  11.874  24.490  13.044
15268W        W86994  30.830  38.145   2.859
15269W        W86995  23.997  35.563   2.374
15270W        W86996  35.629  15.364   1.215
15271W        W86997   8.871   6.115   4.816
15272W        W86998  12.831   1.931   0.446
15273W        W86999  14.515  43.361   3.024
15274W        W87000  40.193   0.214   3.602
15275W        W87001  22.260  21.530   2.691
15276W        W87002  38.847  12.331   1.759
15277W        W87003  16.351  40.951  11.096
15278W        W87004  17.069   8.972  13.540
15279W        W87005   2.288  35.141   2.100
15280W        W87006   6.265  15.625   4.187
15281W        W87007  38.927   3.437  12.001
15282W        W87008  34.343  35.988  10.660
15283W        W87009   0.849  33.985   2.257
15284W        W87010  11.148  13.703   3.387
15285W        W87011  36.977  29.960  12.643
15286W        W87012  10.805  37.780  11.111
15287W        W87013  20.325  29.244   1.522
15288W        W87014  40.315  14.296  14.133
15289W        W87015  36.839  41.110   3.420
15290W        W87016  36.988  27.687  10.742
15291W        W87017  26.874  10.915   1.677
15292W        W87018  20.283   7.012  14.356
15293W        W87019  28.575   3.177   2.904
15294W        W87020   9.684  40.859  13.581
15295W        W87021  31.752  33.538   0.026
15296W        W87022  41.083  26.897   3.696
15297W        W87023  30.737   6.400   4.488
15298W        W87024  34.580  21.531  10.798
15299W        W87025  25.010  34.628   3.031
15300W        W87026  10.828  22.085  12.076
15301W        W87027   6.998  28.911  14.385
15302W        W87028  35.678  15.834   2.720
15303W        W87029  35.592  12.159   0.093
15304W        W87030   1.727   7.137   4.468
15305W        W87031  44.744   7.309  14.869
15306W        W87032  37.085  18.261   1.889
15307W        W87033  15.093  11.603   1.778
15308W        W87034  38.456  25.715   1.305
15309W        W87035  22.916  10.063  13.114
15310W        W87036  38.092  42.374   4.463
15311W        W87037  37.541  26.628  11.916
15312W        W87038  41.400  26.903  10.539
15313W        W87039  33.664   0.974  13.004
15314W        W87040  28.004   1.210  10.751
15315W        W87041  17.187  33.724  14.471
15316W        W87042  36.014  26.009   1.805
15317W        W87043  29.870   2.679   3.322
15318W        W87044  27.243  22.743   3.354
15319W        W87045  43.403   5.347   0.334
15320W        W87046  19.209  36.531   0.448
15321W        W87047   4.384  29.882  14.082
15322W        W87048  25.586  41.190  14.470
15323W        W87049  11.394  12.157  10.726
15324W        W87050  15.857  23.398  11.923
15325W        W87051  41.714  28.163  10.316
15326W        W87052  36.360  40.962  11.140
15327W        W87053  19.342  36.832  14.432
15328W        W87054  12.785  39.399  12.507
15329W        W87055   2.303  12.321  12.400
15330W        W87056   7.899  24.798  13.005
15331W        W87057  30.508  26.238   3.730
15332W        W87058  24.828  42.087   4.538
15333W        W87059  37.460   1.955   0.479
15334W        W87060  10.320   0.208  10.768
15335W        W87061  22.637  25.771   3.524
15336W        W87062  43.773  39.819   1.259
15337W        W87063  35.884   4.697   3.403
15338W        W87064  20.731  17.759   1.615
15339W        W87065   4.911  32.445  12.644
15340W        W87066   9.254  38.456   1.700
15341W        W87067  40.919   3.904   3.874
15342W        W87068  22.006  44.329  14.285
15343W        W87069   7.684  24.086  11.587
15344W        W87070  38.912   7.642   1.251
15345W        W87071  41.379   5.882   4.182
15346W        W87072  20.790  16.240  12.587
15347W        W87073  28.926  15.541  11.165
15348W        W87074   8.449  33.892  13.684
15349W        W87075   0.963  17.088  14.040
15350W        W87076   6.681  27.220  11.212
15351W        W87077  34.504  15.700   4.669
15352W        W87078  35.823   7.129  14.446
15353W        W87079  15.115  40.393  10.159
15354W        W87080  26.582   3.281   2.306
15355W        W87081  20.155  21.128   0.657
15356W        W87082  36.798  10.360  14.543
15357W        W87083  30.323  22.128  14.409
15358W        W87084  44.989  24.566  11.690
15359W        W87085  38.933  30.885  13.999
15360W        W87086  14.472  30.900  14.807
15361W        W87087  32.064   7.913  13.333
15362W        W87088  10.231  39.570   4.645
15363W        W87089  23.735  15.277   3.589
15364W        W87090  34.624  32.239   3.677
15365W        W87091  24.159  42.236  14.517
15366W        W87092  39.334  13.041   4.685
15367W        W87093  28.278   8.235   0.719
15368W        W87094  18.018   8.229  10.865
15369W        W87095  15.274  27.026   2.426
15370W        W87096  42.994   4.776   3.276
15371W        W87097  12.651  12.259  12.373
15372W        W87098   9.602  16.276  11.323
15373W        W87099  44.694  12.421   1.789
15374W        W87100  21.740  42.588   0.392
15375W        W87101  35.048  21.736   4.871
15376W        W87102  44.043   8.019   3.823
15377W        W87103  43.594  15.243  12.522
15378W        W87104  28.164  35.899   0.395
15379W        W87105   5.483  14.273   4.545
15380W        W87106  33.099  18.694  12.214
15381W        W87107  44.238  26.502  10.689
15382W        W87108  33.550  37.656   4.977
15383W        W87109   9.734  34.793  14.588
15384W        W87110  30.197  44.877  12.327
15385W        W87111  40.496  36.342   1.348
15386W        W87112  27.632   0.292   2.287
15387W        W87113  13.635  11.122   0.879
15388W        W87114  37.495  32.546  12.507
15389W        W87115   0.354  16.315   0.403
15390W        W87116  10.717  38.998  12.891
15391W        W87117  35.323  31.914  12.116
15392W        W87118  26.632   1.030  12.356
15393W        W87119  22.195  36.064   0.810
15394W        W87120  30.942  24.753   0.914
15395W        W87121  31.333  18.540  14.770
15396W        W87122  26.008   8.677   1.353
15397W        W87123   9.864  40.384  13.472
15398W        W87124   8.617  17.068   0.841
15399W        W87125   2.559  41.365  11.183
15400W        W87126  40.484  33.810  13.767
15401W        W87127  40.592  41.767   4.485
15402W        W87128   4.179  42.416   0.894
15403W        W87129  32.921  32.042   2.319
15404W        W87130  35.053  38.335  11.380
15405W        W87131  16.604  21.751   1.767
15406W        W87132  12.636  15.994  10.690
15407W        W87133  34.608  11.594  11.582
15408W        W87134  23.494  39.270   2.741
15409W        W87135  41.362  37.945   1.401
15410W        W87136  17.136  30.466  13.799
15411W        W87137  30.686   3.356   0.297
15412W        W87138   0.563  13.758   0.607
15413W        W87139   1.826  29.409   1.424
15414W        W87140   0.323  43.497   3.710
15415W        W87141  44.391  20.660   0.687
15416W        W87142  41.118  21.584  12.099
15417W        W87143   7.106  34.234   3.691
15418W        W87144  35.675  14.603  14.659
15419W        W87145  24.983  32.872   0.667
15420W        W87146  39.745  10.227  10.647
15421W        W87147  36.965  34.155  11.634
15422W        W87148   5.205  23.115  11.507
15423W        W87149   6.679  34.359  14.287
15424W        W87150   1.129  41.531  11.586
15425W        W87151  10.872   5.389  11.961
15426W        W87152  44.207  22.714  12.221
15427W        W87153   3.844  22.194  13.049
15428W        W87154  26.126  11.403   1.712
15429W        W87155  38.054   3.758  13.408
15430W        W87156  16.910  44.930  12.960
15431W        W87157  40.195   6.287   3.257
15432W        W87158   1.709  20.600   2.687
15433W        W87159  37.606  32.104   2.738
15434W        W87160  27.025   0.510  13.511
15435W        W87161   0.911  25.207   1.433
15436W        W87162   8.447  35.490  14.066
15437W        W87163  27.492  11.666  10.981
15438W        W87164  26.148  14.380  11.193
15439W        W87165  35.785  25.743  11.011
15440W        W87166  42.232  15.555   2.750
15441W        W87167  36.005   3.282  14.684
15442W        W87168  39.833  23.180  12.163
15443W        W87169  44.813  28.231   0.393
15444W        W87170   8.453   3.323  14.475
15445W        W87171   6.745  12.067  14.802
15446W        W87172   1.969   6.970  11.115
15447W        W87173  27.036  27.294   0.403
15448W        W87174  22.463  40.517  14.662
15449W        W87175  27.426   3.885   3.829
15450W        W87176   6.072  38.327  13.949
15451W        W87177   6.676  10.915   2.829
15452W        W87178  34.598  39.407   2.139
15453W        W87179  22.122  32.512  14.096
15454W        W87180  14.699  18.637  12.149
15455W        W87181  17.165  36.585   3.658
15456W        W87182  33.547   4.713  12.661
15457W        W87183  40.032  19.254  11.618
15458W        W87184  25.605  21.733  13.081
15459W        W87185  37.335  19.310  13.543
15460W        W87186  34.641  32.515   1.239
15461W        W87187  36.632   7.910  13.785
15462W        W87188   9.114  12.302  14.988
15463W        W87189  14.058   8.787  11.215
15464W        W87190  21.785  22.166   4.038
15465W        W87191  20.009  41.622  14.831
15466W        W87192  13.712  24.008   0.776
15467W        W87193  17.719   9.291   4.150
15468W        W87194  35.542  24.555  12.359
15469W        W87195  15.139  29.131   0.293
15470W        W87196  10.641  40.708   4.155
15471W        W87197  14.370  42.925  14.389
15472W        W87198  22.703  12.398  12.586
15473W        W87199  39.278  17.682  10.626
15474W        W87200   7.845  12.828  10.709
15475W        W87201  36.599  17.063  11.469
15476W        W87202   9.454  10.168  11.571
15477W        W87203   8.352   0.313  10.790
15478W        W87204  35.860  39.958   4.913
15479W        W87205   7.214   9.822   2.964
15480W        W87206  12.466  18.123  13.095
15481W        W87207  41.482  22.596   3.187
15482W        W87208  20.178  33.042  12.213
15483W        W87209  42.322  30.461   0.730
15484W        W87210   2.974  16.608   2.741
15485W        W87211  23.819   5.714  11.268
15486W        W87212  39.383  11.667   1.973
15487W        W87213  39.760  41.108   0.799
15488W        W87214  34.997  14.574   1.458
15489W        W87215   7.183  37.684  12.108
15490W        W87216   2.795  23.729  14.748
15491W        W87217  26.051  39.516   1.850
15492W        W87218  41.842   4.863   2.609
15493W        W87219  20.201  44.310   4.983
15494W        W87220   9.127  26.605   2.263
15495W        W87221  34.667  18.971   1.184
15496W        W87222  18.333  14.768   2.829
15497W        W87223  31.519  13.342   0.892
15498W        W87224  41.088  30.584   2.671
15499W        W87225  17.529  32.434  13.047
15500W        W87226  25.680   5.448   3.644
15501W        W87227  13.366  28.156   4.813
15502W        W87228   6.355   3.397   5.080
15503W        W87229   0.860   3.742   1.273
15504W        W87230  18.059  29.640   2.461
15505W        W87231   7.656  40.981  10.184
15506W        W87232   7.329  29.555  13.745
15507W        W87233  17.747  38.296   2.670
15508W        W87234  30.236  20.025  11.969
15509W        W87235  26.068  25.332   3.680
15510W        W87236  15.227  37.843  11.039
15511W        W87237  15.584  29.718  14.955
15512W        W87238  28.422  10.676  11.216
15513W        W87239  31.083  18.693   4.675
15514W        W87240  40.874  23.155   2.089
15515W        W87241  36.778  12.464  11.240
15516W        W87242  29.546  24.630  14.456
15517W        W87243  28.916   0.744  12.484
15518W        W87244  37.058  40.526   1.266
15519W        W87245  10.456  23.068   4.890
15520W        W87246  38.789  34.593  12.167
15521W        W87247   7.137  31.663   4.347
15522W        W87248  13.411  39.003   0.778
15523W        W87249  43.648  35.828  12.055
15524W        W87250  35.558  18.533   4.844
15525W        W87251  17.332  14.708   0.544
15526W        W87252  10.161  32.039  14.473
15527W        W87253   6.942  29.710  11.519
15528W        W87254   8.708   9.125  14.282
15529W        W87255  32.848  35.279   3.136
15530W        W87256  25.526  43.060   1.432
15531W        W87257  24.974  14.120   2.199
15532W        W87258  22.744   0.480   0.554
15533W        W87259  40.549   5.193  14.471
15534W        W87260   1.888  23.753   0.894
15535W        W87261  38.735  36.762  11.447
15536W        W87262  25.865  31.864   4.271
15537W        W87263  14.415  20.995   3.219
15538W        W87264  40.068  43.885   1.539
15539W        W87265  32.951  34.862   2.167
15540W        W87266  24.024  16.126  12.087
15541W        W87267  30.532  28.101   0.939
15542W        W87268  39.549  14.475   0.106
15543W        W87269   1.989  11.770  13.364
15544W        W87270  43.362  29.964   3.812
15545W        W87271  36.586  37.887   3.752
15546W        W87272  39.797  27.475  13.399
15547W        W87273   7.740  42.306  13.849
15548W        W87274  38.873   2.286  13.108
15549W        W87275   0.189  36.865   1.116
15550W        W87276  21.325  12.681   3.323
15551W        W87277  31.900  21.171  10.550
15552W        W87278  36.886  33.609  10.726
15553W        W87279  31.908  12.842   3.345
15554W        W87280   5.714  16.133  10.302
15555W        W87281  33.861  24.597  13.469
15556W        W87282   2.225  44.073   5.418
15557W        W87283  27.614  33.994   2.082
15558W        W87284   3.924  37.700   0.888
15559W        W87285   2.608  44.275  13.494
15560W        W87286   9.581  29.080   2.835
15561W        W87287  30.617  42.212   9.703
15562W        W87288  30.678  18.250  11.666
15563W        W87289   7.282  10.161   4.613
15564W        W87290  13.137  24.434  12.111
15565W        W87291  40.573   1.839   0.526
15566W        W87292  19.177  13.700  12.114
15567W        W87293  26.986   6.126   3.117
15568W        W87294  38.077  22.189   1.386
15569W        W87295  33.939  37.062   0.232
15570W        W87296  39.190  19.274   1.367
15571W        W87297  24.663  18.720   2.756
15572W        W87298  40.805  13.036  12.923
15573W        W87299  40.992  24.945   0.368
15574W        W87300  23.552  37.425  13.339
15575W        W87301   2.248  21.236   0.264
15576W        W87302   8.444  41.309   3.783
15577W        W87303  23.552  15.871  11.519
15578W        W87304  23.649   4.789  11.171
15579W        W87305  36.907  38.932  10.567
15580W        W87306   1.339  18.259   0.981
15581W        W87307  12.894  19.004  14.139
15582W        W87308  33.082  35.906  13.438
15583W        W87309   2.792   7.851   4.235
15584W        W87310   2.409  18.503   4.570
15585W        W87311  19.033  23.185  10.847
15586W        W87312  11.144  29.571   0.451
15587W        W87313  27.661  10.809  11.522
15588W        W87314  19.430   6.481  11.979
15589W        W87315  20.912  19.396  14.481
15590W        W87316   2.951   0.948   3.836
15591W        W87317  23.619   3.338  11.352
15592W        W87318  15.453  24.576   2.953
15593W        W87319  14.305  27.526  14.983
15594W        W87320   7.134  24.122   2.841
15595W        W87321   0.799  21.160  13.881
15596W        W87322  40.562   2.715   3.726
15597W        W87323  33.078  29.486   0.362
15598W        W87324  30.914  43.446   4.145
15599W        W87325  42.499  32.030   4.658
15600W        W87326   6.872  41.077  12.296
15601W        W87327   3.174  29.018  14.577
15602W        W87328   2.488  13.089  13.899
15603W        W87329  42.842   2.052  10.985
15604W        W87330  31.878  37.992   3.676
15605W        W87331  33.746  12.278  11.557
15606W        W87332   8.200  33.396   3.649
15607W        W87333  13.142  36.017  11.224
15608W        W87334  15.171  32.614  13.046
15609W        W87335  36.951  22.197   0.420
15610W        W87336  22.575  31.105   3.059
15611W        W87337   9.163  26.141  11.122
15612W        W87338  38.342  37.102   1.970
15613W        W87339   5.642  33.371   2.761
15614W        W87340  38.285   8.649   4.180
15615W        W87341   2.201  11.145  11.982
15616W        W87342  19.158  35.740  12.897
15617W        W87343  12.644  27.524   0.706
15618W        W87344  44.625  19.264   4.494
15619W        W87345  15.298  32.216   2.328
15620W        W87346   0.522  12.752  13.857
15621W        W87347  21.294  33.036   4.300
15622W        W87348  30.573  35.829  13.488
15623W        W87349  30.825  27.990  11.095
15624W        W87350  35.070  24.795  11.544
15625W        W87351  40.067  43.468   2.871
15626W        W87352  25.738   3.328  14.524
15627W        W87353  28.412  28.113   2.709
15628W        W87354  25.933  35.931   3.901
15629W        W87355  34.973   9.781  13.318
15630W        W87356  27.148  25.104   4.602
15631W        W87357  23.611   4.176   4.925
15632W        W87358  21.727  22.564  12.047
15633W        W87359  33.221  21.363  11.238
15634W        W87360  29.658   0.698  11.548
15635W        W87361  13.883   6.006   1.646
15636W        W87362   7.849  15.177  12.155
15637W        W87363  18.629  11.274   4.098
15638W        W87364  35.526   0.350   3.927
15639W        W87365  29.646  42.718   4.285
15640W        W87366  14.076   8.962   3.814
15641W        W87367  31.874  42.382  12.359
15642W        W87368   3.381  44.926   0.082
15643W        W87369  35.470  18.808   2.910
15644W        W87370  34.144  24.001  10.846
15645W        W87371  44.232  13.565   2.721
15646W        W87372  41.948   9.807  12.041
15647W        W87373  22.574  27.892  13.231
15648W        W87374  38.550  25.975  11.130
15649W        W87375  42.336  33.924  14.801
15650W        W87376  25.473  33.326   0.374
15651W        W87377  22.484   2.786   2.609
15652W        W87378  17.087   4.781   2.858
15653W        W87379  31.623  41.811  13.577
15654W        W87380  16.108  41.367  14.812
15655W        W87381  36.536  36.773   4.677
15656W        W87382   8.880  16.075  12.076
15657W        W87383  27.771   4.004   1.650
15658W        W87384  39.288  14.701  11.513
15659W        W87385  17.159  39.354   5.104
15660W        W87386  29.043  26.139   4.665
15661W        W87387  17.086  10.376  10.711
15662W        W87388  33.169  19.170  12.855
15663W        W87389   0.887  37.949  11.028
15664W        W87390  40.765  32.632   0.238
15665W        W87391  32.171  21.233  12.354
15666W        W87392   6.021  39.434  12.219
15667W        W87393  22.054  33.034  12.918
15668W        W87394   4.330  32.378   4.607
15669W        W87395  25.103  15.055  11.115
15670W        W87396   3.811   3.361   3.321
15671W        W87397  27.503  17.795   4.984
15672W        W87398  14.633   4.280  13.849
15673W        W87399  15.988  12.339  11.482
15674W        W87400  22.649  21.904  13.365
15675W        W87401  43.410  11.754  11.245
15676W        W87402  37.116  33.237  12.121
15677W        W87403  15.822  43.032   4.203
15678W        W87404   9.845  43.099  12.694
15679W        W87405  11.584  19.535  10.677
15680W        W87406  12.655  16.331  12.985
15681W        W87407   8.447  20.796   1.011
15682W        W87408  43.155   4.892   0.400
15683W        W87409  42.385   1.867  13.999
15684W        W87410  20.055   7.908   2.889
15685W        W87411  38.094  18.523  11.645
15686W        W87412  18.082   3.216  12.363
15687W        W87413  35.966  33.983  13.631
15688W        W87414  23.172  12.119  12.477
15689W        W87415  16.775  12.618   2.409
15690W        W87416  34.003   5.731  11.049
15691W        W87417  40.745  30.076  13.360
15692W        W87418  10.205  41.963   2.758
15693W        W87419  18.496  35.703  14.011
15694W        W87420  42.221  29.729   2.896
15695W        W87421  19.852  37.088   4.150
15696W        W87422  24.421  17.514   3.188
15697W        W87423  30.992  11.177   4.795
15698W        W87424  11.467  13.022  11.558
15699W        W87425  38.325  35.706  14.995
15700W        W87426  18.508   6.617  11.162
15701W        W87427  33.476  41.843   4.163
15702W        W87428  14.921  22.132  13.617
15703W        W87429  17.126   7.412  14.457
15704W        W87430   2.381  22.998   0.986
15705W        W87431  23.999  30.303   0.402
15706W        W87432  36.664  33.548   2.191
15707W        W87433  30.049  30.896  12.430
15708W        W87434  25.988  12.059  10.653
15709W        W87435  31.284  27.468  13.169
15710W        W87436  43.081  31.652   3.123
15711W        W87437  29.656  14.074   3.634
15712W        W87438  14.839  28.226  11.070
15713W        W87439  26.516  32.047   2.705
15714W        W87440  32.517  42.318   2.257
15715W        W87441  26.044  21.786  13.350
15716W        W87442  39.777  24.411  14.808
15717W        W87443  41.079  36.325  11.408
15718W        W87444  31.182  29.006  13.522
15719W        W87445  18.216   8.813  13.799
15720W        W87446   3.502  23.230   2.642
15721W        W87447  18.963  14.110  14.831
15722W        W87448  34.456  21.112   4.993
15723W        W87449   0.814  29.006  10.612
15724W        W87450  41.007  29.112   3.858
15725W        W87451  17.073  42.467   0.076
15726W        W87452  30.969   7.304   1.759
15727W        W87453  25.578  44.287   2.884
15728W        W87454  44.499   4.851  12.435
15729W        W87455  21.746   6.433  10.655
15730W        W87456  20.222   8.314  13.897
15731W        W87457  17.180  16.787   3.213
15732W        W87458   7.220   0.275  12.915
15733W        W87459   4.845  16.763   4.271
15734W        W87460  11.157  38.650   4.578
15735W        W87461  29.895  15.845   0.210
15736W        W87462  35.631   9.154  13.455
15737W        W87463  37.230   7.132  12.475
15738W        W87464  43.261  40.965   0.848
15739W        W87465   0.047  24.660  14.844
15740W        W87466  15.281   4.586   3.824
15741W        W87467  23.481   3.859  11.163
15742W        W87468  35.780  31.698   1.888
15743W        W87469  26.143  43.938  14.877
15744W        W87470  38.290  32.923   0.314
15745W        W87471   9.510  25.145  14.854
15746W        W87472  19.088   3.701  13.717
15747W        W87473  12.018  14.043  13.281
15748W        W87474  40.600  38.087   4.061
15749W        W87475  14.108   4.432  12.074
15750W        W87476  22.542  11.240  10.637
15751W        W87477  36.508  42.245   0.341
15752W        W87478   5.377   5.534   4.185
15753W        W87479   5.239   3.386   3.199
15754W        W87480  17.285  22.941   1.754
15755W        W87481  43.706   4.829   2.815
15756W        W87482  19.784  39.472   2.730
15757W        W87483  29.993  33.622   1.271
15758W        W87484  30.546   3.888   0.432
15759W        W87485  10.707  26.016   2.258
15760W        W87486  40.491  17.852   3.565
15761W        W87487   8.283  11.183   3.169
15762W        W87488  20.373   2.736   1.891
15763W        W87489   6.363   8.871  13.355
15764W        W87490  26.153  33.484   4.558
15765W        W87491   3.328  20.324   0.479
15766W        W87492  43.987  37.943   2.119
15767W        W87493   9.791  15.311  13.392
15768W        W87494  41.902  21.685   4.535
15769W        W87495  42.210  24.922   5.296
15770W        W87496  39.749  15.132   2.798
15771W        W87497  39.852  28.525   1.128
15772W        W87498   9.633  39.574  11.619
15773W        W87499  42.856  28.626  10.709
15774W        W87500   5.843  34.487   2.415
15775W        W87501  24.982  18.544  10.662
15776W        W87502  13.363   0.299   4.296
15777W        W87503   9.346  16.494   1.685
15778W        W87504  16.745   2.528   1.766
15779W        W87505  18.823   3.817   2.668
15780W        W87506  12.709  16.063  11.964
15781W        W87507   9.602   2.350  13.524
15782W        W87508  26.149  30.564   4.579
15783W        W87509  23.503   3.957  14.131
15784W        W87510  21.569   0.492   1.385
15785W        W87511  36.284  36.078   0.887
15786W        W87512  39.758   2.977   2.796
15787W        W87513  24.454  25.029   3.294
15788W        W87514   9.078  20.801  13.925
15789W        W87515   2.715   9.867  10.893
15790W        W87516  38.872  23.299   0.724
15791W        W87517  43.517  13.109  13.932
15792W        W87518  44.348  25.923  11.889
15793W        W87519  10.631  36.874   4.092
15794W        W87520  14.286  21.794   3.678
15795W        W87521  27.651  31.143   3.694
15796W        W87522  23.463  42.066   4.115
15797W        W87523   5.712  22.675  14.965
15798W        W87524   2.496  14.433  12.471
15799W        W87525   7.947  18.803   2.863
15800W        W87526  16.780  31.598   0.883
15801W        W87527  34.293  38.625   2.772
15802W        W87528  13.671   4.860   3.106
15803W        W87529  38.123  26.181   0.433
15804W        W87530  29.269  40.678  13.913
15805W        W87531  35.938  32.453  12.006
15806W        W87532  27.233  12.965   1.802
15807W        W87533  30.319  35.487   3.227
15808W        W87534  22.432  37.865   2.304
15809W        W87535   4.410  20.013  10.771
15810W        W87536   3.170  33.984   1.028
15811W        W87537  25.193   4.888   3.115
15812W        W87538  28.145  30.549   1.429
15813W        W87539  15.041  16.123  10.589
15814W        W87540   6.192  11.104  13.795
15815W        W87541  25.571   9.682   2.069
15816W        W87542   4.349  10.735   2.463
15817W        W87543  31.050  41.334  13.983
15818W        W87544  33.522  37.394   0.824
15819W        W87545   4.982  39.923   4.113
15820W        W87546  21.715  14.842  11.569
15821W        W87547  20.189  41.572   1.258
15822W        W87548   4.644  43.093   1.911
15823W        W87549  30.074  37.953   1.309
15824W        W87550  13.370  13.809   2.815
15825W        W87551  37.227  18.251  11.232
15826W        W87552   3.339  43.761  12.461
15827W        W87553  11.674   2.330  12.993
15828W        W87554  42.908  39.858   3.733
15829W        W87555  44.102  19.713  10.693
15830W        W87556   6.206  28.059   3.126
15831W        W87557  15.498  25.471   3.930
15832W        W87558   3.426  23.635   3.690
15833W        W87559  22.229  27.730  14.276
15834W        W87560  11.119  31.893   2.841
15835W        W87561  15.519  10.860  14.131
15836W        W87562  11.330   4.748   0.623
15837W        W87563  33.073  37.879   4.923
15838W        W87564  34.063  15.813  14.437
15839W        W87565  37.001  36.818  12.061
15840W        W87566  13.354  41.393  13.113
15841W        W87567  30.595  20.624   2.779
15842W        W87568  38.976  11.606  12.485
15843W        W87569   9.817  31.061   4.499
15844W        W87570  34.850  38.870  13.863
15845W        W87571  36.505  12.266   1.647
15846W        W87572  28.456  13.131   1.310
15847W        W87573  28.462  32.861  14.708
15848W        W87574   8.915  41.515   3.197
15849W        W87575   8.176   7.361  13.276
15850W        W87576   0.249   4.110  11.594
15851W        W87577  41.736  40.490   3.805
15852W        W87578  42.206  33.424  13.531
15853W        W87579   2.103  32.422  14.459
15854W        W87580  20.190   3.559  14.434
15855W        W87581  28.367   9.664  10.936
15856W        W87582  27.178  34.892  10.567
15857W        W87583  43.381  35.073  12.993
15858W        W87584  28.698   7.470   3.247
15859W        W87585   4.313  44.242   1.330
15860W        W87586  40.921   3.422   4.777
15861W        W87587  21.528  40.964   4.977
15862W        W87588  31.145  30.766   2.785
15863W        W87589   2.963  28.262  14.990
15864W        W87590   0.605   6.314  12.000
15865W        W87591  14.203  13.171  13.604
15866W        W87592   2.227  20.232   3.053
15867W        W87593  21.535  29.631   0.970
15868W        W87594   3.442  39.430   2.624
15869W        W87595   3.759  13.923   2.790
15870W        W87596   9.574  26.500   5.170
15871W        W87597  43.565  36.872   4.091
15872W        W87598  23.885  41.841   3.854
15873W        W87599  23.921  39.051   2.423
15874W        W87600  21.496  10.417  12.903
15875W        W87601   5.413  43.432  14.512
15876W        W87602   8.833  44.305   0.571
15877W        W87603   6.882   6.769  11.187
15878W        W87604  31.666  28.043   2.384
15879W        W87605  26.699   8.662   1.980
15880W        W87606   0.901  28.125  10.690
15881W        W87607  31.709   5.691   4.073
15882W        W87608  25.744  19.244  14.359
15883W        W87609   7.931   8.835  11.609
15884W        W87610  35.855  19.043  12.519
15885W        W87611  28.980  32.944   1.971
15886W        W87612  33.978  16.846  10.916
15887W        W87613   7.738   4.532  14.489
15888W        W87614  42.295  39.585  11.480
15889W        W87615  24.500  34.691  11.113
15890W        W87616   5.842   7.598   4.070
15891W        W87617  31.975  25.107   4.659
15892W        W87618  21.237  21.486  11.125
15893W        W87619  21.541   2.787  13.624
15894W        W87620   1.801  34.259   2.152
15895W        W87621  33.984  37.874   4.786
15896W        W87622  14.170   7.840   1.814
15897W        W87623  14.392  25.075   0.319
15898W        W87624   7.110  38.616   3.701
15899W        W87625  35.919  22.321  12.174
15900W        W87626  37.513  35.080  12.961
15901W        W87627   7.607  42.359  14.354
15902W        W87628  26.385  24.405   3.612
15903W        W87629   3.228   2.320  14.491
15904W        W87630  34.851   6.491  13.821
15905W        W87631  19.038  39.227   2.775
15906W        W87632  23.594  22.499   2.309
15907W        W87633   6.735  43.003  12.446
15908W        W87634  36.638  44.857   0.455
15909W        W87635  41.835  34.193  11.137
15910W        W87636  43.507   7.792   2.597
15911W        W87637  15.052  35.848   1.258
15912W        W87638  14.361  19.046   2.087
15913W        W87639   7.767  11.342   3.213
15914W        W87640  11.182  43.874   1.873
15915W        W87641  35.501  12.125   2.508
15916W        W87642  16.244  38.132   2.681
15917W        W87643   4.288  43.447  12.836
15918W        W87644  18.004  20.098  10.697
15919W        W87645  18.795  27.978  14.094
15920W        W87646  18.607  18.999  13.860
15921W        W87647   1.347  14.763  14.815
15922W        W87648  26.954  20.671   1.329
15923W        W87649  28.636  41.975   4.622
15924W        W87650  34.070  37.514   0.437
15925W        W87651   9.675  40.416   0.380
15926W        W87652  15.173   0.073  12.044
15927W        W87653  35.974  39.780  12.264
15928W        W87654  44.988  36.815  13.514
15929W        W87655  16.812   3.391   4.278
15930W        W87656  32.343   9.836   3.072
15931W        W87657   2.941  17.237  12.380
15932W        W87658   3.047  41.971  11.571
15933W        W87659   2.569  39.890   3.734
15934W        W87660  26.950  13.008   3.774
15935W        W87661  31.873  33.999   4.091
15936W        W87662  44.377  22.150   3.239
15937W        W87663  10.653   8.939   2.203
15938W        W87664   1.180  29.424  11.322
15939W        W87665  32.980  27.977   2.693
15940W        W87666  32.433  39.569  12.988
15941W        W87667   9.612  29.143   4.156
15942W        W87668   5.232   7.512  11.650
15943W        W87669   7.334  11.389  12.154
15944W        W87670   8.118   6.259   1.260
15945W        W87671   6.377   3.935   5.047
15946W        W87672  11.147  37.424   2.551
15947W        W87673   5.437  13.063   5.478
15948W        W87674  18.683  29.965   4.786
15949W        W87675  14.284  33.365   4.029
15950W        W87676  31.198  17.523  11.037
15951W        W87677  21.495  43.965  13.598
15952W        W87678   3.900   2.652  13.835
15953W        W87679  21.636  27.147  10.086
15954W        W87680  10.083  41.511   0.947
15955W        W87681  21.526   3.982   1.309
15956W        W87682  19.257   4.553  12.963
15957W        W87683  33.481  17.986   1.187
15958W        W87684  30.522  25.699   3.719
15959W        W87685   3.000  42.235   3.195
15960W        W87686  21.340   1.805   0.041
15961W        W87687   3.001  21.965   4.505
15962W        W87688  44.908  23.263   3.854
15963W        W87689  18.074   8.209   3.678
15964W        W87690  39.901  23.918  12.967
15965W        W87691  13.671   5.361   3.201
15966W        W87692   7.336  36.919   0.810
15967W        W87693  29.720  10.060   2.291
15968W        W87694  39.231  13.141  14.926
15969W        W87695  39.413  37.304  13.925
15970W        W87696  31.552   7.376  12.368
15971W        W87697  43.920  35.414  13.700
15972W        W87698  37.156  30.272  14.057
15973W        W87699  32.769  17.013   4.956
15974W        W87700   9.432  19.616  11.121
15975W        W87701  18.517  14.774   4.610
15976W        W87702  20.774   8.820  13.416
15977W        W87703  40.369  33.142   4.849
15978W        W87704  36.936  24.638   4.629
15979W        W87705  13.503  34.822  11.758
15980W        W87706  36.013  41.559   3.340
15981W        W87707   3.560  21.770   1.818
15982W        W87708  37.122  15.165  14.619
15983W        W87709  17.322  16.586   1.938
15984W        W87710  24.122  14.781   4.673
15985W        W87711  20.355  32.867   4.328
15986W        W87712   3.896  26.226   0.737
15987W        W87713  35.625  26.599   4.988
15988W        W87714  10.227  24.133   0.205
15989W        W87715  31.452  10.363   3.358
15990W        W87716  15.022  40.468   0.916
15991W        W87717  21.977   3.782   4.843
15992W        W87718  42.332   2.191  12.538
15993W        W87719  27.679  44.026   5.035
15994W        W87720  10.111  19.679   1.512
15995W        W87721  35.668  20.568   4.267
15996W        W87722  22.268   3.342   4.712
15997W        W87723  16.281   0.253  12.025
15998W        W87724  29.556  44.598  14.947
15999W        W87725  14.155  13.244   4.056
16000W        W87726   6.877  33.449   3.358
16001W        W87727   0.182  26.791  12.485
16002W        W87728   0.995  14.802   3.195
16003W        W87729   8.360  35.159   0.917
16004W        W87730  26.476  13.117  14.357
16005W        W87731  44.692  14.498  13.447
16006W        W87732  30.260  13.135   0.945
16007W        W87733  24.881  20.824   1.273
16008W        W87734  21.777  21.185   3.751
16009W        W87735  40.991  39.250   2.526
16010W        W87736  20.616   0.123   1.845
16011W        W87737   8.211  36.609   3.928
16012W        W87738   3.607  14.732  11.675
16013W        W87739  24.491  27.183  13.445
16014W        W87740   7.686  28.083  14.822
16015W        W87741   8.612  25.489   2.755
16016W        W87742   7.187  38.002  14.548
16017W        W87743   7.781   9.446   0.074
16018W        W87744  36.336  28.485   1.772
16019W        W87745  16.026  18.572   2.665
16020W        W87746  40.290  24.879  13.027
16021W        W87747  10.078  34.945  10.983
16022W        W87748   9.673  13.083   1.766
16023W        W87749  20.640  38.807   0.833
16024W        W87750  31.019  36.410  10.638
16025W        W87751  37.965  25.228   0.707
16026W        W87752  15.363  42.495   3.743
16027W        W87753  21.683  32.111   4.433
16028W        W87754  36.214  13.125   4.323
16029W        W87755  25.793  23.075  14.492
16030W        W87756  18.812  29.317  11.083
16031W        W87757  38.041  20.478   0.037
16032W        W87758  10.775  27.605   4.803
16033W        W87759  30.152  39.479  12.569
16034W        W87760   1.742  33.565  12.836
16035W        W87761  32.467   9.388  13.294
16036W        W87762   9.909  13.183  10.894
16037W        W87763  19.244   6.441  13.071
16038W        W87764   5.981  42.911  13.921
16039W        W87765  43.467  30.722  14.555
16040W        W87766   1.968   8.349   1.732
16041W        W87767  21.047  14.734  12.679
16042W        W87768  38.509  10.899  14.793
16043W        W87769  31.419  41.499  13.001
16044W        W87770  29.089  19.136  13.069
16045W        W87771  15.346  23.202  11.865
16046W        W87772  28.387  33.639  14.082
16047W        W87773  35.937  39.838   2.880
16048W        W87774  16.437  20.914   0.250
16049W        W87775  40.308  33.659  14.262
16050W        W87776  20.300  34.795  11.420
16051W        W87777  42.997   6.823   2.208
16052W        W87778  17.047  41.767  14.367
16053W        W87779   8.811  31.480  14.402
16054W        W87780  29.492  15.381   3.086
16055W        W87781  11.603  31.423  14.070
16056W        W87782  25.544  33.674  11.108
16057W        W87783   5.788  33.540  14.875
16058W        W87784  20.144   7.079   2.271
16059W        W87785  33.545  19.669  13.369
16060W        W87786  36.053  43.246   0.984
16061W        W87787   4.515  44.409   3.374
16062W        W87788  28.287  36.119  12.031
16063W        W87789   2.355  22.535   3.424
16064W        W87790  44.272  36.309  11.047
16065W        W87791  23.001   2.201  11.627
16066W        W87792  32.641  24.057   2.322
16067W        W87793  17.591   5.968   3.723
16068W        W87794  37.492  14.207   3.163
16069W        W87795   1.463  11.845   1.743
16070W        W87796  10.477  11.705   1.309
16071W        W87797  37.425  20.229  14.519
16072W        W87798  27.220  40.062   1.701
16073W        W87799   6.680  36.326   0.967
16074W        W87800  15.628   6.747  11.876
16075W        W87801   0.357  42.959   1.518
16076W        W87802  16.371  17.542  14.359
16077W        W87803  37.258  17.162  13.860
16078W        W87804  19.699  43.134   3.221
16079W        W87805   2.160   2.948  12.628
16080W        W87806   7.490  42.877   0.801
16081W        W87807   3.893   7.178   2.857
16082W        W87808  29.977  36.701   4.854
16083W        W87809  19.684  30.517  12.138
16084W        W87810  30.738  30.722  12.874
16085W        W87811  11.281  10.702  14.054
16086W        W87812   1.587   6.573   0.754
16087W        W87813  39.099  26.205   4.156
16088W        W87814  28.660   5.798   0.861
16089W        W87815   9.851  44.958   3.610
16090W        W87816   3.476   6.821   1.494
16091W        W87817  43.435  35.927  14.439
16092W        W87818  15.205  14.839   1.355
16093W        W87819  23.574  35.135  11.251
16094W        W87820  18.710  15.669   9.878
16095W        W87821  23.560  17.743   3.861
16096W        W87822  38.352  10.681   4.081
16097W        W87823  14.715   7.920  13.860
16098W        W87824  23.234  34.363   3.316
16099W        W87825  10.141  40.537   3.236
16100W        W87826  32.331  17.225   0.471
16101W        W87827  19.868   4.364   2.023
16102W        W87828  20.191  20.664   4.247
16103W        W87829   5.932   7.410  13.040
16104W        W87830  13.131  44.954   2.873
16105W        W87831   5.874  37.573  12.371
16106W        W87832   1.897  16.609   0.858
16107W        W87833  14.659  12.356   2.882
16108W        W87834   9.210  22.145   3.336
16109W        W87835  25.424  39.061  11.097
16110W        W87836   8.867   8.871   1.384
16111W        W87837  12.059  16.024   3.345
16112W        W87838   7.933  26.408  12.420
16113W        W87839  25.681   6.533   3.626
16114W        W87840  25.128  16.082   0.530
16115W        W87841  23.470  24.104   3.217
16116W        W87842  21.888  23.957  11.126
16117W        W87843  33.150  26.438   3.595
16118W        W87844  42.616  22.095  14.075
16119W        W87845  23.285  22.567  12.827
16120W        W87846  39.838  26.643  12.065
16121W        W87847  25.025  25.965  14.619
16122W        W87848  24.665  20.955  11.504
16123W        W87849  19.051  15.802  10.675
16124W        W87850  29.005   2.798   2.320
16125W        W87851  10.690  34.693  13.703
16126W        W87852  43.558  27.349   2.295
16127W        W87853   4.394  14.333  10.662
16128W        W87854  25.675  16.414   4.297
16129W        W87855  19.748  30.442   1.579
16130W        W87856   4.022  42.416  12.726
16131W        W87857  16.721   9.857  11.924
16132W        W87858  26.506  15.045   1.399
16133W        W87859  18.663  35.775  12.122
16134W        W87860  27.564  38.920  10.051
16135W        W87861  18.408  14.171   2.133
16136W        W87862  22.553  38.300   3.151
16137W        W87863  12.374  26.473  14.251
16138W        W87864   8.743  37.613  13.064
16139W        W87865  42.380  32.577   4.611
16140W        W87866  12.958  19.153   1.425
16141W        W87867   0.342  40.231  10.569
16142W        W87868  24.718  31.414   4.660
16143W        W87869  41.057  29.704  12.534
16144W        W87870  40.010  13.106   3.227
16145W        W87871  23.728  37.400   0.251
16146W        W87872  32.385  11.134   2.783
16147W        W87873  44.915   5.181  14.419
16148W        W87874   6.342   8.424  11.067
16149W        W87875  31.331  26.647   0.466
16150W        W87876  12.318  38.882   3.247
16151W        W87877  21.499   1.997  12.057
16152W        W87878  34.279  18.269   3.502
16153W        W87879  27.062  33.049  12.021
16154W        W87880  36.849  38.442  14.499
16155W        W87881  28.990  11.473   2.754
16156W        W87882  42.673  41.079   0.337
16157W        W87883  13.728   0.406  12.529
16158W        W87884   3.474   8.108   4.365
16159W        W87885  28.751  19.458   4.491
16160W        W87886  23.538  33.592   3.782
16161W        W87887  31.017  14.737  13.975
16162W        W87888  17.828   9.082   1.636
16163W        W87889  31.443  24.690  12.910
16164W        W87890  29.571  12.827   2.930
16165W        W87891  27.116  37.469  10.595
16166W        W87892  40.783   4.196   0.878
16167W        W87893  35.864  15.817   4.170
16168W        W87894  13.918   2.306   1.860
16169W        W87895  28.146  20.525   1.081
16170W        W87896  23.919  27.007   1.702
16171W        W87897   3.442  44.519  11.198
16172W        W87898   3.679  22.335  14.946
16173W        W87899  28.388   5.255   3.734
16174W        W87900  18.561  18.366  12.446
16175W        W87901  41.551  33.881   2.624
16176W        W87902  44.880  19.127   2.600
16177W        W87903   0.919  10.850  14.703
16178W        W87904  40.444  37.706  11.616
16179W        W87905  13.139   7.583  13.901
16180W        W87906  34.325  11.252   4.695
16181W        W87907  35.042  20.649   2.892
16182W        W87908  33.055   0.234   4.428
16183W        W87909   5.310   1.434  10.637
16184W        W87910  40.067  24.385   1.532
16185W        W87911   2.774   8.594  11.054
16186W        W87912  37.972  23.209   0.699
16187W        W87913  22.025  35.498   1.053
16188W        W87914  33.147  15.990   1.924
16189W        W87915  23.034   9.704   1.655
16190W        W87916  30.691  30.551  11.585
16191W        W87917  42.702  14.560  11.186
16192W        W87918   0.972  24.228   2.399
16193W        W87919  12.328   8.839   1.356
16194W        W87920   2.197   9.892  11.062
16195W        W87921  35.344  27.612  13.578
16196W        W87922  24.064  16.293   1.655
16197W        W87923  38.899  38.426   2.638
16198W        W87924  44.605  39.717  10.132
16199W        W87925   1.476  30.423  10.647
16200W        W87926  17.833  11.128  14.452
16201W        W87927  12.925  39.622  12.061
16202W        W87928  29.186   4.440   4.168
16203W        W87929  20.798   4.288  11.534
16204W        W87930  39.462  32.041  10.546
16205W        W87931   3.983  36.008   2.803
16206W        W87932  40.869  17.597   0.325
16207W        W87933  18.763  21.238   1.263
16208W        W87934  43.545  17.965  11.227
16209W        W87935   4.793  14.339  14.487
16210W        W87936  28.587  41.793  13.628
16211W        W87937  37.156  17.377   0.842
16212W        W87938   9.538   2.224   3.351
16213W        W87939  31.771  36.394  12.409
16214W        W87940   7.416  21.775   4.107
16215W        W87941  20.814   5.272   3.681
16216W        W87942  39.533   9.517   1.311
16217W        W87943  43.694  40.971  13.087
16218W        W87944  41.900   8.273  12.347
16219W        W87945  17.354  22.160   2.956
16220W        W87946  13.573   1.810  13.823
16221W        W87947  43.455  26.434  11.347
16222W        W87948  29.648   0.329   3.381
16223W        W87949  33.916  36.585  14.480
16224W        W87950  27.069  17.276  14.661
16225W        W87951  16.898  43.305   3.690
16226W        W87952  37.554   8.846   4.747
16227W        W87953  11.254  19.294  12.356
16228W        W87954   4.398   0.144  12.278
16229W        W87955  34.443   4.878  11.160
16230W        W87956  38.889  27.974  14.968
16231W        W87957  23.986  11.790   0.998
16232W        W87958  12.267  30.513   3.893
16233W        W87959  15.775  36.163   2.225
16234W        W87960  13.858  22.107  12.773
16235W        W87961  38.461  18.053  11.424
16236W        W87962  16.625  24.373   4.668
16237W        W87963  31.346  34.414   1.667
16238W        W87964  28.251  32.200   0.831
16239W        W87965  13.667   8.694  14.294
16240W        W87966  23.323   6.974  13.518
16241W        W87967  31.947  15.753   0.193
16242W        W87968  34.832  34.600   1.868
16243W        W87969  26.569  12.800   1.216
16244W        W87970   4.829  40.006   1.914
16245W        W87971   0.236  39.822  10.854
16246W        W87972   2.235  28.557   0.412
16247W        W87973  35.858   8.308   2.796
16248W        W87974  12.131  23.629   3.268
16249W        W87975  21.965  18.758  12.394
16250W        W87976  10.655  29.668  13.498
16251W        W87977  16.713   0.536   2.695
16252W        W87978  25.090   5.149  13.633
16253W        W87979  43.896  16.848  10.635
16254W        W87980  16.551   8.941   0.498
16255W        W87981   0.868  17.216  11.416
16256W        W87982   5.859  19.008   4.639
16257W        W87983  22.675  15.087   4.215
16258W        W87984  31.940   9.124  10.940
16259W        W87985  33.200  35.974  10.412
16260W        W87986   7.505   1.181  12.901
16261W        W87987  13.356  35.367  11.658
16262W        W87988   3.047   7.763   3.621
16263W        W87989  21.514  31.945   2.420
16264W        W87990  33.642  21.973  14.875
16265W        W87991   8.887  34.613  14.779
16266W        W87992  20.497  21.676  10.722
16267W        W87993  16.072   3.689  10.527
16268W        W87994  19.121  41.504  12.090
16269W        W87995  30.453  42.314  12.422
16270W        W87996  26.806  10.195  10.726
16271W        W87997  43.698  35.314  11.914
16272W        W87998  17.231  35.955  14.546
16273W        W87999  25.878   4.393   0.266
16274W        W88000  34.849   4.713  13.424
16275W        W88001   2.064  19.534  14.964
16276W        W88002  41.525  43.827  12.364
16277W        W88003  23.226  29.711   4.097
16278W        W88004  24.213  40.326   4.195
16279W        W88005  30.384  28.112  11.314
16280W        W88006  18.546  13.603  10.708
16281W        W88007  30.579   4.956  10.665
16282W        W88008  38.391  21.521  13.831
16283W        W88009  44.275  30.428   4.608
16284W        W88010  23.725  20.990   0.497
16285W        W88011   7.910  37.494  13.447
16286W        W88012  32.036  36.498   1.280
16287W        W88013  32.386  38.887   1.687
16288W        W88014  32.111  30.021  11.577
16289W        W88015   6.318   6.854   9.594
16290W        W88016   0.263  26.256  12.329
16291W        W88017  41.409  44.063  12.801
16292W        W88018   5.278  32.843  10.635
16293W        W88019   6.917  43.830   1.695
16294W        W88020  10.656  26.108   4.413
16295W        W88021  38.971  12.663  13.952
16296W        W88022  32.008  22.548   0.825
16297W        W88023   6.328  43.128  11.565
16298W        W88024  43.258  21.332   5.081
16299W        W88025   3.910  24.747   0.298
16300W        W88026  25.066   4.453   4.845
16301W        W88027   0.840  37.766   3.318
16302W        W88028  35.817  17.611  12.409
16303W        W88029  19.832   0.446   0.464
16304W        W88030  10.244  15.229   0.678
16305W        W88031  13.215  14.553   2.290
16306W        W88032  34.774  43.909  10.433
16307W        W88033  30.738   5.864   3.861
16308W        W88034  14.672   5.948   0.511
16309W        W88035  34.273  21.198  13.126
16310W        W88036   1.293  37.573   3.056
16311W        W88037  40.397  10.773  14.538
16312W        W88038  22.302   7.578  13.016
16313W        W88039   2.962  25.526   0.914
16314W        W88040  13.216  33.800   3.289
16315W        W88041  24.930  21.991  11.065
16316W        W88042  10.347  37.591  13.025
16317W        W88043  40.062  21.028  12.445
16318W        W88044   9.412   3.992   1.627
16319W        W88045  27.898  15.682   4.139
16320W        W88046  31.675  31.454  14.294
16321W        W88047  19.953  24.501  13.537
16322W        W88048  13.741  23.102   2.805
16323W        W88049   8.289  11.495  13.510
16324W        W88050  17.060  18.152  13.397
16325W        W88051  34.903  40.775   1.849
16326W        W88052   7.600  32.854  12.041
16327W        W88053  32.856  15.697  13.012
16328W        W88054  26.958  19.530  11.646
16329W        W88055   2.127  32.556   4.692
16330W        W88056  17.301   0.069   3.146
16331W        W88057  25.106  32.702   3.482
16332W        W88058   2.311  17.620  11.922
16333W        W88059  22.585  14.979   5.426
16334W        W88060   0.856   9.622   4.552
16335W        W88061  37.559  20.972   0.566
16336W        W88062  28.630  40.192  13.442
16337W        W88063  22.526  23.584  13.033
16338W        W88064   5.560  29.495   3.891
16339W        W88065  14.064   8.331   0.350
16340W        W88066  18.515  11.778   4.042
16341W        W88067   4.633  24.277  10.128
16342W        W88068  11.099  39.942  11.125
16343W        W88069  23.478  10.735  13.471
16344W        W88070  36.390  20.785   3.604
16345W        W88071  27.058  40.409   3.431
16346W        W88072   1.749   6.544  11.295
16347W        W88073  24.655  34.134   0.347
16348W        W88074   8.316  39.036   2.748
16349W        W88075  38.029  40.012  12.128
16350W        W88076  38.821   4.905  14.800
16351W        W88077  18.993  37.542  14.891
16352W        W88078  14.156   7.631   4.159
16353W        W88079  16.333  35.486  14.450
16354W        W88080  11.174  44.761  11.529
16355W        W88081  27.838  20.437  11.127
16356W        W88082  39.233  43.404  14.275
16357W        W88083  22.687  35.063  11.145
16358W        W88084  14.407  30.183  14.298
16359W        W88085  44.152  11.662   3.102
16360W        W88086  12.838  13.190  12.867
16361W        W88087  16.305  27.406   3.253
16362W        W88088  20.042  21.041  12.945
16363W        W88089  26.981   6.433   0.399
16364W        W88090  28.681   3.436  11.379
16365W        W88091  13.435   6.797  14.526
16366W        W88092  25.516  26.692   1.401
16367W        W88093   4.451  11.536   2.798
16368W        W88094  41.455  16.290   3.754
16369W        W88095  24.342  14.260  13.874
16370W        W88096  20.075  14.070  14.063
16371W        W88097  10.357  21.285   1.754
16372W        W88098   4.858  42.086   3.249
16373W        W88099  21.620  29.764   4.523
16374W        W88100   2.506  27.037  13.900
16375W        W88101  34.092  15.093  14.910
16376W        W88102  13.325   5.807   1.905
16377W        W88103  12.619   2.908   4.837
16378W        W88104  21.751   7.752  14.865
16379W        W88105  42.482  13.892   0.813
16380W        W88106   6.722  25.001   4.507
16381W        W88107  10.937   6.332  12.965
16382W        W88108  43.236  11.396   4.640
16383W        W88109  42.267  21.077   0.156
16384W        W88110  35.029  11.360  12.586
16385W        W88111   2.849  34.554  10.970
16386W        W88112  44.845  22.072   4.611
16387W        W88113  44.800   2.423   0.914
16388W        W88114  15.764   2.452  11.671
16389W        W88115  36.932  35.588   1.897
16390W        W88116  29.501  30.815  11.637
16391W        W88117  31.771  24.118   0.060
16392W        W88118   9.617  44.946   2.648
16393W        W88119   3.908  24.811   2.415
16394W        W88120  14.850   9.302   3.587
16395W        W88121   0.777   3.885  12.211
16396W        W88122  11.411  31.421   2.805
16397W        W88123  29.646  41.000   4.824
16398W        W88124  16.036  20.158  12.464
16399W        W88125  28.155  42.462   0.237
16400W        W88126  40.827  43.524   1.389
16401W        W88127  38.083  28.623   4.447
16402W        W88128   7.124  27.071  13.432
16403W        W88129  32.046  28.567   3.991
16404W        W88130   9.698  30.416   0.935
16405W        W88131  22.004   2.302   2.503
16406W        W88132  24.272  30.342   0.844
16407W        W88133   3.525  15.244   3.219
16408W        W88134  38.002  38.874  13.881
16409W        W88135  30.969  26.805   3.392
16410W        W88136  10.518   5.570   1.302
16411W        W88137   2.599  31.973   5.071
16412W        W88138  12.841  24.068   4.391
16413W        W88139  17.596   3.432   1.310
16414W        W88140  22.165  36.902  11.197
16415W        W88141  33.901  41.943  11.796
16416W        W88142  31.187  22.884   3.123
16417W        W88143  35.860  25.112  14.730
16418W        W88144  22.557   7.327   0.773
16419W        W88145   1.481  22.081  13.380
16420W        W88146   1.144  40.941  13.084
16421W        W88147  42.388  30.994   4.931
16422W        W88148   0.335  26.711   0.773
16423W        W88149  15.727   1.696   0.802
16424W        W88150  32.655   5.796   3.377
16425W        W88151   6.932  26.455  14.408
16426W        W88152  35.935  31.236  13.598
16427W        W88153  15.552  43.922   1.259
16428W        W88154  28.281  30.049  12.951
16429W        W88155  11.605  21.294   1.208
16430W        W88156  34.168  12.667   4.311
16431W        W88157  35.540   6.872  11.562
16432W        W88158   9.273  14.733  13.701
16433W        W88159  10.696  31.675  14.970
16434W        W88160  19.597   0.229  13.884
16435W        W88161   1.602  33.483   2.401
16436W        W88162  37.090  18.776  14.382
16437W        W88163  30.319  37.494  12.370
16438W        W88164  43.616  35.362   4.945
16439W        W88165  19.519  40.947   3.411
16440W        W88166  15.804  30.957   2.089
16441W        W88167  36.331  34.115  13.974
16442W        W88168  31.509  43.876   1.788
16443W        W88169  25.257  14.077   0.275
16444W        W88170  16.206   6.802   3.601
16445W        W88171   9.865  39.058   4.174
16446W        W88172  24.224  29.491  14.785
16447W        W88173  33.864   8.890   1.275
16448W        W88174   6.985  28.000  13.533
16449W        W88175  18.315  28.868  14.300
16450W        W88176  13.745  41.133  10.356
16451W        W88177  38.597  18.771   3.195
16452W        W88178   7.644   5.619   2.282
16453W        W88179  35.480  28.698  14.570
16454W        W88180  40.996  31.994   0.778
16455W        W88181  31.175   5.475  11.082
16456W        W88182  39.557  13.876   3.702
16457W        W88183  20.970  10.651   4.308
16458W        W88184  42.283  42.820   2.847
16459W        W88185  22.068  11.313  12.086
16460W        W88186  10.377  44.281  11.448
16461W        W88187  37.395  41.857  11.205
16462W        W88188  18.770   5.900   2.281
16463W        W88189  34.192  25.335  13.866
16464W        W88190  21.662  28.619  10.962
16465W        W88191  27.910  39.989  10.409
16466W        W88192  35.999   6.629   1.813
16467W        W88193  34.979  34.939   1.270
16468W        W88194  20.694  17.611  12.057
16469W        W88195   1.324  17.517  10.848
16470W        W88196  22.652  31.876   4.487
16471W        W88197  35.934   1.645   2.481
16472W        W88198  29.946  43.731  14.024
16473W        W88199  44.156  31.049  10.438
16474W        W88200   2.645  37.278  14.377
16475W        W88201  32.182  32.413   3.802
16476W        W88202  16.366  38.958  11.982
16477W        W88203   5.816  27.946   1.145
16478W        W88204  39.011   0.265  11.550
16479W        W88205  44.246   7.476  11.549
16480W        W88206  37.397  25.151   0.458
16481W        W88207  27.583  19.003  14.477
16482W        W88208   7.642  10.730  10.618
16483W        W88209   8.307  28.666   3.881
16484W        W88210  21.238  34.886  11.563
16485W        W88211  31.135  16.541  11.136
16486W        W88212   1.619  30.639  12.629
16487W        W88213   6.841   9.200   3.672
16488W        W88214   6.305  22.914   5.086
16489W        W88215   8.961   8.436  13.536
16490W        W88216  24.843  12.550   4.539
16491W        W88217  30.893  26.004  10.536
16492W        W88218  13.308  21.201   0.694
16493W        W88219  41.948  43.246   3.708
16494W        W88220  36.084  20.159  14.828
16495W        W88221  31.973  37.027  10.950
16496W        W88222   8.920  42.828  11.549
16497W        W88223  12.793   5.162   0.937
16498W        W88224  26.106   3.735  13.870
16499W        W88225  14.026  24.745  14.989
16500W        W88226  27.012  21.618   3.632
16501W        W88227  24.686  42.950   4.566
16502W        W88228  32.061  13.687  10.540
16503W        W88229  16.420  35.561   4.568
16504W        W88230  34.904  18.356  12.051
16505W        W88231   2.284  11.255   0.911
16506W        W88232  40.323   5.840   2.799
16507W        W88233   3.323  15.266   1.880
16508W        W88234  15.882  32.589  11.462
16509W        W88235  26.069   5.273   3.365
16510W        W88236  33.913  36.551   2.343
16511W        W88237  36.915   9.759  13.784
16512W        W88238  35.527  25.454   4.850
16513W        W88239   8.405  41.995   1.278
16514W        W88240  29.944  36.519  13.363
16515W        W88241  27.143  18.793   3.925
16516W        W88242   1.665  42.045   1.635
16517W        W88243  40.007   8.263   1.786
16518W        W88244  42.083  13.244  12.572
16519W        W88245   8.805   2.108   3.807
16520W        W88246  14.216  20.419   2.551
16521W        W88247  22.767   7.300  14.001
16522W        W88248  37.499  31.328  13.028
16523W        W88249  42.492  37.516   2.227
16524W        W88250  21.187  13.166  13.971
16525W        W88251   5.850  43.466   2.271
16526W        W88252  15.651  10.792   4.613
16527W        W88253  22.168  12.974   3.489
16528W        W88254  13.786   1.791   0.367
16529W        W88255  40.029   7.909   2.806
16530W        W88256  42.454   2.252  11.255
16531W        W88257  36.806  42.900  13.007
16532W        W88258  44.843   1.903   0.770
16533W        W88259  24.498  41.568  10.699
16534W        W88260   1.725  28.926   1.235
16535W        W88261  43.771  17.633  12.967
16536W        W88262  42.268  10.696  11.852
16537W        W88263  44.549   4.478   2.904
16538W        W88264   5.471   7.134   1.540
16539W        W88265  24.652  11.339   4.989
16540W        W88266   4.272   9.757   3.085
16541W        W88267  38.305   0.955  11.550
16542W        W88268  27.451  41.452  10.754
16543W        W88269  15.097  36.820   2.903
16544W        W88270  19.095  21.179   2.187
16545W        W88271  14.773  33.343  10.660
16546W        W88272  12.782   3.563  12.042
16547W        W88273  18.108   9.512  10.428
16548W        W88274  14.713  29.291  14.005
16549W        W88275  27.795  13.322   3.772
16550W        W88276   2.983  40.754  12.544
16551W        W88277  11.691  26.963  13.462
16552W        W88278  32.035  36.639  14.529
16553W        W88279  12.814  14.332   3.541
16554W        W88280  23.008  19.778   4.600
16555W        W88281  12.795  37.905   4.328
16556W        W88282  42.605  24.672  14.974
16557W        W88283  36.744  28.739   4.077
16558W        W88284   2.989   0.477   0.926
16559W        W88285  28.573  14.597  14.333
16560W        W88286  38.312  43.849  14.835
16561W        W88287  39.964   9.908  14.096
16562W        W88288  44.788  43.659   2.896
16563W        W88289  35.189   8.218  11.723
16564W        W88290   8.966  33.947   3.669
16565W        W88291  14.485  11.662  14.765
16566W        W88292  37.347   5.204  14.207
16567W        W88293  37.823   5.468   3.638
16568W        W88294   6.968  33.728   0.268
16569W        W88295  21.255  37.938  14.841
16570W        W88296  10.320  14.145   3.545
16571W        W88297   0.808  11.194   1.878
16572W        W88298  43.355  22.845  12.114
16573W        W88299   1.749   2.793  14.340
16574W        W88300  23.269  23.045   0.318
16575W        W88301  25.781  10.712  10.061
16576W        W88302  13.293  26.479  11.564
16577W        W88303  31.338  16.766  13.341
16578W        W88304  29.100  42.886  11.124
16579W        W88305  11.048  24.321  12.618
16580W        W88306  29.143  17.264  14.569
16581W        W88307  18.447  40.296   4.348
16582W        W88308  20.664  27.885  10.310
16583W        W88309   8.090   3.732   1.849
16584W        W88310  15.474  34.396   3.911
16585W        W88311  33.690  34.926   3.111
16586W        W88312  23.814  39.352  11.077
16587W        W88313  43.729  23.164  11.675
16588W        W88314  19.874   2.764  14.376
16589W        W88315   6.295  39.460   0.242
16590W        W88316  11.200  38.513  13.810
16591W        W88317  37.676   2.842  11.214
16592W        W88318  32.142  42.096   1.446
16593W        W88319  22.607  37.586  12.203
16594W        W88320  23.058  41.808   3.936
16595W        W88321  33.106  15.700   1.474
16596W        W88322  21.595  26.568  14.549
16597W        W88323   3.916   6.463   0.975
16598W        W88324  44.356  15.380  14.406
16599W        W88325  40.084  39.375  11.194
16600W        W88326  30.063  26.276  12.378
16601W        W88327  32.076  23.729   5.096
16602W        W88328  15.160  43.804  10.635
16603W        W88329   4.735  19.902   3.251
16604W        W88330  37.442  44.686  12.795
16605W        W88331  28.936  14.732  11.663
16606W        W88332  29.901   5.630   0.368
16607W        W88333   0.842  44.960   3.671
16608W        W88334  18.546  26.738  14.356
16609W        W88335  37.594  20.611  13.324
16610W        W88336   9.290  22.114   0.305
16611W        W88337  38.862   7.755   0.744
16612W        W88338  10.894  33.940  10.636
16613W        W88339  23.041  21.466  14.417
16614W        W88340  31.378  24.640  12.383
16615W        W88341  41.381  41.220   0.561
16616W        W88342   9.446   6.361  14.411
16617W        W88343   7.731  11.383  11.455
16618W        W88344  12.813  31.849  14.041
16619W        W88345  21.738  42.513   3.137
16620W        W88346  23.098  27.551   3.622
16621W        W88347  37.053  27.162  10.736
16622W        W88348  12.350   7.913   2.262
16623W        W88349  16.749  36.570  14.953
16624W        W88350  29.230  20.518   4.210
16625W        W88351  44.284   0.874  10.620
16626W        W88352   1.795  14.093   0.901
16627W        W88353  31.515  27.969   2.875
16628W        W88354  14.398  20.971  12.725
16629W        W88355   8.384  30.344  10.736
16630W        W88356   1.024  11.234   1.399
16631W        W88357  18.753  16.973   2.246
16632W        W88358   4.580   0.117   1.723
16633W        W88359  29.519   8.182   0.178
16634W        W88360   7.833  36.368   1.363
16635W        W88361   8.719  43.364   2.350
16636W        W88362   9.698  34.213  14.524
16637W        W88363  15.842   6.697   0.418
16638W        W88364   9.922  34.874   4.633
16639W        W88365   5.886  17.708   1.702
16640W        W88366  29.068  10.154   4.274
16641W        W88367  29.991  10.018  10.775
16642W        W88368   0.591  12.203  13.105
16643W        W88369  16.815  36.127  11.924
16644W        W88370  32.946  43.383  12.150
16645W        W88371   4.968  25.734   0.959
16646W        W88372   3.895  34.664  12.441
16647W        W88373  28.658   2.767  11.946
16648W        W88374   6.114   2.322   1.276
16649W        W88375  18.213  37.498  13.804
16650W        W88376   2.442  14.549   0.397
16651W        W88377  23.500  13.357   4.029
16652W        W88378   7.194   1.450   1.793
16653W        W88379  18.257   5.742  12.608
16654W        W88380  42.593   9.865  12.000
16655W        W88381   9.135  17.057   4.944
16656W        W88382  10.624  21.570  12.159
16657W        W88383  27.451  13.565   0.494
16658W        W88384  36.461  17.193  13.284
16659W        W88385   7.242  35.470   1.473
16660W        W88386  32.876  22.183   0.420
16661W        W88387   2.749  22.204  10.532
16662W        W88388  16.349   7.230  11.513
16663W        W88389   4.277  41.485   0.906
16664W        W88390   4.529  15.333   0.882
16665W        W88391  33.151  42.416   0.392
16666W        W88392  30.578  17.553  13.969
16667W        W88393  15.247  15.675  13.314
16668W        W88394  38.494  12.193  13.073
16669W        W88395  23.516  13.626   2.975
16670W        W88396  30.583  38.659   1.516
16671W        W88397  42.899  16.712  13.374
16672W        W88398   2.849  39.080   0.394
16673W        W88399  26.556  26.695   1.296
16674W        W88400  41.061  13.105   2.163
16675W        W88401  17.085  23.518   3.365
16676W        W88402  30.282  26.467  13.342
16677W        W88403  30.524   8.608  10.657
16678W        W88404  40.356   4.379   3.844
16679W        W88405  18.731  39.281  13.923
16680W        W88406  28.593   7.913  14.234
16681W        W88407  36.845  38.161  11.955
16682W        W88408  15.050   0.023   1.435
16683W        W88409  21.197  42.198  14.040
16684W        W88410  22.575  31.432  11.661
16685W        W88411   6.144  40.014  10.986
16686W        W88412  11.588  15.226   1.355
16687W        W88413  42.388  18.060   4.575
16688W        W88414  11.110  14.894   0.663
16689W        W88415   8.296  15.406  12.233
16690W        W88416  26.679   2.003   1.865
16691W        W88417  40.525  27.654  12.596
16692W        W88418  20.666   2.866   3.734
16693W        W88419  35.628  37.288   4.453
16694W        W88420  37.980  42.423   2.952
16695W        W88421  22.247  24.522  13.276
16696W        W88422   6.498   4.276  12.490
16697W        W88423  19.969   5.891  12.934
16698W        W88424  24.974  31.880   0.441
16699W        W88425  39.660   9.501  13.372
16700W        W88426  33.791  16.160   1.285
16701W        W88427  11.169  19.113   1.843
16702W        W88428  15.130  21.767   3.351
16703W        W88429  11.600  27.912  13.355
16704W        W88430  31.431   1.707  12.557
16705W        W88431  31.004  32.532  11.900
16706W        W88432   6.749   0.457   0.861
16707W        W88433  25.283  15.760  14.952
16708W        W88434  24.908  20.184   4.586
16709W        W88435   6.985  15.106  12.518
16710W        W88436  39.114  20.204   4.138
16711W        W88437  38.562   5.436  14.170
16712W        W88438  10.156  30.451   2.986
16713W        W88439  40.535  30.282  11.229
16714W        W88440  20.347  27.259   3.831
16715W        W88441  30.473   1.216   0.918
16716W        W88442  31.042  39.502  14.455
16717W        W88443   1.312  34.803  13.004
16718W        W88444  15.208   5.035   1.387
16719W        W88445   9.155  29.462   0.198
16720W        W88446  28.264  33.897  12.367
16721W        W88447  30.393  33.465  14.008
16722W        W88448  19.118  19.953  11.493
16723W        W88449  27.007   3.360   0.725
16724W        W88450  34.795  22.393  11.333
16725W        W88451  16.847   3.987  13.407
16726W        W88452  40.528  27.732   0.972
16727W        W88453   2.194  25.040  14.040
16728W        W88454  40.511  11.742  12.624
16729W        W88455   2.281  39.744  10.632
16730W        W88456   0.832  26.196   0.519
16731W        W88457  29.681  26.686  11.591
16732W        W88458  42.954  17.230  13.424
16733W        W88459  28.800  37.566  11.716
16734W        W88460   9.527  34.166   1.323
16735W        W88461  14.146   0.708   3.322
16736W        W88462   4.125  44.865  14.544
16737W        W88463  28.215   5.840   1.315
16738W        W88464  40.755  40.368  12.038
16739W        W88465  37.591  31.389   3.281
16740W        W88466   4.298   8.850  12.238
16741W        W88467  42.007   9.238   4.565
16742W        W88468   2.754  33.359  12.070
16743W        W88469  43.350   9.836   4.594
16744W        W88470   0.071  29.450   3.136
16745W        W88471   7.127  21.546   1.212
16746W        W88472  31.150   6.969   4.026
16747W        W88473  18.613   9.302  11.117
16748W        W88474  30.479  10.723   3.605
16749W        W88475  39.968   0.991   4.132
16750W        W88476  27.761  21.697   0.032
16751W        W88477  12.323  25.545   4.515
16752W        W88478  33.081  36.704  12.953
16753W        W88479   6.297   0.728   0.727
16754W        W88480  15.265  22.914   4.683
16755W        W88481   0.348  22.811  13.499
16756W        W88482   6.280  37.864  11.181
16757W        W88483  22.053  32.570  13.178
16758W        W88484  24.209   6.737   4.359
16759W        W88485  27.235   4.383  12.956
16760W        W88486  29.654  20.587  14.986
16761W        W88487  41.279  10.065  12.011
16762W        W88488  28.146  22.977  13.551
16763W        W88489  12.718  40.807   0.928
16764W        W88490  37.479  32.072  12.264
16765W        W88491   0.454   3.285  11.922
16766W        W88492  42.774   0.151   4.100
16767W        W88493   0.531   7.480  12.474
16768W        W88494  43.538  14.301   1.450
16769W        W88495  31.076   9.102  13.319
16770W        W88496  35.853  28.602   3.821
16771W        W88497  16.604  39.853  11.435
16772W        W88498  38.744  27.484  13.330
16773W        W88499  14.935  14.784  12.452
16774W        W88500  11.385  23.619   0.225
16775W        W88501  19.166  40.270  12.878
16776W        W88502  30.431  27.137  11.379
16777W        W88503  40.059  17.994  14.787
16778W        W88504  16.272  39.260  13.486
16779W        W88505  34.531  21.638  14.903
16780W        W88506   6.872   8.276   3.650
16781W        W88507  24.446  22.883  13.444
16782W        W88508  19.274  31.672   0.271
16783W        W88509  30.457  34.921  13.503
16784W        W88510  13.562  22.432   0.905
16785W        W88511  35.007  14.205   3.158
16786W        W88512  13.708  21.526   3.200
16787W        W88513  23.066  37.912   3.814
16788W        W88514   5.207  42.503  11.651
16789W        W88515  30.487  21.652  11.654
16790W        W88516  31.731  26.095   4.520
16791W        W88517  20.813  43.213   0.932
16792W        W88518  37.346  22.737   2.355
16793W        W88519  31.269  21.566   0.941
16794W        W88520  33.147  41.351  12.954
16795W        W88521  28.547  20.767  13.369
16796W        W88522  37.480   1.937   1.859
16797W        W88523  41.341  26.022  14.094
16798W        W88524  24.806  29.420   2.877
16799W        W88525  42.805   2.894   1.048
16800W        W88526   5.302   3.499  13.433
16801W        W88527   9.643   9.906  11.157
16802W        W88528  17.316   1.748   4.022
16803W        W88529   4.265  16.116  10.264
16804W        W88530   2.276  42.773   2.715
16805W        W88531  29.103  36.331  11.505
16806W        W88532  15.522  40.607  14.473
16807W        W88533  39.318  30.163   3.323
16808W        W88534  42.059  16.884  13.063
16809W        W88535  17.108  22.151   4.749
16810W        W88536  20.528  32.381  11.037
16811W        W88537  11.191  30.697  11.448
16812W        W88538   7.394  23.045   1.454
16813W        W88539   7.635  25.946   3.510
16814W        W88540   0.822  13.618  11.323
16815W        W88541  11.383   0.968  11.953
16816W        W88542  33.048  33.126  11.617
16817W        W88543   7.919   7.877  14.901
16818W        W88544  33.104   8.077   0.981
16819W        W88545   6.396  10.245  11.213
16820W        W88546  32.822   3.834  14.478
16821W        W88547  16.209  41.374  10.713
16822W        W88548  44.159   2.119   5.207
16823W        W88549  40.535  13.694   0.377
16824W        W88550  13.136  22.092   0.916
16825W        W88551   3.938  29.795  14.325
16826W        W88552  10.329   6.155  11.126
16827W        W88553  35.422  13.947   2.394
16828W        W88554   5.316  29.955  14.524
16829W        W88555  44.862  39.026  14.967
16830W        W88556  42.360  13.528   0.466
16831W        W88557  22.667  18.011   0.528
16832W        W88558  27.209  41.989   4.635
16833W        W88559  39.313  43.421  11.529
16834W        W88560  33.254  21.659  10.737
16835W        W88561  13.791  18.251  13.914
16836W        W88562   5.911  38.902  13.431
16837W        W88563  18.867  35.190   3.293
16838W        W88564   9.694  39.856   3.078
16839W        W88565  36.498  29.550  13.705
16840W        W88566  26.861  18.583  11.258
16841W        W88567  21.206  44.993  11.906
16842W        W88568   1.361   0.772  10.781
16843W        W88569  34.821  23.460  13.823
16844W        W88570  35.085  23.758   1.245
16845W        W88571  17.305  41.428   2.663
16846W        W88572  37.485  39.888   1.375
16847W        W88573  30.902   9.611   4.751
16848W        W88574  18.242  12.182   1.625
16849W        W88575   0.157  20.289   3.286
16850W        W88576  39.620   3.303   2.414
16851W        W88577   7.905   2.922   1.312
16852W        W88578  42.943  13.122  11.082
16853W        W88579  42.241  35.774  12.183
16854W        W88580  23.735   8.450  11.687
16855W        W88581  12.183  43.306  13.226
16856W        W88582   5.208  31.387  13.448
16857W        W88583  44.876  43.012  11.616
16858W        W88584   8.225  26.751   2.267
16859W        W88585  28.373  20.559   0.015
16860W        W88586  14.668   6.864   4.464
16861W        W88587   9.728  38.304   0.751
16862W        W88588   2.667   1.016  13.874
16863W        W88589  37.792   0.968   3.844
16864W        W88590  14.719   3.908   0.856
16865W        W88591  37.598   4.690  12.529
16866W        W88592  43.086   5.821  10.170
16867W        W88593  43.966   8.809   2.289
16868W        W88594  33.199  16.137  12.019
16869W        W88595  33.856  43.070  11.945
16870W        W88596  18.348  35.501   1.711
16871W        W88597  25.011  43.016  11.045
16872W        W88598  40.835   7.446   3.749
16873W        W88599  42.788  43.588   2.682
16874W        W88600  16.985  16.150  12.582
16875W        W88601  34.979  13.031  11.511
16876W        W88602  42.033  34.405   0.500
16877W        W88603   1.993   9.646   2.435
16878W        W88604  36.370  34.594   0.520
16879W        W88605  13.710  11.930  10.613
16880W        W88606  41.152  35.359   2.712
16881W        W88607  19.163   0.652  11.606
16882W        W88608  41.073  34.665   4.751
16883W        W88609   5.711  16.726   1.388
16884W        W88610  27.108   5.440   4.342
16885W        W88611  36.089  35.858  14.919
16886W        W88612   9.884  27.014  13.751
16887W        W88613  21.137   5.223   4.077
16888W        W88614  39.847  16.284   2.860
16889W        W88615  10.770  35.556   1.740
16890W        W88616  12.457  24.700   1.320
16891W        W88617  42.898  26.162   4.679
16892W        W88618  28.155  24.246  13.979
16893W        W88619   5.449  43.773   4.739
16894W        W88620  37.489  33.114  11.769
16895W        W88621  18.103  28.186   2.390
16896W        W88622  35.667  35.066  13.103
16897W        W88623   2.385   1.904  11.223
16898W        W88624  28.133   0.935   2.904
16899W        W88625  39.370  17.384  12.512
16900W        W88626  23.612  34.351   2.219
16901W        W88627  26.202  43.382  11.060
16902W        W88628  14.660  12.445  14.448
16903W        W88629  29.091  10.398   3.828
16904W        W88630  43.195  37.402   1.149
16905W        W88631   0.706  43.368  11.595
16906W        W88632  39.335  19.185   4.652
16907W        W88633   4.373  10.137  10.522
16908W        W88634  30.393   0.321  10.875
16909W        W88635  35.308   2.564   1.576
16910W        W88636   1.760   7.683   4.013
16911W        W88637  40.220  22.641   0.426
16912W        W88638  32.991  36.542   0.871
16913W        W88639  43.553  37.888  14.895
16914W        W88640  39.313   2.808   4.551
16915W        W88641  19.256  24.741  11.424
16916W        W88642  34.898  42.459  12.390
16917W        W88643  31.456  42.504   0.187
16918W        W88644   1.773  44.798   0.603
16919W        W88645  40.313  37.960   0.322
16920W        W88646   3.766  11.322  10.639
16921W        W88647   8.135  42.031  14.842
16922W        W88648  34.142  43.217  13.593
16923W        W88649  29.148  34.294   4.229
16924W        W88650  12.975  39.412  14.710
16925W        W88651  41.276  32.917   0.010
16926W        W88652  14.139   2.723   2.175
16927W        W88653  38.257  43.674   3.451
16928W        W88654  14.225  41.025  12.966
16929W        W88655  11.304  37.965  11.197
16930W        W88656   7.362   9.248  12.072
16931W        W88657  38.038  38.104   2.655
16932W        W88658  16.718   1.698   0.957
16933W        W88659  27.399  24.056  13.859
16934W        W88660  30.638  25.302  11.115
16935W        W88661  34.034  17.421   3.329
16936W        W88662  37.197  42.099  14.037
16937W        W88663   0.506  38.413  12.645
16938W        W88664  38.712  33.108   3.560
16939W        W88665  23.722   1.428  12.478
16940W        W88666   0.378  39.739   0.759
16941W        W88667  29.476  25.728  13.363
16942W        W88668  29.526  34.975   0.848
16943W        W88669  33.644   5.688   1.742
16944W        W88670  25.794   8.801  13.347
16945W        W88671  17.536  26.232   0.338
16946W        W88672  18.469  19.813  14.799
16947W        W88673  36.275  32.505  13.049
16948W        W88674  35.509  27.496  14.511
16949W        W88675   0.042   2.010  11.592
16950W        W88676  35.439  25.433  12.113
16951W        W88677  19.059  29.496  12.378
16952W        W88678  18.774  30.245   2.924
16953W        W88679  41.094   5.192   4.526
16954W        W88680   6.778  34.065   1.810
16955W        W88681  39.508  32.509   2.479
16956W        W88682  44.551  37.960   3.509
16957W        W88683  20.692  25.935  11.558
16958W        W88684  19.843   6.374  13.878
16959W        W88685  29.180  16.411   2.827
16960W        W88686  36.974  36.923   1.494
16961W        W88687  10.091  14.367   1.706
16962W        W88688  39.963  16.343  12.071
16963W        W88689   4.928  29.203   1.989
16964W        W88690  22.596   7.178   2.633
16965W        W88691   0.189  19.608  12.589
16966W        W88692  22.721  12.716   2.839
16967W        W88693  21.252  31.396  12.475
16968W        W88694  44.355  30.886   2.650
16969W        W88695  29.691  44.435  12.026
16970W        W88696  17.158  33.345  12.124
16971W        W88697   5.596  40.106   4.669
16972W        W88698  10.015  12.120   5.075
16973W        W88699   6.532  13.074   3.290
16974W        W88700   7.638   1.182   1.805
16975W        W88701  13.580   0.053  13.935
16976W        W88702   5.833  17.642  12.447
16977W        W88703  23.483  21.363   1.540
16978W        W88704  21.733  15.377   3.829
16979W        W88705  27.492   0.926   1.848
16980W        W88706   0.466   5.167  13.867
16981W        W88707  14.239  23.997  13.040
16982W        W88708  29.964  22.535  12.920
16983W        W88709   0.829  11.335   2.929
16984W        W88710  25.201   2.028   4.917
16985W        W88711  29.079   6.171   4.955
16986W        W88712  30.944  17.909   3.942
16987W        W88713   5.147  14.622   4.863
16988W        W88714  32.814   3.837  11.254
16989W        W88715   7.217  27.192  11.226
16990W        W88716   7.312  40.297   4.587
16991W        W88717  29.858   2.466   2.514
16992W        W88718   6.130   0.990  14.427
16993W        W88719  40.314  39.210   3.241
16994W        W88720  42.349  31.410   3.926
16995W        W88721   2.882  40.029  13.034
16996W        W88722  15.365  26.229  10.742
16997W        W88723  35.909  35.069  12.015
16998W        W88724  15.774  42.267  11.017
16999W        W88725  28.802   9.927  10.430
17000W        W88726  34.479   0.763  12.070
17001W        W88727  39.947   6.910   1.791
17002W        W88728  21.577  28.141   2.194
17003W        W88729  22.104  21.585   1.218
17004W        W88730   6.815  24.190   4.178
17005W        W88731  20.129  14.141  10.964
17006W        W88732   8.384   4.744  11.546
17007W        W88733  42.888  29.266   1.196
17008W        W88734  31.387  12.122   0.230
17009W        W88735  21.085   0.676   4.912
17010W        W88736  10.640  15.710  12.524
17011W        W88737  24.032  15.743  12.413
17012W        W88738   6.397  23.258  11.617
17013W        W88739  24.099  11.358  10.732
17014W        W88740  22.903  41.281   3.280
17015W        W88741  34.466  34.497  14.999
17016W        W88742  23.723  10.833  12.841
17017W        W88743  11.721  37.370  10.733
17018W        W88744  19.442  37.638  11.999
17019W        W88745  32.354   4.980   1.694
17020W        W88746  15.779  44.446   3.743
17021W        W88747   5.393  35.061   0.427
17022W        W88748  23.361  43.182  13.917
17023W        W88749  31.907  14.108  14.243
17024W        W88750  36.590  13.823   3.368
17025W        W88751   1.498  19.142   4.124
17026W        W88752   6.000  14.160  13.017
17027W        W88753  33.439  17.840  11.592
17028W        W88754   3.356  44.510  12.047
17029W        W88755   8.155  35.761   5.305
17030W        W88756  10.571  12.948   2.753
17031W        W88757  43.625  24.223  10.677
17032W        W88758   9.927  23.649  11.455
17033W        W88759  27.929   1.988  12.043
17034W        W88760  18.897  39.351   3.247
17035W        W88761   7.163  20.584   2.397
17036W        W88762  23.261  39.298  13.319
17037W        W88763  42.887  42.466   1.695
17038W        W88764  35.840   5.344  14.852
17039W        W88765  44.353  39.989  11.419
17040W        W88766  42.883  25.649  13.871
17041W        W88767  34.950  44.994  13.954
17042W        W88768  38.651   2.113   2.318
17043W        W88769  24.387  37.096  10.714
17044W        W88770  36.833  11.895   3.304
17045W        W88771  21.996  33.324  12.351
17046W        W88772  32.995  33.151   1.386
17047W        W88773  14.781  14.389  14.469
17048W        W88774  27.568   7.311  11.922
17049W        W88775  11.207  43.962  13.512
17050W        W88776  42.032   3.915  14.960
17051W        W88777  43.256  12.546  14.757
17052W        W88778  30.908  11.922  12.512
17053W        W88779  30.014  23.397  14.790
17054W        W88780  18.780  14.028  10.528
17055W        W88781  38.684  38.460   1.647
17056W        W88782  39.711  20.633   4.536
17057W        W88783  39.028  37.656   3.276
17058W        W88784  27.958  20.696   2.887
17059W        W88785  20.991  16.330  14.293
17060W        W88786   3.157  16.155  14.875
17061W        W88787  27.014  11.801  14.097
17062W        W88788  13.058   8.239  10.811
17063W        W88789  34.410  28.114  11.536
17064W        W88790  14.543   3.382   5.005
17065W        W88791  41.878  11.371   2.721
17066W        W88792  34.897  16.535  13.416
17067W        W88793   7.727  26.900   2.349
17068W        W88794  16.240   2.299   1.857
17069W        W88795   8.375  23.678  10.560
17070W        W88796  14.271  13.684   1.367
17071W        W88797  26.979   0.634   5.177
17072W        W88798   6.351   0.529   1.183
17073W        W88799  28.216  16.756   1.724
17074W        W88800  31.634  38.903   2.225
17075W        W88801  13.350  25.768   3.127
17076W        W88802  18.772  41.076  13.255
17077W        W88803   2.952  40.900   1.312
17078W        W88804  16.648  21.061  14.417
17079W        W88805  38.896  34.141  14.007
17080W        W88806  29.594  11.606  13.952
17081W        W88807   5.975   7.217   2.651
17082W        W88808   0.024  42.961   4.668
17083W        W88809   8.742   3.069  12.818
17084W        W88810  22.921  29.539  12.019
17085W        W88811  30.905   2.487   2.298
17086W        W88812  38.993   2.288   3.542
17087W        W88813  10.263  12.046  11.219
17088W        W88814   7.306  11.901  12.094
17089W        W88815   5.832  19.219   3.630
17090W        W88816  10.866   7.403  13.517
17091W        W88817  18.719  41.653  12.444
17092W        W88818  43.845   6.676  12.324
17093W        W88819  24.428  39.053  11.926
17094W        W88820   4.324   7.886  10.775
17095W        W88821   4.437   7.852   1.335
17096W        W88822  19.704  40.311  13.975
17097W        W88823  44.391   9.897   4.048
17098W        W88824  31.904  31.168   2.856
17099W        W88825  10.587  24.269  12.338
17100W        W88826  20.704  35.982  14.757
17101W        W88827  22.456  39.399  11.528
17102W        W88828  12.010  41.083   4.540
17103W        W88829   3.776   6.890   3.261
17104W        W88830  18.505  29.405   3.896
17105W        W88831   3.847  41.923  12.468
17106W        W88832   4.440  11.031   4.113
17107W        W88833  26.010  20.191   4.729
17108W        W88834  13.655  25.963   3.772
17109W        W88835  12.300   8.847  11.724
17110W        W88836   7.427   1.272   1.335
17111W        W88837  44.877  39.097   3.173
17112W        W88838  23.727  32.052   0.375
17113W        W88839  35.547  17.797  10.715
17114W        W88840  32.115   5.436   1.770
17115W        W88841  37.624  37.887  11.454
17116W        W88842  44.980  24.209   4.403
17117W        W88843   7.404  44.456   0.255
17118W        W88844   9.195  43.788  14.784
17119W        W88845  13.139  17.850  13.363
17120W        W88846  19.210  13.023   2.221
17121W        W88847  16.158  35.558  12.924
17122W        W88848   8.448   6.219  10.241
17123W        W88849  23.792   6.986   0.796
17124W        W88850  41.590   2.873  13.303
17125W        W88851   6.302  11.156   2.006
17126W        W88852  29.141  36.361   2.373
17127W        W88853  23.231  28.234  12.995
17128W        W88854  21.241  30.969   5.037
17129W        W88855  35.344  13.262   1.387
17130W        W88856  31.347  20.549   4.662
17131W        W88857  18.149  27.994   1.474
17132W        W88858  41.204   1.008  12.938
17133W        W88859  11.324   8.561  14.280
17134W        W88860  39.992   9.475  10.973
17135W        W88861  34.393  30.378   1.937
17136W        W88862  24.725  17.307   0.360
17137W        W88863  19.204  41.996   1.229
17138W        W88864  40.371  12.724  12.586
17139W        W88865   3.378  36.466   1.156
17140W        W88866   4.665  31.440  13.407
17141W        W88867  28.584  19.626  12.984
17142W        W88868   6.707  39.971  13.428
17143W        W88869  32.325  33.036   3.153
17144W        W88870  21.772  28.252  13.088
17145W        W88871   2.314  42.753   3.729
17146W        W88872  30.360  37.347   3.376
17147W        W88873   2.376   8.609  11.670
17148W        W88874  15.224  22.425   4.981
17149W        W88875  24.624  17.541  13.431
17150W        W88876  21.350  18.299   0.475
17151W        W88877  41.459  25.235  14.656
17152W        W88878  40.369  28.141   4.119
17153W        W88879  21.763  15.259  10.539
17154W        W88880   4.694   4.753   4.979
17155W        W88881   5.945  35.447   4.356
17156W        W88882  43.025  26.060  12.522
17157W        W88883  32.636   2.196   1.392
17158W        W88884  39.481  10.807   0.926
17159W        W88885   7.553  34.621  14.814
17160W        W88886  35.492  41.073   3.959
17161W        W88887  22.814  44.396   0.374
17162W        W88888  27.486  11.287  14.817
17163W        W88889  41.623  42.823   3.821
17164W        W88890  12.165  34.509   4.863
17165W        W88891  33.836   6.453   2.330
17166W        W88892  40.524  18.499   0.315
17167W        W88893  34.150  24.949   1.238
17168W        W88894  34.610  31.455   1.247
17169W        W88895  41.271  26.928  14.318
17170W        W88896  10.071  15.163  12.081
17171W        W88897   9.309  13.148   3.838
17172W        W88898  44.343  44.513   2.469
17173W        W88899  28.014  14.000   0.170
17174W        W88900   3.476  43.755  11.712
17175W        W88901  33.652   3.750   1.502
17176W        W88902  27.901  17.750  14.883
17177W        W88903   0.835   6.384  10.926
17178W        W88904  27.275  39.286   4.115
17179W        W88905   7.182  29.476   4.037
17180W        W88906  22.127   4.749  10.502
17181W        W88907  21.789  39.558   2.219
17182W        W88908  29.751  37.399  13.452
17183W        W88909  29.105  43.822  14.642
17184W        W88910  21.679  31.087   0.145
17185W        W88911  16.577  22.772  12.931
17186W        W88912  27.200  12.409  13.452
17187W        W88913  24.964  10.587   2.684
17188W        W88914  19.233  37.400   0.319
17189W        W88915  14.106  28.710  14.262
17190W        W88916  37.678  33.621  12.897
17191W        W88917   1.440   3.465  12.141
17192W        W88918  15.108  14.693  12.944
17193W        W88919  15.298   4.911  11.944
17194W        W88920  42.765  17.562   0.991
17195W        W88921   4.351   3.406  14.797
17196W        W88922  16.796  18.785   2.941
17197W        W88923  32.173  22.028  11.452
17198W        W88924  28.464  16.212  10.683
17199W        W88925  22.654  14.368   3.692
17200W        W88926  39.861  12.583   4.161
17201W        W88927  18.549   3.473  13.101
17202W        W88928  39.511   9.634  14.767
17203W        W88929  31.102  25.132  10.367
17204W        W88930  40.501   7.981  10.585
17205W        W88931  12.000  44.493   3.388
17206W        W88932   1.250  37.102   3.841
17207W        W88933  13.581  42.986   0.765
17208W        W88934  24.300  16.818   4.120
17209W        W88935  34.022  11.700  14.379
17210W        W88936  27.492   3.917   4.722
17211W        W88937  26.198  26.480   0.908
17212W        W88938   5.980  41.525   3.563
17213W        W88939  21.401  29.351   1.427
17214W        W88940   4.841  44.924   4.018
17215W        W88941   4.092  13.894   0.924
17216W        W88942  36.062   4.476   1.880
17217W        W88943  12.209  12.617   2.086
17218W        W88944  42.456  43.900  11.941
17219W        W88945  24.877   6.898   3.130
17220W        W88946   3.230  11.244   0.574
17221W        W88947  43.985  13.183   4.869
17222W        W88948  19.278  30.244  14.862
17223W        W88949   5.006  16.802   3.765
17224W        W88950  15.125  31.477  11.860
17225W        W88951   2.662  13.082   3.614
17226W        W88952  44.140  41.273  14.142
17227W        W88953  20.537  36.047   0.234
17228W        W88954   7.808  41.632   0.023
17229W        W88955  34.808  31.937  14.529
17230W        W88956   7.258  32.385  13.139
17231W        W88957  36.815  26.983  14.922
17232W        W88958  18.866  34.832   4.170
17233W        W88959  29.569  35.566  12.540
17234W        W88960  39.142   7.742  13.850
17235W        W88961  22.692   4.933   2.742
17236W        W88962  34.062   2.312   0.210
17237W        W88963  12.847  11.639   2.635
17238W        W88964  23.125  38.387  13.761
17239W        W88965  28.558  44.039   2.177
17240W        W88966  26.244  41.330   1.964
17241W        W88967  16.796  27.524   2.403
17242W        W88968  15.788  15.297   2.375
17243W        W88969  39.717   7.998   2.376
17244W        W88970  36.351  25.861  13.852
17245W        W88971  33.132   9.913  10.116
17246W        W88972  37.919  13.381   3.094
17247W        W88973   3.290  12.687  13.478
17248W        W88974  35.660  20.173   4.598
17249W        W88975  35.110  28.889   4.930
17250W        W88976  39.109  34.232  13.063
17251W        W88977  12.378  44.581  12.855
17252W        W88978   4.181  31.855  14.681
17253W        W88979   8.184  19.051   0.819
17254W        W88980   7.362  43.246  13.118
17255W        W88981   1.966  39.363   3.688
17256W        W88982  38.319   5.354   3.882
17257W        W88983  42.745  44.416   1.281
17258W        W88984  36.655  36.387  14.334
17259W        W88985  28.357  44.254  14.276
17260W        W88986  41.517  39.823   4.003
17261W        W88987  10.007  28.207  14.431
17262W        W88988  10.780  16.569  12.900
17263W        W88989  29.900   5.754   2.874
17264W        W88990  35.379  30.556   0.322
17265W        W88991   6.685   3.533  10.721
17266W        W88992  31.215  32.998  13.308
17267W        W88993   9.745  13.526  13.466
17268W        W88994   3.192  34.278   0.556
17269W        W88995  38.528   5.996  12.506
17270W        W88996  31.073  42.989  12.390
17271W        W88997  33.946  43.800  12.424
17272W        W88998   4.853  33.090  13.759
17273W        W88999  36.350   7.441  12.104
17274W        W89000  39.430   6.366   2.573
17275W        W89001  23.772  38.515   0.849
17276W        W89002  11.661   1.475  13.369
17277W        W89003  25.408  12.154  13.139
17278W        W89004  32.887  43.669   2.667
17279W        W89005  41.834  44.081   1.156
17280W        W89006  37.859  43.956   0.820
17281W        W89007   9.402  30.519   1.833
17282W        W89008  12.463  16.144   2.422
17283W        W89009  10.616  18.223   2.865
17284W        W89010   8.442  28.171   2.639
17285W        W89011   7.308  33.591   1.150
17286W        W89012  42.510  18.698  13.377
17287W        W89013  15.630   1.896   1.309
17288W        W89014  21.753  13.293   1.351
17289W        W89015   0.922  11.304   2.436
17290W        W89016   5.473  24.899  11.242
17291W        W89017  10.356  41.530   3.142
17292W        W89018  14.044  39.870  10.616
17293W        W89019   8.835  27.003  11.218
17294W        W89020  26.011  25.537  13.775
17295W        W89021   5.842  31.528  14.626
17296W        W89022  16.748  18.021   4.111
17297W        W89023  25.139  21.031   0.515
17298W        W89024   0.986  12.280   2.338
17299W        W89025  10.461  29.986  12.390
17300W        W89026  44.841   2.044  11.124
17301W        W89027  35.029  13.607   2.463
17302W        W89028  10.615  24.422   2.891
17303W        W89029  30.285   9.029   2.367
17304W        W89030   8.315   0.292   2.238
17305W        W89031  17.316  27.268  12.924
17306W        W89032   6.148  18.372   0.657
17307W        W89033  22.776  35.863  14.404
17308W        W89034  15.707  20.720  10.883
17309W        W89035  15.399  36.316   4.313
17310W        W89036  16.260  40.421  13.993
17311W        W89037  11.978   8.340   2.899
17312W        W89038  41.093   1.753   0.538
17313W        W89039  28.903  19.612  12.331
17314W        W89040   3.548   5.324  13.367
17315W        W89041  38.065   3.034  11.473
17316W        W89042  31.398  33.571   5.182
17317W        W89043  35.008  26.238   0.724
17318W        W89044  17.970   7.979  12.098
17319W        W89045   9.015  35.668  12.908
17320W        W89046  31.719   6.929   2.182
17321W        W89047  10.723  10.766  14.452
17322W        W89048  30.910  25.832  14.862
17323W        W89049   0.433   3.431   5.061
17324W        W89050  39.711  24.376  13.163
17325W        W89051   2.078  31.173  12.116
17326W        W89052   0.924  12.158   4.766
17327W        W89053   0.785   0.164  11.300
17328W        W89054   5.270  25.094  13.642
17329W        W89055  37.255  10.950  14.686
17330W        W89056  15.497  16.800  14.913
17331W        W89057   3.471  29.959  12.923
17332W        W89058  36.880   9.217  14.523
17333W        W89059  12.195  28.990   2.834
17334W        W89060  41.353  10.217   3.785
17335W        W89061   9.836  29.120  13.910
17336W        W89062  24.557   9.329   1.958
17337W        W89063  36.588  11.481   3.515
17338W        W89064  32.872  30.527   2.046
17339W        W89065  44.445  20.897  10.443
17340W        W89066  31.183  24.395  11.932
17341W        W89067  35.268  24.099  11.095
17342W        W89068  43.216  42.875   0.514
17343W        W89069  23.598   9.241  10.647
17344W        W89070  31.758  40.906  10.710
17345W        W89071  21.577   8.718  10.779
17346W        W89072   0.702  44.756   1.433
17347W        W89073  13.783  43.421   2.265
17348W        W89074  21.137  23.712   0.751
17349W        W89075  32.834  27.177  11.484
17350W        W89076  35.580  16.585   3.141
17351W        W89077  29.381   1.737   1.643
17352W        W89078   1.250  42.453  11.370
17353W        W89079  24.517  41.235   4.122
17354W        W89080  43.862  22.064   3.365
17355W        W89081  39.592  24.626   4.427
17356W        W89082  31.001   0.812   3.562
17357W        W89083  33.204   9.867  13.502
17358W        W89084  10.210  37.995   4.377
17359W        W89085  26.119   3.252  14.858
17360W        W89086  39.413  21.683  12.994
17361W        W89087   4.157  14.768  14.781
17362W        W89088   2.885  27.195  11.096
17363W        W89089  40.556  29.870   2.173
17364W        W89090   3.262  19.082  13.206
17365W        W89091  17.089   5.110   1.771
17366W        W89092   9.534  28.137   4.202
17367W        W89093  39.475  21.518   4.463
17368W        W89094   3.415  33.431  12.439
17369W        W89095   1.951  31.237   3.750
17370W        W89096  34.430  42.257  10.689
17371W        W89097  29.453  27.078   0.948
17372W        W89098  36.824  22.059   2.834
17373W        W89099   6.416   1.841   2.006
17374W        W89100  36.939   0.505  13.934
17375W        W89101   2.404   4.363  10.724
17376W        W89102  20.325  14.244  10.510
17377W        W89103  29.387   4.916   0.408
17378W        W89104  23.283   8.305  14.550
17379W        W89105  31.722  15.363  10.663
17380W        W89106   7.183   0.781  13.004
17381W        W89107   0.022  10.469   4.249
17382W        W89108   2.796  17.889   4.491
17383W        W89109  37.743  10.743   2.254
17384W        W89110  39.070  19.627   4.532
17385W        W89111  30.682   7.552  14.804
17386W        W89112  28.792  44.299   3.381
17387W        W89113  30.524  25.466   0.582
17388W        W89114  34.964  38.622   2.301
17389W        W89115  25.654  31.284   2.590
17390W        W89116  19.029  13.603   0.828
17391W        W89117  44.239  21.122   3.225
17392W        W89118  22.210  40.313   3.845
17393W        W89119  44.859  23.494   3.222
17394W        W89120  38.395  14.828  12.605
17395W        W89121  32.433  29.802  11.927
17396W        W89122  23.110  24.978   2.841
17397W        W89123   8.056  12.444  13.614
17398W        W89124  23.660  24.491  12.463
17399W        W89125   1.343  12.915  12.961
17400W        W89126  11.743  26.633   4.113
17401W        W89127   8.388  17.603   0.009
17402W        W89128  17.032   5.924  13.469
17403W        W89129   1.250  17.859   1.285
17404W        W89130  34.096   0.212  13.078
17405W        W89131  42.897  28.126   0.398
17406W        W89132  14.724  13.549  12.493
17407W        W89133  19.728  11.076   0.189
17408W        W89134  13.389  25.188   0.459
17409W        W89135  32.737  27.981   4.192
17410W        W89136  23.136   5.227  13.322
17411W        W89137  14.370  28.913  13.848
17412W        W89138  24.057  23.197  13.406
17413W        W89139  34.028  35.053  11.327
17414W        W89140  38.376  40.240   0.812
17415W        W89141  38.952  18.342   4.217
17416W        W89142  29.912  39.362  13.945
17417W        W89143   9.271   4.956   0.984
17418W        W89144   0.769   2.510  13.544
17419W        W89145  31.497   6.500   3.801
17420W        W89146  41.819  31.093  13.867
17421W        W89147  11.095  16.954   4.839
17422W        W89148  32.556  40.611   0.928
17423W        W89149  14.377  41.825   4.205
17424W        W89150  18.015  42.235  14.860
17425W        W89151  23.095  30.975   3.172
17426W        W89152  24.691  15.379  11.182
17427W        W89153   4.475   4.350  10.514
17428W        W89154  34.040  30.636  12.063
17429W        W89155   1.910  43.305  11.507
17430W        W89156  35.419  10.902   4.186
17431W        W89157   9.397  11.880  11.071
17432W        W89158  13.637  28.516  11.438
17433W        W89159  24.071  25.333   4.120
17434W        W89160   1.779  17.315   4.603
17435W        W89161   8.896  22.125  11.113
17436W        W89162  30.424  11.844   3.182
17437W        W89163  22.142  40.534  13.656
17438W        W89164  43.175  29.900  11.887
17439W        W89165   3.230   3.220  10.421
17440W        W89166  10.635  21.340  14.403
17441W        W89167  42.277  32.371   3.635
17442W        W89168   0.733  11.257   4.733
17443W        W89169  42.665  20.644   3.183
17444W        W89170  10.119  17.382   3.235
17445W        W89171  28.680  38.946   2.601
17446W        W89172  27.511  41.974   3.408
17447W        W89173  42.061   3.475   5.059
17448W        W89174   5.959  12.876   4.628
17449W        W89175   3.809  20.665   1.512
17450W        W89176  14.030  36.013  14.416
17451W        W89177  11.227   6.833   4.325
17452W        W89178  21.581  44.740  14.976
17453W        W89179  35.217  15.611   2.657
17454W        W89180  13.249  25.396   4.133
17455W        W89181  34.040   4.418   4.089
17456W        W89182  24.821  10.906  13.901
17457W        W89183  13.262  34.914  14.440
17458W        W89184  23.221  15.209   5.001
17459W        W89185   3.126  37.564   0.380
17460W        W89186  17.443   6.879   3.423
17461W        W89187  15.374  31.702   2.179
17462W        W89188  18.153  25.636   2.140
17463W        W89189  11.357   9.917   4.156
17464W        W89190   1.899  28.156   0.595
17465W        W89191  20.013  14.231   3.938
17466W        W89192  20.974  15.898   3.863
17467W        W89193  19.496  41.071  12.082
17468W        W89194  21.531  20.785  10.381
17469W        W89195  22.130  14.694  12.863
17470W        W89196   2.962  24.015  13.416
17471W        W89197  15.147  21.983  13.146
17472W        W89198  30.160   2.686   4.242
17473W        W89199  30.610  30.048   3.873
17474W        W89200  42.465   1.434  14.525
17475W        W89201  38.015  36.394  11.151
17476W        W89202  25.858  20.110  12.343
17477W        W89203  38.435  30.085  11.222
17478W        W89204  36.448  38.152  14.367
17479W        W89205  18.835   2.339  11.114
17480W        W89206  32.238   4.283   1.043
17481W        W89207  13.607  16.589   2.816
17482W        W89208  31.894  29.734  11.158
17483W        W89209  43.005  34.789   0.691
17484W        W89210   2.590   3.677   3.733
17485W        W89211  40.006   3.281   1.015
17486W        W89212  16.978  10.113   1.665
17487W        W89213  29.968  35.520   4.206
17488W        W89214  21.091  28.460   4.194
17489W        W89215  40.518  41.497  10.684
17490W        W89216  27.689   6.266   1.721
17491W        W89217   2.050  31.125  14.797
17492W        W89218  22.189  29.980   3.817
17493W        W89219  22.536  10.544   5.076
17494W        W89220  10.165  36.430   2.223
17495W        W89221  40.726  37.084  11.412
17496W        W89222  44.103   5.357   4.881
17497W        W89223  18.780   7.939  11.014
17498W        W89224  34.440  18.154   4.213
17499W        W89225  20.312  31.455   0.507
17500W        W89226  32.619  23.678   0.467
17501W        W89227   1.714  30.930   1.323
17502W        W89228  35.015  23.022  10.700
17503W        W89229  32.968  11.574  14.410
17504W        W89230   0.011  12.175   1.473
17505W        W89231   8.000  26.651   3.687
17506W        W89232  18.720  19.251  11.915
17507W        W89233  10.914  28.168  14.510
17508W        W89234  41.070  31.515   0.947
17509W        W89235  16.622  40.572   2.180
17510W        W89236  30.457  21.999   2.599
17511W        W89237   4.220   6.652  14.274
17512W        W89238  20.465  13.345  14.312
17513W        W89239  37.533   0.305  12.607
17514W        W89240  19.321  11.298   0.992
17515W        W89241  27.097  24.065  13.451
17516W        W89242  26.814  12.646  12.136
17517W        W89243  14.242  43.839  13.886
17518W        W89244  29.410  22.536   1.173
17519W        W89245  26.119  14.244  10.699
17520W        W89246  20.102  38.743  14.481
17521W        W89247  20.203   4.933  11.164
17522W        W89248   8.562  14.051  11.995
17523W        W89249  32.831  20.442  12.176
17524W        W89250   2.873   0.397  14.505
17525W        W89251  14.799  29.617   4.609
17526W        W89252  23.601  41.531  11.007
17527W        W89253  42.856   0.392   3.309
17528W        W89254   1.053   5.756   0.206
17529W        W89255   2.267   9.110   0.703
17530W        W89256  22.533  23.837  10.491
17531W        W89257   6.943  17.135  14.507
17532W        W89258  42.950  20.283   0.244
17533W        W89259   3.408  29.808   4.611
17534W        W89260  10.049   3.460  10.726
17535W        W89261   9.178  35.668   2.768
17536W        W89262  21.207  28.885  13.028
17537W        W89263  44.523   5.831  13.946
17538W        W89264  16.099   0.025   1.307
17539W        W89265  17.153  35.352   2.708
17540W        W89266   4.814  23.263  11.153
17541W        W89267  22.882  30.157   3.405
17542W        W89268  18.416  30.440  14.383
17543W        W89269  35.696   1.330   2.847
17544W        W89270  14.339  33.519   2.125
17545W        W89271   8.186  17.762   1.403
17546W        W89272  41.074  42.359  11.043
17547W        W89273  40.702  35.871   4.319
17548W        W89274  21.479   8.170   0.811
17549W        W89275  13.873  42.936   0.299
17550W        W89276   8.960  42.915   1.474
17551W        W89277   5.798   1.341  13.932
17552W        W89278  20.703  15.205  13.843
17553W        W89279  35.622  27.645  13.150
17554W        W89280  44.762  12.830   0.027
17555W        W89281  22.637  22.820   4.884
17556W        W89282  26.401  18.227   3.755
17557W        W89283  28.014  18.183   2.777
17558W        W89284  19.124  27.672   4.318
17559W        W89285   1.483  25.155  12.400
17560W        W89286   3.032  40.976  13.983
17561W        W89287  28.940  28.862  13.341
17562W        W89288  22.459  12.133   3.719
17563W        W89289  29.259  41.315   0.747
17564W        W89290  23.554  25.432  10.575
17565W        W89291  32.055  11.782  11.080
17566W        W89292  11.568  29.471  13.428
17567W        W89293  42.332  25.527  14.027
17568W        W89294  14.116  43.959   4.170
17569W        W89295   3.326   1.816  13.822
17570W        W89296  27.419  22.988  13.927
17571W        W89297  42.758  43.885   1.316
17572W        W89298  39.571   4.952   1.198
17573W        W89299  44.299  21.519   4.634
17574W        W89300  23.150  26.195  11.141
17575W        W89301   2.269  20.610  14.815
17576W        W89302   4.104  41.703  10.457
17577W        W89303  34.321   6.361  11.605
17578W        W89304   5.516  25.041   0.753
17579W        W89305  41.861  39.294   1.956
17580W        W89306  36.396   9.820  11.619
17581W        W89307  21.791  41.451   5.027
17582W        W89308  35.323  15.631   4.062
17583W        W89309   3.863  12.383   0.891
17584W        W89310   4.748  12.461  10.598
17585W        W89311  22.895   1.545  10.364
17586W        W89312  20.637   0.974  11.689
17587W        W89313  31.368  32.694   1.640
17588W        W89314  23.107  20.753   2.166
17589W        W89315  27.035  25.527   4.348
17590W        W89316  17.512  17.185   3.271
17591W        W89317   6.418  13.931   1.081
17592W        W89318  21.669  17.814  14.158
17593W        W89319  24.098  34.070   3.355
17594W        W89320  30.175  39.554  14.911
17595W        W89321  27.073  33.836  11.668
17596W        W89322  19.274  25.625  14.959
17597W        W89323  15.327  33.310   2.802
17598W        W89324  15.018  11.768  14.785
17599W        W89325  12.260  33.950   2.663
17600W        W89326  34.308  28.625   1.485
17601W        W89327  44.876  42.330  14.030
17602W        W89328  35.994  30.660  11.647
17603W        W89329  35.762   6.242  12.632
17604W        W89330  14.403  19.052  10.659
17605W        W89331  40.284  12.688   4.571
17606W        W89332  25.615  21.537  14.899
17607W        W89333   7.414  43.834  10.653
17608W        W89334  10.688  30.878   0.914
17609W        W89335   7.456  11.156   4.144
17610W        W89336  29.967  43.289   3.298
17611W        W89337   3.257  14.545  11.354
17612W        W89338  16.756  20.339  11.044
17613W        W89339   2.907   2.997   4.460
17614W        W89340  22.641  19.571   0.483
17615W        W89341  15.537  35.872  11.149
17616W        W89342  18.520  31.616  14.099
17617W        W89343  15.026  29.141   2.933
17618W        W89344  27.361  39.774   3.611
17619W        W89345  27.604  21.621   0.501
17620W        W89346   1.873  41.919   4.534
17621W        W89347  32.584  13.257   2.225
17622W        W89348  34.430  21.293   0.878
17623W        W89349  10.722   6.359   3.131
17624W        W89350  12.122  32.486   1.345
17625W        W89351  41.103  42.305  11.958
17626W        W89352  20.342  33.796   4.814
17627W        W89353  42.994  32.992   0.860
17628W        W89354  18.785   2.204   0.318
17629W        W89355  43.216  40.886  12.052
17630W        W89356  22.822  29.405   3.541
17631W        W89357  13.860  16.775   2.385
17632W        W89358  14.212  14.456   4.089
17633W        W89359  33.668   8.621  11.179
17634W        W89360  38.651  22.636   1.778
17635W        W89361  38.393  13.559  10.634
17636W        W89362  25.396  43.539   1.274
17637W        W89363  34.487   4.937   4.625
17638W        W89364   2.823  44.283   4.563
17639W        W89365  19.042  12.630   3.536
17640W        W89366  41.048  14.852   3.696
17641W        W89367  12.514  21.637   3.262
17642W        W89368  32.129  29.257   1.815
17643W        W89369  43.774  20.047   1.293
17644W        W89370   4.458  41.437   3.827
17645W        W89371  43.338  21.889   1.975
17646W        W89372  33.424  32.375   4.131
17647W        W89373   3.425   1.007  11.265
17648W        W89374  12.895  41.077   0.381
17649W        W89375   5.038  18.543  14.214
17650W        W89376   3.195  24.506  13.302
17651W        W89377  40.647   6.225  11.671
17652W        W89378  26.695   5.872  13.420
17653W        W89379  25.062  23.144   1.170
17654W        W89380  35.521   9.165  14.361
17655W        W89381  22.253  25.575  11.665
17656W        W89382  32.814   2.410   4.561
17657W        W89383  35.468  34.553  13.102
17658W        W89384  34.325  36.183  11.132
17659W        W89385  13.210  15.704   1.882
17660W        W89386   0.908  28.128  13.924
17661W        W89387   2.931  24.263   1.904
17662W        W89388  33.340   3.862  11.161
17663W        W89389  14.870  30.008   2.638
17664W        W89390  20.828  12.259   0.993
17665W        W89391  10.724  14.617  13.837
17666W        W89392  22.621   3.505  10.280
17667W        W89393   7.681   1.312  13.417
17668W        W89394  28.139  36.949   2.647
17669W        W89395  30.900   5.958   0.314
17670W        W89396  35.388  44.325   2.079
17671W        W89397   7.856  35.057   2.260
17672W        W89398  36.646  30.863  11.056
17673W        W89399  22.225   4.232   2.219
17674W        W89400   7.903  15.876   1.342
17675W        W89401  17.744  33.649   1.163
17676W        W89402  34.663  29.021  11.147
17677W        W89403  22.162  24.674   3.373
17678W        W89404  15.072   6.040   3.496
17679W        W89405  26.183  41.276   1.364
17680W        W89406  41.082  24.258   4.144
17681W        W89407  15.613  17.360   4.364
17682W        W89408   2.760   4.243  11.198
17683W        W89409  25.209  35.903   4.849
17684W        W89410  40.800  11.251   0.906
17685W        W89411  21.847  37.522   3.163
17686W        W89412  23.588  30.634   0.447
17687W        W89413  40.920  26.739  11.154
17688W        W89414  37.491  31.677  14.458
17689W        W89415  16.212  24.963  14.319
17690W        W89416  26.712  39.970   1.776
17691W        W89417  22.939  24.648   5.039
17692W        W89418   1.520  29.033   4.843
17693W        W89419  31.070  14.733   2.679
17694W        W89420  23.793  40.343   0.350
17695W        W89421   5.129  35.953  12.613
17696W        W89422  24.225  18.593   3.577
17697W        W89423   6.448  11.782   3.871
17698W        W89424   3.148  20.532   4.753
17699W        W89425   0.848  26.601  13.042
17700W        W89426  41.758   7.018   1.219
17701W        W89427  25.536   7.990   4.626
17702W        W89428  28.977  39.674   0.146
17703W        W89429   8.458  16.222   2.348
17704W        W89430  34.963  29.372   5.161
17705W        W89431   0.483  26.983  12.960
17706W        W89432  43.280  26.698  14.677
17707W        W89433  14.095  20.096  14.064
17708W        W89434  27.115  42.187   2.789
17709W        W89435  22.776   9.638  11.096
17710W        W89436  27.419  42.141   1.836
17711W        W89437   4.493  14.305   3.035
17712W        W89438  11.412   0.802  14.498
17713W        W89439  19.631   8.684   4.598
17714W        W89440   4.757  22.706   0.898
17715W        W89441  26.932  34.410   3.544
17716W        W89442   5.250  14.363  13.745
17717W        W89443  30.042  28.942   3.305
17718W        W89444  21.969  11.988   4.456
17719W        W89445  20.885  17.260   1.701
17720W        W89446  16.531  26.035  14.049
17721W        W89447  15.567  29.381  12.394
17722W        W89448  29.057  22.531  11.956
17723W        W89449  11.117  24.589   4.538
17724W        W89450  20.078  40.063  10.746
17725W        W89451   8.678   3.819   1.012
17726W        W89452  13.151   1.030  13.652
17727W        W89453  24.429   2.753  11.824
17728W        W89454   3.307  36.031   4.650
17729W        W89455   6.795  43.372  11.589
17730W        W89456  33.442  27.192  11.150
17731W        W89457  10.922   6.703  10.731
17732W        W89458  31.858  10.242  13.496
17733W        W89459  25.149  19.280   0.744
17734W        W89460  24.635  42.302  13.024
17735W        W89461  38.004  11.177   2.927
17736W        W89462  21.908  37.143  12.300
17737W        W89463  26.396  11.782  14.899
17738W        W89464  32.465  33.895  13.006
17739W        W89465  33.112   8.108  14.261
17740W        W89466  15.620  22.435   3.243
17741W        W89467  38.947   5.852   3.335
17742W        W89468  43.060   9.545   0.884
17743W        W89469   2.807  12.185  14.987
17744W        W89470  14.177  30.797   5.066
17745W        W89471  32.029  18.290   4.528
17746W        W89472  17.668  12.789  13.200
17747W        W89473  32.455   8.937   3.721
17748W        W89474  12.928  23.079  11.423
17749W        W89475  32.447  41.948  14.858
17750W        W89476  25.155  12.854   3.730
17751W        W89477   3.801  12.555  10.295
17752W        W89478  15.344  23.420   4.550
17753W        W89479  38.273  27.180  11.463
17754W        W89480  22.315  29.589  13.256
17755W        W89481  25.078   6.191   5.076
17756W        W89482   9.648  15.643   1.292
17757W        W89483  15.485   8.281   3.740
17758W        W89484  27.074   8.389   2.261
17759W        W89485  26.513  32.948  12.091
17760W        W89486  37.287  14.743  14.305
17761W        W89487  20.704   5.758  14.255
17762W        W89488  21.158  34.813   3.853
17763W        W89489  27.122  18.270   9.882
17764W        W89490  13.644  41.055   0.817
17765W        W89491   3.769  31.314  14.653
17766W        W89492  22.190   8.714   0.815
17767W        W89493   8.896  38.296  14.270
17768W        W89494  17.319  17.516   3.654
17769W        W89495  41.088  22.995   4.228
17770W        W89496  12.385   7.126  14.893
17771W        W89497   8.271  30.560   3.236
17772W        W89498  27.850  39.129   0.832
17773W        W89499   9.197  25.935  10.222
17774W        W89500  15.770  25.012  13.571
17775W        W89501  17.554  21.856   3.914
17776W        W89502  38.781  10.353   3.796
17777W        W89503   1.483  26.240   4.546
17778W        W89504  18.448  21.607  12.078
17779W        W89505  35.837  41.187  14.001
17780W        W89506  28.664  16.912   0.846
17781W        W89507   8.694  32.604  14.422
17782W        W89508  32.552  44.485   4.807
17783W        W89509  28.486  21.050   4.647
17784W        W89510  42.483  34.866  13.474
17785W        W89511  35.370   1.806   1.177
17786W        W89512  36.815  35.426  14.325
17787W        W89513  36.893  15.971  13.450
17788W        W89514   5.259  16.644   9.678
17789W        W89515  15.588  23.194  14.571
17790W        W89516  19.408  15.409  10.706
17791W        W89517  22.817  25.059   0.660
17792W        W89518  31.454   5.830  13.791
17793W        W89519  34.955   9.652  11.210
17794W        W89520  30.509  32.472   0.581
17795W        W89521  40.873  23.305  11.561
17796W        W89522  41.073  10.422  12.473
17797W        W89523  16.593  24.384  12.463
17798W        W89524  40.547  21.131  14.523
17799W        W89525  30.140   7.187   3.272
17800W        W89526  12.894  17.087   3.319
17801W        W89527  43.425  37.599   3.216
17802W        W89528   4.863   2.985   4.556
17803W        W89529  20.650   5.236  13.001
17804W        W89530  29.174  13.602  14.965
17805W        W89531  22.993  22.784  12.467
17806W        W89532  16.219  18.301  11.984
17807W        W89533  18.542   6.182   2.675
17808W        W89534  39.440  28.492   4.155
17809W        W89535  14.556  35.152  12.497
17810W        W89536  44.523  21.124   4.321
17811W        W89537  29.277  30.121  11.535
17812W        W89538  10.081  18.936   3.783
17813W        W89539   3.188   0.548  11.141
17814W        W89540  20.068   1.259   1.732
17815W        W89541  18.288   7.768  14.364
17816W        W89542  30.637  34.030   0.416
17817W        W89543  41.268  44.907  12.839
17818W        W89544   2.339  18.534   1.475
17819W        W89545  32.192   0.726   5.375
17820W        W89546   8.019   1.541   2.685
17821W        W89547  41.375  32.862  13.064
17822W        W89548  25.683   3.523   0.023
17823W        W89549  29.140   0.464  14.963
17824W        W89550  25.675  39.218   0.374
17825W        W89551  26.658  38.494  11.853
17826W        W89552   2.143   6.454   2.806
17827W        W89553  27.149  19.017   1.863
17828W        W89554   1.335  10.239  14.807
17829W        W89555  30.436  32.318   4.295
17830W        W89556  31.853  41.748   4.213
17831W        W89557  32.546   7.977  13.557
17832W        W89558   2.415  40.372  14.195
17833W        W89559  24.270  24.058  10.689
17834W        W89560  28.697  30.482  10.801
17835W        W89561   4.330  43.940   4.274
17836W        W89562  28.591   7.795  13.738
17837W        W89563  13.979  33.206   3.060
17838W        W89564   2.560  38.927   1.373
17839W        W89565  31.722  44.850  13.778
17840W        W89566   8.059  23.239  13.023
17841W        W89567  22.916  14.665   4.065
17842W        W89568  29.127   7.400   1.347
17843W        W89569  35.880  20.999  11.212
17844W        W89570  27.155  30.650  13.722
17845W        W89571  24.695  32.976   4.889
17846W        W89572  34.513  43.310   0.785
17847W        W89573  40.623  37.520  12.075
17848W        W89574   9.982   9.445  12.011
17849W        W89575  42.957  33.098   3.711
17850W        W89576  25.461  22.649  10.557
17851W        W89577  35.367  10.199  11.641
17852W        W89578   2.663  13.589  14.017
17853W        W89579  39.618  37.529  14.351
17854W        W89580  26.935  22.602  13.164
17855W        W89581  38.489  44.407   3.844
17856W        W89582  26.482  42.874   3.265
17857W        W89583  19.955   9.833  10.590
17858W        W89584  35.579  23.881   3.115
17859W        W89585   8.410  10.597   4.234
17860W        W89586  11.981  27.740  13.027
17861W        W89587  43.534  11.843   2.444
17862W        W89588  16.496  13.681   2.458
17863W        W89589  26.314  20.999   4.550
17864W        W89590  36.530  37.586  14.955
17865W        W89591  19.717  16.326   3.105
17866W        W89592  35.015  23.539   4.121
17867W        W89593  17.284   7.657   4.125
17868W        W89594   5.953   2.261   2.699
17869W        W89595  21.612   0.310  13.376
17870W        W89596   9.236  36.385  11.154
17871W        W89597   4.401  31.670   0.910
17872W        W89598  12.432  12.543  13.974
17873W        W89599  18.037  37.856  14.136
17874W        W89600  38.549   9.307  12.529
17875W        W89601  31.261  23.135   2.396
17876W        W89602  27.023   7.402  13.801
17877W        W89603   6.148  34.875  10.293
17878W        W89604  43.706   5.345   1.499
17879W        W89605  22.621   9.514  13.831
17880W        W89606   2.277  43.801  14.962
17881W        W89607  37.418  37.402  11.425
17882W        W89608  28.236  15.985   3.873
17883W        W89609  27.710  17.780  11.960
17884W        W89610  23.733  24.959  10.527
17885W        W89611  36.070   7.826   0.077
17886W        W89612  42.742  14.543   1.312
17887W        W89613  29.241   4.529  12.982
17888W        W89614  42.593  42.266   3.421
17889W        W89615  37.410  10.348   2.356
17890W        W89616  40.916  35.557  14.341
17891W        W89617  38.792  27.549   1.676
17892W        W89618  33.656  15.241   2.293
17893W        W89619  15.622  36.872   3.007
17894W        W89620   4.664  20.568   1.405
17895W        W89621  29.233  41.277   4.020
17896W        W89622  35.492  23.256   1.920
17897W        W89623  19.444  17.226   3.635
17898W        W89624  24.001  27.257  14.334
17899W        W89625   0.361   7.706   1.081
17900W        W89626  27.419  40.936  10.613
17901W        W89627  33.857  43.806  12.940
17902W        W89628  28.606  35.813   0.103
17903W        W89629   9.765  21.510   3.298
17904W        W89630  11.271  36.625  14.057
17905W        W89631  23.994  21.128   2.395
17906W        W89632  10.610  18.712   1.631
17907W        W89633  41.987  15.223   3.598
17908W        W89634  33.425  36.967  14.324
17909W        W89635   5.325  27.127   1.175
17910W        W89636   8.087  19.520   2.492
17911W        W89637   5.757   0.029  14.356
17912W        W89638  15.249  37.219  12.465
17913W        W89639  27.562   9.114   1.363
17914W        W89640  10.247  26.620  12.087
17915W        W89641  28.467  26.188   2.431
17916W        W89642  20.559  44.799  12.540
17917W        W89643  30.141  35.564  13.796
17918W        W89644  29.823   2.928  12.996
17919W        W89645   3.722  41.003   0.680
17920W        W89646  12.187  26.066   2.723
17921W        W89647  30.992   2.289   4.491
17922W        W89648  33.081  23.219   4.345
17923W        W89649  43.837  26.633   5.070
17924W        W89650  14.105   7.425  14.381
17925W        W89651  40.468  40.422  10.789
17926W        W89652  11.171  13.203  11.185
17927W        W89653  32.010  34.001   2.739
17928W        W89654  24.449  15.655   2.756
17929W        W89655  33.897  25.878   1.304
17930W        W89656  12.904  39.450   2.730
17931W        W89657  18.735  10.694  12.882
17932W        W89658  27.906  10.514   5.096
17933W        W89659  20.120  33.855   1.924
17934W        W89660  10.320  43.411   4.600
17935W        W89661  44.764   2.030  14.315
17936W        W89662  19.024  30.654   4.286
17937W        W89663  21.027  10.377  11.627
17938W        W89664  28.900  21.113   1.031
17939W        W89665   6.347   1.544   0.321
17940W        W89666  28.171  27.998  14.474
17941W        W89667  36.052  37.272  14.990
17942W        W89668  44.745  25.463   0.934
17943W        W89669  28.544   9.389   2.485
17944W        W89670   9.825   7.594  13.435
17945W        W89671  22.474  40.046  14.908
17946W        W89672   9.644  12.689  14.211
17947W        W89673  19.706  25.418  11.568
17948W        W89674  35.634  34.889   0.762
17949W        W89675  29.936  27.547   3.445
17950W        W89676  34.394  15.208   2.838
17951W        W89677  10.231  21.021  10.004
17952W        W89678  32.082  19.487   0.798
17953W        W89679  12.086  42.931   3.771
17954W        W89680  22.974   7.163   3.744
17955W        W89681  22.878  15.468  11.967
17956W        W89682  20.067  34.914   1.895
17957W        W89683  37.881   6.360   1.802
17958W        W89684  16.165   8.467   0.910
17959W        W89685  12.869  38.746   3.984
17960W        W89686  24.516   2.185  14.908
17961W        W89687  42.265  32.949   0.803
17962W        W89688  17.579  38.523   3.677
17963W        W89689  25.779   2.484  12.097
17964W        W89690  30.234  38.019  12.533
17965W        W89691  13.722   2.218   4.077
17966W        W89692  21.933  34.877  14.117
17967W        W89693  43.995  27.040   2.720
17968W        W89694  20.795  41.575  11.772
17969W        W89695  36.294   9.645   1.739
17970W        W89696  22.341  35.301  14.833
17971W        W89697  10.160  18.929  11.161
17972W        W89698  43.890  24.608   2.083
17973W        W89699  11.166   3.357   2.229
17974W        W89700   3.250  13.435  14.211
17975W        W89701  29.283  19.755  11.508
17976W        W89702  40.452  13.355   3.371
17977W        W89703  33.402  11.295   1.766
17978W        W89704  19.770   0.731  13.914
17979W        W89705  43.812  23.095  12.167
17980W        W89706   3.215  22.169  10.750
17981W        W89707  28.110  35.937  13.302
17982W        W89708  36.095  30.136  12.345
17983W        W89709  39.288  31.896   4.114
17984W        W89710  15.726   4.963   5.158
17985W        W89711  28.344  32.047  10.712
17986W        W89712  25.411  22.208  14.958
17987W        W89713  21.153  17.676   1.917
17988W        W89714   3.413   2.235   2.760
17989W        W89715   8.729  37.792  12.333
17990W        W89716  40.428   8.860  14.554
17991W        W89717  24.373   7.378   1.752
17992W        W89718  12.713  41.914   0.075
17993W        W89719   6.532  39.352  12.074
17994W        W89720  18.360  37.855  13.286
17995W        W89721   0.873  16.840   2.007
17996W        W89722   5.110  42.053  13.586
17997W        W89723  12.275  10.682  13.299
17998W        W89724   0.881   5.327  12.401
17999W        W89725   2.730  18.170   1.491
18000W        W89726  18.073  19.591   2.770
18001W        W89727  34.375  11.128   2.570
18002W        W89728   3.808  13.430   0.253
18003W        W89729   0.589   6.457   0.970
18004W        W89730  12.615   1.761   1.790
18005W        W89731  26.667  16.582   3.040
18006W        W89732  39.798  27.492   3.824
18007W        W89733   7.894   0.519  10.690
18008W        W89734   3.286   7.696   4.072
18009W        W89735  38.868  37.106   4.465
18010W        W89736   6.206  20.915   1.940
18011W        W89737  31.578  10.256  13.966
18012W        W89738  42.023  27.381  14.868
18013W        W89739  12.741  33.179   2.719
18014W        W89740   5.424  42.094   1.263
18015W        W89741  27.218  27.110   2.266
18016W        W89742  41.491  27.972   3.313
18017W        W89743  31.303  30.112   2.180
18018W        W89744  24.999   2.296   2.271
18019W        W89745  15.001  43.001   3.669
18020W        W89746  31.878  20.191  12.886
18021W        W89747   6.077  37.111  12.464
18022W        W89748  15.047  16.458   3.707
18023W        W89749  26.881  15.865  10.306
18024W        W89750  18.139  16.741   1.731
18025W        W89751  34.896  24.538   3.937
18026W        W89752   4.693  37.483   0.707
18027W        W89753  17.607   3.199  12.564
18028W        W89754  34.798  22.536  13.025
18029W        W89755  29.536  27.169  11.387
18030W        W89756  28.170  36.428   1.305
18031W        W89757  22.752  14.740   0.930
18032W        W89758  26.389   8.227   2.711
18033W        W89759  36.579  23.593   0.320
18034W        W89760  25.763  39.776  10.918
18035W        W89761  14.790  16.335   2.186
18036W        W89762  34.374  26.543   4.695
18037W        W89763  38.048  28.130  12.357
18038W        W89764  38.447  25.823   4.668
18039W        W89765  18.761   5.376  13.293
18040W        W89766  40.530  15.822   0.758
18041W        W89767  27.651  32.391  12.351
18042W        W89768   9.912  16.076   1.419
18043W        W89769  28.687   8.787  10.978
18044W        W89770   9.984  10.872  12.135
18045W        W89771  44.043  26.102   3.792
18046W        W89772  38.838  21.173   0.028
18047W        W89773  18.441   3.397   3.701
18048W        W89774  41.989  36.971   2.829
18049W        W89775  30.674  15.792  11.713
18050W        W89776  42.525  31.840   2.780
18051W        W89777  14.448  13.309   2.255
18052W        W89778   4.967  31.347  14.271
18053W        W89779   3.520  12.110   2.188
18054W        W89780   4.893   5.684   3.174
18055W        W89781  26.426  15.259  12.010
18056W        W89782  39.849  32.588   1.322
18057W        W89783  36.053  29.446  13.960
18058W        W89784  39.880  26.478  12.894
18059W        W89785   1.434  17.148  13.136
18060W        W89786  37.632  34.669   2.375
18061W        W89787  10.569  27.867   9.617
18062W        W89788   0.998  28.469   0.906
18063W        W89789  16.194  32.546   4.084
18064W        W89790   0.373  37.481   4.381
18065W        W89791  29.528  14.564   3.772
18066W        W89792   8.687  23.367   0.225
18067W        W89793  24.266  19.022  11.312
18068W        W89794  44.469  36.621  11.845
18069W        W89795   1.189  36.848  12.421
18070W        W89796  10.876  42.427  12.735
18071W        W89797  10.636  19.769  10.788
18072W        W89798  29.219  32.527  10.748
18073W        W89799  18.579  14.197  13.924
18074W        W89800  36.348  32.059  10.310
18075W        W89801  20.683  33.783  11.089
18076W        W89802  42.895  17.733   1.989
18077W        W89803  20.222   9.750   3.281
18078W        W89804   6.451  32.482  11.525
18079W        W89805   4.672  13.350  12.279
18080W        W89806  13.266  10.822   3.742
18081W        W89807  27.486  43.560  14.866
18082W        W89808   4.718   6.590  12.776
18083W        W89809  43.534  13.559   3.658
18084W        W89810   2.359   1.731   0.086
18085W        W89811   8.574   1.472  12.295
18086W        W89812   8.165  44.733  12.526
18087W        W89813   4.806  30.623   3.413
18088W        W89814  10.975   3.306   0.807
18089W        W89815  23.438   5.843  14.965
18090W        W89816   1.876  31.858   4.564
18091W        W89817   7.586   0.032   0.701
18092W        W89818  14.151  32.962  10.464
18093W        W89819  15.859  13.096   2.277
18094W        W89820  23.488  40.062   3.512
18095W        W89821  38.057  26.113  11.143
18096W        W89822   2.142  18.553  12.107
18097W        W89823  15.173   6.056  13.916
18098W        W89824  19.436  32.557   0.543
18099W        W89825  35.811  42.518  14.841
18100W        W89826  29.480  31.633  12.632
18101W        W89827  40.365  42.038  11.515
18102W        W89828  44.778  33.520  12.047
18103W        W89829   5.758   3.461   4.675
18104W        W89830   3.906  32.132  11.193
18105W        W89831  11.878  44.862   0.311
18106W        W89832  26.539   5.697   0.605
18107W        W89833  26.825  26.363  12.021
18108W        W89834  18.110  32.397   3.642
18109W        W89835   8.558   7.253  14.092
18110W        W89836   8.736   8.180  12.393
18111W        W89837  24.012  26.793  14.916
18112W        W89838  34.295  42.922   9.554
18113W        W89839  35.755  42.668   3.623
18114W        W89840  37.094   7.858  14.986
18115W        W89841  25.211  39.271   3.202
18116W        W89842  42.963   2.008  12.026
18117W        W89843   5.472  38.774  14.302
18118W        W89844  25.209  28.519  13.809
18119W        W89845  36.917  23.994   0.918
18120W        W89846  42.156  41.496   2.437
18121W        W89847  39.653  12.761   1.458
18122W        W89848  22.541  26.149  12.349
18123W        W89849  25.812   6.134  14.024
18124W        W89850  26.165  20.809   3.082
18125W        W89851   5.576   4.914  14.426
18126W        W89852   5.069  38.507   0.514
18127W        W89853  19.474  17.567  13.346
18128W        W89854   8.380  42.814   4.067
18129W        W89855  22.160  33.623  10.857
18130W        W89856  17.046   9.788  11.028
18131W        W89857  11.429  34.835  11.460
18132W        W89858   8.435  12.040   2.558
18133W        W89859  21.826   0.957  11.179
18134W        W89860  21.752   0.419   3.858
18135W        W89861  37.986  34.550   0.341
18136W        W89862   3.248  36.448  14.579
18137W        W89863  31.983   2.858   1.704
18138W        W89864   0.219  44.733  11.936
18139W        W89865  23.458  16.697  11.101
18140W        W89866  25.989   6.759  12.609
18141W        W89867  42.861  11.410   1.360
18142W        W89868  43.444   1.202  13.540
18143W        W89869  21.718   3.551  12.383
18144W        W89870  27.430  31.611   3.630
18145W        W89871  12.318  17.641   4.238
18146W        W89872  19.718  32.346   1.850
18147W        W89873  15.225  19.282   3.884
18148W        W89874  36.484  28.806  11.564
18149W        W89875  25.023   2.909  13.887
18150W        W89876  44.813  22.832   1.257
18151W        W89877  22.943   9.245   0.730
18152W        W89878  22.011   7.329   0.006
18153W        W89879   8.171  27.021  14.851
18154W        W89880  35.617  15.231  13.492
18155W        W89881  40.219  44.290  10.764
18156W        W89882  15.733  21.216   5.041
18157W        W89883   2.888  19.997  12.055
18158W        W89884  18.010  16.604   2.614
18159W        W89885  39.936  29.158   1.321
18160W        W89886  44.363   9.976  12.429
18161W        W89887  32.416  32.033   2.196
18162W        W89888  41.429  27.484   4.853
18163W        W89889  39.420  37.898  11.498
18164W        W89890  21.091  38.065  10.993
18165W        W89891  33.278  41.048   3.251
18166W        W89892   7.720  29.886  10.217
18167W        W89893  37.605  28.045   1.321
18168W        W89894  18.475  13.345   1.310
18169W        W89895  17.813  38.761   0.344
18170W        W89896   6.237  33.531  13.156
18171W        W89897  15.862   8.854   2.748
18172W        W89898  13.605  25.644   0.284
18173W        W89899  42.845  19.202   0.324
18174W        W89900  44.451  35.513  12.354
18175W        W89901   0.257  29.509  12.602
18176W        W89902  35.577  13.542   3.258
18177W        W89903  25.010  37.375  13.937
18178W        W89904  36.877  17.315  14.202
18179W        W89905   3.209  26.556  11.568
18180W        W89906  22.186  34.087   1.394
18181W        W89907  36.754  34.573  13.475
18182W        W89908  13.746  34.342  12.908
18183W        W89909  14.615  30.789  13.054
18184W        W89910  17.379   5.691   3.317
18185W        W89911  39.264  22.509   4.103
18186W        W89912   2.818  22.310   3.285
18187W        W89913  27.371  28.920  13.256
18188W        W89914   5.399  12.053   4.553
18189W        W89915   7.664  29.421   4.263
18190W        W89916  20.961  40.732  12.855
18191W        W89917  23.148   7.427  14.334
18192W        W89918  15.723  12.613   3.158
18193W        W89919  23.882  43.680   2.687
18194W        W89920  39.003  30.403  12.946
18195W        W89921  12.669  28.678   0.322
18196W        W89922  24.011  31.383   0.738
18197W        W89923  24.141  15.194   1.646
18198W        W89924  43.762  23.040   2.713
18199W        W89925  25.458   6.316   1.340
18200W        W89926  11.798  15.804   3.797
18201W        W89927  19.163  23.560   0.851
18202W        W89928  19.257   3.788  14.213
18203W        W89929  11.715  35.026   5.008
18204W        W89930  32.128  28.957   4.311
18205W        W89931  34.511   1.990  11.446
18206W        W89932  38.717  23.740  14.061
18207W        W89933  43.950  38.465   3.975
18208W        W89934  27.684  13.687   4.125
18209W        W89935  38.463  24.111   0.976
18210W        W89936  43.884  30.650  13.300
18211W        W89937  25.125  19.701   4.561
18212W        W89938  25.363  19.112   2.560
18213W        W89939  29.190  36.067   2.779
18214W        W89940  31.887   9.115   2.732
18215W        W89941   3.497  18.677   2.592
18216W        W89942   3.391  41.011   4.116
18217W        W89943  24.954   6.040  14.731
18218W        W89944  22.745  11.385  13.433
18219W        W89945  41.247  11.843   2.530
18220W        W89946  42.060   2.277  12.084
18221W        W89947   6.431  13.611  13.875
18222W        W89948   6.711  44.431   0.589
18223W        W89949  41.002  13.350   1.532
18224W        W89950  18.088   0.295  13.193
18225W        W89951  35.544  21.461  12.029
18226W        W89952  17.286   0.241  14.801
18227W        W89953  30.713  31.861   4.056
18228W        W89954  24.886   1.743   1.799
18229W        W89955  38.373  27.478  12.941
18230W        W89956  21.937   9.183   3.666
18231W        W89957  43.969  37.790  11.167
18232W        W89958   1.440  38.375   3.596
18233W        W89959  34.350  11.095  13.949
18234W        W89960   1.498  40.859  12.723
18235W        W89961  36.771  14.771  11.975
18236W        W89962  14.840  10.808   0.494
18237W        W89963  33.676  19.185   4.535
18238W        W89964  17.222  36.897  10.609
18239W        W89965  25.691  40.981   2.601
18240W        W89966  40.911  44.807  12.474
18241W        W89967  38.988   6.167   2.312
18242W        W89968  16.677  35.630  12.019
18243W        W89969  24.975  43.290  12.974
18244W        W89970  31.841  10.602   4.814
18245W        W89971  29.010   7.697   0.889
18246W        W89972   3.629  27.406  10.650
18247W        W89973  20.091  29.012   3.270
18248W        W89974  18.016  11.179   3.377
18249W        W89975   2.854  42.099  12.923
18250W        W89976  44.040  42.305  10.655
18251W        W89977   6.110  11.167   1.222
18252W        W89978  14.516   6.735   3.960
18253W        W89979  27.569  38.072   2.909
18254W        W89980  21.293  22.787   1.778
18255W        W89981  30.533  14.913  11.417
18256W        W89982   6.243  13.515  11.598
18257W        W89983   8.651  38.486   2.865
18258W        W89984   9.222   8.140   1.318
18259W        W89985  23.780  36.105   4.438
18260W        W89986  30.317   4.329  14.957
18261W        W89987  30.803  31.141   1.848
18262W        W89988  33.726  25.991  13.353
18263W        W89989   3.924  12.108   1.676
18264W        W89990  18.995  43.557  14.450
18265W        W89991  28.937  16.797  14.329
18266W        W89992   8.487  38.488   4.902
18267W        W89993  19.676  11.545  14.985
18268W        W89994  27.528  33.436  12.406
18269W        W89995   4.825  17.137  10.214
18270W        W89996  44.967  17.258  13.176
18271W        W89997  24.671  17.630   2.710
18272W        W89998  32.639  20.811  13.797
18273W        W89999  21.098  43.044   0.369
18274W        W90000  31.541  19.610   1.536
18275W        W90001   3.327   2.404  12.982
18276W        W90002   9.685  31.028  14.469
18277W        W90003  37.856  43.426   2.268
18278W        W90004   2.993  20.948  12.452
18279W        W90005  23.446   0.368  11.098
18280W        W90006   0.079   4.495  11.206
18281W        W90007   9.222  18.720   1.460
18282W        W90008   0.512  18.504  13.962
18283W        W90009  18.274  29.567   1.418
18284W        W90010  13.743  37.942  14.270
18285W        W90011  26.999  27.647  13.138
18286W        W90012   5.853  31.873   3.895
18287W        W90013   5.713   6.301   2.395
18288W        W90014  39.207   4.913  11.079
18289W        W90015  39.378   7.086   3.298
18290W        W90016  25.034  28.075   0.198
18291W        W90017  15.111  33.471  13.450
18292W        W90018  25.220  20.678  11.110
18293W        W90019  18.485  20.014   0.314
18294W        W90020   9.975  19.980  11.698
18295W        W90021  44.898  20.814   4.514
18296W        W90022  23.623  25.754  10.968
18297W        W90023  26.183   0.215  13.510
18298W        W90024  27.824  29.027   2.801
18299W        W90025   3.956  44.362  11.318
18300W        W90026  23.579  29.302  13.667
18301W        W90027  38.557  28.440   1.801
18302W        W90028   6.773  22.502   1.431
18303W        W90029  29.129   8.122  10.688
18304W        W90030  25.019  30.313   3.368
18305W        W90031  41.206  13.278  14.840
18306W        W90032  43.605  14.140   2.329
18307W        W90033   7.368   4.335   1.696
18308W        W90034  36.565  32.060   2.728
18309W        W90035   5.241  27.390   4.496
18310W        W90036  15.291  41.021   1.658
18311W        W90037   3.488   7.663  12.067
18312W        W90038  14.251   8.122   3.290
18313W        W90039   1.322   7.296  11.586
18314W        W90040  38.592  44.735   4.251
18315W        W90041  43.207  22.629   0.413
18316W        W90042  20.090  16.963   2.620
18317W        W90043  27.967  34.878  11.462
18318W        W90044  44.567  42.598  11.276
18319W        W90045  15.312  44.650   0.483
18320W        W90046  28.214  17.182   0.811
18321W        W90047  33.486  40.690   4.749
18322W        W90048  31.949  42.264   1.003
18323W        W90049  33.453  34.905   1.770
18324W        W90050   4.829  44.771  10.811
18325W        W90051   3.009   3.928   4.629
18326W        W90052  13.113  18.057   4.269
18327W        W90053  29.414   1.831   3.124
18328W        W90054  16.615  31.455   0.418
18329W        W90055  14.015   5.237   4.182
18330W        W90056  34.845  37.948   1.346
18331W        W90057  24.018  13.263  12.354
18332W        W90058  41.048  17.129  14.418
18333W        W90059  42.984  33.983  14.007
18334W        W90060  18.725  31.399   0.056
18335W        W90061  33.906  37.867  10.964
18336W        W90062  28.554   4.989   3.150
18337W        W90063  13.135   1.841   1.730
18338W        W90064  13.683   3.808  11.165
18339W        W90065  34.871  14.203  14.235
18340W        W90066  17.263  12.288  14.742
18341W        W90067   0.864  38.615  14.023
18342W        W90068   0.172  16.820  13.847
18343W        W90069  37.866  42.944  13.538
18344W        W90070  15.797  27.852   1.510
18345W        W90071  44.179   4.765  14.328
18346W        W90072  14.841  16.533   0.463
18347W        W90073  42.321  14.678   2.522
18348W        W90074  27.427  14.101   2.654
18349W        W90075  41.493  26.178   4.152
18350W        W90076  18.762   9.243  14.933
18351W        W90077  42.082  26.886  11.941
18352W        W90078  41.614  11.624  14.399
18353W        W90079  27.305  43.841  10.197
18354W        W90080  18.952  16.340   0.035
18355W        W90081  32.399   8.821   1.733
18356W        W90082  37.870   8.784   2.895
18357W        W90083  35.030  35.111   3.605
18358W        W90084   9.228  41.062  13.472
18359W        W90085  24.408  16.735  12.566
18360W        W90086  34.548  19.364   0.205
18361W        W90087  20.290  33.529   1.458
18362W        W90088  19.761  40.794  12.430
18363W        W90089  36.422  26.562   3.138
18364W        W90090  26.902  13.374  12.618
18365W        W90091   0.953  26.821  11.247
18366W        W90092  43.396  18.996   3.195
18367W        W90093  16.737  43.290  10.457
18368W        W90094  10.245   8.900   1.344
18369W        W90095   8.334  19.593  14.087
18370W        W90096  25.249  11.977   0.834
18371W        W90097  15.696  16.238  11.722
18372W        W90098  17.064  31.791   4.145
18373W        W90099   7.993  43.755  13.390
18374W        W90100  12.906  14.499   4.005
18375W        W90101  25.986  43.040   3.334
18376W        W90102  13.676  31.382   2.159
18377W        W90103   5.807  13.674  12.837
18378W        W90104   2.312  18.760   0.471
18379W        W90105  18.583   1.073   4.080
18380W        W90106   6.040   3.362   1.445
18381W        W90107   2.088  28.662  12.856
18382W        W90108  12.793  25.230  13.293
18383W        W90109   1.918  31.358  11.382
18384W        W90110  42.037  16.358  13.020
18385W        W90111  13.683  29.987   1.902
18386W        W90112  32.205  33.157   0.718
18387W        W90113  41.101   7.804  11.371
18388W        W90114  34.397  34.397   4.451
18389W        W90115   5.243  25.132   0.317
18390W        W90116  31.423   7.386  14.412
18391W        W90117  14.305  17.008  10.577
18392W        W90118  19.139  28.420  11.297
18393W        W90119  17.376   8.692   3.439
18394W        W90120   9.611  23.824  12.371
18395W        W90121  25.007  11.364   3.152
18396W        W90122   3.880   0.726   4.604
18397W        W90123  11.872   3.541  10.358
18398W        W90124  34.352  38.593  13.862
18399W        W90125  14.747  31.785  10.494
18400W        W90126   6.870  35.091  11.781
18401W        W90127  36.511   6.243   2.093
18402W        W90128   3.914  30.852  13.212
18403W        W90129   6.946  41.901   4.536
18404W        W90130  33.681  14.673   2.882
18405W        W90131  43.998  39.105   2.589
18406W        W90132  16.819  33.061   2.186
18407W        W90133  41.124   8.717   2.604
18408W        W90134  30.103  10.919   2.243
18409W        W90135  30.983   1.843   2.794
18410W        W90136   6.235  22.037  10.724
18411W        W90137   8.075  23.204  10.302
18412W        W90138  12.137   3.285  10.762
18413W        W90139  44.906  12.625   0.512
18414W        W90140   0.665  15.165  14.092
18415W        W90141  18.633   3.484  13.999
18416W        W90142  24.923   5.109   3.629
18417W        W90143  34.716  15.186   2.396
18418W        W90144   3.219  38.111   0.388
18419W        W90145  11.727  29.657  11.953
18420W        W90146  10.374  27.931   4.694
18421W        W90147   1.265  35.094   1.708
18422W        W90148   0.274  28.729   3.557
18423W        W90149  40.983  18.017  12.020
18424W        W90150  34.715   8.822   0.426
18425W        W90151  40.964  32.567  13.798
18426W        W90152  26.762   7.189   1.721
18427W        W90153  26.654   0.865  12.867
18428W        W90154  44.521  40.001   1.011
18429W        W90155  12.115  29.211   0.435
18430W        W90156  25.616  41.988   3.884
18431W        W90157   3.783  44.215   1.167
18432W        W90158  43.406   3.790  13.978
18433W        W90159  13.195  19.709   1.280
18434W        W90160  39.037  22.787  13.431
18435W        W90161  13.162  38.269   0.383
18436W        W90162  18.541  44.968   0.337
18437W        W90163  33.705  33.031   2.756
18438W        W90164   2.266   2.581   3.107
18439W        W90165  22.573  33.336  14.386
18440W        W90166  16.517  26.215   2.285
18441W        W90167  20.666   5.535   4.104
18442W        W90168  40.317  40.812   4.695
18443W        W90169   1.384  40.373   3.760
18444W        W90170   4.502   0.814   0.145
18445W        W90171  19.776  23.653   0.711
18446W        W90172  39.942  16.663  13.696
18447W        W90173  15.292  32.054  14.736
18448W        W90174  23.612   6.778  14.235
18449W        W90175  30.582  22.759   4.713
18450W        W90176  36.024   7.237  13.803
18451W        W90177   5.203   2.244   2.292
18452W        W90178   6.626  17.230  13.122
18453W        W90179  24.172  34.888  13.508
18454W        W90180  28.993  27.706   0.234
18455W        W90181  42.456  24.766   4.260
18456W        W90182  21.979  42.295  14.912
18457W        W90183  13.838   8.416   2.343
18458W        W90184   6.238  33.332  14.980
18459W        W90185  25.231  33.478  14.941
18460W        W90186  38.540  39.071  10.798
18461W        W90187  10.198  34.681  14.873
18462W        W90188  22.520  17.537   2.865
18463W        W90189  41.020  34.663  11.981
18464W        W90190  33.535  27.693   3.269
18465W        W90191  31.985   8.586   2.613
18466W        W90192   3.152  26.298   2.749
18467W        W90193   3.379  32.845   3.533
18468W        W90194   3.659   9.135  14.490
18469W        W90195  44.422  38.276   4.075
18470W        W90196  40.334  38.962   1.707
18471W        W90197  17.581  11.337   1.461
18472W        W90198  28.337  28.500   3.262
18473W        W90199  42.346  42.615   0.471
18474W        W90200  33.917   9.717   3.476
18475W        W90201   2.458  20.449  14.335
18476W        W90202  28.849  25.663  11.660
18477W        W90203  20.662  32.929  11.475
18478W        W90204   6.878   2.498  13.331
18479W        W90205  36.958  27.721   3.704
18480W        W90206  41.617   9.283  12.562
18481W        W90207  43.084  29.035  11.473
18482W        W90208   0.345  21.988  11.368
18483W        W90209  32.941  43.805  14.832
18484W        W90210  30.468  28.446  12.530
18485W        W90211  41.973  17.888  14.864
18486W        W90212   9.863  36.312   2.650
18487W        W90213  13.271  19.633  12.126
18488W        W90214   6.645   6.281  13.461
18489W        W90215  43.876  22.566   2.483
18490W        W90216   2.904  29.069  11.023
18491W        W90217  28.106   5.352  10.028
18492W        W90218   9.959  21.766  12.330
18493W        W90219  22.466   8.272   0.801
18494W        W90220  35.809  30.508   0.960
18495W        W90221  19.129  25.902   3.851
18496W        W90222  41.359  27.824  14.377
18497W        W90223  39.097  39.466  14.792
18498W        W90224   0.718  29.857   1.346
18499W        W90225  31.045   8.349   2.789
18500W        W90226   0.356  32.713   4.067
18501W        W90227  22.589  15.283   0.240
18502W        W90228   5.302   5.951  14.226
18503W        W90229   8.813   7.477  11.079
18504W        W90230   8.527  12.646  14.333
18505W        W90231  13.401  24.592   0.347
18506W        W90232  20.226  16.437  12.506
18507W        W90233  38.861  27.883   3.820
18508W        W90234  43.811  42.834  11.175
18509W        W90235  27.480  13.605  14.071
18510W        W90236  37.355   3.793   2.715
18511W        W90237  44.055   5.992   4.140
18512W        W90238   9.183  14.644   3.481
18513W        W90239  44.195  15.681   3.634
18514W        W90240  31.111  25.704   4.975
18515W        W90241  15.532  25.649  12.959
18516W        W90242  31.545  30.968   1.172
18517W        W90243  12.637   6.211   2.569
18518W        W90244  18.270  17.758   3.508
18519W        W90245   6.200  14.326   0.827
18520W        W90246   4.657  36.394   1.013
18521W        W90247   6.667  27.161  12.530
18522W        W90248  25.512  17.602  13.901
18523W        W90249  31.384   6.396   3.280
18524W        W90250  37.340   9.216  14.839
18525W        W90251  10.834   9.644  14.007
18526W        W90252  14.772  39.539   4.156
18527W        W90253  22.528  11.720  14.294
18528W        W90254  10.915  36.936  14.353
18529W        W90255  43.791   7.247  11.682
18530W        W90256  34.404   6.562   4.087
18531W        W90257   0.539  43.498   2.417
18532W        W90258  35.922  43.357  11.596
18533W        W90259  19.758  32.892   1.922
18534W        W90260  12.398  32.603  12.038
18535W        W90261  30.111  28.172   4.186
18536W        W90262  15.548  22.508  10.744
18537W        W90263  26.109  38.544   1.286
18538W        W90264   3.915   2.884   1.954
18539W        W90265   5.324   4.206  10.774
18540W        W90266  29.385  28.918  12.072
18541W        W90267  32.139  39.830   0.898
18542W        W90268   9.668  20.207   2.746
18543W        W90269   9.442  18.697   3.289
18544W        W90270  15.944  34.158  12.404
18545W        W90271  14.413   0.887  12.031
18546W        W90272  36.964  19.328   2.943
18547W        W90273  15.128  34.412   2.671
18548W        W90274  28.016  20.874   4.557
18549W        W90275   3.997   5.283  13.148
18550W        W90276  32.095  35.891   3.203
18551W        W90277  29.978   6.842   4.673
18552W        W90278  33.523  11.872   4.537
18553W        W90279  40.277  29.893  13.311
18554W        W90280   4.467  43.251  12.360
18555W        W90281   3.741   0.223   2.171
18556W        W90282  12.477  14.804   3.851
18557W        W90283  17.985   3.524   2.866
18558W        W90284   3.382  36.920  13.346
18559W        W90285  12.343  11.823   0.679
18560W        W90286   7.984  10.743  13.800
18561W        W90287  11.192  24.218   1.576
18562W        W90288  30.583  44.338   2.445
18563W        W90289  29.618  25.231  13.459
18564W        W90290   8.380  37.313  10.536
18565W        W90291   2.960  11.171  11.087
18566W        W90292  30.485   6.458  13.022
18567W        W90293  20.345  16.118   0.921
18568W        W90294   4.881   6.478   0.682
18569W        W90295  29.440  24.398   5.031
18570W        W90296  14.584  24.260   2.787
18571W        W90297  15.146  34.023  11.786
18572W        W90298  41.540  26.645   1.938
18573W        W90299  21.143   5.943   4.805
18574W        W90300  37.747  28.991   4.299
18575W        W90301  42.484  39.383   0.763
18576W        W90302  36.615  26.794   4.993
18577W        W90303  32.598  37.169  13.449
18578W        W90304  15.409  30.045   2.662
18579W        W90305  34.844  10.140   1.494
18580W        W90306  38.626  11.280  12.049
18581W        W90307  34.321  30.085   4.577
18582W        W90308  22.166  16.066  14.266
18583W        W90309  44.733  25.978   3.228
18584W        W90310  23.498  15.128  12.965
18585W        W90311   5.381  17.570  10.995
18586W        W90312   0.499  42.058   1.081
18587W        W90313  18.256  38.304   2.850
18588W        W90314  20.060  39.163   3.988
18589W        W90315   3.124   0.442   0.402
18590W        W90316  29.991  30.805  14.439
18591W        W90317  29.010  14.498  14.923
18592W        W90318   3.564  15.256  12.970
18593W        W90319  16.583  19.166  12.583
18594W        W90320   4.121   1.288   2.407
18595W        W90321  15.346   4.773  10.601
18596W        W90322  31.407   4.217   2.712
18597W        W90323   7.456  26.120  12.982
18598W        W90324   1.225  38.786  11.153
18599W        W90325   4.474   9.294  11.992
18600W        W90326  32.903  30.408   2.569
18601W        W90327   1.213   7.302   0.330
18602W        W90328  31.598  20.949   1.925
18603W        W90329  44.776  30.511  14.792
18604W        W90330  10.190  18.241  12.225
18605W        W90331  35.464  38.885  11.558
18606W        W90332   3.953  20.092   3.654
18607W        W90333  33.918  31.592  10.908
18608W        W90334  33.847  28.425   1.647
18609W        W90335  43.773  36.566   2.476
18610W        W90336  29.000  25.616  13.576
18611W        W90337  23.527  18.026  11.926
18612W        W90338  15.280  11.292   5.019
18613W        W90339   8.646  27.897   3.267
18614W        W90340   4.718  18.713   0.690
18615W        W90341  18.179  19.998  12.454
18616W        W90342  28.172  33.046   0.392
18617W        W90343   9.416   2.531   4.173
18618W        W90344  39.140  38.931   4.558
18619W        W90345  10.975  32.080   3.665
18620W        W90346  20.760  39.056  11.511
18621W        W90347   1.336  44.056  14.122
18622W        W90348   9.271  16.483   3.163
18623W        W90349  25.548  22.647  12.821
18624W        W90350  44.351  24.413   2.736
18625W        W90351   0.301   7.828   1.572
18626W        W90352  39.294   2.782   1.013
18627W        W90353  20.215  43.221  10.442
18628W        W90354  10.347  17.238  11.980
18629W        W90355  13.639  15.115  11.445
18630W        W90356  20.087  20.780  13.423
18631W        W90357  42.008  20.103  13.487
18632W        W90358  30.601  24.636   2.899
18633W        W90359  25.170  12.492   0.801
18634W        W90360  12.434   3.786   3.188
18635W        W90361  13.838  34.475  11.483
18636W        W90362   2.709  16.077   4.629
18637W        W90363  24.643  32.700  11.134
18638W        W90364   2.260  22.805  12.870
18639W        W90365   0.203   6.381   3.355
18640W        W90366  29.454   0.209  11.578
18641W        W90367  24.717  42.344   2.345
18642W        W90368  27.643  13.210  12.072
18643W        W90369  18.587  17.341   3.353
18644W        W90370  44.411  32.496   3.438
18645W        W90371  31.227  33.589  14.217
18646W        W90372  13.147  37.116  11.356
18647W        W90373  19.837  42.062   3.164
18648W        W90374  44.929  43.734   0.491
18649W        W90375   6.317  41.439  13.926
18650W        W90376  39.764   5.147   2.387
18651W        W90377  29.490   8.675   3.542
18652W        W90378  14.010  38.776  14.195
18653W        W90379  44.352  17.085   2.897
18654W        W90380  44.384  27.484   3.155
18655W        W90381  21.453  25.092   0.399
18656W        W90382  27.922  20.102   0.273
18657W        W90383   7.765  10.057  12.874
18658W        W90384  44.597  28.797  14.312
18659W        W90385  18.087  27.585   1.133
18660W        W90386  29.996  41.530  11.110
18661W        W90387  20.997  41.491   1.922
18662W        W90388  20.034  16.120   4.790
18663W        W90389  19.093  35.999  14.684
18664W        W90390  13.634   2.501   1.476
18665W        W90391   3.220   6.088  11.127
18666W        W90392  26.450  25.911  14.494
18667W        W90393   8.200   7.825   1.713
18668W        W90394  12.372  23.080   2.090
18669W        W90395  16.481  13.346   1.332
18670W        W90396  33.895   2.695   2.650
18671W        W90397   6.322   0.326  12.362
18672W        W90398  30.662   3.576   4.098
18673W        W90399  14.393  36.715   3.333
18674W        W90400  44.758  26.539  12.884
18675W        W90401  31.376  20.771  12.230
18676W        W90402  34.376  15.654   1.702
18677W        W90403  18.796  44.567  12.895
18678W        W90404  11.305  13.798   4.418
18679W        W90405   4.847   7.980  10.085
18680W        W90406   1.695  16.522   2.197
18681W        W90407  40.484  11.670   0.976
18682W        W90408  34.086  10.025  10.834
18683W        W90409  25.939  35.207  13.418
18684W        W90410   3.934   0.343  13.512
18685W        W90411  43.972   7.781   0.007
18686W        W90412  12.627   9.147  12.500
18687W        W90413  32.051  23.571   1.974
18688W        W90414   3.577   3.620   2.932
18689W        W90415  41.574  28.661  11.110
18690W        W90416  20.536  30.442   1.239
18691W        W90417  35.332   5.291   2.953
18692W        W90418  17.661  12.100  14.985
18693W        W90419  33.406  36.369   1.643
18694W        W90420  32.844   6.204  10.603
18695W        W90421  26.614  34.892   0.187
18696W        W90422   7.999  38.138  12.541
18697W        W90423  25.599  41.823  12.164
18698W        W90424   7.360  16.565  13.230
18699W        W90425   3.195  41.332  12.871
18700W        W90426  32.442  30.039  12.399
18701W        W90427   5.206  33.527  11.087
18702W        W90428  27.676  24.232   3.299
18703W        W90429   6.334  16.233   4.049
18704W        W90430  38.330  30.491   3.150
18705W        W90431  33.397   8.460  10.758
18706W        W90432  38.838  24.174   0.593
18707W        W90433  30.725   7.286   4.169
18708W        W90434  44.097  26.539  14.562
18709W        W90435  10.348   1.272   1.464
18710W        W90436  42.803  13.774  14.226
18711W        W90437   8.094  38.966  13.385
18712W        W90438  18.132  28.020  12.000
18713W        W90439  30.945   9.764   1.324
18714W        W90440  38.513  23.735   1.330
18715W        W90441  38.965  10.089   0.818
18716W        W90442  43.012  31.956   4.523
18717W        W90443  23.651  42.205   0.413
18718W        W90444  34.017   6.950  13.436
18719W        W90445   3.525  30.847   0.461
18720W        W90446  25.977  17.968  12.121
18721W        W90447  39.421  39.853  14.946
18722W        W90448  13.907   7.357   2.697
18723W        W90449  44.919   5.366   0.857
18724W        W90450  26.797  19.214  13.841
18725W        W90451  40.558  15.089   3.137
18726W        W90452  27.367  31.992  10.884
18727W        W90453   2.201  38.308  12.274
18728W        W90454  14.219  40.947  10.172
18729W        W90455  23.301  28.063   5.249
18730W        W90456  35.919  42.818   0.696
18731W        W90457  18.995   7.308  14.778
18732W        W90458   7.174  36.871   0.315
18733W        W90459  16.546   3.397  10.949
18734W        W90460   0.859  18.784  14.734
18735W        W90461  38.761  17.547   1.121
18736W        W90462   7.046   1.793   3.509
18737W        W90463  17.183  23.874  11.949
18738W        W90464  16.604   6.282   1.225
18739W        W90465  40.873  12.686  13.896
18740W        W90466   5.867  21.760  10.432
18741W        W90467  10.941   0.012  11.945
18742W        W90468  17.596  18.574   0.752
18743W        W90469  12.266   0.399   1.223
18744W        W90470  44.322  24.470   0.174
18745W        W90471  25.631  32.630  14.299
18746W        W90472   4.845  37.666  10.124
18747W        W90473  29.963  33.955  11.710
18748W        W90474  17.236  24.180   3.695
18749W        W90475   8.870  17.512  10.872
18750W        W90476  30.525   5.457  13.840
18751W        W90477   9.392   7.141  14.818
18752W        W90478  31.559  13.121  13.494
18753W        W90479  43.829  41.353   3.901
18754W        W90480   7.318  43.423   2.287
18755W        W90481   5.640  13.538  11.383
18756W        W90482  31.102  15.869   4.576
18757W        W90483  10.058  19.162   4.240
18758W        W90484  14.300  28.173   1.355
18759W        W90485  34.237  12.418   0.254
18760W        W90486  27.688   2.972   3.520
18761W        W90487   4.247   0.005   2.160
18762W        W90488   4.391   6.444   2.734
18763W        W90489   7.832  12.204   1.272
18764W        W90490  28.653  16.356   3.775
18765W        W90491   0.036   2.792   0.443
18766W        W90492  14.587   6.674   0.177
18767W        W90493  35.383  19.785  12.148
18768W        W90494  18.263  15.224   4.558
18769W        W90495  17.055  32.118   2.722
18770W        W90496  14.787  39.962   5.420
18771W        W90497  33.663   1.769   2.793
18772W        W90498  29.964  26.044   1.349
18773W        W90499  35.114  29.235  11.262
18774W        W90500  24.455  20.125  11.580
18775W        W90501  26.368   7.341   3.651
18776W        W90502  36.708  10.840   3.675
18777W        W90503  42.294  21.840   0.883
18778W        W90504  12.625   6.783   3.208
18779W        W90505  16.755  43.485   2.568
18780W        W90506  26.127  42.526   0.298
18781W        W90507   9.673  23.635   1.815
18782W        W90508  26.419  22.985   0.873
18783W        W90509  24.632  34.343   2.245
18784W        W90510  16.805   4.931   0.065
18785W        W90511  37.437  28.031  10.880
18786W        W90512  12.161  26.935  14.320
18787W        W90513  18.113  30.965   3.520
18788W        W90514  19.483  17.728   0.408
18789W        W90515   2.457  32.461   2.876
18790W        W90516  21.301   1.972   3.755
18791W        W90517  33.902  19.160  12.622
18792W        W90518  16.338  28.018   4.656
18793W        W90519  29.224  33.038  12.083
18794W        W90520   9.603  22.984   4.643
18795W        W90521  43.349   0.121   3.145
18796W        W90522  35.346  17.586   3.210
18797W        W90523   4.926  40.584  11.517
18798W        W90524  41.555  35.274   3.017
18799W        W90525  13.770  30.479   2.622
18800W        W90526   6.134  32.186  12.134
18801W        W90527   3.369   5.589  11.088
18802W        W90528  14.903  25.551  10.768
18803W        W90529  32.963  31.343  12.534
18804W        W90530  35.047  34.150   0.885
18805W        W90531  17.084  43.362  13.816
18806W        W90532  19.888   9.771   2.128
18807W        W90533  41.033  16.168  14.453
18808W        W90534   0.207  19.990  13.164
18809W        W90535  18.357   2.366   1.487
18810W        W90536  37.510  27.308   0.378
18811W        W90537  10.154  39.711   2.895
18812W        W90538  29.263  26.932   3.366
18813W        W90539   6.455  39.007   0.995
18814W        W90540  13.465   1.884   0.797
18815W        W90541  42.388  25.164  13.408
18816W        W90542   9.630   0.227  13.496
18817W        W90543  27.994  20.025   4.562
18818W        W90544   0.289   8.875   3.747
18819W        W90545   4.655   0.795   2.863
18820W        W90546  12.147  43.870  13.099
18821W        W90547  12.118  17.606   1.163
18822W        W90548  37.996   1.762  12.889
18823W        W90549  21.793  43.527   3.249
18824W        W90550   1.781   2.446   4.772
18825W        W90551   8.268  11.643  12.599
18826W        W90552  26.608   4.739  11.112
18827W        W90553  14.526  17.926  12.652
18828W        W90554   7.760   3.888   4.756
18829W        W90555  20.235   5.832  14.537
18830W        W90556  35.699  18.770   3.852
18831W        W90557  21.065  20.422   0.198
18832W        W90558  13.253  14.344   1.451
18833W        W90559  16.983   0.596   2.233
18834W        W90560   4.870  36.605  11.087
18835W        W90561  37.891   5.640  10.426
18836W        W90562  28.107  38.394  11.474
18837W        W90563  23.469  12.041   3.794
18838W        W90564  23.613  30.908   3.888
18839W        W90565  41.902  27.452  13.862
18840W        W90566  41.124  41.611   3.633
18841W        W90567  19.326  37.516   1.890
18842W        W90568  28.017   4.809   0.503
18843W        W90569  36.522  34.959  12.639
18844W        W90570  40.060  39.040  13.952
18845W        W90571   3.330   4.471  14.695
18846W        W90572  43.195   5.786  13.397
18847W        W90573   5.860  11.815  11.075
18848W        W90574  24.690   8.021   3.318
18849W        W90575   3.275  30.453  13.814
18850W        W90576  10.232  22.262   3.261
18851W        W90577  19.390   9.084  11.745
18852W        W90578   8.851  26.667  12.694
18853W        W90579  23.608  44.728   0.927
18854W        W90580  18.697  16.676  14.738
18855W        W90581  25.435   3.041  10.448
18856W        W90582   5.795   8.613   0.419
18857W        W90583  21.679   3.947   2.672
18858W        W90584  33.515   9.786   2.776
18859W        W90585  41.840   7.638   1.400
18860W        W90586  42.532   4.693   4.105
18861W        W90587  18.265  36.406   1.732
18862W        W90588   7.497  13.469   3.686
18863W        W90589  36.584  28.296  11.382
18864W        W90590  29.085  10.592   1.736
18865W        W90591  29.462  34.884  13.992
18866W        W90592   4.842  38.017  12.591
18867W        W90593  41.771  33.026  14.879
18868W        W90594   1.484  28.891   1.714
18869W        W90595   7.881  42.485  14.944
18870W        W90596  43.089  40.477  11.482
18871W        W90597  28.685   5.361   4.166
18872W        W90598  11.287   6.776   2.349
18873W        W90599   3.359  43.337   1.868
18874W        W90600  26.170  34.926   1.155
18875W        W90601  13.781  43.319  11.212
18876W        W90602  21.245  25.098  12.818
18877W        W90603   9.715  25.725   5.591
18878W        W90604   5.704  27.088  13.492
18879W        W90605   6.126  17.102  12.006
18880W        W90606  10.699  21.715  14.052
18881W        W90607   2.704   3.478  11.653
18882W        W90608  12.580  44.239   4.690
18883W        W90609   1.850  23.103   0.081
18884W        W90610  39.595   7.698   4.627
18885W        W90611  41.854  35.953  14.943
18886W        W90612  37.198  40.467   3.639
18887W        W90613  33.027  21.024   3.375
18888W        W90614   7.964  33.823  13.512
18889W        W90615  10.496  25.141  10.671
18890W        W90616  16.996  44.322   4.534
18891W        W90617  25.153  16.277   1.007
18892W        W90618   6.400  18.528  13.304
18893W        W90619  15.647  12.838   2.710
18894W        W90620   7.282  35.701  11.925
18895W        W90621  37.941   7.527  13.523
18896W        W90622   0.987  36.330   4.163
18897W        W90623   3.844  12.436  13.498
18898W        W90624  28.027  40.068  12.931
18899W        W90625  10.892  36.041   2.646
18900W        W90626  37.355  11.845   3.270
18901W        W90627  44.830  38.867   1.359
18902W        W90628  11.677  18.635  14.920
18903W        W90629  34.063  12.178  12.894
18904W        W90630  41.053   6.129  12.810
18905W        W90631  16.805  19.570   2.349
18906W        W90632  13.948   7.970  10.867
18907W        W90633  33.586  33.477   2.960
18908W        W90634   5.786   3.259  10.671
18909W        W90635   0.369  28.603  13.124
18910W        W90636   4.149  24.087  11.840
18911W        W90637  26.549  21.265   2.339
18912W        W90638  11.121  11.437  13.832
18913W        W90639  37.891  26.102   0.899
18914W        W90640  22.152  11.771  13.004
18915W        W90641  42.831  25.722  14.741
18916W        W90642  38.534   1.841  10.814
18917W        W90643  32.452  43.310   1.951
18918W        W90644  36.843  27.359  11.165
18919W        W90645  42.693  40.930  10.761
18920W        W90646  16.738  21.155   0.585
18921W        W90647  40.865   3.263   1.954
18922W        W90648   4.601  32.446   3.726
18923W        W90649  26.349   9.669   4.724
18924W        W90650   6.858   2.196  13.835
18925W        W90651  33.514  21.924   2.243
18926W        W90652  14.630  39.300  13.914
18927W        W90653  40.437  18.574  13.334
18928W        W90654  42.330   9.871   4.158
18929W        W90655  18.184  18.447   2.197
18930W        W90656  44.967   0.800   4.513
18931W        W90657  35.932   2.332  12.088
18932W        W90658  33.039   7.263  12.484
18933W        W90659  44.079  34.830   3.270
18934W        W90660  18.545  44.526  13.397
18935W        W90661  20.109   4.276   1.280
18936W        W90662  44.009  14.350  14.876
18937W        W90663  38.167  35.339   2.876
18938W        W90664   5.322  44.157   3.545
18939W        W90665  22.416   0.035  13.979
18940W        W90666   7.402  20.721   0.375
18941W        W90667  24.772  38.564  11.084
18942W        W90668   1.253   1.289  14.347
18943W        W90669   8.923  25.143  10.131
18944W        W90670  16.631  30.020   4.936
18945W        W90671  36.109  40.754   4.862
18946W        W90672  33.733  42.043  11.312
18947W        W90673   6.551  38.881   2.884
18948W        W90674  20.301  30.688   4.586
18949W        W90675  27.913   2.445   0.863
18950W        W90676  19.744  39.807  14.862
18951W        W90677  17.355  21.424  14.461
18952W        W90678  20.047  38.426  14.891
18953W        W90679  20.745  30.885  11.441
18954W        W90680  10.259  28.941   3.377
18955W        W90681  36.675  25.991   4.000
18956W        W90682  36.834  40.587  12.900
18957W        W90683  32.840   1.745   4.163
18958W        W90684  41.575   7.237  14.999
18959W        W90685  10.126  19.347  11.566
18960W        W90686  44.823  18.259   4.190
18961W        W90687  33.555  18.059   2.745
18962W        W90688  44.016   9.495  11.679
18963W        W90689   4.729  29.910  13.284
18964W        W90690  28.078  31.946  11.157
18965W        W90691   4.143  22.196   3.641
18966W        W90692  26.873  34.526  14.897
18967W        W90693  40.442  11.055   3.727
18968W        W90694  18.813  31.000   1.336
18969W        W90695  42.513  43.844   4.379
18970W        W90696  44.864  44.171  13.177
18971W        W90697  11.878  25.893  11.943
18972W        W90698  10.014   3.533   0.897
18973W        W90699   5.241  30.035  13.420
18974W        W90700   3.847  26.073  13.876
18975W        W90701  44.718  15.510  13.565
18976W        W90702  37.052  42.819   1.879
18977W        W90703  43.908  39.560   1.732
18978W        W90704  42.309  31.216   4.428
18979W        W90705  38.881  29.865  12.918
18980W        W90706  30.856  14.293   2.482
18981W        W90707  13.455  31.706  12.063
18982W        W90708  25.487  43.731   5.033
18983W        W90709  27.644  10.757  14.837
18984W        W90710  36.984   6.303  10.945
18985W        W90711  13.136  31.148  10.985
18986W        W90712  23.195  29.484  12.447
18987W        W90713  19.139  28.590  12.186
18988W        W90714  38.370  11.208  13.546
18989W        W90715  21.709  15.872   1.237
18990W        W90716  18.738  27.944   5.144
18991W        W90717  31.149  10.241   1.257
18992W        W90718  36.462  20.380  11.585
18993W        W90719  18.763  13.402  12.030
18994W        W90720  13.567   2.698   0.511
18995W        W90721  42.912  18.954  13.933
18996W        W90722  15.257   5.259   0.516
18997W        W90723  35.250  35.567   3.580
18998W        W90724   2.754  14.631  14.794
18999W        W90725  43.587  34.101  14.095
19000W        W90726  30.958  25.997   3.759
19001W        W90727  13.610  43.404   0.404
19002W        W90728  21.274   0.504   0.477
19003W        W90729  39.910  42.005   3.264
19004W        W90730   9.175  15.321  12.602
19005W        W90731  43.915  28.582  12.395
19006W        W90732  13.580  42.776  12.994
19007W        W90733  44.284  41.488  12.377
19008W        W90734  14.686  14.033  14.073
19009W        W90735  38.384   6.555  12.564
19010W        W90736   8.821  21.745  14.558
19011W        W90737   4.072   4.203  10.839
19012W        W90738  23.906  40.111  13.491
19013W        W90739  22.761   5.197  14.930
19014W        W90740  32.833  42.845   0.495
19015W        W90741  23.092  24.824   1.630
19016W        W90742   5.240  15.084   4.645
19017W        W90743  32.580  15.750  14.473
19018W        W90744  16.922   8.832  14.350
19019W        W90745  40.848   1.817   0.077
19020W        W90746  18.875  35.906   4.388
19021W        W90747  34.257  25.671  11.747
19022W        W90748  42.889   7.714  11.068
19023W        W90749  29.442  27.031   2.887
19024W        W90750  31.827   6.652   3.407
19025W        W90751  33.316  17.079  13.002
19026W        W90752  11.011  29.031   1.325
19027W        W90753   8.206  39.119   0.378
19028W        W90754  13.659  15.683   2.678
19029W        W90755  29.149   1.265   4.168
19030W        W90756  36.023  32.125  11.517
19031W        W90757   4.128  21.075   2.580
19032W        W90758  31.647  35.332   4.138
19033W        W90759   8.706  12.936   4.022
19034W        W90760   3.006  21.985  13.412
19035W        W90761  20.990  39.393   1.217
19036W        W90762   0.088  28.715  14.591
19037W        W90763  21.195  18.265  10.540
19038W        W90764  38.386  29.300   1.253
19039W        W90765  39.363  28.741   2.188
19040W        W90766  32.575  26.493   0.813
19041W        W90767  14.563  13.567   4.089
19042W        W90768  14.532  24.636   2.430
19043W        W90769  10.769   7.897   1.679
19044W        W90770  21.248  30.898   3.660
19045W        W90771  20.579  10.339  11.349
19046W        W90772  21.471  24.315  14.937
19047W        W90773   1.690  38.537   4.036
19048W        W90774   8.124  21.769  12.829
19049W        W90775  31.189  10.636  14.008
19050W        W90776  18.382  41.457   2.093
19051W        W90777  27.448  37.947  11.178
19052W        W90778  36.782  24.455  11.157
19053W        W90779  38.549   5.787  12.981
19054W        W90780  25.216  22.485   4.097
19055W        W90781  39.317  30.951   0.797
19056W        W90782  20.992  12.244  10.173
19057W        W90783  34.813   8.601   0.881
19058W        W90784   5.121  41.393  14.789
19059W        W90785  33.337   6.963   3.185
19060W        W90786  39.061  10.074   4.125
19061W        W90787   8.329  41.539  11.554
19062W        W90788  39.021  43.865   4.928
19063W        W90789   7.304  33.118   0.743
19064W        W90790  23.023  40.017   2.671
19065W        W90791  44.414  40.443  11.910
19066W        W90792  14.415   4.665   0.193
19067W        W90793  40.025  17.574   4.254
19068W        W90794  18.711  18.066   0.759
19069W        W90795  41.993  20.247   2.555
19070W        W90796  13.721  38.851   4.367
19071W        W90797   5.959  25.079   5.093
19072W        W90798  14.881  35.481  13.503
19073W        W90799  35.778  16.954  14.848
19074W        W90800  40.810  44.343   4.455
19075W        W90801  20.810  31.281   2.873
19076W        W90802  38.823  30.935   0.991
19077W        W90803  40.182  31.591  11.145
19078W        W90804  30.956  38.379   3.715
19079W        W90805   6.319  19.308  10.433
19080W        W90806  40.839  15.095   4.127
19081W        W90807  13.638  36.502   4.927
19082W        W90808   3.292  14.560   4.337
19083W        W90809  12.302  13.783   0.809
19084W        W90810  17.545  37.960   3.692
19085W        W90811  10.347  14.176   2.150
19086W        W90812   9.747  19.017   0.820
19087W        W90813  42.829   7.760   4.429
19088W        W90814  15.690  21.671   0.065
19089W        W90815  40.831  10.104   4.719
19090W        W90816  21.168  14.597   0.411
19091W        W90817  30.325   7.622   4.929
19092W        W90818  19.146  23.282  12.871
19093W        W90819  41.670  12.734  12.975
19094W        W90820  23.081  42.835   3.236
19095W        W90821  29.116  21.562   4.187
19096W        W90822  18.468  27.038  11.267
19097W        W90823  17.507  43.738  11.249
19098W        W90824   9.780  15.344   0.885
19099W        W90825  17.653  26.219  12.833
19100W        W90826  13.817  36.470  14.439
19101W        W90827   5.141  16.065   1.763
19102W        W90828  35.918   0.566  12.039
19103W        W90829   8.849  23.245  12.558
19104W        W90830  24.923   1.290   2.308
19105W        W90831  44.903  37.496   1.924
19106W        W90832  23.174  27.402   1.900
19107W        W90833   8.361   4.837  14.377
19108W        W90834  22.167  14.855  11.007
19109W        W90835  44.891  15.927   2.625
19110W        W90836  12.831  23.161   4.536
19111W        W90837  30.219  18.179   0.820
19112W        W90838   7.048  14.466   1.421
19113W        W90839  29.097  33.894   2.837
19114W        W90840  25.018  10.842  10.702
19115W        W90841  37.648  21.166  14.075
19116W        W90842   9.660  18.092   0.929
19117W        W90843   9.359  35.503  14.721
19118W        W90844   1.057   4.375  11.884
19119W        W90845  23.958  26.953   4.659
19120W        W90846   8.720  12.176  11.956
19121W        W90847  32.030  14.312  13.444
19122W        W90848   3.182  40.972   0.730
19123W        W90849  25.713  24.252   0.342
19124W        W90850  26.471  16.351  11.383
19125W        W90851   0.008  11.692   3.790
19126W        W90852  39.806  24.169   0.245
19127W        W90853  27.901  17.606   0.775
19128W        W90854   0.046   9.786   2.207
19129W        W90855  19.152  23.043   1.150
19130W        W90856  38.069  25.092   3.215
19131W        W90857  29.200  30.728  13.490
19132W        W90858  12.316  43.784  10.320
19133W        W90859  25.026  28.103   3.054
19134W        W90860  22.567   4.912   3.251
19135W        W90861   7.388  33.087   2.683
19136W        W90862  41.719  33.615  12.565
19137W        W90863  39.054  22.408   2.798
19138W        W90864   3.214  37.861   0.838
19139W        W90865  19.721  19.249  10.670
19140W        W90866  39.474   9.886   0.888
19141W        W90867  16.048  35.623   1.800
19142W        W90868  33.920  21.031  12.307
19143W        W90869  21.756  44.313   2.623
19144W        W90870  28.545  19.279   3.199
19145W        W90871   6.304  32.858  10.738
19146W        W90872  25.539  23.203  14.914
19147W        W90873   8.223  18.280   4.470
19148W        W90874  22.487  24.233   3.123
19149W        W90875   8.540  17.753   2.375
19150W        W90876  16.000  25.644  14.455
19151W        W90877  33.361  23.680   1.056
19152W        W90878  22.593  37.661  14.279
19153W        W90879  35.796  17.989  11.963
19154W        W90880  27.428  40.458   4.680
19155W        W90881  32.050  25.129  11.369
19156W        W90882   2.865  13.682  12.077
19157W        W90883  44.199  39.319  13.084
19158W        W90884   6.199   1.259   0.748
19159W        W90885   0.360  30.998   1.676
19160W        W90886  25.168  15.853   1.392
19161W        W90887  22.235  26.216   4.424
19162W        W90888  30.980  44.416   0.697
19163W        W90889  25.452   8.739   3.363
19164W        W90890  17.261  30.581   4.764
19165W        W90891  31.888  15.909   4.170
19166W        W90892  26.812   6.195   4.480
19167W        W90893  44.007  34.386  14.832
19168W        W90894  10.215  15.225  13.134
19169W        W90895   4.760  26.299   1.798
19170W        W90896  17.284  21.186  12.674
19171W        W90897  31.587  38.705  13.529
19172W        W90898  25.031  43.988   3.251
19173W        W90899  13.663  25.102  11.588
19174W        W90900  39.030  18.240   5.113
19175W        W90901   4.855   4.198   4.110
19176W        W90902   9.701   7.936  11.040
19177W        W90903  16.202  10.683  11.864
19178W        W90904   9.158   0.215   3.309
19179W        W90905  44.546  29.580   3.234
19180W        W90906  28.931  36.722  13.685
19181W        W90907  29.133  36.690  11.903
19182W        W90908  22.180  30.944   3.708
19183W        W90909  42.842  40.316   1.041
19184W        W90910  30.969   6.130   1.761
19185W        W90911  33.903  21.085  10.316
19186W        W90912  11.393  17.719  14.880
19187W        W90913  38.039  15.847   1.696
19188W        W90914  27.867  41.174   0.979
19189W        W90915  26.336  33.142   5.037
19190W        W90916  41.421   8.792   0.803
19191W        W90917   2.158  44.505  13.380
19192W        W90918  20.057  19.096   1.396
19193W        W90919  26.234   0.974   4.976
19194W        W90920  17.335  39.921  11.060
19195W        W90921  44.968  18.025  12.488
19196W        W90922  25.960  14.608   1.339
19197W        W90923  20.027  32.214   2.260
19198W        W90924  16.582  39.018  13.082
19199W        W90925  19.667  37.179   2.232
19200W        W90926  28.784  24.235   4.280
19201W        W90927  16.192  11.331  14.749
19202W        W90928  24.248  22.054   4.112
19203W        W90929  27.653  22.524  10.602
19204W        W90930  35.550  19.718   2.861
19205W        W90931   0.457  22.587   2.402
19206W        W90932  33.422  27.150   1.832
19207W        W90933   6.411   4.253   2.402
19208W        W90934  44.557  11.306  13.422
19209W        W90935  20.648  39.826  14.894
19210W        W90936  34.127  26.668  12.620
19211W        W90937  10.218  43.245   1.014
19212W        W90938  27.655  10.295  11.153
19213W        W90939  38.391   7.894  14.457
19214W        W90940  30.269  24.525   3.297
19215W        W90941  37.325  38.737  11.338
19216W        W90942  20.976  10.327  14.100
19217W        W90943   7.588  42.772   3.637
19218W        W90944  32.478   7.440   4.065
19219W        W90945   4.397  37.547  11.354
19220W        W90946  23.605  40.853  11.669
19221W        W90947  40.984  21.252  12.585
19222W        W90948  23.085  15.557  14.515
19223W        W90949  35.483  28.137  12.925
19224W        W90950  38.492   7.763   2.469
19225W        W90951   3.294  35.675   2.283
19226W        W90952  18.838  36.821  11.951
19227W        W90953  39.582  43.252   2.928
19228W        W90954  13.375   9.628   3.184
19229W        W90955  31.811  16.231   1.957
19230W        W90956  40.905  35.141   3.624
19231W        W90957  15.795   6.154   2.304
19232W        W90958   0.313  36.989   3.587
19233W        W90959  37.246  17.039   1.285
19234W        W90960  33.974  22.617   0.890
19235W        W90961  23.564   2.410   0.831
19236W        W90962  42.545  20.073  13.458
19237W        W90963  36.325  10.861   2.318
19238W        W90964  44.763  26.857   2.286
19239W        W90965  41.783   5.347   1.706
19240W        W90966  16.515  14.820   3.563
19241W        W90967  30.445  31.732   1.106
19242W        W90968  43.721  14.699  14.391
19243W        W90969   7.812  43.062  10.307
19244W        W90970  24.042   5.949  11.667
19245W        W90971  18.299  11.851   0.220
19246W        W90972  29.996  32.141   4.803
19247W        W90973   4.738   4.004  10.226
19248W        W90974  24.796  24.564  13.345
19249W        W90975   9.757  27.012   4.377
19250W        W90976  32.021  39.401  10.841
19251W        W90977   7.254   4.111   4.672
19252W        W90978  39.225   0.675   4.902
19253W        W90979   1.879  26.707  12.135
19254W        W90980  33.097  41.407   3.594
19255W        W90981   3.265  19.130   0.902
19256W        W90982  30.403  31.266   0.247
19257W        W90983  37.866   7.390   0.350
19258W        W90984   9.881   0.240  14.832
19259W        W90985  16.311  33.769   0.773
19260W        W90986  21.784  25.991   4.511
19261W        W90987  27.126  11.445  12.645
19262W        W90988  27.472  16.363  14.892
19263W        W90989  30.470  40.122  12.034
19264W        W90990   0.274  31.334   2.744
19265W        W90991  33.948   2.638  12.944
19266W        W90992  12.072  16.879   4.539
19267W        W90993  24.715  21.785   0.329
19268W        W90994  43.763  12.582  13.423
19269W        W90995   9.842   2.793   3.987
19270W        W90996  41.320  38.517   3.658
19271W        W90997  38.866  26.592  10.995
19272W        W90998  30.853  43.769   4.565
19273W        W90999   8.240  23.620  11.108
19274W        W91000   1.895  17.972  14.879
19275W        W91001  19.156  17.499  14.424
19276W        W91002  41.346  38.498  10.631
19277W        W91003  39.988  39.535  13.783
19278W        W91004  20.232  32.443  10.601
19279W        W91005  30.130  21.927  14.865
19280W        W91006  10.709  37.047   0.915
19281W        W91007  33.072   2.222  14.737
19282W        W91008   1.987   1.006   4.173
19283W        W91009   7.411  29.460  14.959
19284W        W91010  27.283  20.886  10.450
19285W        W91011  44.001  42.732   0.866
19286W        W91012  35.802  23.989   1.840
19287W        W91013  15.672  34.348   1.627
19288W        W91014   7.705  22.016   2.365
19289W        W91015   4.477  18.704  13.128
19290W        W91016  39.337  29.662   4.574
19291W        W91017  12.367  16.603  11.666
19292W        W91018  11.171  23.662   2.221
19293W        W91019  36.781  29.916  13.424
19294W        W91020  14.238  36.641  13.192
19295W        W91021  28.530  22.613   0.863
19296W        W91022  22.822   4.812  13.319
19297W        W91023  35.550  42.512   4.284
19298W        W91024  12.168   8.611  12.162
19299W        W91025  36.569  41.871  13.526
19300W        W91026  19.129  11.901  10.752
19301W        W91027  14.649   7.739  11.983
19302W        W91028  17.520   8.145  10.740
19303W        W91029  41.897  41.815   4.312
19304W        W91030  12.301   1.371  12.638
19305W        W91031  16.295  29.857   4.499
19306W        W91032  44.252   1.570   1.757
19307W        W91033   8.218  38.851  11.620
19308W        W91034   7.296  24.799  11.510
19309W        W91035  40.194  35.436  14.948
19310W        W91036  14.158  36.243  11.057
19311W        W91037  36.678   1.380   4.159
19312W        W91038  41.036  33.923  13.886
19313W        W91039  11.534  18.365  11.922
19314W        W91040  40.325  20.477   1.378
19315W        W91041  31.976  15.462   2.482
19316W        W91042  31.949  38.589   3.759
19317W        W91043  24.468   0.315  12.148
19318W        W91044   3.316  10.634   1.238
19319W        W91045  16.648  38.447   3.892
19320W        W91046  19.555  27.704   4.024
19321W        W91047   1.456  25.951  11.971
19322W        W91048  13.150   4.216  12.478
19323W        W91049  11.395  36.020   0.699
19324W        W91050  14.332  15.315  11.957
19325W        W91051  24.229  39.710  13.502
19326W        W91052  21.694  15.205  11.981
19327W        W91053  31.602  11.870  14.021
19328W        W91054  11.442  35.072   0.796
19329W        W91055  20.156  34.884   1.014
19330W        W91056  43.017   2.982  13.947
19331W        W91057   9.161  28.786   1.835
19332W        W91058  32.949  22.792   4.100
19333W        W91059  36.442  35.057   4.061
19334W        W91060  24.923  35.139   0.262
19335W        W91061  22.763   4.380   2.269
19336W        W91062  12.998   3.215  12.352
19337W        W91063   5.064  19.107   2.376
19338W        W91064  27.674  10.673   2.725
19339W        W91065  13.897  15.245   4.197
19340W        W91066  28.893  27.041  12.367
19341W        W91067  16.175  21.134  13.436
19342W        W91068  12.673  32.609   3.678
19343W        W91069   5.656   8.173  12.106
19344W        W91070  26.238  23.238   0.447
19345W        W91071  13.119  16.022  12.291
19346W        W91072  41.736  33.383   2.205
19347W        W91073   0.257  17.840   0.407
19348W        W91074  10.383  31.406   1.549
19349W        W91075  23.788  20.299  12.526
19350W        W91076   9.883  16.872  12.354
19351W        W91077  20.668  10.110   4.580
19352W        W91078  15.854  12.815  13.863
19353W        W91079  19.153  27.089   4.571
19354W        W91080  44.543  35.077   1.060
19355W        W91081  25.676   7.957   0.708
19356W        W91082  21.796  41.825  12.005
19357W        W91083  10.447  28.933  14.047
19358W        W91084  15.835  19.591   4.949
19359W        W91085  27.617   9.622   2.295
19360W        W91086  29.400   1.754  13.307
19361W        W91087  29.196  19.671   4.627
19362W        W91088  12.070  14.218  11.244
19363W        W91089  20.121  42.929   2.443
19364W        W91090  21.027  42.890   1.277
19365W        W91091  32.995  27.943   0.452
19366W        W91092  10.879  21.201  13.960
19367W        W91093  12.726  44.914  10.362
19368W        W91094  38.819   7.683  13.009
19369W        W91095  18.233  20.965  13.405
19370W        W91096  34.564  40.034   4.095
19371W        W91097  10.372   4.951   4.402
19372W        W91098  14.853  16.559  12.680
19373W        W91099   8.488  30.348   1.170
19374W        W91100  35.442   0.480  13.048
19375W        W91101  21.093  44.277  10.619
19376W        W91102  21.230  32.012   0.704
19377W        W91103  36.492  20.191   4.621
19378W        W91104  29.717  11.107   0.340
19379W        W91105   0.375  32.660  13.003
19380W        W91106  39.107   1.163   3.994
19381W        W91107   5.880  38.401  14.413
19382W        W91108  26.117  29.142   2.712
19383W        W91109  13.836   3.351  14.286
19384W        W91110  22.979   8.861  14.429
19385W        W91111  10.174  18.063  10.282
19386W        W91112   2.792  11.081   4.306
19387W        W91113  29.599  27.191   2.349
19388W        W91114  30.033  24.143  11.036
19389W        W91115  29.350  11.872  14.357
19390W        W91116  36.673   2.794  14.838
19391W        W91117  26.361  34.909  10.019
19392W        W91118  25.211  21.995   1.827
19393W        W91119  12.000  41.355   3.926
19394W        W91120  35.960   5.162   1.215
19395W        W91121  13.838  43.430   0.878
19396W        W91122  27.653  25.661  11.104
19397W        W91123  41.933  10.083  12.476
19398W        W91124  18.018  22.291   4.698
19399W        W91125  15.916  30.922   1.587
19400W        W91126  35.067   6.650   1.915
19401W        W91127  38.566  16.813   2.393
19402W        W91128  14.542  33.501  11.131
19403W        W91129   2.166  33.046  11.824
19404W        W91130  14.811  19.393  10.529
19405W        W91131  19.782  26.087  13.498
19406W        W91132   1.943  33.769  14.467
19407W        W91133   8.420   6.340   4.693
19408W        W91134  17.738   3.421   1.843
19409W        W91135  25.048   1.900  14.026
19410W        W91136  27.556  12.822   3.340
19411W        W91137   4.831  15.099  11.686
19412W        W91138  20.710  44.670   3.203
19413W        W91139   5.310  33.265  14.869
19414W        W91140  16.865  17.663  11.277
19415W        W91141  11.772  35.361  14.446
19416W        W91142  11.293  22.745   4.920
19417W        W91143   4.489  11.802  11.861
19418W        W91144  10.290   1.642   3.101
19419W        W91145  28.539  23.511   2.794
19420W        W91146  26.150   9.351  13.044
19421W        W91147  18.533  25.957   1.921
19422W        W91148  27.207  39.417   3.273
19423W        W91149  30.393  16.761   0.373
19424W        W91150  29.179  40.612  14.780
19425W        W91151  11.080  14.861  13.501
19426W        W91152  42.017  24.180   0.782
19427W        W91153  23.538  41.558   1.770
19428W        W91154  26.678  32.010   3.211
19429W        W91155   4.312  26.636   2.273
19430W        W91156  44.764  36.694   1.449
19431W        W91157  24.227  10.227  14.957
19432W        W91158  28.013  42.335   2.809
19433W        W91159   1.771  35.287  14.545
19434W        W91160  42.325  23.145   1.542
19435W        W91161   8.403  22.087  13.428
19436W        W91162  18.539  43.972  13.700
19437W        W91163  20.197  39.342  11.158
19438W        W91164   5.950  30.707   1.545
19439W        W91165  19.373   5.863  14.379
19440W        W91166   9.981  29.612  10.589
19441W        W91167  10.277  42.000  12.323
19442W        W91168  12.672   5.263  11.572
19443W        W91169  43.585   1.879  13.700
19444W        W91170  34.567  28.842  12.049
19445W        W91171  39.508   4.249   2.894
19446W        W91172  15.772  26.200  11.113
19447W        W91173   3.947   7.860   0.348
19448W        W91174  43.778  31.123   0.257
19449W        W91175   3.951  33.633   2.631
19450W        W91176  23.478  33.893  10.639
19451W        W91177  41.540  36.733   3.852
19452W        W91178  15.152  28.948  10.471
19453W        W91179  12.874  36.011   4.340
19454W        W91180  36.818   9.216   0.937
19455W        W91181  27.106  15.379  11.485
19456W        W91182  42.934   0.227   2.840
19457W        W91183  15.845  17.155   1.438
19458W        W91184  37.463  34.542  10.864
19459W        W91185  20.531  42.423   1.374
19460W        W91186  24.313  37.277  11.201
19461W        W91187  42.759  29.483   4.517
19462W        W91188  24.186  19.671  11.539
19463W        W91189  35.609  21.846   3.706
19464W        W91190  32.958   0.954   2.195
19465W        W91191  40.331  22.945   2.429
19466W        W91192  23.535  21.636  14.353
19467W        W91193  44.758  20.972  13.521
19468W        W91194  34.663   3.864   0.354
19469W        W91195  24.971  43.030  10.121
19470W        W91196  43.466  35.696   1.238
19471W        W91197  42.911  22.730   1.366
19472W        W91198   3.851  33.307   4.655
19473W        W91199   7.414   4.249   0.706
19474W        W91200   6.837  37.978   0.978
19475W        W91201  18.568   2.245  11.542
19476W        W91202   4.376  26.189   1.303
19477W        W91203  36.865  21.300  12.590
19478W        W91204   5.873  14.252   3.432
19479W        W91205  13.362  31.429  13.464
19480W        W91206  11.469  16.787  12.444
19481W        W91207   0.915  14.314   4.125
19482W        W91208   0.791  32.640  11.931
19483W        W91209   9.919  11.631  13.576
19484W        W91210  44.475  12.291   4.943
19485W        W91211  10.919  10.884   1.726
19486W        W91212  22.690   5.522  12.017
19487W        W91213  40.027  25.830   4.724
19488W        W91214  37.056   3.224   4.470
19489W        W91215  16.954   1.419   4.175
19490W        W91216   5.233  25.930   2.175
19491W        W91217   6.919  33.755   3.769
19492W        W91218  38.133   8.651   0.772
19493W        W91219  17.979  15.215  14.766
19494W        W91220   2.206  36.077  11.161
19495W        W91221  16.191   6.882  13.068
19496W        W91222  24.376   7.749   0.403
19497W        W91223  11.811  12.167  12.960
19498W        W91224  34.137  28.628   4.219
19499W        W91225  29.645   0.783   0.963
19500W        W91226  38.029  44.844   2.211
19501W        W91227   3.756  31.125   1.846
19502W        W91228   0.463  29.154   4.646
19503W        W91229  40.826  22.084   3.574
19504W        W91230  35.109  27.454   3.161
19505W        W91231  12.918  13.762  12.139
19506W        W91232   5.216  42.528  14.521
19507W        W91233  20.937  10.748  13.803
19508W        W91234  29.623  16.262   4.871
19509W        W91235  20.809  31.601   4.642
19510W        W91236  32.533  17.132  11.090
19511W        W91237  34.922  40.513  12.051
19512W        W91238  28.578  39.081   4.595
19513W        W91239  39.299  19.598  10.689
19514W        W91240  32.347  15.960  12.057
19515W        W91241  15.885   0.743   5.057
19516W        W91242  34.197  44.452   5.804
19517W        W91243  32.054   8.423  14.830
19518W        W91244  37.522   0.987  11.969
19519W        W91245   9.164  39.525  12.432
19520W        W91246   6.195  43.864   4.118
19521W        W91247  12.491  12.372   4.565
19522W        W91248  29.859  26.511  14.323
19523W        W91249  11.764  44.824  13.288
19524W        W91250  42.626  12.548   0.395
19525W        W91251  44.020  17.983   2.541
19526W        W91252   2.183   2.306  10.592
19527W        W91253  32.041   0.713   0.344
19528W        W91254  36.053   6.335  11.393
19529W        W91255  10.812  15.644  14.777
19530W        W91256  10.133   9.477  13.422
19531W        W91257  44.402  10.669  14.559
19532W        W91258  41.311   9.847  13.553
19533W        W91259  33.624  40.393   3.157
19534W        W91260  12.002  12.981  11.536
19535W        W91261  39.496  30.158  12.915
19536W        W91262  42.902   5.334   2.083
19537W        W91263  38.457  30.640   4.262
19538W        W91264  36.895  41.709  11.089
19539W        W91265  40.248  15.292  12.077
19540W        W91266  24.017  38.447  14.952
19541W        W91267  13.865  26.501   1.442
19542W        W91268  31.869  44.539   3.126
19543W        W91269   5.354  20.556   3.212
19544W        W91270  15.825  40.830   3.613
19545W        W91271  22.839  43.674   4.759
19546W        W91272   4.803  15.758   4.989
19547W        W91273   5.224   0.917  10.587
19548W        W91274   3.257  33.669   1.437
19549W        W91275  43.564  44.257   2.847
19550W        W91276   6.736  11.305  11.485
19551W        W91277  32.543  17.155  11.620
19552W        W91278   7.149  42.491  11.450
19553W        W91279   5.125  44.706  14.774
19554W        W91280  23.102  44.938  14.690
19555W        W91281  11.664  39.552   1.031
19556W        W91282  39.299  37.315  14.866
19557W        W91283  35.556   4.442  14.020
19558W        W91284  39.394  19.734   4.130
19559W        W91285  20.568   6.788  14.773
19560W        W91286   5.080  10.032   5.137
19561W        W91287  17.718   8.020   0.523
19562W        W91288   1.186  19.770   4.781
19563W        W91289  25.568   5.174  10.969
19564W        W91290   6.471   3.771  11.142
19565W        W91291  21.037   5.102  14.898
19566W        W91292   4.934  17.835  12.933
19567W        W91293  36.037  37.528   4.652
19568W        W91294  36.280  25.178   0.064
19569W        W91295  25.931  35.473  12.373
19570W        W91296  32.032  16.296  13.905
19571W        W91297  23.213  35.800  12.046
19572W        W91298  34.002  14.595  12.509
19573W        W91299  15.389  37.277  14.342
19574W        W91300  33.435  23.756   2.639
19575W        W91301   0.989   8.340   1.679
19576W        W91302   4.423  21.730  14.113
19577W        W91303  32.615  44.354  14.396
19578W        W91304   0.289  42.534   4.774
19579W        W91305  27.726  20.735  12.549
19580W        W91306  30.167  19.841   1.224
19581W        W91307  32.998  31.128  13.853
19582W        W91308  31.187  32.800  11.483
19583W        W91309  17.268   7.627  14.928
19584W        W91310  39.979   2.740   3.186
19585W        W91311   8.293   2.762   2.257
19586W        W91312  26.273  44.034   2.588
19587W        W91313  14.249  12.363  14.018
19588W        W91314   8.404   6.596   5.567
19589W        W91315  33.899   8.650   4.492
19590W        W91316   6.432  30.400  11.669
19591W        W91317  11.713  42.904   1.474
19592W        W91318   5.421  40.869   3.173
19593W        W91319  24.989  42.119   3.295
19594W        W91320  44.060  39.765  13.889
19595W        W91321  40.078  33.353   4.058
19596W        W91322  44.594  34.771  13.464
19597W        W91323  37.055  43.015  13.799
19598W        W91324   4.066  21.773   1.775
19599W        W91325  10.688  38.568   2.600
19600W        W91326  21.736  17.212   4.524
19601W        W91327  34.141   7.212   2.775
19602W        W91328  34.632  23.015  12.962
19603W        W91329  38.596   6.303   0.419
19604W        W91330  29.079   8.337   3.643
19605W        W91331  43.266  43.511  12.368
19606W        W91332  21.612   1.199  13.854
19607W        W91333  30.699  39.950  11.099
19608W        W91334  21.592  17.767  11.840
19609W        W91335   3.944  13.240  13.923
19610W        W91336  37.881  11.224  10.270
19611W        W91337  20.098  26.411  11.899
19612W        W91338  25.182  25.985  13.124
19613W        W91339  31.883  22.537  12.571
19614W        W91340  20.247  18.163  10.751
19615W        W91341  11.545  24.435  11.263
19616W        W91342  23.181   4.240  12.676
19617W        W91343  12.710  29.104   2.884
19618W        W91344  27.286  14.403  11.533
19619W        W91345   0.347  42.992   1.006
19620W        W91346  18.664  41.479  14.052
19621W        W91347  27.091  12.769   1.341
19622W        W91348   8.388   3.745  10.770
19623W        W91349   9.598  25.643   2.679
19624W        W91350  41.376  28.573  11.912
19625W        W91351  16.689  23.601   3.862
19626W        W91352  39.325  27.969   4.187
19627W        W91353  17.143  24.259  11.103
19628W        W91354  10.735  34.575  14.935
19629W        W91355  31.420   3.287  11.218
19630W        W91356  33.605  10.401   4.579
19631W        W91357  24.045  26.041  14.299
19632W        W91358  33.775   6.236  10.223
19633W        W91359  13.671  38.876  13.632
19634W        W91360  44.893  36.315   2.791
19635W        W91361  19.762  22.921   2.540
19636W        W91362  26.878  41.096  12.877
19637W        W91363  15.324   6.881   0.465
19638W        W91364  26.808  29.055  13.001
19639W        W91365  37.053  43.526  11.002
19640W        W91366  18.894  40.951  11.183
19641W        W91367  41.694  15.303  14.823
19642W        W91368  26.133  28.487   3.644
19643W        W91369  43.276  36.091  11.554
19644W        W91370  40.102  33.310  14.592
19645W        W91371  11.667  41.664   3.675
19646W        W91372   9.665   4.424   4.363
19647W        W91373   7.167  29.109   2.194
19648W        W91374   9.101   7.879  14.257
19649W        W91375  37.585   8.212  12.367
19650W        W91376  13.340  18.588  11.729
19651W        W91377  42.407  27.670  13.989
19652W        W91378  29.963  27.975  13.072
19653W        W91379  30.498  40.569  14.758
19654W        W91380  18.114  34.898   2.845
19655W        W91381  15.271   3.361   0.434
19656W        W91382  30.131  19.767  14.342
19657W        W91383  24.575  27.850   1.821
19658W        W91384  19.167  32.600   0.982
19659W        W91385  40.103  13.441  11.523
19660W        W91386  15.153  40.029  12.881
19661W        W91387  38.521   7.623  10.614
19662W        W91388  31.965  44.448  14.003
19663W        W91389  23.664  23.013   2.262
19664W        W91390  30.665  43.053  13.977
19665W        W91391   0.309   5.181   1.152
19666W        W91392  15.813  32.029   2.178
19667W        W91393  30.076  18.384   4.509
19668W        W91394  19.684  29.112  13.467
19669W        W91395  29.425  31.150   1.849
19670W        W91396  27.861   0.837   3.326
19671W        W91397  27.590  31.883   4.898
19672W        W91398   1.770  23.667  11.341
19673W        W91399   3.275  27.908   1.057
19674W        W91400  27.705  14.576  13.109
19675W        W91401  23.235  30.395   1.332
19676W        W91402   6.139  22.673   3.329
19677W        W91403  12.242   3.735  14.295
19678W        W91404  12.928  40.544   1.370
19679W        W91405  19.201  14.655  14.507
19680W        W91406   4.906   8.042   3.146
19681W        W91407  12.951  27.528  12.118
19682W        W91408  24.083  41.366   2.394
19683W        W91409  44.035  41.928  11.020
19684W        W91410  15.596  30.502   2.873
19685W        W91411  15.105  13.187  12.559
19686W        W91412  28.505  41.882   3.775
19687W        W91413   9.057  33.164   0.672
19688W        W91414  40.672  27.491  14.965
19689W        W91415  10.950  29.704  10.690
19690W        W91416  32.838   5.466  12.022
19691W        W91417   7.895  15.197  10.764
19692W        W91418  19.305   7.278  14.323
19693W        W91419  12.654  14.157   0.708
19694W        W91420   5.703  28.255   3.163
19695W        W91421  16.564  29.167   3.359
19696W        W91422   5.125  35.680   1.298
19697W        W91423  31.182  43.434  12.639
19698W        W91424  16.727  12.755  11.595
19699W        W91425   9.167   8.263   4.288
19700W        W91426  20.021  24.950  12.158
19701W        W91427  18.151   3.337   0.472
19702W        W91428  33.312  21.576  11.987
19703W        W91429   9.177   2.733   2.606
19704W        W91430   3.690  21.166   1.811
19705W        W91431   0.452  13.781   2.890
19706W        W91432  30.441  31.693  14.458
19707W        W91433   2.277  24.118  11.600
19708W        W91434   2.852  12.219   3.419
19709W        W91435  37.880  33.621   0.573
19710W        W91436  19.789  36.975   3.240
19711W        W91437  37.015  21.104   1.441
19712W        W91438  44.465  35.813   2.365
19713W        W91439  42.212  41.062   1.956
19714W        W91440  41.958  30.363   4.635
19715W        W91441  43.273  35.174  11.103
19716W        W91442  12.594  21.687  12.872
19717W        W91443   8.692  40.990   1.800
19718W        W91444  26.623   5.557  12.421
19719W        W91445   9.709  14.567  12.959
19720W        W91446  31.691  15.685   1.223
19721W        W91447   9.599  36.431  14.864
19722W        W91448  33.950  19.304   0.613
19723W        W91449  24.374  22.522   3.917
19724W        W91450  39.404   0.980   0.002
19725W        W91451  38.453  42.081  11.758
19726W        W91452  31.468   9.714   4.691
19727W        W91453  18.865  30.615   2.563
19728W        W91454   8.660   8.847  10.741
19729W        W91455  18.340  12.673  13.945
19730W        W91456   9.722  15.832   4.672
19731W        W91457   7.109   9.210  12.518
19732W        W91458  42.973  34.514  11.722
19733W        W91459  41.401  26.679  14.862
19734W        W91460   3.379  11.634   3.741
19735W        W91461  23.997   5.209   1.250
19736W        W91462   9.941  41.261  13.818
19737W        W91463  15.535  38.450  11.505
19738W        W91464  32.100   3.184  12.817
19739W        W91465   4.558  29.192   3.667
19740W        W91466   3.265  19.596  13.364
19741W        W91467  14.130  21.440  13.331
19742W        W91468  38.759   0.876   3.655
19743W        W91469  13.373   3.552  13.919
19744W        W91470   8.234  43.552   0.465
19745W        W91471  26.865  13.386   4.136
19746W        W91472  12.308  30.553   4.420
19747W        W91473  44.405  28.134   4.943
19748W        W91474   1.145  33.369   0.987
19749W        W91475  34.449  12.214  12.460
19750W        W91476  27.907  23.279   2.315
19751W        W91477  14.622  16.828   2.862
19752W        W91478  33.066  28.662  12.431
19753W        W91479   9.601  44.637  14.684
19754W        W91480  13.271   6.879   1.058
19755W        W91481  19.605  28.218  11.147
19756W        W91482  37.891  16.119   2.159
19757W        W91483  36.638  15.891   2.782
19758W        W91484  31.977  39.563   1.443
19759W        W91485  14.340  40.294  11.494
19760W        W91486  27.610  12.077  13.488
19761W        W91487  38.823  36.456   3.297
19762W        W91488   8.006   4.831  14.886
19763W        W91489   7.330  30.208   2.124
19764W        W91490  13.792  17.322  11.193
19765W        W91491  33.472  44.559  14.138
19766W        W91492  10.369   8.093   0.291
19767W        W91493  15.238  25.538   0.734
19768W        W91494  25.892  38.382  14.588
19769W        W91495  28.997   4.775   2.937
19770W        W91496  32.603  20.796  14.735
19771W        W91497   3.236  24.057  12.985
19772W        W91498  27.413  33.943   1.593
19773W        W91499  32.977  13.106  10.725
19774W        W91500  19.683  38.089  11.795
19775W        W91501  30.936   1.004   0.855
19776W        W91502  36.403   0.809   1.428
19777W        W91503  26.512  17.594  10.859
19778W        W91504  24.971  16.522   0.316
19779W        W91505   2.649  33.097  13.782
19780W        W91506   9.916  36.447   9.887
19781W        W91507  10.667  44.537   0.532
19782W        W91508  22.965  37.969   0.960
19783W        W91509  20.674  41.824  14.785
19784W        W91510  35.973  18.234  14.640
19785W        W91511  41.413  36.729  14.566
19786W        W91512  27.178  31.649   0.080
19787W        W91513   4.221   9.296   0.392
19788W        W91514  30.667   9.268  13.915
19789W        W91515  38.282  27.202   2.154
19790W        W91516  32.088   3.956   4.620
19791W        W91517  40.258  14.334  11.996
19792W        W91518  43.574   9.335  13.504
19793W        W91519  39.273  41.844  12.854
19794W        W91520  44.174  13.742  12.624
19795W        W91521  36.796  43.326   0.502
19796W        W91522  39.415  31.724  13.005
19797W        W91523  27.897  30.609  14.398
19798W        W91524  36.580  14.274   2.708
19799W        W91525  17.000  39.003  10.958
19800W        W91526  15.646   8.444  11.865
19801W        W91527  14.508  25.804   2.296
19802W        W91528   0.415  44.911  11.010
19803W        W91529  34.916   2.438  11.899
19804W        W91530  18.235  23.070  11.878
19805W        W91531  12.029  21.245  12.030
19806W        W91532  17.706  33.370   0.708
19807W        W91533  23.662   9.301  11.672
19808W        W91534   2.248  16.343   2.853
19809W        W91535  20.991  40.444  11.514
19810W        W91536  36.347  12.402  13.279
19811W        W91537  14.708  41.514  12.479
19812W        W91538  39.585  41.556  12.496
19813W        W91539   2.307  22.391   3.913
19814W        W91540  33.122  28.110  10.889
19815W        W91541  30.957  44.159   5.434
19816W        W91542  32.391  36.096  12.428
19817W        W91543  38.372  17.184   0.326
19818W        W91544  40.787  18.532  14.080
19819W        W91545  19.693  41.826   1.441
19820W        W91546  37.937  33.912  11.934
19821W        W91547  22.031  27.947  10.170
19822W        W91548   5.938   4.225  12.467
19823W        W91549  26.098  16.070  11.614
19824W        W91550  12.888  18.522  14.324
19825W        W91551  16.632  14.338   3.732
19826W        W91552  25.418  36.975  11.613
19827W        W91553  32.629  10.099  10.036
19828W        W91554  16.042  23.629  11.521
19829W        W91555   4.441  16.429   9.857
19830W        W91556  28.739   4.472  13.025
19831W        W91557  42.702  41.762  12.574
19832W        W91558  27.573  27.462   1.551
19833W        W91559  25.643  26.532  10.642
19834W        W91560  22.967  23.501  10.525
19835W        W91561  44.697  20.989  14.476
19836W        W91562  44.728  22.013  11.446
19837W        W91563  17.329  23.502   2.884
19838W        W91564  16.113  36.695   2.890
19839W        W91565   0.716  10.121   4.531
19840W        W91566  29.685  14.266  14.395
19841W        W91567  18.045   6.124   0.426
19842W        W91568  23.644  13.359  10.493
19843W        W91569  36.205  18.019   1.770
19844W        W91570  35.499   5.298   4.369
19845W        W91571  41.303  18.388  13.302
19846W        W91572  24.539  38.985   0.349
19847W        W91573  15.304  21.289   3.484
19848W        W91574  32.544  12.278  14.657
19849W        W91575  11.126  21.965   3.346
19850W        W91576  26.473  12.779   3.262
19851W        W91577  27.410   3.615   0.186
19852W        W91578  12.421   8.351   1.959
19853W        W91579   2.819  10.229   4.905
19854W        W91580  27.840   2.903  12.345
19855W        W91581   5.765  29.979   0.289
19856W        W91582   6.655  19.223   3.110
19857W        W91583   5.107   8.571  12.610
19858W        W91584  36.499  22.074   4.641
19859W        W91585  16.746   3.415  12.401
19860W        W91586  37.929  33.783  10.597
19861W        W91587  14.926  31.668  10.967
19862W        W91588  12.576  22.782   0.942
19863W        W91589   1.692  38.594  11.326
19864W        W91590  20.229  41.965   2.205
19865W        W91591  28.101  35.608  14.949
19866W        W91592  34.225   2.282   3.329
19867W        W91593  33.663  15.941  12.070
19868W        W91594   5.427   4.642  10.499
19869W        W91595  40.225  40.577  14.988
19870W        W91596   9.880  33.668   3.216
19871W        W91597  16.785  13.803   3.743
19872W        W91598   1.794  14.860  10.471
19873W        W91599  33.097  32.418  12.549
19874W        W91600   1.423  19.716   0.881
19875W        W91601  27.701  16.804   1.738
19876W        W91602   2.490   5.287   3.266
19877W        W91603  22.062  14.325   3.416
19878W        W91604  21.798  13.238   1.862
19879W        W91605  32.400   4.985   3.133
19880W        W91606  17.133  27.538  13.354
19881W        W91607  30.586  10.628  12.856
19882W        W91608  20.286  22.150   4.309
19883W        W91609  11.492  25.601   5.479
19884W        W91610  19.676   7.761   5.063
19885W        W91611  28.508  44.752   3.715
19886W        W91612  11.780  42.340  14.949
19887W        W91613  32.351  32.259  11.093
19888W        W91614  42.704   8.583   1.785
19889W        W91615  29.857  27.480  12.195
19890W        W91616  27.530  16.400   4.117
19891W        W91617  30.421   4.791  11.986
19892W        W91618  30.034  37.449   5.040
19893W        W91619   4.270  33.251  14.946
19894W        W91620  33.409  29.905  11.010
19895W        W91621  44.655  16.633  11.109
19896W        W91622  21.850   7.677  13.710
19897W        W91623  33.470  21.235  12.528
19898W        W91624  23.545   3.322   0.230
19899W        W91625  24.222  25.663  10.090
19900W        W91626  33.608   6.884   1.868
19901W        W91627   9.596  12.911  11.184
19902W        W91628  17.355  40.116  12.494
19903W        W91629   3.976  30.574   2.776
19904W        W91630   2.494  22.079  13.370
19905W        W91631  24.638  37.384   1.676
19906W        W91632  26.110   1.119   0.626
19907W        W91633  22.516   1.640   2.006
19908W        W91634  33.636  31.612  12.174
19909W        W91635  11.770  28.661   3.255
19910W        W91636  28.174  32.604   4.697
19911W        W91637  38.747  17.758  10.671
19912W        W91638  31.929  19.573  11.758
19913W        W91639  28.690  13.018   2.668
19914W        W91640  10.622  36.532   0.857
19915W        W91641  37.418  28.984   9.928
19916W        W91642  37.110  36.429  12.405
19917W        W91643  27.102  42.507   4.697
19918W        W91644  31.288  32.395  14.587
19919W        W91645  24.995  19.548  14.005
19920W        W91646   8.163  32.643   0.743
19921W        W91647  37.083  42.645   2.366
19922W        W91648   5.830   5.425  11.869
19923W        W91649  13.599  35.359  12.112
19924W        W91650  37.391  10.313  11.415
19925W        W91651  15.254   3.722  12.605
19926W        W91652   4.338   6.676   1.736
19927W        W91653  22.204  33.988   3.210
19928W        W91654   0.430  41.964  14.113
19929W        W91655   9.406  33.140   2.826
19930W        W91656  11.352  34.470   3.316
19931W        W91657   9.534  35.272   2.767
19932W        W91658  36.788  24.704  13.287
19933W        W91659   8.526  13.813   5.175
19934W        W91660  27.864   6.729  14.253
19935W        W91661  30.411  31.961  10.200
19936W        W91662  34.506  23.780  14.116
19937W        W91663  41.908  16.737   4.716
19938W        W91664  44.902  41.305  13.447
19939W        W91665  21.140  44.921   0.255
19940W        W91666   6.853  43.195   2.290
19941W        W91667  18.267  28.372  13.377
19942W        W91668  41.032  31.052  13.418
19943W        W91669   7.356  19.427   3.040
19944W        W91670  43.783   0.496   3.207
19945W        W91671   6.882  31.810  13.269
19946W        W91672  24.470  43.046  10.446
19947W        W91673  27.782  35.926   3.727
19948W        W91674  30.376   8.654   3.599
19949W        W91675  18.468   0.729   1.721
19950W        W91676  33.202  26.479   2.707
19951W        W91677  44.333   3.440  12.530
19952W        W91678  16.894  23.253  13.101
19953W        W91679   5.707  42.492  14.757
19954W        W91680  20.076   7.256   3.612
19955W        W91681  29.657  28.418   0.205
19956W        W91682   7.401   8.401  12.271
19957W        W91683  43.028  31.590  12.008
19958W        W91684  10.194  34.430   4.649
19959W        W91685   2.505   0.388  13.271
19960W        W91686  39.897  42.283   2.479
19961W        W91687  14.482   3.817  11.556
19962W        W91688  18.489  31.161   2.812
19963W        W91689  12.622  33.082  14.486
19964W        W91690  36.339  29.492  12.041
19965W        W91691  22.339  16.266   3.701
19966W        W91692  25.521  12.386  11.222
19967W        W91693  12.642  26.208  12.422
19968W        W91694  22.101  32.551   1.934
19969W        W91695  27.668  41.869  11.693
19970W        W91696  37.878  25.924   4.299
19971W        W91697   2.618  37.955  12.234
19972W        W91698   0.895  43.980   3.283
19973W        W91699  31.678  31.454  12.328
19974W        W91700   6.962  28.076  11.553
19975W        W91701   8.443  29.488   3.843
19976W        W91702  18.541  38.551   2.345
19977W        W91703  42.831  12.700   0.873
19978W        W91704  11.022  21.501  11.473
19979W        W91705  39.362   4.420  13.776
19980W        W91706  35.869  39.351  13.059
19981W        W91707   7.717  24.938   3.695
19982W        W91708   0.946  25.974   3.634
19983W        W91709  20.236  17.631  14.868
19984W        W91710  22.377  28.007   0.757
19985W        W91711  39.327   1.222  14.292
19986W        W91712  19.739   9.873  11.697
19987W        W91713  35.150  25.913   0.352
19988W        W91714  30.455   6.419  12.485
19989W        W91715   0.960   7.681  14.367
19990W        W91716   7.155  15.365   0.393
19991W        W91717  22.798  23.520  14.808
19992W        W91718  35.846   2.877  11.385
19993W        W91719  16.245  26.278  10.908
19994W        W91720  35.016  36.527   0.391
19995W        W91721  30.028   6.204   2.225
19996W        W91722  38.474  24.086  10.556
19997W        W91723   3.719  27.078   0.436
19998W        W91724  30.319  40.973   4.017
19999W        W91725  29.551  22.732   4.103
20000W        W91726  20.799   9.355  10.710
20001W        W91727  42.694  35.934   0.190
20002W        W91728  25.860  36.594  13.544
20003W        W91729  16.360  11.493   1.831
20004W        W91730  26.764  11.087   4.517
20005W        W91731   7.517  41.938  12.558
20006W        W91732  34.039  17.244   1.886
20007W        W91733  16.623  25.619   0.775
20008W        W91734  43.421  12.204  13.546
20009W        W91735  29.994  21.531  13.563
20010W        W91736   5.258  25.484  14.023
20011W        W91737  32.515  36.118  14.780
20012W        W91738  17.280  14.282  11.639
20013W        W91739  18.289  28.939  11.530
20014W        W91740  25.423  12.624  10.513
20015W        W91741  43.758   0.756  10.600
20016W        W91742  12.552  29.358  11.040
20017W        W91743  13.818  23.676  13.218
20018W        W91744  11.301  24.526   3.171
20019W        W91745  37.964   4.906   1.725
20020W        W91746  25.273  29.629  14.425
20021W        W91747  40.636  26.982  12.049
20022W        W91748  27.948  23.160   0.185
20023W        W91749  34.545  23.112   1.166
20024W        W91750   6.281   1.222  13.048
20025W        W91751  21.123  26.424  14.750
20026W        W91752  40.872  25.841   2.576
20027W        W91753  29.106  13.287  13.342
20028W        W91754  32.006  32.262   5.246
20029W        W91755  11.167  35.524   0.813
20030W        W91756  15.802   5.738  12.127
20031W        W91757  40.665  28.140   0.198
20032W        W91758  31.492  35.693   2.305
20033W        W91759  27.001  36.933  13.334
20034W        W91760   5.488  18.401   1.055
20035W        W91761  15.624  44.701  10.716
20036W        W91762  30.104  26.123   4.016
20037W        W91763   3.312  16.518  11.832
20038W        W91764   6.740  39.798   1.279
20039W        W91765  28.577  25.409  12.644
20040W        W91766  42.962   8.934  11.152
20041W        W91767  42.796  14.228   0.484
20042W        W91768  22.056  21.213   0.270
20043W        W91769   1.665  43.787  13.822
20044W        W91770   8.946  21.089  13.476
20045W        W91771  25.163   4.904   4.548
20046W        W91772   5.939  40.909  10.799
20047W        W91773  19.806  11.224   4.630
20048W        W91774  15.101  39.907  10.003
20049W        W91775  44.350   4.354  13.004
20050W        W91776  12.375  16.706   0.756
20051W        W91777   8.255  12.217   3.043
20052W        W91778  34.443  14.145   1.981
20053W        W91779  33.918  24.441   3.825
20054W        W91780   3.736  11.576   4.149
20055W        W91781  20.715  21.332  12.062
20056W        W91782  35.441   4.023   3.531
20057W        W91783  42.993  30.870  13.272
20058W        W91784  42.288  37.299   3.953
20059W        W91785   3.284  37.815  14.012
20060W        W91786  21.113   1.747  11.654
20061W        W91787  38.619   3.406   5.337
20062W        W91788  43.048  41.912  13.871
20063W        W91789  38.909  42.321  11.513
20064W        W91790  24.091  30.969   4.140
20065W        W91791  19.736   2.290  14.257
20066W        W91792  14.607  38.279  11.590
20067W        W91793  16.012  12.542   0.692
20068W        W91794   8.007   2.071   4.113
20069W        W91795  11.195  27.296   3.171
20070W        W91796  16.770  33.425  14.254
20071W        W91797   0.782   0.536   1.837
20072W        W91798  16.629  23.507   4.393
20073W        W91799   8.676  33.909   0.826
20074W        W91800  38.672  18.215   3.800
20075W        W91801  31.166  35.611  14.808
20076W        W91802  21.936  27.927  11.043
20077W        W91803  35.610  41.906  11.487
20078W        W91804  39.460   2.906  12.612
20079W        W91805  29.186  20.996   3.351
20080W        W91806  29.295  34.062   0.494
20081W        W91807  10.202  12.879  11.528
20082W        W91808  32.949  34.331  12.414
20083W        W91809  23.690   0.605   2.765
20084W        W91810  28.619   5.264  13.921
20085W        W91811   3.278  31.019  12.510
20086W        W91812  40.223  38.362   1.348
20087W        W91813  39.252  37.039  13.498
20088W        W91814  40.445  29.033  13.005
20089W        W91815   4.298  16.511  14.291
20090W        W91816   0.832  45.000  12.186
20091W        W91817   5.327  31.997   4.112
20092W        W91818   2.400  30.703  13.361
20093W        W91819  26.963  13.602  14.867
20094W        W91820  44.703  18.064   1.847
20095W        W91821  29.578   3.166   3.674
20096W        W91822  14.549  32.929   4.198
20097W        W91823  12.803  22.020  10.681
20098W        W91824   5.434  20.264  10.765
20099W        W91825  27.729   4.744   3.680
20100W        W91826  41.275  18.843   4.964
20101W        W91827  19.854  24.107   0.960
20102W        W91828  13.303   4.344   4.514
20103W        W91829  35.512   8.623  13.546
20104W        W91830   2.055  27.513  10.663
20105W        W91831  30.943   2.186  14.332
20106W        W91832  34.608  42.506  11.118
20107W        W91833  18.679   2.711   3.310
20108W        W91834  44.756  11.332  12.599
20109W        W91835  32.132  23.498  12.398
20110W        W91836  33.390   6.207   3.577
20111W        W91837  15.692  24.497  12.395
20112W        W91838   6.684   5.639   3.270
20113W        W91839  11.183   5.849  12.895
20114W        W91840  33.502  23.422  13.119
20115W        W91841  23.208  26.583  11.995
20116W        W91842  20.237   4.387  12.778
20117W        W91843   1.873  30.133   1.692
20118W        W91844  24.149  10.806   3.842
20119W        W91845   7.509  20.788   2.049
20120W        W91846  18.115  32.407   0.476
20121W        W91847   7.754   8.565  11.161
20122W        W91848  38.156  37.323  14.540
20123W        W91849  16.714  28.400  12.595
20124W        W91850  20.049  40.552  13.094
20125W        W91851  12.119   3.093  12.600
20126W        W91852   9.843   9.651   2.366
20127W        W91853  21.773   0.031   1.281
20128W        W91854  19.517  36.093  12.988
20129W        W91855  37.793   4.508  11.117
20130W        W91856   5.047  31.501   2.596
20131W        W91857  31.150  41.359   0.832
20132W        W91858  22.611   4.432   4.428
20133W        W91859  10.284  14.203   4.070
20134W        W91860  41.946  22.422   2.915
20135W        W91861   2.777  27.659   2.016
20136W        W91862  40.898  42.699  14.456
20137W        W91863  31.091  27.573  14.910
20138W        W91864  40.629  26.990   2.230
20139W        W91865  11.949  30.178   4.552
20140W        W91866  32.641   5.953  13.887
20141W        W91867  17.167  22.521   2.616
20142W        W91868  38.038  24.990  10.632
20143W        W91869  17.314  24.719   2.196
20144W        W91870  16.060  31.517  11.929
20145W        W91871  29.471  16.761  13.016
20146W        W91872  29.003  27.477  14.279
20147W        W91873  24.918   8.383   0.762
20148W        W91874  24.692  19.213  12.558
20149W        W91875  15.234   5.357   4.618
20150W        W91876  40.576  36.975  13.866
20151W        W91877  29.997   8.454   0.816
20152W        W91878   6.135  35.624   3.187
20153W        W91879   4.269  34.165  14.534
20154W        W91880  33.076  40.461   4.949
20155W        W91881  21.444  25.409   3.826
20156W        W91882   9.756  28.596  11.338
20157W        W91883  12.789  16.637  14.951
20158W        W91884  16.764  27.311   3.461
20159W        W91885  38.034  41.410  11.611
20160W        W91886  27.108  10.384  13.802
20161W        W91887   9.832  43.357   0.308
20162W        W91888  19.117  28.123  13.505
20163W        W91889  15.472  14.699   4.527
20164W        W91890  30.088  18.362  13.488
20165W        W91891  39.890  20.173   0.031
20166W        W91892   9.202  40.579   4.135
20167W        W91893  33.087   5.528  12.489
20168W        W91894   7.854  26.595  11.541
20169W        W91895   9.566  13.606  10.725
20170W        W91896  37.517  18.692  10.523
20171W        W91897   8.312  20.297   2.875
20172W        W91898  37.508   8.638  10.909
20173W        W91899  39.902   1.475   2.655
20174W        W91900  44.743  31.332  13.420
20175W        W91901   4.474   2.493   2.764
20176W        W91902  12.794  15.550  13.192
20177W        W91903  28.527   6.228   4.085
20178W        W91904  41.414  42.351   4.785
20179W        W91905  40.470  25.892  11.176
20180W        W91906   8.222   1.762  12.540
20181W        W91907  10.325   1.582  10.732
20182W        W91908   3.776  35.596   3.086
20183W        W91909  11.371  10.714   0.408
20184W        W91910   2.371  23.342   4.710
20185W        W91911  30.550  21.659   2.988
20186W        W91912   3.577  37.011  11.990
20187W        W91913  39.368  26.971   4.734
20188W        W91914  28.265  38.469  14.843
20189W        W91915  36.208   5.187  12.030
20190W        W91916  21.804   4.517   0.485
20191W        W91917  32.197  20.256  14.374
20192W        W91918  25.479   4.095   3.632
20193W        W91919  17.335   5.870  10.414
20194W        W91920  22.030  39.415   1.178
20195W        W91921  35.441  10.640  10.744
20196W        W91922  29.924   6.667   2.793
20197W        W91923   0.949   6.279   3.544
20198W        W91924   0.342  26.192   0.820
20199W        W91925  40.792  14.212  14.863
20200W        W91926  22.285  24.638   9.832
20201W        W91927  25.012  33.576   0.423
20202W        W91928  21.261  34.005  14.720
20203W        W91929  19.623   0.836  13.141
20204W        W91930  17.740  38.298  12.370
20205W        W91931  12.804  34.506   4.169
20206W        W91932  44.173  19.097  12.812
20207W        W91933   6.975  42.577   0.363
20208W        W91934  37.389  13.136  11.545
20209W        W91935  21.159  27.918  10.099
20210W        W91936  16.552  38.852  10.701
20211W        W91937  14.267  37.085  12.896
20212W        W91938  23.085  32.208  12.532
20213W        W91939   8.457  20.891   4.572
20214W        W91940  40.931  18.737  13.382
20215W        W91941  39.552  12.783   3.365
20216W        W91942  20.698   9.617   4.721
20217W        W91943   0.694   6.766  11.718
20218W        W91944  34.281  22.655   1.312
20219W        W91945  31.007  18.052  10.298
20220W        W91946  29.127  43.795   0.158
20221W        W91947  21.659  25.567   2.985
20222W        W91948  26.210  21.411   1.368
20223W        W91949  31.041  25.200  13.313
20224W        W91950  20.546  41.325  10.898
20225W        W91951  42.114  38.409   0.319
20226W        W91952  11.846  40.062   4.533
20227W        W91953  21.781  32.932   2.167
20228W        W91954  12.649  26.537  14.665
20229W        W91955  15.641  28.743   4.900
20230W        W91956   2.870  36.163  10.703
20231W        W91957  31.499  25.022   4.901
20232W        W91958   6.605  33.505  10.690
20233W        W91959  27.704  32.123   0.907
20234W        W91960  38.959  33.533   4.140
20235W        W91961  44.251   8.241  14.934
20236W        W91962   0.260  34.943   4.392
20237W        W91963   6.982  25.261  11.126
20238W        W91964  33.804  39.076  14.503
20239W        W91965  14.805  42.997  13.322
20240W        W91966  36.471  41.506   1.511
20241W        W91967  42.949  24.471   4.409
20242W        W91968  12.998   6.194  13.969
20243W        W91969  29.529  11.017  12.123
20244W        W91970  11.351  32.382  13.996
20245W        W91971  18.947  39.755   2.740
20246W        W91972  43.476  37.716  11.159
20247W        W91973  16.787  34.210  12.095
20248W        W91974  28.930  29.586   3.433
20249W        W91975  24.540  12.806  13.948
20250W        W91976   7.869   4.702   5.152
20251W        W91977  31.975  37.562  11.753
20252W        W91978  44.994  11.668   0.725
20253W        W91979  27.623  42.907   3.876
20254W        W91980   0.287  38.494   3.823
20255W        W91981  21.035   9.815  10.779
20256W        W91982   6.528  43.420   3.409
20257W        W91983  28.487  21.336   2.441
20258W        W91984   5.607  29.462  14.160
20259W        W91985  18.829  18.859  14.348
20260W        W91986  30.632   8.514  14.988
20261W        W91987  35.403  39.165   1.513
20262W        W91988   5.752   5.697  14.082
20263W        W91989  32.146  10.248   5.083
20264W        W91990   7.856   2.477   2.255
20265W        W91991  18.233  25.218   4.045
20266W        W91992  34.411  37.260   4.703
20267W        W91993  42.739   5.185   1.624
20268W        W91994   6.711   0.908  12.833
20269W        W91995  29.958  26.056  13.082
20270W        W91996  12.296   0.923   2.907
20271W        W91997  26.779  17.339  13.024
20272W        W91998  19.668  24.097  12.167
20273W        W91999  31.940  12.170   4.039
20274W        W92000  14.192  38.587   9.756
20275W        W92001   8.227   5.763  14.473
20276W        W92002  37.658   8.807  14.130
20277W        W92003  15.631  38.508  14.986
20278W        W92004  10.098  33.322   4.985
20279W        W92005  13.484   3.371  12.443
20280W        W92006  30.347  25.505  11.705
20281W        W92007   4.872   9.345   2.000
20282W        W92008  31.707  17.078  14.086
20283W        W92009  20.548  14.039   5.178
20284W        W92010  11.893  33.066  11.217
20285W        W92011   5.299  22.754   1.326
20286W        W92012  42.569  29.476   2.297
20287W        W92013   2.276  36.475  12.076
20288W        W92014  26.004   0.484   5.023
20289W        W92015  36.032   0.474  14.972
20290W        W92016  40.675  31.623  12.558
20291W        W92017   2.391  40.938   0.383
20292W        W92018  18.279  43.299  12.413
20293W        W92019  42.091   2.449   1.047
20294W        W92020  40.515  43.067  14.502
20295W        W92021  38.872  26.005   2.746
20296W        W92022  15.050  27.429   4.198
20297W        W92023  17.603  38.418   4.587
20298W        W92024   7.086  40.990   3.677
20299W        W92025  41.045  10.853  13.860
20300W        W92026  20.301  31.445   2.804
20301W        W92027  10.241  23.099   5.374
20302W        W92028  31.704   0.447  12.929
20303W        W92029  29.796  15.778   4.966
20304W        W92030   8.925  10.406   4.164
20305W        W92031  10.410  42.095   3.195
20306W        W92032  44.843  16.088   2.115
20307W        W92033   9.177  28.493  14.363
20308W        W92034   5.388  15.216   3.259
20309W        W92035  26.526  26.676   4.513
20310W        W92036  28.506  10.728  14.385
20311W        W92037  10.636  36.429  12.509
20312W        W92038  20.680  31.803   2.938
20313W        W92039  30.492  28.055   4.541
20314W        W92040   5.131  39.924  13.983
20315W        W92041  44.262  24.070   4.605
20316W        W92042   9.856  41.734   0.512
20317W        W92043  42.430  13.211  11.608
20318W        W92044  42.556   4.220   4.343
20319W        W92045   1.145  21.594  13.340
20320W        W92046   8.077  34.781  14.902
20321W        W92047  32.268  40.865   4.946
20322W        W92048  12.546  24.969  12.888
20323W        W92049  19.845  15.607  14.493
20324W        W92050   6.709  25.766   2.611
20325W        W92051  22.933  34.314  13.146
20326W        W92052  44.857   9.791  14.666
20327W        W92053  29.765   7.590   4.993
20328W        W92054   4.852   5.170  10.080
20329W        W92055  10.863  17.022  11.188
20330W        W92056  31.306  44.061  14.407
20331W        W92057  27.118  34.054  14.923
20332W        W92058  13.656  32.657  11.538
20333W        W92059  18.757   7.281  12.150
20334W        W92060  37.408  30.365  11.442
20335W        W92061  27.458  25.421   1.718
20336W        W92062  21.245   1.326  14.205
20337W        W92063  26.598  27.282   0.824
20338W        W92064  23.042  15.679   4.954
20339W        W92065  36.971  33.407  11.207
20340W        W92066  13.520  37.545  12.076
20341W        W92067   8.310  23.978  14.334
20342W        W92068  39.377  28.402   1.354
20343W        W92069   9.688  33.151  14.401
20344W        W92070  14.720  16.228   4.040
20345W        W92071   4.741  26.096   4.073
20346W        W92072  19.809   9.829  12.193
20347W        W92073  30.115  36.846  10.556
20348W        W92074  17.433  27.884   0.528
20349W        W92075   8.274   8.226  12.709
20350W        W92076   4.221  23.516  13.864
20351W        W92077   7.766   5.851   1.220
20352W        W92078  31.010  15.680  12.131
20353W        W92079  34.938  28.580   1.163
20354W        W92080  13.272  36.720  12.066
20355W        W92081  13.537   6.838  13.380
20356W        W92082  22.464   7.713   2.840
20357W        W92083   5.948  12.526  10.705
20358W        W92084  29.918   2.165   3.019
20359W        W92085  41.378  19.848  10.979
20360W        W92086  27.980  32.960   3.878
20361W        W92087  10.162  14.532   0.437
20362W        W92088   0.085   9.073   3.286
20363W        W92089  27.420   2.982  14.938
20364W        W92090  39.975  26.544  13.792
20365W        W92091  42.417  26.196   3.539
20366W        W92092  41.326   1.051   4.648
20367W        W92093  31.144  25.232  14.271
20368W        W92094  27.023  20.609   2.680
20369W        W92095  40.714  16.686   4.089
20370W        W92096  32.487  24.649  14.444
20371W        W92097  28.031  14.756   2.456
20372W        W92098  40.530   4.055   4.174
20373W        W92099  40.279  25.088   3.615
20374W        W92100  33.389  39.061   2.591
20375W        W92101  23.710   9.412   3.341
20376W        W92102  14.226   8.843   1.925
20377W        W92103  44.219   4.412  12.469
20378W        W92104   1.485   1.091   2.676
20379W        W92105  35.082  21.218   4.585
20380W        W92106   7.861  28.712   2.819
20381W        W92107  20.683  22.892   0.956
20382W        W92108   7.668  43.365   0.923
20383W        W92109   2.276   1.886   0.924
20384W        W92110  21.068  22.677  11.123
20385W        W92111  17.191  17.212   1.244
20386W        W92112  10.986  12.067  10.425
20387W        W92113   0.206  33.351  14.360
20388W        W92114  30.498  37.827   3.134
20389W        W92115  16.726  41.115   2.083
20390W        W92116   3.508   7.352  14.252
20391W        W92117   0.103   6.868   3.749
20392W        W92118  15.202  33.523  12.540
20393W        W92119  12.085  31.596   2.217
20394W        W92120   6.322  41.701  13.425
20395W        W92121  20.577  36.520  14.661
20396W        W92122  37.180   2.881  11.101
20397W        W92123  20.698  36.664  13.745
20398W        W92124   0.680  35.863   4.293
20399W        W92125  38.486   8.321  12.425
20400W        W92126  40.068  18.307  10.638
20401W        W92127  16.587  40.327  10.217
20402W        W92128   5.487  24.190  12.148
20403W        W92129   9.630  22.073  12.573
20404W        W92130   0.696  13.124  11.310
20405W        W92131  24.046  25.277   5.404
20406W        W92132   5.148  30.188   2.075
20407W        W92133  11.285   1.832  13.268
20408W        W92134  10.421  29.709  11.337
20409W        W92135   7.739  33.117  14.861
20410W        W92136  26.937  19.146   0.565
20411W        W92137  36.510  31.011   1.412
20412W        W92138  41.828  37.269   3.250
20413W        W92139  39.184   5.362   1.095
20414W        W92140   3.831  37.179   0.914
20415W        W92141  20.784  17.188  12.892
20416W        W92142  38.560  17.774  12.103
20417W        W92143   2.915   5.682  12.131
20418W        W92144  15.732  33.633  14.815
20419W        W92145  27.639  20.684   2.464
20420W        W92146  15.594  14.684   0.648
20421W        W92147  19.218  37.795  12.585
20422W        W92148  18.894   8.147   4.209
20423W        W92149   7.975  31.536   3.284
20424W        W92150   9.800  40.558  14.892
20425W        W92151  26.554  36.541   3.846
20426W        W92152  38.540  34.471   2.214
20427W        W92153  35.655   7.293   1.859
20428W        W92154   5.761  39.834  12.425
20429W        W92155  23.057  35.649   1.188
20430W        W92156  17.760  44.020   2.781
20431W        W92157  37.039   0.692   2.126
20432W        W92158  17.048  31.505   1.631
20433W        W92159   1.437  44.623  12.997
20434W        W92160  41.442   2.664   3.871
20435W        W92161  19.667  17.080  13.229
20436W        W92162   8.164   0.675  11.121
20437W        W92163  22.798   1.087   4.049
20438W        W92164  33.133   3.741   1.308
20439W        W92165   8.105  33.815  12.703
20440W        W92166   1.835   9.797  13.267
20441W        W92167  20.439  43.405   2.373
20442W        W92168  13.720  16.632  14.306
20443W        W92169  35.958  15.754   1.286
20444W        W92170  24.749  31.407  12.529
20445W        W92171  30.451   3.700   1.821
20446W        W92172  13.350  21.912  13.947
20447W        W92173  15.770  21.522   2.224
20448W        W92174   5.361  29.605  12.107
20449W        W92175   7.949   7.230   0.835
20450W        W92176  43.591   8.139   3.509
20451W        W92177   6.484   5.059  13.978
20452W        W92178  26.068  32.938   1.323
20453W        W92179  20.475  14.107   3.746
20454W        W92180  35.480  31.446  13.471
20455W        W92181  43.732  37.712   4.682
20456W        W92182   0.500   5.618  11.282
20457W        W92183  34.082   0.261   1.837
20458W        W92184   9.487  39.485   3.395
20459W        W92185  28.664  18.279   0.953
20460W        W92186   3.845  13.307  10.952
20461W        W92187  44.513  24.532   4.559
20462W        W92188  14.707  34.318  11.893
20463W        W92189  11.729  38.912  14.769
20464W        W92190  42.522   1.822  12.186
20465W        W92191  41.518  24.402  14.884
20466W        W92192   6.993  30.675   0.960
20467W        W92193  35.872  10.296   4.648
20468W        W92194  27.240  12.692   2.930
20469W        W92195  38.510   4.409   0.910
20470W        W92196  26.616  10.660   3.662
20471W        W92197   3.424  41.125  14.450
20472W        W92198  40.972  10.761   0.854
20473W        W92199   1.039  29.097   0.344
20474W        W92200  34.884  36.636  14.101
20475W        W92201   0.018  28.487  13.910
20476W        W92202   6.802   2.739  11.435
20477W        W92203  33.410  15.709  12.461
20478W        W92204  18.539  36.213  12.945
20479W        W92205  25.053   4.774  14.499
20480W        W92206  24.971  31.338  13.127
20481W        W92207  27.561  37.550  10.870
20482W        W92208  36.861  23.925  11.211
20483W        W92209   8.745  19.560   3.773
20484W        W92210  40.749  26.966   0.230
20485W        W92211   8.659  39.359  13.921
20486W        W92212  43.642  12.776   3.247
20487W        W92213   3.924  21.344  14.267
20488W        W92214  24.039  23.918  14.153
20489W        W92215  40.224  26.503  13.350
20490W        W92216  19.501   5.071   4.590
20491W        W92217  27.977  20.014  12.450
20492W        W92218  10.829  39.323   3.414
20493W        W92219   6.314   4.375   3.230
20494W        W92220   6.728   5.501   0.979
20495W        W92221   8.144   8.857   4.086
20496W        W92222  34.506   5.647  14.391
20497W        W92223  23.136   3.432  10.556
20498W        W92224  25.463   5.349   1.762
20499W        W92225  38.917  30.116   0.197
20500W        W92226  29.554  33.856   1.839
20501W        W92227   7.614  19.017   3.212
20502W        W92228  20.257  40.230   1.933
20503W        W92229  15.293   1.300   0.760
20504W        W92230  33.042  29.068   1.684
20505W        W92231  25.229   5.353  10.617
20506W        W92232  19.463  18.663  13.847
20507W        W92233   0.778  32.073   2.115
20508W        W92234  31.920   7.837   1.849
20509W        W92235   9.924  31.243   1.430
20510W        W92236  35.254  32.980  11.590
20511W        W92237  39.020  14.203  12.366
20512W        W92238  44.975  12.105  14.304
20513W        W92239  39.954   7.236  11.945
20514W        W92240   7.460  23.097   2.737
20515W        W92241  16.533  14.767   4.570
20516W        W92242  42.476  14.393   0.875
20517W        W92243  37.198  23.494   1.187
20518W        W92244   2.263  43.549  14.491
20519W        W92245  40.377  19.045  14.409
20520W        W92246  44.531  24.129   4.165
20521W        W92247   6.724   1.965   2.527
20522W        W92248  24.318   0.321   2.329
20523W        W92249  14.906  43.926  14.374
20524W        W92250   6.837  14.335  13.632
20525W        W92251  34.296  10.807   0.409
20526W        W92252  39.368  11.183  12.570
20527W        W92253  16.506  23.653   2.465
20528W        W92254  19.361  42.421   0.980
20529W        W92255  27.884  40.696   1.719
20530W        W92256   1.996  10.959   3.573
20531W        W92257  31.598  12.724  12.554
20532W        W92258   9.262  10.281   2.621
20533W        W92259  42.791  24.404  13.569
20534W        W92260  33.082  43.328   3.817
20535W        W92261   6.144   7.381  13.515
20536W        W92262  18.260  21.536   3.113
20537W        W92263  29.446   0.744  12.574
20538W        W92264  29.166  31.533  11.471
20539W        W92265   1.501  14.660  12.697
20540W        W92266  44.143  37.295   0.856
20541W        W92267  41.947  16.228  13.857
20542W        W92268  41.360  15.415  12.424
20543W        W92269   1.181  19.947  12.572
20544W        W92270  44.402  24.936   1.272
20545W        W92271  17.699  17.575   4.325
20546W        W92272  41.321  41.424   2.496
20547W        W92273  43.680  10.846   3.107
20548W        W92274  42.367  11.669   3.131
20549W        W92275  23.390  30.326   4.225
20550W        W92276   4.348   0.745   4.401
20551W        W92277  34.149  44.886  12.692
20552W        W92278  24.094  42.127   4.776
20553W        W92279  23.151   2.899   4.549
20554W        W92280  36.334  36.797  14.306
20555W        W92281  15.743  24.968  10.583
20556W        W92282  24.663   7.787   2.853
20557W        W92283  28.874  11.254  14.825
20558W        W92284  43.561  29.088   0.314
20559W        W92285   5.639  40.086   3.243
20560W        W92286  37.945  35.678  11.632
20561W        W92287  41.338  20.559   1.407
20562W        W92288  20.963  29.164  14.912
20563W        W92289  19.084  26.136   2.892
20564W        W92290  31.759   8.704   3.059
20565W        W92291   0.336  42.177  11.444
20566W        W92292  13.050  41.115  12.442
20567W        W92293  18.374  17.610   1.932
20568W        W92294   0.648   8.464   9.802
20569W        W92295  38.365  14.564   5.082
20570W        W92296  40.056  29.985  14.868
20571W        W92297  25.745  26.487   1.822
20572W        W92298  44.759   5.752  11.942
20573W        W92299   2.144  33.808   2.222
20574W        W92300  19.782   8.639   1.785
20575W        W92301  15.664  29.393  10.998
20576W        W92302  30.831  36.886   1.839
20577W        W92303  16.759  35.547   4.188
20578W        W92304   8.313  34.560  13.118
20579W        W92305  35.671  30.813  13.861
20580W        W92306  24.286  10.889   4.318
20581W        W92307   7.974  41.743   2.216
20582W        W92308  31.387  25.086   2.869
20583W        W92309  20.056  16.271  10.684
20584W        W92310  25.448  10.096   4.867
20585W        W92311   6.582   7.814   4.648
20586W        W92312  40.069  34.896  11.103
20587W        W92313   8.513  31.472  14.855
20588W        W92314  32.001  11.252  11.142
20589W        W92315  14.079  25.978  13.814
20590W        W92316   8.742  10.781  14.471
20591W        W92317   2.004  19.624   2.639
20592W        W92318   9.776  14.722   4.640
20593W        W92319  42.862  37.941  14.455
20594W        W92320  10.228  18.853   0.479
20595W        W92321   9.192  40.490   3.298
20596W        W92322   2.701  33.860   3.939
20597W        W92323  27.500  24.024  11.256
20598W        W92324  20.766  37.498  10.989
20599W        W92325  17.721  25.748   1.833
20600W        W92326  37.398  15.581  13.469
20601W        W92327  31.621  25.471   3.176
20602W        W92328   1.981  19.176   3.863
20603W        W92329  41.822  15.554   1.015
20604W        W92330  18.255   5.692  13.491
20605W        W92331   3.324   1.012   4.194
20606W        W92332  22.141  31.635  10.727
20607W        W92333  14.582  33.133   2.744
20608W        W92334  16.429  20.296  12.792
20609W        W92335  38.114  32.360   0.722
20610W        W92336  42.876  23.557  11.969
20611W        W92337   9.231   9.201   4.253
20612W        W92338  36.828  26.683  13.148
20613W        W92339  31.660  37.890   1.217
20614W        W92340  40.253  27.285  12.931
20615W        W92341  19.515  22.116   1.360
20616W        W92342   1.898  16.670  13.767
20617W        W92343   3.476  35.990  12.880
20618W        W92344  44.418  25.046   0.770
20619W        W92345   3.183   6.703   1.006
20620W        W92346  31.401  26.186   3.508
20621W        W92347  33.636  17.915   4.152
20622W        W92348   5.255   4.829  10.058
20623W        W92349  14.152  24.564  11.115
20624W        W92350  33.112  24.296   4.212
20625W        W92351  15.095   8.760  12.993
20626W        W92352   4.825   9.233   1.477
20627W        W92353  22.673  44.817   1.268
20628W        W92354  13.435  22.940  12.592
20629W        W92355  26.945  36.899  14.334
20630W        W92356  21.141  38.030   1.148
20631W        W92357  28.352  39.009   0.726
20632W        W92358  32.059  14.482  12.373
20633W        W92359   1.596   0.418  12.536
20634W        W92360   5.185  37.208  13.484
20635W        W92361   0.359  39.413  12.218
20636W        W92362  39.867  38.522  10.809
20637W        W92363  43.070  24.108  11.473
20638W        W92364   2.175  18.103   3.179
20639W        W92365  29.905  22.852  13.926
20640W        W92366  22.744  29.637  11.065
20641W        W92367  25.482  17.365   0.752
20642W        W92368  22.115   9.389  14.414
20643W        W92369  30.949   2.962  14.662
20644W        W92370  26.547  29.961  11.555
20645W        W92371  19.843  18.510  14.231
20646W        W92372  22.033   1.497  13.894
20647W        W92373  40.938  23.756   4.050
20648W        W92374  29.042  11.369   3.624
20649W        W92375   4.647   6.618   5.038
20650W        W92376  14.067   0.802   4.126
20651W        W92377  17.138   4.263   4.575
20652W        W92378  14.636   0.949  12.493
20653W        W92379  21.660  38.456  12.402
20654W        W92380  11.744  36.933  11.678
20655W        W92381  25.645  14.078   2.935
20656W        W92382   9.705   8.735   4.632
20657W        W92383  15.363   6.761   4.752
20658W        W92384  27.229  37.035   0.831
20659W        W92385  11.163   9.270   2.143
20660W        W92386  10.161   3.344  12.722
20661W        W92387  43.591   0.395  11.539
20662W        W92388  39.017  13.636  13.682
20663W        W92389  44.085  18.328  11.502
20664W        W92390  37.873  12.243   2.665
20665W        W92391   6.085  32.430   2.805
20666W        W92392  31.177  17.247  11.533
20667W        W92393  11.067  14.395   2.682
20668W        W92394  41.273  15.183  11.951
20669W        W92395  25.414   3.736  12.499
20670W        W92396  17.623   5.834   1.922
20671W        W92397  15.585   0.221  10.755
20672W        W92398  16.691  40.307   5.638
20673W        W92399  17.157   2.360   3.336
20674W        W92400  40.989   7.679  14.316
20675W        W92401  17.781  40.234  10.561
20676W        W92402  35.879   8.773  12.909
20677W        W92403  42.404  41.334   3.827
20678W        W92404   2.710  31.191   3.482
20679W        W92405  18.043  18.533  14.469
20680W        W92406  36.748  25.807  11.234
20681W        W92407  29.161   7.655  11.997
20682W        W92408  12.860  17.672   4.498
20683W        W92409   9.695  27.481  12.925
20684W        W92410  16.066  33.041   4.138
20685W        W92411  20.148  33.788   4.088
20686W        W92412   5.640   1.504  11.042
20687W        W92413  14.839   5.928   4.214
20688W        W92414  20.804  13.572  11.052
20689W        W92415  35.000  33.115   1.489
20690W        W92416  44.895  38.044  10.677
20691W        W92417  27.556   7.892  14.839
20692W        W92418  20.726  33.223  14.924
20693W        W92419   7.959  21.023  11.713
20694W        W92420  22.553  23.225   4.580
20695W        W92421  26.629  30.522   1.347
20696W        W92422   5.136  31.953  12.912
20697W        W92423   0.464  21.085  11.054
20698W        W92424  25.674  12.630   0.291
20699W        W92425  41.583  34.669   4.685
20700W        W92426  38.281  12.904   0.605
20701W        W92427  42.290  22.010  12.661
20702W        W92428   7.309  39.763  14.492
20703W        W92429  16.562  41.370   0.912
20704W        W92430  24.512  34.606  13.809
20705W        W92431  25.901   5.866   1.891
20706W        W92432  20.256  12.032  11.481
20707W        W92433  11.103  37.803   4.251
20708W        W92434  21.270  18.661  11.785
20709W        W92435   7.954  24.694   4.640
20710W        W92436  13.329  26.512   1.354
20711W        W92437  23.621  19.844  11.646
20712W        W92438  13.812   7.794  13.514
20713W        W92439   5.400  23.171  14.863
20714W        W92440   4.787  42.752   4.152
20715W        W92441  31.066  25.624  10.217
20716W        W92442  22.964  40.942   2.640
20717W        W92443  42.926  34.663   1.702
20718W        W92444  39.389  16.499   2.694
20719W        W92445  17.756   2.954   0.497
20720W        W92446  38.938  40.522   1.821
20721W        W92447  18.988  17.733   4.671
20722W        W92448   3.590  11.287   3.146
20723W        W92449  17.327   9.776  14.508
20724W        W92450  32.677   1.365   1.487
20725W        W92451  18.682  38.782  12.628
20726W        W92452   4.843  39.946  11.165
20727W        W92453  37.848  28.547  14.079
20728W        W92454  24.603  22.984  12.593
20729W        W92455  30.097  13.051   4.328
20730W        W92456   9.108   3.884  13.364
20731W        W92457  39.372  20.165   1.421
20732W        W92458  29.942  43.939   4.850
20733W        W92459   9.909   4.607  12.506
20734W        W92460  13.265  20.012  13.907
20735W        W92461  23.960  13.771  11.626
20736W        W92462   5.952  43.703  10.681
20737W        W92463  33.009  33.686  12.268
20738W        W92464  37.311   6.142   0.936
20739W        W92465  32.457  17.469   2.364
20740W        W92466  16.677   8.307  10.467
20741W        W92467  26.551  43.028  11.203
20742W        W92468  17.751  37.923   2.299
20743W        W92469  21.986   8.922   0.370
20744W        W92470  31.866   3.430   1.404
20745W        W92471  41.809  23.120   1.645
20746W        W92472  21.012  44.411   0.892
20747W        W92473  10.793  25.714  12.513
20748W        W92474  40.925   5.609   0.324
20749W        W92475  40.530  29.457   1.830
20750W        W92476   0.725  26.417  11.616
20751W        W92477  11.392  11.688   2.216
20752W        W92478  10.284  43.300  12.907
20753W        W92479  11.914   3.029  13.580
20754W        W92480  19.710  31.825   3.086
20755W        W92481  18.577  29.284   2.649
20756W        W92482  37.534  25.042  11.566
20757W        W92483  33.999  41.522  12.090
20758W        W92484  14.640   9.613   0.865
20759W        W92485  19.141   1.764   2.867
20760W        W92486   1.760   0.329   0.377
20761W        W92487  37.367  36.163  12.803
20762W        W92488  31.931  39.877  13.374
20763W        W92489  36.406  41.092  12.051
20764W        W92490  10.373  32.119   4.665
20765W        W92491   7.306  12.358   0.417
20766W        W92492  19.991   9.859   1.391
20767W        W92493  19.986  26.752   1.278
20768W        W92494  32.830  26.013   3.585
20769W        W92495   0.014  28.568   3.118
20770W        W92496  38.823  14.155   1.327
20771W        W92497  37.767  25.927  12.562
20772W        W92498   8.051  34.015  14.535
20773W        W92499  34.983  25.588  11.944
20774W        W92500   4.725   6.666  12.268
20775W        W92501  28.110  36.316   3.690
20776W        W92502  29.564  13.777  10.566
20777W        W92503  36.515   2.899   2.412
20778W        W92504   2.373   2.803  10.780
20779W        W92505  25.113  29.142  14.394
20780W        W92506   1.348  40.299  12.052
20781W        W92507   3.657  30.558   4.096
20782W        W92508   9.436  16.258   4.601
20783W        W92509  22.215   7.834   4.694
20784W        W92510  34.183  13.805   0.301
20785W        W92511  29.213  26.636   1.239
20786W        W92512  39.936  31.159   2.486
20787W        W92513  43.976  31.141   3.350
20788W        W92514   9.084  31.797   3.221
20789W        W92515   3.723  35.626   2.577
20790W        W92516  29.755  26.797   5.042
20791W        W92517  27.691  19.186  13.987
20792W        W92518  35.522  23.397   4.123
20793W        W92519  27.010  28.724  14.382
20794W        W92520  44.881   3.584  10.774
20795W        W92521  25.100   4.234   2.163
20796W        W92522  22.542  23.235   1.653
20797W        W92523  21.519  29.262   4.628
20798W        W92524  43.122  27.506  10.918
20799W        W92525  27.751  42.068  11.228
20800W        W92526  32.905  39.772  10.540
20801W        W92527  18.190  42.272   1.512
20802W        W92528  37.954  41.415   2.435
20803W        W92529  14.298  15.807   4.717
20804W        W92530  37.113  28.221   0.246
20805W        W92531  33.489  28.630  12.853
20806W        W92532  24.814   3.171  12.972
20807W        W92533  41.911  35.857   1.816
20808W        W92534   9.334   4.011   4.523
20809W        W92535   6.305   9.673   4.539
20810W        W92536  20.838  14.165  10.492
20811W        W92537  29.193  31.644   0.006
20812W        W92538  32.596  37.881  12.280
20813W        W92539  42.051  16.199  14.362
20814W        W92540   4.417  38.961   4.439
20815W        W92541  21.135   7.688  13.888
20816W        W92542   4.016  18.691  12.899
20817W        W92543  20.071  29.482  13.862
20818W        W92544  10.634  31.437  13.097
20819W        W92545  13.615  22.467  12.483
20820W        W92546  19.576   3.783   2.335
20821W        W92547   4.180  43.215  11.937
20822W        W92548  36.537  23.467  14.441
20823W        W92549   7.362  31.072   1.477
20824W        W92550  20.304  36.010  11.567
20825W        W92551  29.897  10.099  12.943
20826W        W92552  36.429  28.995   4.779
20827W        W92553  14.184  23.041   4.582
20828W        W92554  32.358  17.782   0.822
20829W        W92555   5.401  29.570   4.370
20830W        W92556  43.890  23.704  13.925
20831W        W92557  26.937  26.131   1.447
20832W        W92558  18.948  24.036  11.609
20833W        W92559  29.409   5.670  14.396
20834W        W92560  19.878  11.753  13.813
20835W        W92561  27.244  27.627  13.766
20836W        W92562  31.736  28.141   3.306
20837W        W92563  38.486  34.912  13.356
20838W        W92564  10.326  25.549  10.177
20839W        W92565   3.751  42.004  14.424
20840W        W92566  25.150  29.574  12.679
20841W        W92567  42.223  37.033  10.793
20842W        W92568  40.885  43.716   0.871
20843W        W92569  39.054  10.374   4.543
20844W        W92570  32.100  30.621   3.676
20845W        W92571  42.898  20.500   3.928
20846W        W92572  44.306  22.286  13.495
20847W        W92573  39.510  21.989   4.123
20848W        W92574  35.769  18.264  13.705
20849W        W92575   4.377   3.963  12.905
20850W        W92576  18.525  14.438  14.874
20851W        W92577  13.370  20.502  11.937
20852W        W92578  25.381  32.035  10.692
20853W        W92579  17.178  15.794   2.161
20854W        W92580  38.973   9.532  11.892
20855W        W92581  26.682  24.638   3.955
20856W        W92582  28.713  31.537  13.897
20857W        W92583  39.626  38.787  13.843
20858W        W92584  21.015  29.687  14.377
20859W        W92585  15.353   4.706   3.312
20860W        W92586  13.549   9.730  12.886
20861W        W92587  22.812  34.030   4.099
20862W        W92588  13.583   7.484  13.116
20863W        W92589  14.290  16.147   2.232
20864W        W92590  29.560  23.671  12.305
20865W        W92591  44.165  35.843  11.999
20866W        W92592  29.321  25.164  10.478
20867W        W92593   7.209  25.864   0.027
20868W        W92594  26.520   7.652  11.891
20869W        W92595   4.927   1.447  11.597
20870W        W92596   1.368  15.564  10.795
20871W        W92597  19.942   3.230   3.313
20872W        W92598  23.655  44.039   0.308
20873W        W92599  39.832  18.785   2.811
20874W        W92600   6.368  31.055   1.466
20875W        W92601  42.686  30.929   2.187
20876W        W92602  44.028   1.188  14.885
20877W        W92603  26.603  14.397  10.555
20878W        W92604  44.962  13.777   3.147
20879W        W92605   5.808   1.288   4.583
20880W        W92606  20.880  21.056   3.723
20881W        W92607   8.841  30.714   1.000
20882W        W92608  10.330  34.074   1.836
20883W        W92609  34.339  13.558  11.673
20884W        W92610  32.092  36.916  13.480
20885W        W92611  17.756  12.569  12.749
20886W        W92612  14.123  27.720   2.256
20887W        W92613  42.144  11.637   4.068
20888W        W92614  21.894   2.858   2.732
20889W        W92615  27.573  39.855   0.759
20890W        W92616  25.423  35.837  10.714
20891W        W92617  44.523  23.529  11.458
20892W        W92618  42.524  37.449  11.535
20893W        W92619  18.787  25.714  13.588
20894W        W92620  13.876  12.028   3.193
20895W        W92621  43.829  11.621  14.463
20896W        W92622   4.096  17.528  12.752
20897W        W92623   0.749  34.140  14.788
20898W        W92624  26.093  43.467  13.582
20899W        W92625   7.663   0.529  12.872
20900W        W92626  41.357  23.901  14.857
20901W        W92627   3.685  11.545  13.853
20902W        W92628   0.708  19.235   1.794
20903W        W92629  11.502  38.997  13.085
20904W        W92630   8.301  32.026   4.200
20905W        W92631  16.055   0.280  14.792
20906W        W92632  40.752  21.203   4.153
20907W        W92633  21.803  12.478  10.292
20908W        W92634  23.140   5.609   2.886
20909W        W92635   8.276  42.273  14.038
20910W        W92636  42.457  32.438  12.433
20911W        W92637  29.693   1.187   2.334
20912W        W92638  35.336   3.669  14.339
20913W        W92639  20.978  41.967   2.760
20914W        W92640  15.519   2.625  13.566
20915W        W92641  13.907  16.026   1.014
20916W        W92642  23.763   1.756  12.069
20917W        W92643  40.928  30.617  14.023
20918W        W92644  39.374  33.615  14.814
20919W        W92645   6.425  18.269  12.366
20920W        W92646  11.379  30.863   4.709
20921W        W92647  18.069   8.493  12.044
20922W        W92648  37.101  44.451   2.177
20923W        W92649  35.894   1.004  14.967
20924W        W92650   7.769  30.491  12.122
20925W        W92651  18.848  11.429   1.905
20926W        W92652   2.841  16.008   0.373
20927W        W92653  29.923   6.413  12.450
20928W        W92654  37.244  32.485  12.956
20929W        W92655  33.637  14.096  14.928
20930W        W92656   8.103  25.336   2.804
20931W        W92657  40.418  30.746  13.834
20932W        W92658  26.044   4.139   4.868
20933W        W92659  16.792  30.598   3.615
20934W        W92660  31.969  37.389  10.588
20935W        W92661  23.244  13.754  14.322
20936W        W92662  33.824  39.345   0.789
20937W        W92663  29.868  25.136  13.914
20938W        W92664   0.505  16.435  11.165
20939W        W92665  17.704  43.197   2.321
20940W        W92666   4.731   7.732  12.031
20941W        W92667  25.161  35.945  14.790
20942W        W92668  36.593  36.265   4.556
20943W        W92669   6.861   2.575   1.750
20944W        W92670  44.764  35.035   0.123
20945W        W92671  29.962  17.668  11.408
20946W        W92672  44.301  40.317   0.256
20947W        W92673   5.784  33.880  13.363
20948W        W92674  17.983  19.833  11.926
20949W        W92675  18.606   0.029  11.975
20950W        W92676  32.312  35.883   4.295
20951W        W92677  44.707  12.747  13.538
20952W        W92678  39.028  10.905   1.879
20953W        W92679  11.665  44.354  13.554
20954W        W92680  14.768   4.446  14.707
20955W        W92681   8.448  27.022  12.756
20956W        W92682  27.115  28.793  11.294
20957W        W92683  32.875  12.201   4.481
20958W        W92684  44.851  12.416  13.920
20959W        W92685  14.335   8.597   2.392
20960W        W92686  17.752  26.976  14.938
20961W        W92687  20.148  19.928   1.224
20962W        W92688  34.116  22.219  14.929
20963W        W92689  29.770  13.216   0.840
20964W        W92690  27.219  23.008   1.085
20965W        W92691  20.998   8.208   2.182
20966W        W92692  21.202  36.899  10.669
20967W        W92693   7.718  42.083  12.081
20968W        W92694  31.121  34.866   1.449
20969W        W92695  25.370  10.531  12.040
20970W        W92696   7.689  23.509  12.751
20971W        W92697  42.968  17.056  10.946
20972W        W92698  42.351   1.985  10.749
20973W        W92699  11.785  15.667   2.062
20974W        W92700   0.439  29.627   2.327
20975W        W92701   4.863   0.773  13.922
20976W        W92702   7.374   7.295   1.728
20977W        W92703  13.148  21.024   1.726
20978W        W92704  42.776  38.774  11.668
20979W        W92705  21.056   4.826   3.749
20980W        W92706  33.495  14.039   0.440
20981W        W92707  15.563  39.802   9.787
20982W        W92708  16.237  24.936  10.738
20983W        W92709  32.547  19.686  10.701
20984W        W92710  15.181  24.870  11.102
20985W        W92711  12.787   3.415   3.222
20986W        W92712  34.526  21.972   2.447
20987W        W92713   7.099   8.628  10.522
20988W        W92714   4.461   8.177   2.170
20989W        W92715   4.557  24.243   3.205
20990W        W92716  22.792   7.082  13.534
20991W        W92717   7.867  43.378  14.873
20992W        W92718  29.006  37.098   0.145
20993W        W92719  31.210  41.763  11.105
20994W        W92720   6.377  39.615  14.304
20995W        W92721   7.299  29.687  12.751
20996W        W92722   8.169  10.275  11.200
20997W        W92723  19.103  27.278   2.755
20998W        W92724   3.591   5.073  12.892
20999W        W92725  21.026  43.850   3.882
21000W        W92726  31.265  43.415   5.074
21001W        W92727  20.705  33.430   4.906
21002W        W92728  21.293  36.920   4.365
21003W        W92729  38.398  44.217  12.603
21004W        W92730  31.672   6.148  12.139
21005W        W92731   0.272  22.223  11.829
21006W        W92732  28.156  22.760  10.566
21007W        W92733  32.362  16.710   1.727
21008W        W92734  17.682  22.602  11.623
21009W        W92735  39.312  21.132   4.159
21010W        W92736  36.750  25.098   4.855
21011W        W92737  32.796  28.093   0.907
21012W        W92738  16.639   8.929   1.372
21013W        W92739  21.099  32.665   1.295
21014W        W92740  12.751  33.168  13.949
21015W        W92741   6.877  23.998  12.575
21016W        W92742  26.181  35.646  11.549
21017W        W92743  16.104   4.341  13.534
21018W        W92744  41.833   7.693  14.959
21019W        W92745  35.770  17.823   2.832
21020W        W92746  35.903  39.488   4.676
21021W        W92747   9.986  13.383  12.407
21022W        W92748  21.694  16.796   1.884
21023W        W92749  37.818  16.400  13.453
21024W        W92750   0.182  11.632  10.892
21025W        W92751  15.046  34.518   0.827
21026W        W92752  31.486  23.917  11.460
21027W        W92753  44.382  39.021   2.915
21028W        W92754  30.857  15.832   4.135
21029W        W92755   0.447   7.260  14.874
21030W        W92756  35.146  18.659  12.459
21031W        W92757  22.281  12.859   4.276
21032W        W92758  44.894  29.119  10.750
21033W        W92759  20.987   4.743   0.764
21034W        W92760  11.581   0.338  13.504
21035W        W92761  20.849  39.589  10.597
21036W        W92762  20.486  16.259   0.024
21037W        W92763  39.993   4.362  12.990
21038W        W92764  37.295  28.340  11.475
21039W        W92765  36.681  28.022   4.562
21040W        W92766   2.812  36.100   4.105
21041W        W92767  35.914  29.080   0.410
21042W        W92768  25.952  24.511  14.816
21043W        W92769   2.298  21.503   3.871
21044W        W92770  41.858   2.294  10.745
21045W        W92771  22.064   2.591  11.648
21046W        W92772  32.906  16.547   1.250
21047W        W92773  42.486   1.864   1.403
21048W        W92774  17.722  21.177  13.570
21049W        W92775  21.775  23.914   3.584
21050W        W92776  18.821   8.984  12.468
21051W        W92777   5.401   3.849  13.035
21052W        W92778   9.240  39.434   2.398
21053W        W92779  11.328  41.768   1.898
21054W        W92780  38.750  28.478  11.199
21055W        W92781  28.454  14.647  11.537
21056W        W92782  37.567  42.423  13.269
21057W        W92783  11.598  22.721   4.054
21058W        W92784  37.454   5.173  13.399
21059W        W92785   8.214  35.116  13.792
21060W        W92786  23.983  37.793   2.784
21061W        W92787  33.906  37.897   1.307
21062W        W92788  23.987  16.586  12.809
21063W        W92789  33.911  26.872  11.182
21064W        W92790  41.807  15.039  12.689
21065W        W92791  13.107  23.603  12.114
21066W        W92792  25.036  39.892   3.831
21067W        W92793   4.442  30.758   2.925
21068W        W92794  37.622  43.998   2.236
21069W        W92795  29.704  30.659   3.687
21070W        W92796  42.635  15.773   0.698
21071W        W92797  30.589  13.880  11.601
21072W        W92798  18.154  35.382   0.242
21073W        W92799  11.617   3.529   0.496
21074W        W92800  12.521  32.552  14.592
21075W        W92801  42.372  11.207   3.389
21076W        W92802  10.106  34.064  11.156
21077W        W92803   7.732  28.377  14.330
21078W        W92804  42.888  18.459  14.987
21079W        W92805  16.122  37.602  12.926
21080W        W92806  10.116  19.792  12.920
21081W        W92807   0.109  17.606  14.933
21082W        W92808  23.318  34.125   3.889
21083W        W92809  32.845   2.946  11.142
21084W        W92810  31.524  29.480  10.912
21085W        W92811   1.414  35.505  12.426
21086W        W92812  43.323  30.527   4.667
21087W        W92813  28.242  32.951   4.314
21088W        W92814  40.625   7.401  10.033
21089W        W92815   2.015   6.919   3.609
21090W        W92816  33.855  25.338  14.689
21091W        W92817  21.708   3.435   1.895
21092W        W92818   4.371  25.346   1.713
21093W        W92819  31.081  43.311   4.607
21094W        W92820  42.349  12.194  12.087
21095W        W92821  22.093  12.268   1.166
21096W        W92822  27.228  11.765   2.401
21097W        W92823  38.324  34.490   3.686
21098W        W92824  19.030  28.727   3.118
21099W        W92825   9.378  26.659   1.813
21100W        W92826  40.507  26.753  10.798
21101W        W92827  36.897   4.968  11.087
21102W        W92828  36.132  23.718   1.275
21103W        W92829   8.412   1.681  10.736
21104W        W92830   0.176  40.337  12.436
21105W        W92831   0.833  34.841   1.786
21106W        W92832  25.289   0.739  11.972
21107W        W92833  41.581  42.831  12.505
21108W        W92834  34.571   5.152   1.858
21109W        W92835  43.910  29.480  13.933
21110W        W92836  29.161  14.371   3.184
21111W        W92837  21.986  31.180  11.037
21112W        W92838  31.767  33.506  11.430
21113W        W92839   8.856  21.035  12.894
21114W        W92840  42.521   3.387   0.852
21115W        W92841  43.760   0.289   3.667
21116W        W92842  11.246  32.542   1.339
21117W        W92843   0.451  35.821   0.213
21118W        W92844  31.496   4.421   3.191
21119W        W92845  37.849  27.202  13.308
21120W        W92846  23.676  10.878  11.384
21121W        W92847  40.358  42.083   2.411
21122W        W92848  10.374  17.553  10.324
21123W        W92849  13.647   9.350  10.984
21124W        W92850  25.660  41.095  11.133
21125W        W92851  24.953  24.987   3.269
21126W        W92852  36.868   7.782   2.252
21127W        W92853  19.005  32.098  13.556
21128W        W92854  11.689  41.363   0.312
21129W        W92855  15.792  21.115  13.849
21130W        W92856   1.284  17.974   2.977
21131W        W92857  28.145  28.798   5.159
21132W        W92858   4.646   7.391  13.899
21133W        W92859  22.186  22.331  10.953
21134W        W92860  31.897  35.658   0.925
21135W        W92861  32.952  23.702  14.456
21136W        W92862  18.712   9.740  14.806
21137W        W92863   3.219  43.302  13.184
21138W        W92864  18.492  24.144  10.726
21139W        W92865   9.225   6.805  13.561
21140W        W92866  21.228  38.807   4.614
21141W        W92867  41.622   5.244   2.896
21142W        W92868   4.901   9.861  12.659
21143W        W92869  24.350  15.658   4.481
21144W        W92870   2.922   0.235  11.482
21145W        W92871  20.545   0.884  13.104
21146W        W92872  27.473  23.984  10.751
21147W        W92873  37.318  19.219   3.297
21148W        W92874  39.264  27.478  13.349
21149W        W92875   3.966   6.285  13.360
21150W        W92876   6.317   3.459  14.100
21151W        W92877  29.107  11.570  11.164
21152W        W92878  12.125  13.545  11.632
21153W        W92879  25.005   6.683   4.908
21154W        W92880  21.487  39.929  14.710
21155W        W92881  30.409  22.012   0.274
21156W        W92882   8.273   9.650  14.998
21157W        W92883   1.378  26.228   2.184
21158W        W92884  14.292  38.982   3.699
21159W        W92885  20.411  24.543   2.243
21160W        W92886   4.461   9.270   2.303
21161W        W92887  28.215  42.887  11.237
21162W        W92888  39.033  30.861   1.790
21163W        W92889  31.859   7.819   1.197
21164W        W92890   2.864  40.021  11.664
21165W        W92891   5.050  23.574   2.488
21166W        W92892  43.481   8.758  10.434
21167W        W92893  20.570  39.081   3.231
21168W        W92894  33.990  28.956   0.472
21169W        W92895  44.920  37.593   4.201
21170W        W92896  17.253  29.181  12.439
21171W        W92897  26.644  17.546   0.417
21172W        W92898   1.332  18.824  10.719
21173W        W92899  13.046  24.878  12.864
21174W        W92900  42.909  12.367   3.550
21175W        W92901  31.591  25.724   5.194
21176W        W92902   7.721   2.250  13.284
21177W        W92903   9.204  36.016  14.964
21178W        W92904  20.831   0.640   4.201
21179W        W92905   4.812  22.015  13.713
21180W        W92906  37.117  25.751  11.584
21181W        W92907   9.695  22.107   3.555
21182W        W92908  26.511  13.538   5.040
21183W        W92909  12.257   6.730   0.192
21184W        W92910   9.639  38.343   2.789
21185W        W92911  18.645  33.486   2.626
21186W        W92912   4.619  38.392   0.814
21187W        W92913  14.876  25.115   0.011
21188W        W92914  29.942  32.757   2.675
21189W        W92915   9.242   0.979  14.531
21190W        W92916   2.275   3.731   1.465
21191W        W92917  30.157  36.319   0.350
21192W        W92918  33.017  40.941  12.370
21193W        W92919  28.487  32.013  13.962
21194W        W92920   8.933   8.898   0.878
21195W        W92921   5.377   8.671   3.057
21196W        W92922  25.962   3.692   2.835
21197W        W92923  27.949  40.219  14.376
21198W        W92924  33.235  26.049  13.460
21199W        W92925  19.829  29.058   1.618
21200W        W92926  25.387  33.425   2.713
21201W        W92927   0.076  38.385   0.758
21202W        W92928  13.320  22.126  10.553
21203W        W92929  20.913  31.289   1.373
21204W        W92930  29.231   5.376  10.317
21205W        W92931  19.759  41.583   0.985
21206W        W92932  33.044   0.962   4.602
21207W        W92933  34.175  13.637   0.902
21208W        W92934   5.185  34.207   2.729
21209W        W92935   0.940  26.967   1.955
21210W        W92936  38.656  30.238   2.183
21211W        W92937   6.432  38.557   0.700
21212W        W92938  44.235   5.401  13.845
21213W        W92939   8.412  35.551  10.853
21214W        W92940  29.467  33.699   1.298
21215W        W92941   7.250  24.109  13.541
21216W        W92942  25.234  12.799  12.057
21217W        W92943  15.131  12.624   4.554
21218W        W92944  33.021  32.286   2.849
21219W        W92945  10.830  31.038  12.849
21220W        W92946   6.718  27.267   3.355
21221W        W92947  29.727  42.603  14.794
21222W        W92948   9.763   4.207  14.682
21223W        W92949  34.642   1.910  12.767
21224W        W92950  41.256  24.408  13.048
21225W        W92951  37.553  26.110  13.033
21226W        W92952   1.511  34.155   1.714
21227W        W92953  11.310  23.050  12.423
21228W        W92954  34.952  28.242  10.845
21229W        W92955  34.077  29.884   0.946
21230W        W92956   6.155  38.049   3.822
21231W        W92957  12.351  28.506  13.440
21232W        W92958  36.444   2.142  14.105
21233W        W92959  40.220  17.014   0.032
21234W        W92960  44.484   7.570   9.793
21235W        W92961   8.694  14.145  12.813
21236W        W92962  19.730  11.374   1.794
21237W        W92963  29.782  31.004  12.853
21238W        W92964  34.113  33.970   3.660
21239W        W92965  21.463   5.794   0.760
21240W        W92966   6.277  27.838  13.889
21241W        W92967  13.790  31.450   4.121
21242W        W92968  28.720  10.775  13.925
21243W        W92969  40.008  36.649   2.343
21244W        W92970   0.118  19.736  10.739
21245W        W92971  17.054  32.524  12.851
21246W        W92972  31.648  31.716   1.805
21247W        W92973  30.040  13.592  10.757
21248W        W92974  36.457  34.474  10.941
21249W        W92975   4.466  31.328  13.937
21250W        W92976   0.322   8.385   3.921
21251W        W92977   3.919   4.737  13.072
21252W        W92978  10.171  29.691  12.756
21253W        W92979  36.691  12.130   4.187
21254W        W92980  12.403   8.275   4.167
21255W        W92981  29.898  28.045  11.117
21256W        W92982   8.292  20.646   3.270
21257W        W92983  20.467  17.104   3.723
21258W        W92984  29.345   1.755   4.841
21259W        W92985  17.009  28.134   4.052
21260W        W92986  43.687  15.665   3.537
21261W        W92987  37.852  31.851   3.307
21262W        W92988   2.894   6.829   2.619
21263W        W92989  38.583  30.525   0.805
21264W        W92990   7.728  23.347   3.711
21265W        W92991   5.284  11.220  14.114
21266W        W92992   2.843   6.448   3.381
21267W        W92993  35.417  17.269   3.680
21268W        W92994  23.961  42.939  11.972
21269W        W92995  16.190  16.142   3.644
21270W        W92996  27.253  27.085   3.259
21271W        W92997  27.949   9.394  10.220
21272W        W92998  25.382   9.748  10.774
21273W        W92999   3.888   6.678   1.971
21274W        W93000  42.930  28.047  12.398
21275W        W93001  37.069  41.824  13.640
21276W        W93002  21.474  35.655  11.214
21277W        W93003  24.072  10.797   1.321
21278W        W93004   5.307   7.128  10.676
21279W        W93005  17.261  43.490   2.373
21280W        W93006  41.528   1.538   0.352
21281W        W93007  13.652  20.049   3.697
21282W        W93008  29.550  29.950   1.922
21283W        W93009   7.915  43.036  12.096
21284W        W93010  27.777  24.595   0.377
21285W        W93011  15.292  29.614  13.020
21286W        W93012  11.282  32.150   0.364
21287W        W93013  30.264   8.192   3.384
21288W        W93014  36.554  43.699   2.322
21289W        W93015  26.221   8.686   2.887
21290W        W93016  20.706  17.710   2.621
21291W        W93017  38.406  30.880   4.733
21292W        W93018  22.402  39.560  14.321
21293W        W93019  41.772  13.362  13.422
21294W        W93020  43.993  10.820  11.561
21295W        W93021  40.992  37.835   2.324
21296W        W93022  44.002   3.913   4.079
21297W        W93023  25.098   9.004   0.030
21298W        W93024  33.163   7.384  13.004
21299W        W93025  16.905  21.592   0.804
21300W        W93026  18.588  12.633   2.709
21301W        W93027  37.863   5.746   1.404
21302W        W93028  35.885   6.777   3.231
21303W        W93029  38.301  11.955  14.899
21304W        W93030  26.597  27.003   0.372
21305W        W93031   0.353  36.286   2.434
21306W        W93032   6.702  10.349   1.271
21307W        W93033  25.914   3.337   1.310
21308W        W93034   0.378  42.329  12.325
21309W        W93035   9.405  16.135  12.021
21310W        W93036  40.780  16.816   0.808
21311W        W93037  34.520  11.216  12.502
21312W        W93038  10.149  17.276  10.706
21313W        W93039  13.247  20.517   2.292
21314W        W93040   0.048  37.643  13.933
21315W        W93041  31.130  23.666  10.638
21316W        W93042  26.561  18.582   2.399
21317W        W93043  44.915  37.374   9.920
21318W        W93044  14.785   6.432  11.026
21319W        W93045   5.795  11.186  13.459
21320W        W93046  44.389  31.361  14.913
21321W        W93047  18.396  11.288  14.319
21322W        W93048  35.631  33.078  10.742
21323W        W93049  23.949   8.897  11.597
21324W        W93050  37.408  38.325  11.663
21325W        W93051  40.955  41.140   3.718
21326W        W93052  21.988  19.064  12.819
21327W        W93053  15.756  24.937  12.106
21328W        W93054   2.994  14.922  13.062
21329W        W93055  26.386  21.167  10.816
21330W        W93056  25.661  23.097   4.357
21331W        W93057   3.447  35.259  14.806
21332W        W93058  29.009  29.410   1.247
21333W        W93059   6.953   4.846   2.095
21334W        W93060  42.741  35.601  13.025
21335W        W93061  38.609   6.848   2.643
21336W        W93062  28.446  14.048  10.906
21337W        W93063  16.119  18.505   0.386
21338W        W93064  43.020  13.839  13.760
21339W        W93065   4.284  25.104   3.336
21340W        W93066   3.932  32.654  14.834
21341W        W93067   2.284  11.024  13.615
21342W        W93068   9.673  16.180  14.549
21343W        W93069  14.009  41.898   2.866
21344W        W93070  18.202  35.420  10.877
21345W        W93071  43.466  11.263  13.017
21346W        W93072  24.714  36.960  13.916
21347W        W93073  24.183   9.695  14.058
21348W        W93074  20.827  18.837  14.451
21349W        W93075  24.727  19.179  14.323
21350W        W93076  22.402  21.616   0.033
21351W        W93077  22.115  28.943  14.436
21352W        W93078  44.004  26.416   0.809
21353W        W93079  26.760  15.380   1.712
21354W        W93080   6.961  37.405   4.707
21355W        W93081  16.897   5.887   1.028
21356W        W93082  19.416  36.629   4.162
21357W        W93083  12.803  27.168  13.857
21358W        W93084  39.835   4.216   3.293
21359W        W93085  44.078  42.180   0.780
21360W        W93086  35.834  41.343   0.395
21361W        W93087  40.264   3.449  10.862
21362W        W93088   2.921  29.668  12.656
21363W        W93089   4.403  25.540  12.679
21364W        W93090   0.696  23.781  11.044
21365W        W93091  24.989  21.308   2.462
21366W        W93092  25.576   6.868   2.437
21367W        W93093  18.158  16.584   4.655
21368W        W93094  19.714  27.445  12.927
21369W        W93095  31.662  23.685  10.666
21370W        W93096  18.835  14.742   2.623
21371W        W93097  11.612  15.599   0.369
21372W        W93098   1.003  37.785  12.629
21373W        W93099  42.379  16.155   3.799
21374W        W93100  20.025  18.720   0.030
21375W        W93101  32.510  21.317  13.964
21376W        W93102  11.938  38.405  12.535
21377W        W93103  11.790  37.969   0.345
21378W        W93104  15.525  38.917   1.915
21379W        W93105   9.739  36.673   4.133
21380W        W93106   0.548  44.912  13.915
21381W        W93107  39.327  39.889   4.633
21382W        W93108  10.186  32.423   2.892
21383W        W93109  34.111  43.385  11.142
21384W        W93110  34.068  28.394  11.035
21385W        W93111  37.705  17.543   0.839
21386W        W93112  26.030  27.661  10.896
21387W        W93113  19.691  44.662   4.267
21388W        W93114  25.416  23.520  12.444
21389W        W93115  41.389   1.777   1.881
21390W        W93116  43.333   6.248   0.467
21391W        W93117   4.244  23.296   2.212
21392W        W93118   0.353  36.793  11.464
21393W        W93119  22.971  40.243   4.209
21394W        W93120  39.917  26.618   0.671
21395W        W93121  23.106   0.687  10.581
21396W        W93122  29.222  18.034   4.261
21397W        W93123  43.272  12.274  11.164
21398W        W93124  15.377  28.090   1.768
21399W        W93125  40.979  30.191   4.465
21400W        W93126  10.729   9.595   1.001
21401W        W93127   3.342  20.738   1.813
21402W        W93128  42.348  36.793   3.830
21403W        W93129   0.785  10.107  12.578
21404W        W93130  21.638   6.806   3.439
21405W        W93131  10.799   7.139  14.860
21406W        W93132  32.361  22.115  14.361
21407W        W93133  32.687  15.313  10.990
21408W        W93134   1.473   8.178  13.226
21409W        W93135  11.253  39.818   3.221
21410W        W93136  30.478  32.540  11.880
21411W        W93137   1.564  44.731   3.090
21412W        W93138  27.394  24.005  14.799
21413W        W93139  35.337  19.499  13.314
21414W        W93140  38.448  37.617   4.814
21415W        W93141  21.035  13.911  12.962
21416W        W93142   0.213  41.837  12.390
21417W        W93143   7.524  30.996  11.918
21418W        W93144  41.626   5.787   3.724
21419W        W93145   5.411  17.144   1.331
21420W        W93146  41.119  18.885   4.409
21421W        W93147  16.207  42.401  13.425
21422W        W93148  12.686  27.204  13.353
21423W        W93149  37.335  17.753  12.533
21424W        W93150  12.844  30.888  12.914
21425W        W93151   1.024  35.489   4.368
21426W        W93152  17.120  10.190   2.729
21427W        W93153  14.078  41.881  12.981
21428W        W93154  41.390   5.273  10.367
21429W        W93155  29.985   0.109  11.119
21430W        W93156  10.822  30.101  12.788
21431W        W93157   1.217  10.597  10.642
21432W        W93158  25.362  16.501  11.174
21433W        W93159  23.737   6.014  14.039
21434W        W93160  33.948  14.934  10.718
21435W        W93161  30.476  17.273   0.382
21436W        W93162  14.019  30.283  12.580
21437W        W93163  36.530  42.521  10.951
21438W        W93164  13.283   7.678   0.531
21439W        W93165   9.977  25.900   1.232
21440W        W93166  20.563  39.060  13.089
21441W        W93167   6.731  31.467   1.384
21442W        W93168   9.304  35.502   0.254
21443W        W93169  16.243   5.405  11.035
21444W        W93170   5.206  13.657  12.977
21445W        W93171  42.689  10.657  12.885
21446W        W93172  28.683  41.513   2.132
21447W        W93173  38.908  26.989   3.807
21448W        W93174  40.809  33.816  14.507
21449W        W93175  42.196   0.053   1.873
21450W        W93176  31.064  29.438   0.159
21451W        W93177  13.444  18.000  10.226
21452W        W93178  34.426  26.971   1.712
21453W        W93179  12.575   4.694  14.898
21454W        W93180   3.449   0.334  13.334
21455W        W93181  21.949  33.541  12.854
21456W        W93182  27.258  28.934  12.746
21457W        W93183  29.088   2.852  14.928
21458W        W93184  40.566  15.717  11.865
21459W        W93185  33.527   1.037  11.893
21460W        W93186  29.874  34.188   3.179
21461W        W93187   5.378  37.064  13.941
21462W        W93188  13.263  28.559   1.320
21463W        W93189  28.444   6.381   2.286
21464W        W93190   3.726  16.605  13.053
21465W        W93191  27.735  35.500  11.044
21466W        W93192  32.446  26.421  12.569
21467W        W93193  15.789  33.400  11.844
21468W        W93194  40.795  11.433   1.447
21469W        W93195  24.980   7.982  10.712
21470W        W93196  15.917  30.189   0.874
21471W        W93197  32.656   7.239  13.035
21472W        W93198   2.535  15.836   4.137
21473W        W93199   3.436  37.906  14.499
21474W        W93200   5.632  40.545   1.817
21475W        W93201  15.225  39.522  13.078
21476W        W93202  42.177  34.864   4.100
21477W        W93203  15.028  12.932   2.767
21478W        W93204  33.416  41.321  10.908
21479W        W93205  21.660   9.938   2.964
21480W        W93206   9.077  44.359  11.210
21481W        W93207  39.315  37.599   2.841
21482W        W93208  23.228  38.562  11.124
21483W        W93209  26.030  10.670  10.909
21484W        W93210  12.211  22.705   4.688
21485W        W93211  26.116   3.523   0.325
21486W        W93212   4.425  36.927  12.054
21487W        W93213  17.905  42.151  12.711
21488W        W93214  30.672  35.422   3.599
21489W        W93215  41.360   9.157   3.734
21490W        W93216  16.038  30.378  12.383
21491W        W93217  27.041  38.598   1.675
21492W        W93218  26.199  29.713   1.899
21493W        W93219  24.022  34.015  14.975
21494W        W93220   8.683  35.253  13.427
21495W        W93221  21.014   6.215   3.740
21496W        W93222  10.858  37.154  11.587
21497W        W93223  37.386  20.708  11.917
21498W        W93224   3.696   4.617   2.808
21499W        W93225  37.628  40.072  11.107
21500W        W93226  39.642  41.850   3.793
21501W        W93227  37.616   3.021  13.623
21502W        W93228  41.701  39.500  12.872
21503W        W93229  19.009  35.315  13.128
21504W        W93230  20.122   4.725  13.518
21505W        W93231  17.941   6.867   3.369
21506W        W93232  16.279   6.093   2.040
21507W        W93233  24.608  30.052   3.592
21508W        W93234  16.517  42.945   1.362
21509W        W93235  24.977  35.410  13.913
21510W        W93236   8.902  17.728  14.857
21511W        W93237  38.504  25.579  12.255
21512W        W93238  30.616  37.063  12.469
21513W        W93239  25.143  25.361   0.244
21514W        W93240  27.314  39.551  13.327
21515W        W93241   4.200   1.211  12.116
21516W        W93242   1.238  31.166  14.423
21517W        W93243   1.475  18.645  12.919
21518W        W93244  16.571  25.030   1.806
21519W        W93245  43.709  11.202  13.676
21520W        W93246   2.742  23.817   3.308
21521W        W93247  43.106   2.858  11.812
21522W        W93248   7.714  19.104  11.258
21523W        W93249  33.028  17.657  11.184
21524W        W93250  36.421  26.692   2.227
21525W        W93251  16.639  27.614   0.076
21526W        W93252  21.211   0.548   3.147
21527W        W93253   5.435  11.694   3.133
21528W        W93254  20.821   6.484   2.416
21529W        W93255  22.503  35.298   4.117
21530W        W93256  38.854  32.994  12.936
21531W        W93257   7.351  37.821   1.037
21532W        W93258  20.624  38.146  14.131
21533W        W93259  33.130  28.554   1.820
21534W        W93260  13.686  13.660   1.220
21535W        W93261  24.033  29.839  11.171
21536W        W93262  43.349   7.438  12.438
21537W        W93263   2.409   2.821  13.870
21538W        W93264  40.811  23.107   0.192
21539W        W93265   6.202  16.250  11.007
21540W        W93266   8.424   0.188  12.564
21541W        W93267   4.703  20.922  14.018
21542W        W93268   7.085  26.956   3.602
21543W        W93269  26.657  35.298   3.424
21544W        W93270   5.673   8.330  14.842
21545W        W93271  26.107  23.741   0.335
21546W        W93272  17.751  21.039  11.891
21547W        W93273  30.739  21.436  12.882
21548W        W93274  21.159  10.548  13.347
21549W        W93275  29.611  23.798  11.818
21550W        W93276  16.929  33.464  10.228
21551W        W93277  22.391  24.073   2.197
21552W        W93278  39.597  33.075  14.553
21553W        W93279  15.031   8.336   1.995
21554W        W93280  13.577  23.794   1.274
21555W        W93281   3.388   7.473  12.557
21556W        W93282   1.497  11.584   3.810
21557W        W93283   3.251   2.581   2.282
21558W        W93284   9.642  12.091   4.192
21559W        W93285  26.193  40.966  13.945
21560W        W93286  40.248  37.075   2.491
21561W        W93287   0.771  26.738   0.481
21562W        W93288  14.209  20.010   2.866
21563W        W93289  20.572   7.457  14.347
21564W        W93290  22.138  19.561  11.655
21565W        W93291  29.433  16.383   3.340
21566W        W93292  20.927   0.484   3.671
21567W        W93293  22.459  30.158   1.512
21568W        W93294  23.586  14.688   0.997
21569W        W93295  18.308  13.516   4.473
21570W        W93296  18.137  36.328  14.709
21571W        W93297   3.978   9.319  10.994
21572W        W93298   9.143  37.472   0.863
21573W        W93299  10.485   1.140   2.895
21574W        W93300  44.943  34.060  11.184
21575W        W93301  41.957  28.648   4.613
21576W        W93302  17.781  16.235  11.077
21577W        W93303  21.192  16.225  10.751
21578W        W93304  30.936  32.625  13.800
21579W        W93305  13.340  20.193   4.097
21580W        W93306  43.639  21.517   3.800
21581W        W93307  17.033  22.578  13.883
21582W        W93308  15.471  11.186  12.577
21583W        W93309  44.269  28.168   1.455
21584W        W93310  32.145  30.915   0.309
21585W        W93311  31.696  21.192   1.468
21586W        W93312  13.311  31.826   0.332
21587W        W93313   8.096  42.655   1.334
21588W        W93314  35.960  26.751  13.053
21589W        W93315  12.093  42.348  14.520
21590W        W93316  34.274  36.912   2.420
21591W        W93317  31.974  37.078  11.929
21592W        W93318   0.311  10.688   1.527
21593W        W93319  28.651  22.282  12.154
21594W        W93320   2.397  20.057   3.500
21595W        W93321  41.591  35.082  14.773
21596W        W93322  30.950   6.290  13.416
21597W        W93323  11.216  16.641  12.032
21598W        W93324  37.457  40.238   4.158
21599W        W93325  41.205  10.821   0.025
21600W        W93326  25.757   6.746   2.938
21601W        W93327  30.389   8.836  14.039
21602W        W93328   4.076   4.047   5.097
21603W        W93329  13.750   1.469  11.114
21604W        W93330  25.727   7.859  13.546
21605W        W93331  37.437   6.195  13.400
21606W        W93332  40.133  36.448   3.679
21607W        W93333  10.617   6.098  13.733
21608W        W93334  27.906  41.072   4.064
21609W        W93335  30.544   8.842   0.368
21610W        W93336  28.136  23.755   1.454
21611W        W93337  29.007  19.952   3.199
21612W        W93338   3.417  21.464   1.432
21613W        W93339  24.526  34.701   3.597
21614W        W93340  12.993  22.718   4.227
21615W        W93341  10.303  19.708  13.413
21616W        W93342  31.741  39.043  13.173
21617W        W93343  18.185  21.069   2.608
21618W        W93344   5.448  30.942  13.604
21619W        W93345  27.718  27.448  14.614
21620W        W93346  38.284  37.179  11.503
21621W        W93347  31.016  36.801  13.434
21622W        W93348  37.898  22.735   4.775
21623W        W93349  43.953  42.439  12.140
21624W        W93350  41.520  30.144  14.777
21625W        W93351   8.709  35.114  14.634
21626W        W93352  33.994  22.998  10.551
21627W        W93353  40.937   8.662  14.244
21628W        W93354  23.796  40.850  13.545
21629W        W93355   3.305  24.241   2.742
21630W        W93356  13.582   5.012  14.013
21631W        W93357  44.208   2.175  12.541
21632W        W93358  35.604   7.213   3.273
21633W        W93359  41.277   7.291   2.622
21634W        W93360  13.675  37.066  11.191
21635W        W93361  35.095   1.583  10.892
21636W        W93362   2.994  35.308   4.191
21637W        W93363  25.604  17.600  12.582
21638W        W93364  34.714  12.289  12.013
21639W        W93365  15.399  30.580   2.242
21640W        W93366  14.509   3.777  13.960
21641W        W93367  30.624  14.668  10.960
21642W        W93368  18.204  20.461   0.338
21643W        W93369  40.098  26.720  12.479
21644W        W93370  32.006  36.753   1.775
21645W        W93371  31.869  14.667  11.907
21646W        W93372   0.900   4.593   3.253
21647W        W93373  28.017  34.386   3.788
21648W        W93374  12.526  13.111  12.457
21649W        W93375  12.511  35.496   4.934
21650W        W93376  20.005  37.977   3.879
21651W        W93377   6.273  38.530   1.210
21652W        W93378   4.650  30.555  14.581
21653W        W93379  26.433  38.137  11.503
21654W        W93380  43.200   3.240   1.931
21655W        W93381  40.468  26.067  13.976
21656W        W93382  22.640  31.683  12.595
21657W        W93383  10.497  23.026   0.947
21658W        W93384   2.683  25.062   0.379
21659W        W93385  32.609  19.903  13.450
21660W        W93386  29.070  44.422  14.851
21661W        W93387  41.764  10.853   2.688
21662W        W93388   1.516   9.908  13.789
21663W        W93389  20.600  36.342   0.674
21664W        W93390  10.653   4.123  11.650
21665W        W93391  15.890  28.285   4.823
21666W        W93392  14.638  16.114  12.843
21667W        W93393  27.392  19.223   2.723
21668W        W93394   3.179   2.532   0.424
21669W        W93395  29.548  23.995  10.935
21670W        W93396   2.360  12.625   0.438
21671W        W93397  31.620  12.668   2.941
21672W        W93398   5.643  35.580  10.664
21673W        W93399   4.440  20.346   0.383
21674W        W93400  40.278   1.396  10.712
21675W        W93401  44.612  11.826   3.194
21676W        W93402  10.699  16.713   1.343
21677W        W93403  27.355   2.377  14.687
21678W        W93404   0.710   0.912   0.419
21679W        W93405   8.165  35.760   4.793
21680W        W93406  12.295   2.542   5.017
21681W        W93407  23.742  41.055   0.907
21682W        W93408  41.050  10.032   0.283
21683W        W93409  21.993   1.500   0.707
21684W        W93410  34.323  32.160  14.472
21685W        W93411  27.423  16.237  13.381
21686W        W93412  10.560  24.871  11.528
21687W        W93413  40.493  38.824   4.735
21688W        W93414  35.426  33.375   3.652
21689W        W93415  33.604  31.877   4.045
21690W        W93416  25.617  21.243  11.696
21691W        W93417  43.567  25.099  14.781
21692W        W93418  38.504  28.340  12.268
21693W        W93419  21.582  24.198   1.705
21694W        W93420  34.858  24.183  14.859
21695W        W93421  39.053  15.746  10.649
21696W        W93422  32.619  28.388  11.967
21697W        W93423  36.812  43.792  13.401
21698W        W93424  22.674  11.650  11.894
21699W        W93425  21.212   2.295   0.226
21700W        W93426  25.418  14.775   4.433
21701W        W93427   2.371   2.011  13.399
21702W        W93428  27.536  18.360   2.715
21703W        W93429  16.060   4.025  12.057
21704W        W93430  18.978  39.561   1.487
21705W        W93431  24.396  31.031   4.886
21706W        W93432  28.990  40.041   1.817
21707W        W93433  36.104  14.885  14.912
21708W        W93434  18.982  26.020  14.716
21709W        W93435  42.296   8.880   1.863
21710W        W93436  41.850  16.055   1.223
21711W        W93437   6.226  41.341   9.886
21712W        W93438  15.221   6.651   0.925
21713W        W93439   5.258   4.857   0.957
21714W        W93440  31.420  10.369  14.454
21715W        W93441  38.417  13.706   1.239
21716W        W93442   6.236  19.329   1.052
21717W        W93443  21.041  43.038  11.055
21718W        W93444  21.456  21.751  14.868
21719W        W93445  33.705  42.869   4.086
21720W        W93446  33.808  11.757   4.126
21721W        W93447  10.321  14.968   0.212
21722W        W93448  16.578  14.033  11.189
21723W        W93449  19.475  23.038  12.553
21724W        W93450  37.887  21.737  12.946
21725W        W93451   0.527   8.655  14.047
21726W        W93452  34.592  16.207   4.613
21727W        W93453  36.887   8.766   1.808
21728W        W93454  14.620   8.398   1.204
21729W        W93455  39.308   6.416   0.658
21730W        W93456  24.519  39.428  11.596
21731W        W93457  27.602  30.200  14.677
21732W        W93458  42.545  39.260   3.006
21733W        W93459   8.734  14.907   2.834
21734W        W93460  31.088  39.901   3.705
21735W        W93461  28.729   4.218  12.551
21736W        W93462   4.864  17.787  14.531
21737W        W93463  43.358  17.757   3.682
21738W        W93464  42.248  35.512   3.729
21739W        W93465  28.774   8.113  12.526
21740W        W93466  42.509  35.125   1.893
21741W        W93467   9.683  23.141   1.650
21742W        W93468   0.982  29.077   1.814
21743W        W93469   6.681  11.733  13.439
21744W        W93470  38.457  35.926   4.612
21745W        W93471  10.410  39.851   0.342
21746W        W93472  26.394  11.136   3.699
21747W        W93473  27.616  24.237  13.364
21748W        W93474   2.247  36.036   4.850
21749W        W93475  11.168  26.449   0.897
21750W        W93476  34.426  20.169  10.541
21751W        W93477   2.872  13.783   4.800
21752W        W93478  38.268  10.130  12.858
21753W        W93479  28.130  36.099   4.647
21754W        W93480  12.404  20.338   3.728
21755W        W93481  29.902  42.680   4.989
21756W        W93482  32.478   3.977  10.890
21757W        W93483  21.255  17.728  11.467
21758W        W93484  27.120  40.955  11.545
21759W        W93485  18.270  12.737   0.388
21760W        W93486  16.632  44.092   1.712
21761W        W93487  33.016  22.603  13.847
21762W        W93488  21.994  20.765   4.887
21763W        W93489  21.534   9.454   2.855
21764W        W93490  12.835  22.191   2.163
21765W        W93491  42.572  12.660   2.137
21766W        W93492  28.546   5.697  10.369
21767W        W93493  10.412  38.962   4.094
21768W        W93494   3.455  24.668  11.073
21769W        W93495  44.938   8.219   4.219
21770W        W93496   7.487   8.919   3.964
21771W        W93497  41.456  29.859   1.023
21772W        W93498  17.228  12.458  10.745
21773W        W93499   6.181  39.446   2.281
21774W        W93500   6.848  27.607   3.753
21775W        W93501  22.573  13.795  11.640
21776W        W93502  37.932  42.363  11.525
21777W        W93503  20.421  15.186  11.962
21778W        W93504  13.783  32.061  12.849
21779W        W93505   9.365   8.263   0.180
21780W        W93506  12.650  19.993  14.448
21781W        W93507  16.867  26.864   4.282
21782W        W93508  19.198  24.336   4.717
21783W        W93509  43.491   3.224  10.753
21784W        W93510  29.184  39.258   4.191
21785W        W93511  21.014  10.662   2.297
21786W        W93512  40.883  35.696  12.872
21787W        W93513   5.327  44.362   1.040
21788W        W93514  43.452   4.436   2.349
21789W        W93515  13.166  19.684   4.092
21790W        W93516  25.214  20.909  14.031
21791W        W93517   7.765  15.488   4.541
21792W        W93518  16.247   7.985  14.520
21793W        W93519  23.200  33.541  14.269
21794W        W93520  25.475  17.795  13.408
21795W        W93521  34.073  25.053  10.676
21796W        W93522  38.078  19.689  13.359
21797W        W93523   7.220  33.869   3.319
21798W        W93524  40.882  22.014   1.623
21799W        W93525   9.628  29.636   0.301
21800W        W93526  10.589  20.138   2.200
21801W        W93527   5.510  41.849   4.848
21802W        W93528   4.435  13.307   3.898
21803W        W93529  26.755  17.612   4.934
21804W        W93530  11.904  11.763  10.175
21805W        W93531   3.410  20.491   2.274
21806W        W93532  44.319  40.991   4.337
21807W        W93533  28.551  20.929  12.489
21808W        W93534   0.349   1.768  13.307
21809W        W93535  16.366  22.593  11.059
21810W        W93536  34.025  29.636   2.260
21811W        W93537  44.648  27.481  13.017
21812W        W93538   1.165   8.182   0.388
21813W        W93539  26.885  25.038   4.185
21814W        W93540  41.176  40.284  14.768
21815W        W93541  35.667   1.464   4.102
21816W        W93542  26.148  23.187   4.547
21817W        W93543  38.091  42.056  13.907
21818W        W93544   4.795  17.611  10.468
21819W        W93545  41.903   8.283  12.861
21820W        W93546  31.135  36.057  13.036
21821W        W93547  10.602  33.783   3.152
21822W        W93548   2.461  24.139  12.483
21823W        W93549  17.317  42.872  12.025
21824W        W93550  27.713   6.641  12.974
21825W        W93551  42.466   5.518   2.849
21826W        W93552  37.917   0.037   4.344
21827W        W93553  40.456  19.292   1.730
21828W        W93554  39.648   6.405   1.141
21829W        W93555   7.331  43.721   3.856
21830W        W93556   9.114  23.626  11.626
21831W        W93557  14.842  33.143  12.565
21832W        W93558  39.501  41.982   2.279
21833W        W93559   9.013   0.664  14.913
21834W        W93560   5.255  27.660   1.266
21835W        W93561  30.688   8.462   3.178
21836W        W93562  12.305   1.961   3.995
21837W        W93563   0.989   2.865   2.640
21838W        W93564  32.798  19.213  13.253
21839W        W93565  36.444  37.838   4.671
21840W        W93566  37.116  11.296   1.216
21841W        W93567  21.194  13.126  13.025
21842W        W93568  38.436   7.727  13.538
21843W        W93569  10.391  42.490  11.495
21844W        W93570  14.330  14.733   4.905
21845W        W93571  10.893   8.845  14.368
21846W        W93572   8.683   2.933   4.485
21847W        W93573   2.327   8.194  14.884
21848W        W93574  31.043   3.932   4.934
21849W        W93575  28.177  16.694  10.358
21850W        W93576  10.006  27.116  14.885
21851W        W93577  34.381  38.078   1.162
21852W        W93578  43.559  25.558  11.356
21853W        W93579  30.175  23.256  12.474
21854W        W93580  37.072  14.612   3.457
21855W        W93581  34.053  19.590   0.112
21856W        W93582   1.536  29.075  11.303
21857W        W93583   6.599  20.508  10.767
21858W        W93584  27.874  42.617  14.824
21859W        W93585  37.557  20.990   4.515
21860W        W93586  15.217  24.384  13.109
21861W        W93587  10.794  39.040   0.000
21862W        W93588  31.107  17.345   2.718
21863W        W93589  32.886   6.353  14.229
21864W        W93590  18.642   8.743  14.994
21865W        W93591   2.397  29.089  10.809
21866W        W93592   7.873  22.947   1.177
21867W        W93593  26.938   8.267  13.283
21868W        W93594   7.279   1.663  12.473
21869W        W93595  21.738  38.836   2.720
21870W        W93596  41.486  14.043   1.752
21871W        W93597  34.281  26.638  10.814
21872W        W93598  44.409   9.893   2.585
21873W        W93599   4.247  35.039  10.644
21874W        W93600  43.848   2.490   0.215
21875W        W93601   6.363  43.430   0.441
21876W        W93602  21.351  39.452  12.605
21877W        W93603  35.257   6.747  13.345
21878W        W93604  27.352   1.484  11.921
21879W        W93605   0.700  20.068  13.020
21880W        W93606  18.902   5.335  10.680
21881W        W93607  19.600  22.720   3.554
21882W        W93608  18.424  15.337  11.575
21883W        W93609  18.638  37.214  14.070
21884W        W93610  43.551   3.413  11.713
21885W        W93611  15.223  41.240  11.904
21886W        W93612  10.458  42.898   2.813
21887W        W93613   5.142  44.728  13.984
21888W        W93614  14.339   2.192   3.312
21889W        W93615  29.184  30.480   1.405
21890W        W93616   6.854  19.532  14.419
21891W        W93617   1.915   5.892   2.774
21892W        W93618  42.206  18.272  13.249
21893W        W93619  44.249  28.647  13.927
21894W        W93620  15.019  13.792   0.792
21895W        W93621  18.777  25.232  13.986
21896W        W93622  22.621  27.839  10.771
21897W        W93623  12.762   6.455  12.366
21898W        W93624   5.472   9.660  13.515
21899W        W93625  10.173  38.012  13.482
21900W        W93626  28.420  25.088  13.922
21901W        W93627  32.225  35.789   1.759
21902W        W93628  38.077  18.646   3.139
21903W        W93629   5.692  26.081   1.947
21904W        W93630  33.961  39.499  12.901
21905W        W93631  26.884  40.014  11.741
21906W        W93632  30.995  35.271  14.403
21907W        W93633   4.926  33.457   2.177
21908W        W93634   2.629   0.356   0.574
21909W        W93635  37.073  17.604  12.953
21910W        W93636  25.789  17.699   3.982
21911W        W93637   5.123  25.184   3.798
21912W        W93638  21.169  18.279   1.048
21913W        W93639  12.671  16.063   0.652
21914W        W93640   9.678  41.108   2.628
21915W        W93641  37.162  30.253   4.076
21916W        W93642  42.509   6.636  11.482
21917W        W93643  27.723  39.095   1.369
21918W        W93644   8.599   3.753   0.508
21919W        W93645  23.623  23.130   3.674
21920W        W93646   3.202  14.914   2.319
21921W        W93647  25.508  28.230   2.200
21922W        W93648  37.610  30.711   4.717
21923W        W93649  36.529  29.799  12.405
21924W        W93650   4.750  44.780   2.640
21925W        W93651  15.646  32.459  14.349
21926W        W93652   0.011   6.808  12.526
21927W        W93653  43.920  33.696   0.328
21928W        W93654  11.674  35.129   3.466
21929W        W93655  17.584  22.356   1.104
21930W        W93656  20.138   7.595   2.216
21931W        W93657  32.168   3.707  11.208
21932W        W93658  36.104  10.973  13.353
21933W        W93659  13.647   0.058  11.424
21934W        W93660  42.531  27.913  14.471
21935W        W93661  15.825  25.471  12.033
21936W        W93662  16.351   9.761   4.256
21937W        W93663   2.777  10.209  12.581
21938W        W93664  17.220  19.712  11.615
21939W        W93665  42.386   2.521   2.787
21940W        W93666  41.802  33.999  11.617
21941W        W93667  38.614  14.693   2.218
21942W        W93668   4.901  35.010   4.182
21943W        W93669  28.712  33.042  12.108
21944W        W93670  28.451  27.879   1.693
21945W        W93671  42.239  44.690   0.012
21946W        W93672  23.487  37.499  12.666
21947W        W93673  15.212  22.943   1.706
21948W        W93674  24.480  33.182  11.044
21949W        W93675  39.953   1.200   3.109
21950W        W93676  22.766  38.433  13.356
21951W        W93677  40.182  28.441   3.756
21952W        W93678  43.278  30.083   0.361
21953W        W93679  16.742  19.299   2.817
21954W        W93680  43.762  20.482  11.864
21955W        W93681   8.458  11.646  13.972
21956W        W93682  25.090  35.409   0.671
21957W        W93683  14.271  34.828   4.154
21958W        W93684  23.176   6.320   4.252
21959W        W93685  40.142  12.184  14.816
21960W        W93686  24.451  25.548  13.861
21961W        W93687   2.001  14.674  12.879
21962W        W93688  39.778  19.700   0.294
21963W        W93689  19.726  29.021   2.145
21964W        W93690  19.682  20.585   4.161
21965W        W93691  14.962   3.985  11.722
21966W        W93692  24.203   5.371  10.705
21967W        W93693  13.060  16.057  10.367
21968W        W93694  21.060  44.909   2.824
21969W        W93695  32.830   4.237   1.210
21970W        W93696   6.289  33.984   0.505
21971W        W93697  15.659  19.508   3.693
21972W        W93698  35.268  22.744  13.216
21973W        W93699  43.809  38.048   0.762
21974W        W93700  43.047  39.654   2.883
21975W        W93701  30.651  30.027   1.859
21976W        W93702  29.375  26.655  12.035
21977W        W93703  41.298   5.933   5.010
21978W        W93704  40.538  20.725   1.783
21979W        W93705  13.382   0.618   0.506
21980W        W93706  33.537  44.250   2.412
21981W        W93707  41.296  11.561  10.931
21982W        W93708  38.957  42.834  11.603
21983W        W93709  23.110  37.012   1.962
21984W        W93710  27.534  25.771   3.260
21985W        W93711  11.896  10.686   3.559
21986W        W93712  35.530  14.174  11.991
21987W        W93713  38.486  18.703   3.763
21988W        W93714   7.914  20.418  14.335
21989W        W93715  16.899  34.090   0.745
21990W        W93716   6.730  41.435  12.641
21991W        W93717   8.697  37.577  11.844
21992W        W93718  10.634   8.801   1.687
21993W        W93719  31.071  12.958   3.797
21994W        W93720   2.957   7.949   1.213
21995W        W93721  18.563  38.159   3.592
21996W        W93722  33.136  26.756  12.968
21997W        W93723  28.603  27.639   2.953
21998W        W93724   8.803  17.667  12.205
21999W        W93725  33.620  31.559   1.374
22000W        W93726   4.729   4.288   3.252
22001W        W93727   1.725  27.590  12.820
22002W        W93728  29.860  13.759   3.218
22003W        W93729  40.649  11.949  12.170
22004W        W93730  34.299   7.919   3.971
22005W        W93731  14.755   3.261  11.078
22006W        W93732  17.737   5.726  10.726
22007W        W93733  39.969   8.424   2.567
22008W        W93734  29.471  32.166   2.900
22009W        W93735  42.205  21.674  10.730
22010W        W93736   3.416  14.526  14.421
22011W        W93737  10.713   0.086   3.245
22012W        W93738   9.885  21.949   5.065
22013W        W93739  39.314   3.250   0.318
22014W        W93740   7.740  24.853   5.108
22015W        W93741  11.655  27.768   0.861
22016W        W93742  17.722  36.442  11.747
22017W        W93743  17.400  30.134   3.838
22018W        W93744  36.368  36.078   4.134
22019W        W93745  27.675  39.835   1.652
22020W        W93746  35.621  25.484  11.460
22021W        W93747  24.978  16.839   4.876
22022W        W93748   9.404  21.194   1.980
22023W        W93749  16.298  21.563   4.727
22024W        W93750  38.424  26.282   2.704
22025W        W93751  10.616  25.291   1.355
22026W        W93752  24.149  10.900  12.476
22027W        W93753  35.917  30.217   3.470
22028W        W93754   5.981  38.528   1.729
22029W        W93755  11.894  17.195   3.074
22030W        W93756  41.923  30.602   1.098
22031W        W93757   0.277   4.201  12.951
22032W        W93758  24.910  36.054  11.682
22033W        W93759   9.280   4.405   0.820
22034W        W93760  32.632  12.843   1.344
22035W        W93761   4.273   6.360  12.889
22036W        W93762  39.078  25.063  10.666
22037W        W93763  28.602  30.665   4.332
22038W        W93764  34.969  40.886   0.003
22039W        W93765  34.187  16.083   2.148
22040W        W93766   7.383  14.146   4.433
22041W        W93767   1.505  31.457  10.627
22042W        W93768  20.741  10.730   2.718
22043W        W93769   6.851  28.373  11.955
22044W        W93770  23.138   1.175  12.436
22045W        W93771   5.640  18.092  10.358
22046W        W93772  11.358   7.619  12.793
22047W        W93773  28.997  18.182  11.589
22048W        W93774  24.815  19.374   4.294
22049W        W93775  12.681  17.605   0.254
22050W        W93776  29.470   3.198  14.801
22051W        W93777  39.035   9.798  14.908
22052W        W93778  40.538  32.493   3.636
22053W        W93779   5.424   5.502   1.887
22054W        W93780  28.066  17.880   4.299
22055W        W93781   0.620  25.120  13.846
22056W        W93782  15.300  36.448  11.546
22057W        W93783  17.548   8.444   4.544
22058W        W93784  12.751  42.343   0.829
22059W        W93785  32.569  17.358  14.537
22060W        W93786   1.944  27.146  14.498
22061W        W93787  11.140  10.741   4.571
22062W        W93788  23.043  32.378  12.035
22063W        W93789  12.843  12.875  14.927
22064W        W93790  20.653  32.859  10.917
22065W        W93791   6.325  40.457   0.313
22066W        W93792  11.112  40.152  14.092
22067W        W93793  43.939  22.779   2.016
22068W        W93794  16.700  21.398   3.494
22069W        W93795  17.305  17.682  14.020
22070W        W93796  41.725  33.511  14.402
22071W        W93797  25.198   7.668   2.099
22072W        W93798  15.341  17.798  14.214
22073W        W93799   4.491  26.512  11.109
22074W        W93800   3.870  19.653   0.301
22075W        W93801  17.731   1.549   0.813
22076W        W93802  24.723  18.215  12.548
22077W        W93803  14.689  34.891   3.318
22078W        W93804   4.483  40.330   0.844
22079W        W93805  42.079   2.539  14.815
22080W        W93806  38.484   9.281  13.969
22081W        W93807  30.925   5.362  11.528
22082W        W93808   4.150  37.068   0.126
22083W        W93809   8.898  34.257   2.798
22084W        W93810  39.449  10.225  11.645
22085W        W93811  35.638  12.302  12.294
22086W        W93812  13.746  20.223  14.807
22087W        W93813  27.676  10.321  13.621
22088W        W93814  18.712   0.195  14.878
22089W        W93815  28.508  23.903   3.151
22090W        W93816   1.482  41.856   2.238
22091W        W93817  11.167  27.985  12.641
22092W        W93818  31.460  19.813  13.807
22093W        W93819  37.321  35.626   3.995
22094W        W93820  41.261  13.320  12.033
22095W        W93821  39.907  24.789  14.483
22096W        W93822  32.065  37.572  14.808
22097W        W93823  16.714  15.823  10.434
22098W        W93824  12.739   8.267   2.366
22099W        W93825  18.968  13.798   4.736
22100W        W93826  14.516  41.522   0.657
22101W        W93827  31.492  30.529  14.442
22102W        W93828  22.544  38.390   4.365
22103W        W93829  40.868  35.494   3.200
22104W        W93830  15.043  44.620   3.325
22105W        W93831  36.148  23.037   4.635
22106W        W93832  31.572  18.894   0.366
22107W        W93833  16.392  10.663   2.775
22108W        W93834  27.083  25.034   0.554
22109W        W93835  39.972  19.115   1.763
22110W        W93836  38.776  26.194   0.785
22111W        W93837  37.376   2.184   0.953
22112W        W93838  22.402  29.964   3.362
22113W        W93839  30.975  33.189   0.313
22114W        W93840  19.035  28.856  11.016
22115W        W93841  26.037  22.952  11.965
22116W        W93842  35.915  20.549  12.077
22117W        W93843  36.273   3.549   0.276
22118W        W93844  20.749  42.060  11.587
22119W        W93845  24.842  36.208  14.440
22120W        W93846  25.865   6.266  12.408
22121W        W93847  26.279  14.597   2.135
22122W        W93848  25.475  10.592   4.681
22123W        W93849  10.430   2.436   2.819
22124W        W93850  44.350  30.429  10.536
22125W        W93851  28.489  27.116  10.657
22126W        W93852   7.436  21.637   0.372
22127W        W93853   0.373  10.240   1.764
22128W        W93854   9.042  35.054   0.051
22129W        W93855  29.118  34.832   4.245
22130W        W93856  25.455   4.323  14.336
22131W        W93857   2.148   6.609   0.731
22132W        W93858  33.161  27.016   2.292
22133W        W93859  22.821  28.228   5.033
22134W        W93860  21.129  15.810  14.886
22135W        W93861   4.340  15.377   1.871
22136W        W93862  42.859  19.214  14.377
22137W        W93863  22.821   8.509   3.685
22138W        W93864  12.591   5.993   1.266
22139W        W93865   5.578  35.060  12.898
22140W        W93866  39.459  40.236   2.906
22141W        W93867  31.995  31.912  13.529
22142W        W93868  11.991  41.769  13.827
22143W        W93869  14.796  10.449   2.251
22144W        W93870  44.432  36.825   2.239
22145W        W93871  43.755  39.845  11.183
22146W        W93872  37.849  18.957  12.915
22147W        W93873  13.129  10.114  13.047
22148W        W93874   8.553  35.827   9.683
22149W        W93875  33.594  11.833   1.849
22150W        W93876  17.614  19.350   3.773
22151W        W93877   9.488   5.299   4.203
22152W        W93878  35.741  30.012  13.259
22153W        W93879   7.357  26.603  13.437
22154W        W93880  14.131  28.118   0.450
22155W        W93881  19.689  12.684  13.528
22156W        W93882  19.715   4.854   3.259
22157W        W93883  16.237  40.087   2.654
22158W        W93884  33.360   6.131  14.289
22159W        W93885  17.016  19.167   3.267
22160W        W93886  21.928  13.675  12.889
22161W        W93887  19.736  15.070  13.975
22162W        W93888  43.766  41.764   0.765
22163W        W93889   0.501   7.957  12.301
22164W        W93890  43.314  26.619  10.862
22165W        W93891  14.342  32.065   4.736
22166W        W93892  29.700  29.343   3.317
22167W        W93893   5.160  12.593  11.942
22168W        W93894  38.923   1.538  10.657
22169W        W93895  32.704  16.220   0.376
22170W        W93896   6.732  41.744  13.073
22171W        W93897  40.511  13.134   0.782
22172W        W93898  44.915  43.204  10.743
22173W        W93899   3.760   6.478  14.453
22174W        W93900  23.684   1.419  11.601
22175W        W93901  15.687  41.861  11.511
22176W        W93902  31.797  19.038  12.508
22177W        W93903  44.396  31.462   2.915
22178W        W93904  21.621   0.034   0.410
22179W        W93905  27.134  40.890   2.172
22180W        W93906  25.198   4.709  13.985
22181W        W93907  21.685  39.547   3.825
22182W        W93908  26.647  38.793   3.693
22183W        W93909  37.398  36.020  10.304
22184W        W93910   2.758   0.275   3.331
22185W        W93911  41.481   9.811   4.758
22186W        W93912   2.277  13.347  14.953
22187W        W93913   6.876  17.295  13.567
22188W        W93914  34.790  26.486  13.993
22189W        W93915  35.097  41.830  11.576
22190W        W93916  15.097  23.631   4.101
22191W        W93917  15.589  10.680  10.991
22192W        W93918  35.699  16.685   0.280
22193W        W93919  31.636  34.200   3.678
22194W        W93920  14.173   2.002  10.653
22195W        W93921   2.385  15.768   0.580
22196W        W93922  18.819  12.194   0.916
22197W        W93923  43.554  43.395   1.194
22198W        W93924  41.853  25.450   0.413
22199W        W93925  33.148  18.085   2.423
22200W        W93926  30.528   3.442  13.934
22201W        W93927  32.950   6.425  12.431
22202W        W93928  15.072   7.628   4.160
22203W        W93929  33.469  10.671   2.277
22204W        W93930  38.354  31.015   0.808
22205W        W93931  32.458  27.863  12.005
22206W        W93932  27.823  16.668  11.884
22207W        W93933  37.603  20.745  12.836
22208W        W93934  35.375  15.145  12.691
22209W        W93935  37.927  30.548   3.483
22210W        W93936   2.538  41.458   1.142
22211W        W93937   1.445  17.109   0.485
22212W        W93938   8.027   6.000  14.064
22213W        W93939  44.135  12.928   2.193
22214W        W93940   4.933  28.373  14.606
22215W        W93941  17.741   7.220  13.443
22216W        W93942   9.909  10.166  14.308
22217W        W93943  37.836  17.087   3.334
22218W        W93944  21.470  21.157   1.032
22219W        W93945  32.001   1.367  11.084
22220W        W93946  33.766   6.205   1.867
22221W        W93947  27.416  13.695   3.117
22222W        W93948  29.165  31.703  11.962
22223W        W93949   5.194   3.002  13.584
22224W        W93950  38.743  36.043   1.277
22225W        W93951   2.198   1.644  14.585
22226W        W93952  17.667  22.001  13.986
22227W        W93953  30.116  28.595   3.702
22228W        W93954  34.058  40.477   0.807
22229W        W93955  27.948   3.981   2.937
22230W        W93956  13.360  34.921   2.797
22231W        W93957  44.605  30.883  12.591
22232W        W93958  44.725   4.862   0.839
22233W        W93959  43.967  16.365   0.750
22234W        W93960  27.093   1.977   2.240
22235W        W93961  39.968  31.770   4.952
22236W        W93962  31.486  35.365   0.810
22237W        W93963  16.495  33.009   3.019
22238W        W93964  37.823  36.687  13.660
22239W        W93965  43.757   9.584  11.028
22240W        W93966   0.784  37.196   3.636
22241W        W93967   7.616  44.336   4.100
22242W        W93968  39.564   0.753  14.411
22243W        W93969  30.551  41.423  13.923
22244W        W93970  23.961  10.343  14.124
22245W        W93971  17.301   7.690   1.824
22246W        W93972  36.899  22.772  13.542
22247W        W93973   6.980  27.578  11.636
22248W        W93974  37.658  36.007   1.876
22249W        W93975  29.101  24.776  12.673
22250W        W93976  11.573  15.658  11.122
22251W        W93977  27.259  28.239  10.061
22252W        W93978  25.117  19.309   0.242
22253W        W93979  44.168  25.487   2.273
22254W        W93980  16.663  34.446   4.647
22255W        W93981  12.602  21.085   1.389
22256W        W93982  16.742  40.248   4.688
22257W        W93983  15.327  44.160   4.616
22258W        W93984  19.685  43.955  10.720
22259W        W93985  38.192   0.819   0.773
22260W        W93986  25.934  10.244  11.199
22261W        W93987  42.925   3.544   2.388
22262W        W93988  42.674  44.862   2.616
22263W        W93989  17.096  25.126   0.179
22264W        W93990  11.781  17.233   0.835
22265W        W93991  27.456   5.653   0.300
22266W        W93992   1.467  31.931  11.778
22267W        W93993  34.291  25.585  14.761
22268W        W93994   3.168  26.059  11.946
22269W        W93995   5.205  15.366   2.801
22270W        W93996  16.839  28.043  11.110
22271W        W93997  31.698   7.775   3.649
22272W        W93998  26.910  30.486  14.144
22273W        W93999  32.466  34.206  12.519
22274W        W94000  15.006  43.754   4.790
22275W        W94001  33.191   0.902  14.321
22276W        W94002  21.717  35.982   4.071
22277W        W94003  41.395  24.994  11.895
22278W        W94004   1.631  24.985  13.980
22279W        W94005   9.732  27.677   1.108
22280W        W94006  29.094  43.927   4.300
22281W        W94007  33.442  32.640   0.680
22282W        W94008  19.289   6.293   0.971
22283W        W94009  22.529  42.518  13.927
22284W        W94010  27.453   9.916  11.432
22285W        W94011   2.314  33.813  10.696
22286W        W94012  17.299  17.291   4.115
22287W        W94013  21.724  44.915  14.507
22288W        W94014   2.850  25.972  10.633
22289W        W94015  39.006  35.264   3.531
22290W        W94016   4.691  36.460   3.632
22291W        W94017   9.396   9.041   2.889
22292W        W94018  13.220  25.310  13.571
22293W        W94019  37.027  20.107  10.646
22294W        W94020  44.991  19.602   3.903
22295W        W94021  26.320  14.557  12.606
22296W        W94022  17.675   0.530  14.029
22297W        W94023  33.532  30.377  13.440
22298W        W94024  30.897  28.885  10.707
22299W        W94025  39.854   7.283  11.440
22300W        W94026  28.569   8.302  11.207
22301W        W94027  27.649   3.278   2.791
22302W        W94028  37.087  15.727  12.105
22303W        W94029   6.838  16.587   4.753
22304W        W94030   2.088   0.792   0.403
22305W        W94031  17.053  23.489  12.323
22306W        W94032   0.786  29.154   3.302
22307W        W94033  16.836  20.003  11.928
22308W        W94034   1.269  19.920  13.958
22309W        W94035  31.510   9.349  14.507
22310W        W94036  34.553  38.519   1.385
22311W        W94037  28.034   0.750   4.285
22312W        W94038  11.615  11.208   2.169
22313W        W94039   1.395  33.921   2.203
22314W        W94040  41.138  15.763  10.459
22315W        W94041   5.151  23.691  14.816
22316W        W94042  31.547  44.308   0.236
22317W        W94043  20.256  40.650   3.702
22318W        W94044  23.116  39.288   0.911
22319W        W94045  26.430   1.471   2.686
22320W        W94046  19.525  29.387   3.669
22321W        W94047  22.477  44.217   1.874
22322W        W94048  23.607  11.945   1.611
22323W        W94049  37.911  44.687  13.005
22324W        W94050   7.529   7.592  11.134
22325W        W94051  41.141   2.045  14.704
22326W        W94052   7.465  31.388   3.367
22327W        W94053   5.974   3.248   1.948
22328W        W94054   7.367  18.860  12.718
22329W        W94055  31.254  14.217   0.301
22330W        W94056  30.249   6.702  11.265
22331W        W94057  44.032  41.334   2.906
22332W        W94058   2.951  43.975   3.643
22333W        W94059  36.629   2.631  14.045
22334W        W94060  22.059  43.582   1.293
22335W        W94061   7.902  14.469  14.568
22336W        W94062  21.202  30.466   4.951
22337W        W94063  24.742  24.163   0.392
22338W        W94064  32.893  11.223   0.079
22339W        W94065  14.747  30.164  11.702
22340W        W94066  21.751  24.605  11.561
22341W        W94067   3.595   8.318  14.602
22342W        W94068  32.050  29.791   2.611
22343W        W94069  16.296   4.833   4.775
22344W        W94070   6.134  33.345   1.681
22345W        W94071  27.712  36.666   2.863
22346W        W94072  10.017  36.366  13.804
22347W        W94073  14.770  31.067   3.575
22348W        W94074  33.090  12.096  13.004
22349W        W94075  30.859  34.340   3.736
22350W        W94076  31.408  17.381   0.974
22351W        W94077  34.434  26.208  12.911
22352W        W94078  32.899  38.169  12.950
22353W        W94079  20.546  34.024  10.584
22354W        W94080  24.617  28.464   3.531
22355W        W94081   7.249  25.677   3.762
22356W        W94082  42.953  27.691  10.481
22357W        W94083  22.745  42.915   1.809
22358W        W94084  30.408  43.206  11.983
22359W        W94085  10.686  24.258   4.632
22360W        W94086  33.907  11.380   2.629
22361W        W94087  30.567  16.115  13.124
22362W        W94088  29.598   9.634  12.881
22363W        W94089  15.708  44.723   2.275
22364W        W94090   3.121  11.608  10.833
22365W        W94091  31.942  29.685  13.041
22366W        W94092  13.653  30.079   0.006
22367W        W94093  27.904  16.929   0.483
22368W        W94094  44.876  34.113  12.822
22369W        W94095  19.995  31.771  13.595
22370W        W94096  31.586   4.432   1.841
22371W        W94097  41.721   4.030  11.486
22372W        W94098  13.641  36.128  12.598
22373W        W94099  38.752  44.438   4.629
22374W        W94100  14.820  16.700  13.462
22375W        W94101  42.302  38.025  10.538
22376W        W94102  29.764   6.214   1.785
22377W        W94103  19.849  21.504   4.659
22378W        W94104  29.192  11.058  12.986
22379W        W94105  33.467   6.340  12.880
22380W        W94106  32.595   2.859  10.707
22381W        W94107   8.951  39.615   4.374
22382W        W94108  29.877  30.895   2.781
22383W        W94109  38.105   0.490  11.476
22384W        W94110  16.911  23.097   4.484
22385W        W94111  22.153   4.712   2.397
22386W        W94112  11.796  30.870   0.365
22387W        W94113  38.365   8.954   2.848
22388W        W94114  22.849   7.904   2.527
22389W        W94115  38.998   5.246  13.917
22390W        W94116  20.687  27.694   1.615
22391W        W94117  32.725  14.026  12.520
22392W        W94118  12.230  30.986   4.134
22393W        W94119  12.672  10.880  14.937
22394W        W94120  29.555  23.038   2.796
22395W        W94121  23.957   4.954   3.127
22396W        W94122   9.016  22.024   2.740
22397W        W94123  14.939  44.271  11.145
22398W        W94124  35.008  38.097   3.696
22399W        W94125  24.996  30.947   4.713
22400W        W94126   6.140  33.897   4.214
22401W        W94127  13.712   8.646  11.623
22402W        W94128  20.863  15.510  14.561
22403W        W94129  14.383  35.602  12.708
22404W        W94130  15.728   9.736   4.669
22405W        W94131  16.381  22.587  13.436
22406W        W94132   5.713  34.516  14.465
22407W        W94133  13.440   2.989  12.895
22408W        W94134  33.718  28.327  11.932
22409W        W94135   7.392  11.401  11.074
22410W        W94136  28.126   5.415   4.150
22411W        W94137  38.785   9.106  12.112
22412W        W94138  12.180   7.808   1.259
22413W        W94139   0.767  42.913   4.170
22414W        W94140   4.624  30.135   2.117
22415W        W94141   7.373   7.843  14.275
22416W        W94142   6.374  18.972  11.478
22417W        W94143  44.030  33.862  12.454
22418W        W94144  37.486   7.100   2.244
22419W        W94145  23.027  40.477   2.865
22420W        W94146  40.845  42.602   3.614
22421W        W94147   0.746   9.901   0.069
22422W        W94148  38.267  14.043   2.916
22423W        W94149  30.172  19.661   2.962
22424W        W94150  12.714  41.948   3.112
22425W        W94151  27.299  18.890  13.678
22426W        W94152  10.327  42.919   3.747
22427W        W94153   7.816  42.474   0.898
22428W        W94154  28.114  22.050  11.036
22429W        W94155   4.500  14.148  11.150
22430W        W94156  23.467   3.181   3.389
22431W        W94157  30.019  16.312  14.880
22432W        W94158  28.557  33.628   3.904
22433W        W94159  44.778   7.135   2.113
22434W        W94160  29.038  37.556   1.335
22435W        W94161  33.539  28.697   0.396
22436W        W94162  22.059  17.729   0.309
22437W        W94163  23.403  39.969  11.989
22438W        W94164  11.773  17.966  14.272
22439W        W94165  31.500  10.729   0.280
22440W        W94166  44.499   8.709  14.915
22441W        W94167  33.089   4.714  11.017
22442W        W94168  30.167  39.998  12.524
22443W        W94169  36.516  38.014  12.940
22444W        W94170   9.372  14.659   1.330
22445W        W94171   9.488  36.682   2.752
22446W        W94172   5.297   6.162  10.797
22447W        W94173   8.948  31.006  10.792
22448W        W94174  16.747  25.618  11.191
22449W        W94175  25.075  22.112  11.545
22450W        W94176   9.620   8.621  14.355
22451W        W94177  18.657  27.942  11.192
22452W        W94178   0.705   5.151   2.445
22453W        W94179  41.404  36.254   3.103
22454W        W94180  16.113  43.248  14.239
22455W        W94181   3.840  39.521  10.561
22456W        W94182  22.958  29.717  11.547
22457W        W94183  34.632  42.797   1.964
22458W        W94184  33.200   1.932  12.998
22459W        W94185   1.303  34.630   1.934
22460W        W94186   6.848   9.109  12.089
22461W        W94187  10.818  39.850   1.810
22462W        W94188  41.886  34.470   1.968
22463W        W94189  43.328  33.473  12.339
22464W        W94190  36.567  10.757   2.769
22465W        W94191  19.014  27.175  12.558
22466W        W94192  15.512  22.209   4.101
22467W        W94193  28.578  31.104  14.804
22468W        W94194  14.899  20.763  14.003
22469W        W94195  35.381  23.550  13.341
22470W        W94196  23.556  31.150   0.901
22471W        W94197  11.845  10.275   4.395
22472W        W94198  21.476  28.762   3.355
22473W        W94199  27.944  10.820   1.436
22474W        W94200  29.718   3.977  11.260
22475W        W94201   4.570  20.280   1.997
22476W        W94202  28.706  30.170   4.260
22477W        W94203  16.581   9.242  12.978
22478W        W94204  31.193  23.088  11.757
22479W        W94205  23.598  17.593   3.350
22480W        W94206  19.258   3.573  11.369
22481W        W94207  34.671  31.078  13.404
22482W        W94208   2.456  23.086  14.538
22483W        W94209  40.502  10.304   0.974
22484W        W94210  15.638  43.741  11.384
22485W        W94211  28.190   7.662  10.630
22486W        W94212   0.793  39.551   2.325
22487W        W94213  32.427  15.074   1.226
22488W        W94214   3.350  28.383  10.613
22489W        W94215  23.047  36.130  10.591
22490W        W94216  24.696  25.113  13.966
22491W        W94217  14.718   7.931   0.091
22492W        W94218  10.545   0.068   4.114
22493W        W94219  44.719  18.159  14.554
22494W        W94220  15.331  17.490  13.763
22495W        W94221  20.941   7.902  14.303
22496W        W94222  20.157  37.468  10.012
22497W        W94223  22.902  12.387   1.463
22498W        W94224  20.216  36.003   1.566
22499W        W94225   5.589  20.827  10.598
22500W        W94226   5.702  16.131  14.072
22501W        W94227  13.765  37.490   3.954
22502W        W94228   5.369  38.737  13.426
22503W        W94229   6.885  42.748  12.972
22504W        W94230   4.438  35.928   0.866
22505W        W94231  34.073  17.815   1.522
22506W        W94232  24.777  42.395   3.679
22507W        W94233  44.317  43.409  14.267
22508W        W94234  18.837  10.187  11.204
22509W        W94235  41.849  28.966   4.095
22510W        W94236   6.951   9.406   4.572
22511W        W94237  16.603  14.630   0.874
22512W        W94238  37.117  11.194   2.680
22513W        W94239  21.161  20.846   3.337
22514W        W94240  33.552  44.567   0.974
22515W        W94241   9.191  30.409   4.598
22516W        W94242   2.953  19.129   3.890
22517W        W94243   8.415  42.318   2.963
22518W        W94244  15.621   8.855  12.863
22519W        W94245  40.882   8.124  13.610
22520W        W94246   8.531  42.408  11.130
22521W        W94247  32.605  29.300   0.200
22522W        W94248  28.517  16.671   1.296
22523W        W94249   9.460   8.767  12.390
22524W        W94250  38.411   5.267   2.864
22525W        W94251   4.534  22.637  11.402
22526W        W94252  35.046   4.153   0.172
22527W        W94253  23.647  29.161   3.682
22528W        W94254  42.261  24.144   4.765
22529W        W94255   8.709   6.443  11.045
22530W        W94256  12.758   6.422  13.460
22531W        W94257   3.452   5.079  11.003
22532W        W94258  30.597   7.932  13.317
22533W        W94259  11.392  22.386   3.731
22534W        W94260  25.300  37.723  12.554
22535W        W94261   2.415   2.218   3.579
22536W        W94262  24.987  23.057   3.610
22537W        W94263  43.568  38.538  12.071
22538W        W94264   5.346   9.361   0.227
22539W        W94265  19.562   4.843  10.976
22540W        W94266   1.411  24.634  11.499
22541W        W94267  36.477  24.021  11.543
22542W        W94268  35.414  28.786  13.787
22543W        W94269  21.410   9.102   0.769
22544W        W94270  43.389  33.760  11.862
22545W        W94271  32.523  29.607   2.680
22546W        W94272  29.077  11.349   4.900
22547W        W94273  12.725  25.678  12.424
22548W        W94274  28.883  35.872   2.399
22549W        W94275  44.400  29.043   1.364
22550W        W94276  23.269  19.815  12.050
22551W        W94277  12.422  38.824   0.954
22552W        W94278  14.856   2.517  11.575
22553W        W94279  35.057  10.057   0.819
22554W        W94280   7.357  18.213   1.325
22555W        W94281  22.774   8.389  14.403
22556W        W94282  33.351  10.639  12.088
22557W        W94283  24.696  38.499   0.701
22558W        W94284   1.438  32.930   2.818
22559W        W94285  22.831  20.297  14.799
22560W        W94286  28.375  44.519  11.510
22561W        W94287  27.460  36.007  12.489
22562W        W94288  14.510  41.061   4.823
22563W        W94289  20.066  25.315  11.188
22564W        W94290  44.850   2.190   4.871
22565W        W94291  10.229  28.055   0.915
22566W        W94292  26.216  12.811  11.199
22567W        W94293  36.399   6.803   3.251
22568W        W94294   7.915  13.799  14.837
22569W        W94295   7.720   5.244  12.105
22570W        W94296   7.258  11.169  11.513
22571W        W94297   0.717   5.416   1.968
22572W        W94298  26.288   7.822   4.444
22573W        W94299  23.709   9.300   0.719
22574W        W94300  13.297  20.346  12.902
22575W        W94301  26.364   4.480   1.723
22576W        W94302  38.840  20.222  13.084
22577W        W94303  35.052   9.653   4.671
22578W        W94304  13.111  28.994   0.355
22579W        W94305   0.788  15.381   0.168
22580W        W94306  35.313   1.512   1.936
22581W        W94307  13.734  28.892  13.412
22582W        W94308  25.352  39.822  10.608
22583W        W94309  11.482  25.071  10.676
22584W        W94310  43.548  24.640  11.440
22585W        W94311   8.716  38.998  13.117
22586W        W94312  13.111   4.974  10.323
22587W        W94313   3.372  21.700  10.617
22588W        W94314  23.107   4.310  10.649
22589W        W94315   4.842  17.062   1.667
22590W        W94316  11.829  12.214   3.174
22591W        W94317   3.577  33.305   2.903
22592W        W94318   5.472  34.424   4.839
22593W        W94319   5.728  34.966   2.259
22594W        W94320  31.770  44.936   0.965
22595W        W94321  28.432  32.158   0.300
22596W        W94322  30.578  11.265  13.165
22597W        W94323  34.794  22.728  13.535
22598W        W94324   2.889   1.010  11.186
22599W        W94325  26.536  11.376  10.131
22600W        W94326   8.718  43.127   3.762
22601W        W94327  19.824  37.596   0.965
22602W        W94328  19.749  15.365   3.361
22603W        W94329  17.362  40.017   4.578
22604W        W94330  25.175  10.595   3.684
22605W        W94331  25.683  32.463   4.168
22606W        W94332  37.396  19.055  12.177
22607W        W94333  31.102  34.650  11.164
22608W        W94334  27.613   7.137   0.443
22609W        W94335  21.579  16.163  10.417
22610W        W94336  43.959   7.705   2.848
22611W        W94337  31.569   1.209  14.910
22612W        W94338  39.389   9.698   3.939
22613W        W94339   3.280  15.312  14.756
22614W        W94340  39.349   7.596  13.047
22615W        W94341  24.417  16.184  14.843
22616W        W94342  19.681   9.141   1.340
22617W        W94343   7.823  28.026   4.506
22618W        W94344  26.285  37.435   2.831
22619W        W94345   8.844  39.409  14.859
22620W        W94346  14.392  44.923  14.238
22621W        W94347  42.569  42.440  11.062
22622W        W94348   4.015  16.766   3.724
22623W        W94349  41.180  20.092   0.268
22624W        W94350  32.937  36.371   0.377
22625W        W94351   7.883   6.653  11.503
22626W        W94352  21.558  15.051  14.870
22627W        W94353  24.572  43.036  14.312
22628W        W94354  34.001  15.446  13.509
22629W        W94355  27.525  44.546  12.399
22630W        W94356  27.703  26.940   3.680
22631W        W94357  27.985  44.540  13.060
22632W        W94358  18.516   7.238  11.697
22633W        W94359  15.052  23.102  11.445
22634W        W94360  35.407  21.567  13.771
22635W        W94361  27.179  16.144  14.531
22636W        W94362  17.706  17.057   4.338
22637W        W94363   2.182   4.233   0.273
22638W        W94364  25.626  41.223  13.029
22639W        W94365  38.556   2.441   3.797
22640W        W94366  14.263  18.505  14.900
22641W        W94367   5.791  25.643   2.305
22642W        W94368   7.941  43.809  10.706
22643W        W94369  25.424  41.861  11.665
22644W        W94370   0.528   1.983   0.271
22645W        W94371   2.454   8.612   2.625
22646W        W94372   2.783  37.404  12.083
22647W        W94373  12.617  10.188  12.661
22648W        W94374   7.297  29.511   4.656
22649W        W94375  16.402  25.160   0.892
22650W        W94376  23.255  18.288  13.597
22651W        W94377   7.279  22.934  13.422
22652W        W94378  12.833   1.969   2.206
22653W        W94379  35.304  40.453  14.386
22654W        W94380  31.629  22.090   3.749
22655W        W94381   2.283  20.970  14.297
22656W        W94382  24.703  24.962   4.890
22657W        W94383   5.879   2.773  10.535
22658W        W94384  22.556   7.979   0.374
22659W        W94385  17.216  21.737  11.354
22660W        W94386  40.413  31.702   3.205
22661W        W94387   7.933  23.692  10.289
22662W        W94388  27.596  37.039  11.193
22663W        W94389  17.900  26.779   3.766
22664W        W94390  40.908  30.517  11.985
22665W        W94391   0.924   5.960  14.755
22666W        W94392  25.509  26.100  10.372
22667W        W94393   1.079  23.733   3.692
22668W        W94394  41.506  40.037  13.971
22669W        W94395  26.482  35.334   1.250
22670W        W94396   4.482  26.688   1.345
22671W        W94397  30.958  10.004  12.793
22672W        W94398  38.035  26.571  13.944
22673W        W94399  10.375  41.556  10.300
22674W        W94400  43.467  32.958   3.673
22675W        W94401  19.221  27.254  14.258
22676W        W94402  19.053  34.493   0.346
22677W        W94403  42.557  27.002   4.204
22678W        W94404  29.576  13.359  10.890
22679W        W94405  32.541  34.044   2.761
22680W        W94406  44.991  23.186  12.262
22681W        W94407   1.817  32.035  12.635
22682W        W94408  18.787  31.957   4.066
22683W        W94409  12.225  44.717  13.528
22684W        W94410  12.669  14.217   3.074
22685W        W94411  30.147  22.982   0.319
22686W        W94412   8.179  20.447  13.896
22687W        W94413  16.594  43.891  13.992
22688W        W94414  17.790  44.536  14.071
22689W        W94415  29.895  29.110   3.783
22690W        W94416  10.120  27.923   3.378
22691W        W94417  34.441  32.820   2.402
22692W        W94418  22.643  31.962   1.822
22693W        W94419  24.140  19.583   2.627
22694W        W94420  34.911   7.637  13.129
22695W        W94421  41.943  40.282  11.087
22696W        W94422  32.489  22.998   4.087
22697W        W94423  22.649   5.285  13.531
22698W        W94424  33.352   1.280  10.735
22699W        W94425   9.165   1.263   3.264
22700W        W94426  43.147  24.879  11.676
22701W        W94427   2.781   4.123   2.758
22702W        W94428  34.692  39.763  12.906
22703W        W94429  15.565  11.687   1.213
22704W        W94430  26.679  13.284  11.958
22705W        W94431   4.274   4.965  13.776
22706W        W94432   2.284  34.765  11.654
22707W        W94433  23.365  25.734  14.154
22708W        W94434  35.305   6.064   3.292
22709W        W94435   4.259  17.575   1.888
22710W        W94436   3.387  43.019   3.307
22711W        W94437   0.892  14.377   1.410
22712W        W94438   9.661  21.535   4.859
22713W        W94439  12.165  16.062  12.512
22714W        W94440  15.404   5.518   1.394
22715W        W94441  34.617  25.355  12.603
22716W        W94442  39.317  11.781  14.921
22717W        W94443  38.600  43.286   1.664
22718W        W94444  36.400  38.460   0.259
22719W        W94445  29.412  15.300  12.758
22720W        W94446  12.347  30.043  12.469
22721W        W94447   7.177  37.531   2.900
22722W        W94448  28.475  20.125  11.726
22723W        W94449   3.134  35.573  13.552
22724W        W94450  28.547  24.841  10.779
22725W        W94451  30.328  33.459   3.666
22726W        W94452  20.958  23.208   1.853
22727W        W94453  37.969  10.668   0.824
22728W        W94454   2.295   9.437   1.255
22729W        W94455   1.039   2.761  14.892
22730W        W94456   6.648  42.329   2.045
22731W        W94457   8.233  13.296  11.068
22732W        W94458  41.351   1.284  11.476
22733W        W94459  42.687   6.713  10.982
22734W        W94460  19.160   2.527   3.327
22735W        W94461  31.020  44.270  12.358
22736W        W94462  42.486   1.317   3.941
22737W        W94463   4.615  35.964  13.921
22738W        W94464  11.372  18.301  14.308
22739W        W94465  22.085  32.213   2.361
22740W        W94466  23.205  25.198   3.747
22741W        W94467  17.714  16.836   4.811
22742W        W94468  30.163   1.968  13.069
22743W        W94469   4.337  42.795   4.798
22744W        W94470   8.301  35.111   3.838
22745W        W94471   0.271  39.342   0.468
22746W        W94472  38.840  29.628  12.465
22747W        W94473  36.754  42.954   2.627
22748W        W94474   6.165  28.580   3.127
22749W        W94475  31.094  34.728   0.194
22750W        W94476  44.427  10.278  14.189
22751W        W94477   1.270  39.296   1.034
22752W        W94478   5.307  10.435   4.865
22753W        W94479  38.042   3.418   3.594
22754W        W94480  25.476   5.860   1.621
22755W        W94481  13.559  11.730  13.601
22756W        W94482  21.137  16.649  11.975
22757W        W94483   1.003  15.184   0.989
22758W        W94484  29.696  32.671  14.420
22759W        W94485  37.792  11.285  14.448
22760W        W94486   5.937  25.997  12.576
22761W        W94487  35.468  14.184   0.429
22762W        W94488  23.870  25.037   0.812
22763W        W94489   3.548  12.735  12.566
22764W        W94490  17.006   2.629  10.868
22765W        W94491  32.155   4.848   0.331
22766W        W94492   9.645  10.123   3.224
22767W        W94493  13.557  24.235   3.120
22768W        W94494  40.299   5.679  13.168
22769W        W94495  19.651   6.834  14.983
22770W        W94496  22.623  41.470  12.275
22771W        W94497  33.496  31.116   2.823
22772W        W94498  23.125  20.234   4.351
22773W        W94499  20.724   9.572  14.891
22774W        W94500   9.636  14.870  11.455
22775W        W94501  25.364  29.756   2.290
22776W        W94502   0.851   0.321  11.789
22777W        W94503  42.028  17.541   2.774
22778W        W94504  42.682  21.182   1.779
22779W        W94505  26.202  23.777  11.543
22780W        W94506  36.788  27.028   0.725
22781W        W94507  36.914  22.678  12.508
22782W        W94508  28.180  33.065  12.030
22783W        W94509  13.967  28.727   3.942
22784W        W94510  36.082  26.048   4.642
22785W        W94511  44.187  26.082   1.755
22786W        W94512  31.028  37.412  12.359
22787W        W94513  25.255  24.641   1.345
22788W        W94514  22.552  30.555   1.832
22789W        W94515  26.545  18.312  14.917
22790W        W94516   4.495  44.510  13.024
22791W        W94517  40.800  26.985  13.739
22792W        W94518  41.245   1.270   0.734
22793W        W94519  42.069  38.818  14.540
22794W        W94520   9.759  30.971   0.520
22795W        W94521  40.483  29.037   0.747
22796W        W94522  34.164  21.644   0.551
22797W        W94523  40.539  32.862   2.191
22798W        W94524  14.400  35.053  12.989
22799W        W94525   1.819  32.626  11.860
22800W        W94526  15.064  13.005  11.644
22801W        W94527   9.299  18.137  11.722
22802W        W94528   8.823   7.920  13.445
22803W        W94529  25.300  32.981  11.542
22804W        W94530  43.095  16.644   1.419
22805W        W94531  20.001  38.849   2.349
22806W        W94532  20.308  40.562  10.768
22807W        W94533  13.100   9.237  13.639
22808W        W94534   7.257  33.503   1.691
22809W        W94535  15.155   0.259  13.065
22810W        W94536  27.567   9.295  10.534
22811W        W94537  26.470   4.372   2.542
22812W        W94538  15.667  26.580   4.106
22813W        W94539  23.651  44.027  12.104
22814W        W94540   0.909  12.205  14.637
22815W        W94541  26.414  22.138   0.020
22816W        W94542  27.931  23.784   4.063
22817W        W94543  22.776  10.652  12.718
22818W        W94544  33.085  20.189  13.499
22819W        W94545  32.461  37.979   1.931
22820W        W94546  14.226  29.614   2.190
22821W        W94547  21.240   1.882   1.910
22822W        W94548   8.954  20.561  10.972
22823W        W94549  39.347  26.559  11.200
22824W        W94550  26.912  29.005  14.797
22825W        W94551  19.495   3.894   1.839
22826W        W94552  26.668  30.916  11.599
22827W        W94553  43.826  30.996   3.863
22828W        W94554   7.849  16.748  14.454
22829W        W94555  25.925  29.871  12.672
22830W        W94556  32.538  42.997  11.567
22831W        W94557  30.279  31.587   4.169
22832W        W94558  13.058  22.595  13.088
22833W        W94559   7.474   9.917  12.442
22834W        W94560  42.298  23.544  10.674
22835W        W94561  41.243  11.572  13.083
22836W        W94562  41.455  38.078   3.455
22837W        W94563  14.143  23.091   4.069
22838W        W94564  24.181  32.428   0.889
22839W        W94565   9.764  37.947  12.528
22840W        W94566  39.066   5.666   2.169
22841W        W94567   2.225  42.928   1.260
22842W        W94568  16.492  18.847  14.434
22843W        W94569  27.564   8.381   2.058
22844W        W94570  28.654  33.909   1.059
22845W        W94571  40.208  37.068  10.549
22846W        W94572  32.826  10.778  14.834
22847W        W94573  22.773   0.294   2.451
22848W        W94574  27.939  29.506   0.491
22849W        W94575  44.189  32.761  13.855
22850W        W94576  33.201  39.995  13.874
22851W        W94577  41.265  36.853   1.373
22852W        W94578  43.383  38.056   2.256
22853W        W94579   2.913  32.034   3.784
22854W        W94580  17.152  14.901   1.414
22855W        W94581  23.031  35.897   1.655
22856W        W94582  28.878  33.529  13.899
22857W        W94583  22.280  13.073  10.681
22858W        W94584  26.637  33.527  11.499
22859W        W94585   1.981  30.392  11.177
22860W        W94586  31.580  43.013  14.366
22861W        W94587  20.494   0.720   2.314
22862W        W94588  19.585  19.897   0.340
22863W        W94589  18.723  34.886  11.579
22864W        W94590  38.133  33.850   3.733
22865W        W94591  36.051  37.847   3.725
22866W        W94592  12.756   7.949   1.946
22867W        W94593  20.424  44.218   3.193
22868W        W94594  27.088   8.960   4.331
22869W        W94595  15.633  30.425   4.348
22870W        W94596  15.333  41.002  11.071
22871W        W94597  25.136  37.521   1.620
22872W        W94598   0.946  21.330  11.064
22873W        W94599   1.758   5.630  14.463
22874W        W94600  24.448  34.051   1.868
22875W        W94601  13.359  28.507   3.096
22876W        W94602  42.979  10.820  12.496
22877W        W94603   9.522  22.016   2.648
22878W        W94604  19.649  44.020  14.442
22879W        W94605  26.470  14.177   2.411
22880W        W94606  42.519   8.938   4.168
22881W        W94607  40.024  11.760   0.707
22882W        W94608  26.666  44.364   0.356
22883W        W94609  13.372  39.113  12.377
22884W        W94610  43.415  34.681  11.013
22885W        W94611  41.772   6.932   2.778
22886W        W94612  21.740  16.428   2.844
22887W        W94613  38.300  10.986  10.492
22888W        W94614   3.450  15.112  10.022
22889W        W94615   5.660   7.262   0.098
22890W        W94616   0.498  23.771  13.501
22891W        W94617  11.566  13.970  14.299
22892W        W94618   5.653  42.063   3.249
22893W        W94619  36.460  44.008   3.741
22894W        W94620   6.848   8.957  14.524
22895W        W94621  25.796   9.145   3.231
22896W        W94622  37.869  28.589  13.091
22897W        W94623  20.007  15.732   1.801
22898W        W94624   5.467   4.750   3.352
22899W        W94625  27.392  31.007  13.992
22900W        W94626  43.732  29.814  12.994
22901W        W94627  12.518   4.548  12.140
22902W        W94628  15.198  40.334   0.448
22903W        W94629  12.842   2.943  14.474
22904W        W94630  15.002  33.671   3.622
22905W        W94631  17.830   6.663  11.646
22906W        W94632   7.389  30.431   3.620
22907W        W94633   7.284  34.644   4.716
22908W        W94634   1.832  12.880  10.772
22909W        W94635  11.844  30.541   3.579
22910W        W94636  32.928  15.177   1.190
22911W        W94637  16.807  42.207   2.717
22912W        W94638  17.860  19.743  13.832
22913W        W94639  33.776  20.511   0.809
22914W        W94640  44.080  30.658   0.437
22915W        W94641  32.605   0.271  11.706
22916W        W94642  16.103  40.069  13.084
22917W        W94643  16.240  34.557  10.607
22918W        W94644  37.062  20.591   4.361
22919W        W94645   6.182   1.894   4.231
22920W        W94646   8.566   0.344  11.247
22921W        W94647  41.308  29.031   2.220
22922W        W94648  22.792   5.215  10.226
22923W        W94649  32.081  10.735  11.869
22924W        W94650  10.391   9.901  11.724
22925W        W94651   7.053  19.097   2.775
22926W        W94652  44.731  30.148  13.047
22927W        W94653  32.479   2.741   4.899
22928W        W94654  27.579   9.288  13.873
22929W        W94655  31.052  38.612   0.027
22930W        W94656  20.759  10.826  14.334
22931W        W94657  17.631   9.123  14.916
22932W        W94658  31.450  29.631  12.434
22933W        W94659  28.286  18.284   2.242
22934W        W94660  20.091  26.183   0.303
22935W        W94661  26.222   7.778  13.041
22936W        W94662  44.611  34.886   3.320
22937W        W94663  39.894  33.049  11.224
22938W        W94664  35.533   4.922  12.888
22939W        W94665  32.616  41.246   2.712
22940W        W94666  11.279   2.235   4.187
22941W        W94667  40.831  33.281   2.185
22942W        W94668   9.763  18.170  11.961
22943W        W94669  19.197  19.034  13.548
22944W        W94670  16.682   8.708  14.782
22945W        W94671  24.102   6.361   3.621
22946W        W94672  16.920  25.180   3.751
22947W        W94673   8.382   1.265   0.745
22948W        W94674  18.160  34.085   2.434
22949W        W94675  27.395  24.815  11.625
22950W        W94676  11.119  17.154   3.679
22951W        W94677   6.646   1.286  12.043
22952W        W94678  26.497  12.848   0.704
22953W        W94679  20.833  40.024   1.847
22954W        W94680   0.045  34.117   2.873
22955W        W94681  16.203  10.059   1.054
22956W        W94682   1.489  27.972  12.176
22957W        W94683  14.516  12.844   2.683
22958W        W94684  42.800   8.269  13.949
22959W        W94685   2.230   7.869   4.256
22960W        W94686   6.289  34.127   1.003
22961W        W94687  37.366  36.818  11.251
22962W        W94688  35.911  22.432   3.139
22963W        W94689   0.906  20.793  11.083
22964W        W94690  14.591  21.635  11.150
22965W        W94691   8.703   8.036  12.924
22966W        W94692  17.716   8.351  13.040
22967W        W94693  21.734   8.300  10.487
22968W        W94694  37.369   8.325  10.526
22969W        W94695  19.631  17.312  11.146
22970W        W94696   7.360  18.266   2.622
22971W        W94697   2.177   7.394   2.643
22972W        W94698  10.438  16.260  11.585
22973W        W94699  21.237  10.343  10.740
22974W        W94700  38.027  17.791   1.862
22975W        W94701   1.061  31.068  14.951
22976W        W94702   4.197   4.329   3.253
22977W        W94703  26.236  13.100   1.520
22978W        W94704  20.699  24.153  12.339
22979W        W94705  39.449  30.411   2.601
22980W        W94706  27.902  42.769  13.473
22981W        W94707  31.304  19.622   4.762
22982W        W94708  18.111  17.857  14.747
22983W        W94709   5.827  40.516   2.310
22984W        W94710  14.099  29.977   0.247
22985W        W94711  38.882  44.817  13.612
22986W        W94712   4.459  26.541   0.421
22987W        W94713  15.316  29.025   1.342
22988W        W94714   1.503  11.238  12.596
22989W        W94715   1.535   9.417   2.328
22990W        W94716  15.844  11.815   3.037
22991W        W94717  39.926  40.374  10.708
22992W        W94718  21.221   4.676   3.293
22993W        W94719  18.633  12.307   0.083
22994W        W94720  12.104  18.281  14.921
22995W        W94721  29.396  36.453   3.219
22996W        W94722  39.838  10.389   0.254
22997W        W94723  21.623  32.067   3.414
22998W        W94724  29.677  36.472  10.655
22999W        W94725  38.291  21.680   4.494
23000W        W94726  12.408  25.110  14.068
23001W        W94727  11.293  30.475  10.428
23002W        W94728   5.684   3.687   0.262
23003W        W94729  23.191  30.914  11.040
23004W        W94730   8.025   5.080   0.808
23005W        W94731   4.185  32.589  11.201
23006W        W94732  28.405  32.626  11.919
23007W        W94733  13.279  26.399  13.883
23008W        W94734  33.379  19.269   3.095
23009W        W94735  39.760   1.704  13.019
23010W        W94736   1.911  22.375   3.205
23011W        W94737   1.200  16.231   1.008
23012W        W94738   1.896  37.481   0.233
23013W        W94739  15.721   6.323   4.096
23014W        W94740  40.858  34.536   1.870
23015W        W94741   8.871  14.201   3.617
23016W        W94742  32.400  23.917  10.906
23017W        W94743  25.162  13.725  13.265
23018W        W94744  23.873  18.169   2.769
23019W        W94745   7.090  42.911  11.119
23020W        W94746  36.271  29.928  13.321
23021W        W94747  31.478   2.606   1.223
23022W        W94748   5.414   2.975  10.357
23023W        W94749  23.193  24.429   0.381
23024W        W94750  28.702  16.311  12.943
23025W        W94751  20.582   4.352  10.667
23026W        W94752  24.241  40.335  12.001
23027W        W94753  10.372  15.107   1.180
23028W        W94754   7.234  22.523   2.804
23029W        W94755  31.519   3.187  13.538
23030W        W94756  44.340  44.958  13.150
23031W        W94757  33.426  17.328  11.594
23032W        W94758  12.531  21.924  13.870
23033W        W94759  36.907  33.614   0.366
23034W        W94760  15.135  32.282   0.979
23035W        W94761  30.500  43.768   1.752
23036W        W94762   7.033  24.753  11.935
23037W        W94763  36.413   5.231  13.649
23038W        W94764  24.198  18.847   3.105
23039W        W94765  35.468  29.859  14.883
23040W        W94766   4.182  19.448   2.296
23041W        W94767  37.117  13.094   4.308
23042W        W94768   4.809  37.186   5.086
23043W        W94769   4.961  18.002  12.057
23044W        W94770  35.354   9.449   1.809
23045W        W94771  20.456  44.131   1.793
23046W        W94772   7.399  20.710   4.296
23047W        W94773  36.486  16.617  11.715
23048W        W94774  22.581  36.833  11.519
23049W        W94775   6.149  42.336  10.619
23050W        W94776  43.288   1.529   2.891
23051W        W94777  26.064  37.293  13.856
23052W        W94778  13.354  33.490   1.577
23053W        W94779  13.670   3.936  14.120
23054W        W94780   0.845   4.019  13.461
23055W        W94781  19.408  34.864   0.425
23056W        W94782  34.126  16.151  14.829
23057W        W94783   3.699  36.441   2.827
23058W        W94784  37.165  22.157  11.632
23059W        W94785   4.482  30.813  12.532
23060W        W94786  15.091  41.082   1.187
23061W        W94787  27.765   8.431  13.960
23062W        W94788  41.852  31.738  11.219
23063W        W94789  18.503  21.176   1.751
23064W        W94790  30.215   9.897   2.278
23065W        W94791  24.559  42.711  13.920
23066W        W94792   6.467  35.842  11.224
23067W        W94793   6.592   8.429   0.218
23068W        W94794   1.376  36.057  14.408
23069W        W94795  33.090   3.886  14.037
23070W        W94796  39.317   1.478  12.913
23071W        W94797  30.481  39.287  11.689
23072W        W94798  12.847  11.641  14.384
23073W        W94799   7.217  18.401  12.967
23074W        W94800  14.685   9.538  14.313
23075W        W94801   6.953   4.918   1.221
23076W        W94802  44.253  20.245   1.327
23077W        W94803  16.980  33.028   0.689
23078W        W94804   8.845  18.536   3.870
23079W        W94805  31.281  17.320   5.171
23080W        W94806  41.139  42.793   0.275
23081W        W94807  26.951   4.890   4.364
23082W        W94808  11.301  13.210  14.543
23083W        W94809  19.513  21.545   4.265
23084W        W94810  21.942  38.404   1.722
23085W        W94811  23.557  26.124   5.007
23086W        W94812  12.417  36.299   2.889
23087W        W94813  36.838  23.614  10.794
23088W        W94814  28.034   2.831  13.858
23089W        W94815  28.604   6.337   0.704
23090W        W94816   4.304  19.254   3.345
23091W        W94817  33.324  10.922  13.755
23092W        W94818   3.480  18.410   3.034
23093W        W94819  30.446  23.620   4.806
23094W        W94820  39.513  30.983   3.938
23095W        W94821  41.400  39.658  10.518
23096W        W94822   4.112  32.268   3.709
23097W        W94823  22.262   1.442  14.786
23098W        W94824  39.483  36.375  14.944
23099W        W94825  44.884  25.580  11.949
23100W        W94826  16.260  20.631  13.204
23101W        W94827  25.763  26.998  10.821
23102W        W94828  30.133   7.580   0.521
23103W        W94829  17.783  24.824   2.377
23104W        W94830   3.316  18.531   0.031
23105W        W94831  25.394  11.456   2.824
23106W        W94832  25.019   6.171   0.242
23107W        W94833  36.110  15.533   2.863
23108W        W94834  22.030   6.417   2.792
23109W        W94835  13.281   9.213   0.578
23110W        W94836   6.473  35.485   3.605
23111W        W94837  43.494   8.941  10.920
23112W        W94838  33.943  25.934   3.817
23113W        W94839   3.688  35.544  14.449
23114W        W94840  44.277   4.673   1.052
23115W        W94841  34.112  13.217  11.130
23116W        W94842  38.224   2.209   0.868
23117W        W94843  33.517   6.382  13.394
23118W        W94844  39.115  33.452  12.989
23119W        W94845  24.054   1.410  14.023
23120W        W94846  44.274  41.081   0.821
23121W        W94847  18.942  33.068   1.728
23122W        W94848  38.811  38.948  14.302
23123W        W94849  14.724  33.882   1.880
23124W        W94850  38.061  34.130  12.793
23125W        W94851  27.676  24.492  13.817
23126W        W94852  14.377  29.060   3.801
23127W        W94853  39.876  10.148   2.810
23128W        W94854  41.023  18.566   1.934
23129W        W94855  20.357  29.441   4.109
23130W        W94856  18.542  13.984   4.169
23131W        W94857   0.744  25.328  11.080
23132W        W94858  42.908   3.149   3.236
23133W        W94859  44.876   0.008   1.151
23134W        W94860   3.494   4.531  12.861
23135W        W94861  39.638   2.394   1.729
23136W        W94862   6.684  40.294  12.119
23137W        W94863   1.818  10.360   0.019
23138W        W94864  10.906  22.987   5.147
23139W        W94865  37.996  25.745  13.449
23140W        W94866  39.484  33.881   1.426
23141W        W94867  40.939  33.740  12.913
23142W        W94868   8.617   9.723   3.861
23143W        W94869   5.288   8.879  11.496
23144W        W94870  34.205  22.874  13.535
23145W        W94871  41.752  41.318  14.219
23146W        W94872  35.010  22.231  12.353
23147W        W94873  31.898   5.563   0.950
23148W        W94874   8.627  12.702   0.253
23149W        W94875  26.184  36.775  13.888
23150W        W94876   0.201   8.220   1.151
23151W        W94877  25.559   7.300  12.497
23152W        W94878   7.432  28.066   1.322
23153W        W94879  17.602  32.606  12.062
23154W        W94880  10.866  43.590  11.972
23155W        W94881   3.785  20.141   3.168
23156W        W94882  13.325   4.543   1.025
23157W        W94883  31.575   3.730   2.605
23158W        W94884   0.524  21.975   1.849
23159W        W94885   2.075  11.845   0.912
23160W        W94886   3.439  27.516   1.350
23161W        W94887  25.233  14.548   2.301
23162W        W94888  31.985  28.113   4.693
23163W        W94889   9.240  42.499   4.305
23164W        W94890  28.943  24.096  14.972
23165W        W94891   0.864  35.008   3.566
23166W        W94892  33.837  10.497   1.317
23167W        W94893   8.729   2.725   1.569
23168W        W94894  41.967  22.269  10.900
23169W        W94895  22.704  18.513  12.995
23170W        W94896  18.515  32.594   0.186
23171W        W94897  14.035  33.509  11.145
23172W        W94898  26.031  26.217  10.440
23173W        W94899  12.051  25.736  14.790
23174W        W94900   9.562   1.876   0.291
23175W        W94901  30.985   3.690  10.517
23176W        W94902  41.512  39.852   1.381
23177W        W94903  30.516  16.598  13.971
23178W        W94904   3.686  19.085  11.001
23179W        W94905  16.356  40.340  14.867
23180W        W94906   9.796  38.775   0.977
23181W        W94907  17.820  23.102   4.565
23182W        W94908  22.230   6.089  13.009
23183W        W94909  16.715  14.054  14.452
23184W        W94910  37.552   1.274  10.616
23185W        W94911  33.218  17.815   1.801
23186W        W94912  40.199  16.767   4.090
23187W        W94913  16.971  39.275  14.407
23188W        W94914  28.364  43.056   4.559
23189W        W94915  36.123  27.704   1.866
23190W        W94916   9.953  32.697   1.963
23191W        W94917  26.582  14.872  13.891
23192W        W94918   5.386  30.839  14.124
23193W        W94919  33.869  17.688   2.908
23194W        W94920  27.614  40.970  13.557
23195W        W94921  41.755  36.810  12.385
23196W        W94922   3.012  38.834   4.245
23197W        W94923  18.368  22.167  12.892
23198W        W94924   8.327   6.066   5.527
23199W        W94925  37.267  28.106  11.952
23200W        W94926  38.735   4.654  11.170
23201W        W94927   6.722  28.202  13.123
23202W        W94928   6.263   3.814  12.606
23203W        W94929   1.309  41.891   3.749
23204W        W94930  35.385  34.623   0.349
23205W        W94931   0.453  16.846   0.285
23206W        W94932  42.360  30.982   0.136
23207W        W94933  37.261   0.245  10.257
23208W        W94934  10.279  26.296   2.113
23209W        W94935  25.221   2.295  13.038
23210W        W94936  31.422  24.531   1.154
23211W        W94937  32.628  31.486   1.398
23212W        W94938  28.892  20.720   4.554
23213W        W94939  32.424   3.238   0.462
23214W        W94940  12.366  10.303   1.256
23215W        W94941  20.316  28.555  13.669
23216W        W94942   0.538   8.270  11.874
23217W        W94943   7.910   7.883  12.577
23218W        W94944  39.546  12.357   3.104
23219W        W94945  35.879   7.826   1.044
23220W        W94946  31.057  11.281   4.305
23221W        W94947  26.745  35.165  11.850
23222W        W94948  28.648  12.751  11.621
23223W        W94949  17.705   6.567   4.621
23224W        W94950  21.764  31.486   1.454
23225W        W94951   7.395  24.144  11.174
23226W        W94952  19.747  12.928  12.521
23227W        W94953  31.925   4.273   3.398
23228W        W94954   6.337  21.233   1.580
23229W        W94955  27.478  32.474  10.677
23230W        W94956   8.655   1.273  14.367
23231W        W94957  32.940  38.671  13.927
23232W        W94958  44.977  23.664  11.125
23233W        W94959  19.061  10.203  13.692
23234W        W94960  32.478  27.876   0.301
23235W        W94961  23.248  23.806  13.493
23236W        W94962   0.757   6.725   1.388
23237W        W94963  19.011  25.251  14.706
23238W        W94964   7.385  27.929   2.784
23239W        W94965  11.374  36.402  13.108
23240W        W94966  44.845  41.449   2.154
23241W        W94967  16.179  26.297  10.391
23242W        W94968  15.607  37.847   1.319
23243W        W94969   4.714  36.993  13.449
23244W        W94970  31.980  34.918   4.186
23245W        W94971   4.337  23.581  11.004
23246W        W94972  38.370   5.981   5.100
23247W        W94973   2.798  17.234  14.919
23248W        W94974  18.033  30.138  13.041
23249W        W94975   9.422  33.973  12.156
23250W        W94976   7.415   4.475   1.186
23251W        W94977  14.733   7.172  12.718
23252W        W94978  35.649  24.534   0.202
23253W        W94979  17.392  22.462  12.045
23254W        W94980   0.969  11.678  11.210
23255W        W94981  36.982  29.514  12.374
23256W        W94982  14.607  14.562  12.078
23257W        W94983  43.058  14.401  14.972
23258W        W94984   3.945   1.064  11.174
23259W        W94985   7.117  44.942  12.550
23260W        W94986  13.790   0.325  13.536
23261W        W94987  40.420  32.972  12.438
23262W        W94988   1.101  33.580   3.293
23263W        W94989  10.356  34.148   0.835
23264W        W94990   9.519  32.925   1.841
23265W        W94991  22.109  38.111   4.748
23266W        W94992  35.417   7.161  11.963
23267W        W94993  35.637   3.729  10.975
23268W        W94994  10.310  39.986   1.959
23269W        W94995  44.172  14.265  12.970
23270W        W94996  33.803  44.940   3.801
23271W        W94997  36.411  15.754  13.541
23272W        W94998  32.144   5.828   3.525
23273W        W94999  32.734  40.328  13.417
23274W        W95000  19.769   3.267  10.112
23275W        W95001  33.488  15.547   1.840
23276W        W95002  13.357   1.817   3.118
23277W        W95003  12.211  37.394   2.220
23278W        W95004  11.210  17.239  12.587
23279W        W95005   6.133  25.659  11.095
23280W        W95006  43.370  31.696  13.712
23281W        W95007  13.155  40.003   4.271
23282W        W95008  21.659  19.332  10.512
23283W        W95009  10.281  30.026  13.557
23284W        W95010   3.710  32.576   3.846
23285W        W95011  15.308  40.307  13.275
23286W        W95012   8.759  39.242   3.320
23287W        W95013  15.199  26.370   3.251
23288W        W95014   0.290  41.600   4.907
23289W        W95015   5.523  36.596  14.820
23290W        W95016  20.944   1.084   1.574
23291W        W95017  42.421  14.578  13.796
23292W        W95018  16.238  18.156   0.766
23293W        W95019   0.430  23.109   2.340
23294W        W95020  43.699  43.519  14.566
23295W        W95021  26.697  31.182  13.471
23296W        W95022   2.497  40.117   1.708
23297W        W95023  32.598  17.990  13.496
23298W        W95024  38.877  29.436  11.986
23299W        W95025  28.124  38.818   1.173
23300W        W95026   5.241  16.300   0.804
23301W        W95027   8.246  14.050  14.503
23302W        W95028  38.776  13.225  10.233
23303W        W95029  38.428  36.961   4.102
23304W        W95030  12.437   2.803  10.767
23305W        W95031  40.792  36.540  14.056
23306W        W95032   6.437  28.165  12.177
23307W        W95033   7.863   8.166   1.949
23308W        W95034  27.088  13.789  14.359
23309W        W95035   5.538   3.490  10.265
23310W        W95036   3.621  32.738  14.447
23311W        W95037   9.687  25.200   0.548
23312W        W95038  40.894  37.086   1.836
23313W        W95039  37.356  36.022   1.455
23314W        W95040   6.531  29.442  11.455
23315W        W95041  31.505  16.182   1.219
23316W        W95042  17.319  43.093   3.278
23317W        W95043  10.228   5.870  10.718
23318W        W95044  44.351  34.899   4.803
23319W        W95045   9.721  21.289   0.585
23320W        W95046  12.857  24.162   1.857
23321W        W95047   7.784  11.861   1.670
23322W        W95048  42.463  20.172   3.838
23323W        W95049  28.482  22.092  13.968
23324W        W95050  34.705  20.010   0.263
23325W        W95051  29.777  15.081  14.767
23326W        W95052  30.164  29.181   0.783
23327W        W95053   3.658  40.496  11.880
23328W        W95054   3.406  41.842   5.048
23329W        W95055  22.158  28.127  13.417
23330W        W95056   9.247  28.709  14.830
23331W        W95057  29.045  27.921  13.363
23332W        W95058  19.494  15.772   3.521
23333W        W95059  38.969  28.457   2.359
23334W        W95060  17.467  31.936   0.769
23335W        W95061   9.949  28.738   2.984
23336W        W95062   9.751  12.423   3.817
23337W        W95063   5.713  21.162  11.221
23338W        W95064   1.162   6.263   4.905
23339W        W95065  34.045  23.131   0.984
23340W        W95066   2.046  16.770   1.817
23341W        W95067  40.579  22.535   3.658
23342W        W95068   9.692  24.009  10.683
23343W        W95069  20.452  19.191  14.392
23344W        W95070  36.432  25.234   4.202
23345W        W95071  36.394  15.783  11.189
23346W        W95072   1.797  21.648   4.106
23347W        W95073  10.001  40.234   2.841
23348W        W95074  10.144  15.537   4.786
23349W        W95075  21.451  37.108  13.555
23350W        W95076  43.337  18.661  10.692
23351W        W95077  23.784  32.189  10.991
23352W        W95078  33.954  34.113  14.082
23353W        W95079  14.567  29.097   1.438
23354W        W95080   2.816   4.860   4.139
23355W        W95081   1.018  19.516   1.238
23356W        W95082  21.669  28.452  10.472
23357W        W95083  43.148   1.395   4.780
23358W        W95084  35.016   2.985  13.955
23359W        W95085   9.379  13.140   4.713
23360W        W95086  37.478  33.447  13.741
23361W        W95087  35.653  14.142  13.793
23362W        W95088  39.244   9.217   3.827
23363W        W95089  12.966  12.042  12.012
23364W        W95090  12.323  37.358   3.418
23365W        W95091  27.697   2.341   2.851
23366W        W95092  14.674   5.791   1.020
23367W        W95093  34.175  12.434  13.879
23368W        W95094  24.571  41.248   2.652
23369W        W95095  15.692  16.939  12.593
23370W        W95096   1.400  31.912   3.770
23371W        W95097  13.210  30.083   0.806
23372W        W95098  16.372  23.201  13.133
23373W        W95099  11.901  17.825  13.778
23374W        W95100  22.514  37.653   1.061
23375W        W95101  42.806  15.399  12.084
23376W        W95102  27.227  12.196   3.133
23377W        W95103  42.109   0.861   2.012
23378W        W95104   5.297  13.045  13.632
23379W        W95105  39.567  23.532  11.679
23380W        W95106  29.113  41.098   4.702
23381W        W95107  22.665  22.367   4.617
23382W        W95108   1.506  32.588   0.716
23383W        W95109   1.218   1.784  14.535
23384W        W95110   7.369   2.485   1.783
23385W        W95111  29.050  23.997   1.305
23386W        W95112  22.819  42.458  11.261
23387W        W95113  35.464   8.196   1.287
23388W        W95114   3.470  42.454   3.382
23389W        W95115  38.118  36.452   2.648
23390W        W95116   1.336  41.554   3.022
23391W        W95117  34.449  43.564   4.118
23392W        W95118  25.188   5.568   3.731
23393W        W95119  22.463  17.254   3.720
23394W        W95120  17.830  14.985   1.413
23395W        W95121  23.930   9.421   3.850
23396W        W95122  43.060  38.764   4.670
23397W        W95123  41.908  44.994  13.476
23398W        W95124  31.796  23.841   5.520
23399W        W95125  13.786  38.380   2.189
23400W        W95126   4.540  40.720  12.126
23401W        W95127  30.849  24.610   2.232
23402W        W95128  42.713  33.975  11.714
23403W        W95129  36.815  37.489  13.799
23404W        W95130   2.395  26.300   4.562
23405W        W95131  39.797   2.207  13.053
23406W        W95132  36.032   2.727   0.495
23407W        W95133  35.589  16.251   3.538
23408W        W95134   7.686  12.306   3.693
23409W        W95135   0.395  20.774   2.385
23410W        W95136   4.165  12.193   0.292
23411W        W95137   7.860  44.522   4.522
23412W        W95138  38.549  12.131  10.553
23413W        W95139  41.456  23.595   0.263
23414W        W95140  27.691  16.256  12.923
23415W        W95141  20.818  24.228   3.702
23416W        W95142  18.811  10.672  11.021
23417W        W95143  12.350  42.458  13.072
23418W        W95144  10.896  43.053   2.600
23419W        W95145  14.824  14.283   0.893
23420W        W95146  34.532  22.074  11.649
23421W        W95147   6.420  25.255  12.495
23422W        W95148  22.332   8.707   5.102
23423W        W95149  11.992   8.780   3.157
23424W        W95150  20.689  11.884  14.363
23425W        W95151  22.450  13.629   1.915
23426W        W95152   0.774   6.285   2.630
23427W        W95153  26.071  43.899  13.840
23428W        W95154   6.797  36.468  11.598
23429W        W95155  15.005   9.325   3.011
23430W        W95156   9.469  43.855  13.288
23431W        W95157  27.617  16.034  11.633
23432W        W95158  40.998  24.407   0.051
23433W        W95159  31.083  12.152   0.828
23434W        W95160  39.368  39.922  13.512
23435W        W95161  24.947  36.939   3.330
23436W        W95162  23.640   6.360   2.856
23437W        W95163  10.182  38.594   0.717
23438W        W95164  36.089   4.979   4.708
23439W        W95165  14.665  22.090   3.453
23440W        W95166   9.181  42.045   0.919
23441W        W95167   8.812   0.127  12.228
23442W        W95168  33.026  42.864  10.433
23443W        W95169  14.543   3.852   4.721
23444W        W95170  15.685  13.971   5.079
23445W        W95171   5.388  44.619  11.530
23446W        W95172   1.914  21.995  12.955
23447W        W95173   5.820  39.780   1.190
23448W        W95174   0.240   8.489   0.354
23449W        W95175  11.135  17.347   1.269
23450W        W95176  36.586  13.681  13.757
23451W        W95177  39.480  27.483  11.437
23452W        W95178  24.611  16.819   4.528
23453W        W95179  28.519  42.275   2.847
23454W        W95180  42.047  35.374   1.917
23455W        W95181  10.460  36.565   0.172
23456W        W95182   2.216  36.945   0.260
23457W        W95183   7.021   4.505   3.774
23458W        W95184  30.983  27.048  11.932
23459W        W95185  29.374  33.508   5.106
23460W        W95186   0.404  31.502   4.150
23461W        W95187  38.665   1.940   9.984
23462W        W95188  16.373  36.340   4.275
23463W        W95189  24.096  22.477   3.103
23464W        W95190  40.089  26.899   2.396
23465W        W95191  33.598   3.216   9.854
23466W        W95192  12.372  36.800  12.985
23467W        W95193  36.125  40.937   2.372
23468W        W95194  26.070   9.909  13.902
23469W        W95195   8.235   9.013  13.605
23470W        W95196  41.503  36.173   1.738
23471W        W95197  38.809  20.961  12.529
23472W        W95198   5.851  12.136  14.403
23473W        W95199   8.938   2.717   4.080
23474W        W95200  19.603  32.298   0.969
23475W        W95201  30.393  43.556   3.542
23476W        W95202  28.683  21.955  11.194
23477W        W95203   1.425  26.541  11.244
23478W        W95204   7.330  31.703  10.729
23479W        W95205   5.190  12.191   0.997
23480W        W95206   7.698  25.421  11.143
23481W        W95207  11.449  37.865   0.745
23482W        W95208  27.465  27.566   0.569
23483W        W95209   2.807  42.572  12.694
23484W        W95210  20.568  13.644   0.836
23485W        W95211  26.316  39.263  13.541
23486W        W95212  24.311  21.343   4.074
23487W        W95213  13.634   1.517   2.478
23488W        W95214  41.735  40.730   4.656
23489W        W95215   2.886  39.295  14.925
23490W        W95216  11.918  38.896  13.370
23491W        W95217  10.902  39.922   0.470
23492W        W95218   7.818  25.143   0.008
23493W        W95219  34.708  29.043  12.919
23494W        W95220  23.740  19.636  13.035
23495W        W95221  22.576  30.345   3.782
23496W        W95222   2.257  28.958  14.849
23497W        W95223  15.724  14.088   2.275
23498W        W95224  10.917  30.575  13.506
23499W        W95225  43.765  32.572  14.826
23500W        W95226  23.221  32.904  10.734
23501W        W95227   1.869  40.894  10.640
23502W        W95228  18.327   6.735  12.555
23503W        W95229  19.631  31.169  14.894
23504W        W95230  12.358  37.294  12.822
23505W        W95231   4.339  38.967  11.572
23506W        W95232  11.695  43.278   4.874
23507W        W95233   5.041  38.940   2.946
23508W        W95234  44.480   9.637  11.998
23509W        W95235  29.976  22.167   1.787
23510W        W95236  11.149  15.238  10.794
23511W        W95237  30.582  20.170   0.937
23512W        W95238  44.512  14.127  12.525
23513W        W95239   4.813   0.843   0.935
23514W        W95240  33.615  19.150  11.239
23515W        W95241  12.225  15.524  12.522
23516W        W95242  38.999  36.018  10.685
23517W        W95243  30.928  22.297  12.925
23518W        W95244  23.958  28.715   4.561
23519W        W95245  33.959  18.285   4.318
23520W        W95246  16.101  25.481   0.164
23521W        W95247  34.531  31.885   1.529
23522W        W95248  21.657  43.033  14.267
23523W        W95249  43.253  13.013  11.824
23524W        W95250  14.360  34.350  11.501
23525W        W95251  28.864   7.189   2.788
23526W        W95252   4.899  19.214   3.646
23527W        W95253  29.539  13.759  12.441
23528W        W95254  40.119  17.472  12.073
23529W        W95255  16.670  37.993  14.863
23530W        W95256  16.287  42.597   4.246
23531W        W95257  40.017  26.624   4.116
23532W        W95258  33.046   9.571   1.898
23533W        W95259  30.124  38.991   0.223
23534W        W95260  26.509  37.112   2.341
23535W        W95261  21.526  39.857   2.558
23536W        W95262  12.920  21.476   1.493
23537W        W95263   2.402   6.022   2.846
23538W        W95264  32.904   7.934   0.158
23539W        W95265  24.097   9.633   4.692
23540W        W95266  17.568  40.228   0.560
23541W        W95267   1.872  13.792   2.206
23542W        W95268   4.031  21.102   0.491
23543W        W95269  20.921  34.886   3.404
23544W        W95270  14.763  42.261  11.135
23545W        W95271   4.899  43.574   3.137
23546W        W95272  39.792  25.748   4.259
23547W        W95273  26.457  20.825  11.444
23548W        W95274  14.616  39.643   4.968
23549W        W95275  20.359  25.588  10.325
23550W        W95276  26.057   8.154  13.844
23551W        W95277   7.651  36.477  13.951
23552W        W95278  37.751  23.634   1.947
23553W        W95279   3.211  12.125   4.665
23554W        W95280  23.439  42.670   0.323
23555W        W95281  24.064   4.387  13.368
23556W        W95282  43.992  10.098   1.806
23557W        W95283   1.428  31.524  11.471
23558W        W95284  17.178   0.720  12.931
23559W        W95285  27.641   9.892   0.946
23560W        W95286  31.827   8.181  14.097
23561W        W95287  30.595  23.192   5.043
23562W        W95288  38.593  11.712  13.444
23563W        W95289  13.888   4.663  14.819
23564W        W95290   6.927  15.773   4.508
23565W        W95291   8.228   7.149   3.403
23566W        W95292  41.466  11.165   1.832
23567W        W95293   3.879   5.377   3.163
23568W        W95294  25.710  25.424   2.884
23569W        W95295   2.777  16.812  12.646
23570W        W95296   0.719  10.679   1.866
23571W        W95297   3.940  32.626   0.834
23572W        W95298  42.672  38.368  11.999
23573W        W95299  25.666   0.685  13.885
23574W        W95300   6.467  36.643   1.507
23575W        W95301  42.416  25.639   1.750
23576W        W95302  31.207   9.337   3.746
23577W        W95303  36.878   9.205   0.049
23578W        W95304  19.249  28.042   2.716
23579W        W95305  27.849  16.128   2.277
23580W        W95306   6.845  21.251  14.023
23581W        W95307  33.426  26.163  11.154
23582W        W95308  24.761   5.256  14.830
23583W        W95309   9.722  18.188  14.879
23584W        W95310  44.883  30.503   4.207
23585W        W95311  37.488  19.384   1.393
23586W        W95312  11.002  21.690   0.454
23587W        W95313  39.745   1.757   2.252
23588W        W95314   2.393  28.626  14.468
23589W        W95315  22.374   9.452   3.596
23590W        W95316  43.375  31.127   2.754
23591W        W95317   0.721  33.495  11.114
23592W        W95318  39.771  25.463  14.856
23593W        W95319  31.055  18.473   1.772
23594W        W95320  10.265  43.034  12.405
23595W        W95321   4.411  36.293   3.221
23596W        W95322  29.652  30.168   1.468
23597W        W95323   5.424   8.176   1.348
23598W        W95324  22.162  36.830   2.355
23599W        W95325  16.099  35.565   3.137
23600W        W95326  32.644  26.633   1.816
23601W        W95327   1.998  40.083   0.008
23602W        W95328  44.168  33.890   1.728
23603W        W95329  18.736  18.611  11.556
23604W        W95330  11.727  34.332   4.529
23605W        W95331   7.940  27.904  14.335
23606W        W95332  21.657  19.282  11.023
23607W        W95333  40.284  39.793   2.701
23608W        W95334  21.039  33.912  10.638
23609W        W95335  30.140  19.450  11.924
23610W        W95336  33.993  36.392  10.614
23611W        W95337  13.327   1.286  12.716
23612W        W95338  42.503  34.652   1.413
23613W        W95339  12.700  36.325   0.489
23614W        W95340   2.956  27.006   0.664
23615W        W95341  28.976  22.097  14.771
23616W        W95342   2.199  43.283  14.969
23617W        W95343  24.001  34.499  13.904
23618W        W95344  34.759  29.522   4.619
23619W        W95345  38.927  31.459  13.990
23620W        W95346  33.645  13.678  13.794
23621W        W95347   5.156   9.200  14.287
23622W        W95348  44.928  23.049   2.431
23623W        W95349   6.739  42.249  13.032
23624W        W95350  31.620  32.109  14.846
23625W        W95351  30.179  10.439  13.700
23626W        W95352  36.643  21.416  11.577
23627W        W95353  36.304  12.611  11.112
23628W        W95354   6.921   4.359  10.552
23629W        W95355  30.018   9.619   0.468
23630W        W95356  34.092   2.724  11.473
23631W        W95357  32.836   0.395  12.297
23632W        W95358  23.558  20.129  14.385
23633W        W95359  29.940  35.026  13.445
23634W        W95360  42.262   4.755  11.584
23635W        W95361  20.290   3.249  12.385
23636W        W95362  26.173   6.921  14.639
23637W        W95363  14.112  12.600  14.462
23638W        W95364  23.442  15.874   4.664
23639W        W95365  19.776  18.346  13.589
23640W        W95366  27.678  12.149   1.717
23641W        W95367  43.541  33.074   1.913
23642W        W95368  29.897  34.568   2.843
23643W        W95369  32.665   0.775  10.350
23644W        W95370  24.495  32.698   1.889
23645W        W95371  32.039   3.347  13.298
23646W        W95372  43.667  26.281   0.434
23647W        W95373  32.039  39.486   2.881
23648W        W95374  37.227  38.750   4.925
23649W        W95375  33.871  17.778  11.890
23650W        W95376  31.061  44.907  14.914
23651W        W95377  12.567  23.722  13.589
23652W        W95378  27.913  16.796   4.150
23653W        W95379   5.102  21.695  13.270
23654W        W95380  25.704  10.508   3.885
23655W        W95381   8.224  43.545   2.344
23656W        W95382  12.392   2.956  14.777
23657W        W95383  17.849   9.124  13.488
23658W        W95384   7.816  41.109  14.862
23659W        W95385  35.634  44.819  10.571
23660W        W95386  33.412  30.746   0.456
23661W        W95387   4.772  33.393   2.662
23662W        W95388   6.200  41.369  10.934
23663W        W95389  29.494  44.078  13.936
23664W        W95390  21.571  23.722  14.115
23665W        W95391  43.291  44.057   4.110
23666W        W95392  16.807   3.991  14.513
23667W        W95393  44.187  38.858   0.756
23668W        W95394  28.503  40.091   1.653
23669W        W95395  19.706   0.951   2.752
23670W        W95396   4.814   7.837  11.530
23671W        W95397  44.975  36.683  11.128
23672W        W95398  41.790  26.471  11.096
23673W        W95399  20.113   3.252   2.830
23674W        W95400  19.428  14.855  13.038
23675W        W95401  16.158   9.859  14.981
23676W        W95402   1.233   7.571   1.091
23677W        W95403  14.964  16.708  14.981
23678W        W95404   4.082   3.194   2.415
23679W        W95405  31.025  27.611   3.459
23680W        W95406  32.013  35.002  12.644
23681W        W95407   1.206  35.466  13.398
23682W        W95408  35.417  38.514   4.246
23683W        W95409  35.788  27.949  14.440
23684W        W95410  34.601  37.459  10.965
23685W        W95411  44.281  27.495  13.403
23686W        W95412  25.075   5.922   3.359
23687W        W95413  36.425  13.948  11.521
23688W        W95414   8.817  12.409   3.015
23689W        W95415  10.715   5.795  14.817
23690W        W95416  15.050   6.984  13.661
23691W        W95417   4.065   4.422  12.033
23692W        W95418   0.305  28.202   3.772
23693W        W95419  40.872  29.315  13.798
23694W        W95420  22.048  19.212  13.312
23695W        W95421  44.333  39.867   2.387
23696W        W95422   7.372  39.430   4.585
23697W        W95423  28.586  12.407  13.785
23698W        W95424  39.296   3.799  12.077
23699W        W95425  35.654  19.231   2.147
23700W        W95426   6.354  20.645  13.548
23701W        W95427  10.494  31.838  12.845
23702W        W95428  41.044  33.637   1.255
23703W        W95429  16.379  16.806   1.431
23704W        W95430  30.668   2.615  14.384
23705W        W95431  21.509  23.325  14.983
23706W        W95432   1.420   7.828  14.557
23707W        W95433  36.424  10.909   0.743
23708W        W95434  30.131  15.312   3.638
23709W        W95435  21.457  39.998  12.554
23710W        W95436  32.137  15.930  14.275
23711W        W95437   7.130  20.423  11.971
23712W        W95438  38.917  23.504   9.858
23713W        W95439  30.186   6.838   3.753
23714W        W95440  12.916  10.178   0.422
23715W        W95441   6.829  29.609   1.403
23716W        W95442  27.905  28.210   1.952
23717W        W95443  20.126  15.888   4.148
23718W        W95444  28.110  10.412  10.263
23719W        W95445  13.316  14.351  11.753
23720W        W95446  38.016  28.034   3.206
23721W        W95447  29.704  29.407   4.188
23722W        W95448  21.663   4.216   4.842
23723W        W95449   0.740  24.168  12.452
23724W        W95450  23.515  28.956  11.090
23725W        W95451  11.587   7.483  11.037
23726W        W95452   4.866  34.690  10.718
23727W        W95453  12.750  22.655   4.680
23728W        W95454  20.653   5.904   2.098
23729W        W95455  24.019  21.683  10.695
23730W        W95456  41.767   6.689   3.232
23731W        W95457  32.222  14.230   0.245
23732W        W95458  43.453  19.861   4.140
23733W        W95459  32.611  36.479  12.977
23734W        W95460  29.500  25.208   3.788
23735W        W95461  20.107  10.413  14.241
23736W        W95462  33.431  35.297   1.351
23737W        W95463  20.687  10.203  12.441
23738W        W95464  29.266  18.621  11.552
23739W        W95465   0.751  17.773  12.954
23740W        W95466  39.128  42.895  14.276
23741W        W95467  15.736  41.755  11.016
23742W        W95468  24.016   8.645   2.011
23743W        W95469  42.527  23.006   2.365
23744W        W95470  15.811  27.474  12.415
23745W        W95471   0.252  33.901   4.531
23746W        W95472  25.493  41.796  13.575
23747W        W95473  33.440  39.313  11.153
23748W        W95474  44.408  43.225   2.273
23749W        W95475  13.682  28.147   2.136
23750W        W95476  36.121  14.378  11.655
23751W        W95477   3.367  16.742   0.347
23752W        W95478  11.947   7.596  12.111
23753W        W95479  39.425  30.906   4.432
23754W        W95480  31.160  25.509  12.904
23755W        W95481  16.219  39.494   2.869
23756W        W95482  25.207  13.842  10.519
23757W        W95483  39.941   8.135  13.439
23758W        W95484  25.319  31.052   5.136
23759W        W95485  36.790   1.732  14.266
23760W        W95486  19.075  28.024  12.011
23761W        W95487  39.319  25.229  14.676
23762W        W95488  37.724  30.129   3.723
23763W        W95489   4.613   5.263   1.299
23764W        W95490  23.685  14.057   2.773
23765W        W95491  34.366  20.182  11.439
23766W        W95492  16.026  37.956   9.719
23767W        W95493   7.934  44.065  12.084
23768W        W95494  42.374  19.465   4.360
23769W        W95495  18.563  29.668   2.288
23770W        W95496  42.291   1.536  11.596
23771W        W95497  32.876   1.302   0.987
23772W        W95498  39.816  15.841   2.178
23773W        W95499  37.669  12.076  10.825
23774W        W95500  28.915  19.067  10.702
23775W        W95501  19.896   4.761   4.779
23776W        W95502  25.958  42.918  12.022
23777W        W95503   2.347  37.388  11.414
23778W        W95504  23.833  25.825  10.391
23779W        W95505  10.541  29.092   2.955
23780W        W95506  13.634   4.369   3.207
23781W        W95507   4.669  34.409   3.407
23782W        W95508  44.805  35.529   3.170
23783W        W95509  41.542  43.456  11.028
23784W        W95510  11.666  20.030   0.775
23785W        W95511  19.767  16.664  10.468
23786W        W95512  23.770  21.691  12.968
23787W        W95513   9.286  41.572   4.392
23788W        W95514  27.329  19.560  14.049
23789W        W95515   8.137  32.039  12.441
23790W        W95516  18.283   3.365   4.197
23791W        W95517  36.394  18.704   1.884
23792W        W95518  24.016  36.530  11.939
23793W        W95519  21.618   5.878   2.109
23794W        W95520  26.688  15.352   3.748
23795W        W95521  21.126  19.750  10.372
23796W        W95522   2.072   0.803  11.498
23797W        W95523  10.229   4.496  10.791
23798W        W95524  40.344  12.377  13.466
23799W        W95525  31.621  33.812  14.473
23800W        W95526  21.951  41.087   4.692
23801W        W95527  33.274  12.134   3.573
23802W        W95528  28.455  36.007  13.705
23803W        W95529  39.434  44.631   1.399
23804W        W95530   4.689  34.946  13.852
23805W        W95531  39.006  22.087  10.657
23806W        W95532  31.113   2.399  11.232
23807W        W95533  37.893  25.084   2.715
23808W        W95534  43.917   5.800  10.633
23809W        W95535  31.292  24.036   5.160
23810W        W95536  24.648  31.355  14.316
23811W        W95537  16.943  15.790  10.919
23812W        W95538  15.025  21.567   0.799
23813W        W95539  10.900  31.566  12.643
23814W        W95540  16.038   7.968   0.794
23815W        W95541  38.338  10.271   1.960
23816W        W95542  44.500   8.189  13.493
23817W        W95543   0.218  28.592  10.590
23818W        W95544  22.978  21.707   0.813
23819W        W95545   1.278  25.943  14.241
23820W        W95546  16.131  16.604   0.615
23821W        W95547  15.751  25.359   4.681
23822W        W95548  19.653  25.103   2.382
23823W        W95549  13.205   8.690  11.562
23824W        W95550  41.297  32.984   3.830
23825W        W95551   7.389  35.005   0.992
23826W        W95552  11.534   3.895  14.532
23827W        W95553  37.767  28.625  11.546
23828W        W95554  15.263   1.634  10.764
23829W        W95555  17.904  43.272   1.326
23830W        W95556  41.284   1.308   3.159
23831W        W95557   3.654   0.316   0.274
23832W        W95558  36.392  14.284   2.233
23833W        W95559   2.971  13.405   2.234
23834W        W95560   7.760  26.577   3.191
23835W        W95561  12.701  27.043  11.166
23836W        W95562  37.774  28.943  11.949
23837W        W95563  41.021  16.741   1.673
23838W        W95564  22.047  34.890  14.632
23839W        W95565   0.035  18.078   3.221
23840W        W95566  42.545  30.020  11.087
23841W        W95567  22.282  39.019   1.406
23842W        W95568  27.967  17.853  11.099
23843W        W95569  30.650  44.458   1.521
23844W        W95570  27.135  41.385   3.829
23845W        W95571  27.992  38.336   3.628
23846W        W95572  22.920  34.166   0.958
23847W        W95573   1.414  23.020   0.766
23848W        W95574  17.823  23.592   1.763
23849W        W95575  32.491   2.823  13.711
23850W        W95576  19.211  41.779  13.440
23851W        W95577  16.742   7.840   4.123
23852W        W95578  30.078  40.478   0.982
23853W        W95579   8.875  27.542  10.721
23854W        W95580  30.036  39.071  14.704
23855W        W95581  16.133  27.913   3.098
23856W        W95582  35.576   8.165   1.799
23857W        W95583   3.156  40.463   0.427
23858W        W95584  41.394  33.440   3.613
23859W        W95585   9.396  24.377  10.464
23860W        W95586  30.964  28.984  14.889
23861W        W95587  21.488   4.711  14.060
23862W        W95588  40.263  21.000  14.097
23863W        W95589   1.187   5.180   2.708
23864W        W95590   5.643   5.242   4.594
23865W        W95591  44.351  21.606   1.343
23866W        W95592  23.041  24.488  12.129
23867W        W95593  27.530   1.459   4.719
23868W        W95594  29.693  32.996   3.670
23869W        W95595  29.500   1.817   3.641
23870W        W95596   8.558  42.809   2.779
23871W        W95597  19.319  37.975  14.724
23872W        W95598  13.864  39.084   0.553
23873W        W95599  17.824  18.092   2.316
23874W        W95600   2.502  33.575  14.734
23875W        W95601  16.673   9.299   2.265
23876W        W95602  30.861  12.139   4.973
23877W        W95603  24.012  35.742  13.065
23878W        W95604  28.375  26.711   5.190
23879W        W95605   9.217  24.298   0.408
23880W        W95606  14.784  33.956   4.412
23881W        W95607   0.886  39.746  14.524
23882W        W95608   1.456  12.166   1.172
23883W        W95609   6.794  11.819  11.516
23884W        W95610  29.630  35.386  14.922
23885W        W95611   6.406  35.199   5.089
23886W        W95612  21.660  40.038   4.543
23887W        W95613  11.871  25.450  13.419
23888W        W95614  19.963   6.831   0.652
23889W        W95615   8.148  39.638   0.431
23890W        W95616  21.253  23.562  10.537
23891W        W95617  22.818   2.260  13.758
23892W        W95618   4.091  19.165   1.246
23893W        W95619  14.812   1.872   4.119
23894W        W95620  41.902  19.124   3.552
23895W        W95621  43.310  42.836   2.867
23896W        W95622  28.440   1.637   1.176
23897W        W95623  29.415  26.966   0.393
23898W        W95624   3.270   3.610   4.991
23899W        W95625  42.290  38.130  13.066
23900W        W95626   0.636  41.816  13.319
23901W        W95627  38.656  28.123   2.603
23902W        W95628  27.649  44.037   3.777
23903W        W95629  43.780  30.018   2.204
23904W        W95630  28.413  44.479  12.449
23905W        W95631  21.421  32.015  11.020
23906W        W95632  23.408  41.978  11.215
23907W        W95633  27.389  31.399   2.397
23908W        W95634   6.704  11.037  12.841
23909W        W95635  20.740  43.327   4.116
23910W        W95636   7.695  26.073   2.997
23911W        W95637  38.953  31.430  13.077
23912W        W95638  23.227  42.916  13.468
23913W        W95639   9.346  17.210  12.818
23914W        W95640  21.156   8.981   4.037
23915W        W95641  16.707   9.436   1.392
23916W        W95642  32.585   0.892   4.897
23917W        W95643  19.441  25.505   2.091
23918W        W95644  28.680  36.987   2.729
23919W        W95645   1.261   9.458  11.939
23920W        W95646  31.944  37.503  12.248
23921W        W95647   9.374   4.111   4.042
23922W        W95648  39.945  20.823  11.557
23923W        W95649  18.070  32.468  11.918
23924W        W95650  30.265  15.648  10.890
23925W        W95651  21.256  22.691   0.952
23926W        W95652  39.043  14.492   4.605
23927W        W95653  17.907  10.649   2.727
23928W        W95654  37.905  40.907   2.238
23929W        W95655   3.739  40.143   3.134
23930W        W95656   2.954  27.243  14.832
23931W        W95657   8.792   0.276   0.173
23932W        W95658  25.724   5.618  12.465
23933W        W95659  44.368  18.547  13.974
23934W        W95660  24.707  18.664  12.892
23935W        W95661  18.531   8.048   4.590
23936W        W95662  43.626   9.846   3.039
23937W        W95663  44.788   8.597   3.897
23938W        W95664  38.417  26.418   3.726
23939W        W95665  31.036  30.740   0.378
23940W        W95666  18.242  22.325   2.777
23941W        W95667  14.723  29.857  14.614
23942W        W95668  22.695  38.868   4.018
23943W        W95669   9.403  30.046  14.520
23944W        W95670  17.229  19.025   2.799
23945W        W95671  44.340  16.561  10.697
23946W        W95672  34.415   3.402  13.169
23947W        W95673   8.390  40.905  11.048
23948W        W95674   9.355   6.936   4.064
23949W        W95675  30.573   9.627  11.501
23950W        W95676  16.886   5.364  14.827
23951W        W95677   1.636  20.763   0.897
23952W        W95678   0.393  41.732   2.006
23953W        W95679   8.687  11.434   0.077
23954W        W95680   6.894  35.703   2.808
23955W        W95681  33.180  39.989  11.994
23956W        W95682   3.207   0.791  13.532
23957W        W95683  22.688   8.788   0.936
23958W        W95684  25.059  24.346   2.170
23959W        W95685  25.805  40.599  11.175
23960W        W95686  30.627  42.330  13.021
23961W        W95687  20.123  29.398  14.783
23962W        W95688  27.259  15.834   4.977
23963W        W95689  28.930  19.818   1.869
23964W        W95690   5.632  37.988   3.864
23965W        W95691  31.722   6.769  14.331
23966W        W95692   0.478  32.375  12.571
23967W        W95693  35.022  12.696   4.568
23968W        W95694  20.600  21.534  11.602
23969W        W95695  10.843   5.754   0.947
23970W        W95696  33.977  34.676   0.453
23971W        W95697  13.397  17.790   2.591
23972W        W95698  10.356  19.211  12.117
23973W        W95699  26.621   2.733   1.396
23974W        W95700  34.105   3.995  13.929
23975W        W95701  23.976  28.664   1.403
23976W        W95702   6.158  41.788   0.770
23977W        W95703  44.265  36.043  13.985
23978W        W95704  44.851  44.821  11.473
23979W        W95705  14.619   2.718  12.100
23980W        W95706   6.202  11.751   2.870
23981W        W95707  13.138  14.992  12.594
23982W        W95708  21.239  22.774  12.069
23983W        W95709   3.155  30.967  10.910
23984W        W95710  29.531   6.268  10.691
23985W        W95711  25.931  33.538   0.296
23986W        W95712   2.249  34.563   2.738
23987W        W95713   7.236   2.810  12.172
23988W        W95714  43.523  21.971  13.953
23989W        W95715  37.515  40.201  13.745
23990W        W95716   0.763  27.586   0.866
23991W        W95717  24.008   8.293  13.552
23992W        W95718  34.512  11.408  14.379
23993W        W95719  17.727  26.209  10.874
23994W        W95720  26.175  28.726   1.768
23995W        W95721  34.681  26.585   3.708
23996W        W95722  13.604  18.877   4.147
23997W        W95723  34.649  40.350   1.652
23998W        W95724  40.593  39.860  11.922
23999W        W95725  34.077  15.810  13.055
24000W        W95726  22.166  21.775   3.141
24001W        W95727  27.899  32.606   3.296
24002W        W95728   4.248  26.182  10.505
24003W        W95729  44.329  10.863  10.553
24004W        W95730   0.483  12.461   4.655
24005W        W95731  13.367  44.477   2.915
24006W        W95732  32.539  37.011  12.530
24007W        W95733  25.200   3.718  11.969
24008W        W95734  16.307   0.388   3.184
24009W        W95735  12.616   6.222   3.586
24010W        W95736  35.663  32.980  11.240
24011W        W95737   7.709  41.050   3.426
24012W        W95738  17.153  27.737  13.834
24013W        W95739  23.975  17.414  10.682
24014W        W95740   6.275  21.432  12.039
24015W        W95741   4.950  11.720  12.592
24016W        W95742   2.801  22.087  11.563
24017W        W95743  22.740  22.359   1.936
24018W        W95744  23.320  28.319  10.154
24019W        W95745  37.314  17.785  13.403
24020W        W95746  18.035  22.834   2.780
24021W        W95747   9.254  32.419  10.678
24022W        W95748  21.799  34.960  10.695
24023W        W95749   8.827  23.738   4.240
24024W        W95750  30.541   4.920   4.162
24025W        W95751   8.768  29.419  13.456
24026W        W95752  38.785  29.636   5.072
24027W        W95753  24.848  33.964   4.060
24028W        W95754   4.206  27.112  12.456
24029W        W95755   5.309  13.889   2.904
24030W        W95756  20.565  29.282   3.208
24031W        W95757  22.015   6.377  12.624
24032W        W95758  18.067  24.540  11.456
24033W        W95759   8.166   5.908  14.960
24034W        W95760  33.536  33.607   0.915
24035W        W95761   0.334  27.548   3.408
24036W        W95762  42.606  30.541   3.478
24037W        W95763   0.274  27.195  11.553
24038W        W95764  38.903   5.135   2.189
24039W        W95765  39.110  42.211  11.960
24040W        W95766  25.983  32.460   1.732
24041W        W95767  26.935   0.122  13.846
24042W        W95768  33.178  21.391  10.219
24043W        W95769   5.565  36.460  11.967
24044W        W95770  36.413   3.449  10.194
24045W        W95771  21.555  32.957  13.011
24046W        W95772  12.372  29.680  10.663
24047W        W95773  44.262  11.532   1.747
24048W        W95774  43.756  17.372  11.932
24049W        W95775   0.788  16.826   4.120
24050W        W95776  23.468  17.254   1.762
24051W        W95777  35.284  36.309  14.022
24052W        W95778  26.945  30.870   2.596
24053W        W95779  36.506  33.008  12.361
24054W        W95780   1.186  14.803   1.310
24055W        W95781  27.779  20.546  14.394
24056W        W95782  32.480  30.680   2.361
24057W        W95783  16.230  41.405  14.293
24058W        W95784  16.714  32.101  12.925
24059W        W95785  41.277  30.598  14.854
24060W        W95786  32.989   7.337  11.503
24061W        W95787  18.108   6.428  12.913
24062W        W95788   1.242  10.409  12.572
24063W        W95789  38.556  34.504   3.155
24064W        W95790  37.568   2.327   1.423
24065W        W95791   8.653  33.926   1.349
24066W        W95792  21.277   5.222  13.175
24067W        W95793   3.475  22.652  10.712
24068W        W95794  36.895  39.627   3.285
24069W        W95795  26.773  10.888  14.342
24070W        W95796  30.044   4.660  13.989
24071W        W95797   5.856  12.800   0.081
24072W        W95798  11.823  43.955  11.892
24073W        W95799   6.264   1.860   1.510
24074W        W95800  32.563   2.297   4.118
24075W        W95801  38.836  19.253   0.980
24076W        W95802   1.805  36.557  11.623
24077W        W95803  38.947  32.520  10.372
24078W        W95804  26.541   0.905  14.049
24079W        W95805  44.217   4.453  13.913
24080W        W95806  34.016  37.032   1.721
24081W        W95807   9.133  30.202  11.977
24082W        W95808   5.189  34.401   1.774
24083W        W95809  10.711   0.928   1.285
24084W        W95810   1.928  30.699   4.214
24085W        W95811  36.665  11.267   3.967
24086W        W95812  36.064  43.975   2.349
24087W        W95813  28.932   7.185   3.622
24088W        W95814  14.752   7.660  12.476
24089W        W95815  25.058  37.398   2.625
24090W        W95816  39.021  10.339  14.831
24091W        W95817  38.287   2.325  12.639
24092W        W95818  18.330  11.252  13.440
24093W        W95819  10.898  10.339  13.485
24094W        W95820   4.359  37.614  10.325
24095W        W95821  27.548  29.146   4.624
24096W        W95822   6.994  30.660  10.562
24097W        W95823  22.521  38.069  13.055
24098W        W95824   2.982   5.971   3.531
24099W        W95825  17.062  27.710  14.708
24100W        W95826  38.677  34.668   1.752
24101W        W95827  12.320  14.032  11.662
24102W        W95828  22.890  18.443   9.891
24103W        W95829  38.958  35.144  14.113
24104W        W95830  41.497  15.328   1.421
24105W        W95831  44.893   2.277  10.556
24106W        W95832   2.873  41.392   1.535
24107W        W95833  12.300  26.698   4.811
24108W        W95834   7.462  25.525   4.239
24109W        W95835   0.914  15.337  13.077
24110W        W95836  19.295  19.241   4.905
24111W        W95837   3.552  10.099  11.273
24112W        W95838  14.541  41.830  14.733
24113W        W95839  23.453  28.669   4.385
24114W        W95840  12.349  25.905  13.004
24115W        W95841  29.658  39.071   0.462
24116W        W95842  38.740  38.460  12.124
24117W        W95843  12.681  34.879   0.273
24118W        W95844  37.515  36.953  12.196
24119W        W95845   1.686   7.189  10.757
24120W        W95846  22.492  44.884   2.697
24121W        W95847  13.211  28.631   1.872
24122W        W95848  32.652  24.648   2.765
24123W        W95849   3.736  30.676  11.989
24124W        W95850  38.318   0.006  13.045
24125W        W95851  36.704  38.076   4.291
24126W        W95852  29.944  12.414  12.588
24127W        W95853  30.495  31.879   4.538
24128W        W95854  29.136  39.038   1.352
24129W        W95855  33.177  29.162   2.172
24130W        W95856  42.107   0.881  12.103
24131W        W95857  37.758  18.691  14.852
24132W        W95858  24.747  16.694   2.785
24133W        W95859  15.782  35.392   2.748
24134W        W95860   2.227  33.799   0.409
24135W        W95861   1.409  26.621  12.985
24136W        W95862  40.148  13.471   1.349
24137W        W95863  31.097  37.833   1.348
24138W        W95864   6.424   3.481   2.003
24139W        W95865   2.006   3.333   2.372
24140W        W95866  42.374  15.343   4.316
24141W        W95867  14.647  44.933   3.187
24142W        W95868  42.531  44.580  13.024
24143W        W95869  12.979  27.000  12.042
24144W        W95870  22.659  40.147   3.057
24145W        W95871  42.972  33.165  13.006
24146W        W95872   0.788   3.245   0.043
24147W        W95873  40.385   7.340  12.878
24148W        W95874   4.223   4.248  14.217
24149W        W95875  30.228  12.679  11.597
24150W        W95876   6.994  19.104  12.426
24151W        W95877  19.674  12.404  14.423
24152W        W95878   3.466  22.657   0.337
24153W        W95879  27.206   6.687  10.696
24154W        W95880  15.147  12.301  13.521
24155W        W95881  10.546  33.025   3.465
24156W        W95882  19.492  19.262   2.281
24157W        W95883   3.099  22.773  12.505
24158W        W95884  11.708  18.524   2.432
24159W        W95885  39.186   7.333  12.636
24160W        W95886  24.633   0.540   1.277
24161W        W95887  33.851  11.328   3.836
24162W        W95888  20.534   9.268  13.507
24163W        W95889   7.421  35.238   0.513
24164W        W95890   3.390  40.412  13.818
24165W        W95891   3.401  32.138  11.017
24166W        W95892  14.137  42.994   0.839
24167W        W95893  34.809  30.983   0.899
24168W        W95894  16.252  22.019  11.326
24169W        W95895  39.041   2.639   3.912
24170W        W95896   7.884  42.726   2.232
24171W        W95897  40.954  30.278   1.453
24172W        W95898  34.815   5.165  14.864
24173W        W95899  14.034  34.826   2.372
24174W        W95900  39.306  40.967   3.772
24175W        W95901  12.508   2.024  13.285
24176W        W95902  22.584  17.630   0.858
24177W        W95903   2.930  33.396   4.052
24178W        W95904  36.297  27.225   0.803
24179W        W95905  28.534   9.752  14.798
24180W        W95906  15.089  14.827  14.518
24181W        W95907   6.004   5.354   2.778
24182W        W95908   6.642  26.996   0.816
24183W        W95909  44.327  40.954   2.650
24184W        W95910  17.255   1.388   0.991
24185W        W95911  44.322  26.679   2.532
24186W        W95912  42.407   3.353   4.634
24187W        W95913  43.700  44.742  11.954
24188W        W95914  14.478  30.549  11.038
24189W        W95915  30.994  13.178   4.305
24190W        W95916  14.459  44.077   2.294
24191W        W95917  28.709   6.249   1.818
24192W        W95918   2.548  27.405  10.779
24193W        W95919  41.425  34.319  13.979
24194W        W95920   8.458  14.853   1.801
24195W        W95921   0.952  27.090  14.350
24196W        W95922  38.352  15.761   0.354
24197W        W95923  40.220  37.531   2.749
24198W        W95924  31.400  28.615   2.286
24199W        W95925  24.582  42.820  11.253
24200W        W95926  38.594  10.240   4.264
24201W        W95927  20.024  35.755   0.233
24202W        W95928   5.795  14.777   3.267
24203W        W95929   5.966  11.793   5.072
24204W        W95930  29.557  28.522   1.763
24205W        W95931  32.431  36.207   0.279
24206W        W95932  23.392  12.187   4.948
24207W        W95933  40.566  23.589   4.697
24208W        W95934  29.500  16.503   1.617
24209W        W95935  17.538  38.914  14.943
24210W        W95936   8.948  24.633  13.772
24211W        W95937  18.196   8.191  13.456
24212W        W95938   0.988  28.237   1.436
24213W        W95939   4.465  21.578  12.734
24214W        W95940  33.117  28.996  14.511
24215W        W95941  11.351  29.921  12.162
24216W        W95942  16.216  42.790  12.436
24217W        W95943  29.707  23.804  14.843
24218W        W95944  26.750  40.377   0.461
24219W        W95945  43.850   3.000  11.050
24220W        W95946   3.324  35.185   2.426
24221W        W95947  42.704  35.685  11.949
24222W        W95948   3.544  40.065   3.795
24223W        W95949  15.043   3.671  13.965
24224W        W95950  18.567  24.502   4.174
24225W        W95951  43.297   2.808  10.985
24226W        W95952  15.785   0.862  12.937
24227W        W95953  37.867  19.757  13.905
24228W        W95954   9.284   6.694  12.564
24229W        W95955   9.584  39.863  10.599
24230W        W95956  31.364   7.208  11.854
24231W        W95957  27.011  44.336  14.522
24232W        W95958  43.137  42.015   1.865
24233W        W95959  21.584   6.893   2.370
24234W        W95960  36.456  16.521  14.056
24235W        W95961   5.433  18.923   0.285
24236W        W95962  34.578  12.229   0.853
24237W        W95963  20.636  19.563   2.265
24238W        W95964   0.461  20.730   3.353
24239W        W95965  32.888  12.811   3.327
24240W        W95966  39.547  34.726  12.431
24241W        W95967  38.895  18.767   0.784
24242W        W95968  36.104   5.245  10.682
24243W        W95969  13.765  21.593  10.693
24244W        W95970  10.174  24.971   0.506
24245W        W95971  33.978  31.672   2.823
24246W        W95972  41.549  16.702   5.057
24247W        W95973  42.556  34.521  10.976
24248W        W95974  37.047   9.428   3.356
24249W        W95975  42.913  35.570   1.942
24250W        W95976  19.461  19.749  12.043
24251W        W95977   3.691   7.420   2.366
24252W        W95978  43.020  43.383   1.246
24253W        W95979  39.093  41.480   1.814
24254W        W95980   5.278  33.665  12.432
24255W        W95981  38.810  24.401   4.545
24256W        W95982  14.373  22.082  11.651
24257W        W95983  20.510  42.482  11.473
24258W        W95984   0.708  32.515   4.983
24259W        W95985  41.517  22.093   4.920
24260W        W95986  25.474  22.046   3.196
24261W        W95987  23.268  33.370   1.324
24262W        W95988  37.824   6.971   0.927
24263W        W95989  20.502  12.144  12.472
24264W        W95990  42.068   7.034   0.040
24265W        W95991  40.815   9.170  10.504
24266W        W95992  41.408  18.436  14.283
24267W        W95993  31.386  40.050  11.996
24268W        W95994   2.825  12.695   3.183
24269W        W95995  15.317  29.593   4.773
24270W        W95996  15.603  10.364  12.953
24271W        W95997  31.184  32.504   4.668
24272W        W95998  14.662  31.747   1.693
24273W        W95999  34.141  11.181  13.468
24274W        W96000   5.408  29.564  13.171
24275W        W96001   4.468   2.909  10.787
24276W        W96002   9.767  15.479  13.898
24277W        W96003  30.279  25.962  13.527
24278W        W96004  16.293  25.276  14.718
24279W        W96005   0.269  30.949  14.727
24280W        W96006  25.651  13.708   3.316
24281W        W96007  41.355  35.080   2.260
24282W        W96008  38.938  38.497   4.377
24283W        W96009  39.326   0.526   1.874
24284W        W96010  16.181   2.966   0.824
24285W        W96011  14.923  32.988  14.458
24286W        W96012   7.652  14.851  14.856
24287W        W96013  11.402  12.657  11.895
24288W        W96014   3.212  14.613  13.537
24289W        W96015  11.810   9.678   1.473
24290W        W96016  20.463  42.400   3.874
24291W        W96017  17.166  10.837  11.954
24292W        W96018   3.162  41.582  12.315
24293W        W96019  23.622   0.316   4.785
24294W        W96020  31.487  16.193  11.203
24295W        W96021   2.796  24.888  11.566
24296W        W96022  44.078  43.824  12.070
24297W        W96023  27.784  18.892   2.785
24298W        W96024  17.590  25.513  10.622
24299W        W96025  40.047  20.063   0.530
24300W        W96026   4.629   8.278  13.319
24301W        W96027  10.284  26.568  10.577
24302W        W96028  39.623   1.438  11.929
24303W        W96029  28.183   4.682  13.521
24304W        W96030  44.319  14.319  14.466
24305W        W96031  16.130  13.289   0.070
24306W        W96032   5.778  13.237   4.296
24307W        W96033   8.418  36.598   5.018
24308W        W96034  22.193  40.387   2.928
24309W        W96035  37.479  32.991  10.412
24310W        W96036   2.429  23.092   1.896
24311W        W96037   8.123   5.828   3.173
24312W        W96038   7.379  33.832  12.860
24313W        W96039  30.460   8.183  11.916
24314W        W96040  38.588  26.454   0.345
24315W        W96041  21.151  32.897  13.961
24316W        W96042  39.993  29.079  11.697
24317W        W96043  36.088   6.207  13.947
24318W        W96044  22.224  28.102  14.632
24319W        W96045  34.577  41.752  11.553
24320W        W96046  14.288  26.627  11.999
24321W        W96047   7.492  32.574  10.558
24322W        W96048  13.129  30.839   3.636
24323W        W96049  23.902  33.928   2.759
24324W        W96050   6.404  35.425  10.927
24325W        W96051  19.723  21.538  11.766
24326W        W96052  43.212  11.419   0.973
24327W        W96053  19.710   6.312   1.264
24328W        W96054  14.238   4.650  13.875
24329W        W96055  17.318  28.165   2.801
24330W        W96056  13.159  29.734  12.005
24331W        W96057  31.751  36.465   0.771
24332W        W96058   0.683  33.171   0.710
24333W        W96059  21.545   8.241  14.821
24334W        W96060  37.798   2.737  11.803
24335W        W96061  23.547  11.268   3.274
24336W        W96062  21.547   0.555  12.828
24337W        W96063  34.667   8.754  11.063
24338W        W96064   3.294  11.756   5.068
24339W        W96065  15.598  26.674   3.284
24340W        W96066  36.122   6.403   1.182
24341W        W96067  10.140  17.673   0.299
24342W        W96068  40.824  20.425   0.399
24343W        W96069  43.439  24.058  14.809
24344W        W96070  13.700   4.428   4.198
24345W        W96071  40.545  19.030  10.745
24346W        W96072  34.173   6.896  11.581
24347W        W96073  32.171  34.030  13.472
24348W        W96074  26.558  43.202   2.308
24349W        W96075   8.808  38.492   2.368
24350W        W96076  22.194  23.573   2.580
24351W        W96077  12.054  20.293  12.072
24352W        W96078   1.215  13.139   2.742
24353W        W96079  17.255  19.828   2.346
24354W        W96080  22.624  35.042  12.979
24355W        W96081   9.914   7.254   4.628
24356W        W96082  27.082  11.176  12.184
24357W        W96083  34.632   9.931  11.989
24358W        W96084  34.612   5.369  13.067
24359W        W96085  11.341  44.868   0.198
24360W        W96086  16.762  22.205   1.428
24361W        W96087  29.990  37.614  14.833
24362W        W96088  29.930  24.741   3.680
24363W        W96089  38.661  32.598   2.178
24364W        W96090  35.351  35.036   2.157
24365W        W96091  41.875   6.170  14.770
24366W        W96092  37.572  42.721   0.427
24367W        W96093  14.555  36.286  11.996
24368W        W96094  19.170  40.745  12.558
24369W        W96095  22.935  30.965  13.960
24370W        W96096  41.890  32.137   2.845
24371W        W96097   9.154  14.859  11.653
24372W        W96098  18.321  21.713   2.010
24373W        W96099  14.148  37.076   2.665
24374W        W96100  28.073   6.174  10.675
24375W        W96101   0.004  30.588   0.707
24376W        W96102  31.525  14.836  13.895
24377W        W96103   7.130   1.303  11.166
24378W        W96104   9.585  17.197  14.657
24379W        W96105  36.039  17.060  14.432
24380W        W96106  39.116  33.957   3.892
24381W        W96107   6.776   1.359   3.664
24382W        W96108   1.540  29.969   3.899
24383W        W96109   9.135  38.746  14.346
24384W        W96110  25.569  23.989  12.623
24385W        W96111  44.966  40.790  12.517
24386W        W96112   6.310  26.357   9.827
24387W        W96113  27.868  43.019  12.045
24388W        W96114  13.615   5.270   0.404
24389W        W96115   6.669  28.947   4.504
24390W        W96116   9.058  24.575   1.999
24391W        W96117   4.864   3.677   1.995
24392W        W96118  40.244  10.901   2.221
24393W        W96119  21.559   3.872  11.603
24394W        W96120   1.960  24.574   2.210
24395W        W96121  33.943  35.081  14.351
24396W        W96122   9.749  13.614   4.272
24397W        W96123   2.827  38.070   1.152
24398W        W96124  19.623   6.868   4.615
24399W        W96125  41.255   3.858   0.875
24400W        W96126  18.088   2.329  10.632
24401W        W96127  42.753  16.683   0.598
24402W        W96128  41.960  31.607   0.852
24403W        W96129  19.587   9.260  10.473
24404W        W96130  18.910  10.570   2.721
24405W        W96131  26.032  42.407   1.278
24406W        W96132  13.792  36.865  13.000
24407W        W96133  11.713  36.571  14.378
24408W        W96134  33.860  22.956   3.915
24409W        W96135   7.819  26.119  10.698
24410W        W96136   8.746  44.870   4.693
24411W        W96137   3.953  13.164  14.848
24412W        W96138   1.736  15.524  12.088
24413W        W96139  29.135  42.386  12.970
24414W        W96140  32.239  25.748  12.596
24415W        W96141  19.041   3.385   1.338
24416W        W96142   2.804  29.633   3.431
24417W        W96143   1.968  17.239   4.134
24418W        W96144  27.207   5.669   3.258
24419W        W96145  18.651  44.211   4.530
24420W        W96146  17.296  40.277   2.053
24421W        W96147  28.045  39.598   0.754
24422W        W96148  12.389  37.128   4.585
24423W        W96149  39.585   5.486   0.779
24424W        W96150  25.826   9.861   0.534
24425W        W96151  38.783  24.574  13.020
24426W        W96152  13.612  10.095   1.805
24427W        W96153  33.876  36.556   0.023
24428W        W96154  18.097  13.367  14.501
24429W        W96155  17.508  18.537  14.504
24430W        W96156   6.228  11.166  12.084
24431W        W96157  22.721  16.690  13.330
24432W        W96158  10.140  22.483   2.084
24433W        W96159  31.849  18.563  13.413
24434W        W96160  22.951   8.011  11.319
24435W        W96161   8.574  43.244  14.554
24436W        W96162  44.210  43.542  13.357
24437W        W96163  27.983  20.713  10.725
24438W        W96164  24.438   6.896  11.635
24439W        W96165  13.491  42.499   2.759
24440W        W96166   9.886  22.469  12.368
24441W        W96167  19.709   1.384  10.679
24442W        W96168   9.518  14.899  13.302
24443W        W96169   4.815  37.843  11.476
24444W        W96170  31.415  27.342   2.204
24445W        W96171  24.720  20.055  11.147
24446W        W96172  41.004  10.225   0.768
24447W        W96173  44.607  37.492  10.775
24448W        W96174   2.703   6.596   0.697
24449W        W96175  12.637  44.749  13.874
24450W        W96176  34.434  31.573  13.318
24451W        W96177  24.460  42.474   4.535
24452W        W96178  44.401  33.803  13.566
24453W        W96179  28.498  34.557   3.672
24454W        W96180  40.386  25.992  12.043
24455W        W96181  43.508   5.729  14.358
24456W        W96182  17.081  11.538   3.878
24457W        W96183  29.878  16.598   3.159
24458W        W96184  24.461  27.015  12.601
24459W        W96185  36.287   1.360   0.054
24460W        W96186  11.375  20.732  13.365
24461W        W96187  17.336  38.436  14.945
24462W        W96188  12.006  10.724   1.264
24463W        W96189   0.226  14.144  10.681
24464W        W96190   8.843  19.753   1.879
24465W        W96191  11.336  35.643   2.212
24466W        W96192   4.083   2.492  11.940
24467W        W96193  43.466  24.599  13.980
24468W        W96194  34.048  19.726  11.651
24469W        W96195   1.759  36.378  10.344
24470W        W96196  12.330  27.076   0.843
24471W        W96197  31.128  28.090  13.668
24472W        W96198  15.627   6.477  13.268
24473W        W96199  29.857  19.218   1.276
24474W        W96200  30.483  36.386  13.083
24475W        W96201  11.963  20.271   4.022
24476W        W96202  17.048  21.204   2.397
24477W        W96203   1.905  28.658  13.326
24478W        W96204  10.935  32.118  11.589
24479W        W96205  34.786  41.956   2.240
24480W        W96206  37.492  26.547   3.787
24481W        W96207   7.053  23.575   4.989
24482W        W96208  16.832  18.181   2.164
24483W        W96209  26.740  20.194  14.094
24484W        W96210  29.509  17.084   2.294
24485W        W96211  20.533  37.432   4.439
24486W        W96212  15.162   8.157  14.954
24487W        W96213   7.588   1.709  14.852
24488W        W96214   6.163  36.159   5.066
24489W        W96215  32.448  18.015   1.297
24490W        W96216   1.229   8.966  12.074
24491W        W96217  19.655  34.819   1.151
24492W        W96218  29.555   0.395  11.097
24493W        W96219   7.588  16.814   2.813
24494W        W96220  33.575  24.120  11.524
24495W        W96221  11.964  28.548  14.721
24496W        W96222  29.255  37.438   4.463
24497W        W96223   2.735  10.222   0.808
24498W        W96224  10.525  28.177   4.286
24499W        W96225   8.745  20.487  11.910
24500W        W96226  16.580  15.519  11.181
24501W        W96227   0.738   9.187   2.274
24502W        W96228  36.491  36.932   2.696
24503W        W96229  37.484   3.676  10.607
24504W        W96230   7.916   8.399   1.240
24505W        W96231   9.024  37.386  12.211
24506W        W96232  20.294  20.046  10.996
24507W        W96233  33.572  32.986  13.705
24508W        W96234  16.640  18.273   3.128
24509W        W96235  42.687   8.978  14.325
24510W        W96236  36.127   4.205   2.334
24511W        W96237  27.247  16.837  14.955
24512W        W96238   8.112  22.519   0.854
24513W        W96239  40.711  12.649   0.261
24514W        W96240  24.471  20.259  10.728
24515W        W96241   2.129  44.850  11.536
24516W        W96242  28.867  41.419   4.370
24517W        W96243  28.312  20.122  12.928
24518W        W96244  22.555   3.178   5.150
24519W        W96245  44.391  43.860   1.252
24520W        W96246  35.488  43.677   2.263
24521W        W96247  17.842  36.755  12.160
24522W        W96248  35.007  35.354  14.532
24523W        W96249  35.506   0.090   0.918
24524W        W96250  20.216  38.990   4.478
24525W        W96251  36.077  19.123   2.477
24526W        W96252   0.944   8.085   4.589
24527W        W96253   2.398  14.275  12.954
24528W        W96254  31.006   9.395   2.798
24529W        W96255   8.864   5.363   3.418
24530W        W96256   5.802  31.127  14.299
24531W        W96257   9.159  39.276  11.606
24532W        W96258  38.909   7.936  13.443
24533W        W96259  25.010   1.188  11.951
24534W        W96260   2.248  22.015  12.451
24535W        W96261  22.623  21.301   3.805
24536W        W96262  27.925   1.425  13.813
24537W        W96263  39.970   7.793  11.530
24538W        W96264  36.048  36.378  13.359
24539W        W96265   7.507  40.400  13.037
24540W        W96266  28.938   8.112   0.128
24541W        W96267  11.812  43.873  10.893
24542W        W96268  20.002  44.392   0.996
24543W        W96269  34.441  13.685   1.713
24544W        W96270  32.525  28.245   2.701
24545W        W96271  14.845  28.788  14.033
24546W        W96272  32.025  16.802   1.293
24547W        W96273  27.530  11.052  14.352
24548W        W96274   1.380  31.005   4.563
24549W        W96275  28.387  19.089   3.659
24550W        W96276  43.544  10.569  13.915
24551W        W96277  21.735  38.466  13.453
24552W        W96278  15.803  20.716  13.480
24553W        W96279   8.774  30.174  12.343
24554W        W96280  33.309  38.306  12.158
24555W        W96281  22.372  18.057   2.001
24556W        W96282  15.220   9.439   2.557
24557W        W96283  32.057  31.203  13.999
24558W        W96284  11.237  20.034   0.088
24559W        W96285  32.951  39.685   0.866
24560W        W96286  20.195  41.901  10.324
24561W        W96287  28.973  22.030   1.253
24562W        W96288  36.839  35.366   1.285
24563W        W96289  35.556  22.011   1.456
24564W        W96290  19.640  12.362   4.151
24565W        W96291  36.790   2.740  11.417
24566W        W96292  32.783  12.800  11.892
24567W        W96293   4.764   2.901  13.847
24568W        W96294  36.944  41.896   0.281
24569W        W96295  27.725  39.754  14.463
24570W        W96296   1.534  13.832  12.116
24571W        W96297  44.797  43.853  13.884
24572W        W96298  20.671  16.906   3.291
24573W        W96299  31.874   8.730   1.238
24574W        W96300  15.122  35.135   1.730
24575W        W96301   9.654   7.409   0.199
24576W        W96302  37.005   6.962  13.598
24577W        W96303  28.604   8.818  14.553
24578W        W96304  23.116   4.937   3.417
24579W        W96305  18.409  10.358  10.290
24580W        W96306   1.943  28.554  14.808
24581W        W96307  20.065  39.269  14.428
24582W        W96308  37.054  25.992   1.710
24583W        W96309  12.616  40.055  12.160
24584W        W96310  31.527   3.031  14.469
24585W        W96311  40.806  38.830   2.303
24586W        W96312  28.506  25.450   1.760
24587W        W96313  23.306  26.584  10.303
24588W        W96314  21.652  41.089  14.435
24589W        W96315  15.863   3.866   4.161
24590W        W96316  31.592  35.376   2.707
24591W        W96317   3.784  12.906   0.309
24592W        W96318   5.372  40.806  11.619
24593W        W96319  29.065   4.281   0.347
24594W        W96320  35.549  21.192   4.816
24595W        W96321  27.653  24.778  12.572
24596W        W96322   2.454  36.034   3.281
24597W        W96323  18.261   2.962   3.412
24598W        W96324  32.358  29.286  11.953
24599W        W96325  14.671  29.482   0.055
24600W        W96326   6.401  34.395  12.876
24601W        W96327   9.877  38.921  10.649
24602W        W96328   4.919  12.749  12.437
24603W        W96329  11.445  36.624  12.210
24604W        W96330   1.050   5.976  11.151
24605W        W96331  21.064  25.450   4.179
24606W        W96332  18.180  10.161   2.910
24607W        W96333  42.554  10.688   0.224
24608W        W96334   5.287  29.597   1.868
24609W        W96335  41.802  22.812   0.428
24610W        W96336   7.686  14.198  10.109
24611W        W96337   9.836  16.673   0.385
24612W        W96338  21.601  42.084  13.716
24613W        W96339  16.876  16.787   2.209
24614W        W96340  32.956   6.782   0.470
24615W        W96341  27.541  43.768  10.638
24616W        W96342  43.038  39.242  14.821
24617W        W96343  20.776  44.731   2.378
24618W        W96344  22.460  42.349   1.118
24619W        W96345  28.958  43.871  12.241
24620W        W96346  32.515  44.929  10.493
24621W        W96347   0.445  21.080  10.531
24622W        W96348  20.979  44.943  14.247
24623W        W96349  41.010  23.522  13.452
24624W        W96350  39.507  22.009  14.465
24625W        W96351   0.018  33.143   2.776
24626W        W96352  18.429  28.536  14.711
24627W        W96353  39.950  32.070   1.318
24628W        W96354  37.555  37.430  14.703
24629W        W96355  20.653  38.868   1.903
24630W        W96356   4.947  10.621   1.328
24631W        W96357  31.442  34.865  14.358
24632W        W96358  40.296  37.774  12.462
24633W        W96359  27.104  40.041   4.608
24634W        W96360   9.241  40.488   0.705
24635W        W96361   0.657   7.310   3.114
24636W        W96362  27.529  44.539   3.789
24637W        W96363  25.911   8.790   2.447
24638W        W96364   2.028  31.781  10.607
24639W        W96365   3.290   8.217  13.722
24640W        W96366  19.580  14.808   4.619
24641W        W96367  14.721  41.277  12.034
24642W        W96368  27.545  25.192  10.650
24643W        W96369  27.834  44.776   0.317
24644W        W96370   0.859  39.126   3.665
24645W        W96371  30.371  19.347   1.312
24646W        W96372  31.383  17.719   4.140
24647W        W96373  20.727  33.141  13.756
24648W        W96374  43.460   4.659   1.864
24649W        W96375  30.781   6.898   2.204
24650W        W96376  37.114  21.647   1.753
24651W        W96377  22.354   6.751  10.915
24652W        W96378  12.654  19.134   0.978
24653W        W96379  39.964   3.494  13.309
24654W        W96380   9.207  13.888   2.003
24655W        W96381  19.267  30.110   3.976
24656W        W96382  24.681  25.471   0.986
24657W        W96383  39.206   3.559   4.081
24658W        W96384  32.869  40.763   3.315
24659W        W96385  39.501  43.978   0.359
24660W        W96386  14.815   7.035  14.805
24661W        W96387  39.816  20.124   1.805
24662W        W96388  12.612  17.642  11.722
24663W        W96389   0.369  11.778  12.049
24664W        W96390   5.532  13.027  11.528
24665W        W96391  43.587  16.707   1.230
24666W        W96392  36.132   4.369  11.460
24667W        W96393   0.426  30.565   1.426
24668W        W96394  32.730  14.194  11.547
24669W        W96395  33.351  29.180  14.093
24670W        W96396  42.516  22.622  14.358
24671W        W96397  10.439  30.331  10.236
24672W        W96398  18.611  27.678   4.142
24673W        W96399  28.444  18.575   4.403
24674W        W96400   1.791  35.513   1.318
24675W        W96401   8.475   1.923  11.173
24676W        W96402  15.854  38.246   0.954
24677W        W96403  15.566  12.892  14.287
24678W        W96404  15.278  40.340  11.500
24679W        W96405   6.598  21.971  14.377
24680W        W96406  28.646  31.988   5.071
24681W        W96407  38.587  43.755   1.438
24682W        W96408  30.783   4.753   2.392
24683W        W96409   9.845  20.664  14.332
24684W        W96410  34.909   2.159  10.014
24685W        W96411  35.625  31.587   3.397
24686W        W96412  31.934  38.831  12.606
24687W        W96413  30.624  39.279  12.597
24688W        W96414  31.468   0.935  14.476
24689W        W96415  36.331   0.837  10.371
24690W        W96416  26.152  34.085  14.036
24691W        W96417  41.791  23.591  13.883
24692W        W96418   4.510   4.872  10.578
24693W        W96419  28.443  17.799   3.648
24694W        W96420  15.201  38.996   3.663
24695W        W96421   4.635   5.618  11.213
24696W        W96422  12.248  16.211  13.559
24697W        W96423  28.553  35.452  14.035
24698W        W96424  44.305  33.131   1.268
24699W        W96425  16.892  19.003  14.993
24700W        W96426  12.885  44.476  12.825
24701W        W96427  28.585  15.993  13.792
24702W        W96428  12.728   6.599  10.815
24703W        W96429  16.581  20.232   4.262
24704W        W96430  25.684  15.130  12.506
24705W        W96431  37.419  11.042  13.373
24706W        W96432  20.632  40.374  14.026
24707W        W96433   3.244  32.409   3.800
24708W        W96434  28.539  11.649  11.168
24709W        W96435  17.015  13.382   4.015
24710W        W96436  24.561  44.048  12.137
24711W        W96437  28.109  26.599   4.734
24712W        W96438  23.720   8.779   1.616
24713W        W96439  21.035   5.158   3.159
24714W        W96440  15.346   8.619   4.129
24715W        W96441  14.277  28.921  12.912
24716W        W96442   3.358  31.233  13.460
24717W        W96443  19.010  30.432  12.864
24718W        W96444  21.586  28.888   1.255
24719W        W96445  21.640  29.651   0.466
24720W        W96446  36.731   3.270   4.075
24721W        W96447   7.979  41.160   0.710
24722W        W96448  17.799  20.836   1.298
24723W        W96449   1.220   6.701  10.803
24724W        W96450  13.242  43.590   4.205
24725W        W96451  16.144  18.004   1.679
24726W        W96452  27.649  18.705   3.861
24727W        W96453   3.231  30.584  12.114
24728W        W96454  25.524  23.591  14.565
24729W        W96455  27.135  13.279   1.380
24730W        W96456  20.481   7.186  11.711
24731W        W96457   3.889  20.600   2.535
24732W        W96458   8.913  24.467  11.902
24733W        W96459  33.423  29.127   1.343
24734W        W96460  24.136  36.362   1.347
24735W        W96461  13.588   3.233   0.269
24736W        W96462  28.133  28.598   1.700
24737W        W96463   7.175  44.275   0.865
24738W        W96464  42.825  36.543   4.138
24739W        W96465  24.371  38.509  14.443
24740W        W96466  40.440  17.237   4.198
24741W        W96467  37.986  17.718  14.791
24742W        W96468  21.865  44.575  11.513
24743W        W96469  17.328  14.780   3.313
24744W        W96470  23.029  10.302  10.802
24745W        W96471   6.689  10.878  14.181
24746W        W96472   8.398  20.994   2.223
24747W        W96473  33.936   7.238   0.338
24748W        W96474  28.978  27.874  11.469
24749W        W96475  31.031  21.570  14.473
24750W        W96476  13.410  27.190   1.930
24751W        W96477  28.584  27.234  13.390
24752W        W96478  14.355  14.834   0.240
24753W        W96479  15.056  10.296   2.779
24754W        W96480   2.120   4.281  13.917
24755W        W96481  26.533  37.379  11.925
24756W        W96482  16.602  38.417   4.656
24757W        W96483  30.404  34.353   4.873
24758W        W96484   9.884  38.327  14.058
24759W        W96485  16.365  25.408  11.460
24760W        W96486   8.261   8.351  12.221
24761W        W96487  13.886  28.318   0.032
24762W        W96488  31.577  16.663  11.402
24763W        W96489  38.524  39.090   0.307
24764W        W96490  23.444  37.084  11.530
24765W        W96491  37.440  27.557   1.717
24766W        W96492   9.393  10.180   4.087
24767W        W96493  22.581   1.873  14.033
24768W        W96494  22.174  25.648   3.720
24769W        W96495  20.094  11.265  13.789
24770W        W96496  21.680  42.366  12.897
24771W        W96497  26.596  19.759   3.787
24772W        W96498  39.683  35.415   0.010
24773W        W96499  20.176  22.016  14.660
24774W        W96500   1.876   8.446  14.992
24775W        W96501  16.778  39.476  10.989
24776W        W96502  10.333  33.509  13.891
24777W        W96503  44.180  33.312  11.178
24778W        W96504  23.613  31.036  12.802
24779W        W96505   1.265  14.702  11.151
24780W        W96506   6.231  31.158  14.620
24781W        W96507  11.850   1.071   2.673
24782W        W96508  37.030  40.522   2.179
24783W        W96509  37.021   5.255   4.560
24784W        W96510  13.835   6.628  14.828
24785W        W96511  26.377  14.614   1.633
24786W        W96512  30.519  19.416  14.560
24787W        W96513   5.380  27.106   1.686
24788W        W96514   3.422  15.769   2.058
24789W        W96515   1.330   3.459   3.794
24790W        W96516  35.526   7.861   2.820
24791W        W96517  28.136   4.158   2.480
24792W        W96518  36.852   3.267  12.072
24793W        W96519   1.231  32.917  10.697
24794W        W96520  12.915  24.579   1.542
24795W        W96521  30.868  32.587   3.638
24796W        W96522  13.572   7.594   3.612
24797W        W96523  12.777  18.706   3.389
24798W        W96524  39.222  39.866   3.553
24799W        W96525  25.728  37.771  12.205
24800W        W96526  37.905  13.159   1.819
24801W        W96527  31.359  32.084   0.292
24802W        W96528  34.602   7.666  12.078
24803W        W96529  19.646   4.435  11.600
24804W        W96530  34.529  24.720  13.758
24805W        W96531  26.948  12.672  13.851
24806W        W96532  24.211   3.473  12.394
24807W        W96533   0.402  37.674  14.318
24808W        W96534  19.308  21.118   0.392
24809W        W96535   5.601  20.092  11.243
24810W        W96536  29.293  35.527  14.340
24811W        W96537  40.735  19.381  11.065
24812W        W96538   4.419  13.169   0.807
24813W        W96539  31.671  21.858  14.740
24814W        W96540   9.383  35.047   0.936
24815W        W96541  12.768  34.571  12.426
24816W        W96542  23.314   5.569   1.719
24817W        W96543  11.972  10.980  11.920
24818W        W96544  17.480  18.086  13.715
24819W        W96545  17.283  24.753  13.793
24820W        W96546  25.418  14.320  10.517
24821W        W96547  24.251  12.651  13.535
24822W        W96548  14.083   6.965   0.729
24823W        W96549  34.057  15.524   4.919
24824W        W96550  21.556  16.029  12.584
24825W        W96551  21.571   1.362  12.413
24826W        W96552  35.922  26.402   2.975
24827W        W96553  30.183  31.319  11.145
24828W        W96554  27.400  34.041   3.205
24829W        W96555  35.094  34.667   0.838
24830W        W96556  41.980  10.905   0.872
24831W        W96557  42.051   7.472   4.436
24832W        W96558  10.644   8.241  13.094
24833W        W96559  19.064  17.154  13.889
24834W        W96560  30.967   3.257  11.968
24835W        W96561  21.565   7.266  14.731
24836W        W96562  18.005   2.160  13.959
24837W        W96563  31.087  36.346  14.353
24838W        W96564   8.334  19.693   0.487
24839W        W96565   7.311  26.290  12.493
24840W        W96566  14.829  26.211  13.166
24841W        W96567   5.875  38.881  14.601
24842W        W96568  14.701  35.312   0.024
24843W        W96569  40.777  23.319  14.731
24844W        W96570  33.605   7.774   2.908
24845W        W96571  11.340  26.617  10.911
24846W        W96572   7.589   3.305  12.569
24847W        W96573   3.760   8.888   9.931
24848W        W96574   7.898  33.300  13.441
24849W        W96575  19.668  38.897  11.587
24850W        W96576  17.354  31.004  11.851
24851W        W96577  22.630  32.700   1.298
24852W        W96578  18.779   4.999  14.091
24853W        W96579   6.983  36.646   1.378
24854W        W96580  26.097  28.700  14.329
24855W        W96581  13.056   3.713  12.459
24856W        W96582  13.766  35.646   4.316
24857W        W96583  24.535  27.124   0.212
24858W        W96584  20.782   3.002   1.758
24859W        W96585  37.097  31.968  11.628
24860W        W96586  28.147  26.710   3.876
24861W        W96587  42.435  10.307  12.192
24862W        W96588  15.626  16.921   0.744
24863W        W96589  35.811  28.148   2.343
24864W        W96590  28.206  10.717   4.241
24865W        W96591  44.559  40.414  13.265
24866W        W96592   2.664  31.516   2.642
24867W        W96593  35.788  24.697   3.159
24868W        W96594   5.711   2.685   3.587
24869W        W96595   1.398  11.673   3.316
24870W        W96596  15.291  27.691   4.581
24871W        W96597  37.659   7.903  13.981
24872W        W96598  27.016  42.376   0.152
24873W        W96599   0.882   1.706  14.968
24874W        W96600  14.853  29.872  12.524
24875W        W96601   5.150  40.938   3.605
24876W        W96602   6.948  44.693  11.357
24877W        W96603  42.787   0.334  13.481
24878W        W96604  16.997  35.001  14.834
24879W        W96605  19.682  29.032  11.521
24880W        W96606  43.130  13.034   4.489
24881W        W96607  10.474  28.882   0.055
24882W        W96608   8.035  19.747  12.028
24883W        W96609  30.141  29.951   4.609
24884W        W96610  20.392  31.612   0.996
24885W        W96611  31.321  39.496  13.966
24886W        W96612   3.178  15.817  13.980
24887W        W96613  18.254   8.350  11.567
24888W        W96614   3.747  14.413   4.090
24889W        W96615  24.893   7.637   0.425
24890W        W96616  43.705  34.966   4.127
24891W        W96617  25.644  39.457   1.230
24892W        W96618  16.157  20.566  10.493
24893W        W96619  36.497  41.465   3.625
24894W        W96620  40.301  31.275  14.545
24895W        W96621  37.121   2.617   0.029
24896W        W96622  25.596  41.942   1.866
24897W        W96623  24.644  31.941   3.519
24898W        W96624  24.086  35.594   3.236
24899W        W96625  25.268  36.748   5.206
24900W        W96626  15.333  12.597  13.143
24901W        W96627   5.194  44.722  12.497
24902W        W96628  41.338   7.480   0.404
24903W        W96629  34.172  37.818  12.414
24904W        W96630  42.286  24.062   1.380
24905W        W96631  18.878  34.523  10.789
24906W        W96632  26.616  12.341   0.771
24907W        W96633   0.008   7.278   4.161
24908W        W96634  39.629  10.241  13.125
24909W        W96635  43.713  21.235   2.079
24910W        W96636   1.914  32.191   3.715
24911W        W96637   1.436  41.712  12.036
24912W        W96638  18.807  32.023  13.095
24913W        W96639  35.131   8.148  12.597
24914W        W96640  26.236  27.055  13.923
24915W        W96641  18.187  22.106  14.343
24916W        W96642  22.950  17.258   1.735
24917W        W96643  17.356  16.755  14.864
24918W        W96644  12.412  13.668  14.884
24919W        W96645  34.946  26.743   2.737
24920W        W96646   8.891   4.283   2.847
24921W        W96647   9.635   9.376  13.232
24922W        W96648  27.797  38.894  10.592
24923W        W96649  19.182   8.021   0.388
24924W        W96650   1.676   4.334   3.615
24925W        W96651   2.747  24.190  14.508
24926W        W96652   4.190   5.903  10.268
24927W        W96653  34.650  35.386   2.030
24928W        W96654  32.403  23.057  10.603
24929W        W96655   4.955  37.451   2.474
24930W        W96656  43.317  13.844  14.363
24931W        W96657  28.211  40.042  12.422
24932W        W96658   2.638   5.012  12.493
24933W        W96659  35.540   6.386   1.971
24934W        W96660  28.976  42.299   0.839
24935W        W96661  14.720   4.257  11.377
24936W        W96662  28.970  33.795  10.695
24937W        W96663  26.446  11.288  14.329
24938W        W96664  28.902   2.996  11.518
24939W        W96665  12.401  35.785   2.911
24940W        W96666  17.077  41.985  13.078
24941W        W96667  43.504   4.680   4.114
24942W        W96668   0.755   3.491  14.419
24943W        W96669  33.546  35.983   2.926
24944W        W96670  32.086  32.047   3.410
24945W        W96671  32.477   2.770   3.846
24946W        W96672  42.003  16.472   2.669
24947W        W96673   3.158  19.449  11.993
24948W        W96674  38.457  42.446   0.178
24949W        W96675  33.820  23.624  11.019
24950W        W96676   2.906   0.373   2.834
24951W        W96677  13.494  23.467  10.666
24952W        W96678  16.854  25.416  11.678
24953W        W96679  23.970  39.834  11.174
24954W        W96680  26.552   4.605   4.192
24955W        W96681  23.470  26.466  11.542
24956W        W96682   8.401  23.414   0.682
24957W        W96683   3.494  33.102   2.053
24958W        W96684  26.425  34.197  10.993
24959W        W96685  34.132   0.963   4.777
24960W        W96686  42.209  40.997   4.660
24961W        W96687  43.262  26.486   3.626
24962W        W96688  30.204  23.887  14.934
24963W        W96689  22.182   4.460  14.839
24964W        W96690  39.954  20.270  13.916
24965W        W96691  14.839   9.776   2.749
24966W        W96692  20.105  10.512  11.168
24967W        W96693  36.471  19.970   2.160
24968W        W96694  18.246  39.276  14.514
24969W        W96695   3.069  19.865  14.808
24970W        W96696  34.313  32.490   3.364
24971W        W96697  41.353  19.102   1.491
24972W        W96698  12.053  34.115   2.200
24973W        W96699  34.990  42.512   0.889
24974W        W96700  15.028  34.527   3.679
24975W        W96701  21.465  40.375   4.104
24976W        W96702  18.813   6.150  13.979
24977W        W96703  17.837  34.911  12.100
24978W        W96704  35.560  20.189   0.512
24979W        W96705  32.899  37.850  14.460
24980W        W96706  30.246  29.427   4.668
24981W        W96707  16.245  19.957  13.129
24982W        W96708  42.023  43.858   2.153
24983W        W96709  11.884  16.831  11.587
24984W        W96710  37.696  35.373   4.264
24985W        W96711   7.361  22.236  10.782
24986W        W96712  16.114  25.415   2.264
24987W        W96713  38.626  41.340  12.408
24988W        W96714  20.449  28.926   0.614
24989W        W96715  18.981  33.582   1.870
24990W        W96716  28.483  35.466   1.267
24991W        W96717  43.457  32.486   3.228
24992W        W96718  39.768  12.733   4.660
24993W        W96719   4.707  12.305   4.659
24994W        W96720  36.482  31.133   0.499
24995W        W96721   6.419  36.316  11.068
24996W        W96722  44.179  16.679  11.615
24997W        W96723  42.871  41.345  12.832
24998W        W96724   1.350  30.781   2.363
24999W        W96725  30.046   5.195  12.052
25000W        W96726   6.319  41.875  10.747
25001W        W96727   9.948  16.970  13.283
25002W        W96728  22.472  33.309  13.055
25003W        W96729  10.829  24.541  10.377
25004W        W96730   8.627   7.300  12.375
25005W        W96731   0.893  44.272  11.615
25006W        W96732  44.882   1.727   4.578
25007W        W96733  20.142  15.007  11.145
25008W        W96734  35.331   4.800   4.209
25009W        W96735   7.354  21.226   3.216
25010W        W96736  30.636   7.060  14.918
25011W        W96737  21.283  23.643  14.522
25012W        W96738  14.675  19.551  14.462
25013W        W96739   8.763  44.503   3.421
25014W        W96740  30.330  14.272  12.946
25015W        W96741  22.239  43.864  14.347
25016W        W96742  32.517  39.263  12.561
25017W        W96743  39.767   9.900   0.450
25018W        W96744  24.519  30.610  12.023
25019W        W96745  31.049  13.779  11.391
25020W        W96746  19.964  22.752  14.145
25021W        W96747  28.477  13.664   1.185
25022W        W96748  36.839  18.612   4.131
25023W        W96749  41.072  23.451   3.653
25024W        W96750  23.548  28.562  14.412
25025W        W96751  19.212  19.258  14.536
25026W        W96752  14.727  28.097   3.064
25027W        W96753   0.497  35.858   3.416
25028W        W96754  38.345  34.452   2.697
25029W        W96755  11.268  42.976  14.730
25030W        W96756  16.929  34.117  12.908
25031W        W96757   2.372   1.088   2.675
25032W        W96758  29.763   4.756   4.857
25033W        W96759  24.904   5.362   4.611
25034W        W96760  34.466  16.657   4.308
25035W        W96761  42.596   6.066   3.723
25036W        W96762  31.948   1.477   0.860
25037W        W96763  29.792  32.924  11.543
25038W        W96764  31.452  11.088  12.944
25039W        W96765   5.955   3.813   3.413
25040W        W96766  14.838  27.965  14.969
25041W        W96767  17.555   7.664   2.328
25042W        W96768  32.958  31.638  12.985
25043W        W96769  18.160  33.468  14.525
25044W        W96770  25.723  28.364   2.656
25045W        W96771   7.224  26.604   1.269
25046W        W96772  14.726  32.297   1.794
25047W        W96773  18.496  33.159   1.250
25048W        W96774  19.033  41.374   0.314
25049W        W96775  13.618  22.664  12.978
25050W        W96776  36.613  42.778   0.376
25051W        W96777  38.972   6.534   4.671
25052W        W96778  35.025  38.798   2.855
25053W        W96779  35.501  38.029  13.537
25054W        W96780  42.317  28.566   4.178
25055W        W96781  34.515  10.703  14.902
25056W        W96782  17.432  18.533   5.085
25057W        W96783  32.189  27.010   1.304
25058W        W96784  16.265  42.391  10.642
25059W        W96785  37.577  20.191  12.997
25060W        W96786   9.374  13.641  13.820
25061W        W96787  33.116   0.795   1.269
25062W        W96788   9.386  16.772   3.580
25063W        W96789  27.687  16.738  13.506
25064W        W96790  11.014  28.619  12.332
25065W        W96791  24.788  30.915  13.361
25066W        W96792  16.620  37.019   2.428
25067W        W96793  22.154  17.378   0.702
25068W        W96794  28.132  25.090   3.672
25069W        W96795  20.331  27.025   1.017
25070W        W96796  17.279  11.453  11.832
25071W        W96797  22.075  40.936   2.118
25072W        W96798   8.807  12.645   2.074
25073W        W96799  38.299  15.019   1.931
25074W        W96800  26.229  20.789   2.556
25075W        W96801  40.968  23.661   2.222
25076W        W96802  12.060   4.835  11.252
25077W        W96803   4.864  19.294  14.458
25078W        W96804  42.867  31.037   2.675
25079W        W96805  44.469   7.668   0.768
25080W        W96806  22.167  21.499   3.593
25081W        W96807  27.958  26.537   2.304
25082W        W96808  15.738  44.172  11.660
25083W        W96809   5.425  16.859  11.567
25084W        W96810  37.998   7.121   2.131
25085W        W96811  38.995  20.146   2.367
25086W        W96812   6.636  30.911  14.413
25087W        W96813   8.468  33.180  11.556
25088W        W96814  39.490  35.011   0.815
25089W        W96815  39.001   7.818  10.440
25090W        W96816  28.428  30.983   1.325
25091W        W96817  39.868   5.744   0.429
25092W        W96818   7.307  38.257  10.688
25093W        W96819  37.314  25.724  12.396
25094W        W96820  11.545  36.489   3.222
25095W        W96821   4.664  44.536  13.510
25096W        W96822  21.535  20.243  11.713
25097W        W96823   3.550  21.562  11.524
25098W        W96824  23.234   9.685  12.933
25099W        W96825   7.610  41.257   0.342
25100W        W96826  33.067  44.501  10.375
25101W        W96827   8.921  33.949   1.825
25102W        W96828  28.351  27.495  12.942
25103W        W96829  24.877  39.815   1.297
25104W        W96830  19.141   7.638  13.931
25105W        W96831  30.701   8.440  13.949
25106W        W96832   5.891   2.337  12.430
25107W        W96833  26.736  13.034   1.654
25108W        W96834   3.226  37.197  12.387
25109W        W96835  30.051  42.626  12.561
25110W        W96836   4.698  32.611  13.590
25111W        W96837  27.002   4.003  10.735
25112W        W96838  36.991   9.283  13.990
25113W        W96839   3.752  38.751  11.044
25114W        W96840  31.071  39.518  12.516
25115W        W96841   1.201   1.278   0.371
25116W        W96842  32.889  27.157   3.241
25117W        W96843  33.069  43.284  14.903
25118W        W96844  37.374  42.264  11.513
25119W        W96845  43.780  32.229   4.879
25120W        W96846  27.732   3.429   1.452
25121W        W96847  33.829  36.932   3.351
25122W        W96848  12.698  36.537   1.362
25123W        W96849  22.660  39.568   3.763
25124W        W96850   4.452  30.113  12.859
25125W        W96851  21.035  12.953   4.651
25126W        W96852  39.058  15.825   0.908
25127W        W96853  44.552  17.926  13.231
25128W        W96854  23.080  42.496   1.514
25129W        W96855  34.845   5.740   2.293
25130W        W96856  11.191  19.129   0.973
25131W        W96857   1.771  27.434  11.085
25132W        W96858   2.793  30.014  10.696
25133W        W96859  33.867  10.142   3.819
25134W        W96860  27.409  17.121  13.727
25135W        W96861  12.196  28.739  12.984
25136W        W96862  39.002  14.033  10.504
25137W        W96863   1.201  22.836  12.869
25138W        W96864  17.875  43.942   4.118
25139W        W96865  34.168  13.470   4.131
25140W        W96866  16.448  31.643  14.538
25141W        W96867  33.996   4.789  11.428
25142W        W96868  19.147   8.872  14.961
25143W        W96869  16.644  43.965  13.023
25144W        W96870  14.178  13.272   2.690
25145W        W96871  40.097  15.726   1.748
25146W        W96872  42.598  16.242   0.376
25147W        W96873  24.141  43.855   0.278
25148W        W96874   5.652  31.546   0.449
25149W        W96875  36.983   3.586  10.637
25150W        W96876  34.018  40.041   3.185
25151W        W96877   1.518   8.713  13.026
25152W        W96878  40.483  42.625   2.637
25153W        W96879  27.357   4.718  10.042
25154W        W96880   3.708  33.094  14.950
25155W        W96881   7.424  27.764  14.456
25156W        W96882  24.487  41.319   2.091
25157W        W96883  42.161  13.107  13.847
25158W        W96884   9.807   1.910  12.627
25159W        W96885   6.890  18.157  12.591
25160W        W96886  27.212  15.036  14.916
25161W        W96887  40.594  11.220   3.218
25162W        W96888  30.902  40.122   2.276
25163W        W96889  19.074  12.615  14.995
25164W        W96890   0.298  27.994   0.309
25165W        W96891  23.659  20.064   4.286
25166W        W96892  38.097  36.063  14.258
25167W        W96893  12.177  11.106   1.908
25168W        W96894  13.989  35.468   0.694
25169W        W96895  36.763  29.702   1.102
25170W        W96896  25.775  42.353   2.160
25171W        W96897  14.257  27.602   0.892
25172W        W96898  42.908  10.300   2.315
25173W        W96899  42.526   3.852   1.164
25174W        W96900  16.502  38.570   2.615
25175W        W96901  27.869   0.667   3.805
25176W        W96902  39.020  25.483   2.155
25177W        W96903   9.661  19.665   1.199
25178W        W96904  18.702  26.566  11.161
25179W        W96905  12.802  12.790   3.728
25180W        W96906   6.736  29.548   1.928
25181W        W96907   5.709  12.210   2.819
25182W        W96908  39.561  36.626   0.399
25183W        W96909  36.495  27.003  11.958
25184W        W96910  26.911  16.791  14.522
25185W        W96911  19.606  27.852  12.539
25186W        W96912  11.190  26.527  13.342
25187W        W96913  25.641  21.891   0.307
25188W        W96914  37.622   4.146   4.669
25189W        W96915  44.989  20.831   0.025
25190W        W96916  10.274  35.009  12.069
25191W        W96917  20.183  42.328   0.381
25192W        W96918  40.069   4.481   2.900
25193W        W96919  26.412  29.025   0.969
25194W        W96920  38.386  24.447   1.964
25195W        W96921  40.886  43.205   0.448
25196W        W96922   7.396  26.254  13.834
25197W        W96923   6.773  16.539  14.752
25198W        W96924  32.047  37.526   1.272
25199W        W96925  40.977  21.146  11.122
25200W        W96926   9.632  30.517  12.471
25201W        W96927  17.059  44.068   3.218
25202W        W96928  42.994  41.447   3.248
25203W        W96929  31.985  31.945  12.048
25204W        W96930  13.334   8.248   3.224
25205W        W96931  23.366  39.098  11.950
25206W        W96932  35.259  22.567   0.714
25207W        W96933  10.589  32.404   0.754
25208W        W96934  42.965  12.360  12.815
25209W        W96935   5.731  29.133  12.904
25210W        W96936  26.272   3.165   4.169
25211W        W96937   7.211   0.067   3.702
25212W        W96938  31.376   8.833  14.369
25213W        W96939  19.570  34.071  11.922
25214W        W96940   1.446   5.644   2.649
25215W        W96941  44.927  35.641  11.213
25216W        W96942  15.709   1.460   2.872
25217W        W96943  25.698  15.107   3.743
25218W        W96944  33.369  25.892  11.595
25219W        W96945  24.043   9.159   4.498
25220W        W96946  36.772  20.838   0.723
25221W        W96947  41.368   7.796   4.173
25222W        W96948  17.387  10.044   2.329
25223W        W96949  22.083  32.114  11.429
25224W        W96950  24.106   9.389  10.952
25225W        W96951  22.963   0.938  12.875
25226W        W96952  43.822  15.576  11.534
25227W        W96953   6.862   8.240   1.232
25228W        W96954  31.966   9.699  12.919
25229W        W96955  21.275  19.618  12.899
25230W        W96956   0.353  13.147  13.037
25231W        W96957  41.547   2.851   2.301
25232W        W96958  43.828  15.990   4.754
25233W        W96959  34.855   1.474   0.699
25234W        W96960  12.646  18.204   0.866
25235W        W96961  38.574  38.412  13.440
25236W        W96962  41.966  10.343   2.683
25237W        W96963  30.183  38.881  11.756
25238W        W96964  39.414  37.533  13.454
25239W        W96965   7.143   1.841  14.103
25240W        W96966  26.686  33.833   2.736
25241W        W96967  35.219  15.892   3.550
25242W        W96968  14.066   9.814  13.769
25243W        W96969  32.058  19.033  11.037
25244W        W96970  12.401  39.774   3.698
25245W        W96971  17.240  32.383   3.365
25246W        W96972  31.390  28.131  12.575
25247W        W96973  29.062  38.307   4.536
25248W        W96974  20.545   4.750   3.673
25249W        W96975  30.303  33.913   4.121
25250W        W96976   3.596  13.204   3.635
25251W        W96977  19.542  35.035   1.630
25252W        W96978  23.738  34.578   1.782
25253W        W96979  31.760   0.715  14.867
25254W        W96980  44.012   8.417   0.870
25255W        W96981  32.547  25.991   0.662
25256W        W96982   7.970  39.320  11.574
25257W        W96983  22.763  23.023  13.951
25258W        W96984  32.884   3.822   3.715
25259W        W96985   3.149  15.165   0.258
25260W        W96986  11.857  36.290  14.864
25261W        W96987  34.104  27.186   4.138
25262W        W96988  35.003  13.018  10.807
25263W        W96989   4.038  14.040   5.313
25264W        W96990  41.092  25.578  14.442
25265W        W96991   0.328  15.495  14.362
25266W        W96992  31.955  43.953  14.743
25267W        W96993  36.657  13.730  11.121
25268W        W96994  20.045  37.140   3.670
25269W        W96995  38.295  25.979  12.495
25270W        W96996  37.518  38.750  12.277
25271W        W96997  13.716   3.196  13.812
25272W        W96998  19.117  24.745  14.756
25273W        W96999  26.207  28.172  12.954
25274W        W97000   7.800  32.443  11.787
25275W        W97001  28.299  24.330   3.338
25276W        W97002  34.163  44.658  13.188
25277W        W97003   4.772   3.825  11.803
25278W        W97004  30.635  27.163   0.766
25279W        W97005   2.811  20.675  14.768
25280W        W97006  35.774  28.882   2.543
25281W        W97007  28.762  44.806   3.266
25282W        W97008  23.185  38.960   4.795
25283W        W97009  43.152  38.153  12.020
25284W        W97010   5.673  11.737   1.809
25285W        W97011  15.868  20.654   1.382
25286W        W97012   1.838  12.683   0.487
25287W        W97013  37.587   4.161   0.935
25288W        W97014  30.959  38.981   0.832
25289W        W97015  27.628  36.945   0.094
25290W        W97016  33.350  42.265   0.845
25291W        W97017  38.087  43.041  12.095
25292W        W97018  26.707  24.071  14.286
25293W        W97019  37.904   9.394   3.671
25294W        W97020  25.436  19.827   3.612
25295W        W97021  31.774  18.392   0.030
25296W        W97022  24.472   6.694  14.410
25297W        W97023  10.106  39.896  11.875
25298W        W97024   0.487  26.203   3.724
25299W        W97025  19.951  39.555   4.311
25300W        W97026  19.219  35.841  13.403
25301W        W97027  16.994   1.057  10.760
25302W        W97028   2.795  40.604  10.826
25303W        W97029  13.025  42.026   2.700
25304W        W97030  28.347  44.686  11.981
25305W        W97031  43.299  12.514   0.931
25306W        W97032   1.788  10.164   4.644
25307W        W97033  11.329  19.790  14.148
25308W        W97034  36.427  43.962  14.328
25309W        W97035  20.761  23.787   5.018
25310W        W97036  29.103  25.974   3.640
25311W        W97037   4.894  35.080  14.803
25312W        W97038   0.201  38.083  12.961
25313W        W97039   2.333  18.969  11.840
25314W        W97040  42.780  29.706  10.750
25315W        W97041  16.339   1.272  12.513
25316W        W97042  32.292  23.190  13.868
25317W        W97043  18.166   4.021  14.251
25318W        W97044  27.375  40.806   1.717
25319W        W97045  38.577  12.001   4.257
25320W        W97046  30.959  21.159  12.100
25321W        W97047  35.060  36.437  11.631
25322W        W97048   4.164  31.569   2.704
25323W        W97049  32.969   4.181  13.597
25324W        W97050  39.625  19.230  12.459
25325W        W97051   7.525   5.493   2.770
25326W        W97052  17.268  41.087  13.837
25327W        W97053  26.016  15.834   1.349
25328W        W97054  15.085  41.717   3.273
25329W        W97055  14.696  27.941  14.109
25330W        W97056  22.258   0.949   1.889
25331W        W97057  18.598   6.410   3.132
25332W        W97058   0.361  32.042   1.815
25333W        W97059  42.749  40.051   4.562
25334W        W97060  42.073   0.175   4.611
25335W        W97061  11.911  12.609   0.830
25336W        W97062  25.135  38.928  13.146
25337W        W97063  23.096   8.401  12.482
25338W        W97064  21.578  33.154  13.982
25339W        W97065  39.643  32.393   2.960
25340W        W97066  37.299  23.467  13.945
25341W        W97067  34.504   1.483   1.612
25342W        W97068  37.265  34.211  11.219
25343W        W97069  43.279   9.289   1.733
25344W        W97070  31.962  37.943  12.503
25345W        W97071  23.188   8.629   2.486
25346W        W97072  17.513  44.684   3.933
25347W        W97073  39.026  40.014   4.223
25348W        W97074  10.116   5.409   4.495
25349W        W97075  36.844  16.353   4.838
25350W        W97076  42.050   7.592  11.641
25351W        W97077  11.556  22.018   4.689
25352W        W97078  41.835  42.664   0.478
25353W        W97079  37.581  35.493  11.067
25354W        W97080  41.620  27.695  11.983
25355W        W97081   0.388  42.977  14.477
25356W        W97082  28.703  17.942   2.289
25357W        W97083  23.600   8.894   2.325
25358W        W97084   4.389  34.870   3.396
25359W        W97085  25.018  32.113  12.558
25360W        W97086  30.498  41.291   0.344
25361W        W97087   2.530  34.115  11.073
25362W        W97088   7.157   6.537   9.997
25363W        W97089  27.916  43.769  12.472
25364W        W97090  18.001  36.017   2.758
25365W        W97091   4.605  36.623  10.196
25366W        W97092  30.006  10.183   1.871
25367W        W97093  26.776  24.745   2.267
25368W        W97094  35.172  37.944   0.933
25369W        W97095  31.471  40.633   1.804
25370W        W97096   0.266   3.321  13.498
25371W        W97097  44.533   3.262   4.630
25372W        W97098  22.686  14.219   4.198
25373W        W97099  11.606  29.069   2.149
25374W        W97100  12.593  42.429   2.912
25375W        W97101   3.275   7.159   3.247
25376W        W97102  42.836  32.116   1.362
25377W        W97103  22.182  37.352   3.843
25378W        W97104  10.811   1.868   4.048
25379W        W97105  36.234  32.207  13.828
25380W        W97106  10.472  40.049   1.463
25381W        W97107  44.473  16.763   4.624
25382W        W97108  43.779  25.885   2.231
25383W        W97109  17.353  27.949  11.053
25384W        W97110  29.497  25.676  14.257
25385W        W97111  23.297  14.765   9.753
25386W        W97112   8.477   0.258   3.555
25387W        W97113  44.791  34.025   1.423
25388W        W97114  15.557  34.499  10.166
25389W        W97115  44.830  12.918   2.867
25390W        W97116  15.602  11.859   4.564
25391W        W97117  39.793   1.733  13.924
25392W        W97118  37.910  23.542  14.890
25393W        W97119  33.742   8.205  10.446
25394W        W97120  44.172  40.430  12.362
25395W        W97121  16.992   9.029   3.569
25396W        W97122  22.756  13.716   4.357
25397W        W97123  24.013  15.766  14.867
25398W        W97124  17.291   3.199  13.008
25399W        W97125  19.330  38.441  12.855
25400W        W97126  38.123  34.835   2.153
25401W        W97127  30.433  37.982   0.426
25402W        W97128   6.828  42.076  12.158
25403W        W97129  29.664  12.985   4.591
25404W        W97130  30.516  12.545  11.193
25405W        W97131  27.936  39.435   2.230
25406W        W97132   0.939  35.830   4.957
25407W        W97133  11.799   0.795  12.788
25408W        W97134  41.368  25.470   2.140
25409W        W97135   3.451  23.770   0.926
25410W        W97136  38.924  40.586  10.479
25411W        W97137  33.859  12.919   2.142
25412W        W97138   8.187  38.773   1.191
25413W        W97139  31.483  36.056   3.823
25414W        W97140   9.947   2.223  14.013
25415W        W97141   6.894  12.602  10.047
25416W        W97142  35.870   4.492   4.814
25417W        W97143   8.261  39.714   2.705
25418W        W97144  20.005  42.447   2.217
25419W        W97145  24.071   1.815  14.850
25420W        W97146   3.677  35.750   4.949
25421W        W97147  17.819  16.151  14.322
25422W        W97148  44.820  10.190   3.843
25423W        W97149  15.094  19.232   3.373
25424W        W97150  27.847  37.535  11.929
25425W        W97151  25.704  28.301  13.204
25426W        W97152  17.355  40.325   1.122
25427W        W97153   3.305   9.914   4.230
25428W        W97154  41.307   6.313   2.245
25429W        W97155  32.122  38.354  12.761
25430W        W97156  42.329  26.503   0.047
25431W        W97157  14.172   5.611  11.687
25432W        W97158  25.663  29.598   1.743
25433W        W97159  20.048  43.383  12.886
25434W        W97160   4.671  23.067   3.851
25435W        W97161  42.361  30.765  10.701
25436W        W97162   1.063  25.041  14.477
25437W        W97163  38.550   9.815   3.974
25438W        W97164   2.906  38.534  11.164
25439W        W97165  42.160  23.222  14.803
25440W        W97166  37.494   6.519   4.366
25441W        W97167  14.388  28.060   4.629
25442W        W97168  25.060  29.697  10.674
25443W        W97169  25.783  32.988  10.688
25444W        W97170  39.812  30.964   2.948
25445W        W97171   1.202   2.298  13.327
25446W        W97172  26.470   8.391   1.087
25447W        W97173  24.675  24.597   4.533
25448W        W97174  36.338  40.429  12.931
25449W        W97175  24.672  17.181  10.610
25450W        W97176  24.706   4.667   3.785
25451W        W97177  38.093   1.222  11.127
25452W        W97178  19.273  31.180  14.064
25453W        W97179  10.805  23.586   2.801
25454W        W97180  33.127  12.815  13.559
25455W        W97181  21.264   0.760   1.835
25456W        W97182  29.626  22.019  14.909
25457W        W97183  39.388  33.297  12.148
25458W        W97184  33.998  32.850   1.394
25459W        W97185  37.630  22.056  12.545
25460W        W97186  22.718   3.520   4.470
25461W        W97187  28.494  22.187  14.964
25462W        W97188   2.471  34.629   2.242
25463W        W97189  11.788  27.576   3.293
25464W        W97190  22.118  34.427   4.705
25465W        W97191   5.994  27.443   1.742
25466W        W97192  12.183  13.056   1.823
25467W        W97193  13.081  25.737  14.619
25468W        W97194  17.730  40.523  12.425
25469W        W97195  35.823  30.337   2.770
25470W        W97196   3.442   6.304   1.229
25471W        W97197   8.817  32.055   4.563
25472W        W97198  15.209  32.669   4.169
25473W        W97199  14.895  33.503  14.453
25474W        W97200   7.218  35.502   0.952
25475W        W97201  30.149  14.253  12.455
25476W        W97202  28.571  14.731   1.220
25477W        W97203   3.783   8.301   2.576
25478W        W97204   5.435  39.314  14.498
25479W        W97205  31.589  15.597   3.705
25480W        W97206   8.861  31.408   2.900
25481W        W97207  27.366   3.780   0.720
25482W        W97208  38.902  37.772  10.757
25483W        W97209  28.703  12.565  13.332
25484W        W97210  22.557  39.994   4.045
25485W        W97211  32.108  16.650  10.106
25486W        W97212  30.833   4.810   3.701
25487W        W97213   3.807  13.332  11.916
25488W        W97214  36.493  21.241   2.828
25489W        W97215  10.852  43.893  14.783
25490W        W97216  10.158  21.503  14.553
25491W        W97217  30.576  40.332   1.130
25492W        W97218   9.647  29.040  11.088
25493W        W97219  23.768  21.026  11.170
25494W        W97220  29.627  16.300  14.513
25495W        W97221  40.634  26.706   0.976
25496W        W97222  35.885  27.165  14.711
25497W        W97223  29.448  37.358   2.550
25498W        W97224  44.891  26.401   4.346
25499W        W97225  24.382  11.989  14.888
25500W        W97226  26.345   7.980   4.982
25501W        W97227  19.278  11.815  12.103
25502W        W97228  13.598  14.577  11.356
25503W        W97229  39.046  13.941   1.748
25504W        W97230   1.384  32.621  13.085
25505W        W97231  20.777  14.271   3.309
25506W        W97232  20.469  43.911   2.510
25507W        W97233  29.552   1.688  10.737
25508W        W97234  27.249  32.261   4.981
25509W        W97235  10.740  18.320  12.496
25510W        W97236   5.211  30.173   2.791
25511W        W97237  28.043  14.906   1.430
25512W        W97238   7.162   0.892   0.205
25513W        W97239  44.449  28.872   3.743
25514W        W97240  12.233  29.026   1.847
25515W        W97241  29.195  25.726   9.821
25516W        W97242   2.255  36.932   4.613
25517W        W97243  44.590  38.160  12.182
25518W        W97244   6.990  34.197  12.107
25519W        W97245  26.544  38.587  12.824
25520W        W97246   0.039  40.991   2.270
25521W        W97247   6.871  30.947   1.405
25522W        W97248  30.135  43.667   1.353
25523W        W97249  17.075  17.184  13.806
25524W        W97250  39.393  20.489   3.104
25525W        W97251  12.471  26.617   1.987
25526W        W97252  43.403  39.408   3.140
25527W        W97253  32.551  38.310   3.054
25528W        W97254   0.060  33.074  12.047
25529W        W97255   9.754  23.087  10.196
25530W        W97256  36.503  14.139  10.808
25531W        W97257  31.366  13.256  12.077
25532W        W97258   6.327  35.411   0.046
25533W        W97259  35.233  34.575  12.214
25534W        W97260  28.931   4.732   2.426
25535W        W97261  40.082  18.851   1.316
25536W        W97262  38.183  12.626   2.883
25537W        W97263  34.999  25.476   4.831
25538W        W97264   3.351  39.765   3.410
25539W        W97265  28.480  19.747   1.018
25540W        W97266   3.168   5.335   3.600
25541W        W97267  28.088  35.695   9.895
25542W        W97268  22.832   0.254   1.924
25543W        W97269  20.619  33.074   3.626
25544W        W97270   2.874  20.936   4.581
25545W        W97271   3.670  43.343  13.841
25546W        W97272  34.747  34.456  12.499
25547W        W97273   4.289  40.435  13.296
25548W        W97274   5.648  32.587  11.216
25549W        W97275  21.974  41.621   0.550
25550W        W97276  43.307  18.075   2.333
25551W        W97277  26.548  42.939  13.159
25552W        W97278   8.962   4.325  10.916
25553W        W97279  12.904  40.438  14.330
25554W        W97280  26.508  31.404  12.392
25555W        W97281  29.052  30.698  12.582
25556W        W97282  35.128  42.808   4.245
25557W        W97283  30.396  20.708   4.549
25558W        W97284  15.886   9.496   4.231
25559W        W97285  23.920  12.751  13.158
25560W        W97286  43.900  19.573  14.984
25561W        W97287  27.652  22.294   1.849
25562W        W97288   4.530  32.636   4.212
25563W        W97289  38.783  10.294  10.854
25564W        W97290  13.678  44.939   1.204
25565W        W97291  10.682   8.848   4.896
25566W        W97292  44.488  39.636  13.399
25567W        W97293  38.771  21.266   4.116
25568W        W97294  41.122   5.394   2.928
25569W        W97295   9.505   4.923   0.532
25570W        W97296  34.092  32.410  14.853
25571W        W97297  22.876  29.919   2.339
25572W        W97298  17.581  29.412  11.914
25573W        W97299  17.112  38.854   0.866
25574W        W97300  41.775  42.326   3.959
25575W        W97301  16.099  20.529   4.126
25576W        W97302  21.654   6.486  13.475
25577W        W97303  37.368  13.157   2.917
25578W        W97304   9.116  25.597   2.896
25579W        W97305  28.125  37.067   4.391
25580W        W97306   5.751  16.002  14.590
25581W        W97307  37.448   5.964  13.862
25582W        W97308   7.071  13.315   3.429
25583W        W97309  16.422  30.575   3.273
25584W        W97310  14.623  29.786   0.514
25585W        W97311  30.190   7.117   0.730
25586W        W97312  16.711  25.093  13.034
25587W        W97313   0.470  12.660  12.918
25588W        W97314  29.933  43.500  12.826
25589W        W97315  31.417  36.988   2.652
25590W        W97316  31.018  39.863   1.828
25591W        W97317  16.562  32.982  14.853
25592W        W97318  38.653  17.875   4.209
25593W        W97319  14.061  33.309   3.556
25594W        W97320  20.319  26.677  13.824
25595W        W97321  44.757  31.558   2.102
25596W        W97322   3.254  36.079   1.966
25597W        W97323   2.994   9.606  11.213
25598W        W97324   6.490   9.198   4.613
25599W        W97325  36.188  29.246  13.071
25600W        W97326  29.764  20.008   3.694
25601W        W97327  27.006  13.354   0.368
25602W        W97328  42.078  29.842  13.537
25603W        W97329  38.406   2.040  13.070
25604W        W97330  31.923  16.607  14.325
25605W        W97331  10.372  23.173   9.886
25606W        W97332  37.157  25.992   3.300
25607W        W97333  37.149  44.366   0.292
25608W        W97334  11.401  24.632   4.962
25609W        W97335  13.793  15.218  13.601
25610W        W97336  33.567  30.239   0.422
25611W        W97337  44.737   9.667  13.054
25612W        W97338  15.024  32.633   1.387
25613W        W97339  27.623  37.026   4.563
25614W        W97340  35.160  10.231  12.136
25615W        W97341  40.541  34.997  10.973
25616W        W97342   3.032  42.335   4.163
25617W        W97343  30.359  40.524  13.828
25618W        W97344  26.137  44.354  14.073
25619W        W97345  10.059  23.235  12.992
25620W        W97346  26.804  37.886  14.017
25621W        W97347  36.045  38.458  11.016
25622W        W97348  32.336  34.840   3.786
25623W        W97349  34.569  22.541   0.129
25624W        W97350  24.623  40.011   4.119
25625W        W97351  27.601  14.573   0.387
25626W        W97352  22.245  28.556  13.745
25627W        W97353   3.135  18.156   0.349
25628W        W97354   7.100  23.829   2.405
25629W        W97355  44.484  13.995   0.854
25630W        W97356  37.510  15.136   0.672
25631W        W97357  37.164   3.857  14.342
25632W        W97358  38.978  29.489   4.122
25633W        W97359  40.844  10.189   3.799
25634W        W97360  19.119  15.782   3.842
25635W        W97361  21.175  36.460   2.826
25636W        W97362  24.720  22.249  13.931
25637W        W97363   7.889  17.366   1.239
25638W        W97364  16.452  35.324   0.520
25639W        W97365  30.488  14.581   2.774
25640W        W97366   4.787  26.216   0.915
25641W        W97367  22.561  21.542   4.251
25642W        W97368  24.662   8.701   2.830
25643W        W97369  39.929  11.388  13.020
25644W        W97370  10.603   9.687   3.687
25645W        W97371  16.851   4.356  12.023
25646W        W97372  28.583   8.402   4.556
25647W        W97373   9.497  26.656  10.864
25648W        W97374  29.411   8.912   1.391
25649W        W97375   3.495  27.422  14.758
25650W        W97376   9.109  22.632   3.124
25651W        W97377  19.140  39.644   0.989
25652W        W97378  27.225  29.749   1.790
25653W        W97379  17.844  25.589   0.876
25654W        W97380   6.390  42.882  14.250
25655W        W97381  27.996  18.384   4.235
25656W        W97382  12.276   5.008   1.250
25657W        W97383   2.191   6.308  11.190
25658W        W97384  39.863   1.222   2.198
25659W        W97385  12.657  26.532   3.014
25660W        W97386  43.587  19.710  10.733
25661W        W97387  34.041  37.885   3.850
25662W        W97388  28.578  40.046  12.025
25663W        W97389  43.338  17.090  11.745
25664W        W97390  25.605   7.131  14.032
25665W        W97391  37.077  33.886  12.558
25666W        W97392  17.242   0.899   1.180
25667W        W97393   8.174  16.112  14.511
25668W        W97394   1.559  31.522  14.173
25669W        W97395  23.402  26.995   1.677
25670W        W97396  43.102   4.293   1.959
25671W        W97397  26.979  36.605  12.935
25672W        W97398  10.181   5.821  13.737
25673W        W97399  13.874  39.917  13.496
25674W        W97400  41.071  35.013   1.793
25675W        W97401  13.824  15.669  10.649
25676W        W97402  12.875  34.684  11.609
25677W        W97403   3.964  22.967  14.449
25678W        W97404  23.981  23.405   0.280
25679W        W97405  34.468  29.862   3.663
25680W        W97406  23.609   6.642  10.696
25681W        W97407  18.756  27.867   0.041
25682W        W97408  31.379  23.550  11.072
25683W        W97409  21.169  27.559  12.784
25684W        W97410  19.251  18.601  11.532
25685W        W97411  14.657   5.197  10.437
25686W        W97412  27.898  30.986  14.021
25687W        W97413  19.130  42.020   4.855
25688W        W97414  43.892  27.205   1.810
25689W        W97415  24.248  35.372   9.959
25690W        W97416  37.324  17.097  12.095
25691W        W97417  29.147  13.576  13.787
25692W        W97418  20.516  38.535   0.374
25693W        W97419  24.764  44.270   3.605
25694W        W97420  36.853  22.191  12.634
25695W        W97421  15.732  32.123  13.946
25696W        W97422  40.357   9.783   4.365
25697W        W97423  34.363   6.712  13.799
25698W        W97424  16.568  39.845  12.733
25699W        W97425  28.540  38.048  14.688
25700W        W97426  42.651  27.896   2.460
25701W        W97427  14.243   0.488  11.734
25702W        W97428  30.139  31.601  14.949
25703W        W97429  43.325  44.080   3.269
25704W        W97430  13.152   0.235   0.245
25705W        W97431   9.465  33.407   4.199
25706W        W97432  18.041  21.553   0.258
25707W        W97433  11.197  33.463  11.345
25708W        W97434  24.040   8.631  12.052
25709W        W97435  34.523  18.613  13.025
25710W        W97436  17.080  40.386  10.094
25711W        W97437  10.415  16.405   4.571
25712W        W97438  34.890  12.324   3.763
25713W        W97439  22.178  20.757   2.179
25714W        W97440  19.977  22.921   1.652
25715W        W97441  20.717   5.448   1.344
25716W        W97442  34.826   7.728   0.460
25717W        W97443  28.158   6.301  10.184
25718W        W97444  31.922  23.563  13.431
25719W        W97445   2.587   4.952  13.417
25720W        W97446  32.463  23.103  12.495
25721W        W97447   7.598  17.112   0.825
25722W        W97448  10.196  23.745  13.890
25723W        W97449  11.927   6.822  10.507
25724W        W97450  37.002  26.004  10.708
25725W        W97451  21.622  22.182  11.629
25726W        W97452   1.848  10.149   0.513
25727W        W97453  39.514  34.404  10.923
25728W        W97454  24.997  35.733  14.321
25729W        W97455  31.028  37.564   3.646
25730W        W97456   7.198  36.905   2.254
25731W        W97457  19.523  30.992  12.289
25732W        W97458  33.430  44.399   0.036
25733W        W97459   1.542   8.713  10.744
25734W        W97460   4.222   8.123   1.721
25735W        W97461   3.703  10.449  12.519
25736W        W97462   7.801   8.659  14.490
25737W        W97463  21.322  21.705  12.496
25738W        W97464  23.065  12.873   4.568
25739W        W97465  42.951   3.376   4.549
25740W        W97466  25.250  16.766   2.733
25741W        W97467  38.043  26.775   1.990
25742W        W97468  17.328  21.561   2.161
25743W        W97469  28.423  33.176   3.679
25744W        W97470  34.569   2.162   2.970
25745W        W97471  32.499   2.770   4.364
25746W        W97472  40.786  22.310  14.517
25747W        W97473  28.223   1.989   0.849
25748W        W97474  39.773  12.292   3.600
25749W        W97475  13.578  15.212  10.691
25750W        W97476   6.195  41.155  14.341
25751W        W97477  26.197  11.496  12.492
25752W        W97478   2.688   2.403  14.625
25753W        W97479  17.584   0.242   0.532
25754W        W97480  16.262  17.629   0.731
25755W        W97481  36.268  29.560  11.182
25756W        W97482  15.291  22.466   1.332
25757W        W97483  18.304  10.275   4.817
25758W        W97484  29.037  28.494   1.442
25759W        W97485  22.904  36.033   4.610
25760W        W97486  41.039   9.999  10.322
25761W        W97487  26.441  29.060  13.883
25762W        W97488  17.144  32.979  10.204
25763W        W97489  33.623  24.486   1.662
25764W        W97490   4.346  19.900  13.361
25765W        W97491  39.792  41.390  12.961
25766W        W97492  17.334  23.090   3.222
25767W        W97493  35.332  33.631  13.362
25768W        W97494  19.308  19.263  11.115
25769W        W97495   9.601  16.720  11.098
25770W        W97496  16.228   5.249  12.997
25771W        W97497   8.921   1.859  12.127
25772W        W97498   1.063  33.118  11.127
25773W        W97499  12.196  30.423   1.477
25774W        W97500  21.016  15.516   4.285
25775W        W97501   1.633  24.984   0.332
25776W        W97502  17.568   8.844  11.980
25777W        W97503   6.293  42.986  14.750
25778W        W97504  25.112   7.083  13.269
25779W        W97505  12.498  22.949  11.154
25780W        W97506  36.581   8.859  11.875
25781W        W97507  19.585   9.915   1.723
25782W        W97508  43.308  23.591   4.200
25783W        W97509   4.632  38.348   4.211
25784W        W97510  33.946  29.077   3.990
25785W        W97511  33.855   4.940  13.553
25786W        W97512  43.874  34.491  10.879
25787W        W97513  39.776  18.641   4.172
25788W        W97514  29.611  10.599  14.802
25789W        W97515  13.364   5.364   2.257
25790W        W97516   7.858  38.460   1.981
25791W        W97517  20.606   4.065   2.261
25792W        W97518  13.364  36.474  11.308
25793W        W97519  23.631   2.050   4.872
25794W        W97520  17.511  16.645  11.214
25795W        W97521  13.129  19.318   5.017
25796W        W97522   1.537  26.218  13.304
25797W        W97523  39.246  14.214   2.733
25798W        W97524  21.808  14.346   2.979
25799W        W97525  10.571   2.874  11.018
25800W        W97526  14.286  11.222  14.980
25801W        W97527  40.041  39.003   4.908
25802W        W97528  33.398  10.793   3.620
25803W        W97529  20.187   0.410  13.102
25804W        W97530   2.226  14.587  13.346
25805W        W97531  24.700  44.191  13.517
25806W        W97532  13.213   2.228  10.697
25807W        W97533  40.030  42.130  11.107
25808W        W97534  40.992  32.418   1.735
25809W        W97535  42.007  39.301   3.198
25810W        W97536  20.484   7.309   0.960
25811W        W97537  16.118  35.035  14.270
25812W        W97538   8.836  28.100   0.809
25813W        W97539   3.926  29.432  12.418
25814W        W97540   4.497  32.346  12.937
25815W        W97541   8.234  31.887  11.072
25816W        W97542  36.121   2.417   3.338
25817W        W97543   5.193  11.888   4.081
25818W        W97544  22.573  25.221   2.725
25819W        W97545  13.357  15.783  11.892
25820W        W97546  41.011  33.981   0.395
25821W        W97547  28.575  36.232  12.480
25822W        W97548  40.012   2.010  12.061
25823W        W97549  44.275   4.426  10.818
25824W        W97550   8.300   7.804  13.573
25825W        W97551  15.129   6.434   3.146
25826W        W97552  28.192   5.298   1.845
25827W        W97553  27.747  35.457  14.486
25828W        W97554  14.705  43.812  10.938
25829W        W97555   7.473  19.850  14.964
25830W        W97556  24.504  33.858  14.807
25831W        W97557  10.323  36.583   5.535
25832W        W97558  17.225  13.163   4.800
25833W        W97559  37.454  23.260  11.189
25834W        W97560  13.783  22.491   0.437
25835W        W97561  12.574   5.444   1.343
25836W        W97562  35.953  12.128   3.757
25837W        W97563  43.476  10.497  10.374
25838W        W97564   0.489  33.489   3.686
25839W        W97565  14.651  44.431  13.546
25840W        W97566  12.168  38.224   3.620
25841W        W97567  17.723  21.606  11.520
25842W        W97568   9.741  23.537   3.733
25843W        W97569   1.328  29.722   2.185
25844W        W97570  22.703  32.987  10.698
25845W        W97571  30.509  43.775  14.411
25846W        W97572   1.796  43.541  14.790
25847W        W97573  43.576  22.928  14.131
25848W        W97574  22.964  17.089   3.820
25849W        W97575  33.428  35.020  12.109
25850W        W97576   3.724  19.995  14.903
25851W        W97577  39.176  24.640   4.839
25852W        W97578  33.984  42.318   1.374
25853W        W97579  24.136  37.617  11.538
25854W        W97580  25.628  24.005   1.650
25855W        W97581  30.087  39.502  13.473
25856W        W97582  18.938   7.174   1.640
25857W        W97583  35.405  35.044  12.169
25858W        W97584  23.397  34.369   1.456
25859W        W97585  12.360  43.897   0.346
25860W        W97586   6.190  19.560  12.195
25861W        W97587  21.064  36.316  13.886
25862W        W97588  13.905  26.999   2.172
25863W        W97589  17.260   8.456  14.404
25864W        W97590  20.006  32.470  11.053
25865W        W97591  44.427  24.455  10.777
25866W        W97592  43.859  44.023   3.227
25867W        W97593  17.870  36.578   1.466
25868W        W97594  17.598  39.835   3.290
25869W        W97595  18.334  14.749  14.512
25870W        W97596   6.761  23.548  13.374
25871W        W97597  19.297  44.927   1.179
25872W        W97598  30.086  28.782   1.103
25873W        W97599   1.920  10.235   2.332
25874W        W97600  38.068  40.268  14.050
25875W        W97601  25.564  33.423  11.563
25876W        W97602  17.059  11.699   0.782
25877W        W97603  29.600  22.104   1.400
25878W        W97604  44.938   2.241  13.859
25879W        W97605  41.136  28.084   0.352
25880W        W97606  41.266   4.090   4.229
25881W        W97607  38.813  23.584   3.142
25882W        W97608   9.495   5.407  14.660
25883W        W97609  41.359   3.504  12.000
25884W        W97610  15.695  10.806   3.732
25885W        W97611  37.422  44.912   4.562
25886W        W97612   1.488  23.099  11.958
25887W        W97613  40.033  22.210  12.680
25888W        W97614  12.177  31.556  11.836
25889W        W97615  36.369  35.392  11.180
25890W        W97616  10.415  42.162  10.179
25891W        W97617  30.355  43.215   0.229
25892W        W97618  31.798  32.388   0.361
25893W        W97619  38.689  36.756  10.720
25894W        W97620   6.294  17.271  11.156
25895W        W97621  40.908  21.221   2.485
25896W        W97622   7.908  39.950  13.839
25897W        W97623  25.626  36.004  11.145
25898W        W97624   7.794  25.249  13.931
25899W        W97625  26.914  13.623   2.988
25900W        W97626   4.143  25.198  10.910
25901W        W97627   3.872  17.222   1.931
25902W        W97628  13.251  36.071   1.360
25903W        W97629  27.061  44.264   4.729
25904W        W97630  30.557  43.419  11.172
25905W        W97631  28.183   8.118  13.930
25906W        W97632  18.084  28.470   4.073
25907W        W97633  42.589  28.737  12.030
25908W        W97634  13.953  22.844  12.608
25909W        W97635  22.194   5.584  12.880
25910W        W97636  16.350  14.230  10.749
25911W        W97637  37.112  43.363   2.682
25912W        W97638  11.127  20.470   3.735
25913W        W97639   2.741  38.113  10.922
25914W        W97640  18.872  34.452   3.727
25915W        W97641  29.213  34.494  14.220
25916W        W97642  10.704  33.236  14.769
25917W        W97643  35.844  21.764   1.097
25918W        W97644  42.890   7.620   1.843
25919W        W97645  42.566  25.064  13.875
25920W        W97646   8.458  27.215  10.947
25921W        W97647  29.481   2.115  12.925
25922W        W97648  10.379  19.692  11.888
25923W        W97649  27.760  43.510  12.052
25924W        W97650  33.990  25.315  12.013
25925W        W97651  33.633  24.931   1.927
25926W        W97652  27.504  12.766   0.447
25927W        W97653  38.616  21.549  14.289
25928W        W97654   3.579   9.370   4.852
25929W        W97655   1.736   7.340  13.878
25930W        W97656  13.469  16.201  14.452
25931W        W97657  16.042  23.141   4.126
25932W        W97658  25.196  28.676  10.706
25933W        W97659  41.398  42.559   1.682
25934W        W97660  37.914  12.122   4.851
25935W        W97661  17.697  32.095  11.976
25936W        W97662  17.484  12.786  11.122
25937W        W97663  15.579   4.222  10.767
25938W        W97664  33.415  37.383   3.222
25939W        W97665  31.672  19.742  10.654
25940W        W97666  15.735  43.248  13.493
25941W        W97667   7.256  22.807   2.363
25942W        W97668  19.367  22.725   0.789
25943W        W97669  43.930  22.374   3.828
25944W        W97670  42.924   2.521   2.348
25945W        W97671   9.068  43.808  12.375
25946W        W97672  13.333  34.030  14.998
25947W        W97673  12.359  38.635  11.164
25948W        W97674  20.475  20.911  14.668
25949W        W97675  33.339  17.493   4.247
25950W        W97676  21.041   1.306   2.592
25951W        W97677  29.980   9.422  12.588
25952W        W97678  16.019  37.203   2.746
25953W        W97679  19.008  26.269   2.024
25954W        W97680  10.963  27.562  13.605
25955W        W97681   3.383  39.325   1.766
25956W        W97682  26.681  20.975   2.759
25957W        W97683   5.765   1.211  14.815
25958W        W97684   7.424  28.441   2.668
25959W        W97685   5.053  29.034   5.012
25960W        W97686  11.795  13.371  13.385
25961W        W97687  25.122  16.109  14.089
25962W        W97688   7.655  40.098   2.316
25963W        W97689  37.994  30.415  11.132
25964W        W97690  36.015  12.582  12.886
25965W        W97691  38.321  23.024   1.866
25966W        W97692  31.080  42.992  12.907
25967W        W97693  24.131   9.829  12.930
25968W        W97694  19.726  19.647   3.941
25969W        W97695  27.902  19.307  10.244
25970W        W97696  23.137  25.742   3.682
25971W        W97697  31.910   6.079  10.916
25972W        W97698  39.566  19.555  11.554
25973W        W97699  30.698  34.975   1.758
25974W        W97700  20.695  22.555   3.551
25975W        W97701   6.139  41.239  13.473
25976W        W97702   8.302   0.271  14.953
25977W        W97703  22.689  25.729   1.389
25978W        W97704  43.389  40.372   1.679
25979W        W97705  19.721  36.561   0.598
25980W        W97706  26.425   8.330   0.076
25981W        W97707  13.647  18.329   4.253
25982W        W97708   3.433  10.446  12.080
25983W        W97709   0.741  15.043   0.560
25984W        W97710  29.120  41.315  12.979
25985W        W97711  38.890  41.574   2.683
25986W        W97712   4.851  16.583  13.371
25987W        W97713  25.976  12.854  12.985
25988W        W97714   5.385  33.037  13.876
25989W        W97715  18.544  10.558  12.423
25990W        W97716   2.401   0.595   2.816
25991W        W97717   0.028  29.216   4.892
25992W        W97718  12.760  19.622  12.042
25993W        W97719  35.586   0.214  12.608
25994W        W97720  41.910  36.423  13.186
25995W        W97721   2.472   1.708   3.610
25996W        W97722  37.465  11.593  11.918
25997W        W97723   8.776  27.445   3.463
25998W        W97724  26.158  16.631   1.702
25999W        W97725  30.028  13.373  13.904
26000W        W97726   1.262  18.564  12.448
26001W        W97727  23.513   7.273   0.029
26002W        W97728  42.960   6.841  10.557
26003W        W97729  10.260  34.094  13.158
26004W        W97730  28.402  32.525  12.808
26005W        W97731  41.784  14.266  10.199
26006W        W97732  36.332   3.243   3.758
26007W        W97733  42.482   8.980  13.446
26008W        W97734  19.927   8.361   1.045
26009W        W97735   8.033   6.523  12.013
26010W        W97736  15.670  29.653   3.821
26011W        W97737  43.292   4.529  12.099
26012W        W97738  44.974  32.642   2.000
26013W        W97739  30.484  34.926   1.284
26014W        W97740  27.584  37.832   1.864
26015W        W97741  27.042   1.490  10.936
26016W        W97742   9.866   9.054   4.199
26017W        W97743  29.574  27.515   2.778
26018W        W97744  22.209  30.465   0.812
26019W        W97745   2.126  15.616   3.232
26020W        W97746  44.315  28.120   0.457
26021W        W97747  23.789  21.716  13.918
26022W        W97748  35.733  40.338   3.679
26023W        W97749  18.837  19.459  12.358
26024W        W97750   7.893  32.112  14.940
26025W        W97751  17.974   7.954   0.980
26026W        W97752   7.416  23.031   0.017
26027W        W97753  38.771  29.496  14.038
26028W        W97754  36.114  33.109  12.710
26029W        W97755  18.782  20.803   1.997
26030W        W97756  30.304   8.885   4.829
26031W        W97757  19.674  29.664  11.104
26032W        W97758  44.890  12.591   3.815
26033W        W97759  13.427  25.691  13.258
26034W        W97760   9.285   9.514   2.651
26035W        W97761  37.436  14.583   2.781
26036W        W97762  26.062  44.505   2.751
26037W        W97763  27.165  27.960   1.200
26038W        W97764  12.771   8.961  11.550
26039W        W97765  37.297  20.211  13.458
26040W        W97766  24.759  28.639  14.960
26041W        W97767  26.612  19.550  13.339
26042W        W97768   8.023  33.794   2.867
26043W        W97769  29.986  39.186   4.785
26044W        W97770  42.914  44.211  11.144
26045W        W97771  23.049  11.537  11.562
26046W        W97772  39.584   4.882   1.715
26047W        W97773  40.097  28.991   2.814
26048W        W97774  38.166  35.602   4.329
26049W        W97775  29.571  35.397   2.025
26050W        W97776   3.341  27.982  12.995
26051W        W97777  20.745  19.802   4.091
26052W        W97778  44.924  14.274   2.182
26053W        W97779  22.976  33.778   2.628
26054W        W97780   6.960  40.047  12.467
26055W        W97781  14.560  15.663   0.941
26056W        W97782  43.896  26.587   1.791
26057W        W97783  18.333   6.721  11.643
26058W        W97784   3.671  19.590   3.529
26059W        W97785  25.354   6.342  12.266
26060W        W97786  13.735  30.356  11.971
26061W        W97787   1.719  26.453   0.955
26062W        W97788  17.321   9.615  12.866
26063W        W97789  26.924   9.953  13.020
26064W        W97790  21.933  40.460   4.320
26065W        W97791  44.198   5.488   2.095
26066W        W97792  21.235  24.508  11.499
26067W        W97793  23.730  19.467  14.881
26068W        W97794  24.124   4.257   3.718
26069W        W97795  24.514  30.065   1.219
26070W        W97796  14.215  36.821  13.781
26071W        W97797   2.677  13.637   4.337
26072W        W97798  40.597  15.507   1.814
26073W        W97799  36.987  44.882   2.804
26074W        W97800  31.354  14.339  12.927
26075W        W97801  34.010   2.248  14.271
26076W        W97802  22.523  10.699  12.290
26077W        W97803  25.003  19.365   1.351
26078W        W97804   0.247   6.512  13.489
26079W        W97805   2.303  24.191   4.202
26080W        W97806  34.571  21.841   0.798
26081W        W97807  20.979  31.071  11.038
26082W        W97808  38.633  16.537   1.950
26083W        W97809  20.218   0.370  12.031
26084W        W97810  24.131   8.992   0.751
26085W        W97811  42.877  36.468   3.006
26086W        W97812   1.194  27.531  12.854
26087W        W97813  42.682  40.482   2.866
26088W        W97814  31.735  32.927  13.397
26089W        W97815  15.031  15.229   2.750
26090W        W97816  24.775  25.003  14.861
26091W        W97817  14.802  23.791  11.112
26092W        W97818  22.296  28.936   1.723
26093W        W97819  28.390   0.273   3.695
26094W        W97820  15.670  12.384  13.501
26095W        W97821  27.912  41.433   4.874
26096W        W97822  33.547  36.926  12.977
26097W        W97823  22.107   9.826   4.794
26098W        W97824  29.445  20.446   4.669
26099W        W97825  38.743  13.661   4.089
26100W        W97826  24.766  16.722   1.732
26101W        W97827  33.560  29.942  12.947
26102W        W97828  38.394   1.417  11.720
26103W        W97829  26.055  37.099   1.451
26104W        W97830  36.133  13.985   2.647
26105W        W97831  25.000  33.625  13.608
26106W        W97832  32.515  29.666   1.626
26107W        W97833  18.981  25.725   2.019
26108W        W97834  13.454  29.438   1.365
26109W        W97835  41.426   5.257  13.383
26110W        W97836   6.218   1.001  12.123
26111W        W97837  20.706   3.802  11.140
26112W        W97838  36.001  37.510   4.138
26113W        W97839   3.292  12.160   3.722
26114W        W97840   2.540  20.647  11.736
26115W        W97841  13.084  30.794  14.624
26116W        W97842   3.532  24.621   1.489
26117W        W97843  20.238  17.146   3.105
26118W        W97844   4.735   2.175   1.022
26119W        W97845  43.407  25.002  14.282
26120W        W97846  27.172  41.778   0.874
26121W        W97847  28.155   9.762   4.024
26122W        W97848  44.752  14.946   2.790
26123W        W97849  34.488  16.157   4.112
26124W        W97850   5.502  16.967   5.299
26125W        W97851   2.802  33.909   4.446
26126W        W97852  34.986  37.830  11.826
26127W        W97853  12.204  36.128  10.436
26128W        W97854   1.351  33.432   2.855
26129W        W97855  42.528  42.843  13.470
26130W        W97856  16.767  28.995  10.944
26131W        W97857  27.496  39.568  11.057
26132W        W97858   0.770   0.463   0.709
26133W        W97859  16.447  10.792   0.344
26134W        W97860  33.036  18.986   3.358
26135W        W97861  19.522   6.327  13.492
26136W        W97862   6.826  36.301   3.419
26137W        W97863  20.394  28.657  13.039
26138W        W97864   6.747  40.720   1.090
26139W        W97865  17.306  12.234   1.268
26140W        W97866  41.784  19.028   4.568
26141W        W97867   4.834  32.929   2.332
26142W        W97868  41.932  41.099   1.337
26143W        W97869  15.132  23.029   0.707
26144W        W97870  20.616   7.793   4.665
26145W        W97871  17.279   0.102  12.284
26146W        W97872   4.417   9.237  12.934
26147W        W97873  39.942  21.823  11.719
26148W        W97874  14.768  12.214  14.951
26149W        W97875  30.949  28.424   1.029
26150W        W97876  43.181  39.251   4.165
26151W        W97877  39.608  42.425  13.008
26152W        W97878  38.610  43.454  12.982
26153W        W97879  35.537   7.848   4.561
26154W        W97880  35.005  19.575   0.060
26155W        W97881  40.163  41.836   3.690
26156W        W97882   2.692   2.414   0.730
26157W        W97883   0.332  38.549  11.197
26158W        W97884   0.910  36.314   3.439
26159W        W97885  41.977   3.370   3.577
26160W        W97886  25.549  29.827  13.413
26161W        W97887   3.458   1.279  14.784
26162W        W97888  44.414   9.660   2.109
26163W        W97889  40.973  39.005  13.282
26164W        W97890  42.456  26.607   3.890
26165W        W97891   6.711  26.180   4.391
26166W        W97892  26.178   1.129  11.361
26167W        W97893  35.889  10.825   1.003
26168W        W97894  43.847  34.643   1.891
26169W        W97895  43.316  11.781   3.339
26170W        W97896  34.960  27.196  11.882
26171W        W97897   6.247  30.902   0.075
26172W        W97898  22.627  12.629   4.555
26173W        W97899  12.809  29.626   2.826
26174W        W97900   3.362  27.420  12.885
26175W        W97901  32.494  30.867  11.410
26176W        W97902  18.725  24.419   3.237
26177W        W97903  31.588  16.615  13.921
26178W        W97904  40.364  16.544   2.335
26179W        W97905  41.330  16.199  10.675
26180W        W97906  33.530  36.385  14.168
26181W        W97907  13.778  11.074  14.979
26182W        W97908  11.633  38.191   3.616
26183W        W97909  39.824   9.210  14.725
26184W        W97910   9.741   8.259   1.145
26185W        W97911  35.069   9.732  12.186
26186W        W97912   5.936  11.655   3.659
26187W        W97913   5.034  11.256   2.181
26188W        W97914  35.022  37.911   1.837
26189W        W97915  27.369  20.890   1.768
26190W        W97916  39.650   6.031   0.795
26191W        W97917  10.796   4.710  13.860
26192W        W97918   3.961  21.420   2.202
26193W        W97919   3.890  40.424  12.629
26194W        W97920  22.573  41.265   2.867
26195W        W97921  13.074  29.040   1.270
26196W        W97922  33.082  34.340   4.248
26197W        W97923  21.502  27.045   4.905
26198W        W97924   9.252  12.632   2.823
26199W        W97925   7.571   1.970  10.681
26200W        W97926  24.618  33.180   0.474
26201W        W97927  21.564  22.271  14.923
26202W        W97928  26.066  44.851  14.796
26203W        W97929  23.328   5.675  11.167
26204W        W97930  30.442  22.459   0.972
26205W        W97931  14.691  34.679  13.891
26206W        W97932  31.080  25.682   0.702
26207W        W97933  38.845  23.996   2.775
26208W        W97934  38.765  43.907   3.924
26209W        W97935  20.521  34.659  11.867
26210W        W97936  18.502   3.709   0.377
26211W        W97937   9.882  27.467   2.646
26212W        W97938  41.741  31.846   2.338
26213W        W97939  38.854  43.440  12.492
26214W        W97940  31.807  43.073   3.848
26215W        W97941   3.187  20.664  13.614
26216W        W97942  27.419   1.990  12.001
26217W        W97943  30.732  33.610  14.385
26218W        W97944  36.394   1.154  13.859
26219W        W97945  38.914   4.137  12.987
26220W        W97946  23.615  38.853   1.864
26221W        W97947  16.596   7.287   0.732
26222W        W97948  14.398  18.190  12.217
26223W        W97949  41.414  19.222   3.723
26224W        W97950  34.436  25.665  10.761
26225W        W97951  31.365  36.879   4.765
26226W        W97952   0.634  43.043  12.045
26227W        W97953  42.925  12.900  10.624
26228W        W97954   4.641  17.116   3.560
26229W        W97955   5.762  41.295   2.755
26230W        W97956  34.143  35.447   0.924
26231W        W97957  19.783   9.794   4.652
26232W        W97958  26.952   3.392   0.214
26233W        W97959  42.584  43.793   3.354
26234W        W97960  35.044   0.758  11.940
26235W        W97961  43.543  17.996   3.248
26236W        W97962  30.452  21.805   3.678
26237W        W97963  43.706  36.969   0.698
26238W        W97964  38.811  33.301   2.676
26239W        W97965  37.554   4.390  13.592
26240W        W97966  39.384  26.908   1.768
26241W        W97967  12.627  24.171  10.702
26242W        W97968  19.969  39.986   4.610
26243W        W97969   6.406  38.968   3.357
26244W        W97970   0.916  25.250  13.372
26245W        W97971  26.937  24.879  12.892
26246W        W97972  34.395   5.281  13.968
26247W        W97973  38.416  28.739  14.704
26248W        W97974  22.583  27.124  13.952
26249W        W97975   6.402  25.779  12.511
26250W        W97976   4.051  40.617  12.184
26251W        W97977  13.647  38.808  13.131
26252W        W97978   2.238  44.799   3.903
26253W        W97979  10.063  23.110   0.278
26254W        W97980  23.157  25.138  13.872
26255W        W97981  22.066  16.118  13.303
26256W        W97982   7.170   3.214   4.524
26257W        W97983  28.558   2.657   1.243
26258W        W97984  19.257  24.110   2.901
26259W        W97985   3.683  35.108  12.597
26260W        W97986  29.619  25.150  14.365
26261W        W97987   4.438   9.828   5.085
26262W        W97988  29.123  26.375  13.606
26263W        W97989  32.934  35.438   1.280
26264W        W97990  21.056  26.737  13.300
26265W        W97991  19.774  39.168   4.676
26266W        W97992  10.262  25.265  11.110
26267W        W97993  25.029   6.102  11.270
26268W        W97994  37.113  42.203  14.902
26269W        W97995  15.045  15.675  11.526
26270W        W97996  38.025  13.661  13.899
26271W        W97997  27.629  40.980   3.632
26272W        W97998  14.320   3.585  13.129
26273W        W97999  38.124  30.241  13.835
26274W        W98000   1.231  29.091   1.282
26275W        W98001  39.027  34.331   1.845
26276W        W98002  35.539  15.515   2.260
26277W        W98003  40.312  36.087   0.188
26278W        W98004  41.395  40.535  14.381
26279W        W98005  34.977  33.120  13.933
26280W        W98006  32.315  44.906   1.242
26281W        W98007  32.109  21.017  14.825
26282W        W98008  10.852   2.957   3.401
26283W        W98009   7.479  30.515  11.701
26284W        W98010  22.937  27.530  14.910
26285W        W98011  25.219  42.726  11.466
26286W        W98012   1.240   2.869   2.204
26287W        W98013  22.749  26.528   0.260
26288W        W98014  10.383   3.674   1.882
26289W        W98015  17.579   5.713   2.425
26290W        W98016  19.460  44.519  14.531
26291W        W98017  38.899  17.097  12.430
26292W        W98018   0.315  27.725  13.361
26293W        W98019  37.053  32.156   1.960
26294W        W98020  19.225  32.622  12.539
26295W        W98021   3.926  35.908   0.686
26296W        W98022  37.271  16.040   0.758
26297W        W98023   0.214   4.724   3.857
26298W        W98024   9.673   7.910   0.421
26299W        W98025  32.551   3.129   2.911
26300W        W98026  37.354   3.439  11.940
26301W        W98027   6.339  16.076   3.142
26302W        W98028  10.797  14.669  11.716
26303W        W98029   8.366  31.365   3.552
26304W        W98030  35.130   7.212   1.700
26305W        W98031   2.574  26.074   3.580
26306W        W98032  21.153   9.810   4.902
26307W        W98033  17.558  35.664   2.667
26308W        W98034  31.152  14.900  12.622
26309W        W98035  24.972   2.330   3.625
26310W        W98036  10.289  25.252   2.716
26311W        W98037  20.297  10.776  14.591
26312W        W98038  23.978  40.919  10.942
26313W        W98039  31.858  36.515  10.968
26314W        W98040  23.274  12.744  10.413
26315W        W98041  24.011  44.719   2.767
26316W        W98042  23.116  24.554   2.516
26317W        W98043   9.461  18.173   1.392
26318W        W98044  34.342   4.709   1.694
26319W        W98045   5.769  21.250   1.843
26320W        W98046  23.712  41.374  11.490
26321W        W98047  15.037   9.956  12.112
26322W        W98048   2.400  19.571  11.372
26323W        W98049  24.587   8.091   2.409
26324W        W98050  36.783  34.918   2.179
26325W        W98051   2.262  12.035  13.832
26326W        W98052  15.134  19.004  13.788
26327W        W98053  29.227  40.038   0.452
26328W        W98054  40.241  11.188  10.689
26329W        W98055  30.600  14.017   0.006
26330W        W98056  31.213  27.510   4.749
26331W        W98057  15.894  16.565   2.820
26332W        W98058   6.378  35.310   4.089
26333W        W98059  20.537  28.232  13.291
26334W        W98060  23.748  29.977   4.239
26335W        W98061   6.603  35.833   3.228
26336W        W98062  33.399  23.971  12.938
26337W        W98063  33.926  35.614   2.710
26338W        W98064  18.203   5.835  12.104
26339W        W98065  28.720  28.066   0.824
26340W        W98066  31.203  28.517  12.860
26341W        W98067  39.452  26.403   1.356
26342W        W98068   3.544  26.459   1.064
26343W        W98069   1.688  38.036   2.299
26344W        W98070  34.979  27.771   4.464
26345W        W98071  35.994  29.129  11.238
26346W        W98072   2.929  44.966  11.927
26347W        W98073   8.920   8.276   2.334
26348W        W98074  30.281  17.862  10.454
26349W        W98075   5.901  20.796  13.288
26350W        W98076  32.559  44.111   1.617
26351W        W98077  23.528  34.797  14.207
26352W        W98078  40.638  22.820  11.969
26353W        W98079   3.148  33.212   3.219
26354W        W98080  19.076  33.364   2.382
26355W        W98081   5.589  15.663  13.824
26356W        W98082   5.376  29.660   2.830
26357W        W98083   7.340  36.404   1.075
26358W        W98084  21.277   7.372  11.606
26359W        W98085  44.553  32.338  10.466
26360W        W98086  38.897   1.374   5.006
26361W        W98087   9.171  36.651   3.650
26362W        W98088  34.574  24.668   2.660
26363W        W98089  28.925  25.464   4.356
26364W        W98090   4.150  38.491   4.437
26365W        W98091  15.617  32.994   0.899
26366W        W98092  19.150  11.371   3.367
26367W        W98093  15.015  17.738  11.836
26368W        W98094  23.685  27.398   0.654
26369W        W98095   7.752  31.684  12.880
26370W        W98096   1.760   9.582  11.814
26371W        W98097  42.086   6.635  14.681
26372W        W98098  29.419  35.373  12.993
26373W        W98099  29.737  27.759   4.975
26374W        W98100   4.283  32.535   3.050
26375W        W98101   5.936   5.430   1.873
26376W        W98102  19.291  26.944  14.693
26377W        W98103  19.960   1.540  11.273
26378W        W98104  39.014  32.678   3.695
26379W        W98105  10.154  26.262   4.562
26380W        W98106  12.754  30.187  14.571
26381W        W98107  25.480  39.576   4.560
26382W        W98108  36.100  22.168  13.727
26383W        W98109  34.523  21.467  10.248
26384W        W98110  23.535   4.840   2.662
26385W        W98111  14.669   7.203   3.835
26386W        W98112  22.702  17.644  13.085
26387W        W98113   7.579  11.651   5.065
26388W        W98114  44.373  23.339   3.074
26389W        W98115  24.947   9.022  10.976
26390W        W98116  31.171  11.538  14.166
26391W        W98117  27.193  18.169   4.801
26392W        W98118  30.250  43.338  14.254
26393W        W98119  11.835  24.252   1.783
26394W        W98120  17.829   8.830   4.316
26395W        W98121  21.993   5.350   4.701
26396W        W98122  33.163  41.520   1.889
26397W        W98123  41.525   5.266  14.622
26398W        W98124  42.499  13.092  14.277
26399W        W98125  10.977  24.977  10.601
26400W        W98126  35.696  41.302   0.901
26401W        W98127   1.951  24.522  11.915
26402W        W98128  25.504  28.946  12.434
26403W        W98129   0.145  19.295   1.429
26404W        W98130  17.736  29.186   4.397
26405W        W98131  43.762  21.266  14.508
26406W        W98132   5.701  23.145   3.534
26407W        W98133  22.005   7.297   0.512
26408W        W98134  39.881  35.087  14.025
26409W        W98135  17.027  11.894   5.053
26410W        W98136  41.946  20.007   4.612
26411W        W98137  26.068  13.598   0.042
26412W        W98138  37.045  10.155   4.181
26413W        W98139   3.503  26.671  13.376
26414W        W98140  30.123   7.467   1.638
26415W        W98141  31.453  19.501  11.483
26416W        W98142  22.089   4.229   1.316
26417W        W98143   1.309  20.679   2.367
26418W        W98144  13.683   7.373   3.160
26419W        W98145   1.339  12.621  10.752
26420W        W98146  28.821  35.163   2.433
26421W        W98147   5.437  28.458  14.554
26422W        W98148  15.175  23.439   2.578
26423W        W98149  30.669  11.616   4.252
26424W        W98150  30.207  11.827  13.980
26425W        W98151  28.636   0.776  14.279
26426W        W98152  18.138  12.035  14.756
26427W        W98153  10.189  11.678   0.350
26428W        W98154  40.513   7.749  13.593
26429W        W98155   8.139  42.517  13.604
26430W        W98156  23.167  21.175   0.884
26431W        W98157  28.664   3.216   3.818
26432W        W98158  23.470   2.909   1.070
26433W        W98159  35.207   9.032   4.517
26434W        W98160  37.649   6.868   1.795
26435W        W98161  33.673   8.412   3.208
26436W        W98162  29.713  14.403  11.227
26437W        W98163  28.687   0.234  12.887
26438W        W98164  30.813  30.976  13.321
26439W        W98165  13.191  24.952   0.032
26440W        W98166  28.579  35.810   4.697
26441W        W98167   9.739  28.472   2.549
26442W        W98168   8.213  41.751  13.947
26443W        W98169  29.197  39.086  10.299
26444W        W98170  35.542  29.247  11.549
26445W        W98171  17.770  17.389   0.482
26446W        W98172   0.843   1.347   4.650
26447W        W98173  39.756  31.156  14.472
26448W        W98174  17.464  39.014  10.128
26449W        W98175  36.326  44.335   3.103
26450W        W98176  30.581  14.018   2.119
26451W        W98177  14.329  25.011   1.305
26452W        W98178  38.859  18.128   1.514
26453W        W98179   1.429   9.659   1.882
26454W        W98180  38.746  19.524   1.411
26455W        W98181  40.349   6.074  10.260
26456W        W98182  16.578  15.266   3.820
26457W        W98183  44.198  15.812  12.028
26458W        W98184   9.076  32.695  12.014
26459W        W98185  30.961   3.274  11.445
26460W        W98186   8.676  40.721   3.422
26461W        W98187  32.353  36.594  14.944
26462W        W98188  39.814  38.616   3.253
26463W        W98189  33.053  19.806  11.633
26464W        W98190   9.808   4.722   4.805
26465W        W98191  32.038  16.787   0.772
26466W        W98192  35.592  23.716  14.895
26467W        W98193  24.703  19.533   0.931
26468W        W98194   5.953  36.607  12.293
26469W        W98195  39.832  37.610   3.327
26470W        W98196  24.181  36.440   3.670
26471W        W98197  12.697  19.100  13.152
26472W        W98198  23.092  31.541  11.731
26473W        W98199  14.732  19.585   1.206
26474W        W98200  14.092  10.932   3.185
26475W        W98201  20.663  40.338   0.842
26476W        W98202  41.774  27.006  11.498
26477W        W98203  37.574  39.095   2.847
26478W        W98204   5.107  16.704  14.158
26479W        W98205  25.976  19.021   4.211
26480W        W98206  14.726  23.269  13.872
26481W        W98207  32.099  41.001  12.443
26482W        W98208  23.779   1.553   0.238
26483W        W98209  39.913  11.171  12.548
26484W        W98210  30.133   8.313   1.389
26485W        W98211  25.035  10.419   0.414
26486W        W98212  32.007  43.818   2.685
26487W        W98213  23.250  20.715  11.800
26488W        W98214  34.656  27.753   4.057
26489W        W98215  15.802  10.844  10.559
26490W        W98216  37.363  36.137   4.127
26491W        W98217  35.148   6.117  11.941
26492W        W98218  17.811  28.094  12.407
26493W        W98219  14.165  31.647   4.461
26494W        W98220  22.696  39.169   2.954
26495W        W98221  42.354  43.261  11.435
26496W        W98222  27.143  14.032  13.871
26497W        W98223  42.552  42.755  14.900
26498W        W98224   9.271   5.408   3.743
26499W        W98225  11.708  10.438  10.165
26500W        W98226  13.322  18.238  14.441
26501W        W98227  43.782  34.852  12.159
26502W        W98228  37.562  38.815   0.388
26503W        W98229  36.424  38.587  14.722
26504W        W98230  29.408   4.271   3.661
26505W        W98231  31.097  34.736  12.868
26506W        W98232  31.429  25.404  14.887
26507W        W98233  30.787  44.210  14.310
26508W        W98234  22.691  21.318   9.731
26509W        W98235  37.389  20.197   4.283
26510W        W98236  18.121  42.233  14.035
26511W        W98237   8.564  44.820   0.003
26512W        W98238   7.776  19.897   4.088
26513W        W98239  35.214   1.045   4.946
26514W        W98240  26.688  35.788   1.374
26515W        W98241  28.022  29.571  10.665
26516W        W98242  41.292  22.228  14.441
26517W        W98243  19.229  34.109  13.254
26518W        W98244  25.913   4.972  13.987
26519W        W98245  29.760   1.661  12.934
26520W        W98246  19.463  32.304   3.765
26521W        W98247  12.379   2.467  14.030
26522W        W98248  38.135   7.793  11.783
26523W        W98249  43.311   2.857   1.187
26524W        W98250  25.027  42.119  12.381
26525W        W98251  23.050  16.337   0.864
26526W        W98252  34.532  33.383  13.872
26527W        W98253  10.682   9.190   1.344
26528W        W98254   7.907  30.851  11.621
26529W        W98255  24.435  12.869  13.079
26530W        W98256  23.135  36.533   4.620
26531W        W98257  37.901  24.088   1.775
26532W        W98258  25.131  41.797   1.983
26533W        W98259  31.177  39.739   5.046
26534W        W98260   9.663  38.520   3.752
26535W        W98261   4.041  38.861  10.062
26536W        W98262  35.372  10.710  14.477
26537W        W98263   2.287   2.319  11.511
26538W        W98264   6.575  15.992   3.626
26539W        W98265  34.576  38.057  12.614
26540W        W98266   7.795  43.815  11.641
26541W        W98267   4.945  30.912  12.880
26542W        W98268  11.788  18.040   2.244
26543W        W98269  43.253  34.496  14.227
26544W        W98270  10.400  41.723   2.338
26545W        W98271  36.080  40.710  12.464
26546W        W98272   3.974  21.157   1.354
26547W        W98273   5.409   1.037   0.350
26548W        W98274  17.853  28.990   3.452
26549W        W98275  36.570  13.315   0.258
26550W        W98276  20.265   7.205   4.643
26551W        W98277  41.109  17.055   2.652
26552W        W98278  17.625  29.984  11.050
26553W        W98279   2.886  12.397  10.691
26554W        W98280  27.138   8.970   4.865
26555W        W98281  22.528  31.645   3.148
26556W        W98282  23.827  17.878   4.762
26557W        W98283  37.880  11.307  12.804
26558W        W98284  34.375   2.356  12.921
26559W        W98285  17.518  25.119   3.849
26560W        W98286  12.589  12.275   3.682
26561W        W98287   0.783   9.592  12.639
26562W        W98288  41.934  19.720   2.624
26563W        W98289  36.634  33.401  12.017
26564W        W98290  27.220  15.761  13.472
26565W        W98291  41.731  44.518  13.593
26566W        W98292  34.354  17.290  14.383
26567W        W98293  15.777  15.696  12.136
26568W        W98294  27.928   8.868   4.616
26569W        W98295  23.426  40.755   1.205
26570W        W98296  42.032  16.553  11.040
26571W        W98297   5.144  30.877   4.862
26572W        W98298  44.429  34.946  14.372
26573W        W98299  40.999   0.795   0.748
26574W        W98300  35.506  44.015  11.542
26575W        W98301  12.226   6.101   2.261
26576W        W98302   2.270  34.563  11.121
26577W        W98303   6.833  42.964   1.825
26578W        W98304  38.971  10.199   2.252
26579W        W98305  27.964   2.915   2.233
26580W        W98306  31.110   1.932  13.898
26581W        W98307  41.414   2.715  12.506
26582W        W98308  10.336  15.119   2.658
26583W        W98309   2.468  30.921  12.359
26584W        W98310   3.945   8.933  13.609
26585W        W98311  25.603  12.445  12.143
26586W        W98312  41.018  24.706   1.427
26587W        W98313  24.371  41.896  13.600
26588W        W98314  37.674  42.139  14.187
26589W        W98315  32.530   6.148   3.766
26590W        W98316  44.054  40.329  13.345
26591W        W98317  16.788   9.131   0.920
26592W        W98318  15.297  17.267  12.533
26593W        W98319  31.095  23.709  13.876
26594W        W98320   6.919  17.640   0.773
26595W        W98321  25.248   5.430  12.333
26596W        W98322  40.975  37.898  14.238
26597W        W98323  36.486   8.647  13.227
26598W        W98324   5.745   2.396   3.163
26599W        W98325  30.985  11.041   1.660
26600W        W98326  30.258  32.027   3.910
26601W        W98327  42.540  18.634   1.199
26602W        W98328  13.151  12.163  12.467
26603W        W98329  13.636   1.591   4.634
26604W        W98330  38.155  23.971  10.967
26605W        W98331  29.009   6.138  14.928
26606W        W98332  34.079  13.315   0.496
26607W        W98333  21.142  14.859   3.784
26608W        W98334  29.663  15.561   3.580
26609W        W98335  16.480  32.902  12.447
26610W        W98336  18.619  25.671   3.676
26611W        W98337  30.517  23.271   2.611
26612W        W98338  27.899  38.936  14.915
26613W        W98339  32.375  34.507  11.449
26614W        W98340  35.134   2.709  14.827
26615W        W98341   1.971  16.034   2.387
26616W        W98342   6.832   7.214  14.393
26617W        W98343  18.797  18.301   3.261
26618W        W98344  36.736   3.680  11.343
26619W        W98345  14.543   5.786   1.528
26620W        W98346  36.048  18.120  12.439
26621W        W98347  31.327   8.149   3.749
26622W        W98348  14.463   8.582   3.258
26623W        W98349  37.542  43.893   4.526
26624W        W98350   7.864  22.506  12.550
26625W        W98351  30.681  25.096   2.347
26626W        W98352  14.011  10.410   3.364
26627W        W98353  20.505   7.149   3.840
26628W        W98354  21.074   1.478   0.767
26629W        W98355  19.381  42.030  10.950
26630W        W98356  32.944  16.413  12.582
26631W        W98357  23.669  37.929  14.375
26632W        W98358  22.163  23.793   1.003
26633W        W98359  25.003  17.210  13.238
26634W        W98360  20.525  27.234  13.410
26635W        W98361  23.747  16.753   1.762
26636W        W98362  33.650  23.638   5.050
26637W        W98363  33.209   9.623  11.214
26638W        W98364  18.083  40.123  10.164
26639W        W98365  26.963  33.127   3.226
26640W        W98366  39.187  10.780   1.377
26641W        W98367  43.987  22.103   4.279
26642W        W98368  32.533  37.392   1.111
26643W        W98369  30.972  41.309  10.973
26644W        W98370   8.364  28.138   0.591
26645W        W98371  38.780  41.897  12.172
26646W        W98372  25.224   4.417  10.628
26647W        W98373  40.086  39.226  14.825
26648W        W98374  21.535  44.432  14.529
26649W        W98375   5.021  10.352   3.281
26650W        W98376  10.577  34.035   1.320
26651W        W98377  32.496   2.208  12.600
26652W        W98378   4.969  33.807   1.273
26653W        W98379  16.067  43.887  13.930
26654W        W98380  34.364  18.609   3.898
26655W        W98381  35.569  18.066   3.285
26656W        W98382   4.505  11.787  12.364
26657W        W98383  35.446  40.408  13.865
26658W        W98384  44.178  18.561   3.580
26659W        W98385  33.811  22.476  12.714
26660W        W98386  43.470   4.155  11.793
26661W        W98387  28.113   9.715   2.856
26662W        W98388  32.849  20.614   3.602
26663W        W98389  34.609   5.573   2.866
26664W        W98390  42.871  21.221  11.053
26665W        W98391  18.282  26.020  11.670
26666W        W98392   5.749  40.039  14.826
26667W        W98393   7.556  14.587  12.797
26668W        W98394   1.867  40.240   4.051
26669W        W98395   0.549  26.775  14.330
26670W        W98396  35.140   7.981   3.703
26671W        W98397  33.166  13.806   0.765
26672W        W98398   4.472  33.750  11.109
26673W        W98399  18.553  10.954   0.072
26674W        W98400  28.501  21.775  13.543
26675W        W98401   3.335  11.260   4.863
26676W        W98402  16.291   3.783   3.420
26677W        W98403  35.975  28.468  10.721
26678W        W98404  15.077  20.164   2.395
26679W        W98405  26.731  29.675   4.539
26680W        W98406  34.309  14.075  13.327
26681W        W98407  29.158  10.968   2.711
26682W        W98408   4.706  23.667   3.275
26683W        W98409  27.184  22.468   0.975
26684W        W98410  22.743  23.189   4.084
26685W        W98411  23.278  36.450   3.631
26686W        W98412  13.140  16.761   3.678
26687W        W98413  21.539  30.341  10.643
26688W        W98414  34.407   5.325  11.476
26689W        W98415  26.773  14.902   4.046
26690W        W98416  20.373  13.750  10.693
26691W        W98417   3.204   5.228   0.374
26692W        W98418  29.641  31.680   2.796
26693W        W98419  31.000  25.637   1.774
26694W        W98420  12.510  18.714  12.855
26695W        W98421  26.215   0.320   0.567
26696W        W98422  43.010  21.233  14.579
26697W        W98423  40.825  40.648   3.667
26698W        W98424   3.776  13.796   4.892
26699W        W98425  22.572  13.680   2.445
26700W        W98426  42.485  17.225   4.288
26701W        W98427  18.857  26.701   1.778
26702W        W98428   3.595  14.813  10.432
26703W        W98429   1.575  38.126  11.631
26704W        W98430  30.379  32.441   0.082
26705W        W98431  22.513   8.866  11.856
26706W        W98432  26.148  18.280   4.599
26707W        W98433  27.769  39.426  10.646
26708W        W98434  42.897  39.297  13.394
26709W        W98435  18.147  41.701  14.872
26710W        W98436  14.405  12.732  12.308
26711W        W98437  34.005  13.057   3.371
26712W        W98438  19.985  36.990  11.383
26713W        W98439  25.233  39.526   0.372
26714W        W98440  12.316  19.250  13.458
26715W        W98441  11.322  31.595  10.951
26716W        W98442   8.369  29.615  11.089
26717W        W98443  25.903   1.170  13.911
26718W        W98444  12.137  40.496  13.603
26719W        W98445  14.129   5.069   1.418
26720W        W98446  37.966   4.735  14.715
26721W        W98447  14.157  10.731  12.305
26722W        W98448  35.550  34.404  13.906
26723W        W98449  41.818   7.608  12.980
26724W        W98450   1.793  16.985   0.088
26725W        W98451  12.537  25.975   3.152
26726W        W98452  42.359  24.272  11.896
26727W        W98453  39.640   5.390  11.493
26728W        W98454   7.205  15.636  10.487
26729W        W98455  13.725  33.083   0.921
26730W        W98456  36.604  38.991   1.842
26731W        W98457   3.436   9.101  13.714
26732W        W98458  42.297  37.499   3.198
26733W        W98459  20.080  39.676   1.927
26734W        W98460  39.528  40.088   1.323
26735W        W98461  13.339   8.305  11.234
26736W        W98462   8.524   2.428   4.189
26737W        W98463  32.569  25.554   0.972
26738W        W98464  35.707  37.666   1.369
26739W        W98465  32.978  25.941  11.199
26740W        W98466  13.239  15.205   3.654
26741W        W98467  41.251  41.372  11.195
26742W        W98468  41.331  43.579  13.551
26743W        W98469  33.367  40.389   3.946
26744W        W98470  21.099  16.726  10.656
26745W        W98471  12.879  30.999  13.772
26746W        W98472  32.423  18.685   2.773
26747W        W98473  15.738  39.503  11.811
26748W        W98474  33.850  13.824   2.990
26749W        W98475  29.861  17.896  13.515
26750W        W98476  43.687   1.850   2.163
26751W        W98477  37.821  33.369  10.237
26752W        W98478  32.216   5.321   1.274
26753W        W98479  20.787  32.053   3.370
26754W        W98480   0.525  20.017   0.733
26755W        W98481  11.469   6.352   4.388
26756W        W98482  17.324   3.449  13.887
26757W        W98483  18.520  34.520  13.484
26758W        W98484   3.428  13.542   2.601
26759W        W98485  41.174   3.424  11.092
26760W        W98486   8.876  26.577   2.706
26761W        W98487  23.746  40.548   0.837
26762W        W98488  20.599   7.470  12.574
26763W        W98489  27.698  14.713  11.607
26764W        W98490  29.255  30.325   3.768
26765W        W98491  30.528  37.232   4.232
26766W        W98492  25.585   1.739   4.583
26767W        W98493  14.193  40.320  14.289
26768W        W98494  35.307  20.767  14.485
26769W        W98495  32.404  16.415   1.319
26770W        W98496  16.278   2.298  13.590
26771W        W98497  40.950  19.416   1.775
26772W        W98498  35.084  29.918  13.993
26773W        W98499  30.219  24.269   3.731
26774W        W98500  41.241  24.445   1.025
26775W        W98501  14.895  17.367  13.483
26776W        W98502  33.105  30.243   0.965
26777W        W98503  21.641  29.354  11.563
26778W        W98504   0.848  12.431  14.135
26779W        W98505  36.124  24.049  13.755
26780W        W98506   3.982  20.490  11.719
26781W        W98507  26.854  19.495   1.899
26782W        W98508  11.732   6.562  13.538
26783W        W98509  18.059  41.802  11.982
26784W        W98510   2.987  24.147  11.127
26785W        W98511   0.651  44.238   1.263
26786W        W98512  31.206  26.532  11.608
26787W        W98513  43.012  33.012  10.924
26788W        W98514   0.129   2.353   1.338
26789W        W98515  12.892   1.923  14.319
26790W        W98516  31.127  21.906  12.579
26791W        W98517   7.668  35.350  11.686
26792W        W98518  40.191  15.301  13.296
26793W        W98519  19.053  22.723  12.345
26794W        W98520  11.871  44.057  10.406
26795W        W98521  44.066   7.598  14.412
26796W        W98522  15.219  12.998   0.921
26797W        W98523  11.104   4.738  10.864
26798W        W98524  17.975  12.763   0.877
26799W        W98525  27.904  12.446   0.288
26800W        W98526   8.773  20.204   2.676
26801W        W98527  28.708  18.790   3.387
26802W        W98528  23.182  29.478   1.455
26803W        W98529  38.619  33.787   1.475
26804W        W98530  14.189  42.243   3.267
26805W        W98531  14.531  10.274  10.950
26806W        W98532  14.087  10.954   1.731
26807W        W98533   2.553  22.288  12.014
26808W        W98534  14.374  42.324  12.999
26809W        W98535  41.938  14.216   0.860
26810W        W98536  17.534   2.013  13.866
26811W        W98537  34.516  25.440  12.118
26812W        W98538   5.143  10.336  11.500
26813W        W98539  22.150  37.892   1.387
26814W        W98540  23.151  12.116  14.369
26815W        W98541  18.372  13.884   2.779
26816W        W98542   2.203   6.256   4.600
26817W        W98543   6.049  36.330  11.864
26818W        W98544  37.100  20.931   4.768
26819W        W98545  37.028  11.190   0.699
26820W        W98546  27.387  12.313   2.618
26821W        W98547  21.656   2.840  11.304
26822W        W98548  14.969   0.526  13.925
26823W        W98549   3.857  27.092   2.939
26824W        W98550  14.056  19.147   4.021
26825W        W98551  37.875  13.081   2.690
26826W        W98552  34.515  33.850  11.409
26827W        W98553  44.415  13.109  14.284
26828W        W98554  16.839   0.272  11.999
26829W        W98555  42.342  44.711   3.385
26830W        W98556  17.693   2.426  13.565
26831W        W98557  28.490  10.089   1.472
26832W        W98558  22.055  27.207   4.265
26833W        W98559   3.233  25.613  11.684
26834W        W98560  10.246  37.605  10.764
26835W        W98561  34.951  29.055   3.483
26836W        W98562  24.186  10.138   4.685
26837W        W98563  42.996  35.113  14.775
26838W        W98564   7.479  40.670   3.689
26839W        W98565  41.561  22.747  14.319
26840W        W98566  44.233  29.110  12.114
26841W        W98567   1.418  44.431   2.680
26842W        W98568  39.493  23.320   2.742
26843W        W98569   4.950  44.730   0.262
26844W        W98570  40.789  13.522   1.961
26845W        W98571  19.837  17.746  11.652
26846W        W98572   2.367   7.177  12.624
26847W        W98573  35.089  21.927   0.772
26848W        W98574  35.560  37.550  14.984
26849W        W98575  32.598  28.092  11.552
26850W        W98576  44.530  29.973   4.605
26851W        W98577  10.397  29.047   2.289
26852W        W98578  42.422  32.676  12.884
26853W        W98579   0.401  11.259   3.193
26854W        W98580   5.158  10.349  12.562
26855W        W98581  20.040  33.247  14.348
26856W        W98582  38.873  36.954   1.881
26857W        W98583  29.044  41.994  13.493
26858W        W98584  32.214  40.411  11.696
26859W        W98585   2.841  21.389  11.165
26860W        W98586  42.937   0.391  13.986
26861W        W98587  25.887  31.754   2.531
26862W        W98588  44.450   8.976   2.225
26863W        W98589  41.850  14.710   1.033
26864W        W98590  28.489   3.076  13.950
26865W        W98591  36.942  37.577  11.282
26866W        W98592  37.566  23.298   3.098
26867W        W98593  36.459   1.440   3.657
26868W        W98594  31.959  44.698   0.503
26869W        W98595  13.148  12.775  12.951
26870W        W98596  16.966  16.768  12.070
26871W        W98597  25.125  14.807  14.578
26872W        W98598  44.214  40.904  14.919
26873W        W98599  10.749  22.780   0.223
26874W        W98600  29.170  36.535   1.302
26875W        W98601  32.704  25.693  10.332
26876W        W98602   3.902  19.785   2.564
26877W        W98603  20.773  26.475   5.402
26878W        W98604  18.552   5.690   2.774
26879W        W98605  12.244  34.558   2.353
26880W        W98606  24.549  10.594  12.277
26881W        W98607  32.990  20.454  10.778
26882W        W98608  42.613  23.209   4.484
26883W        W98609  23.676  43.948  13.108
26884W        W98610  31.478   4.473  11.603
26885W        W98611  39.123  13.705   2.626
26886W        W98612  18.753  33.656  10.755
26887W        W98613  43.652   8.533  11.704
26888W        W98614  44.446  38.362  11.698
26889W        W98615  36.885   3.699   4.330
26890W        W98616  33.371  12.363   4.514
26891W        W98617   3.698  44.715  11.602
26892W        W98618  26.567  12.839  11.717
26893W        W98619  30.603  38.816  14.496
26894W        W98620   2.716  41.508   2.047
26895W        W98621   4.126  32.945  11.575
26896W        W98622   9.769   4.480   0.654
26897W        W98623  39.567  44.764   4.612
26898W        W98624  11.287  16.479   0.091
26899W        W98625  17.737   3.908   2.029
26900W        W98626  27.605  43.541   3.680
26901W        W98627  15.673  37.287   0.907
26902W        W98628   5.323  27.439   0.768
26903W        W98629  32.868  19.584  11.203
26904W        W98630  16.547  29.107  14.345
26905W        W98631  39.514  39.324  13.874
26906W        W98632   6.808  32.610   1.479
26907W        W98633  15.662   6.931   0.841
26908W        W98634   4.009   7.839   2.196
26909W        W98635  32.517  20.301  10.679
26910W        W98636  33.201  40.335   3.456
26911W        W98637  16.797  39.473  12.986
26912W        W98638  44.317  37.069   2.682
26913W        W98639  43.290  43.256  12.863
26914W        W98640  31.986  30.757  11.275
26915W        W98641   5.171  34.584  11.942
26916W        W98642  24.653  44.917  10.932
26917W        W98643  35.893  24.762  11.987
26918W        W98644  39.836  21.234   0.851
26919W        W98645  37.315  43.993   3.655
26920W        W98646  43.019  12.848  14.013
26921W        W98647   8.891  22.691  12.460
26922W        W98648   4.422  21.273  11.489
26923W        W98649  42.295  13.583   2.356
26924W        W98650   0.741   9.844  10.807
26925W        W98651  19.158  23.086   3.090
26926W        W98652  35.164  39.751   5.285
26927W        W98653  37.488  16.680   3.224
26928W        W98654  36.871  10.347   3.721
26929W        W98655  34.300  33.245  10.583
26930W        W98656  39.575  19.413   1.678
26931W        W98657   3.091  15.417   2.302
26932W        W98658  16.029  36.506  12.430
26933W        W98659  26.009  10.755   0.549
26934W        W98660  11.546  43.572  12.461
26935W        W98661  22.988  28.643  12.795
26936W        W98662  31.638  25.290  11.115
26937W        W98663  33.325   4.317   3.423
26938W        W98664  37.569  40.879  14.248
26939W        W98665  24.796  26.907  14.436
26940W        W98666  44.281  30.080   2.308
26941W        W98667  11.581  37.524  11.190
26942W        W98668  23.706  29.918   3.717
26943W        W98669  25.957  13.728   2.731
26944W        W98670   6.479  28.397   2.757
26945W        W98671  19.767  38.359   3.565
26946W        W98672  21.657  26.131   5.013
26947W        W98673  37.934   8.874   5.237
26948W        W98674  40.325   2.954   4.721
26949W        W98675   5.710  43.061   1.082
26950W        W98676  14.289   0.835   1.947
26951W        W98677  14.199   4.169   0.893
26952W        W98678  27.095  26.134  11.093
26953W        W98679  12.764   2.508   2.230
26954W        W98680  26.401  34.109   0.598
26955W        W98681  23.508  17.138   0.869
26956W        W98682  28.117  21.635  12.345
26957W        W98683  39.388   5.234   3.870
26958W        W98684  20.606  29.522  14.084
26959W        W98685  40.170  13.995   1.337
26960W        W98686   8.101   6.189  13.281
26961W        W98687   3.501  10.881  11.787
26962W        W98688  31.566  40.995   3.612
26963W        W98689  33.669  16.232   4.682
26964W        W98690  11.768   4.865   4.577
26965W        W98691  27.692   1.090  10.115
26966W        W98692  11.118  26.471  12.306
26967W        W98693  26.608  37.949   3.348
26968W        W98694  41.936  15.662   3.333
26969W        W98695  25.902  23.028   0.827
26970W        W98696  25.855   3.662   4.923
26971W        W98697   4.956   5.325   2.804
26972W        W98698  44.510  21.861   3.655
26973W        W98699  23.949  39.484   2.728
26974W        W98700  35.250  42.926  10.772
26975W        W98701   0.022  39.394   0.924
26976W        W98702   6.673  44.314   3.733
26977W        W98703  35.957  13.788   3.546
26978W        W98704  11.140  16.325  10.638
26979W        W98705  36.563  11.612  12.003
26980W        W98706  30.086  35.414  11.014
26981W        W98707   1.191  31.768   2.851
26982W        W98708   2.914  38.960  11.443
26983W        W98709  21.227  13.617   4.145
26984W        W98710  32.710  44.787  12.262
26985W        W98711  22.601  25.917   2.348
26986W        W98712  25.512  28.867  10.325
26987W        W98713  39.561   7.918   3.749
26988W        W98714   8.360   7.900   4.077
26989W        W98715  32.037  15.241   0.020
26990W        W98716  19.680  28.490   4.598
26991W        W98717  35.585   1.433   1.464
26992W        W98718  13.215  38.972  14.913
26993W        W98719   3.423  32.566  14.921
26994W        W98720   2.318  33.638  11.178
26995W        W98721  40.399  28.683  12.156
26996W        W98722  41.938  22.934  13.489
26997W        W98723  30.430  12.882   1.354
26998W        W98724  15.230  29.201  13.326
26999W        W98725  11.244  32.379  14.899
27000W        W98726  34.351  27.101  11.051
27001W        W98727  38.944  41.328  13.333
27002W        W98728  26.305  19.257   4.544
27003W        W98729  12.773  17.880  12.159
27004W        W98730  27.795   4.025   4.225
27005W        W98731  22.626  41.074   0.807
27006W        W98732  20.749  20.780  14.238
27007W        W98733  32.345  34.850   0.942
27008W        W98734  30.516  34.489  14.515
27009W        W98735  28.079  39.397  11.707
27010W        W98736  37.528  22.062   3.278
27011W        W98737  35.328  43.226   0.262
27012W        W98738  23.109  28.998   2.627
27013W        W98739  13.350   5.714  12.871
27014W        W98740  41.034   9.137   4.719
27015W        W98741  28.351  17.829   2.685
27016W        W98742  34.481   2.784  14.833
27017W        W98743  12.792   8.226  11.255
27018W        W98744  34.788  44.284  11.858
27019W        W98745  16.353  26.069   4.322
27020W        W98746  44.786  39.993  10.684
27021W        W98747  41.515  25.528  11.150
27022W        W98748  23.956  24.709  13.593
27023W        W98749   0.423   4.407   3.146
27024W        W98750  19.198   3.764  14.731
27025W        W98751  40.315  15.520   0.378
27026W        W98752  11.258  39.450   2.504
27027W        W98753  23.071  15.382  13.347
27028W        W98754  37.531   7.349  14.387
27029W        W98755  39.445   1.709   4.569
27030W        W98756   0.401  27.464   1.235
27031W        W98757  27.103   9.876   4.195
27032W        W98758  31.003   9.405  10.634
27033W        W98759   0.329  44.290  13.351
27034W        W98760  29.635  36.317   2.243
27035W        W98761  22.609  28.105  14.292
27036W        W98762   3.331  17.688   0.461
27037W        W98763  37.889  12.638   1.734
27038W        W98764   2.315  36.579  14.040
27039W        W98765   8.601  34.400   0.758
27040W        W98766  14.792  35.490  14.540
27041W        W98767   7.773   4.192   3.386
27042W        W98768  28.769  12.155   3.343
27043W        W98769   9.676  19.009   4.579
27044W        W98770  27.962  44.922   2.438
27045W        W98771   5.841   5.462   0.039
27046W        W98772  10.979  17.227   2.810
27047W        W98773  12.948   0.528  12.021
27048W        W98774   5.070  28.468   0.418
27049W        W98775   8.769   0.355   4.505
27050W        W98776  37.865  25.603   3.432
27051W        W98777   0.866  30.727   1.704
27052W        W98778  13.233  13.575   4.531
27053W        W98779  26.498   5.247  11.154
27054W        W98780  43.056  43.278  11.048
27055W        W98781  43.759  14.601  13.656
27056W        W98782   3.045   0.986  13.031
27057W        W98783  38.542  24.482   3.772
27058W        W98784  23.267  15.830   1.785
27059W        W98785  15.235  18.478  11.133
27060W        W98786  14.274  39.254  11.486
27061W        W98787   4.634  10.042  14.725
27062W        W98788   1.593  37.922   4.626
27063W        W98789  37.367  27.826   3.093
27064W        W98790  25.438  14.927   2.051
27065W        W98791  25.039   0.042  10.583
27066W        W98792  13.740  29.590   0.193
27067W        W98793  16.330  25.801  14.841
27068W        W98794  23.566  37.953  12.937
27069W        W98795  35.059   4.827   3.769
27070W        W98796  41.940  38.331  14.408
27071W        W98797   7.190   7.234   0.330
27072W        W98798  29.024   9.664   0.262
27073W        W98799  41.481  23.469   1.467
27074W        W98800  38.434  20.266  12.779
27075W        W98801  41.418  32.696   1.918
27076W        W98802  20.099  10.688   0.967
27077W        W98803  23.568  11.193   3.786
27078W        W98804  37.046  19.684   3.334
27079W        W98805  19.214   7.224  12.417
27080W        W98806  28.565  33.227   1.783
27081W        W98807   1.557  30.179  14.827
27082W        W98808  32.999  43.907  12.308
27083W        W98809  17.034  18.669   1.496
27084W        W98810  43.022   1.047  11.861
27085W        W98811  43.226   0.932   0.321
27086W        W98812  34.776   2.853  14.416
27087W        W98813  22.970  12.180  10.139
27088W        W98814  28.156  34.417   0.892
27089W        W98815  43.854  31.450  13.775
27090W        W98816  18.155  32.117  10.977
27091W        W98817  21.607  18.703  12.748
27092W        W98818  40.346   9.724  11.384
27093W        W98819  20.476  20.373  14.062
27094W        W98820  22.723  18.809   2.643
27095W        W98821  23.201   2.208   0.506
27096W        W98822  16.242  40.924   2.172
27097W        W98823  28.073  20.277  12.012
27098W        W98824  15.750   6.227   1.363
27099W        W98825  13.098  30.465  10.854
27100W        W98826  36.770   9.710   4.172
27101W        W98827   6.928  16.393   3.730
27102W        W98828  10.127  41.790  10.920
27103W        W98829  21.389  31.144   1.181
27104W        W98830  18.229  40.272  13.546
27105W        W98831  18.091  34.946   3.713
27106W        W98832  16.091  11.677  12.105
27107W        W98833  18.301  40.069   1.933
27108W        W98834  29.787  25.001  11.180
27109W        W98835  19.236  25.061  13.707
27110W        W98836  32.020   0.368  14.252
27111W        W98837  44.355   2.692   1.194
27112W        W98838  35.645  17.137  13.652
27113W        W98839   0.266  43.382  12.954
27114W        W98840   7.917  41.279   1.201
27115W        W98841   8.898  27.474  14.353
27116W        W98842   9.424  21.543   2.382
27117W        W98843  24.659  33.307   3.293
27118W        W98844  23.017  43.582  14.481
27119W        W98845  15.098  35.026  13.693
27120W        W98846   9.828  23.790   4.178
27121W        W98847  31.028  28.164   2.015
27122W        W98848  34.366  22.001   4.678
27123W        W98849  22.910  41.270  12.651
27124W        W98850  20.124  18.630  13.335
27125W        W98851  15.839  25.159   3.220
27126W        W98852   6.814  41.600  11.304
27127W        W98853  16.732  37.836   3.323
27128W        W98854   2.187   6.741  12.451
27129W        W98855  32.453  14.380   1.904
27130W        W98856  15.343   2.643  10.702
27131W        W98857  14.409   1.850   2.348
27132W        W98858  26.547   3.482   0.915
27133W        W98859  20.104  28.001   2.900
27134W        W98860  25.952  10.574   3.047
27135W        W98861   3.427   7.371   2.797
27136W        W98862  36.379  22.604   0.821
27137W        W98863   0.327   4.714  12.907
27138W        W98864   5.767  14.669  11.370
27139W        W98865  25.781  33.625  11.983
27140W        W98866  33.387   4.267   4.702
27141W        W98867   4.873   7.052   0.569
27142W        W98868  29.373  18.955   3.563
27143W        W98869   0.651  35.517  11.849
27144W        W98870  40.362   2.567  11.331
27145W        W98871  39.369  34.075  11.870
27146W        W98872  33.603   8.077  13.471
27147W        W98873  31.077  27.702   2.942
27148W        W98874  29.468  25.933  11.000
27149W        W98875  24.584  36.874   1.952
27150W        W98876  16.252  14.848  11.868
27151W        W98877  30.620  20.358  12.059
27152W        W98878  28.885   8.901  13.788
27153W        W98879   9.771  12.088   1.937
27154W        W98880  22.541  30.630   2.809
27155W        W98881  44.414  38.584  10.717
27156W        W98882  33.986  44.501  10.537
27157W        W98883  28.078  18.244  10.757
27158W        W98884  24.264  26.718   0.412
27159W        W98885  11.100  34.167  13.288
27160W        W98886  12.155  27.513  11.567
27161W        W98887  19.759  43.099  12.530
27162W        W98888   8.356  17.629   1.895
27163W        W98889  12.147  41.255   1.901
27164W        W98890   2.385  17.214   2.250
27165W        W98891   5.894  41.096   3.229
27166W        W98892  38.441  28.100   0.801
27167W        W98893  15.346  30.983  11.892
27168W        W98894  39.109   4.282  11.979
27169W        W98895  20.739   3.757   4.702
27170W        W98896   4.794   4.233  12.734
27171W        W98897  28.120   9.691   0.776
27172W        W98898  39.087  23.117   3.291
27173W        W98899  19.081   5.502   3.217
27174W        W98900  25.400   8.114   2.835
27175W        W98901   7.420  25.007  11.080
27176W        W98902   5.375   5.230  14.897
27177W        W98903  15.059  27.191   2.855
27178W        W98904  38.557  14.644   1.270
27179W        W98905  32.391   9.714  11.408
27180W        W98906   0.879   0.838   4.547
27181W        W98907  12.905  13.322   0.294
27182W        W98908  22.130  10.649   4.767
27183W        W98909  15.020  42.024  10.761
27184W        W98910  28.203   1.148  10.272
27185W        W98911  37.607  15.727  12.045
27186W        W98912  40.294  34.481  12.153
27187W        W98913  34.426  38.287   0.384
27188W        W98914  20.272  14.386   1.949
27189W        W98915   0.759   4.515   1.780
27190W        W98916  33.211  36.970   0.698
27191W        W98917  28.128   7.128  11.200
27192W        W98918  29.229   8.322  14.749
27193W        W98919  25.253  38.524   2.646
27194W        W98920  40.395  31.653   4.617
27195W        W98921   5.816  15.096   0.260
27196W        W98922  26.931  14.294  12.482
27197W        W98923   3.528  29.722  11.197
27198W        W98924   1.713  20.989   2.314
27199W        W98925  28.399  42.319  11.964
27200W        W98926  44.289  24.443  14.303
27201W        W98927  14.299   7.136  11.468
27202W        W98928  24.855  10.794   4.392
27203W        W98929   6.626  17.018  14.918
27204W        W98930  30.340  42.353   4.992
27205W        W98931   7.679  44.502  12.082
27206W        W98932  19.638   3.938  10.841
27207W        W98933  41.202  44.392  12.469
27208W        W98934  21.103  30.581   4.259
27209W        W98935  10.722   0.547   0.264
27210W        W98936  13.441  14.597  14.863
27211W        W98937   3.309   9.626   1.230
27212W        W98938  42.782  17.611  13.870
27213W        W98939  23.945  23.338   0.822
27214W        W98940   0.931  11.742   3.552
27215W        W98941  25.491  24.047   2.158
27216W        W98942  10.906   3.374  12.998
27217W        W98943   9.657  22.349   2.285
27218W        W98944   4.843  11.857   4.982
27219W        W98945   6.397  33.616   0.915
27220W        W98946  35.318  35.411  12.904
27221W        W98947  18.516   7.779   1.124
27222W        W98948  33.580  28.453   2.098
27223W        W98949   0.414  43.762   4.171
27224W        W98950  38.907  15.990   1.371
27225W        W98951  10.297  41.219   2.254
27226W        W98952  28.768  40.533  12.131
27227W        W98953  36.418  18.297  10.765
27228W        W98954   6.705   8.865  10.797
27229W        W98955  24.468   0.616   9.787
27230W        W98956  37.875  30.596  13.460
27231W        W98957  21.752  36.263   0.981
27232W        W98958  11.860  10.226   1.331
27233W        W98959  12.684  43.548  10.595
27234W        W98960   9.145  33.537  14.795
27235W        W98961  42.260  33.603   4.594
27236W        W98962  33.408  20.231  10.593
27237W        W98963  14.261  25.471  11.198
27238W        W98964  35.652   7.591  13.567
27239W        W98965  39.000   7.231  11.685
27240W        W98966  42.926   2.290   0.256
27241W        W98967  11.052  44.209   2.358
27242W        W98968  10.753  39.114   2.600
27243W        W98969  35.427   1.219   3.702
27244W        W98970  30.576  25.192   3.694
27245W        W98971   6.267  14.427  10.698
27246W        W98972  10.721   8.666  10.654
27247W        W98973  36.831   8.303  14.059
27248W        W98974  23.057  28.731  14.345
27249W        W98975  17.435   7.580  11.500
27250W        W98976  43.978  44.897   2.326
27251W        W98977   3.097  34.052   1.841
27252W        W98978  15.164  31.784  11.438
27253W        W98979  34.087  25.927   0.800
27254W        W98980  30.097  42.904   4.148
27255W        W98981  14.169   9.818   0.991
27256W        W98982  24.516  16.154   4.577
27257W        W98983  36.924  40.397   2.690
27258W        W98984  13.343  39.771   0.272
27259W        W98985  17.620  10.131  11.578
27260W        W98986  22.506  14.349   0.691
27261W        W98987  14.692   2.722  14.849
27262W        W98988  38.409  28.779   1.379
27263W        W98989  23.740   9.399   2.321
27264W        W98990  36.509  36.340   3.723
27265W        W98991  43.261   8.189   1.267
27266W        W98992  41.488  36.476  11.892
27267W        W98993  24.479  40.185   1.882
27268W        W98994   5.808  37.291   0.518
27269W        W98995  36.403   1.721  12.521
27270W        W98996  20.672  19.887  14.497
27271W        W98997  19.865   7.730   3.649
27272W        W98998  22.675  19.576  10.437
27273W        W98999  42.646  21.964   4.998
27274W        W99000  33.592  23.169  11.669
27275W        W99001   6.967  15.427  12.088
27276W        W99002  30.931  30.681  11.099
27277W        W99003  19.825  32.075   4.442
27278W        W99004  44.031   5.286   1.089
27279W        W99005  35.903  40.799   4.396
27280W        W99006  19.782  13.170  13.694
27281W        W99007  12.398  42.422  11.606
27282W        W99008  18.678  43.830  14.745
27283W        W99009  10.261  22.143  11.468
27284W        W99010  18.749  23.003   3.884
27285W        W99011  10.679  30.006  10.975
27286W        W99012  17.752  20.936  14.027
27287W        W99013   1.141  30.875  12.538
27288W        W99014  15.656  42.312   0.315
27289W        W99015   9.186  37.172   3.626
27290W        W99016  26.908   9.843   3.361
27291W        W99017  35.227   4.294   3.139
27292W        W99018  15.282   0.953   3.364
27293W        W99019  43.633  18.513   0.306
27294W        W99020  31.658  17.386  11.196
27295W        W99021  35.359  37.077   4.051
27296W        W99022  22.214   2.439   4.275
27297W        W99023  24.617  43.227  13.825
27298W        W99024  22.230  14.572  14.505
27299W        W99025  36.553  39.002   0.966
27300W        W99026   9.592   7.578  14.332
27301W        W99027  25.657  11.641  10.666
27302W        W99028  11.083  31.424  14.039
27303W        W99029  25.514  32.086  12.970
27304W        W99030   7.218  18.208   3.565
27305W        W99031  33.655  16.163   3.598
27306W        W99032  21.840  10.374   9.860
27307W        W99033  16.255  12.631   3.669
27308W        W99034   1.415   8.164  11.875
27309W        W99035  22.283   2.738  14.303
27310W        W99036   6.688  11.377  14.265
27311W        W99037  26.760  27.163  13.998
27312W        W99038  30.884  12.284   1.652
27313W        W99039  13.250  19.196   3.954
27314W        W99040   7.727  21.735   1.903
27315W        W99041  20.535  20.775   1.370
27316W        W99042  21.211  25.323   0.808
27317W        W99043  30.627  24.346  13.270
27318W        W99044   2.178  41.248  12.375
27319W        W99045   0.002   0.682  12.004
27320W        W99046  38.820  44.717  14.999
27321W        W99047  39.853   6.780   3.264
27322W        W99048   5.963   1.036   3.197
27323W        W99049  38.318  38.619   1.279
27324W        W99050  31.042  44.991  12.926
27325W        W99051  24.513  33.878  12.432
27326W        W99052  19.235  17.625  11.039
27327W        W99053  20.769  32.873   2.163
27328W        W99054  24.189  29.011   0.752
27329W        W99055  17.695  31.371   1.886
27330W        W99056  41.097   2.694  12.049
27331W        W99057  38.301  33.318  11.435
27332W        W99058  35.669  25.789  13.055
27333W        W99059  37.506   5.691  14.292
27334W        W99060  41.279   4.870  11.194
27335W        W99061  18.964  27.651  14.485
27336W        W99062  31.098  20.445   2.732
27337W        W99063  36.370  39.320   4.792
27338W        W99064  33.347  19.642   4.614
27339W        W99065  28.937   8.845   0.765
27340W        W99066  36.336  17.089  11.902
27341W        W99067  21.548  20.180  14.491
27342W        W99068   8.251  24.597   3.296
27343W        W99069  28.198  31.081  14.429
27344W        W99070   1.209   4.646   0.905
27345W        W99071  42.276  40.219   3.161
27346W        W99072  14.416  12.264   1.318
27347W        W99073  11.061   2.284   0.846
27348W        W99074  25.438  27.956  12.375
27349W        W99075  13.282  31.321   0.381
27350W        W99076  35.434  29.444  12.035
27351W        W99077  22.894  43.724  13.270
27352W        W99078  38.857   5.875   0.468
27353W        W99079  23.223  36.948   1.455
27354W        W99080  31.038  32.021  14.311
27355W        W99081  27.986  27.168  14.974
27356W        W99082   4.173  39.444  11.735
27357W        W99083  16.127  17.774   1.205
27358W        W99084  18.098  21.841  14.789
27359W        W99085  22.964  15.116  14.259
27360W        W99086  19.588  15.402   3.886
27361W        W99087   7.406  40.419  10.802
27362W        W99088  35.565  26.195  13.564
27363W        W99089   4.045  30.507   1.323
27364W        W99090  14.529  35.891  13.525
27365W        W99091  10.955  23.024  13.315
27366W        W99092  18.597  25.247  12.533
27367W        W99093  24.000  43.452  12.105
27368W        W99094  23.653  13.756   3.447
27369W        W99095  20.300  22.511   0.915
27370W        W99096  28.800   8.815   4.770
27371W        W99097  42.900  23.657   4.558
27372W        W99098  15.404  31.013   4.611
27373W        W99099  39.461  13.305   0.364
27374W        W99100  10.768  38.387  11.967
27375W        W99101  12.173  11.664  13.030
27376W        W99102  20.496  26.553  11.044
27377W        W99103   1.363  32.939  11.519
27378W        W99104  29.645  29.490  14.773
27379W        W99105   2.378  10.303   4.565
27380W        W99106  31.798  14.993   5.030
27381W        W99107  20.074  33.189  13.474
27382W        W99108  10.211   0.717  11.607
27383W        W99109  12.680   9.411  13.876
27384W        W99110  27.046  25.018   1.056
27385W        W99111   7.801  13.908   9.643
27386W        W99112  31.512   1.414  10.532
27387W        W99113  38.075  41.378  12.506
27388W        W99114  28.703  34.547   0.281
27389W        W99115  26.472  13.268   3.826
27390W        W99116  11.087   0.517   1.276
27391W        W99117  33.174   5.052   4.351
27392W        W99118  41.229  33.595  14.289
27393W        W99119   3.834  13.749  13.720
27394W        W99120   1.614  33.926  13.571
27395W        W99121  13.260  36.343  10.808
27396W        W99122  34.978   5.379   3.629
27397W        W99123  15.331  25.793   2.776
27398W        W99124  26.608  18.671   4.520
27399W        W99125  24.286  24.633   1.488
27400W        W99126  38.871   5.651  10.600
27401W        W99127   8.452  35.307   4.609
27402W        W99128  25.623  27.965  10.238
27403W        W99129  13.665  12.385   0.258
27404W        W99130   8.250  43.350   4.772
27405W        W99131  11.772  13.363   4.672
27406W        W99132  28.455   2.044   0.383
27407W        W99133  20.650  13.553  12.973
27408W        W99134  31.286  31.537   0.057
27409W        W99135  37.896   6.166  11.929
27410W        W99136  35.827  39.974   1.886
27411W        W99137  37.758   9.714  14.373
27412W        W99138  10.200   4.204   0.439
27413W        W99139   8.775  39.817  12.594
27414W        W99140   5.194  25.480  14.946
27415W        W99141   0.219  24.492  14.328
27416W        W99142  38.917   3.539  14.769
27417W        W99143   6.444  32.359   3.269
27418W        W99144   8.599  12.278  14.965
27419W        W99145   6.170  44.780  14.062
27420W        W99146   2.560  28.941   0.270
27421W        W99147  31.391  27.150   1.184
27422W        W99148  10.063  22.708   4.969
27423W        W99149  29.084  22.774   4.544
27424W        W99150  40.998   9.139   2.295
27425W        W99151  30.871  37.449   2.213
27426W        W99152  38.305   7.063  12.380
27427W        W99153  18.380  25.091   2.265
27428W        W99154  13.578  37.554  13.966
27429W        W99155  21.098  15.844   2.384
27430W        W99156   5.881  24.433   2.839
27431W        W99157  43.307  21.093  12.369
27432W        W99158  16.047  44.207  13.483
27433W        W99159  37.028   6.306  12.493
27434W        W99160  26.601  36.989  12.884
27435W        W99161  38.064   7.682   1.644
27436W        W99162  43.827  22.087  11.962
27437W        W99163  10.681  20.027   3.213
27438W        W99164  26.109  23.027  13.000
27439W        W99165  14.758  28.856  12.163
27440W        W99166  15.079  17.752   4.953
27441W        W99167  37.570  38.645  14.212
27442W        W99168  19.848  14.087   1.896
27443W        W99169  31.147  19.329  13.659
27444W        W99170  25.608  22.307   2.764
27445W        W99171  26.361  15.689   2.593
27446W        W99172  27.625  40.976  14.605
27447W        W99173  42.763  17.324   3.273
27448W        W99174   5.494  11.891  14.050
27449W        W99175  11.789   3.856  12.147
27450W        W99176  40.603  33.531  10.142
27451W        W99177   1.724   3.483   1.426
27452W        W99178   1.368  15.758   0.991
27453W        W99179  18.672  31.695  13.604
27454W        W99180   3.276  30.712   3.621
27455W        W99181  20.320  31.580  10.487
27456W        W99182   6.795  38.325  14.341
27457W        W99183  21.487  38.484   1.413
27458W        W99184  21.129  16.300   2.125
27459W        W99185  17.090  39.992  11.522
27460W        W99186  17.623  38.736  11.464
27461W        W99187  22.750   9.159   1.327
27462W        W99188  42.768  17.733  12.147
27463W        W99189  23.564  25.453  12.657
27464W        W99190  29.981  24.145   4.157
27465W        W99191   3.380  34.095   3.284
27466W        W99192  24.613  41.754  13.149
27467W        W99193  36.277  10.956  14.280
27468W        W99194   6.222  27.414  14.876
27469W        W99195   8.373  40.408  10.801
27470W        W99196   9.596  18.677  14.781
27471W        W99197  16.118  19.522  14.504
27472W        W99198  15.236  44.073   1.657
27473W        W99199  26.596  17.114   1.279
27474W        W99200  43.798   9.179  11.307
27475W        W99201  18.810   9.047   1.735
27476W        W99202  43.030  39.511  11.611
27477W        W99203   5.421  11.731  11.924
27478W        W99204  34.563  31.392  12.011
27479W        W99205  17.712  11.461  12.663
27480W        W99206  13.304  16.492  12.381
27481W        W99207  18.666  38.226   4.478
27482W        W99208  36.078  32.962   1.656
27483W        W99209  16.965   3.132  10.792
27484W        W99210  26.783  32.090   1.719
27485W        W99211  29.638   9.205   1.775
27486W        W99212   3.274   6.161   4.662
27487W        W99213  32.669  38.829   2.124
27488W        W99214  21.134  43.970   0.687
27489W        W99215  44.270  20.285  13.416
27490W        W99216  19.165  37.324  12.826
27491W        W99217   8.896   8.217  11.470
27492W        W99218  15.619  30.224  14.926
27493W        W99219   5.822   7.196  12.575
27494W        W99220  15.738  13.820   1.802
27495W        W99221   8.879   4.689  14.324
27496W        W99222  15.387  30.547   3.368
27497W        W99223   1.536  15.942  13.271
27498W        W99224  13.109   6.661  13.147
27499W        W99225  37.704  39.603   2.845
27500W        W99226  21.733  23.971  12.947
27501W        W99227  16.866  13.785  12.031
27502W        W99228   6.168  34.339   1.985
27503W        W99229  22.145   8.833  13.471
27504W        W99230  27.115  28.990   1.190
27505W        W99231   2.900  26.724  14.899
27506W        W99232  29.018  26.053  11.354
27507W        W99233  10.922   5.668   4.939
27508W        W99234  30.814   4.877  12.412
27509W        W99235  44.031  15.125  12.905
27510W        W99236  17.266  28.824  12.783
27511W        W99237  11.680  20.983   1.904
27512W        W99238  26.451   6.666  12.933
27513W        W99239  13.865  39.088  12.139
27514W        W99240  31.041   2.905   1.032
27515W        W99241  22.966   0.010  10.171
27516W        W99242  31.248  17.613   1.824
27517W        W99243  42.271  44.434  12.599
27518W        W99244  30.634  12.778   2.714
27519W        W99245   1.085  33.892   1.788
27520W        W99246  43.237  29.519   3.624
27521W        W99247   4.361  12.279   0.752
27522W        W99248   6.399  23.754  12.534
27523W        W99249  38.348  13.087   3.312
27524W        W99250  24.437   5.927  12.016
27525W        W99251  29.037  36.405  12.308
27526W        W99252  43.804  28.497  14.792
27527W        W99253   2.903  18.395   1.907
27528W        W99254  27.099  29.842   2.687
27529W        W99255  39.808  27.613  11.003
27530W        W99256  39.064   8.894  13.156
27531W        W99257   9.054   5.662  11.946
27532W        W99258  36.746  32.953  13.583
27533W        W99259  21.616   7.623   4.890
27534W        W99260  10.896  30.120  10.397
27535W        W99261   1.145  24.789  12.319
27536W        W99262  26.866  41.440  11.565
27537W        W99263  33.098  44.816   0.841
27538W        W99264   4.330  23.087  11.201
27539W        W99265  22.951   3.842  10.895
27540W        W99266  21.826  12.696   5.039
27541W        W99267  16.110  25.030   0.477
27542W        W99268   5.464  32.158   2.507
27543W        W99269  11.847  41.583  12.210
27544W        W99270  29.949   4.442   3.634
27545W        W99271  40.434  35.005  11.477
27546W        W99272  29.085  43.845  12.735
27547W        W99273   0.828   1.179  14.977
27548W        W99274  24.512  23.769  12.062
27549W        W99275  42.781  29.756   3.643
27550W        W99276  38.546  15.661   4.540
27551W        W99277  27.834   8.378   1.623
27552W        W99278   4.918   9.837  11.485
27553W        W99279  21.668  14.323  13.306
27554W        W99280   2.523   0.518  13.782
27555W        W99281  15.694  33.993   3.138
27556W        W99282  22.868  32.565   0.399
27557W        W99283  20.664  34.206   0.138
27558W        W99284  31.387  18.612   2.225
27559W        W99285  35.377  16.643  14.855
27560W        W99286  15.399  39.913   4.590
27561W        W99287  41.189  16.752   1.172
27562W        W99288  27.532  43.618   5.304
27563W        W99289  20.513  36.340   3.367
27564W        W99290  38.938  13.886  14.506
27565W        W99291   8.849  42.944   5.205
27566W        W99292  19.494   9.656  10.781
27567W        W99293   7.385  32.034   1.038
27568W        W99294  40.865  41.595  12.547
27569W        W99295  22.536  37.488  10.239
27570W        W99296  22.911   9.751   0.515
27571W        W99297  13.303  20.599   2.800
27572W        W99298  21.607  26.051  10.688
27573W        W99299   8.250  18.646   1.166
27574W        W99300  32.211   7.592  11.775
27575W        W99301  41.209  15.161  14.903
27576W        W99302   7.935   1.511   0.676
27577W        W99303  17.985  15.723   2.799
27578W        W99304  41.436  25.231   4.108
27579W        W99305  34.962  35.451   1.330
27580W        W99306  29.759   9.717   1.908
27581W        W99307  41.998  14.176  13.810
27582W        W99308  14.048  36.094   3.696
27583W        W99309  41.184  35.976   4.525
27584W        W99310  24.095  32.722   3.642
27585W        W99311  42.799  14.147   1.991
27586W        W99312  31.602  17.537   3.690
27587W        W99313  10.786  28.047  14.002
27588W        W99314   1.654   1.422   4.548
27589W        W99315   2.979  39.878   1.820
27590W        W99316  43.393  31.865   4.940
27591W        W99317  11.909  28.357   4.062
27592W        W99318  20.752  31.342  12.442
27593W        W99319  26.240  18.651   2.925
27594W        W99320  26.959  21.289  12.980
27595W        W99321  14.670   2.976  13.435
27596W        W99322  42.861  31.206   3.632
27597W        W99323  33.978   0.553   1.418
27598W        W99324  23.602   3.289   1.658
27599W        W99325  25.452  36.828   1.961
27600W        W99326  42.167   6.407   5.207
27601W        W99327  24.666   8.909  13.050
27602W        W99328   5.977  38.169  10.919
27603W        W99329  42.942   9.828   0.439
27604W        W99330  40.316  43.363   4.557
27605W        W99331  33.122  11.401  13.553
27606W        W99332  10.670  22.189   4.508
27607W        W99333  10.201  11.813   0.864
27608W        W99334  13.304  41.032   2.594
27609W        W99335  30.570  18.677  11.402
27610W        W99336  40.201   8.622   2.162
27611W        W99337  21.247  28.367  10.752
27612W        W99338   6.819   6.823   0.237
27613W        W99339  19.627  24.983  14.028
27614W        W99340  19.164  28.529   3.566
27615W        W99341  37.529  20.086  11.970
27616W        W99342  39.898  37.935   1.417
27617W        W99343  10.710  24.918   2.701
27618W        W99344  29.625   0.890   2.754
27619W        W99345   4.292  23.715   3.598
27620W        W99346  22.090  44.279  12.995
27621W        W99347  16.578   1.885   5.034
27622W        W99348  14.140   1.319  12.917
27623W        W99349  36.595  39.906   0.461
27624W        W99350   5.610  21.739   1.963
27625W        W99351   4.832  39.074  12.696
27626W        W99352  29.412   3.917  11.660
27627W        W99353  17.564  24.630  11.590
27628W        W99354   1.481  17.380   4.157
27629W        W99355  12.899  42.813   3.153
27630W        W99356   4.117  25.768  14.400
27631W        W99357  15.078  42.578   2.305
27632W        W99358  33.078  34.003  14.438
27633W        W99359  29.933  26.260   4.987
27634W        W99360  38.538  20.561  12.373
27635W        W99361  10.726   4.114  14.753
27636W        W99362   5.353  44.268  13.512
27637W        W99363  39.657   8.352   4.076
27638W        W99364   1.607  33.895  12.364
27639W        W99365   1.515  19.458  11.476
27640W        W99366  44.316   3.740   1.341
27641W        W99367  23.146  33.204   1.885
27642W        W99368   4.413  33.681   2.331
27643W        W99369  34.146  42.423   4.266
27644W        W99370  31.742  38.480  14.023
27645W        W99371  20.786  25.660   1.699
27646W        W99372  11.378  17.495   1.794
27647W        W99373  35.440  24.647   2.109
27648W        W99374  42.399  21.945   4.526
27649W        W99375  25.163  10.680   1.395
27650W        W99376  30.160  11.823   0.009
27651W        W99377  26.613   8.303  14.598
27652W        W99378  21.268  12.739   4.194
27653W        W99379  18.075   0.748  13.834
27654W        W99380  32.077  14.140   2.138
27655W        W99381   3.863  39.075  11.451
27656W        W99382  33.282  32.368   0.274
27657W        W99383  11.238  23.481  14.723
27658W        W99384  29.400  42.268  14.584
27659W        W99385   1.750  18.722   3.782
27660W        W99386  36.790  11.813  14.030
27661W        W99387   9.652  18.306  13.903
27662W        W99388  10.643  37.711   4.496
27663W        W99389  23.979   7.884  14.010
27664W        W99390  13.279  40.030  12.895
27665W        W99391  42.166   3.774   0.801
27666W        W99392   1.799   0.964  11.905
27667W        W99393  30.916  17.004  11.946
27668W        W99394  35.179  43.329   4.213
27669W        W99395  22.522  22.256   3.596
27670W        W99396  28.122  40.308  13.415
27671W        W99397  27.437  27.864  13.380
27672W        W99398  37.913   6.420  13.325
27673W        W99399  29.004  21.866   1.762
27674W        W99400  37.234  34.998   2.441
27675W        W99401   6.078  33.535   4.565
27676W        W99402  33.359  13.190   0.071
27677W        W99403   9.176  36.866  10.141
27678W        W99404  16.165   9.004   3.772
27679W        W99405  39.437  37.978   3.200
27680W        W99406  30.287  23.072   1.267
27681W        W99407  15.674  17.142  12.131
27682W        W99408   2.481   6.238  10.774
27683W        W99409  16.857  33.888  11.412
27684W        W99410  35.975   5.213  12.894
27685W        W99411  17.193  12.756   4.473
27686W        W99412  26.128  16.549   4.093
27687W        W99413  10.852   4.922   4.781
27688W        W99414  43.054  27.929  14.325
27689W        W99415   4.171  44.417   4.124
27690W        W99416  12.206  35.241  12.056
27691W        W99417  44.504   4.336  12.050
27692W        W99418  38.362   1.725   0.961
27693W        W99419  36.418  16.090   0.079
27694W        W99420  26.318  11.676   2.115
27695W        W99421  18.629  29.806  11.829
27696W        W99422   0.465   8.813  12.674
27697W        W99423  26.046  14.775   3.569
27698W        W99424  36.124   1.840   3.680
27699W        W99425  22.252  15.804  10.007
27700W        W99426   6.247  27.937  14.898
27701W        W99427  27.166  34.486  14.432
27702W        W99428  27.897  43.841   0.691
27703W        W99429  44.498  33.952  12.058
27704W        W99430  17.221  35.477  14.786
27705W        W99431   5.342  19.450  11.888
27706W        W99432  15.983  39.052   4.109
27707W        W99433  14.718  42.620   1.192
27708W        W99434   0.210   5.411   0.220
27709W        W99435  32.900  41.406   0.419
27710W        W99436  15.311  15.211   4.205
27711W        W99437  10.753  20.217   0.794
27712W        W99438   7.897  34.912  11.484
27713W        W99439  24.110  35.475  14.365
27714W        W99440  31.668   7.393  10.384
27715W        W99441  38.920  11.401   2.016
27716W        W99442  17.636  10.865   2.279
27717W        W99443  35.929   7.750  11.665
27718W        W99444  23.951  38.887  14.612
27719W        W99445  23.505  21.678  12.493
27720W        W99446  14.366  20.977  11.047
27721W        W99447  42.885  30.744  10.668
27722W        W99448  12.698  17.748  11.229
27723W        W99449   6.179  16.098  14.266
27724W        W99450  19.053  23.298  10.350
27725W        W99451  13.558  33.139  11.641
27726W        W99452  18.274  23.632  11.116
27727W        W99453  12.276  15.762   4.724
27728W        W99454  33.905  22.233   1.235
27729W        W99455  11.663  31.443   3.773
27730W        W99456  33.943  16.672  12.433
27731W        W99457  21.923  11.321   0.424
27732W        W99458  25.650  25.659   4.374
27733W        W99459   9.675  34.623   2.351
27734W        W99460   1.287  12.297  13.820
27735W        W99461  18.198  43.290   2.198
27736W        W99462  22.601   5.138  11.081
27737W        W99463  24.974  19.393  10.605
27738W        W99464  12.596  21.205  11.959
27739W        W99465  41.943  14.479   2.214
27740W        W99466  37.346   1.295   1.311
27741W        W99467   3.764   0.951  12.160
27742W        W99468  32.184  11.537   2.258
27743W        W99469  33.345  14.626  12.163
27744W        W99470  27.947  24.888  12.984
27745W        W99471  17.748  26.437  14.193
27746W        W99472  16.761  25.896   3.245
27747W        W99473   1.364  33.502  12.049
27748W        W99474  15.673   1.885  10.976
27749W        W99475  16.554  15.717   3.581
27750W        W99476  29.615  24.689   4.637
27751W        W99477  36.577  43.408   2.792
27752W        W99478  18.882  14.366   3.348
27753W        W99479  25.225  15.899  13.040
27754W        W99480  21.218   3.610   3.360
27755W        W99481  17.353  33.245   4.231
27756W        W99482  38.978  19.299  13.310
27757W        W99483  32.428  28.452   2.240
27758W        W99484  23.585  34.897   2.171
27759W        W99485  11.144  15.793  14.372
27760W        W99486   7.456  34.636  12.540
27761W        W99487  40.859   6.170   4.837
27762W        W99488  19.088   6.364   2.612
27763W        W99489  22.338  15.120  12.623
27764W        W99490  42.478  19.248   3.922
27765W        W99491  16.769  42.441   1.671
27766W        W99492  27.364  21.149  13.267
27767W        W99493  41.401   1.694  12.477
27768W        W99494  14.144   9.527  12.580
27769W        W99495   9.720  28.364  11.799
27770W        W99496  31.456  44.870  14.591
27771W        W99497   2.352   6.142   0.658
27772W        W99498  30.994  29.934  12.929
27773W        W99499  11.203   6.081  11.257
27774W        W99500   0.751  22.136  11.657
27775W        W99501  17.909  23.299  14.361
27776W        W99502   9.541  27.964  11.514
27777W        W99503   5.233  38.466   2.831
27778W        W99504  19.226  32.042  12.802
27779W        W99505  27.607  40.577  11.031
27780W        W99506  14.065  44.965  13.255
27781W        W99507  10.355   6.676  12.060
27782W        W99508  36.072   7.433  13.305
27783W        W99509  32.486  34.821  12.292
27784W        W99510  26.116  43.415   2.463
27785W        W99511  28.295   4.236   0.846
27786W        W99512  29.516   2.043   2.636
27787W        W99513  11.366  28.481  14.547
27788W        W99514  33.411  27.220   4.529
27789W        W99515  24.231  16.201   1.107
27790W        W99516   3.523  42.303  10.751
27791W        W99517  15.160  43.302  12.455
27792W        W99518  39.864  22.689  11.437
27793W        W99519   6.384  41.403   1.512
27794W        W99520  42.850  38.335  10.969
27795W        W99521  10.284  24.461   2.488
27796W        W99522  41.912  44.917  10.654
27797W        W99523   2.709  36.618   2.410
27798W        W99524  17.665  11.025   1.056
27799W        W99525  29.517   4.122  13.082
27800W        W99526  39.407  42.012  11.603
27801W        W99527  24.160  16.527  13.999
27802W        W99528  12.562  20.314  12.111
27803W        W99529  22.023  37.352   0.451
27804W        W99530  11.902  25.558   3.206
27805W        W99531  19.660  22.142   4.633
27806W        W99532  21.026  41.180   1.249
27807W        W99533  33.888  39.372  12.393
27808W        W99534  25.249  38.071   3.821
27809W        W99535  30.629  13.221   1.699
27810W        W99536  35.730  27.691   4.933
27811W        W99537  19.512  28.981  10.677
27812W        W99538  10.860  42.838   0.873
27813W        W99539  26.116  28.578  14.824
27814W        W99540  32.265  14.793  10.405
27815W        W99541   8.787   4.214  14.983
27816W        W99542  32.039  35.071  11.950
27817W        W99543  44.196  42.455   1.729
27818W        W99544  31.855  35.440   3.253
27819W        W99545   0.782  36.139   2.139
27820W        W99546  40.595  42.384   0.947
27821W        W99547  31.820   3.382  12.428
27822W        W99548  30.981  30.014   3.210
27823W        W99549   5.464  20.709  14.043
27824W        W99550  28.923  32.000  11.562
27825W        W99551  20.193  34.936   4.420
27826W        W99552   3.493  24.479  12.856
27827W        W99553  30.069   5.832  14.929
27828W        W99554  28.110  18.943   3.261
27829W        W99555  42.460  10.223  11.251
27830W        W99556   4.262  20.977  11.888
27831W        W99557  43.992   4.912  12.504
27832W        W99558  42.281   6.972   2.813
27833W        W99559  11.573   3.376  13.382
27834W        W99560  38.097  17.929  14.329
27835W        W99561   2.942   0.219  10.795
27836W        W99562  38.419  42.422   1.149
27837W        W99563  11.414   3.499   3.685
27838W        W99564  25.710  36.883  14.032
27839W        W99565  33.999  10.232   1.738
27840W        W99566  26.797  37.409   2.714
27841W        W99567  34.613   6.094   4.053
27842W        W99568  20.813  43.910  12.419
27843W        W99569  20.684  18.539  14.886
27844W        W99570  32.533  31.095  12.376
27845W        W99571   5.668  27.116   0.457
27846W        W99572   8.292  43.027   2.373
27847W        W99573  15.828   1.962   0.327
27848W        W99574  40.511  18.201  10.891
27849W        W99575  44.865  43.845  12.363
27850W        W99576  35.405  43.561   1.348
27851W        W99577  24.151  24.714   0.465
27852W        W99578  37.224  26.671  12.331
27853W        W99579  36.125  11.627   2.750
27854W        W99580  16.349  21.787  14.039
27855W        W99581   2.000  15.076  13.339
27856W        W99582  34.944  29.552   2.155
27857W        W99583   3.974  16.714   1.907
27858W        W99584  29.600   4.380   2.184
27859W        W99585  19.219  16.293   3.864
27860W        W99586  16.583  40.009  13.868
27861W        W99587  16.786   8.375   2.352
27862W        W99588   4.379   0.331  13.215
27863W        W99589   1.337  19.580   3.901
27864W        W99590  41.420  40.915   2.433
27865W        W99591  26.730  12.317   3.205
27866W        W99592  22.037   0.236  12.080
27867W        W99593  34.012   4.689  10.932
27868W        W99594  38.086  26.999  11.014
27869W        W99595   9.638  38.469  10.579
27870W        W99596  21.976  10.840   2.221
27871W        W99597  14.717   0.929  14.218
27872W        W99598  28.017  44.339   3.972
27873W        W99599  25.662  11.144  14.950
27874W        W99600  30.794  23.150   1.132
27875W        W99601   1.902  43.306  13.892
27876W        W99602  35.123  35.360   3.131
27877W        W99603  32.205  35.296  14.962
27878W        W99604   5.194   0.271   4.774
27879W        W99605  24.153  18.608   4.098
27880W        W99606  43.521  24.181  11.687
27881W        W99607  36.653  39.877  11.186
27882W        W99608  44.048   5.715   0.745
27883W        W99609  27.903  20.762  14.849
27884W        W99610  38.479  21.218  11.615
27885W        W99611  38.529  13.025   4.203
27886W        W99612   6.825  36.370  12.464
27887W        W99613  42.347  41.593   1.965
27888W        W99614   1.372   4.750  10.912
27889W        W99615   1.682  25.717   0.275
27890W        W99616  18.196  31.969  11.979
27891W        W99617  27.612  40.352   0.912
27892W        W99618   0.919  25.502   3.424
27893W        W99619  40.098  36.525   4.578
27894W        W99620  17.690  22.310   2.612
27895W        W99621  35.680  40.861   0.554
27896W        W99622  23.701  18.336  11.552
27897W        W99623  14.843  25.278   4.939
27898W        W99624  34.781  20.202   2.678
27899W        W99625  42.317  13.385  13.450
27900W        W99626  34.756  38.390   2.740
27901W        W99627  19.270  17.538   1.963
27902W        W99628  41.332  37.128   0.897
27903W        W99629  42.714   8.088   1.870
27904W        W99630   2.299  24.182  10.702
27905W        W99631   1.980  23.499  10.491
27906W        W99632  20.401  28.271   0.999
27907W        W99633  13.595  33.011  14.088
27908W        W99634  26.184  19.723  11.060
27909W        W99635   8.736  36.834  12.460
27910W        W99636  32.941   7.198  14.838
27911W        W99637  44.245  25.547   3.625
27912W        W99638  32.590  10.217  10.935
27913W        W99639  39.828  16.679  12.427
27914W        W99640  38.208   0.895   4.855
27915W        W99641  44.420  44.563  13.521
27916W        W99642  15.718   5.134   1.330
27917W        W99643   7.336  37.601   3.802
27918W        W99644  23.671  16.603  14.899
27919W        W99645  25.633  34.531  11.970
27920W        W99646  22.916   6.014   1.799
27921W        W99647   7.840   5.237  13.887
27922W        W99648  23.599  42.927   2.124
27923W        W99649  16.240  27.200  12.407
27924W        W99650  39.614  11.119   3.222
27925W        W99651   0.841  18.656  10.828
27926W        W99652   4.816  36.823  11.711
27927W        W99653  14.351  37.903  13.606
27928W        W99654  42.340  28.706   2.749
27929W        W99655  38.034  33.461  13.362
27930W        W99656  33.787  28.997   0.945
27931W        W99657  31.882  14.785   3.252
27932W        W99658   8.430  16.339  12.057
27933W        W99659  28.553  23.731  14.340
27934W        W99660  44.349  17.709   3.667
27935W        W99661  30.677  34.341  12.039
27936W        W99662  40.562  36.100  11.782
27937W        W99663   3.923  16.015   5.494
27938W        W99664  42.924   2.424   4.565
27939W        W99665   8.272  39.359   2.321
27940W        W99666  18.956  41.213  12.563
27941W        W99667  17.581  42.531   0.863
27942W        W99668  43.442  31.403   2.324
27943W        W99669  34.850  17.644   0.532
27944W        W99670  14.587   3.912  12.524
27945W        W99671  10.687  40.489  12.905
27946W        W99672  32.814   9.454  11.522
27947W        W99673   3.239  30.972   1.320
27948W        W99674  44.657  34.021   0.907
27949W        W99675  30.309  23.015   2.224
27950W        W99676   8.390  22.916   9.984
27951W        W99677  13.368  23.543   4.958
27952W        W99678  41.890  10.575   3.153
27953W        W99679  42.872   9.815   1.304
27954W        W99680  36.881  11.671  12.547
27955W        W99681  15.305  19.684   2.491
27956W        W99682   2.796  12.129   3.916
27957W        W99683   3.152  29.340   3.718
27958W        W99684  36.652   4.374  13.323
27959W        W99685  24.368   7.190  11.162
27960W        W99686  12.764  25.202   2.812
27961W        W99687   8.761  20.427  14.949
27962W        W99688  39.914  34.064  14.277
27963W        W99689  31.525  18.223   1.903
27964W        W99690   2.728  21.763  10.827
27965W        W99691  21.608  41.986  10.557
27966W        W99692  15.716  25.845   4.879
27967W        W99693  14.761  21.186   2.328
27968W        W99694  22.651   4.253  10.889
27969W        W99695   6.129  22.226  11.205
27970W        W99696  25.933  21.998  11.243
27971W        W99697   5.495  30.026  12.918
27972W        W99698  23.328  31.644   1.779
27973W        W99699  20.055  17.215  13.968
27974W        W99700   9.447  34.321   5.054
27975W        W99701  24.075   8.931   4.041
27976W        W99702   3.296  42.350   4.935
27977W        W99703   4.786  19.720  11.625
27978W        W99704  20.028  22.483   2.971
27979W        W99705   7.240  14.312   3.584
27980W        W99706  43.667  21.715  10.820
27981W        W99707   4.171  17.709   2.835
27982W        W99708   4.969  28.976   2.558
27983W        W99709   7.416  22.228   0.738
27984W        W99710  40.398  41.284   4.519
27985W        W99711   1.024  43.539  13.324
27986W        W99712  30.939  40.355  12.056
27987W        W99713  35.800  28.049  12.446
27988W        W99714  17.049  15.173   1.872
27989W        W99715  18.988   9.234   3.653
27990W        W99716  14.075  25.084   3.134
27991W        W99717  39.638  28.515   1.796
27992W        W99718  35.824  17.122   2.159
27993W        W99719  34.669   8.211   4.199
27994W        W99720   0.433  21.963   0.483
27995W        W99721  21.514   8.089  11.956
27996W        W99722  25.180   4.645   3.552
27997W        W99723   0.004  35.100  11.214
27998W        W99724  25.749  35.138   4.016
27999W        W99725  27.640   4.830   2.696
28000W        W99726  24.364   8.244   2.877
28001W        W99727  19.102   4.728   0.021
28002W        W99728  30.657  42.426   1.448
28003W        W99729  22.234   5.327   1.608
28004W        W99730  24.191   8.939  11.170
28005W        W99731  18.461  35.391  12.367
28006W        W99732  32.529  27.919   3.607
28007W        W99733  19.262   6.506   0.057
28008W        W99734   1.955  12.801   2.927
28009W        W99735  42.026  30.396   1.599
28010W        W99736  38.527   3.574  13.436
28011W        W99737  19.035  30.109  11.641
28012W        W99738  35.495  16.358   2.699
28013W        W99739  15.606  31.877   4.074
28014W        W99740   9.343  12.784   0.007
28015W        W99741  24.547  17.270   4.779
28016W        W99742  41.845  38.807   3.398
28017W        W99743  13.825  43.482  14.939
28018W        W99744  14.269  17.244  11.030
28019W        W99745  24.052  17.092  12.449
28020W        W99746  27.212  29.564   4.540
28021W        W99747  30.670  28.791  13.434
28022W        W99748  30.293  22.110  11.736
28023W        W99749  15.655  15.632   4.166
28024W        W99750  29.566  26.364   1.763
28025W        W99751  40.791  44.238  13.370
28026W        W99752  10.529   3.466  11.922
28027W        W99753  21.656  32.883  11.481
28028W        W99754  38.378   2.337  14.810
28029W        W99755  36.172  20.562   4.430
28030W        W99756   2.499  28.539   0.886
28031W        W99757   5.819  28.780   2.258
28032W        W99758  34.759   2.345  14.731
28033W        W99759  44.219  29.994  12.128
28034W        W99760  29.446  42.130   0.708
28035W        W99761   3.611  22.622   4.239
28036W        W99762   7.896  41.368  12.970
28037W        W99763  33.621  44.894  10.541
28038W        W99764  34.003  18.165  10.635
28039W        W99765  34.059  19.686  12.617
28040W        W99766  22.115  30.821   3.212
28041W        W99767  14.909  35.382   4.618
28042W        W99768   3.032   4.236  12.036
28043W        W99769  25.013   4.173  13.304
28044W        W99770  26.620  10.874  10.273
28045W        W99771  10.921  21.022   4.351
28046W        W99772   8.849  18.559   1.865
28047W        W99773  24.268  38.438  11.194
28048W        W99774  29.051  30.816  10.989
28049W        W99775   2.958  33.434   0.055
28050W        W99776  16.992   9.452  12.175
28051W        W99777  14.408  27.419  13.006
28052W        W99778  19.848  23.640   0.207
28053W        W99779  18.805  14.627   4.155
28054W        W99780  41.960   9.145  11.285
28055W        W99781  20.219  13.207  12.963
28056W        W99782  41.105  29.732  11.588
28057W        W99783  30.090   9.325   1.987
28058W        W99784   2.872  25.147   3.033
28059W        W99785  31.606  25.493   2.637
28060W        W99786   1.655  29.820   5.135
28061W        W99787  17.849  38.577   5.047
28062W        W99788  25.117  32.407   1.344
28063W        W99789  39.785   9.299   3.811
28064W        W99790  20.163  37.829   1.889
28065W        W99791  30.564  40.946  11.357
28066W        W99792  10.793   1.677  14.034
28067W        W99793   8.380  14.172   3.425
28068W        W99794  32.010  23.712   2.466
28069W        W99795   9.091  43.368  13.548
28070W        W99796  28.955  42.536   1.330
28071W        W99797  44.721   6.689   0.681
28072W        W99798  21.592  34.656  13.734
28073W        W99799   4.166  14.350  11.517
28074W        W99800  19.996  16.758   4.282
28075W        W99801   2.428  33.430   0.716
28076W        W99802  26.394   4.795   1.035
28077W        W99803  24.729   3.476  12.068
28078W        W99804  28.101  27.572  12.272
28079W        W99805  29.213  14.812   1.929
28080W        W99806   5.552  32.262   4.516
28081W        W99807   3.668  14.639  13.808
28082W        W99808   3.432   1.209  13.306
28083W        W99809  44.746  27.767  13.466
28084W        W99810  42.122  17.794  13.448
28085W        W99811   9.250   8.625   2.102
28086W        W99812  32.121  41.173  11.949
28087W        W99813  28.231  41.020  11.627
28088W        W99814  10.095  10.768  10.893
28089W        W99815  39.596  25.660   3.797
28090W        W99816  22.023  17.826   2.630
28091W        W99817  22.939  32.136  13.451
28092W        W99818  36.610  27.465  14.855
28093W        W99819   8.848  23.514  10.744
28094W        W99820  43.368   4.856  13.974
28095W        W99821  16.284  31.416   0.006
28096W        W99822  27.949   4.036  14.670
28097W        W99823  39.492   2.178  13.813
28098W        W99824  35.419  15.108   0.453
28099W        W99825  18.702  25.433   3.229
28100W        W99826  43.945  21.491   1.672
28101W        W99827  13.340  33.412   1.052
28102W        W99828  34.359   6.230   4.497
28103W        W99829  27.686  31.063   0.819
28104W        W99830  14.026  38.872  11.198
28105W        W99831  14.250  17.472   5.095
28106W        W99832   0.348  10.835   0.530
28107W        W99833   6.659  33.794   4.211
28108W        W99834   8.840  15.102   3.317
28109W        W99835  17.655  44.582   2.808
28110W        W99836   4.811   0.300   2.149
28111W        W99837   4.892   7.427  12.994
28112W        W99838  19.080  25.030   0.181
28113W        W99839  27.046   6.404  14.470
28114W        W99840  35.399  21.475   2.325
28115W        W99841   7.690   1.375   4.667
28116W        W99842  41.558  25.170  14.157
28117W        W99843  40.813   1.174   3.353
28118W        W99844  29.973  17.273   0.576
28119W        W99845  29.686  34.363  14.005
28120W        W99846  35.382   2.872   4.226
28121W        W99847   4.948  35.640  13.541
28122W        W99848  24.490  37.409  13.760
28123W        W99849  16.540  31.993  10.288
28124W        W99850  11.415  14.666  14.474
28125W        W99851  40.018  35.991  12.423
28126W        W99852  20.312   6.283   4.636
28127W        W99853  12.649  14.724  14.441
28128W        W99854   0.483   4.181   2.663
28129W        W99855   7.314  26.253  11.142
28130W        W99856  11.432  35.718  11.759
28131W        W99857  30.634  28.578   1.932
28132W        W99858  40.047  40.924  13.090
28133W        W99859  34.975   1.843  14.282
28134W        W99860   3.019  35.363   1.929
28135W        W99861  10.613  16.530  14.317
28136W        W99862  30.216  17.066   4.460
28137W        W99863  15.580  24.553   3.865
28138W        W99864  30.335   1.820   1.481
28139W        W99865  29.699  11.637   0.945
28140W        W99866  44.653  29.359   3.687
28141W        W99867  35.505  39.546  13.466
28142W        W99868  30.349  34.335   3.804
28143W        W99869  16.731   0.022   2.736
28144W        W99870  28.116   9.878  12.965
28145W        W99871  38.511  20.582   2.293
28146W        W99872   2.681  22.372  12.514
28147W        W99873  35.646  36.346   0.245
28148W        W99874  20.169  25.617  14.448
28149W        W99875  41.622  37.992  11.220
28150W        W99876  37.844   7.236   2.609
28151W        W99877  35.331  32.480   1.685
28152W        W99878  39.046  10.879   4.610
28153W        W99879  13.946   4.880   0.291
28154W        W99880   8.809   9.923   4.291
28155W        W99881  12.556  15.224   0.030
28156W        W99882  40.131  21.507  12.110
28157W        W99883  29.049  12.364  14.353
28158W        W99884  11.839  40.461   3.360
28159W        W99885   9.250  37.055  14.973
28160W        W99886  25.318  26.668  12.719
28161W        W99887  24.476  42.365   0.847
28162W        W99888  39.818  25.284   1.476
28163W        W99889  42.338  13.874   1.910
28164W        W99890  28.807  25.633   4.830
28165W        W99891   6.448  14.643  11.125
28166W        W99892  12.816   0.311  10.716
28167W        W99893  27.982  30.530  12.143
28168W        W99894  34.169  20.095   0.255
28169W        W99895  10.944  17.793   1.864
28170W        W99896  43.716   1.388   2.627
28171W        W99897  14.691  23.054   4.680
28172W        W99898   9.884  35.603   3.176
28173W        W99899  13.788  21.956   3.588
28174W        W99900   4.763  31.588   4.554
28175W        W99901   6.823  10.233   0.416
28176W        W99902   7.680  27.020   3.851
28177W        W99903  28.679  16.555   1.867
28178W        W99904  37.065  44.370  13.361
28179W        W99905   5.982  39.033   1.865
28180W        W99906   3.785  32.161   3.074
28181W        W99907  37.772  19.203   0.984
28182W        W99908  40.958  43.531   3.692
28183W        W99909   4.220  22.291   3.137
28184W        W99910  43.791  36.989  10.768
28185W        W99911   7.897  14.891   1.238
28186W        W99912  41.068   1.328   0.199
28187W        W99913   5.725  16.564  14.995
28188W        W99914  23.574  38.652  12.029
28189W        W99915  22.241  15.108   1.439
28190W        W99916  11.134  33.369  12.390
28191W        W99917  32.897  39.161   0.931
28192W        W99918  42.058  32.336  13.002
28193W        W99919  40.369  27.625   4.101
28194W        W99920  37.005  27.422   1.949
28195W        W99921   6.116  41.972  13.837
28196W        W99922  35.783   6.178  13.132
28197W        W99923  23.310   3.940  13.647
28198W        W99924   3.872   4.913  14.463
28199W        W99925  41.209  43.467  12.138
28200W        W99926  32.211  30.425  12.654
28201W        W99927   5.592   7.260  12.122
28202W        W99928  13.294  26.820   3.656
28203W        W99929  25.183  38.700   3.134
28204W        W99930  17.528  23.501   3.644
28205W        W99931  30.522  17.403   2.302
28206W        W99932  13.823  41.298  11.393
28207W        W99933   6.899  22.492  12.464
28208W        W99934  12.317   1.835   0.446
28209W        W99935  10.226  14.440   4.517
28210W        W99936   8.004  13.141   3.100
28211W        W99937   8.878  16.261   3.412
28212W        W99938  29.621   3.716  14.834
28213W        W99939  38.842  32.515  12.036
28214W        W99940  40.570   2.293   0.243
28215W        W99941  20.568  10.814  11.483
28216W        W99942   9.217  14.497  10.685
28217W        W99943  37.251   3.783  14.841
28218W        W99944  12.827  41.158   3.874
28219W        W99945  36.951  31.468   2.663
28220W        W99946  13.658  28.107  13.781
28221W        W99947  20.581  22.883  12.898
28222W        W99948  36.009  24.207   1.392
28223W        W99949  11.689   3.204   2.248
28224W        W99950  26.589  39.367   0.284
28225W        W99951  27.160  33.358  12.982
28226W        W99952  37.345  42.848   4.037
28227W        W99953  43.942  26.145  13.121
28228W        W99954  17.346  17.754  14.565
28229W        W99955   2.382  11.609   0.548
28230W        W99956  10.390  16.826  10.560
28231W        W99957  43.931  42.325  13.531
28232W        W99958  44.892  44.294   0.415
28233W        W99959  25.541  33.167  12.004
28234W        W99960  42.776  10.314   0.510
28235W        W99961   9.882  11.063  10.511
28236W        W99962  43.968  38.310  11.088
28237W        W99963   9.638  25.252   3.319
28238W        W99964  10.327  23.767  14.415
28239W        W99965  12.579   7.201  11.127
28240W        W99966  40.457  36.287  14.365
28241W        W99967  36.877  44.265   3.584
28242W        W99968  33.394  21.717   2.719
28243W        W99969  19.284   0.090  14.283
28244W        W99970  17.167  23.744  12.799
28245W        W99971   3.937  36.242  11.276
28246W        W99972  17.740   5.269  13.329
28247W        W99973  40.526  11.247  14.690
28248W        W99974  35.218  10.731  11.950
28249W        W99975  12.875  19.090  14.990
28250W        W99976   8.179   9.246   0.357
28251W        W99977  12.130  31.987   2.897
28252W        W99978   2.039   4.343   0.859
28253W        W99979  10.729  37.627   2.761
28254W        W99980   1.420  41.351  12.910
28255W        W99981   2.433  38.347   3.571
28256W        W99982  24.055  36.205  13.396
28257W        W99983  27.944  40.532  12.474
28258W        W99984  10.440   5.241   2.236
28259W        W99985  15.526  21.176  13.387
28260W        W99986  17.278  34.164  11.514
28261W        W99987  40.722   4.749  14.259
28262W        W99988  36.074  29.930  11.474
28263W        W99989  10.879  17.558   0.820
28264W        W99990  18.087  33.326   1.975
28265W        W99991   4.731   9.187  13.327
28266W        W99992  25.188  34.986  14.836
28267W        W99993  34.141  22.210  11.949
28268W        W99994   7.730  10.368  12.440
28269W        W99995   8.447  26.805   0.907
28270W        W99996  33.937  29.986  11.681
28271W        W99997  44.970  18.565   4.556
28272W        W99998  38.514  37.006   1.500
28273W        W99999  26.484  14.744  12.115
28274W        W    0   6.786  38.761  13.532
28275W        W    1   8.824  25.979   9.873
28276W        W    2  37.893  44.293  10.119
28277W        W    3   0.884  22.529   1.373
28278W        W    4   9.884  25.562  13.038
28279W        W    5  33.042   9.058   3.065
28280W        W    6  42.193  25.368   2.101
28281W        W    7  29.650  12.830  12.564
28282W        W    8  42.051  22.208   1.238
28283W        W    9  31.525  32.231  12.007
28284W        W   10  43.415   9.290   3.743
28285W        W   11  15.785   6.928  14.493
28286W        W   12  28.948   3.416   0.876
28287W        W   13   0.297  42.308   3.846
28288W        W   14  11.354   0.290  10.615
28289W        W   15  24.116  29.411  12.961
28290W        W   16   0.307  27.532  10.695
28291W        W   17  29.659  11.810  14.855
28292W        W   18  26.932  41.370   4.813
28293W        W   19   3.136  30.094   2.753
28294W        W   20   5.261  36.418   0.243
28295W        W   21  10.593  16.353  10.582
28296W        W   22   7.553  38.926  11.115
28297W        W   23   5.444  41.557  14.421
28298W        W   24  26.105   4.295   2.157
28299W        W   25   9.133  19.589  11.521
28300W        W   26  11.198   9.237   1.617
28301W        W   27  18.126   4.847  11.708
28302W        W   28  29.364  11.758  13.516
28303W        W   29   6.394  39.739  12.509
28304W        W   30  33.394  42.357  14.927
28305W        W   31  41.966  16.176  11.431
28306W        W   32  30.903   5.695   2.018
28307W        W   33  35.463   9.952   4.553
28308W        W   34  37.649  23.147  10.738
28309W        W   35  28.107  18.611   5.037
28310W        W   36  33.255  34.671  10.568
28311W        W   37   7.970  40.251   9.996
28312W        W   38   4.164  20.311  12.406
28313W        W   39  28.390  29.435  14.881
28314W        W   40   3.384  15.086  13.428
28315W        W   41   4.662  25.320   2.136
28316W        W   42  25.113  24.606  11.611
28317W        W   43  17.397  11.598   2.658
28318W        W   44  27.427  35.530  14.893
28319W        W   45  26.666  24.411   2.647
28320W        W   46  26.526  28.231  10.723
28321W        W   47   9.397  43.886  10.623
28322W        W   48   0.737  38.074  12.962
28323W        W   49  43.195  32.540  14.893
28324W        W   50   1.000  11.802   3.034
28325W        W   51  22.789  31.637  11.236
28326W        W   52   3.272  34.484  14.568
28327W        W   53  23.343  37.948  12.469
28328W        W   54  29.897  39.252  13.049
28329W        W   55  30.156  41.615  12.461
28330W        W   56  44.630  18.811  12.119
28331W        W   57  44.946   9.666   4.747
28332W        W   58  35.304  14.250   1.999
28333W        W   59  38.455  19.200  14.720
28334W        W   60  25.423  27.203   3.937
28335W        W   61  42.793  32.493   1.832
28336W        W   62  32.397  25.616  14.846
28337W        W   63  13.188  36.189  11.713
28338W        W   64  21.065  34.669  13.784
28339W        W   65  42.454  14.339  10.744
28340W        W   66  32.666  17.348   0.814
28341W        W   67  24.769  26.653   0.313
28342W        W   68  10.363   4.701   2.178
28343W        W   69  26.045   1.862   2.848
28344W        W   70  10.226  30.579   5.243
28345W        W   71  26.629  30.071   1.981
28346W        W   72  33.874  10.071   0.170
28347W        W   73  33.438  37.947  11.179
28348W        W   74  32.885  37.667  12.925
28349W        W   75  27.980   5.276   0.304
28350W        W   76  26.440  33.725   1.949
28351W        W   77   5.105  30.551   1.306
28352W        W   78   3.534  24.434   2.332
28353W        W   79  24.310   1.528   4.310
28354W        W   80  44.821  22.444   3.252
28355W        W   81  18.094  27.684   2.117
28356W        W   82  42.423  28.853  13.115
28357W        W   83   4.920  22.405   1.285
28358W        W   84  37.484  16.753   0.428
28359W        W   85  29.601  17.791  13.073
28360W        W   86  38.888  30.954  12.048
28361W        W   87  13.896  26.548  14.452
28362W        W   88   1.160  29.810  12.950
28363W        W   89  22.955   5.909   3.296
28364W        W   90  41.220   8.694  12.015
28365W        W   91  35.962  40.063   3.331
28366W        W   92  38.596  42.496  13.296
28367W        W   93  27.650   0.099   9.966
28368W        W   94  29.326  35.325   2.465
28369W        W   95  12.888  35.524   3.563
28370W        W   96  15.684  36.690   4.079
28371W        W   97   5.436  25.470  13.316
28372W        W   98  23.706  20.511  13.072
28373W        W   99  42.919  33.925   0.415
28374W        W  100  30.065   4.882   2.805
28375W        W  101   5.756  40.998   4.780
28376W        W  102  37.150  30.167  13.134
28377W        W  103  44.387  36.408   0.249
28378W        W  104  15.687  36.077  11.593
28379W        W  105  29.898  33.039   2.237
28380W        W  106  36.393  10.438  12.613
28381W        W  107  18.146  14.113   0.585
28382W        W  108   5.159  26.941  14.336
28383W        W  109  12.217  27.150   0.228
28384W        W  110   1.907  24.150  13.919
28385W        W  111   5.861  44.082   4.630
28386W        W  112  14.206   0.652   1.473
28387W        W  113  44.725  12.711  12.625
28388W        W  114  35.975  18.760  14.651
28389W        W  115  39.428  25.208  13.390
28390W        W  116  33.125  13.097   4.968
28391W        W  117  32.045  10.302   1.776
28392W        W  118  38.924  28.130   0.488
28393W        W  119   9.008  12.765  14.277
28394W        W  120  10.993   9.799  12.916
28395W        W  121  40.142  42.402  12.992
28396W        W  122  22.048  20.519  12.054
28397W        W  123  44.251  28.394   3.693
28398W        W  124  21.096  22.323   1.764
28399W        W  125  14.722  39.790  13.031
28400W        W  126   3.564  41.786   1.232
28401W        W  127  35.964  33.585   3.516
28402W        W  128   7.489   0.772   1.209
28403W        W  129   8.837  30.513  11.506
28404W        W  130  42.820  12.092  11.032
28405W        W  131   6.843  11.846   3.190
28406W        W  132  19.607  34.680   5.041
28407W        W  133  12.228  26.547  12.489
28408W        W  134  14.073  28.821   2.912
28409W        W  135   4.099  27.974  14.467
28410W        W  136  41.240  12.666   2.516
28411W        W  137  33.210  13.139  14.099
28412W        W  138  31.864  26.374   4.110
28413W        W  139  16.509  15.309  14.950
28414W        W  140  29.734  34.041  12.667
28415W        W  141  10.735  30.562  13.017
28416W        W  142  29.916  24.965  13.021
28417W        W  143   8.721  22.990  10.790
28418W        W  144  17.178  11.791   2.193
28419W        W  145  39.353  44.234   2.760
28420W        W  146  21.233   6.629   0.154
28421W        W  147  32.164  19.094   4.311
28422W        W  148   1.841   7.072   2.256
28423W        W  149   2.370   1.900   4.104
28424W        W  150  35.790  35.416   4.942
28425W        W  151  19.308  43.990   0.330
28426W        W  152  27.398   8.128   0.318
28427W        W  153  15.806  25.149  14.570
28428W        W  154   4.259  31.125  13.499
28429W        W  155  19.789  40.017   4.113
28430W        W  156  36.935  19.709  12.075
28431W        W  157   1.798  29.979   3.089
28432W        W  158  15.812  39.518  13.375
28433W        W  159   7.257  41.806   3.158
28434W        W  160  44.069  33.136   4.111
28435W        W  161  26.437  31.904  12.369
28436W        W  162  21.945  41.604   4.548
28437W        W  163  42.935  12.577  11.959
28438W        W  164   9.371   1.484  12.043
28439W        W  165  29.351  32.057   0.289
28440W        W  166  43.523  23.659   3.707
28441W        W  167  25.741  37.399   4.181
28442W        W  168   0.028   8.323  10.637
28443W        W  169   6.679  40.012   4.865
28444W        W  170  14.130   5.646   2.419
28445W        W  171  19.545  32.835   3.755
28446W        W  172  41.722   4.841  11.447
28447W        W  173  33.164  37.908  13.338
28448W        W  174  28.473   8.130   2.419
28449W        W  175  19.613   1.644   4.141
28450W        W  176  17.553  11.588   3.669
28451W        W  177   8.240  25.434   1.933
28452W        W  178  38.019  42.918   3.171
28453W        W  179  10.553  12.549   1.125
28454W        W  180  39.834  34.979  14.535
28455W        W  181  25.944   1.980   0.415
28456W        W  182  12.223  28.057   3.779
28457W        W  183  39.287  31.908  11.001
28458W        W  184  34.872  23.398  11.056
28459W        W  185  44.713   3.153   0.254
28460W        W  186   0.918  29.945   3.635
28461W        W  187   2.321  22.543   2.918
28462W        W  188  31.948  18.995  11.974
28463W        W  189   5.625  43.305   3.662
28464W        W  190  36.042  19.527   2.796
28465W        W  191   9.323  16.240   3.776
28466W        W  192  24.045  40.977  11.438
28467W        W  193  11.751   7.267  12.928
28468W        W  194  27.609  26.812  12.529
28469W        W  195  32.815  30.513  11.567
28470W        W  196  26.683  43.972   0.010
28471W        W  197   0.794  31.755   1.700
28472W        W  198  23.543  23.720  12.948
28473W        W  199  20.273  27.108   1.507
28474W        W  200  44.414  26.146  12.860
28475W        W  201  27.941  10.737  13.438
28476W        W  202  23.427  36.027   1.144
28477W        W  203  18.149  24.445   2.436
28478W        W  204  37.441   6.166  11.648
28479W        W  205  34.019  19.382   1.901
28480W        W  206  26.211   4.050   3.147
28481W        W  207  34.831  25.148   5.203
28482W        W  208  22.426  38.961   0.476
28483W        W  209  33.479   3.269   1.460
28484W        W  210  18.699  34.736  14.341
28485W        W  211   3.456  34.249   4.246
28486W        W  212  19.501  31.438  14.455
28487W        W  213  41.225  24.832  14.881
28488W        W  214  20.240  17.970   2.758
28489W        W  215  30.626  18.299   4.196
28490W        W  216  41.401  38.430  13.800
28491W        W  217  42.022  19.471  14.841
28492W        W  218  20.205  16.337  13.338
28493W        W  219  30.589   7.343   0.367
28494W        W  220  16.291  13.086   4.626
28495W        W  221  44.062  22.539   3.366
28496W        W  222   0.299  12.828   0.783
28497W        W  223  44.516   8.494  14.425
28498W        W  224  26.652   1.564  13.535
28499W        W  225  10.107  38.058  12.982
28500W        W  226  12.757  16.304   1.594
28501W        W  227  29.008  28.823  14.703
28502W        W  228   5.538  38.314   1.894
28503W        W  229   8.227  24.893  11.592
28504W        W  230  34.986  16.682   4.240
28505W        W  231  10.273  26.254   4.076
28506W        W  232  12.115   4.156   1.059
28507W        W  233   6.220   2.400   3.373
28508W        W  234   8.281  43.377  13.617
28509W        W  235   1.797  31.661   0.992
28510W        W  236  26.559  44.942  14.470
28511W        W  237  18.079  36.685   2.123
28512W        W  238  37.846  27.149  10.594
28513W        W  239  30.957   6.625  13.008
28514W        W  240  20.538  40.933   1.395
28515W        W  241   3.890  18.153  14.878
28516W        W  242  33.734  37.613  12.596
28517W        W  243  40.293  36.784  14.290
28518W        W  244  33.621  16.278   4.153
28519W        W  245  12.141  40.549  14.126
28520W        W  246  18.831  16.115   1.804
28521W        W  247  21.021  19.813   3.343
28522W        W  248   1.373  29.398   1.696
28523W        W  249  39.823  19.000  14.893
28524W        W  250  26.242   3.400   4.655
28525W        W  251  32.967   2.348  11.594
28526W        W  252  43.580  33.291   4.064
28527W        W  253   9.640  12.929   3.073
28528W        W  254  27.473   5.366  13.367
28529W        W  255  39.881  37.985   4.636
28530W        W  256  28.499  25.688   4.235
28531W        W  257  25.068  11.179  11.858
28532W        W  258  42.208   6.772   1.150
28533W        W  259   1.431  17.824   2.453
28534W        W  260  20.181  27.529   1.243
28535W        W  261  24.663  19.828   1.355
28536W        W  262  11.429   7.677  12.279
28537W        W  263  44.824  34.384  13.724
28538W        W  264  20.692  37.902   4.696
28539W        W  265  19.295  30.756  14.829
28540W        W  266   9.312  22.583   3.614
28541W        W  267   7.685  22.722  14.725
28542W        W  268  15.219  13.405   2.850
28543W        W  269  21.207  34.155   0.228
28544W        W  270  12.769  35.971  12.014
28545W        W  271  26.127   5.248  13.610
28546W        W  272  42.637  25.965   1.452
28547W        W  273  41.296   1.270   2.040
28548W        W  274  43.797  37.168   2.768
28549W        W  275   5.507  36.189   3.789
28550W        W  276   2.855  11.677  14.814
28551W        W  277  27.696   7.794   4.790
28552W        W  278  27.526  35.422   2.201
28553W        W  279  26.489   3.901   2.747
28554W        W  280  35.512  31.060   4.227
28555W        W  281  38.568  38.155  14.931
28556W        W  282  24.487  30.392   1.648
28557W        W  283  21.417  16.873  12.482
28558W        W  284  35.589  30.520  10.964
28559W        W  285  34.058  28.647  10.570
28560W        W  286   0.362  29.046  10.370
28561W        W  287  13.793  18.138   4.733
28562W        W  288  35.692  28.065  11.033
28563W        W  289  35.382  28.948   3.211
28564W        W  290  41.470   5.822  12.609
28565W        W  291  41.249   6.915   1.314
28566W        W  292   2.463  44.940   4.358
28567W        W  293  38.011  13.685   1.683
28568W        W  294  19.014   7.850  13.175
28569W        W  295  33.076  19.719   0.590
28570W        W  296  37.504   8.894   2.180
28571W        W  297  39.594  22.181  11.472
28572W        W  298   6.899   2.939   4.064
28573W        W  299   0.714  41.719   2.698
28574W        W  300   7.875  32.781   1.420
28575W        W  301  10.781  32.836  13.489
28576W        W  302  22.681  31.319   0.705
28577W        W  303   0.490  37.155   0.687
28578W        W  304  37.124  12.319   3.285
28579W        W  305  43.437  22.594   1.229
28580W        W  306   6.156  14.909   2.873
28581W        W  307  43.951  12.807  13.850
28582W        W  308   1.165  22.926   4.100
28583W        W  309   4.876  26.822  11.991
28584W        W  310   0.241  24.961   5.126
28585W        W  311  17.303  10.804  12.436
28586W        W  312  21.013  15.325   3.199
28587W        W  313  16.697  32.314  10.705
28588W        W  314  25.146  38.412   2.151
28589W        W  315  21.437  25.073   3.063
28590W        W  316   3.328  22.659   3.624
28591W        W  317  44.230   9.601   1.635
28592W        W  318  33.355  24.555   2.144
28593W        W  319  34.198  32.889  10.965
28594W        W  320  40.847  12.804  11.886
28595W        W  321   0.749  17.008  10.522
28596W        W  322  12.724  32.923   4.187
28597W        W  323  33.906  16.306  13.379
28598W        W  324   8.242  26.029   4.158
28599W        W  325  13.359  38.570  11.092
28600W        W  326  29.857   8.955   0.802
28601W        W  327  18.289  22.662   4.468
28602W        W  328  42.744   4.958  11.655
28603W        W  329  24.925  20.298   1.931
28604W        W  330  39.199  19.609  14.074
28605W        W  331   3.012  15.874   1.266
28606W        W  332  21.469   0.738  14.764
28607W        W  333  23.998  14.808   1.287
28608W        W  334  21.534  12.731  12.920
28609W        W  335  31.590   7.941   4.153
28610W        W  336  33.325  20.702   4.922
28611W        W  337  42.120  33.707  13.961
28612W        W  338  19.174  39.447   1.964
28613W        W  339  35.811  15.900  12.386
28614W        W  340  17.550  11.621  10.535
28615W        W  341  24.416   1.929   1.719
28616W        W  342  30.228  25.100  11.412
28617W        W  343   4.800  14.098  13.685
28618W        W  344   3.687   8.238  14.110
28619W        W  345   3.307  35.036  12.999
28620W        W  346   4.890  30.455   4.669
28621W        W  347  24.647  18.296   3.660
28622W        W  348  44.858   9.837  11.680
28623W        W  349  11.284  19.804  11.011
28624W        W  350  42.311  44.935   3.846
28625W        W  351  14.047   2.877   4.607
28626W        W  352   2.443  39.146  11.471
28627W        W  353  17.561   3.386  14.339
28628W        W  354  24.771  36.548   2.400
28629W        W  355  14.274  25.282   3.593
28630W        W  356  40.207  26.152  14.955
28631W        W  357  34.308  35.506   0.220
28632W        W  358  42.883  19.751  14.323
28633W        W  359  33.513   1.516   1.851
28634W        W  360  30.590  19.070  10.708
28635W        W  361   0.357   5.652   1.360
28636W        W  362  37.720  13.210  14.826
28637W        W  363  33.339  20.323   1.323
28638W        W  364   6.915  37.541  14.646
28639W        W  365  40.875   0.071  12.040
28640W        W  366   4.252  40.978   0.690
28641W        W  367   8.416  28.627   2.390
28642W        W  368  28.637   6.871   4.744
28643W        W  369  21.673   2.483   0.286
28644W        W  370  25.875  25.042   2.365
28645W        W  371  33.153  17.684   4.712
28646W        W  372  31.822  25.973   2.635
28647W        W  373  24.842  43.825   0.896
28648W        W  374  28.165  19.064   2.307
28649W        W  375   7.825  27.940   2.270
28650W        W  376   0.380  19.851   3.676
28651W        W  377  36.349  10.259  13.127
28652W        W  378  18.134  23.709   3.068
28653W        W  379  32.519  39.272  11.552
28654W        W  380  12.772  39.510  11.554
28655W        W  381  40.408  28.200  10.514
28656W        W  382   4.873  10.747   2.327
28657W        W  383  44.813  17.149  13.663
28658W        W  384  41.643   6.158  10.954
28659W        W  385  27.978  44.220  12.671
28660W        W  386  33.803  21.432  12.001
28661W        W  387  25.147  41.322  12.844
28662W        W  388   5.755  37.924   0.627
28663W        W  389   8.939  42.323  11.471
28664W        W  390  29.383  38.382   4.073
28665W        W  391   7.274  22.620   0.379
28666W        W  392  19.677   0.064  13.116
28667W        W  393  12.588  36.626   3.282
28668W        W  394  34.331   2.227  13.832
28669W        W  395   9.870  27.463   3.586
28670W        W  396  15.817  40.375  10.652
28671W        W  397   9.334   2.810  12.312
28672W        W  398  11.340  19.618  14.738
28673W        W  399   4.018  20.306  13.457
28674W        W  400   6.331  10.963  10.179
28675W        W  401  25.657  16.515  12.416
28676W        W  402  13.291  17.491  12.871
28677W        W  403  28.772  22.579   4.918
28678W        W  404  27.895  11.332  13.000
28679W        W  405  36.894  16.026   0.355
28680W        W  406   6.322  29.363   4.622
28681W        W  407  33.073  32.891   0.943
28682W        W  408  24.091  25.004  10.880
28683W        W  409   6.928   2.879  12.951
28684W        W  410   6.407   2.003  14.405
28685W        W  411  13.812  20.011   0.726
28686W        W  412  43.148  35.776   3.775
28687W        W  413  31.639   6.011   3.688
28688W        W  414  44.003  22.696   1.030
28689W        W  415   0.447  40.148  13.891
28690W        W  416  35.856  43.265   1.461
28691W        W  417  17.191  13.883   4.075
28692W        W  418   3.787   4.694  10.938
28693W        W  419   2.289  38.851   0.917
28694W        W  420   9.024   1.394   2.697
28695W        W  421  31.466  38.216   2.818
28696W        W  422   5.832  42.579   2.352
28697W        W  423  29.536  25.468   4.220
28698W        W  424  12.807   3.019   1.341
28699W        W  425  25.994   9.385   1.889
28700W        W  426  16.029  13.737   0.768
28701W        W  427   9.314  17.295   3.470
28702W        W  428   3.234  21.157  10.532
28703W        W  429   1.912   5.847   1.851
28704W        W  430   6.215   4.367   4.658
28705W        W  431  35.973  29.587   2.172
28706W        W  432   7.840   2.930   4.843
28707W        W  433  41.877  32.116  12.558
28708W        W  434  35.014  20.762  13.605
28709W        W  435  35.761  30.159  10.578
28710W        W  436  44.278  34.477   2.133
28711W        W  437  20.676  11.092  14.798
28712W        W  438  31.579  37.346   0.013
28713W        W  439  32.825  32.496   0.488
28714W        W  440  36.751  26.162   3.016
28715W        W  441  11.173  17.846  12.491
28716W        W  442  24.656  11.634   1.276
28717W        W  443  17.114  18.196  14.716
28718W        W  444  28.676  21.587  14.001
28719W        W  445  25.964  12.229  14.241
28720W        W  446  27.728   5.349   2.840
28721W        W  447  15.621  20.539  12.957
28722W        W  448  32.546  30.305  11.952
28723W        W  449  19.327  19.591  10.685
28724W        W  450   3.682  15.740   3.090
28725W        W  451  13.079  17.343  13.492
28726W        W  452  11.924   2.428   2.691
28727W        W  453  42.732  32.157   3.658
28728W        W  454   0.367  26.421   9.991
28729W        W  455  30.413  14.001   0.564
28730W        W  456  36.254  17.568   0.856
28731W        W  457   0.981   1.314   1.372
28732W        W  458  28.386  19.571   2.745
28733W        W  459  22.604  43.587   4.228
28734W        W  460  32.418  11.160   4.541
28735W        W  461  25.974  33.041   3.072
28736W        W  462  32.999  18.656  14.608
28737W        W  463   3.207  22.602   3.102
28738W        W  464  41.384  10.330   4.659
28739W        W  465   6.161  20.147  13.793
28740W        W  466  43.979  18.665   4.808
28741W        W  467  28.628  11.390   1.695
28742W        W  468  36.288  24.669   1.931
28743W        W  469  18.727   4.145   4.131
28744W        W  470  16.693   8.203  12.975
28745W        W  471   4.702  25.865  12.996
28746W        W  472  23.488  36.483  14.117
28747W        W  473  39.057   3.251   3.680
28748W        W  474  29.117  24.905  14.352
28749W        W  475  13.411  37.460   2.321
28750W        W  476  41.491  18.214   0.425
28751W        W  477  27.593   1.283   3.220
28752W        W  478  39.149  12.760   2.273
28753W        W  479  19.068   5.495   1.257
28754W        W  480  22.126  14.648   4.638
28755W        W  481  39.843  43.368  12.343
28756W        W  482  13.999   7.618   2.253
28757W        W  483   3.744  11.367  11.543
28758W        W  484   8.603   0.966  12.125
28759W        W  485  24.924   3.297  10.023
28760W        W  486  39.108   4.472  14.915
28761W        W  487   0.784   7.179  14.492
28762W        W  488  25.278  18.221  10.972
28763W        W  489  21.982   1.740  11.916
28764W        W  490  41.806  33.135   3.635
28765W        W  491  25.213  28.441  13.288
28766W        W  492  44.561  22.287  14.597
28767W        W  493  40.528  13.128   2.144
28768W        W  494  43.949   4.753   2.349
28769W        W  495  11.707  43.849  13.396
28770W        W  496  12.321  33.010   4.542
28771W        W  497   1.402  30.882   3.629
28772W        W  498  20.230  36.572   4.798
28773W        W  499  16.347  37.339   2.118
28774W        W  500  16.091  42.975   4.644
28775W        W  501  41.336  36.991  12.629
28776W        W  502  25.462   3.346  11.191
28777W        W  503  26.730  15.535  12.903
28778W        W  504  26.147  41.333  11.063
28779W        W  505  28.060  16.368   2.679
28780W        W  506   9.354  30.982   0.837
28781W        W  507  13.869   3.797  14.596
28782W        W  508   1.717  31.003  12.961
28783W        W  509  40.408  34.366  12.637
28784W        W  510  17.704  36.272  10.797
28785W        W  511  12.677  10.436   3.861
28786W        W  512  31.723  14.206   1.198
28787W        W  513  32.640  37.760   3.273
28788W        W  514  37.051  30.757  12.193
28789W        W  515  30.927  20.135  14.762
28790W        W  516   9.119   6.381   1.756
28791W        W  517  24.016  25.940  12.019
28792W        W  518  25.190  11.600   1.201
28793W        W  519   8.832  15.937   0.480
28794W        W  520  38.596  40.857  12.007
28795W        W  521  23.020   8.256   2.159
28796W        W  522  25.156   9.849   2.344
28797W        W  523   5.332   9.933  11.773
28798W        W  524   2.810  27.489  13.500
28799W        W  525  35.887  13.754   2.238
28800W        W  526  21.118  13.018  11.038
28801W        W  527   9.126  33.681   0.717
28802W        W  528  17.649   3.721   3.256
28803W        W  529  33.606  33.911   3.634
28804W        W  530  22.045  44.546   4.808
28805W        W  531  27.400  10.144   1.355
28806W        W  532   5.700  14.387   0.974
28807W        W  533   9.859   8.095  13.481
28808W        W  534  22.708  39.269   4.789
28809W        W  535  11.723  32.916   4.170
28810W        W  536  43.791  43.524   2.499
28811W        W  537  42.492   7.157  12.318
28812W        W  538   7.962   0.034   4.513
28813W        W  539   5.259  39.036  12.993
28814W        W  540  12.415  10.412   0.271
28815W        W  541  10.713  37.320  14.027
28816W        W  542   8.637  39.866   2.338
28817W        W  543  32.086  20.238   3.556
28818W        W  544  41.544  24.762  13.848
28819W        W  545   5.148  41.950   3.947
28820W        W  546   0.757   6.272   2.128
28821W        W  547  37.514  17.322  13.421
28822W        W  548  12.089  14.755   4.648
28823W        W  549  29.481  23.132   4.478
28824W        W  550  34.137  24.218   2.260
28825W        W  551  44.456  23.983  10.556
28826W        W  552   6.789  15.473  14.755
28827W        W  553  13.327  15.174  13.354
28828W        W  554  32.217  15.913   1.276
28829W        W  555   0.443  25.086   2.262
28830W        W  556  37.336  31.591  11.023
28831W        W  557  33.198  19.105   0.829
28832W        W  558   0.469  31.437   3.210
28833W        W  559  32.664  16.210  13.005
28834W        W  560  15.775  23.265   3.684
28835W        W  561  31.944  30.686   2.650
28836W        W  562   5.698   5.857  12.125
28837W        W  563  22.145  36.105  13.366
28838W        W  564  40.797  44.256   0.352
28839W        W  565  32.987  11.871   1.277
28840W        W  566  43.381   4.897  12.460
28841W        W  567  33.243  26.990   1.385
28842W        W  568  38.620  14.850  13.727
28843W        W  569  22.836  17.444  10.939
28844W        W  570   3.458   3.208  11.416
28845W        W  571   1.884  30.113   0.806
28846W        W  572   4.952   4.493  13.579
28847W        W  573   5.244  34.692  12.438
28848W        W  574  29.590  39.072   3.816
28849W        W  575  15.976  11.375   3.300
28850W        W  576  42.148  14.645  11.845
28851W        W  577   1.628  20.994  13.999
28852W        W  578  22.233  24.082   2.705
28853W        W  579  23.657   7.664  10.756
28854W        W  580  21.662  33.420   3.855
28855W        W  581  40.940  18.092   1.384
28856W        W  582  19.952  24.625   0.825
28857W        W  583  23.577  40.579   1.686
28858W        W  584  14.833  39.068   0.883
28859W        W  585  26.858  31.401   2.411
28860W        W  586  25.474  36.928   3.271
28861W        W  587  37.852  36.592   3.050
28862W        W  588  18.705  30.858  12.900
28863W        W  589  13.974  21.635  12.589
28864W        W  590  14.700  44.831  11.882
28865W        W  591  23.121  27.501   4.134
28866W        W  592   0.511  25.797  11.073
28867W        W  593  26.180  12.668  13.467
28868W        W  594  34.012  24.735   3.394
28869W        W  595  18.239  43.836  12.455
28870W        W  596  11.889  30.422   0.628
28871W        W  597  42.027  39.107  12.865
28872W        W  598   4.532  10.842   4.597
28873W        W  599  24.505  42.188   4.114
28874W        W  600  21.047  41.545   3.738
28875W        W  601  19.756  17.859   1.286
28876W        W  602  12.370  26.370  13.763
28877W        W  603  42.045  36.607   1.418
28878W        W  604  43.404   7.666   3.659
28879W        W  605  13.289  27.653   4.779
28880W        W  606  33.496   7.788   3.841
28881W        W  607  36.270  34.748  13.547
28882W        W  608  23.154  36.301  12.001
28883W        W  609  22.244  40.397   4.814
28884W        W  610  28.164  42.897  13.033
28885W        W  611   3.972  33.963  14.912
28886W        W  612   9.358   9.835   1.705
28887W        W  613  38.045   9.627   2.215
28888W        W  614  35.796  34.626   4.163
28889W        W  615  19.764   1.756  12.597
28890W        W  616  42.019  33.962   4.293
28891W        W  617  17.378   9.720  11.402
28892W        W  618  23.075  14.773   5.404
28893W        W  619  27.230   6.878  12.881
28894W        W  620  15.643  34.482  14.694
28895W        W  621   6.470   6.895   4.588
28896W        W  622  13.152   9.466   3.861
28897W        W  623  16.231  18.562  13.081
28898W        W  624   7.176  27.433  14.801
28899W        W  625  14.872  33.609   0.287
28900W        W  626   7.388  34.299  10.946
28901W        W  627   8.670  20.035  12.140
28902W        W  628  11.662  13.536   4.133
28903W        W  629  32.314   3.849  14.335
28904W        W  630   0.394  35.510  13.480
28905W        W  631  20.585   4.392  14.106
28906W        W  632  25.005  37.306  12.662
28907W        W  633   3.365   8.247   0.043
28908W        W  634  30.843  41.022   4.092
28909W        W  635  11.013   0.806   0.812
28910W        W  636  16.067  27.153   2.876
28911W        W  637  18.588  34.368   2.351
28912W        W  638  39.091  22.131  11.383
28913W        W  639  25.131   5.583  14.979
28914W        W  640  27.329  28.748  10.213
28915W        W  641  44.114  18.542  13.503
28916W        W  642   8.277   5.721  11.488
28917W        W  643  42.584   4.131   1.924
28918W        W  644  26.680  15.308  12.442
28919W        W  645  34.007  44.258  10.077
28920W        W  646  18.336  24.492  12.887
28921W        W  647   1.920   6.293  12.413
28922W        W  648  10.927  37.098   2.117
28923W        W  649  34.843  40.497   2.688
28924W        W  650  31.574  28.795   4.113
28925W        W  651  21.461  35.287   1.067
28926W        W  652  41.086   1.800   4.329
28927W        W  653   0.906   2.712  14.000
28928W        W  654   2.704  44.177   3.208
28929W        W  655  24.486  15.303  13.095
28930W        W  656  41.451   9.614   3.960
28931W        W  657  20.911  37.887  14.461
28932W        W  658  35.185  11.203   0.423
28933W        W  659  43.787  38.265   1.296
28934W        W  660   6.401  12.756  10.059
28935W        W  661   9.882   4.135  12.972
28936W        W  662  30.422  20.960   2.397
28937W        W  663  38.743  42.000   2.974
28938W        W  664   5.725  36.295   3.331
28939W        W  665  35.352  17.611   0.403
28940W        W  666  30.834   0.814   1.794
28941W        W  667   4.931   5.731   5.027
28942W        W  668  26.961  27.721  11.683
28943W        W  669   5.973   4.427   0.075
28944W        W  670  10.200  11.483  14.776
28945W        W  671   1.073   5.166  11.970
28946W        W  672   2.010  36.900   1.961
28947W        W  673  42.437  35.657  12.625
28948W        W  674  14.220  30.682   4.146
28949W        W  675  28.332  16.993   2.403
28950W        W  676  32.638  12.122   0.861
28951W        W  677  35.012  17.536   2.482
28952W        W  678  41.416  24.302  13.602
28953W        W  679  39.136  32.744  14.279
28954W        W  680   1.301  32.346  14.749
28955W        W  681  20.235  17.338  10.783
28956W        W  682   3.752  21.988   0.860
28957W        W  683  19.155   0.454  14.946
28958W        W  684  10.571   7.300   0.776
28959W        W  685  35.807   1.281   2.138
28960W        W  686  32.535  30.236   3.194
28961W        W  687  26.076  36.793  12.898
28962W        W  688  18.784  29.395   0.777
28963W        W  689  33.474   0.265   3.274
28964W        W  690  37.638  11.371   4.344
28965W        W  691  30.101  38.798   1.352
28966W        W  692   7.870   7.164   2.257
28967W        W  693  38.394   6.624   3.048
28968W        W  694  18.055  13.760   1.020
28969W        W  695  37.583  17.057  11.653
28970W        W  696  11.508  27.104  12.030
28971W        W  697   6.828  25.606   0.828
28972W        W  698  44.356  26.962  10.453
28973W        W  699  42.541  18.692  12.541
28974W        W  700  42.041   1.859   2.799
28975W        W  701  12.288  40.276   3.536
28976W        W  702   4.313  34.472   0.807
28977W        W  703  38.547  22.220   3.816
28978W        W  704   8.653  30.970  11.254
28979W        W  705  15.268  36.312   2.922
28980W        W  706  40.106  10.878   4.130
28981W        W  707  12.874  21.963  13.469
28982W        W  708   7.820  20.698  13.038
28983W        W  709   6.323  21.747  11.640
28984W        W  710   2.841  19.027  11.938
28985W        W  711   8.032  44.788   0.771
28986W        W  712  24.784  37.874  10.507
28987W        W  713  21.055  17.655   0.252
28988W        W  714   1.107  31.940  11.420
28989W        W  715  20.098  37.948   3.377
28990W        W  716  30.139  42.295   3.618
28991W        W  717  28.530  19.964  12.495
28992W        W  718  13.364  41.246   3.151
28993W        W  719   4.257  24.707   4.525
28994W        W  720  22.581  28.978   3.795
28995W        W  721  20.102  19.265  12.605
28996W        W  722  33.334  17.307   9.808
28997W        W  723  40.505  13.806  11.142
28998W        W  724  14.083  40.789   0.912
28999W        W  725  19.015  22.081  13.857
29000W        W  726  36.055   9.835   1.197
29001W        W  727   4.453  15.139   0.341
29002W        W  728  40.155  19.607   2.386
29003W        W  729  24.114  17.141   4.523
29004W        W  730  43.351  20.704  14.573
29005W        W  731  31.985  29.972   1.330
29006W        W  732  25.522  14.631   1.610
29007W        W  733  29.883  23.602   0.730
29008W        W  734  27.967   1.854  13.041
29009W        W  735   0.127  36.108  12.911
29010W        W  736  12.372  41.123   3.659
29011W        W  737   1.190   1.768   1.530
29012W        W  738  34.128   8.187  12.991
29013W        W  739  43.491  26.950  13.635
29014W        W  740  41.288  29.438  10.692
29015W        W  741  28.277  29.921   4.419
29016W        W  742  39.905  31.646   4.460
29017W        W  743  35.182  40.005  14.063
29018W        W  744  43.344  18.984   1.195
29019W        W  745  41.941  33.897   1.249
29020W        W  746   7.087  23.628  12.957
29021W        W  747  43.029  39.115   2.763
29022W        W  748  30.455  44.924   3.615
29023W        W  749   7.473  12.939   3.737
29024W        W  750   4.868  16.811   4.874
29025W        W  751  36.875   4.420   0.421
29026W        W  752   2.100  18.491   2.835
29027W        W  753  15.798  23.744   3.835
29028W        W  754  24.110   7.943   0.891
29029W        W  755  29.275  25.620   2.313
29030W        W  756  36.447  11.277   4.437
29031W        W  757   4.332  21.263  12.331
29032W        W  758   3.377  22.843   4.886
29033W        W  759  31.984  40.015   3.796
29034W        W  760  27.959  31.156   3.294
29035W        W  761   5.861  40.964  13.082
29036W        W  762   5.488   8.705  14.479
29037W        W  763  16.934   2.402  10.406
29038W        W  764   9.279  29.737   1.762
29039W        W  765   5.405  38.857   0.267
29040W        W  766  12.683   4.686   3.725
29041W        W  767  30.419  25.019  13.881
29042W        W  768  21.663  21.695   3.747
29043W        W  769   9.852  34.303   0.042
29044W        W  770   3.436  39.991   0.333
29045W        W  771   2.319  30.886   3.698
29046W        W  772  32.378   1.845   2.210
29047W        W  773  38.816  43.388   0.295
29048W        W  774  41.826  23.163   3.808
29049W        W  775   5.109   6.463   1.980
29050W        W  776   4.279   5.646  14.542
29051W        W  777  31.975  34.518  13.446
29052W        W  778  41.323  42.399   3.711
29053W        W  779  27.385   9.941   3.228
29054W        W  780  31.190  41.975   2.597
29055W        W  781  33.470  20.960   3.132
29056W        W  782  29.608   9.233   0.446
29057W        W  783  12.766  11.123   2.686
29058W        W  784  12.422   6.058   1.756
29059W        W  785  16.050  10.160  11.651
29060W        W  786  38.505   0.464   3.894
29061W        W  787   0.821   5.678  14.348
29062W        W  788   3.139  38.368  14.534
29063W        W  789  44.723  31.917   4.293
29064W        W  790  29.680   2.970  11.069
29065W        W  791  38.480  39.362  14.467
29066W        W  792  40.311   4.461   0.898
29067W        W  793  15.173  39.618   1.641
29068W        W  794  36.803   5.816   1.359
29069W        W  795  40.430  22.268   3.251
29070W        W  796  16.724  11.657  14.805
29071W        W  797  24.220  14.247  11.625
29072W        W  798   4.048  25.627   3.294
29073W        W  799  35.931  25.956   0.949
29074W        W  800  23.047  30.656   1.744
29075W        W  801  11.191   2.757   4.215
29076W        W  802  33.040   5.479  11.554
29077W        W  803   1.316  32.623  12.053
29078W        W  804  25.634  19.738  14.455
29079W        W  805   2.014  20.693   3.086
29080W        W  806  23.044   5.162  10.688
29081W        W  807  12.378   6.322  14.867
29082W        W  808  35.451   5.013   1.311
29083W        W  809  12.672   4.957   0.438
29084W        W  810   5.265  20.070   3.323
29085W        W  811  28.539   6.463   3.223
29086W        W  812   2.238  15.345   0.304
29087W        W  813  20.508   7.739   2.695
29088W        W  814  14.520   5.335   1.236
29089W        W  815  40.568  22.548   0.830
29090W        W  816  30.935  44.239   3.806
29091W        W  817   5.213   5.735  10.478
29092W        W  818  13.653  13.176   1.793
29093W        W  819  26.554   6.354  13.561
29094W        W  820   2.725  21.485   4.632
29095W        W  821  25.097   8.141   2.313
29096W        W  822   1.454  32.415   3.681
29097W        W  823  15.316   0.716  12.841
29098W        W  824   5.732   8.272   4.732
29099W        W  825  44.359  30.595  13.036
29100W        W  826  38.527  42.913   2.008
29101W        W  827  43.203   4.723   2.795
29102W        W  828  43.864  15.627   0.477
29103W        W  829  35.639  30.099  11.255
29104W        W  830  42.192  39.549   2.711
29105W        W  831   5.198  13.592  11.980
29106W        W  832   8.644  18.589  12.920
29107W        W  833  44.770  26.684   2.795
29108W        W  834  18.012  29.925   1.143
29109W        W  835  10.211  24.503   3.816
29110W        W  836   6.561  18.896   2.684
29111W        W  837  40.201   7.317  12.396
29112W        W  838   7.794  33.514  12.019
29113W        W  839   9.011  19.117   0.194
29114W        W  840  29.667  21.047  13.369
29115W        W  841  32.898  24.660   0.335
29116W        W  842   9.742  10.809   4.622
29117W        W  843  43.329  23.461   0.809
29118W        W  844  29.580  20.803  10.731
29119W        W  845  32.327  10.680  12.865
29120W        W  846  44.465  21.418  12.618
29121W        W  847   7.675  35.127  14.845
29122W        W  848   9.817  30.107   4.142
29123W        W  849  11.306  37.031  10.907
29124W        W  850   9.852  12.821  14.938
29125W        W  851  13.050  35.900   0.489
29126W        W  852  17.829   5.219  14.852
29127W        W  853   4.651  17.536   2.859
29128W        W  854  29.768  16.613  11.826
29129W        W  855  33.608  23.325  10.666
29130W        W  856   6.418  31.776   0.297
29131W        W  857  33.874   4.084  14.819
29132W        W  858   1.525   2.180   3.059
29133W        W  859  11.229  23.780   0.701
29134W        W  860  14.665  12.618   0.331
29135W        W  861  39.052  25.226   4.203
29136W        W  862  25.964   9.584  13.493
29137W        W  863  41.438  29.127  13.884
29138W        W  864  19.183  14.803   3.833
29139W        W  865  20.351  41.922   4.056
29140W        W  866  10.388  42.917  10.713
29141W        W  867  22.564  37.362  10.734
29142W        W  868  19.677  11.149  10.660
29143W        W  869  32.401  43.948   4.617
29144W        W  870  29.631  12.090   0.713
29145W        W  871  11.702   4.845   3.578
29146W        W  872  13.281  17.205  11.718
29147W        W  873   6.689   5.644  13.051
29148W        W  874  39.847  29.209   3.265
29149W        W  875   8.249  38.014   4.102
29150W        W  876  21.576   5.390   2.363
29151W        W  877  40.957  38.601   4.697
29152W        W  878   4.119   4.692   1.044
29153W        W  879  42.126  20.303   0.303
29154W        W  880  24.045  17.809   4.027
29155W        W  881   3.557  44.357   1.988
29156W        W  882  22.627  23.771  14.329
29157W        W  883  39.160   6.909  13.474
29158W        W  884  17.504  43.758   3.184
29159W        W  885   5.840  15.735  10.027
29160W        W  886  21.994  42.942   4.119
29161W        W  887  10.876   1.245  14.726
29162W        W  888  31.243  12.350   3.146
29163W        W  889  31.458  37.462   1.441
29164W        W  890  38.434   4.382  12.764
29165W        W  891  25.247   5.655  11.053
29166W        W  892  12.973  31.859  10.223
29167W        W  893  16.745  22.095  13.902
29168W        W  894  25.207  38.832  10.632
29169W        W  895  11.066  40.385   1.914
29170W        W  896  23.978   8.719  14.299
29171W        W  897  25.490  17.549  14.902
29172W        W  898  44.417  30.236   0.302
29173W        W  899  10.837  10.075   3.924
29174W        W  900  23.526  18.810   4.636
29175W        W  901  37.738  41.953   2.697
29176W        W  902  13.970   6.813   4.815
29177W        W  903   4.006  34.451   2.300
29178W        W  904  36.511  25.481   2.326
29179W        W  905  32.093  20.211   4.069
29180W        W  906  11.796  19.801  12.035
29181W        W  907   4.769   9.765   3.833
29182W        W  908  19.096  22.151  11.539
29183W        W  909  42.084  39.040   2.756
29184W        W  910  28.330  43.297   2.873
29185W        W  911  44.288  42.312   4.263
29186W        W  912  19.632  43.072   2.721
29187W        W  913  16.155   8.585  10.999
29188W        W  914  41.299   8.335  11.215
29189W        W  915  22.063  20.033  11.877
29190W        W  916   8.406  18.710  12.068
29191W        W  917  10.898  32.638  13.959
29192W        W  918   3.312  37.958   2.951
29193W        W  919  23.084  36.613  12.409
29194W        W  920  32.665   9.000   2.725
29195W        W  921   3.259  22.944   2.255
29196W        W  922   2.996  15.154   4.952
29197W        W  923  30.368  18.808   2.199
29198W        W  924  44.914  10.109  11.211
29199W        W  925  23.914  14.778   4.205
29200W        W  926  31.956   8.615  10.783
29201W        W  927   3.584  27.764   4.158
29202W        W  928   6.831  30.641   4.605
29203W        W  929  36.072  26.025   0.240
29204W        W  930   5.462  33.537   0.298
29205W        W  931  38.532  43.655   4.320
29206W        W  932  23.977  34.385  11.217
29207W        W  933  40.882  14.032  11.709
29208W        W  934   7.768  21.088  10.270
29209W        W  935  28.595  18.686   3.894
29210W        W  936  13.545  27.647  11.459
29211W        W  937  20.006  31.111  11.548
29212W        W  938  26.814   1.822   9.957
29213W        W  939   2.857  32.419  13.372
29214W        W  940  14.910   2.012  13.420
29215W        W  941  35.767  23.245   3.677
29216W        W  942  30.606  12.256   2.753
29217W        W  943  26.256  35.846  14.899
29218W        W  944  22.699  13.354   1.285
29219W        W  945   8.239  39.108   1.632
29220W        W  946   8.343  21.334  14.770
29221W        W  947  40.124  29.666   3.302
29222W        W  948  11.871  41.371   2.339
29223W        W  949  12.509  27.581   0.198
29224W        W  950   8.299  40.932  14.879
29225W        W  951  17.494   1.311   4.269
29226W        W  952  20.699  25.523   0.517
29227W        W  953   0.143  17.613   4.039
29228W        W  954  41.801  11.137  14.363
29229W        W  955  31.497  25.964   3.045
29230W        W  956  33.564  11.145   1.296
29231W        W  957  10.128  38.682  14.857
29232W        W  958  42.632   0.465  10.538
29233W        W  959   3.329   5.826   2.410
29234W        W  960  11.431  41.466  13.018
29235W        W  961  40.514  27.705   2.654
29236W        W  962  12.684  24.485  14.402
29237W        W  963  34.800  20.356  12.883
29238W        W  964  24.064  32.168   4.712
29239W        W  965  25.103  22.985  10.709
29240W        W  966  30.928  23.948   4.105
29241W        W  967  31.498  20.406   1.853
29242W        W  968  17.177  34.129   3.670
29243W        W  969   8.496   9.766  12.405
29244W        W  970  13.855  26.676   3.335
29245W        W  971   2.201  42.352  13.870
29246W        W  972  32.237  43.537  13.868
29247W        W  973  26.611   5.729   4.248
29248W        W  974  34.862  25.526   1.285
29249W        W  975  37.832  22.558  14.056
29250W        W  976  43.854  30.424  12.849
29251W        W  977   2.022  13.801  12.201
29252W        W  978  40.771  40.005   0.853
29253W        W  979  39.331  14.067   4.553
29254W        W  980  24.979  40.975   3.877
29255W        W  981  28.545   0.826   4.544
29256W        W  982   8.688  41.991  12.038
29257W        W  983  16.711  33.260   1.715
29258W        W  984  38.578  10.191  11.445
29259W        W  985   4.908  38.047  14.418
29260W        W  986  27.639  23.484   2.711
29261W        W  987  22.389  11.668  12.305
29262W        W  988   8.785  24.206  12.571
29263W        W  989  28.947  11.517   0.284
29264W        W  990  34.962  27.740  10.610
29265W        W  991  20.082  40.392  10.330
29266W        W  992   4.414  20.426  14.278
29267W        W  993   0.994   8.475  14.972
29268W        W  994  32.420  10.207   4.391
29269W        W  995  23.085  29.730   3.189
29270W        W  996   5.100  32.009   2.837
29271W        W  997  18.352  30.620  11.659
29272W        W  998  10.448  25.880  11.729
29273W        W  999  43.083   8.858   2.521
29274W        W 1000  31.528  36.528   1.767
29275W        W 1001  27.019  28.139  13.879
29276W        W 1002  35.498   5.179  13.497
29277W        W 1003   1.433  16.097   2.378
29278W        W 1004   3.452  11.707  11.769
29279W        W 1005  37.411   0.065  11.343
29280W        W 1006  24.286  40.881   2.291
29281W        W 1007  42.473  22.084   0.439
29282W        W 1008   9.441  44.279  11.562
29283W        W 1009  25.882  42.085   0.205
29284W        W 1010  40.462   4.454  10.939
29285W        W 1011  33.182  41.642   5.380
29286W        W 1012  26.407  21.801  11.639
29287W        W 1013  11.392  31.935   0.829
29288W        W 1014  31.972  20.838  11.521
29289W        W 1015  32.792  42.778   1.269
29290W        W 1016  39.993   8.618  11.197
29291W        W 1017   2.962   3.055   1.297
29292W        W 1018   5.752  17.364   0.307
29293W        W 1019  11.909  14.338  14.275
29294W        W 1020   3.980  39.950  14.487
29295W        W 1021  33.844  15.600   0.818
29296W        W 1022  24.129  38.790   5.246
29297W        W 1023  27.701  40.031  12.506
29298W        W 1024  42.605  18.547  10.301
29299W        W 1025   2.145  42.869   0.761
29300W        W 1026  12.051  13.808  12.836
29301W        W 1027  37.549  22.321  10.312
29302W        W 1028  21.046   6.800  13.921
29303W        W 1029  24.924  44.111   0.015
29304W        W 1030  11.201  11.375  12.114
29305W        W 1031  18.129   8.410   2.664
29306W        W 1032  44.010   1.935   4.615
29307W        W 1033  35.633  26.563  11.102
29308W        W 1034  10.777  35.121  11.947
29309W        W 1035  15.736  41.809  13.881
29310W        W 1036  17.456  12.281  11.859
29311W        W 1037  17.216  32.760  13.326
29312W        W 1038  28.037  27.595  14.201
29313W        W 1039   0.438  13.664  10.552
29314W        W 1040  16.253  16.717   4.529
29315W        W 1041  16.080  16.332  12.051
29316W        W 1042  24.776  33.910  13.276
29317W        W 1043  36.074  35.542  13.309
29318W        W 1044  13.147  29.377   3.509
29319W        W 1045  11.318  35.951   1.753
29320W        W 1046  38.773  21.281   1.953
29321W        W 1047  26.881  30.973   1.217
29322W        W 1048  35.808   9.442  12.137
29323W        W 1049   0.618  15.824   0.458
29324W        W 1050   1.149  17.774   1.787
29325W        W 1051  32.074  38.408  10.672
29326W        W 1052  14.787  15.539   4.680
29327W        W 1053  17.021   9.172   0.440
29328W        W 1054   9.182  36.066  12.589
29329W        W 1055  21.234   1.415   1.252
29330W        W 1056  12.727  23.245  10.590
29331W        W 1057   1.013   8.746   2.434
29332W        W 1058  23.139   8.427  13.523
29333W        W 1059   7.803   4.374   1.999
29334W        W 1060  23.171   9.359   3.244
29335W        W 1061  31.456   6.942   2.625
29336W        W 1062  15.124  10.280  10.187
29337W        W 1063  41.043  39.585   1.531
29338W        W 1064  29.047  31.581  10.562
29339W        W 1065  32.974  16.199   0.842
29340W        W 1066  36.998  15.234  11.989
29341W        W 1067  15.758  21.687   4.014
29342W        W 1068  40.115  27.899   3.667
29343W        W 1069  22.619  38.458  13.866
29344W        W 1070  20.560  19.843   2.709
29345W        W 1071  30.340  30.135  12.113
29346W        W 1072  21.512   3.422  11.856
29347W        W 1073  34.675  25.531   2.796
29348W        W 1074  18.334  43.415  11.533
29349W        W 1075  32.502  41.129   0.918
29350W        W 1076  16.777  24.879   3.316
29351W        W 1077  43.215  29.063  14.413
29352W        W 1078   2.911  17.761   1.246
29353W        W 1079   3.830  27.109  11.528
29354W        W 1080  30.087  33.028  14.727
29355W        W 1081  26.983   9.422   4.546
29356W        W 1082  17.783  21.174  14.494
29357W        W 1083  24.705  21.423   4.463
29358W        W 1084  16.369  37.361  12.511
29359W        W 1085   1.958  43.761   4.506
29360W        W 1086  23.319  44.230  10.501
29361W        W 1087  35.988  39.380   4.136
29362W        W 1088  39.059  38.888   2.850
29363W        W 1089   7.186  28.806  13.501
29364W        W 1090  20.538  44.847   4.091
29365W        W 1091   4.636  14.194  11.658
29366W        W 1092  24.031  30.167  11.574
29367W        W 1093  37.028  24.240   4.087
29368W        W 1094   9.801   6.003  14.354
29369W        W 1095   4.302  27.387   3.035
29370W        W 1096   3.695  43.401   1.334
29371W        W 1097   2.956   6.755   1.684
29372W        W 1098  37.602   3.254   4.435
29373W        W 1099  35.352   6.217  13.390
29374W        W 1100  44.081   4.031  11.122
29375W        W 1101   2.489  21.950   4.610
29376W        W 1102  25.623   8.805  10.442
29377W        W 1103  21.224   2.282   4.758
29378W        W 1104  40.648  19.575   4.621
29379W        W 1105  36.835  27.946  14.886
29380W        W 1106  13.418  28.571  13.658
29381W        W 1107  10.254  33.665   9.863
29382W        W 1108   4.857  10.110  11.913
29383W        W 1109   4.061  10.621  12.885
29384W        W 1110  41.702  21.483   2.870
29385W        W 1111  38.176  30.492  14.838
29386W        W 1112  16.056  41.407   0.756
29387W        W 1113  41.845  20.750   0.360
29388W        W 1114  42.154  42.049   3.149
29389W        W 1115   9.706  36.540  12.606
29390W        W 1116   2.776  25.689  12.040
29391W        W 1117  14.959  10.610  11.053
29392W        W 1118  18.490  18.113  13.852
29393W        W 1119  30.588   4.444  10.675
29394W        W 1120  20.156  21.934   4.772
29395W        W 1121  41.738   9.985  11.591
29396W        W 1122  28.743  25.493   9.707
29397W        W 1123   8.004   1.978   1.323
29398W        W 1124   6.522  23.751   2.454
29399W        W 1125  42.451  41.052  13.064
29400W        W 1126  38.400  14.368  11.123
29401W        W 1127  37.985   0.613   3.106
29402W        W 1128  27.118  34.163  13.470
29403W        W 1129  15.546   6.877   4.262
29404W        W 1130   6.141  40.725  13.490
29405W        W 1131  40.658  21.246   5.129
29406W        W 1132   1.242   9.250   4.529
29407W        W 1133   4.979  20.768   4.116
29408W        W 1134   8.299   2.739   3.656
29409W        W 1135  37.096  43.917   1.330
29410W        W 1136  18.241  23.726  12.112
29411W        W 1137  16.586  13.256  10.921
29412W        W 1138  30.569  19.781   3.269
29413W        W 1139   3.966   3.335   1.133
29414W        W 1140  11.284  18.753  14.550
29415W        W 1141  33.216  30.423   0.083
29416W        W 1142  38.853  10.348  10.335
29417W        W 1143  42.421  16.235  11.188
29418W        W 1144  33.554   5.676   3.622
29419W        W 1145  15.266  25.170  10.684
29420W        W 1146  34.702  33.196   2.909
29421W        W 1147  42.001  17.017  11.780
29422W        W 1148  44.847  44.823   4.564
29423W        W 1149  20.494  28.463  11.237
29424W        W 1150  14.064  37.088  13.382
29425W        W 1151  40.157   3.881  14.499
29426W        W 1152  31.004   0.003  10.635
29427W        W 1153  33.488   3.449  14.224
29428W        W 1154  10.703   8.265   4.051
29429W        W 1155   1.782   9.157   4.549
29430W        W 1156  41.510   7.988   0.258
29431W        W 1157  28.646  40.547  14.977
29432W        W 1158  37.752  35.975  11.267
29433W        W 1159   8.392  29.886   3.502
29434W        W 1160  31.060  44.520  13.855
29435W        W 1161  15.221  37.525  13.851
29436W        W 1162  13.945  19.950   2.351
29437W        W 1163  34.525  14.239  13.806
29438W        W 1164   4.983  14.158   5.029
29439W        W 1165  31.102  33.540   1.454
29440W        W 1166   5.369  43.296  11.132
29441W        W 1167   6.887  19.719   4.277
29442W        W 1168  34.055   7.157  12.932
29443W        W 1169  30.769  12.687  13.394
29444W        W 1170  40.869  19.858  11.227
29445W        W 1171  23.891  27.709  14.559
29446W        W 1172  33.341  35.902   0.404
29447W        W 1173  17.762  13.720  11.213
29448W        W 1174  22.243  30.676   1.321
29449W        W 1175  22.015  37.073  14.902
29450W        W 1176  43.213  27.128   2.894
29451W        W 1177  28.525  40.056  14.808
29452W        W 1178  25.336   1.527  11.560
29453W        W 1179  15.642  21.791  10.996
29454W        W 1180  33.546  23.048   4.626
29455W        W 1181  14.329   7.893   0.474
29456W        W 1182   8.164  44.408   1.732
29457W        W 1183   1.412   9.344   1.000
29458W        W 1184  26.009  42.906  11.156
29459W        W 1185  20.049  43.976  13.661
29460W        W 1186  21.580  42.379   0.866
29461W        W 1187  38.981  35.205   2.731
29462W        W 1188  33.586  15.691   1.311
29463W        W 1189  37.020   8.904   3.619
29464W        W 1190  33.636  36.223   4.883
29465W        W 1191  18.704  25.711  14.156
29466W        W 1192  39.851  31.825   0.882
29467W        W 1193  27.920  26.120   1.200
29468W        W 1194  36.016   4.890  11.607
29469W        W 1195  23.513  26.781   1.208
29470W        W 1196  39.929  44.973   4.252
29471W        W 1197  36.883  15.359  11.116
29472W        W 1198   1.372   4.794   0.323
29473W        W 1199  28.123  43.883  12.008
29474W        W 1200  20.489  11.599  14.792
29475W        W 1201  16.523  38.935   2.159
29476W        W 1202  43.402   1.770  12.228
29477W        W 1203  41.805  25.583  13.951
29478W        W 1204  36.550  41.322  14.798
29479W        W 1205  41.994   5.904  10.682
29480W        W 1206  43.372  40.144   3.749
29481W        W 1207  16.566  19.653   0.165
29482W        W 1208   8.867  44.060  11.973
29483W        W 1209  31.641  25.193  14.353
29484W        W 1210  24.647  44.186   9.814
29485W        W 1211  42.075  24.486   0.047
29486W        W 1212   6.937   4.045   3.567
29487W        W 1213  16.194  26.144  13.331
29488W        W 1214   6.012  36.145   3.790
29489W        W 1215  27.475  23.458   1.310
29490W        W 1216  22.980   4.734  10.386
29491W        W 1217  20.216  20.599   0.420
29492W        W 1218  34.295  29.071  11.517
29493W        W 1219  28.134  42.937   4.090
29494W        W 1220  34.974  23.931  13.892
29495W        W 1221  25.363  40.064   2.430
29496W        W 1222  44.542  18.278   3.335
29497W        W 1223  19.619   6.196  11.607
29498W        W 1224   9.854  42.980  11.590
29499W        W 1225  17.018   5.729  12.979
29500W        W 1226  31.068  35.603   0.680
29501W        W 1227  38.037   0.759   0.227
29502W        W 1228  31.090  41.141   1.305
29503W        W 1229  29.428   9.922   1.446
29504W        W 1230  43.932  36.613   0.409
29505W        W 1231  35.371  32.621  10.420
29506W        W 1232  41.228   5.407   4.072
29507W        W 1233  40.856   0.256  14.294
29508W        W 1234  14.367   9.708  13.366
29509W        W 1235  11.538  26.811   0.936
29510W        W 1236  43.749  39.469  12.843
29511W        W 1237  17.664  23.483  13.910
29512W        W 1238  34.141  10.633  14.052
29513W        W 1239  22.328  42.899   3.716
29514W        W 1240  39.338   9.767   2.909
29515W        W 1241   1.643  15.431  11.205
29516W        W 1242  10.310   2.732  11.426
29517W        W 1243  27.821  15.804  12.060
29518W        W 1244  39.403   4.703   3.811
29519W        W 1245  34.876  20.645  12.043
29520W        W 1246  22.285  25.503   4.965
29521W        W 1247  39.355  36.989   2.109
29522W        W 1248  13.587  24.007  14.591
29523W        W 1249  24.806  27.781  14.239
29524W        W 1250  28.713  41.370   0.762
29525W        W 1251  41.536  25.814  12.574
29526W        W 1252   8.951   0.754   5.048
29527W        W 1253  20.860  31.944  10.268
29528W        W 1254  26.523  30.631  13.535
29529W        W 1255  25.279   1.726  11.086
29530W        W 1256  40.844  42.486   4.611
29531W        W 1257   5.216   0.239  12.328
29532W        W 1258  23.497  37.917   2.858
29533W        W 1259   0.858   2.976  12.002
29534W        W 1260  30.328  36.953   3.717
29535W        W 1261  17.444  17.975   2.779
29536W        W 1262   3.756  21.092   2.925
29537W        W 1263  24.083  23.683   1.225
29538W        W 1264  34.509  42.049  11.987
29539W        W 1265  25.445  34.826   1.735
29540W        W 1266  42.568  22.888   3.238
29541W        W 1267  40.791   2.861   1.010
29542W        W 1268  14.111  41.522  14.696
29543W        W 1269   9.990  32.830  10.381
29544W        W 1270  12.650  20.450  10.742
29545W        W 1271  16.518  22.769   3.699
29546W        W 1272  39.518  26.154  11.552
29547W        W 1273   5.935  23.465  11.587
29548W        W 1274  24.714   4.439  10.548
29549W        W 1275  41.552   6.332  12.517
29550W        W 1276  27.492  44.888  14.512
29551W        W 1277   3.342  32.342   0.391
29552W        W 1278  24.972  33.446  13.101
29553W        W 1279   5.893   6.984   9.895
29554W        W 1280  38.274  25.619   4.225
29555W        W 1281  21.547  43.000   1.234
29556W        W 1282  33.824  24.663   4.713
29557W        W 1283   0.843  37.045  11.540
29558W        W 1284  32.950   5.829  11.198
29559W        W 1285  36.030  28.621   2.174
29560W        W 1286  35.716  29.888   2.544
29561W        W 1287   6.916  17.415   4.945
29562W        W 1288  29.184  39.564  12.505
29563W        W 1289  19.551  26.074  11.084
29564W        W 1290  18.496  16.625  12.074
29565W        W 1291  32.414  23.905  11.424
29566W        W 1292  32.124  13.569   2.751
29567W        W 1293  31.945  28.217   0.646
29568W        W 1294  41.995  20.779   4.103
29569W        W 1295   8.529   7.089   5.542
29570W        W 1296  22.712  35.701  14.901
29571W        W 1297  42.281   2.577   3.584
29572W        W 1298   8.077  36.560  14.212
29573W        W 1299  20.558  16.494  14.556
29574W        W 1300   6.469   3.662   4.638
29575W        W 1301  13.530   8.781  11.165
29576W        W 1302  14.187  27.046   0.196
29577W        W 1303   5.300  41.855   1.788
29578W        W 1304  35.698   9.367  11.273
29579W        W 1305  13.629  33.051   3.408
29580W        W 1306  41.642  44.180  14.437
29581W        W 1307  38.856  13.828   3.099
29582W        W 1308  18.132  34.547  14.452
29583W        W 1309  27.120  31.806   2.203
29584W        W 1310  10.817  16.056  12.884
29585W        W 1311   2.417  34.640  13.985
29586W        W 1312  38.308   3.507  13.921
29587W        W 1313  34.987   6.674   0.376
29588W        W 1314   1.343   8.964  13.776
29589W        W 1315  44.229  14.545   4.550
29590W        W 1316  37.857  30.702  12.564
29591W        W 1317  42.381  36.989   1.471
29592W        W 1318   2.536   2.281   1.205
29593W        W 1319  43.254  26.895   4.662
29594W        W 1320  23.890  37.555  12.984
29595W        W 1321  38.190  24.466  11.152
29596W        W 1322  37.054  20.716  13.484
29597W        W 1323  31.522   9.977   3.731
29598W        W 1324  42.940  21.083  13.950
29599W        W 1325  34.986   1.843   2.244
29600W        W 1326  43.251   3.814   4.497
29601W        W 1327  29.686   3.238  10.074
29602W        W 1328  10.724   1.997  10.740
29603W        W 1329  35.447  10.675   2.127
29604W        W 1330  26.937  22.073   2.232
29605W        W 1331  25.714   8.745   2.915
29606W        W 1332  28.514   3.242  12.224
29607W        W 1333  35.001  32.705   2.765
29608W        W 1334  38.656  13.748  10.209
29609W        W 1335   2.165  43.546   3.871
29610W        W 1336  30.226  25.148  10.113
29611W        W 1337  14.724   9.299  13.832
29612W        W 1338  36.979   4.542  13.804
29613W        W 1339  12.293  21.193  11.554
29614W        W 1340  23.586  22.670  14.523
29615W        W 1341  24.049  41.992  12.446
29616W        W 1342  10.881   5.167  14.805
29617W        W 1343  34.818  13.794  14.520
29618W        W 1344  40.264   4.811  12.969
29619W        W 1345   7.436   7.222  11.979
29620W        W 1346  12.123  43.481  12.429
29621W        W 1347  41.876   9.892  13.824
29622W        W 1348  11.277  19.112  14.935
29623W        W 1349  22.801  18.111  13.805
29624W        W 1350   2.893  32.093   0.297
29625W        W 1351   3.336  21.346  10.999
29626W        W 1352  44.462  39.477   2.707
29627W        W 1353  18.666  16.695  12.551
29628W        W 1354  30.554  30.522   2.042
29629W        W 1355  42.489   0.943  14.332
29630W        W 1356  17.167   0.808   1.691
29631W        W 1357   1.327  24.125  14.929
29632W        W 1358  11.218  37.944  14.462
29633W        W 1359  11.649  19.845   1.291
29634W        W 1360  19.600  28.454  13.029
29635W        W 1361  26.126  11.599   1.217
29636W        W 1362  13.761  40.257   2.416
29637W        W 1363  36.329   8.632   3.843
29638W        W 1364  12.859  28.941   4.633
29639W        W 1365  29.094  13.081   4.308
29640W        W 1366  39.507  23.002  13.500
29641W        W 1367  10.658  27.092   4.425
29642W        W 1368  44.878  22.029  14.284
29643W        W 1369  38.463  10.019  13.308
29644W        W 1370   6.879  14.883  12.967
29645W        W 1371  25.480  16.749   3.962
29646W        W 1372   5.159  23.842   3.749
29647W        W 1373  11.576   6.790  14.824
29648W        W 1374  42.792  41.015   2.730
29649W        W 1375  30.672  30.871  10.620
29650W        W 1376  35.616  19.239   2.651
29651W        W 1377  39.806  40.582   1.287
29652W        W 1378  15.871  27.935  11.176
29653W        W 1379  44.871  17.229  14.648
29654W        W 1380  34.729  26.227  13.345
29655W        W 1381   0.697  21.195   4.599
29656W        W 1382  24.487  17.164   2.798
29657W        W 1383  22.290  10.838   3.285
29658W        W 1384  32.256  10.244   0.297
29659W        W 1385  28.848  40.419   1.408
29660W        W 1386  40.801   4.280   1.681
29661W        W 1387   1.439  21.569  14.227
29662W        W 1388  29.875   0.192  13.513
29663W        W 1389  10.094  28.437   3.397
29664W        W 1390  38.797  17.180   2.127
29665W        W 1391   3.909  14.627  14.309
29666W        W 1392  18.951  24.123   0.410
29667W        W 1393  14.085  35.418  13.878
29668W        W 1394  27.473   2.589  12.552
29669W        W 1395  25.048  23.155  12.398
29670W        W 1396  33.105  10.484   2.628
29671W        W 1397  25.348  10.811  12.605
29672W        W 1398  33.555  14.066  13.177
29673W        W 1399  12.274  12.090   1.637
29674W        W 1400  26.441  25.566  14.889
29675W        W 1401   4.430  22.171  11.958
29676W        W 1402  27.739  15.875   5.213
29677W        W 1403  38.227  42.011  10.604
29678W        W 1404   6.141  15.190  14.309
29679W        W 1405  41.222  44.990   2.674
29680W        W 1406  16.072  27.398   1.312
29681W        W 1407  36.524  23.992   2.292
29682W        W 1408  39.200   4.233   2.454
29683W        W 1409  13.619  28.131   0.627
29684W        W 1410  31.410  40.494  12.936
29685W        W 1411  11.692  22.814  12.689
29686W        W 1412  27.722  11.564   2.420
29687W        W 1413  18.487  24.735   2.762
29688W        W 1414   6.453  19.183   0.417
29689W        W 1415   6.565  29.526  14.548
29690W        W 1416  18.979  44.238  13.542
29691W        W 1417  16.978  11.316   4.856
29692W        W 1418  41.270  21.390  14.016
29693W        W 1419  34.922   7.819  10.799
29694W        W 1420  19.185  38.356   4.292
29695W        W 1421  22.645  12.573  14.416
29696W        W 1422  12.323   2.245   2.383
29697W        W 1423  18.222  41.208  14.795
29698W        W 1424  31.490  40.515  10.520
29699W        W 1425  38.033   9.398   3.160
29700W        W 1426  19.907  21.078   5.103
29701W        W 1427  14.775  31.890  11.765
29702W        W 1428  42.103  42.442   0.914
29703W        W 1429   0.985  10.354   3.263
29704W        W 1430  10.482  10.893  11.931
29705W        W 1431  22.080   5.065  11.043
29706W        W 1432  32.324  41.929  12.813
29707W        W 1433  25.307   1.225   5.005
29708W        W 1434  15.251  28.176   2.859
29709W        W 1435  37.095   3.158   3.213
29710W        W 1436  20.703   8.494  10.644
29711W        W 1437  21.158  32.876  14.887
29712W        W 1438  26.168  37.973  11.026
29713W        W 1439  27.857  13.283  10.228
29714W        W 1440  27.581  26.037  14.400
29715W        W 1441  30.870   1.321   2.878
29716W        W 1442  31.583  44.484   4.633
29717W        W 1443   2.827  19.281   1.902
29718W        W 1444  17.852  21.604   0.734
29719W        W 1445  41.997  28.478  13.384
29720W        W 1446  39.494  16.559   1.849
29721W        W 1447  24.911  12.866   1.679
29722W        W 1448   3.348  14.389  12.602
29723W        W 1449  17.328  33.438   1.444
29724W        W 1450   6.727   5.895   2.816
29725W        W 1451  42.002  42.385   2.802
29726W        W 1452  28.030  33.104   2.398
29727W        W 1453  27.077   8.912  12.001
29728W        W 1454  33.837  31.935   2.276
29729W        W 1455  35.513  30.905  12.469
29730W        W 1456  13.096   5.022   3.981
29731W        W 1457  14.870  38.273  12.058
29732W        W 1458   0.985  22.286  11.202
29733W        W 1459  21.614   8.869   1.202
29734W        W 1460   0.919  25.743   2.747
29735W        W 1461   3.632   5.769   4.664
29736W        W 1462  16.295  11.313   2.333
29737W        W 1463   3.729   3.296  10.572
29738W        W 1464  10.333  41.259   3.604
29739W        W 1465  37.651   7.696  11.728
29740W        W 1466  28.562   2.766   2.591
29741W        W 1467  24.474  14.880   0.528
29742W        W 1468  16.737  21.915   0.452
29743W        W 1469  16.997  19.249  11.672
29744W        W 1470  13.261  31.151   1.712
29745W        W 1471  28.891   3.870  11.600
29746W        W 1472  39.388  14.708   2.895
29747W        W 1473  26.734  15.280  11.138
29748W        W 1474  43.541  13.424   1.790
29749W        W 1475   9.111  10.600   3.015
29750W        W 1476  23.555  12.897  11.441
29751W        W 1477   4.709   7.795   3.987
29752W        W 1478  24.675  33.274   1.403
29753W        W 1479  18.356  36.865  12.100
29754W        W 1480  32.662  21.977   1.026
29755W        W 1481  31.608   9.932   4.241
29756W        W 1482  39.382  26.634  12.990
29757W        W 1483  43.277  43.807  11.915
29758W        W 1484  13.063  22.596   0.877
29759W        W 1485  25.035  13.850   2.632
29760W        W 1486   8.850   6.294   2.987
29761W        W 1487  43.860   2.159  14.761
29762W        W 1488  33.702  42.625  12.091
29763W        W 1489  29.155   1.518   0.746
29764W        W 1490  21.497  26.157   1.759
29765W        W 1491   5.917  37.853  11.523
29766W        W 1492  15.839   7.188   1.255
29767W        W 1493   3.037   5.191  11.258
29768W        W 1494   2.323   6.601  13.313
29769W        W 1495  19.159  13.281   4.610
29770W        W 1496  11.181   5.365   1.723
29771W        W 1497   9.260  30.950  14.782
29772W        W 1498  10.206  14.513  11.222
29773W        W 1499  11.893  25.254  14.764
29774W        W 1500  40.065  12.516  11.875
29775W        W 1501  34.031  14.333   2.220
29776W        W 1502  43.956  43.686   4.328
29777W        W 1503  10.664   4.764   2.957
29778W        W 1504  22.251   3.411  13.143
29779W        W 1505  25.403   4.172   0.813
29780W        W 1506  14.308  10.276  14.068
29781W        W 1507   5.503  40.152   2.110
29782W        W 1508   3.398  44.132  14.431
29783W        W 1509  13.287  29.503  14.915
29784W        W 1510  27.421  42.039  12.549
29785W        W 1511  40.977  36.483   2.319
29786W        W 1512  13.738  29.021  12.519
29787W        W 1513   2.516   5.251  12.034
29788W        W 1514  25.533  40.435   0.658
29789W        W 1515  18.910  15.073   2.252
29790W        W 1516  25.172   5.815   4.734
29791W        W 1517  44.334  27.200  11.307
29792W        W 1518  12.750  27.983   0.448
29793W        W 1519   5.408  38.985   1.211
29794W        W 1520  18.073  36.341  10.446
29795W        W 1521  27.583  33.677   0.641
29796W        W 1522  36.440  24.125  10.319
29797W        W 1523  11.926  20.955   0.832
29798W        W 1524  27.553  21.188   2.285
29799W        W 1525  31.130  22.640   2.301
29800W        W 1526  39.323  44.908   0.015
29801W        W 1527  36.958  12.234   2.392
29802W        W 1528  30.024  30.147  13.629
29803W        W 1529  21.683  28.920  13.362
29804W        W 1530  23.265  20.490   2.583
29805W        W 1531  25.525  43.770  10.665
29806W        W 1532  13.853  15.205  14.609
29807W        W 1533   4.604  17.150  10.695
29808W        W 1534  27.960  32.935  14.488
29809W        W 1535  34.850  23.031   4.058
29810W        W 1536   2.718  35.515  11.925
29811W        W 1537  23.709  35.343   1.229
29812W        W 1538  19.555  30.025   1.353
29813W        W 1539  30.433   6.185  13.494
29814W        W 1540  14.996   7.548   3.658
29815W        W 1541  25.818  32.166  14.577
29816W        W 1542  38.715  37.102  13.104
29817W        W 1543  24.787  36.554  12.811
29818W        W 1544  24.186  29.269   3.872
29819W        W 1545  43.080  10.484  14.526
29820W        W 1546  30.118  23.827   1.393
29821W        W 1547  32.415  32.612   4.234
29822W        W 1548  37.978   7.757   4.673
29823W        W 1549  40.682  40.788   1.660
29824W        W 1550  13.194  33.728   3.802
29825W        W 1551  24.979  37.979  11.735
29826W        W 1552  42.659   2.548   5.018
29827W        W 1553  31.496  40.299   3.790
29828W        W 1554  43.540  39.633  13.939
29829W        W 1555  17.511  11.218  12.231
29830W        W 1556  11.744  21.021   4.664
29831W        W 1557  44.237  15.372  13.456
29832W        W 1558  12.872  44.442   1.681
29833W        W 1559  24.622  17.743   3.627
29834W        W 1560   0.785   7.162   3.591
29835W        W 1561  43.441  44.611  14.803
29836W        W 1562  15.712  35.816   0.016
29837W        W 1563  13.054   8.134   2.787
29838W        W 1564  10.764  36.454  14.141
29839W        W 1565  13.863  28.599   0.469
29840W        W 1566  33.818   9.261  14.010
29841W        W 1567  19.263  37.055   3.177
29842W        W 1568   7.359  27.482   1.724
29843W        W 1569   5.930  15.348  10.998
29844W        W 1570   5.215  35.526  12.910
29845W        W 1571  33.095  20.206   3.819
29846W        W 1572   6.773  29.875   3.300
29847W        W 1573  11.558  31.689   4.726
29848W        W 1574   5.405  38.252   0.842
29849W        W 1575  29.721  19.940   0.962
29850W        W 1576  12.690  40.021  13.063
29851W        W 1577  22.904   5.734  13.398
29852W        W 1578  16.757   9.775  14.702
29853W        W 1579   2.498  23.540  10.645
29854W        W 1580  42.803  28.565  12.449
29855W        W 1581   6.161  32.610   3.693
29856W        W 1582  22.036  16.605   3.376
29857W        W 1583  40.900   6.407  13.232
29858W        W 1584  41.624   0.182  12.601
29859W        W 1585  42.459  22.894   4.896
29860W        W 1586  27.114  34.683  13.576
29861W        W 1587  15.524  40.454   0.879
29862W        W 1588   6.413  24.586   1.452
29863W        W 1589  36.164   5.988  11.042
29864W        W 1590  15.997  20.936   4.644
29865W        W 1591  33.130  16.198   4.389
29866W        W 1592  39.066  23.608   3.604
29867W        W 1593  16.227  16.397   3.176
29868W        W 1594  36.783  24.096  14.715
29869W        W 1595  22.219  43.763  11.192
29870W        W 1596  12.136  38.104  11.786
29871W        W 1597  25.479   3.876   2.859
29872W        W 1598  16.848   9.750   2.786
29873W        W 1599  39.021  35.976   0.837
29874W        W 1600   1.845  18.273   3.545
29875W        W 1601  34.086   0.666  11.113
29876W        W 1602  19.173   4.705  13.460
29877W        W 1603  26.397  43.381   3.246
29878W        W 1604  13.841  27.851   3.065
29879W        W 1605  39.354   2.296  14.327
29880W        W 1606  18.282  35.321  13.762
29881W        W 1607  36.028  16.540  14.361
29882W        W 1608   4.409  13.923   1.366
29883W        W 1609  30.821  42.354   2.848
29884W        W 1610  23.461  15.816  12.399
29885W        W 1611  40.679  43.971  11.525
29886W        W 1612  14.700  25.063  12.520
29887W        W 1613  12.304  20.079  13.868
29888W        W 1614  29.302   1.513  11.175
29889W        W 1615   4.784  27.704   4.570
29890W        W 1616   1.576   4.882   4.418
29891W        W 1617  14.877  35.057   3.760
29892W        W 1618   4.615  41.465  12.465
29893W        W 1619  33.896   6.345  12.554
29894W        W 1620   3.130  27.872   5.076
29895W        W 1621  31.083  29.638  10.284
29896W        W 1622   8.772  13.138  11.514
29897W        W 1623  39.608  14.546  11.099
29898W        W 1624  20.161  19.518   2.826
29899W        W 1625   0.577  18.113  11.847
29900W        W 1626  39.055  43.536   4.164
29901W        W 1627   6.736  30.026  11.858
29902W        W 1628  43.801  12.681  11.599
29903W        W 1629  36.196  42.527   1.005
29904W        W 1630  42.384  38.076  14.305
29905W        W 1631  23.283   1.682  12.340
29906W        W 1632  38.942   7.664  11.965
29907W        W 1633   0.031   5.814  11.463
29908W        W 1634  37.084  17.186   2.646
29909W        W 1635  43.399  31.220  14.385
29910W        W 1636  11.355   4.870   1.126
29911W        W 1637  26.446  31.386  11.427
29912W        W 1638  12.434   1.751  11.420
29913W        W 1639  17.163  31.909  12.161
29914W        W 1640  34.814   6.483   3.747
29915W        W 1641  37.302  34.409   4.597
29916W        W 1642  32.366  19.290  11.966
29917W        W 1643   9.933   0.709   2.804
29918W        W 1644  38.897  36.153   4.145
29919W        W 1645  27.251   1.562   4.208
29920W        W 1646  19.091  23.820  12.660
29921W        W 1647  31.143  25.096   0.559
29922W        W 1648  42.469  44.389  12.116
29923W        W 1649  28.270  22.532  12.425
29924W        W 1650  26.694  29.116  10.968
29925W        W 1651  20.744  21.196   3.223
29926W        W 1652   4.801  42.564   4.674
29927W        W 1653   0.889  32.333  10.486
29928W        W 1654  20.127  35.048  13.845
29929W        W 1655   2.248  20.720  12.187
29930W        W 1656  16.588  16.964  13.776
29931W        W 1657  38.949  34.600  11.659
29932W        W 1658   0.929  29.446   3.727
29933W        W 1659  42.018   9.088   5.048
29934W        W 1660  18.831   8.293   2.179
29935W        W 1661   7.756   0.531   0.758
29936W        W 1662  19.294  36.447   0.960
29937W        W 1663  38.079  11.665  13.586
29938W        W 1664  43.167  22.919  13.814
29939W        W 1665  13.328   6.598  14.032
29940W        W 1666  24.446  18.436   5.202
29941W        W 1667   0.706  28.692   0.508
29942W        W 1668  43.203  42.960  14.181
29943W        W 1669  22.561  17.361  14.493
29944W        W 1670  16.810  31.569  14.905
29945W        W 1671   7.938  30.352  11.499
29946W        W 1672  41.576   6.209  11.465
29947W        W 1673  41.078  27.829  14.886
29948W        W 1674  10.845   7.688  11.457
29949W        W 1675  34.497  11.309   1.047
29950W        W 1676  23.487  42.669  13.857
29951W        W 1677  39.879  35.721   4.875
29952W        W 1678  11.296  17.401  11.237
29953W        W 1679  28.047  30.495   1.933
29954W        W 1680  33.934   9.336   0.358
29955W        W 1681  40.614  12.372  14.793
29956W        W 1682  26.003  17.241  12.449
29957W        W 1683  17.245   8.942  10.756
29958W        W 1684  44.815  40.189   0.321
29959W        W 1685  15.107  17.302  11.612
29960W        W 1686  35.389  39.711  14.867
29961W        W 1687  39.788  11.607   3.357
29962W        W 1688  26.738  42.746  11.617
29963W        W 1689  10.650  13.731  12.894
29964W        W 1690  44.770  40.529  14.945
29965W        W 1691  24.338  33.392  12.452
29966W        W 1692   4.338  14.306   2.537
29967W        W 1693   4.993  44.397  11.165
29968W        W 1694  22.578  30.925   1.030
29969W        W 1695  15.691  18.243   4.385
29970W        W 1696  39.014   2.944  11.794
29971W        W 1697  10.800  10.156   1.401
29972W        W 1698  37.563  16.984   2.626
29973W        W 1699  28.104  24.983   4.475
29974W        W 1700  44.845  42.883   5.156
29975W        W 1701  12.419  15.507  10.716
29976W        W 1702  35.021  36.511  13.620
29977W        W 1703   5.018  24.751   0.794
29978W        W 1704  42.788  14.141   3.732
29979W        W 1705  19.297  31.520  11.050
29980W        W 1706  12.335  36.644   0.279
29981W        W 1707  40.719  39.947  13.413
29982W        W 1708  37.840  17.128  13.049
29983W        W 1709  44.889  20.525  14.627
29984W        W 1710  21.180   0.859  13.953
29985W        W 1711  38.494   9.357   2.290
29986W        W 1712   8.336  34.268  12.186
29987W        W 1713  15.791  11.058   4.171
29988W        W 1714  20.216  27.435   4.334
29989W        W 1715  30.980  11.687   4.662
29990W        W 1716   3.909   3.692  10.875
29991W        W 1717  34.324  41.253  12.438
29992W        W 1718  32.474  13.407  13.499
29993W        W 1719   1.370   0.769  14.352
29994W        W 1720   8.135  21.097   0.709
29995W        W 1721   1.459   3.030  13.988
29996W        W 1722  25.273  19.751   0.918
29997W        W 1723  18.094  41.872   2.796
29998W        W 1724  29.965  12.829   0.164
29999W        W 1725  31.618   7.259   0.481
30000W        W 1726  17.716  12.463   2.208
30001W        W 1727  11.943  15.344  11.289
30002W        W 1728  26.986   9.679  12.566
30003W        W 1729  23.606  36.062  12.827
30004W        W 1730  38.533  10.328   0.018
30005W        W 1731  38.392  24.593  10.703
30006W        W 1732  22.627  10.780   4.606
30007W        W 1733   1.750  39.661   3.308
30008W        W 1734  30.222   5.907   3.831
30009W        W 1735  25.649  40.798  14.811
30010W        W 1736  10.227  25.450   4.782
30011W        W 1737   4.740  26.561   3.182
30012W        W 1738  17.659  39.964   5.466
30013W        W 1739  33.902  30.916   3.100
30014W        W 1740  24.083  14.057  14.592
30015W        W 1741  31.942  29.045   3.827
30016W        W 1742  16.630  32.205   1.705
30017W        W 1743   0.014  11.223   1.411
30018W        W 1744  34.946  37.548   0.251
30019W        W 1745  43.090   0.439  13.023
30020W        W 1746  33.913  33.468   3.738
30021W        W 1747  42.604  22.361  11.048
30022W        W 1748  34.428   2.654   4.211
30023W        W 1749  31.415  10.908   4.660
30024W        W 1750   4.498  37.222   4.680
30025W        W 1751  32.488   7.849  12.145
30026W        W 1752  20.688   2.165  12.691
30027W        W 1753  36.355   6.931  14.730
30028W        W 1754   0.244   2.496   2.211
30029W        W 1755  23.588  18.183   0.240
30030W        W 1756  10.569  35.903   0.309
30031W        W 1757  22.652  39.356   4.263
30032W        W 1758   5.201  15.568  11.080
30033W        W 1759  43.782  10.976   4.367
30034W        W 1760  35.050  43.421  13.578
30035W        W 1761  26.395  15.827  11.251
30036W        W 1762  26.014   2.472   0.299
30037W        W 1763  10.123  11.763  12.957
30038W        W 1764  18.838  18.081   4.152
30039W        W 1765  32.340   4.176   3.670
30040W        W 1766  32.510  38.008   4.211
30041W        W 1767  28.501  14.816  10.379
30042W        W 1768  26.950  27.457   3.437
30043W        W 1769  17.321   1.650  10.719
30044W        W 1770   9.439  18.069  12.723
30045W        W 1771  36.802  17.142  12.901
30046W        W 1772  42.249  25.066   4.814
30047W        W 1773  19.682  17.136   4.081
30048W        W 1774  15.083  43.447  14.380
30049W        W 1775  20.276  34.664   2.350
30050W        W 1776   3.814  19.905  10.375
30051W        W 1777  38.455  33.514  14.506
30052W        W 1778  34.902  42.781   1.325
30053W        W 1779  41.373  15.700  13.358
30054W        W 1780  37.144   7.701   3.642
30055W        W 1781  19.081   0.484   2.271
30056W        W 1782  13.890  41.410   0.468
30057W        W 1783  26.997  40.327  14.063
30058W        W 1784  23.136   5.673  10.700
30059W        W 1785  26.516  33.248   1.001
30060W        W 1786  14.276  33.067   1.785
30061W        W 1787  15.606   5.847  15.000
30062W        W 1788   1.297  27.473  14.398
30063W        W 1789  20.501  31.435  12.931
30064W        W 1790   2.718  41.770  12.544
30065W        W 1791  19.812  14.274   3.468
30066W        W 1792  41.022  41.462   4.574
30067W        W 1793  44.774   9.753  14.151
30068W        W 1794  37.066  36.050   4.552
30069W        W 1795  42.197  13.367  11.169
30070W        W 1796  12.923  41.493   3.232
30071W        W 1797  26.201  29.410  12.636
30072W        W 1798  12.170   1.510  14.036
30073W        W 1799   1.950  34.116  11.968
30074W        W 1800  29.518   3.694   3.658
30075W        W 1801  32.995  36.493  11.623
30076W        W 1802  44.983   1.416  10.667
30077W        W 1803  42.856  44.019   1.837
30078W        W 1804  42.805   4.652  12.070
30079W        W 1805  17.065   1.873   2.735
30080W        W 1806   4.225  41.379  12.121
30081W        W 1807  22.655  33.933  12.521
30082W        W 1808   7.973  41.709  12.567
30083W        W 1809   2.527   8.147   4.596
30084W        W 1810   7.780  22.960   5.181
30085W        W 1811  15.715   1.233  13.970
30086W        W 1812  34.510  33.927  13.817
30087W        W 1813   5.804  23.213  12.010
30088W        W 1814  11.265  31.383   1.478
30089W        W 1815  10.370   3.733  10.430
30090W        W 1816  28.154  25.104  12.574
30091W        W 1817   0.303  13.676   4.540
30092W        W 1818  41.343  28.569   2.473
30093W        W 1819   4.441  39.368  14.840
30094W        W 1820   6.448  42.818  11.984
30095W        W 1821   4.456  10.739  13.545
30096W        W 1822  18.629   2.976  14.871
30097W        W 1823   3.918  28.921  12.159
30098W        W 1824  24.897  11.134  14.949
30099W        W 1825   0.321  18.119   0.848
30100W        W 1826  11.415  39.574   4.602
30101W        W 1827  24.168  30.328   2.835
30102W        W 1828  10.573  44.356   4.616
30103W        W 1829   7.882  22.060  13.475
30104W        W 1830  18.278  33.556  10.589
30105W        W 1831   6.789  13.575   1.907
30106W        W 1832  10.097  23.976  12.465
30107W        W 1833  23.929  23.518   2.206
30108W        W 1834  17.670   8.161  13.519
30109W        W 1835  24.172   5.871  10.881
30110W        W 1836  32.452  37.644  10.646
30111W        W 1837  35.517  21.079   4.290
30112W        W 1838  28.194  38.729   0.296
30113W        W 1839  14.486  34.137  12.894
30114W        W 1840  16.603   2.733  14.093
30115W        W 1841  44.646  18.742  13.550
30116W        W 1842  33.409  12.346   5.020
30117W        W 1843  31.230  27.689  12.730
30118W        W 1844   1.887   6.265   0.415
30119W        W 1845   5.285  15.130  12.009
30120W        W 1846  24.627  22.692  13.023
30121W        W 1847  31.717  27.002   5.031
30122W        W 1848   4.817  33.657  10.735
30123W        W 1849   7.616  19.447   2.256
30124W        W 1850  35.054  31.957   3.108
30125W        W 1851  31.169   6.770  13.456
30126W        W 1852  35.186  15.071  13.731
30127W        W 1853  41.346  20.552   0.479
30128W        W 1854   4.395   5.991  14.918
30129W        W 1855  17.150   0.876   2.842
30130W        W 1856   0.678  19.474   0.251
30131W        W 1857  10.354  28.817  13.544
30132W        W 1858   3.792  42.253   1.260
30133W        W 1859  26.617  41.944   3.337
30134W        W 1860  17.693   9.680  12.508
30135W        W 1861  32.674  14.997   3.996
30136W        W 1862  14.561  27.738   1.292
30137W        W 1863  40.553  17.992   0.468
30138W        W 1864  10.647  25.629  10.631
30139W        W 1865  16.232  28.642  11.397
30140W        W 1866   4.787  21.231   1.826
30141W        W 1867  32.519  39.609  11.114
30142W        W 1868   9.225   3.826  14.731
30143W        W 1869   1.027  13.662  12.175
30144W        W 1870  33.689  19.040  13.910
30145W        W 1871  14.046  25.080   1.754
30146W        W 1872  14.625  21.660   2.189
30147W        W 1873  15.977   8.378   0.443
30148W        W 1874  14.600   4.177   0.174
30149W        W 1875   3.241  19.983   1.431
30150W        W 1876  42.056  15.718   0.588
30151W        W 1877   5.700  36.424  13.908
30152W        W 1878  41.311   3.517   1.809
30153W        W 1879   9.333   9.138  14.805
30154W        W 1880  33.446   5.712   1.270
30155W        W 1881  34.495  40.851  12.774
30156W        W 1882  22.196  42.879   2.185
30157W        W 1883  25.812   7.689   4.307
30158W        W 1884  11.616   3.048   4.127
30159W        W 1885  21.604  41.029  12.644
30160W        W 1886  18.263  23.152   3.160
30161W        W 1887  40.329  24.160   1.901
30162W        W 1888  32.420   8.996  13.609
30163W        W 1889  24.773   2.718  13.220
30164W        W 1890   7.907   8.431   4.754
30165W        W 1891  14.686  26.661  11.442
30166W        W 1892  28.904  14.536   1.595
30167W        W 1893   9.080  30.502   2.234
30168W        W 1894   7.134   1.441  12.019
30169W        W 1895  44.356   6.987  11.654
30170W        W 1896  43.184  32.053   3.458
30171W        W 1897   8.356  41.230  13.817
30172W        W 1898  12.738  16.644   3.088
30173W        W 1899   4.243  30.880   4.646
30174W        W 1900  26.603  12.992   2.338
30175W        W 1901  27.647  33.046   1.625
30176W        W 1902  34.056  17.847   2.031
30177W        W 1903  21.596  10.335  14.120
30178W        W 1904  42.556  33.943  12.338
30179W        W 1905  16.184  16.911   3.159
30180W        W 1906  34.168  40.836   1.476
30181W        W 1907  19.101  22.586   3.377
30182W        W 1908  19.715  13.779  14.335
30183W        W 1909  16.533  28.486   4.773
30184W        W 1910  10.003   4.015   1.708
30185W        W 1911   4.353  44.252  13.848
30186W        W 1912  28.411  31.106   0.326
30187W        W 1913  28.547  25.564   0.006
30188W        W 1914  12.146   7.646  14.277
30189W        W 1915  32.076  23.568   0.479
30190W        W 1916   6.015  17.499  11.590
30191W        W 1917  38.729  13.211   0.006
30192W        W 1918  35.706  28.053   3.691
30193W        W 1919  12.751  30.049  10.705
30194W        W 1920  12.381  26.057   1.214
30195W        W 1921   2.792   7.221   1.921
30196W        W 1922  34.298  10.881  11.040
30197W        W 1923   2.587   1.669   0.548
30198W        W 1924  29.443  35.973   3.539
30199W        W 1925   6.229  20.803   0.057
30200W        W 1926  10.213   6.660   0.323
30201W        W 1927   9.763  14.652  11.000
30202W        W 1928  22.436  11.819   2.344
30203W        W 1929  41.352  23.477   3.227
30204W        W 1930  11.534  27.470   4.263
30205W        W 1931  31.235  11.917  12.931
30206W        W 1932  38.864  28.529  13.985
30207W        W 1933  18.245  40.858   4.857
30208W        W 1934   0.913   3.659   3.127
30209W        W 1935  22.659   5.541   0.885
30210W        W 1936  35.142  16.163  14.726
30211W        W 1937  43.482   0.828  11.809
30212W        W 1938   1.245  13.269  13.926
30213W        W 1939  40.281  37.651   4.083
30214W        W 1940  44.195   0.980   0.375
30215W        W 1941  18.719  24.155   4.589
30216W        W 1942  14.702  28.481  13.573
30217W        W 1943  39.565   2.893  13.567
30218W        W 1944  13.307  44.621   4.764
30219W        W 1945   3.969   6.053  10.706
30220W        W 1946  25.274   2.951  10.929
30221W        W 1947  10.599  13.567  14.499
30222W        W 1948  23.746  16.649   2.644
30223W        W 1949  20.619  35.110  12.077
30224W        W 1950  18.386  38.588   4.228
30225W        W 1951  19.082   1.463  11.250
30226W        W 1952  34.546   6.133  12.020
30227W        W 1953  13.142  42.696  14.886
30228W        W 1954  21.019   7.425   4.308
30229W        W 1955  32.434  17.610   3.366
30230W        W 1956   0.695  35.029  14.682
30231W        W 1957   6.856  27.341   1.521
30232W        W 1958  16.065  24.026   3.181
30233W        W 1959  41.080  35.025   0.866
30234W        W 1960  37.989  40.344  11.396
30235W        W 1961  41.575  24.355  12.532
30236W        W 1962  11.293  29.092   1.754
30237W        W 1963  16.033  42.977   2.298
30238W        W 1964  30.539  30.250  12.972
30239W        W 1965  27.734  21.275  13.621
30240W        W 1966  26.131  28.430   4.163
30241W        W 1967  30.216   1.475  13.797
30242W        W 1968  21.933  24.491  14.238
30243W        W 1969  30.182   0.862  14.668
30244W        W 1970  31.616  32.796   3.731
30245W        W 1971  33.480   9.429  10.821
30246W        W 1972  37.953  32.855  10.582
30247W        W 1973  29.908  17.034   4.027
30248W        W 1974  20.101  20.753  11.672
30249W        W 1975  41.894  39.817   3.138
30250W        W 1976  23.678  23.785   0.899
30251W        W 1977  25.110  28.616  14.328
30252W        W 1978  28.125  15.297  14.585
30253W        W 1979  35.921  33.356   0.252
30254W        W 1980  28.839  12.162  14.783
30255W        W 1981   0.987  33.157  14.663
30256W        W 1982  32.479  15.471   0.818
30257W        W 1983   7.629  29.099   4.693
30258W        W 1984  21.681  40.573  14.471
30259W        W 1985  18.423  14.218  14.416
30260W        W 1986  37.976  36.134   2.276
30261W        W 1987  34.923  34.186  12.086
30262W        W 1988  40.097   1.413  13.271
30263W        W 1989  18.749  22.178  14.271
30264W        W 1990   0.521  38.484  13.671
30265W        W 1991  33.400   2.332  10.709
30266W        W 1992  10.725  28.902  11.061
30267W        W 1993  22.144  28.440  12.776
30268W        W 1994  39.669   4.624  12.557
30269W        W 1995  10.027  43.796  14.419
30270W        W 1996  23.003  42.320   4.450
30271W        W 1997  32.425  10.754   3.125
30272W        W 1998  43.331   0.318  13.491
30273W        W 1999   6.809  39.732   1.804
30274W        W 2000  32.667  37.616   5.107
30275W        W 2001  33.185  41.349   4.104
30276W        W 2002  17.036   8.164   1.949
30277W        W 2003  37.989   2.372  11.093
30278W        W 2004  36.203   6.426   4.043
30279W        W 2005  10.521   1.958   2.309
30280W        W 2006  19.477  15.243   1.328
30281W        W 2007  20.867  41.376  13.685
30282W        W 2008  41.752  18.881  12.968
30283W        W 2009  18.993  32.385   2.321
30284W        W 2010  33.787  39.876   0.822
30285W        W 2011   7.198  18.202  11.606
30286W        W 2012   6.761   6.308  10.896
30287W        W 2013   2.379  10.154  10.631
30288W        W 2014   7.709  13.577  14.026
30289W        W 2015  19.715   8.307  14.215
30290W        W 2016  41.418  37.169   3.581
30291W        W 2017  30.493   1.121   4.767
30292W        W 2018   4.431  33.807   1.318
30293W        W 2019  35.170  12.376   4.195
30294W        W 2020  33.901  30.486  11.599
30295W        W 2021  13.597  21.049   3.577
30296W        W 2022  36.606  25.583  11.672
30297W        W 2023  29.771  15.705   0.711
30298W        W 2024   2.782  13.203   1.784
30299W        W 2025  23.081  39.714  13.653
30300W        W 2026   7.447   5.391  13.064
30301W        W 2027  42.195   2.176   3.228
30302W        W 2028  29.706  17.137   4.528
30303W        W 2029  21.067  21.253   0.742
30304W        W 2030  38.616  19.118  11.653
30305W        W 2031  21.116  36.579  11.253
30306W        W 2032  34.454   6.374  12.535
30307W        W 2033   2.357  13.659   4.805
30308W        W 2034  33.805  37.084  10.772
30309W        W 2035  31.257  15.655  10.673
30310W        W 2036  43.297  11.204  14.467
30311W        W 2037   2.974   9.568  11.923
30312W        W 2038  28.586  39.462   1.486
30313W        W 2039  26.443  36.848  11.957
30314W        W 2040  13.646  28.994  11.618
30315W        W 2041  11.822   1.854  14.539
30316W        W 2042  13.023  14.260  12.180
30317W        W 2043  44.332  18.467   4.255
30318W        W 2044   9.892  34.453   3.678
30319W        W 2045  44.953  33.974   0.471
30320W        W 2046  35.350  25.937  12.145
30321W        W 2047  20.333  20.660   1.886
30322W        W 2048  19.695  40.358   3.662
30323W        W 2049   6.422  42.486   2.905
30324W        W 2050  16.134  19.997   4.156
30325W        W 2051  32.559   8.180  14.809
30326W        W 2052   6.782  30.603  14.801
30327W        W 2053  44.035   1.416   1.287
30328W        W 2054  25.233   3.161   0.870
30329W        W 2055  31.538  42.512   1.168
30330W        W 2056  12.788  35.005   0.782
30331W        W 2057  32.965  14.461  10.989
30332W        W 2058  36.003  16.329  13.873
30333W        W 2059  32.084  19.482  10.808
30334W        W 2060   5.139  40.902   4.123
30335W        W 2061  10.301  19.018  10.670
30336W        W 2062  28.570  13.726  12.134
30337W        W 2063   6.258  10.631  12.001
30338W        W 2064   6.873   4.101  11.125
30339W        W 2065   9.406  19.379  12.356
30340W        W 2066  10.254  42.848  11.920
30341W        W 2067  25.675  32.183  12.099
30342W        W 2068  14.042  14.370   3.147
30343W        W 2069  21.642   1.562  12.868
30344W        W 2070  21.251  41.418   5.062
30345W        W 2071  38.803  41.917   3.467
30346W        W 2072  17.073  18.007   1.752
30347W        W 2073  31.474   3.578   0.315
30348W        W 2074  30.416  30.901   2.838
30349W        W 2075  41.243  20.189  12.941
30350W        W 2076  11.144  39.444  12.387
30351W        W 2077  19.218  12.817  13.368
30352W        W 2078   3.092  14.143   9.845
30353W        W 2079  24.146  14.744  11.509
30354W        W 2080  12.203  33.124   4.066
30355W        W 2081  11.654  23.693   3.122
30356W        W 2082  44.209  24.112  13.892
30357W        W 2083   7.886  31.938  13.501
30358W        W 2084  30.107  39.464   1.782
30359W        W 2085  12.097  18.672   0.270
30360W        W 2086  42.613  10.204  14.653
30361W        W 2087  25.167  27.556  10.861
30362W        W 2088  16.348  27.175  14.405
30363W        W 2089  43.333  12.875  13.498
30364W        W 2090  13.813  18.489  11.493
30365W        W 2091  25.127   5.558   0.900
30366W        W 2092   2.893  42.006   0.848
30367W        W 2093  27.100  20.766  11.970
30368W        W 2094  19.279  42.396  12.616
30369W        W 2095  18.078   8.329  13.985
30370W        W 2096  26.279  25.307  14.465
30371W        W 2097  28.446  40.418  11.064
30372W        W 2098  43.754  41.520  14.401
30373W        W 2099  37.864  21.561  13.813
30374W        W 2100   9.196  44.969   1.347
30375W        W 2101  19.022   2.817  13.506
30376W        W 2102  38.990  27.539  14.004
30377W        W 2103  27.965  17.160   5.013
30378W        W 2104  10.310  44.525   2.112
30379W        W 2105  42.528  23.726   4.955
30380W        W 2106  16.792  16.171  13.749
30381W        W 2107  15.852  36.439  13.284
30382W        W 2108  21.684  10.317   1.407
30383W        W 2109   6.158  12.650  14.245
30384W        W 2110  31.122  37.637  11.881
30385W        W 2111  34.687  18.433  12.563
30386W        W 2112  26.663  44.538  10.366
30387W        W 2113   4.165  39.436  13.423
30388W        W 2114  31.258  25.355   5.333
30389W        W 2115   3.467  17.573   1.925
30390W        W 2116  19.494  10.637   0.311
30391W        W 2117  25.971  26.058  13.699
30392W        W 2118   4.707   8.806   2.271
30393W        W 2119  27.935   0.869   1.553
30394W        W 2120  15.611   2.737  14.921
30395W        W 2121  27.912  35.783  12.401
30396W        W 2122  11.853  16.861  13.908
30397W        W 2123  37.982  22.984   2.291
30398W        W 2124   5.382  31.195  12.556
30399W        W 2125   7.080  42.945   1.343
30400W        W 2126  25.159  40.285   1.253
30401W        W 2127  24.565  34.450   0.769
30402W        W 2128  20.734  35.758  13.424
30403W        W 2129  38.848   7.423  13.512
30404W        W 2130  18.387  10.394  11.969
30405W        W 2131  43.442  16.220   1.444
30406W        W 2132  32.467  14.451  11.157
30407W        W 2133  21.194  32.656  10.334
30408W        W 2134  22.900  44.866  13.820
30409W        W 2135  18.312  41.336  11.656
30410W        W 2136  14.962  30.226  14.299
30411W        W 2137  28.949  20.630   3.756
30412W        W 2138  32.257  39.761  12.052
30413W        W 2139  14.627  21.045   1.309
30414W        W 2140  43.012  13.360   1.801
30415W        W 2141   9.778  14.082   4.087
30416W        W 2142  30.558  24.372   0.950
30417W        W 2143  40.749  13.729  12.584
30418W        W 2144  36.630  19.698   3.700
30419W        W 2145   3.025  35.046  13.468
30420W        W 2146  13.742  18.784  12.969
30421W        W 2147   2.420  37.531  12.423
30422W        W 2148  25.014  30.101  12.015
30423W        W 2149  27.887  39.885   0.352
30424W        W 2150   3.255  17.024  11.993
30425W        W 2151  39.784  13.751   1.073
30426W        W 2152   4.223  21.987   2.710
30427W        W 2153  37.036  31.142   2.266
30428W        W 2154  25.533  28.095   4.339
30429W        W 2155  33.976  18.670  12.408
30430W        W 2156   3.803   5.031   4.949
30431W        W 2157  14.613  10.235  11.990
30432W        W 2158  30.193  10.945  12.975
30433W        W 2159  18.238  40.565  13.092
30434W        W 2160  10.704  31.917  12.022
30435W        W 2161  17.315   2.971  11.675
30436W        W 2162  29.043  17.550   4.167
30437W        W 2163  31.190  14.196  10.039
30438W        W 2164   8.802  41.537  14.559
30439W        W 2165  30.975  24.763   1.733
30440W        W 2166   4.738  37.992   1.752
30441W        W 2167  31.886  34.625   0.780
30442W        W 2168  12.290   2.708   2.144
30443W        W 2169  29.432  15.416  11.085
30444W        W 2170  42.963   5.748   3.041
30445W        W 2171  11.184  43.440   2.823
30446W        W 2172   5.613  27.730   3.347
30447W        W 2173   0.375  19.625  14.845
30448W        W 2174  33.029  35.485   0.188
30449W        W 2175  30.141  20.555  11.946
30450W        W 2176   3.349  12.911  13.978
30451W        W 2177  19.200  17.268   2.414
30452W        W 2178   6.992   1.763  13.608
30453W        W 2179  33.384  44.977  14.484
30454W        W 2180  23.502  27.420  14.347
30455W        W 2181  31.913  13.878   3.120
30456W        W 2182  18.301   2.881  12.001
30457W        W 2183  36.278  14.288   1.699
30458W        W 2184  38.117  30.122   4.098
30459W        W 2185  12.826  27.262  11.619
30460W        W 2186  22.482   0.237  11.647
30461W        W 2187  28.059   0.971  12.082
30462W        W 2188  40.854   9.863  13.813
30463W        W 2189  23.704  35.711   4.133
30464W        W 2190  12.659  38.626  13.834
30465W        W 2191   4.434  34.117  12.126
30466W        W 2192  40.577  43.396   3.038
30467W        W 2193  36.756  24.170   3.609
30468W        W 2194  25.931  24.682   3.748
30469W        W 2195  27.330  29.244   1.839
30470W        W 2196  32.970  37.327   4.158
30471W        W 2197   9.273  18.267  11.236
30472W        W 2198  26.963  28.105  14.845
30473W        W 2199  15.439  28.590  12.595
30474W        W 2200  16.103  11.861  13.465
30475W        W 2201  27.542  18.593   4.345
30476W        W 2202  40.822  23.003  13.316
30477W        W 2203  15.611  35.945   4.636
30478W        W 2204  35.708  38.840  11.119
30479W        W 2205   7.886  10.247  13.360
30480W        W 2206  31.395  21.288   3.294
30481W        W 2207  27.059   7.437  13.256
30482W        W 2208  29.668  39.597   3.885
30483W        W 2209  34.491   5.930   0.734
30484W        W 2210  17.455  30.845   2.951
30485W        W 2211  24.819  19.546  12.198
30486W        W 2212  15.821  42.032  14.789
30487W        W 2213  12.461  34.891  13.788
30488W        W 2214   6.978  19.783  14.875
30489W        W 2215  31.576  34.416  12.012
30490W        W 2216  17.789  29.491  10.991
30491W        W 2217  37.359  20.076  12.527
30492W        W 2218  29.909  38.297  11.909
30493W        W 2219  35.947  29.956  13.744
30494W        W 2220   5.469  31.833  13.371
30495W        W 2221  39.408   9.793   4.438
30496W        W 2222   1.777  15.197   1.618
30497W        W 2223  20.129  44.921  13.326
30498W        W 2224  38.516  27.647   2.118
30499W        W 2225  22.652   5.307  11.557
30500W        W 2226   2.169  38.575  14.872
30501W        W 2227  30.338   2.895  12.909
30502W        W 2228  28.697  20.795   3.308
30503W        W 2229   9.555  21.202   2.920
30504W        W 2230  22.952  17.755  14.568
30505W        W 2231  26.978  22.756  14.060
30506W        W 2232  36.855  30.933   0.004
30507W        W 2233  12.271   0.023  13.100
30508W        W 2234  42.862  39.262   4.572
30509W        W 2235  10.734  18.822  11.716
30510W        W 2236   7.398  32.569  14.852
30511W        W 2237  29.136  20.327   0.475
30512W        W 2238   6.745  11.583   0.726
30513W        W 2239   7.674  12.060   4.297
30514W        W 2240   5.737  40.784   2.752
30515W        W 2241   7.646   0.616   1.753
30516W        W 2242  40.013  31.030   1.357
30517W        W 2243  10.769  34.179  13.707
30518W        W 2244  34.464   3.831  11.131
30519W        W 2245   9.125  29.875   4.547
30520W        W 2246  32.831  19.694   1.964
30521W        W 2247   4.175  22.204  13.890
30522W        W 2248  11.913  19.775   2.618
30523W        W 2249  43.869  38.098  11.553
30524W        W 2250  41.369  44.208  14.954
30525W        W 2251   5.703  13.575   3.926
30526W        W 2252  16.304   9.739   1.488
30527W        W 2253  31.132  43.996  12.825
30528W        W 2254  41.850   1.301  11.959
30529W        W 2255  26.698   7.157  11.861
30530W        W 2256  10.043  28.610  14.116
30531W        W 2257   5.219  19.356   1.281
30532W        W 2258   6.415  10.292  10.719
30533W        W 2259   5.336  24.230   1.308
30534W        W 2260  27.931   7.818   1.445
30535W        W 2261  29.865  11.877   3.234
30536W        W 2262  44.979   9.321   0.435
30537W        W 2263   9.062  31.464  13.851
30538W        W 2264  24.049  44.409   0.913
30539W        W 2265   3.471   3.949   3.633
30540W        W 2266   0.923  38.567  12.945
30541W        W 2267   9.124   5.380  13.479
30542W        W 2268  24.034  37.525  10.801
30543W        W 2269  39.067  20.194  13.971
30544W        W 2270  16.606  13.124  14.226
30545W        W 2271   2.972   6.052  14.411
30546W        W 2272  19.370  34.375   1.219
30547W        W 2273  31.671  29.329  14.684
30548W        W 2274  15.572  32.899   1.418
30549W        W 2275  13.693  19.512   0.371
30550W        W 2276   6.186  28.982  12.631
30551W        W 2277  25.606  33.168   1.236
30552W        W 2278  18.351  12.117   3.364
30553W        W 2279   3.313  30.999   2.788
30554W        W 2280  26.598   0.796  11.888
30555W        W 2281  30.341  19.980  11.107
30556W        W 2282  34.543  27.076  10.579
30557W        W 2283  28.042  14.617   1.012
30558W        W 2284   8.668  25.690  10.761
30559W        W 2285  20.117  36.926   2.813
30560W        W 2286  29.879   5.497  14.300
30561W        W 2287   9.868  13.822   2.779
30562W        W 2288  38.950  23.454   1.272
30563W        W 2289  24.206  19.659   1.110
30564W        W 2290  30.505  41.211  14.423
30565W        W 2291   0.236  13.309   2.819
30566W        W 2292  42.028  19.694  13.153
30567W        W 2293  10.176  35.472   3.581
30568W        W 2294  23.184  40.967   0.801
30569W        W 2295  22.754  14.803  10.337
30570W        W 2296  35.979  33.462   4.023
30571W        W 2297  40.904  43.211  11.647
30572W        W 2298  27.175   7.315   3.240
30573W        W 2299  31.413   7.688  11.524
30574W        W 2300  28.145  40.809   4.465
30575W        W 2301  25.598  17.869   0.987
30576W        W 2302   1.058  22.451  14.413
30577W        W 2303  18.947   1.922  11.370
30578W        W 2304  30.531   3.914  10.663
30579W        W 2305  34.794  36.015  10.916
30580W        W 2306  26.278  14.097   3.747
30581W        W 2307  17.758  40.052   1.898
30582W        W 2308  21.236   8.324  10.674
30583W        W 2309  18.835  43.451  11.398
30584W        W 2310  33.304  35.187  10.694
30585W        W 2311  11.722  17.488  13.391
30586W        W 2312  17.956  15.212   3.657
30587W        W 2313  12.261  14.313   1.627
30588W        W 2314  24.017  11.254  12.924
30589W        W 2315   7.654   8.518   4.251
30590W        W 2316  13.728  23.229   4.389
30591W        W 2317  39.877  20.770  13.828
30592W        W 2318  25.521  38.466   4.055
30593W        W 2319  14.422  36.246   4.227
30594W        W 2320  15.221  31.938  14.244
30595W        W 2321  15.683  13.733   3.094
30596W        W 2322   2.953  22.620   1.250
30597W        W 2323  26.270   7.160   0.398
30598W        W 2324  20.799  15.151  12.909
30599W        W 2325  32.392  21.600   4.701
30600W        W 2326  37.982   6.869   0.430
30601W        W 2327   9.331  23.495   4.476
30602W        W 2328  29.748  29.845  13.322
30603W        W 2329  26.711  23.745   1.927
30604W        W 2330  27.418  40.532  13.876
30605W        W 2331  37.779  21.708   4.501
30606W        W 2332   3.246  19.806  10.979
30607W        W 2333   6.206   1.990   3.720
30608W        W 2334  39.925  38.911  10.428
30609W        W 2335  25.109  40.840   4.351
30610W        W 2336  26.015  22.762   0.391
30611W        W 2337  20.798   0.820   0.558
30612W        W 2338  21.292  29.519   2.312
30613W        W 2339  37.520   8.126  11.481
30614W        W 2340   1.216  10.099  10.778
30615W        W 2341   8.502  26.740   3.825
30616W        W 2342  18.324  37.328  12.408
30617W        W 2343  32.365  42.418   1.779
30618W        W 2344  10.949  26.626   3.648
30619W        W 2345  15.692  16.416   0.856
30620W        W 2346  43.461  23.094  12.560
30621W        W 2347   1.422  34.967  10.714
30622W        W 2348  44.875   9.155  13.022
30623W        W 2349  22.595   7.075   2.117
30624W        W 2350   3.453   2.429  14.991
30625W        W 2351  35.924  20.082  11.499
30626W        W 2352  18.210  32.058   1.848
30627W        W 2353  41.110  22.999   3.319
30628W        W 2354  38.871   0.288   1.244
30629W        W 2355  40.051   9.180  13.380
30630W        W 2356  29.731  12.726   2.403
30631W        W 2357  37.532   6.678   0.240
30632W        W 2358  31.657  22.735   2.308
30633W        W 2359   7.384  14.322   1.794
30634W        W 2360   8.746  10.284  14.217
30635W        W 2361   3.381  16.197   0.346
30636W        W 2362  29.878  21.704  12.706
30637W        W 2363   6.769  22.231  12.031
30638W        W 2364  35.079  40.379  14.873
30639W        W 2365  17.969  30.947   4.923
30640W        W 2366   1.665  42.740   0.638
30641W        W 2367  10.844  10.401  12.125
30642W        W 2368  20.997  29.381  13.783
30643W        W 2369  15.569  25.682   2.326
30644W        W 2370  29.601  43.828   0.348
30645W        W 2371  16.016  31.543   4.169
30646W        W 2372  40.162  38.508  13.799
30647W        W 2373  32.650   1.962   3.723
30648W        W 2374  22.351  37.566   3.353
30649W        W 2375  20.195  14.650  14.379
30650W        W 2376  15.884  44.024   0.869
30651W        W 2377  32.841  29.679  11.090
30652W        W 2378  19.745   3.301   2.463
30653W        W 2379  34.387  24.990  11.897
30654W        W 2380  16.624  15.195  12.117
30655W        W 2381  35.164   7.775   1.420
30656W        W 2382  11.127   3.109  13.397
30657W        W 2383   1.372  35.621   4.725
30658W        W 2384  13.819  14.208  11.675
30659W        W 2385  28.670  44.925  13.759
30660W        W 2386  27.968  38.593   0.735
30661W        W 2387  18.422  23.372   0.489
30662W        W 2388  33.127   2.291  13.414
30663W        W 2389   2.287  21.147   3.171
30664W        W 2390  15.216   2.502  14.005
30665W        W 2391   7.129  27.572   3.279
30666W        W 2392  40.072  17.747   1.883
30667W        W 2393  36.610  32.999  10.376
30668W        W 2394  40.067  12.588   3.214
30669W        W 2395  13.053  36.838   3.440
30670W        W 2396  11.267  31.948  12.613
30671W        W 2397  39.943  27.163   1.499
30672W        W 2398  36.370   8.731   1.777
30673W        W 2399  35.553   0.182  13.469
30674W        W 2400  25.156  39.989   4.843
30675W        W 2401  24.500  28.893   1.337
30676W        W 2402   2.771  40.987   3.257
30677W        W 2403  40.225  13.640  12.631
30678W        W 2404  26.681  11.597   3.781
30679W        W 2405  15.495  12.184  11.641
30680W        W 2406  29.625  19.252  13.333
30681W        W 2407  36.631  28.943  14.897
30682W        W 2408  30.028  16.278   4.076
30683W        W 2409   5.539  15.588  11.920
30684W        W 2410  16.623   2.532  12.108
30685W        W 2411  39.120  11.566  11.141
30686W        W 2412  20.667  43.975   4.882
30687W        W 2413   0.425  33.682  12.990
30688W        W 2414  30.444   6.488  13.930
30689W        W 2415  25.734  38.524  12.904
30690W        W 2416  28.417   0.350   2.695
30691W        W 2417   0.319  30.929  12.888
30692W        W 2418  29.028   6.705   2.916
30693W        W 2419  13.547  42.717   4.277
30694W        W 2420   1.402  23.692   4.583
30695W        W 2421  29.092  16.304   4.584
30696W        W 2422  42.904  33.902  14.564
30697W        W 2423  21.164  19.177  10.594
30698W        W 2424   9.375  32.962  13.426
30699W        W 2425  39.860  20.806  13.287
30700W        W 2426  38.609  23.468   1.772
30701W        W 2427  38.149  10.890   0.392
30702W        W 2428   6.888  17.178   3.199
30703W        W 2429   2.516  28.693  11.110
30704W        W 2430   0.968  34.577  14.586
30705W        W 2431  27.069   0.188   3.786
30706W        W 2432  10.435  17.567  13.973
30707W        W 2433  36.040  38.390   3.119
30708W        W 2434  21.152  21.959   4.705
30709W        W 2435  29.643  21.752   3.099
30710W        W 2436   4.155  18.219   0.378
30711W        W 2437  35.504  37.081   2.787
30712W        W 2438  36.635  28.580  14.424
30713W        W 2439  40.478  42.037   0.241
30714W        W 2440  31.280  22.279  13.312
30715W        W 2441  42.827  40.942   3.241
30716W        W 2442  25.403  22.698   3.634
30717W        W 2443   2.812  42.874  14.519
30718W        W 2444  26.113  27.180  14.749
30719W        W 2445  15.990   3.514   2.052
30720W        W 2446  10.526  19.876   1.750
30721W        W 2447  33.944   3.442  12.477
30722W        W 2448  13.329  27.423  12.483
30723W        W 2449   8.120  25.693  14.004
30724W        W 2450  43.320  19.662   1.881
30725W        W 2451  29.204  35.453   0.794
30726W        W 2452  41.287  42.436  14.089
30727W        W 2453   9.122  14.070  13.629
30728W        W 2454  29.094  31.448   0.487
30729W        W 2455  11.020  21.680  14.505
30730W        W 2456  22.216  27.035  11.640
30731W        W 2457  11.850  10.488  12.039
30732W        W 2458   5.145  34.911   1.588
30733W        W 2459   2.963  32.865  12.112
30734W        W 2460  24.583  20.699   1.856
30735W        W 2461  38.366  35.345  13.082
30736W        W 2462  34.031  14.369  13.969
30737W        W 2463   9.834   8.168  11.560
30738W        W 2464  10.540  15.777  11.253
30739W        W 2465  21.675   5.400  11.430
30740W        W 2466  14.228   9.992   0.518
30741W        W 2467  25.568   1.733   2.701
30742W        W 2468  18.223  44.555   0.292
30743W        W 2469  27.582  26.310  12.620
30744W        W 2470  15.183  38.568   3.356
30745W        W 2471  18.678  38.852   2.733
30746W        W 2472  41.019   9.389   1.377
30747W        W 2473   1.950   1.402  12.333
30748W        W 2474  43.507  30.233  10.996
30749W        W 2475   9.801  10.416   2.794
30750W        W 2476  22.176  30.939   0.005
30751W        W 2477   1.578  19.730  11.025
30752W        W 2478  14.325  41.578  11.145
30753W        W 2479  37.092   8.704   4.514
30754W        W 2480  40.481   1.622   3.682
30755W        W 2481  40.589  31.811  14.780
30756W        W 2482  26.417  35.912  13.796
30757W        W 2483  10.385  22.925  14.854
30758W        W 2484   4.381  34.960   1.618
30759W        W 2485  33.346  33.939   1.394
30760W        W 2486   9.947  38.432   0.290
30761W        W 2487   6.263  13.248   4.143
30762W        W 2488  33.392   6.259  10.585
30763W        W 2489  28.658  38.415  10.758
30764W        W 2490  12.210  17.918   1.982
30765W        W 2491  33.362   0.955  13.835
30766W        W 2492  13.527   4.563   0.337
30767W        W 2493   4.988   3.753   4.388
30768W        W 2494  39.917  41.567   1.163
30769W        W 2495  40.098   8.685   1.355
30770W        W 2496  32.841  42.675   3.145
30771W        W 2497  28.026  40.257   3.371
30772W        W 2498  44.549  22.850   4.990
30773W        W 2499  32.533  44.444  12.653
30774W        W 2500  34.801   6.325   0.965
30775W        W 2501  38.426  30.763  10.458
30776W        W 2502  11.113  20.584  11.487
30777W        W 2503  30.878  17.736  13.331
30778W        W 2504  42.999  43.900  14.067
30779W        W 2505  39.022  41.007  11.102
30780W        W 2506  27.114  35.288  11.412
30781W        W 2507  21.548  35.378   4.925
30782W        W 2508  33.372  43.840   2.679
30783W        W 2509   7.633  33.830  14.290
30784W        W 2510  35.298  34.499   4.889
30785W        W 2511  40.013   7.829   1.457
30786W        W 2512   4.402  27.965   1.818
30787W        W 2513  22.302  18.214   3.833
30788W        W 2514  39.095  44.756   4.428
30789W        W 2515   9.190  34.881  12.091
30790W        W 2516  43.971  43.941   2.717
30791W        W 2517  14.767  17.545   3.093
30792W        W 2518   3.593  39.978   4.383
30793W        W 2519  10.850  30.463   4.167
30794W        W 2520   1.799  41.402   4.696
30795W        W 2521  24.021  32.540  10.682
30796W        W 2522  35.474  15.329  14.527
30797W        W 2523   4.313  32.335  14.794
30798W        W 2524  22.575  21.245  14.462
30799W        W 2525  37.099  21.180   0.500
30800W        W 2526  22.606  35.392   1.225
30801W        W 2527   6.568   8.556   1.925
30802W        W 2528  20.563  13.021   0.273
30803W        W 2529  11.907  27.618   4.567
30804W        W 2530  42.728  42.875  13.960
30805W        W 2531  37.837  24.157   2.758
30806W        W 2532  41.972  19.601   1.694
30807W        W 2533  41.825  17.133   1.280
30808W        W 2534  12.060  41.881   0.817
30809W        W 2535  29.656   8.363  13.880
30810W        W 2536  28.936  24.528   5.231
30811W        W 2537  21.294  11.752  13.291
30812W        W 2538  24.759  29.034   1.764
30813W        W 2539  40.235  20.230  11.825
30814W        W 2540  18.154  19.271  13.867
30815W        W 2541  20.085   8.423   2.786
30816W        W 2542  37.418  32.366   0.192
30817W        W 2543  17.359   0.360   4.429
30818W        W 2544  41.498  32.608   4.586
30819W        W 2545  36.643  10.552  12.115
30820W        W 2546   6.264   0.693  14.852
30821W        W 2547   1.244  43.855   1.867
30822W        W 2548  22.453  42.012  14.082
30823W        W 2549  27.961  24.530   1.933
30824W        W 2550  11.598   5.548   0.398
30825W        W 2551   6.353  22.495   2.744
30826W        W 2552  35.531  21.059  11.594
30827W        W 2553   6.938  27.075  11.644
30828W        W 2554  12.078  33.690  10.097
30829W        W 2555   2.323  22.817   4.644
30830W        W 2556   0.917  15.034   1.722
30831W        W 2557  11.975  22.941   0.145
30832W        W 2558  44.020  36.855   3.405
30833W        W 2559  15.238  30.843  12.398
30834W        W 2560   8.736  19.026   4.656
30835W        W 2561  14.908   1.472  13.444
30836W        W 2562  25.152  34.627  13.488
30837W        W 2563  40.292  27.374   2.318
30838W        W 2564  39.755   3.884  13.015
30839W        W 2565  37.993  22.618   0.494
30840W        W 2566  19.740  37.392   0.495
30841W        W 2567  22.287  31.697   4.878
30842W        W 2568  13.979  22.303  11.925
30843W        W 2569   2.537  12.642  11.553
30844W        W 2570  40.124  32.553   2.186
30845W        W 2571  39.464  41.513  11.538
30846W        W 2572  21.282  29.185   3.144
30847W        W 2573   0.322  31.677  11.952
30848W        W 2574  25.264   2.813  13.393
30849W        W 2575  31.074  14.358  11.016
30850W        W 2576  34.232   8.972   4.711
30851W        W 2577  39.330   9.910  13.433
30852W        W 2578  43.992  17.772  12.144
30853W        W 2579  13.619   0.817  13.475
30854W        W 2580  27.587  12.618   1.420
30855W        W 2581   6.813   6.280  11.427
30856W        W 2582  17.593  27.083   1.749
30857W        W 2583   0.571  11.276   0.434
30858W        W 2584  25.222  26.843  14.135
30859W        W 2585  19.134   7.262   2.101
30860W        W 2586   6.131  39.074   4.647
30861W        W 2587  37.370  39.252  11.396
30862W        W 2588   8.258  10.303  10.307
30863W        W 2589   9.267   3.634   2.421
30864W        W 2590   8.747  31.857  11.107
30865W        W 2591  20.171   9.396   0.155
30866W        W 2592  27.731  23.224   1.703
30867W        W 2593   7.219  35.081  12.557
30868W        W 2594   6.376  30.353  11.151
30869W        W 2595  16.807  23.165   1.792
30870W        W 2596  23.626  40.624  10.664
30871W        W 2597   6.400  13.275  10.774
30872W        W 2598  40.062   0.415  13.186
30873W        W 2599  14.873  36.984   4.774
30874W        W 2600  12.619  41.792  14.047
30875W        W 2601   2.647  28.474   1.739
30876W        W 2602  14.535  17.897  11.720
30877W        W 2603   2.447  35.055  12.081
30878W        W 2604  10.126  40.408   1.709
30879W        W 2605   6.504  29.507  10.703
30880W        W 2606  41.410  27.619  11.151
30881W        W 2607  44.062  23.045  12.610
30882W        W 2608   1.478  14.268  14.702
30883W        W 2609  22.112  11.344  12.622
30884W        W 2610  11.844  38.561  11.136
30885W        W 2611   1.916   3.392  11.481
30886W        W 2612  38.971  34.815  14.543
30887W        W 2613   6.084  35.940  13.775
30888W        W 2614  44.980  26.228   2.844
30889W        W 2615   4.883   8.603   4.707
30890W        W 2616  44.937  30.200   1.847
30891W        W 2617  18.771  31.745  12.660
30892W        W 2618   7.482  43.783  12.072
30893W        W 2619  11.371  17.696  12.973
30894W        W 2620  40.420  19.767   4.185
30895W        W 2621  19.426  14.199  14.510
30896W        W 2622  40.515   1.949  13.453
30897W        W 2623  21.368  25.780   0.976
30898W        W 2624   0.785   2.016  13.433
30899W        W 2625  31.382  20.017  12.929
30900W        W 2626   5.961  41.019  13.907
30901W        W 2627  11.074   7.218  12.646
30902W        W 2628   6.372  18.799  12.840
30903W        W 2629  23.509  44.939  10.298
30904W        W 2630  36.580  44.460  13.475
30905W        W 2631  11.043   8.095  14.384
30906W        W 2632  24.156  11.674   1.470
30907W        W 2633  42.407   6.296  14.918
30908W        W 2634  30.752  33.172  13.040
30909W        W 2635  12.233  28.944  14.500
30910W        W 2636  14.133  12.673  13.263
30911W        W 2637  21.355   4.409   3.800
30912W        W 2638   8.630   5.821   2.304
30913W        W 2639  41.213  40.060   1.757
30914W        W 2640  17.978  35.385  12.243
30915W        W 2641   4.003   9.888  11.106
30916W        W 2642  16.708  10.011  12.416
30917W        W 2643  11.383  19.599   1.748
30918W        W 2644  26.666  25.359  12.454
30919W        W 2645  14.364  32.931   3.692
30920W        W 2646  44.574  31.812  13.482
30921W        W 2647  35.597  32.385  12.397
30922W        W 2648  30.469  39.360   1.341
30923W        W 2649   9.607  34.916   3.776
30924W        W 2650  15.429   6.018  13.463
30925W        W 2651   8.260  37.041   3.615
30926W        W 2652   6.452  19.745  13.645
30927W        W 2653  13.928   8.917   2.345
30928W        W 2654  32.739  30.618  14.575
30929W        W 2655  20.226  21.191  10.735
30930W        W 2656  43.778  17.579   3.436
30931W        W 2657   6.557  39.261  11.111
30932W        W 2658   1.375  34.981  13.487
30933W        W 2659   3.947   9.017   0.825
30934W        W 2660  16.740  13.594  14.001
30935W        W 2661  37.519  30.392  12.845
30936W        W 2662  18.133  11.937   2.927
30937W        W 2663  35.957  43.301   4.857
30938W        W 2664  27.083   1.464   1.351
30939W        W 2665  36.900  35.890   2.347
30940W        W 2666  38.438  27.942   4.066
30941W        W 2667  34.408  32.982   3.304
30942W        W 2668  13.124  36.327   0.178
30943W        W 2669  28.142  44.606   1.550
30944W        W 2670  30.159   1.276  14.331
30945W        W 2671  28.678  43.092   4.156
30946W        W 2672  18.321  36.919  14.488
30947W        W 2673  28.202  26.505  10.449
30948W        W 2674  21.337   3.136   4.379
30949W        W 2675  41.304   8.127  13.904
30950W        W 2676  24.135  43.915  12.854
30951W        W 2677   8.893  16.557  13.884
30952W        W 2678  22.668  27.609  12.803
30953W        W 2679  33.120   2.820  10.714
30954W        W 2680   5.722  41.521   2.277
30955W        W 2681  26.042  31.180  12.545
30956W        W 2682   0.696   7.880  11.006
30957W        W 2683  22.759  13.277  13.887
30958W        W 2684  44.395  32.125   9.994
30959W        W 2685  40.833  44.016  12.898
30960W        W 2686   9.132  35.056  13.617
30961W        W 2687  34.979  28.585  12.939
30962W        W 2688   7.383   2.262  15.000
30963W        W 2689   0.706  26.715   2.843
30964W        W 2690  21.109   7.687   4.764
30965W        W 2691  36.935  12.774   1.199
30966W        W 2692  17.523  16.702  14.043
30967W        W 2693   0.192  43.348   2.798
30968W        W 2694   5.923  13.299  11.973
30969W        W 2695  22.727  38.542   3.596
30970W        W 2696  27.537   1.216  11.507
30971W        W 2697  29.163  13.056  13.836
30972W        W 2698  38.398  13.968  12.460
30973W        W 2699  32.957   3.664  13.573
30974W        W 2700   1.961  35.926   4.044
30975W        W 2701  42.258  44.539  10.788
30976W        W 2702  13.447  12.336   3.179
30977W        W 2703  25.752  24.850  13.562
30978W        W 2704  20.871  34.014   0.891
30979W        W 2705  39.337  27.126  12.863
30980W        W 2706  36.985  19.222  11.878
30981W        W 2707  19.686  19.990  14.320
30982W        W 2708  39.575   3.453  11.001
30983W        W 2709  15.802   0.141   4.647
30984W        W 2710  11.642  10.818  14.936
30985W        W 2711   8.456  43.427   2.786
30986W        W 2712  39.966  28.074   3.143
30987W        W 2713  43.207  15.620   2.629
30988W        W 2714  12.732  24.481  12.987
30989W        W 2715  26.732  44.151   2.315
30990W        W 2716  11.581   4.807  11.068
30991W        W 2717  14.727   1.637  11.199
30992W        W 2718   7.299  44.227  14.342
30993W        W 2719  44.482  37.726   4.976
30994W        W 2720  31.078  37.931  12.331
30995W        W 2721  43.310  36.111   0.957
30996W        W 2722   4.486  11.828   4.596
30997W        W 2723  14.879   2.972   0.429
30998W        W 2724   9.556  29.146   1.909
30999W        W 2725  42.153  21.152  14.629
31000W        W 2726  27.228  30.209   0.441
31001W        W 2727  12.291  20.767  12.071
31002W        W 2728  37.611   5.476  13.821
31003W        W 2729  44.914  40.812  14.534
31004W        W 2730   7.768   8.144  14.475
31005W        W 2731  17.107  28.180  11.917
31006W        W 2732  27.588  20.808   3.849
31007W        W 2733  10.836  19.836  14.851
31008W        W 2734  14.299   6.391   4.732
31009W        W 2735   0.774  34.588   3.266
31010W        W 2736   9.253  36.840  13.096
31011W        W 2737  39.758  34.572   0.978
31012W        W 2738  34.678  12.544   4.190
31013W        W 2739   9.372  33.983  11.640
31014W        W 2740  20.712  31.473  10.848
31015W        W 2741  16.070   9.327  11.827
31016W        W 2742   2.479  11.851  13.374
31017W        W 2743  24.787  11.412  13.957
31018W        W 2744   4.960  36.503   4.100
31019W        W 2745  39.681   3.270  11.463
31020W        W 2746  39.755  35.492   0.900
31021W        W 2747  37.802  14.868   1.840
31022W        W 2748   0.868  17.700   0.486
31023W        W 2749  22.760  34.338  11.610
31024W        W 2750  17.608  29.839   1.784
31025W        W 2751  31.422   6.904   3.159
31026W        W 2752  15.753  28.457  11.180
31027W        W 2753  16.408  44.665   1.729
31028W        W 2754  31.484  20.706  11.678
31029W        W 2755  43.259   6.402   2.307
31030W        W 2756   8.087  11.601  10.602
31031W        W 2757  15.234  39.479   3.897
31032W        W 2758  43.867   8.259  12.094
31033W        W 2759  43.880  31.617  14.298
31034W        W 2760  17.192  34.577   0.649
31035W        W 2761  12.264  40.066  14.948
31036W        W 2762   1.374  19.318  10.505
31037W        W 2763   8.786  43.120  14.101
31038W        W 2764  42.761  30.520   2.999
31039W        W 2765   0.982  43.509  11.143
31040W        W 2766  28.300  14.229  10.007
31041W        W 2767  11.979  12.400   4.498
31042W        W 2768  32.701  36.557   2.754
31043W        W 2769  33.917  39.517   4.764
31044W        W 2770  27.525  11.581  13.415
31045W        W 2771  29.236  36.967  10.414
31046W        W 2772  34.464   1.940  14.319
31047W        W 2773  44.854  40.322   2.609
31048W        W 2774  40.333  11.279   0.684
31049W        W 2775  20.837  12.034   0.523
31050W        W 2776  42.210  11.708  10.567
31051W        W 2777  30.386   7.246  14.482
31052W        W 2778   4.968  22.244  12.935
31053W        W 2779  35.231  28.438   3.025
31054W        W 2780  14.116  19.129   2.999
31055W        W 2781  35.121   6.407   1.416
31056W        W 2782   5.629  39.041   4.744
31057W        W 2783  16.753  28.112  14.942
31058W        W 2784  22.004   4.375   2.773
31059W        W 2785  40.855  32.872  12.927
31060W        W 2786  16.064  10.849   3.279
31061W        W 2787  22.638  25.520   0.522
31062W        W 2788   7.454  37.172  11.455
31063W        W 2789  34.367  13.840  10.678
31064W        W 2790  34.661  37.576   2.879
31065W        W 2791   5.596  29.679  14.862
31066W        W 2792   5.399  32.756  14.305
31067W        W 2793  23.102  26.019   2.679
31068W        W 2794   9.701  27.100   1.855
31069W        W 2795   8.141  32.785   2.109
31070W        W 2796  28.878   2.364  13.730
31071W        W 2797  25.962   5.001   2.915
31072W        W 2798   1.096  34.025  12.367
31073W        W 2799   8.232   1.037   0.311
31074W        W 2800   9.693  41.918   4.856
31075W        W 2801  41.263  32.831  12.056
31076W        W 2802   8.853   1.854   1.210
31077W        W 2803  36.564   6.727   2.765
31078W        W 2804  32.623  30.073  13.331
31079W        W 2805  16.079  32.911   1.197
31080W        W 2806  35.528   9.438   4.501
31081W        W 2807   5.480  19.143  11.507
31082W        W 2808  33.979   8.101   0.836
31083W        W 2809  29.212   1.924   2.118
31084W        W 2810  10.353  33.155  11.723
31085W        W 2811  26.493  29.177   2.343
31086W        W 2812  28.443  34.969   2.147
31087W        W 2813  19.326  36.015  14.228
31088W        W 2814  13.871  20.184   3.240
31089W        W 2815  27.600  39.538  12.313
31090W        W 2816  12.757  17.080   2.797
31091W        W 2817   7.337  16.592  11.647
31092W        W 2818  17.246  30.057  10.455
31093W        W 2819  12.780  21.623   2.804
31094W        W 2820  39.384  44.296   1.793
31095W        W 2821  38.505  26.999   1.715
31096W        W 2822   8.376  28.531   4.889
31097W        W 2823  43.419  22.532   3.928
31098W        W 2824  41.759   0.696   4.672
31099W        W 2825   9.285  32.644   2.748
31100W        W 2826  29.670  41.943  11.884
31101W        W 2827  37.614  35.941  10.773
31102W        W 2828  34.965  41.271  11.101
31103W        W 2829  24.097  28.652   3.757
31104W        W 2830  11.836  42.890   0.439
31105W        W 2831   2.806  41.501  11.616
31106W        W 2832  21.829  28.133   1.682
31107W        W 2833  24.504  25.930   4.583
31108W        W 2834  26.092  37.498   0.234
31109W        W 2835   5.141  18.671  10.411
31110W        W 2836  33.779  44.045  10.495
31111W        W 2837   3.950  16.097  14.465
31112W        W 2838  44.290  20.109  13.931
31113W        W 2839   5.744  20.506   3.885
31114W        W 2840  36.568  32.476  13.519
31115W        W 2841  34.608  39.317  10.559
31116W        W 2842  10.306   6.575  14.440
31117W        W 2843  43.515   0.830  12.315
31118W        W 2844   1.762  25.980  13.975
31119W        W 2845  29.882  19.713   2.008
31120W        W 2846  35.783  38.392  13.928
31121W        W 2847  39.254  33.028  13.823
31122W        W 2848  18.709  11.365   2.388
31123W        W 2849  26.627  29.009   1.441
31124W        W 2850  19.156   3.030  10.695
31125W        W 2851  37.301  22.600   4.162
31126W        W 2852   2.240  36.143  12.480
31127W        W 2853  40.063  12.061  12.107
31128W        W 2854  11.350  25.582   1.321
31129W        W 2855   6.664  38.054  12.392
31130W        W 2856  24.273  26.217   1.588
31131W        W 2857   7.476  12.724   2.880
31132W        W 2858  38.384   7.114  11.851
31133W        W 2859  36.017  24.486   3.585
31134W        W 2860  11.808  40.510   1.363
31135W        W 2861   6.550  34.109   3.762
31136W        W 2862   5.386  31.183   2.318
31137W        W 2863  33.540  16.669  14.470
31138W        W 2864  39.901  23.238  13.712
31139W        W 2865  31.138  19.550   3.017
31140W        W 2866  40.095   0.551  12.125
31141W        W 2867  14.552  11.900   2.634
31142W        W 2868  19.699   9.678  14.916
31143W        W 2869   7.383  29.508  11.357
31144W        W 2870  32.943  26.907   3.682
31145W        W 2871   6.860   5.138   3.230
31146W        W 2872  23.730  20.761  13.973
31147W        W 2873  31.459  31.599   0.537
31148W        W 2874  27.316   6.405  14.946
31149W        W 2875  24.196  27.966  12.952
31150W        W 2876  34.265  43.894  10.602
31151W        W 2877  38.426  25.657  13.776
31152W        W 2878  16.276  14.367  11.435
31153W        W 2879  20.365   1.707  14.913
31154W        W 2880  38.424  27.941  13.213
31155W        W 2881  18.292  13.610  12.091
31156W        W 2882   0.314  36.855   2.089
31157W        W 2883  39.295  28.743  13.784
31158W        W 2884   6.852   6.272   4.663
31159W        W 2885  31.071  34.420  13.740
31160W        W 2886  17.830  39.213  12.340
31161W        W 2887  35.080   3.306  11.960
31162W        W 2888   4.815  10.603  11.817
31163W        W 2889   8.567  22.437  10.143
31164W        W 2890   8.697  34.912   3.544
31165W        W 2891  44.174   0.415   9.869
31166W        W 2892   7.948  25.718   2.300
31167W        W 2893  21.702  13.237  13.883
31168W        W 2894   4.545  13.291  13.103
31169W        W 2895  42.849   9.599   1.787
31170W        W 2896   9.738  21.913   0.612
31171W        W 2897  19.705   3.980  11.848
31172W        W 2898   3.871  42.842   4.589
31173W        W 2899  20.308  38.532  13.952
31174W        W 2900  13.257   4.633  10.696
31175W        W 2901   7.154   5.800  14.501
31176W        W 2902  25.441  43.000   0.297
31177W        W 2903  31.194  17.115  12.798
31178W        W 2904   7.406  20.306  13.402
31179W        W 2905   0.669  43.897   3.737
31180W        W 2906  28.435  39.935   3.274
31181W        W 2907  28.421  29.921  10.654
31182W        W 2908  21.091   2.227  13.759
31183W        W 2909  24.767   1.728   0.883
31184W        W 2910  43.268  16.483  14.815
31185W        W 2911  42.750  43.492   1.721
31186W        W 2912  35.770  42.859   3.136
31187W        W 2913   4.729   8.898   0.895
31188W        W 2914  44.231  39.517  12.093
31189W        W 2915   8.804   2.040  10.755
31190W        W 2916  13.695  26.693   4.365
31191W        W 2917  29.053  21.016  10.947
31192W        W 2918  20.480  38.563   1.250
31193W        W 2919  38.685  41.454  11.914
31194W        W 2920  34.322  23.687   2.889
31195W        W 2921  34.027  15.123  12.573
31196W        W 2922  23.723  17.035   2.296
31197W        W 2923  16.185  19.024   1.800
31198W        W 2924   0.970  19.225   4.086
31199W        W 2925  18.124  26.117   3.286
31200W        W 2926  36.972  19.773  13.410
31201W        W 2927  31.637  44.040  11.962
31202W        W 2928   5.275  14.335   2.634
31203W        W 2929  37.385  12.603   1.402
31204W        W 2930  43.282  19.028   2.682
31205W        W 2931  37.967  31.883   2.397
31206W        W 2932  17.322  26.371  12.045
31207W        W 2933  44.991  30.841   3.166
31208W        W 2934  26.193  15.051  12.440
31209W        W 2935  36.322  27.269  11.194
31210W        W 2936  20.070  23.494   4.502
31211W        W 2937  25.985  23.162   3.024
31212W        W 2938  34.069  34.620   3.311
31213W        W 2939  11.184  25.052   0.577
31214W        W 2940   0.849  19.634   3.730
31215W        W 2941  25.705  19.124   4.645
31216W        W 2942  19.777  21.992  14.308
31217W        W 2943  24.732   2.909   1.138
31218W        W 2944  21.238  15.649   1.362
31219W        W 2945   9.164  14.844   3.974
31220W        W 2946  42.499  22.248  11.549
31221W        W 2947  43.272  39.997  11.624
31222W        W 2948   6.693  13.355  14.293
31223W        W 2949  22.722  10.817   1.862
31224W        W 2950  42.301  19.086  14.536
31225W        W 2951  31.975  26.007   4.997
31226W        W 2952  17.106   3.416  11.659
31227W        W 2953   9.906   8.365   2.729
31228W        W 2954  31.502  15.192   1.279
31229W        W 2955  36.600  11.106  13.342
31230W        W 2956  28.389  40.538  13.796
31231W        W 2957   4.770   5.448  10.521
31232W        W 2958   4.762  27.385  11.168
31233W        W 2959   2.793  24.611  14.829
31234W        W 2960  33.390  23.165   0.479
31235W        W 2961  26.890  28.187   0.792
31236W        W 2962  40.279  40.714   5.205
31237W        W 2963  15.328  18.215   0.932
31238W        W 2964  29.426  14.202   0.828
31239W        W 2965  20.984  44.771  10.659
31240W        W 2966  26.580   2.455  11.642
31241W        W 2967  39.358  14.301  10.735
31242W        W 2968   6.312   4.677  14.748
31243W        W 2969  30.033  28.561  11.870
31244W        W 2970  33.972   6.911  12.061
31245W        W 2971  23.618   8.868   4.605
31246W        W 2972  18.689   8.905  10.758
31247W        W 2973  21.949  13.715  13.824
31248W        W 2974  23.083   4.809   2.422
31249W        W 2975  12.798  12.244   4.165
31250W        W 2976  10.173  11.809  10.774
31251W        W 2977  40.744   0.971   3.822
31252W        W 2978  39.689  42.368   4.415
31253W        W 2979  37.492  12.414  11.657
31254W        W 2980  20.137  10.868   0.465
31255W        W 2981  39.201  40.981  10.624
31256W        W 2982  16.772  39.387   2.258
31257W        W 2983  19.751  13.566  13.328
31258W        W 2984   7.625  17.088  12.057
31259W        W 2985  22.295  27.473   0.850
31260W        W 2986  25.163  22.663  12.424
31261W        W 2987  37.399  29.169   0.440
31262W        W 2988  21.670  26.106  11.554
31263W        W 2989  28.933   3.878  13.775
31264W        W 2990  36.379  16.249  14.594
31265W        W 2991  42.421  13.584  14.508
31266W        W 2992   8.664   2.195  13.945
31267W        W 2993  43.397  21.207  10.810
31268W        W 2994  34.092  24.630   4.274
31269W        W 2995  37.400  43.515   1.345
31270W        W 2996  29.750  39.987   0.592
31271W        W 2997  21.142  25.922  13.395
31272W        W 2998  25.077  36.095   4.381
31273W        W 2999  21.976  44.198   1.738
31274W        W 3000  26.196  35.506   1.632
31275W        W 3001  15.787  35.944   2.890
31276W        W 3002  27.025  27.000   0.974
31277W        W 3003  21.273  29.780  13.934
31278W        W 3004  20.726  25.691  13.623
31279W        W 3005   7.800  24.244   0.574
31280W        W 3006  13.369  16.462  13.921
31281W        W 3007  22.223  41.297  14.054
31282W        W 3008  10.392  22.989   2.331
31283W        W 3009  21.536  20.602   0.348
31284W        W 3010   8.739  28.488   1.159
31285W        W 3011  27.736  21.822  12.070
31286W        W 3012  38.956  22.178   3.441
31287W        W 3013   9.915   8.840  13.985
31288W        W 3014  12.127   9.879   4.582
31289W        W 3015  17.317  18.548  11.606
31290W        W 3016  24.999  31.392   0.136
31291W        W 3017  12.237  14.543  11.599
31292W        W 3018  20.556  10.089  13.105
31293W        W 3019   6.700   4.910  10.654
31294W        W 3020  25.923  29.720   3.751
31295W        W 3021   9.688  15.803   3.739
31296W        W 3022   4.166   2.208  13.754
31297W        W 3023  28.320  18.720   1.147
31298W        W 3024   7.905  22.261  14.861
31299W        W 3025  34.885  42.851  14.448
31300W        W 3026  38.522  41.356  14.630
31301W        W 3027   5.265  25.974   0.132
31302W        W 3028   8.922  34.080  14.011
31303W        W 3029  15.224  41.576  14.083
31304W        W 3030  32.476   5.992  11.027
31305W        W 3031  14.670   0.468   3.857
31306W        W 3032  33.987  36.117   2.638
31307W        W 3033  29.498  19.032   0.324
31308W        W 3034  28.819  21.995   2.526
31309W        W 3035  17.572  35.307  13.974
31310W        W 3036  40.015   3.314   2.024
31311W        W 3037  24.840   2.656  10.936
31312W        W 3038  14.550  38.934   9.862
31313W        W 3039  30.615  38.343   2.434
31314W        W 3040  40.488  34.054   0.626
31315W        W 3041   0.665  44.348   2.203
31316W        W 3042   5.983  18.912  13.175
31317W        W 3043  18.485  36.863  11.583
31318W        W 3044   1.929  26.448   2.822
31319W        W 3045  28.735   3.853   0.115
31320W        W 3046  37.301   8.981   4.097
31321W        W 3047  22.050  36.533  10.821
31322W        W 3048  25.830  34.934   0.767
31323W        W 3049  26.148  39.547  10.650
31324W        W 3050  12.174   2.200  13.634
31325W        W 3051   9.983   1.257   2.818
31326W        W 3052  35.551  15.757  13.475
31327W        W 3053  21.094  43.398  12.376
31328W        W 3054  22.243  18.090   4.852
31329W        W 3055  32.351   6.423   1.751
31330W        W 3056   1.434  43.354  13.681
31331W        W 3057  13.872  31.692   3.206
31332W        W 3058  37.071  10.634  11.628
31333W        W 3059  44.881  27.066   3.203
31334W        W 3060  38.452   3.656   0.219
31335W        W 3061  36.134  17.065   0.753
31336W        W 3062  39.249  44.288   4.695
31337W        W 3063  21.007  40.704   1.482
31338W        W 3064  29.127   9.619   1.124
31339W        W 3065  44.594  44.696  13.999
31340W        W 3066   6.624  11.510   4.265
31341W        W 3067   6.173   7.906   4.331
31342W        W 3068  41.973  41.136   3.196
31343W        W 3069   5.356  24.499  10.978
31344W        W 3070  29.506   0.794  13.121
31345W        W 3071   1.913  21.138   4.150
31346W        W 3072  41.782  37.801  12.536
31347W        W 3073  31.530  25.419   0.737
31348W        W 3074   4.922  25.230   3.163
31349W        W 3075   3.860  37.797   3.777
31350W        W 3076  25.703  29.631   4.592
31351W        W 3077   9.421  23.000   3.290
31352W        W 3078  28.908  22.656  14.855
31353W        W 3079  10.692   3.477   4.164
31354W        W 3080  19.124  33.655  14.849
31355W        W 3081  35.352   7.477  12.890
31356W        W 3082   6.756  19.292  12.847
31357W        W 3083  33.008  31.291   2.757
31358W        W 3084  27.210  29.220  14.424
31359W        W 3085  38.775   9.694   3.205
31360W        W 3086  32.549  34.086   4.104
31361W        W 3087  40.773  23.213  13.790
31362W        W 3088  12.828   1.278   3.683
31363W        W 3089  40.097  30.411   0.901
31364W        W 3090  39.257  25.718  11.579
31365W        W 3091   4.243  25.190   2.360
31366W        W 3092  18.648  12.562   4.477
31367W        W 3093   6.269  10.128   4.775
31368W        W 3094  30.570  13.361   4.581
31369W        W 3095  42.368  40.461  13.991
31370W        W 3096  19.571  21.524  12.260
31371W        W 3097   5.906  13.762  14.724
31372W        W 3098  22.152   4.743  11.886
31373W        W 3099  32.022  18.537  11.122
31374W        W 3100  19.099   8.357  14.991
31375W        W 3101  22.446   7.976  14.351
31376W        W 3102  34.503  14.725  11.549
31377W        W 3103  16.126  21.073   4.136
31378W        W 3104  24.739  16.784   0.690
31379W        W 3105  15.824  32.886   1.877
31380W        W 3106   8.576  41.100   3.057
31381W        W 3107  28.359   5.799   9.880
31382W        W 3108  37.276  11.785  14.953
31383W        W 3109  28.530  27.389  12.447
31384W        W 3110  40.484  12.603  11.576
31385W        W 3111   1.713  42.461   3.801
31386W        W 3112  32.961   9.389  13.506
31387W        W 3113  25.362  35.858   1.793
31388W        W 3114   9.268   1.919  14.036
31389W        W 3115   7.036  19.619  12.453
31390W        W 3116  40.056  28.953   3.719
31391W        W 3117  40.794  44.477  11.571
31392W        W 3118  43.721   1.728  10.560
31393W        W 3119  12.940  26.710   2.221
31394W        W 3120  34.212  30.146   2.378
31395W        W 3121   7.826  16.318   0.533
31396W        W 3122  20.084  44.465  12.168
31397W        W 3123   4.856  38.074   1.234
31398W        W 3124  30.069  28.747   4.176
31399W        W 3125  33.667   0.292  13.801
31400W        W 3126  31.849   8.295   2.181
31401W        W 3127  25.771   9.263  10.590
31402W        W 3128  19.744  41.498  11.949
31403W        W 3129  36.905  37.167   2.877
31404W        W 3130  30.968  44.404  11.480
31405W        W 3131  25.080  28.024   4.564
31406W        W 3132  15.519  15.448  14.934
31407W        W 3133  12.694  28.447   4.485
31408W        W 3134  25.565  44.214   4.734
31409W        W 3135   8.843  39.463  11.121
31410W        W 3136  19.629  27.651  13.450
31411W        W 3137  10.360   1.939  13.883
31412W        W 3138  37.471   2.050  14.675
31413W        W 3139  13.322  44.932   0.824
31414W        W 3140  15.268  26.105  12.925
31415W        W 3141   0.994  18.102   2.282
31416W        W 3142  33.389  41.344  10.042
31417W        W 3143  38.707  17.233  14.838
31418W        W 3144  36.302  24.651   3.194
31419W        W 3145  26.252  35.592   2.142
31420W        W 3146  22.235   3.217   1.023
31421W        W 3147  32.069  14.744   2.787
31422W        W 3148  38.606   7.263   2.955
31423W        W 3149   1.186  22.700  14.873
31424W        W 3150   8.400   4.072  12.236
31425W        W 3151  28.035  14.513   0.097
31426W        W 3152   1.497  18.962  11.644
31427W        W 3153  29.071  25.578  14.992
31428W        W 3154  22.805  29.389   4.059
31429W        W 3155  44.389  28.735  11.130
31430W        W 3156   0.679   4.834   4.069
31431W        W 3157  21.248  31.048   2.621
31432W        W 3158  20.827  15.750   4.736
31433W        W 3159   2.730  26.449  10.750
31434W        W 3160  14.056  18.678   4.266
31435W        W 3161  32.924  39.372   0.451
31436W        W 3162  42.180  30.906   2.275
31437W        W 3163  21.941  18.153   3.213
31438W        W 3164  15.814  13.719  13.537
31439W        W 3165   6.146  27.940  10.231
31440W        W 3166  30.163  44.663   1.647
31441W        W 3167   9.060  40.980   3.208
31442W        W 3168  23.147  37.471   2.194
31443W        W 3169  20.779  29.340  11.724
31444W        W 3170  10.117  11.860   4.138
31445W        W 3171  10.626   4.716   3.994
31446W        W 3172  44.839  27.714   0.474
31447W        W 3173  13.281  31.011   2.203
31448W        W 3174  41.904  33.370  10.750
31449W        W 3175  27.913   3.228  13.082
31450W        W 3176  29.690  43.941  13.426
31451W        W 3177   9.617  37.618  14.258
31452W        W 3178  40.876  34.900  13.504
31453W        W 3179  35.377  29.619   2.803
31454W        W 3180  31.831  44.225  11.487
31455W        W 3181  36.087   6.977   2.754
31456W        W 3182   6.289  14.709  12.153
31457W        W 3183  19.608  26.536  14.072
31458W        W 3184   7.701  37.157  14.871
31459W        W 3185  35.310  24.529   3.103
31460W        W 3186  19.623  23.593   4.729
31461W        W 3187  20.261  23.059  13.802
31462W        W 3188  23.997  42.169   4.255
31463W        W 3189  38.103  19.662  12.465
31464W        W 3190   2.766  29.111   2.652
31465W        W 3191  33.077  41.836  13.759
31466W        W 3192   6.816  12.104  13.823
31467W        W 3193   7.299  23.310  11.611
31468W        W 3194  12.860  16.334   4.360
31469W        W 3195  27.334  12.274  14.804
31470W        W 3196  22.099  42.405   0.761
31471W        W 3197  25.740  11.215   0.478
31472W        W 3198  12.847  30.493   4.535
31473W        W 3199   0.366  37.905   5.206
31474W        W 3200   5.616   8.746  12.449
31475W        W 3201  30.485  11.934   1.401
31476W        W 3202  17.991  16.688  12.090
31477W        W 3203  18.587   6.993   4.761
31478W        W 3204   4.143   4.756   3.709
31479W        W 3205  37.620   8.477   3.239
31480W        W 3206  29.501  39.569   1.332
31481W        W 3207  20.394  13.860  14.963
31482W        W 3208  35.360  34.379  10.500
31483W        W 3209   0.526   4.359   2.191
31484W        W 3210  27.052  39.741  12.898
31485W        W 3211  18.606  14.336   2.900
31486W        W 3212  19.398  22.093   2.298
31487W        W 3213  29.669  12.032   5.162
31488W        W 3214  10.441  10.172   3.611
31489W        W 3215   0.649  22.104   3.008
31490W        W 3216   3.424  22.848  13.942
31491W        W 3217  30.768  31.565   0.036
31492W        W 3218  16.839  22.312  13.440
31493W        W 3219   6.172  11.345  14.229
31494W        W 3220  37.036  32.767   5.069
31495W        W 3221  32.661   6.472  11.023
31496W        W 3222  24.307   1.908   1.096
31497W        W 3223  43.372   9.652   0.216
31498W        W 3224  28.588  15.162   4.320
31499W        W 3225  13.169  16.323  13.415
31500W        W 3226   1.623  37.125   4.176
31501W        W 3227  29.162  17.257  12.868
31502W        W 3228  35.482  18.886  12.100
31503W        W 3229   7.365  36.433   4.552
31504W        W 3230   0.974  23.744  12.702
31505W        W 3231   6.275  15.077   0.523
31506W        W 3232   7.196  13.151   2.744
31507W        W 3233   6.305  15.693  10.928
31508W        W 3234  17.604   9.348  12.093
31509W        W 3235   9.616  20.756   3.780
31510W        W 3236   7.526   6.399  14.589
31511W        W 3237  22.964  32.975  14.510
31512W        W 3238   1.752  38.531  14.512
31513W        W 3239  29.593  30.435   4.155
31514W        W 3240  23.742  27.073   9.859
31515W        W 3241  34.639  37.580  14.819
31516W        W 3242  41.991   7.026  10.712
31517W        W 3243  21.838   9.167  10.974
31518W        W 3244  44.905  36.877  12.583
31519W        W 3245  43.004  38.886  14.456
31520W        W 3246  16.584  12.347   2.859
31521W        W 3247   9.290  34.818  13.173
31522W        W 3248  32.984  29.939   1.363
31523W        W 3249  25.100  37.663  13.516
31524W        W 3250  20.001  35.741   1.172
31525W        W 3251   0.494  23.675   0.870
31526W        W 3252  35.261   5.070  12.085
31527W        W 3253  38.703  40.876  13.240
31528W        W 3254  15.595  22.279  14.896
31529W        W 3255  12.289  26.263  12.029
31530W        W 3256  20.321  37.918   4.332
31531W        W 3257   0.892  34.868  13.315
31532W        W 3258  16.147  32.234  14.466
31533W        W 3259  12.743  26.414   3.508
31534W        W 3260  36.427  40.580   2.706
31535W        W 3261  16.037   3.782   1.162
31536W        W 3262  25.944   6.608  11.600
31537W        W 3263  26.103   2.142  14.885
31538W        W 3264   2.829  17.362   0.773
31539W        W 3265  11.629  34.427   2.230
31540W        W 3266  27.539  38.934   2.327
31541W        W 3267  33.110  14.741   4.096
31542W        W 3268  22.863   6.161  11.605
31543W        W 3269  34.489   9.549   4.246
31544W        W 3270  28.351  35.137   1.660
31545W        W 3271   1.632   7.082  13.017
31546W        W 3272   6.109  12.097   0.916
31547W        W 3273  40.028  36.381  11.182
31548W        W 3274  36.393  14.216   4.135
31549W        W 3275   0.528  28.423   2.269
31550W        W 3276   9.120   6.019   0.914
31551W        W 3277  26.035  23.037  14.972
31552W        W 3278  36.536  27.102   3.189
31553W        W 3279  14.238   5.171   4.663
31554W        W 3280   1.526   2.051  11.197
31555W        W 3281  28.460  16.352  13.420
31556W        W 3282  30.586  28.520  14.270
31557W        W 3283  44.966  44.281  14.142
31558W        W 3284  17.253  34.840   2.739
31559W        W 3285  44.373   3.743  14.351
31560W        W 3286  23.222  39.072   0.052
31561W        W 3287  16.207  12.823   3.195
31562W        W 3288   8.381  31.451  12.990
31563W        W 3289  42.825   2.440  11.669
31564W        W 3290  20.151  43.563  11.896
31565W        W 3291  31.982  38.962  14.183
31566W        W 3292  20.214   8.675   0.743
31567W        W 3293  19.756   0.048   1.406
31568W        W 3294  25.611  28.418   1.732
31569W        W 3295   6.843  38.139   2.366
31570W        W 3296  16.040  13.044  12.628
31571W        W 3297  12.731  37.600   0.320
31572W        W 3298  44.014  41.894   1.866
31573W        W 3299  20.041  40.315  14.407
31574W        W 3300  25.024  10.211  12.978
31575W        W 3301   0.467  43.551  11.158
31576W        W 3302  28.648  18.090   4.499
31577W        W 3303  22.478  20.428  10.753
31578W        W 3304   2.325  23.415   1.444
31579W        W 3305   2.259  40.684  14.598
31580W        W 3306   5.527  28.965  11.553
31581W        W 3307  43.752  27.140  11.617
31582W        W 3308  30.516  10.911  14.377
31583W        W 3309  28.485  12.124   1.163
31584W        W 3310  34.521  36.900   3.680
31585W        W 3311  35.556  34.518   3.222
31586W        W 3312  28.893  32.883   2.483
31587W        W 3313   4.300  30.602  13.409
31588W        W 3314  18.195   6.759   2.934
31589W        W 3315  29.607  16.624  14.942
31590W        W 3316  38.428  33.036  12.604
31591W        W 3317  18.598  14.676   2.082
31592W        W 3318   3.290   5.266   4.525
31593W        W 3319  11.525  22.099  11.229
31594W        W 3320  23.713   2.024   2.754
31595W        W 3321  32.658  35.989  12.846
31596W        W 3322  34.587  23.570   2.426
31597W        W 3323  43.955  18.213  11.020
31598W        W 3324  30.443  14.941   0.839
31599W        W 3325  32.172  16.235   0.422
31600W        W 3326   9.925  30.542   3.876
31601W        W 3327  38.119  15.825  12.028
31602W        W 3328  29.489  12.215  11.655
31603W        W 3329  44.884  39.930  13.663
31604W        W 3330  10.459  26.624   2.749
31605W        W 3331   1.849  21.680  13.880
31606W        W 3332  19.944  19.070   3.402
31607W        W 3333  23.242   0.286   1.449
31608W        W 3334  40.078  43.808  10.651
31609W        W 3335   7.843  34.582  12.889
31610W        W 3336  21.155  21.477   0.280
31611W        W 3337   7.093   3.875  10.717
31612W        W 3338  12.602  36.080   3.319
31613W        W 3339  33.633  38.834  11.193
31614W        W 3340  19.703  15.792   5.016
31615W        W 3341  13.887  21.451   3.727
31616W        W 3342   4.716  20.017  12.034
31617W        W 3343  37.315  38.349  13.878
31618W        W 3344  28.164   0.461   3.130
31619W        W 3345  12.015  20.501  13.997
31620W        W 3346  35.567  42.108  11.028
31621W        W 3347   2.179  29.437   4.200
31622W        W 3348   1.513  42.512  14.951
31623W        W 3349  16.382  28.512  12.965
31624W        W 3350  44.506  25.278   3.249
31625W        W 3351   2.804  21.327  14.425
31626W        W 3352  11.783  32.544  13.727
31627W        W 3353  13.113  30.042  11.243
31628W        W 3354   2.698  26.548   4.193
31629W        W 3355  32.150   7.161  10.447
31630W        W 3356  31.663  23.755   4.198
31631W        W 3357  28.210  15.561   2.221
31632W        W 3358  32.985  31.690  10.462
31633W        W 3359  38.389  10.552  13.285
31634W        W 3360  16.396  13.792   2.937
31635W        W 3361   9.423  42.204  14.686
31636W        W 3362   3.274  10.861  10.803
31637W        W 3363  33.367  38.070   4.096
31638W        W 3364  28.095  19.662  12.812
31639W        W 3365  28.465   8.841   3.300
31640W        W 3366  30.506  41.770   0.622
31641W        W 3367  19.976   2.850  12.531
31642W        W 3368  36.435  42.382  13.472
31643W        W 3369  37.895  42.438   3.450
31644W        W 3370   1.801  32.970  13.582
31645W        W 3371  11.898  40.099  13.373
31646W        W 3372  15.262  16.351   0.196
31647W        W 3373  36.440   9.990   0.834
31648W        W 3374  21.502  37.999   2.313
31649W        W 3375  14.130   4.150  13.977
31650W        W 3376   8.152  27.564  11.180
31651W        W 3377  40.555  22.048  14.888
31652W        W 3378  32.642  36.673   4.711
31653W        W 3379  27.958  31.851  13.421
31654W        W 3380   8.544  32.493   2.230
31655W        W 3381  42.809  41.284   0.808
31656W        W 3382  12.826  21.506  10.689
31657W        W 3383  38.024  17.297   1.694
31658W        W 3384   8.264  27.784  12.981
31659W        W 3385  25.590  32.929   3.411
31660W        W 3386  38.779   9.476  10.627
31661W        W 3387   0.897  14.122   1.876
31662W        W 3388  40.976   9.096  14.548
31663W        W 3389  21.310  33.868  14.227
31664W        W 3390   1.036  29.601   3.233
31665W        W 3391   5.389  37.115   4.637
31666W        W 3392   1.893  26.618   3.739
31667W        W 3393  20.284  34.147   2.352
31668W        W 3394  14.269  19.048  13.958
31669W        W 3395  39.862  28.518   2.802
31670W        W 3396  24.248  23.687  10.207
31671W        W 3397  29.931  18.982   2.994
31672W        W 3398  16.181  33.422  13.036
31673W        W 3399  30.279  43.014  10.275
31674W        W 3400  44.543   4.036   4.854
31675W        W 3401  22.126  43.430  10.665
31676W        W 3402  15.320  17.245   2.580
31677W        W 3403   0.786   7.863  10.476
31678W        W 3404  27.681  35.511   4.028
31679W        W 3405  28.681  20.024  13.827
31680W        W 3406  10.828  16.662   0.737
31681W        W 3407  35.932   6.649   0.428
31682W        W 3408  26.124  11.213   0.839
31683W        W 3409  32.114  15.766  10.718
31684W        W 3410  40.738  35.000  14.519
31685W        W 3411   2.809  28.582   4.879
31686W        W 3412  13.870  39.775   4.522
31687W        W 3413   8.222  30.783   4.461
31688W        W 3414   1.007  40.099   3.341
31689W        W 3415   4.233  24.681   3.033
31690W        W 3416  29.791  24.204  13.349
31691W        W 3417   6.889  22.242   1.881
31692W        W 3418   9.235  18.967   0.925
31693W        W 3419  42.400  22.140  14.520
31694W        W 3420  33.798   5.488   3.185
31695W        W 3421  25.531   0.718   0.496
31696W        W 3422   9.749  31.495   2.750
31697W        W 3423  28.026  38.384   3.082
31698W        W 3424   2.922   7.602   0.389
31699W        W 3425  30.398  23.493   3.718
31700W        W 3426   2.255  30.049  12.931
31701W        W 3427  21.714  18.323  10.726
31702W        W 3428  13.829  38.548   5.614
31703W        W 3429   7.303  14.557   4.793
31704W        W 3430  11.348  33.367  14.894
31705W        W 3431  10.074   8.326  11.093
31706W        W 3432  18.727  10.037   2.103
31707W        W 3433   6.734  30.952  12.311
31708W        W 3434   8.794   7.724  11.583
31709W        W 3435  38.061  24.204   3.230
31710W        W 3436  15.342   1.270  12.684
31711W        W 3437  16.699  26.098  13.154
31712W        W 3438   8.739  11.874   1.061
31713W        W 3439  42.081   0.424  10.527
31714W        W 3440   6.342  14.117  10.267
31715W        W 3441  36.116  37.203  13.194
31716W        W 3442  15.223  30.556  14.944
31717W        W 3443  43.280  39.606   2.183
31718W        W 3444  16.926  26.440  12.448
31719W        W 3445  32.242   7.595   2.752
31720W        W 3446  13.147  41.007   1.179
31721W        W 3447  31.174   6.544   4.770
31722W        W 3448   0.430  22.018  14.965
31723W        W 3449  15.820  14.558   1.676
31724W        W 3450   4.027  24.503  12.903
31725W        W 3451  37.839   9.684  13.873
31726W        W 3452  17.333  19.741   4.088
31727W        W 3453  24.209  12.373   5.314
31728W        W 3454  20.127  23.844   4.108
31729W        W 3455   5.506  27.598   1.774
31730W        W 3456  36.560  18.697  14.402
31731W        W 3457  31.578  40.547  11.069
31732W        W 3458  42.814  38.923  13.981
31733W        W 3459  16.562   4.850  13.094
31734W        W 3460   9.914  10.747   2.401
31735W        W 3461  37.689   9.698  12.123
31736W        W 3462  15.689   2.258   4.219
31737W        W 3463   8.951  32.979   4.605
31738W        W 3464   3.870   1.804   0.935
31739W        W 3465  43.535  25.307   0.254
31740W        W 3466  12.101  10.999   0.843
31741W        W 3467  40.361  28.120  12.058
31742W        W 3468   4.371  35.942   1.778
31743W        W 3469  21.259  24.075   0.382
31744W        W 3470   7.400  26.858  11.653
31745W        W 3471  39.910   5.837   3.197
31746W        W 3472  34.200  37.944   0.712
31747W        W 3473  25.495  25.501   1.950
31748W        W 3474  20.738  13.833  11.520
31749W        W 3475  27.561  38.436   4.844
31750W        W 3476  25.629  31.495   1.325
31751W        W 3477  20.035  13.134   4.344
31752W        W 3478  39.783  42.745   2.283
31753W        W 3479  27.155   5.426   1.721
31754W        W 3480  25.012  23.280   2.334
31755W        W 3481  37.813  39.829  13.544
31756W        W 3482   6.253  18.887  13.639
31757W        W 3483  22.697  11.592  11.001
31758W        W 3484  24.253  21.990  13.868
31759W        W 3485  15.787  15.060   0.989
31760W        W 3486  13.836  18.578   1.463
31761W        W 3487  23.950   3.672  11.989
31762W        W 3488  29.435  15.278   2.251
31763W        W 3489  17.431   2.637   4.168
31764W        W 3490  32.633  13.244  11.628
31765W        W 3491  36.324  37.518   1.919
31766W        W 3492  37.889  34.425  14.083
31767W        W 3493  22.356   3.239  14.420
31768W        W 3494  14.612  32.872  14.870
31769W        W 3495  40.921  10.565   0.372
31770W        W 3496  44.704  43.159   2.706
31771W        W 3497  17.806  18.100   0.698
31772W        W 3498  26.503  30.570   1.872
31773W        W 3499  29.511  18.092   1.390
31774W        W 3500  25.273  29.064  12.894
31775W        W 3501  29.860  35.141   3.509
31776W        W 3502  33.294  34.373  11.010
31777W        W 3503  19.538  25.113  14.956
31778W        W 3504  19.130   0.575  14.424
31779W        W 3505  25.452  30.628  11.953
31780W        W 3506  37.934  31.539  13.618
31781W        W 3507  24.451  21.476  13.522
31782W        W 3508  23.752  22.281  11.655
31783W        W 3509  29.908  31.814   1.662
31784W        W 3510  31.799   2.340  13.032
31785W        W 3511   6.687  17.115   0.785
31786W        W 3512  16.272  43.057  12.871
31787W        W 3513   3.706  24.884  10.692
31788W        W 3514  23.439  27.489   3.224
31789W        W 3515  23.606  37.336   4.775
31790W        W 3516  11.906   5.314  12.903
31791W        W 3517  14.089  44.245   1.072
31792W        W 3518  14.043  10.573  11.054
31793W        W 3519  36.359   6.826  10.964
31794W        W 3520  34.579  36.927   2.818
31795W        W 3521  27.133   7.224  10.720
31796W        W 3522  14.517   1.840  13.742
31797W        W 3523  10.560  26.589   4.599
31798W        W 3524  37.280   7.870  13.022
31799W        W 3525  12.115  13.795   0.318
31800W        W 3526  44.818   7.003  12.955
31801W        W 3527  43.894  13.525   0.291
31802W        W 3528  29.131  20.728   0.027
31803W        W 3529  12.824  10.945  13.011
31804W        W 3530  44.471  43.900  14.334
31805W        W 3531   0.936  32.400  12.359
31806W        W 3532  23.553  16.013  14.763
31807W        W 3533  26.199  16.601   0.797
31808W        W 3534   1.198   5.868  12.412
31809W        W 3535  30.245  44.319   4.624
31810W        W 3536  37.478  38.366   1.338
31811W        W 3537  25.690   3.431  10.722
31812W        W 3538  18.459  20.027  12.960
31813W        W 3539  33.296   0.535   4.753
31814W        W 3540   6.313  17.370   4.244
31815W        W 3541  38.054  22.104  13.886
31816W        W 3542  42.934   0.768   1.547
31817W        W 3543  12.367  20.871  14.983
31818W        W 3544  34.736   8.521  12.626
31819W        W 3545  31.609  30.445  10.765
31820W        W 3546  29.034  10.340  14.996
31821W        W 3547  21.057   1.443   4.450
31822W        W 3548  29.556  19.707   4.125
31823W        W 3549  36.901  43.358  14.605
31824W        W 3550  20.143  30.164  14.389
31825W        W 3551  41.531   9.368   0.511
31826W        W 3552  39.626  21.316  11.119
31827W        W 3553   7.628  38.720   3.865
31828W        W 3554  44.088  27.724   0.209
31829W        W 3555  26.750   9.657   5.072
31830W        W 3556  28.685   7.771   2.802
31831W        W 3557  34.339  18.528  13.508
31832W        W 3558  21.015  31.965   2.602
31833W        W 3559  37.424  30.175   1.158
31834W        W 3560  35.414  37.666  12.540
31835W        W 3561   3.371  18.802   0.506
31836W        W 3562  36.945  43.830  14.357
31837W        W 3563  16.402   7.876   0.430
31838W        W 3564  18.708  12.613  12.472
31839W        W 3565  13.917  11.363   4.203
31840W        W 3566   4.683  30.711   2.045
31841W        W 3567  23.157   2.474  12.976
31842W        W 3568  13.127  38.488   2.911
31843W        W 3569  21.027  29.907   3.706
31844W        W 3570  13.933  11.376   1.263
31845W        W 3571  44.886  20.165   2.384
31846W        W 3572  33.084  44.494   2.192
31847W        W 3573  17.378  28.619   9.876
31848W        W 3574  18.941   3.835   1.123
31849W        W 3575   4.372  35.634  11.461
31850W        W 3576  20.786  12.869  11.410
31851W        W 3577  17.396  34.158   3.198
31852W        W 3578  38.969  25.137   1.738
31853W        W 3579  23.668  10.496   2.121
31854W        W 3580  13.145   6.464   1.383
31855W        W 3581  14.717  16.345   2.701
31856W        W 3582  40.319  26.770  12.930
31857W        W 3583  17.457   2.063  11.099
31858W        W 3584  26.446  38.989   1.258
31859W        W 3585  13.385  43.718  13.896
31860W        W 3586  28.499  30.697   1.774
31861W        W 3587  21.767  36.995   1.253
31862W        W 3588  36.663   2.838   3.773
31863W        W 3589  41.536  39.961  13.053
31864W        W 3590  37.292  20.263   2.751
31865W        W 3591  11.573  38.926  13.744
31866W        W 3592  42.287  42.593  13.890
31867W        W 3593  10.861  24.530  11.818
31868W        W 3594   8.244   7.891  14.496
31869W        W 3595  29.604  23.487   2.211
31870W        W 3596  36.613  25.997   4.598
31871W        W 3597  24.278  29.658   2.260
31872W        W 3598   4.729  33.316  11.110
31873W        W 3599  41.435  29.138  14.766
31874W        W 3600  10.253  27.601  14.974
31875W        W 3601  15.200  44.776  12.482
31876W        W 3602  39.053  35.840  10.140
31877W        W 3603  15.409  22.913  12.932
31878W        W 3604  36.837  18.579  11.213
31879W        W 3605  41.605  20.556   0.942
31880W        W 3606  36.324  43.880   2.785
31881W        W 3607  33.633  19.992  10.994
31882W        W 3608   7.614  39.124  13.367
31883W        W 3609  12.182  33.295   0.079
31884W        W 3610  22.104   4.387  12.683
31885W        W 3611  32.581  43.551   0.103
31886W        W 3612  44.394  33.342  12.856
31887W        W 3613  42.949  43.679   4.117
31888W        W 3614  38.359   6.348   3.942
31889W        W 3615  30.897  34.456  11.591
31890W        W 3616  38.325  28.277  14.950
31891W        W 3617  12.082  36.453  12.373
31892W        W 3618  11.106  33.916  11.102
31893W        W 3619   7.102   6.480   3.362
31894W        W 3620  44.911  43.938  14.965
31895W        W 3621  37.345  37.113   1.106
31896W        W 3622  16.291  40.867   3.353
31897W        W 3623  14.258  23.996   0.380
31898W        W 3624   7.960  34.100  13.968
31899W        W 3625  43.059  17.644  12.556
31900W        W 3626  24.430  30.556   4.121
31901W        W 3627  19.274   5.976   2.314
31902W        W 3628  17.418  38.417  13.986
31903W        W 3629   4.232   0.901   1.637
31904W        W 3630  11.543   5.447   4.961
31905W        W 3631  43.014   9.683  10.569
31906W        W 3632  21.204   5.664   0.336
31907W        W 3633  15.495  31.601  13.021
31908W        W 3634  39.761   3.292  12.369
31909W        W 3635   6.203  35.142   2.387
31910W        W 3636   6.709   4.728  10.161
31911W        W 3637  27.254   4.834   3.498
31912W        W 3638   7.519  31.931   4.109
31913W        W 3639  18.431  26.779   5.049
31914W        W 3640  12.197  43.780   2.814
31915W        W 3641   6.734  35.681   1.456
31916W        W 3642   4.897   0.230  11.066
31917W        W 3643  37.412   0.000  14.363
31918W        W 3644  24.604   4.811  12.507
31919W        W 3645  10.806  16.712   0.223
31920W        W 3646  36.043  17.845   3.337
31921W        W 3647   4.505  16.718   2.777
31922W        W 3648   5.479  28.183   2.651
31923W        W 3649  44.976   9.901   3.426
31924W        W 3650   5.898  23.705  14.313
31925W        W 3651  42.848  23.447   4.081
31926W        W 3652   7.398  43.275   4.116
31927W        W 3653  20.670  15.105   3.526
31928W        W 3654   1.020  30.325  10.893
31929W        W 3655  43.760   7.283   2.228
31930W        W 3656  33.554  34.625  10.135
31931W        W 3657  31.034  17.766  11.471
31932W        W 3658   4.729  30.363  13.561
31933W        W 3659  21.185  39.990  10.624
31934W        W 3660  30.766  15.694  11.139
31935W        W 3661  10.838  41.790   2.045
31936W        W 3662  28.132  20.494   2.468
31937W        W 3663  37.025  14.537   0.746
31938W        W 3664  40.415  39.024  10.286
31939W        W 3665  42.919  25.606   2.819
31940W        W 3666  37.509  19.525  11.052
31941W        W 3667  16.145  17.021   1.852
31942W        W 3668   6.787  13.731   3.294
31943W        W 3669  38.451  38.464  11.215
31944W        W 3670   2.772  11.239   0.790
31945W        W 3671  37.656  12.671  13.483
31946W        W 3672  31.341  42.876   3.729
31947W        W 3673  24.977   3.738   3.851
31948W        W 3674  17.832  24.160   2.847
31949W        W 3675  37.563  28.958  12.442
31950W        W 3676  39.469  38.910   1.495
31951W        W 3677  30.649  13.289  14.253
31952W        W 3678   4.425  19.473  14.672
31953W        W 3679  30.972  41.638   1.256
31954W        W 3680  14.310  20.092  14.883
31955W        W 3681  22.474   2.651  12.513
31956W        W 3682   9.354  30.485  14.246
31957W        W 3683  39.227  25.073   0.147
31958W        W 3684  16.760   3.873   4.670
31959W        W 3685  24.372  30.991  11.708
31960W        W 3686  32.055  43.316   2.650
31961W        W 3687  30.181  15.424   0.543
31962W        W 3688  10.526  40.260   3.885
31963W        W 3689  16.585  11.183  10.886
31964W        W 3690   6.480  26.291  12.695
31965W        W 3691   7.545  35.381  13.004
31966W        W 3692  23.729  11.182  13.533
31967W        W 3693  16.851  32.650   4.775
31968W        W 3694  10.620  15.966   3.107
31969W        W 3695  44.122   3.416  13.031
31970W        W 3696  20.480   4.499   4.161
31971W        W 3697  25.296  44.919   3.286
31972W        W 3698  36.404  26.935   1.767
31973W        W 3699  38.800  28.509  14.981
31974W        W 3700  39.824   4.612   4.592
31975W        W 3701  30.242  12.196  12.229
31976W        W 3702  11.027  43.723  12.484
31977W        W 3703  24.253  37.869   3.636
31978W        W 3704   5.241  10.180  14.813
31979W        W 3705  32.428   1.729  14.369
31980W        W 3706  30.147  19.247  13.474
31981W        W 3707  44.696  25.402   2.376
31982W        W 3708  30.098  44.063  12.021
31983W        W 3709  10.810   2.999   2.457
31984W        W 3710  26.853   1.748   5.034
31985W        W 3711  20.286  38.413   2.259
31986W        W 3712  12.605  33.622  13.740
31987W        W 3713  43.334  24.602  10.428
31988W        W 3714   8.877  32.339   1.853
31989W        W 3715  34.007  32.153   4.752
31990W        W 3716  42.830  44.477   2.218
31991W        W 3717  19.054  37.002   2.697
31992W        W 3718  34.975  42.693  11.487
31993W        W 3719  29.634  14.113   2.202
31994W        W 3720  20.538  35.996  13.007
31995W        W 3721   5.799  44.506   4.330
31996W        W 3722  37.872   8.032   2.088
31997W        W 3723   6.936  21.518   4.097
31998W        W 3724  32.873   5.300  13.882
31999W        W 3725  17.314  25.730  14.013
32000W        W 3726  41.899  39.297   0.365
32001W        W 3727  13.383  35.902   0.900
32002W        W 3728  14.222  26.088   3.157
32003W        W 3729  10.597  26.133  10.504
32004W        W 3730  29.986  12.635  12.056
32005W        W 3731  19.598  23.658   3.645
32006W        W 3732  42.058  35.368  10.622
32007W        W 3733  15.324   1.684   4.140
32008W        W 3734  17.980  24.707  11.921
32009W        W 3735  10.047  34.902  12.518
32010W        W 3736  15.681   8.260  10.824
32011W        W 3737   3.719   8.054   1.767
32012W        W 3738   4.812  25.420   4.848
32013W        W 3739   5.804  32.651  10.742
32014W        W 3740  41.394   0.393  14.046
32015W        W 3741  15.546  29.169  12.875
32016W        W 3742  43.077   6.416  10.837
32017W        W 3743   6.958   0.742   1.254
32018W        W 3744   1.763  35.548   3.351
32019W        W 3745  25.516  44.737   2.652
32020W        W 3746  16.847   3.469   1.983
32021W        W 3747   3.511  28.829   0.975
32022W        W 3748  14.325  30.605  13.495
32023W        W 3749   6.860   1.250  13.830
32024W        W 3750  44.762   4.288  14.854
32025W        W 3751  22.487  43.079  13.859
32026W        W 3752  37.958  15.474   1.297
32027W        W 3753  26.865  17.260  10.609
32028W        W 3754  44.957  10.882  11.690
32029W        W 3755  10.264  28.470  12.499
32030W        W 3756  16.170  44.438  11.520
32031W        W 3757   9.598  25.729  11.967
32032W        W 3758  39.287   0.969  13.059
32033W        W 3759  42.480  12.929  11.200
32034W        W 3760   7.433  22.786  10.421
32035W        W 3761   6.388  27.133   1.639
32036W        W 3762   1.927  19.754  11.410
32037W        W 3763  12.573  39.116  11.145
32038W        W 3764   5.002  10.595  13.336
32039W        W 3765   1.185   2.928  11.207
32040W        W 3766  16.840  26.534   3.532
32041W        W 3767   0.750  41.304   1.724
32042W        W 3768  43.903  19.281  10.944
32043W        W 3769  19.508  36.121   3.198
32044W        W 3770  36.201  28.211   4.411
32045W        W 3771  40.788  27.401   3.824
32046W        W 3772  21.082  42.584  13.538
32047W        W 3773   7.484  44.396  13.869
32048W        W 3774  31.332  41.202   3.174
32049W        W 3775  27.547  32.700  14.288
32050W        W 3776   3.714  44.265   4.013
32051W        W 3777  12.545  37.594   2.768
32052W        W 3778  28.914  16.238   3.226
32053W        W 3779   0.124  29.037  11.766
32054W        W 3780  37.960  32.308   2.087
32055W        W 3781  31.138  24.203   3.211
32056W        W 3782  24.998  20.622  14.494
32057W        W 3783  21.719  35.808  10.439
32058W        W 3784  24.520  31.629   0.734
32059W        W 3785  19.714   4.274   2.485
32060W        W 3786   3.258   3.657   2.104
32061W        W 3787  15.762   9.130  12.391
32062W        W 3788  23.490  26.441   4.184
32063W        W 3789  15.448  18.528   4.022
32064W        W 3790   9.118  11.746  11.471
32065W        W 3791  34.303  35.334  11.681
32066W        W 3792  41.418  10.397   0.350
32067W        W 3793   8.139  35.941  10.603
32068W        W 3794  17.759  43.980  12.182
32069W        W 3795  40.517  16.147   1.175
32070W        W 3796  44.994  12.323   4.795
32071W        W 3797  39.657  27.575   0.776
32072W        W 3798  34.595   3.876  13.029
32073W        W 3799  38.434  33.471  13.701
32074W        W 3800  44.999  39.386  11.378
32075W        W 3801  20.252  24.933  13.468
32076W        W 3802   5.912   2.360  11.916
32077W        W 3803  12.666   3.295  10.751
32078W        W 3804  40.054   6.213  10.700
32079W        W 3805  25.689  38.550  13.434
32080W        W 3806  17.731  20.212   0.233
32081W        W 3807  10.859  25.665   3.625
32082W        W 3808   0.942  26.462   3.765
32083W        W 3809  10.149  14.913  12.523
32084W        W 3810   4.058   9.621  12.067
32085W        W 3811  13.503  36.851  11.631
32086W        W 3812  22.963  14.320   0.359
32087W        W 3813  42.445   9.404  11.511
32088W        W 3814  34.480   8.958  12.890
32089W        W 3815  26.350  29.069   3.219
32090W        W 3816  26.010  24.443   3.274
32091W        W 3817  26.268  13.306   2.645
32092W        W 3818  44.418  15.713   3.149
32093W        W 3819  35.993  32.815  14.330
32094W        W 3820  32.870   7.432   1.920
32095W        W 3821   2.563  40.028   2.815
32096W        W 3822  19.310  40.357   2.152
32097W        W 3823  10.167  36.087   0.023
32098W        W 3824  20.666  41.932   3.647
32099W        W 3825   4.451  26.460   3.600
32100W        W 3826  19.237   4.756  12.465
32101W        W 3827  41.872   7.881   0.908
32102W        W 3828  42.854   7.312  12.642
32103W        W 3829  26.742  43.254   4.039
32104W        W 3830  27.682  12.818  10.425
32105W        W 3831  44.414  43.461   1.799
32106W        W 3832   8.181  35.068  10.658
32107W        W 3833  37.275   2.305  12.450
32108W        W 3834  14.918   6.425   0.500
32109W        W 3835  19.720   0.340   1.835
32110W        W 3836  31.689  32.461  11.528
32111W        W 3837  31.604  42.911  13.803
32112W        W 3838   8.373  41.301  10.622
32113W        W 3839   6.488  19.709   4.596
32114W        W 3840  40.385  23.167  10.895
32115W        W 3841  19.934   4.165  12.421
32116W        W 3842   1.506  24.941   2.198
32117W        W 3843   2.926  44.881   2.196
32118W        W 3844  44.008  21.672  12.719
32119W        W 3845  23.593  38.195   1.444
32120W        W 3846  15.036  26.135  12.455
32121W        W 3847   0.657   7.276   2.578
32122W        W 3848  33.125  27.627   1.813
32123W        W 3849   8.891  43.796   0.294
32124W        W 3850  29.666  22.134  12.997
32125W        W 3851  33.428   8.947  10.874
32126W        W 3852  42.291  32.774   2.350
32127W        W 3853  17.970  13.042  13.535
32128W        W 3854  24.469  23.677  14.362
32129W        W 3855   4.792  16.905  11.131
32130W        W 3856  17.848  19.071   4.145
32131W        W 3857  14.128  14.823   1.195
32132W        W 3858  34.133  15.763  12.152
32133W        W 3859  41.983  15.480  10.751
32134W        W 3860  37.307  18.071  13.869
32135W        W 3861  25.822  36.533   2.228
32136W        W 3862  39.880  31.154  11.229
32137W        W 3863  39.271  15.600   3.221
32138W        W 3864  22.184   1.708  14.350
32139W        W 3865  17.273  13.817  11.056
32140W        W 3866  42.174  23.106   2.024
32141W        W 3867   8.739  32.164   3.156
32142W        W 3868  19.773   3.521  11.151
32143W        W 3869  41.824  21.206   2.420
32144W        W 3870  11.313  25.653   0.304
32145W        W 3871   1.501  23.085  14.678
32146W        W 3872  23.432  42.876  10.226
32147W        W 3873  18.720  40.082  13.442
32148W        W 3874   8.739  44.792  14.529
32149W        W 3875  29.960  12.859  11.199
32150W        W 3876  23.178  27.000   2.224
32151W        W 3877  44.139  22.735   4.651
32152W        W 3878  33.958  43.579   0.431
32153W        W 3879  39.750  11.832   2.315
32154W        W 3880   7.716  17.987  10.258
32155W        W 3881  31.916  18.833  13.835
32156W        W 3882   4.603  39.318   4.008
32157W        W 3883  38.960  33.511   3.141
32158W        W 3884  28.086  41.840   3.037
32159W        W 3885   3.911   1.244   2.891
32160W        W 3886  43.477  17.131  14.511
32161W        W 3887  24.357  14.077   3.619
32162W        W 3888  19.554  29.642  10.608
32163W        W 3889  39.319  35.754   1.297
32164W        W 3890  26.244   9.183   2.326
32165W        W 3891  41.883  13.308   3.612
32166W        W 3892  44.932  14.888  14.856
32167W        W 3893  29.628  22.584  10.338
32168W        W 3894   5.894   4.144   9.727
32169W        W 3895  31.118  13.869   2.333
32170W        W 3896   2.189   1.121  14.477
32171W        W 3897  23.621  28.142   0.198
32172W        W 3898  17.219   7.389   0.821
32173W        W 3899   7.162  11.596   4.243
32174W        W 3900  25.463  29.502   3.661
32175W        W 3901  29.037  40.591   4.621
32176W        W 3902  33.239  33.984   2.018
32177W        W 3903  32.114  16.281  13.045
32178W        W 3904   7.057  16.860  12.893
32179W        W 3905   6.595  44.326   0.080
32180W        W 3906  28.194  26.003   0.750
32181W        W 3907   9.975  36.850  13.984
32182W        W 3908   7.580  30.350   4.093
32183W        W 3909  42.519   1.294  12.993
32184W        W 3910  39.405  22.768   1.529
32185W        W 3911  43.851  43.463   1.946
32186W        W 3912  35.988   2.163   2.320
32187W        W 3913   7.332   8.196   4.540
32188W        W 3914  14.301  25.159  14.812
32189W        W 3915  19.950  24.480  11.955
32190W        W 3916   5.390   5.459   5.001
32191W        W 3917  21.021  10.837  10.723
32192W        W 3918  31.626  26.011  13.607
32193W        W 3919  35.058  19.126   0.350
32194W        W 3920  39.410  18.229   2.258
32195W        W 3921  44.692   1.297   3.802
32196W        W 3922  33.509   7.397   0.592
32197W        W 3923   2.671  15.627   3.179
32198W        W 3924  32.511   0.285   3.293
32199W        W 3925  23.858  11.380  14.249
32200W        W 3926  17.825  20.130   3.271
32201W        W 3927  30.873  28.935  12.364
32202W        W 3928  31.975  24.146  10.636
32203W        W 3929   6.395  34.624   1.202
32204W        W 3930  38.991  23.371   4.468
32205W        W 3931  42.263   0.014  13.068
32206W        W 3932   0.917  22.993   3.182
32207W        W 3933  42.570  35.170  12.616
32208W        W 3934  26.023  26.151   0.521
32209W        W 3935   9.076  36.552  14.087
32210W        W 3936  40.037  29.177   4.575
32211W        W 3937   8.354  29.966   4.039
32212W        W 3938  41.281  30.414  14.382
32213W        W 3939  13.790  18.518  14.382
32214W        W 3940  21.628   5.740  14.857
32215W        W 3941   8.267  34.869   1.345
32216W        W 3942  19.030  44.947   2.208
32217W        W 3943  41.313  26.787   1.499
32218W        W 3944  43.885  25.215  13.397
32219W        W 3945  11.245  13.292  12.637
32220W        W 3946   9.695   7.412  12.147
32221W        W 3947   6.236  31.040  10.705
32222W        W 3948  14.607  38.409   4.798
32223W        W 3949  34.504  37.503   0.728
32224W        W 3950  21.641  12.300   2.801
32225W        W 3951  23.134   3.213   4.118
32226W        W 3952  34.155   6.312  14.028
32227W        W 3953   8.269  39.982  11.128
32228W        W 3954  37.051  26.748  14.016
32229W        W 3955  18.537   3.506   1.410
32230W        W 3956  18.642  31.155   3.408
32231W        W 3957  18.181  44.924  11.660
32232W        W 3958  21.635  19.776   2.723
32233W        W 3959   2.116  27.750   0.887
32234W        W 3960  22.588  15.956   4.976
32235W        W 3961  21.616  42.529  13.405
32236W        W 3962  19.755   3.257  10.679
32237W        W 3963  28.019  37.917  14.896
32238W        W 3964  22.585   9.872   0.889
32239W        W 3965  19.790  32.956  14.730
32240W        W 3966  25.229   0.206   3.725
32241W        W 3967  19.745  42.521  10.985
32242W        W 3968   9.305   9.212  13.926
32243W        W 3969  31.512  18.743   4.955
32244W        W 3970  36.292  38.416   3.582
32245W        W 3971  23.582  40.431   2.196
32246W        W 3972  10.115  32.296  13.639
32247W        W 3973  26.108  29.692  13.576
32248W        W 3974  33.047  22.757   4.598
32249W        W 3975  25.742  40.012   0.480
32250W        W 3976  30.629  29.183  13.064
32251W        W 3977  42.389   4.286   1.424
32252W        W 3978   9.116   8.038  11.896
32253W        W 3979  17.557   8.414   2.827
32254W        W 3980  17.707  35.122   0.409
32255W        W 3981  13.708   7.019  12.512
32256W        W 3982  10.193  27.037  11.161
32257W        W 3983   5.854  36.090  12.311
32258W        W 3984   9.360  38.697  12.081
32259W        W 3985  23.116  33.705  11.122
32260W        W 3986   4.464   5.808  12.108
32261W        W 3987  23.801  14.180  14.054
32262W        W 3988  44.787  13.542   1.051
32263W        W 3989  42.930  25.568   1.645
32264W        W 3990   6.400   7.756  10.132
32265W        W 3991   9.403  38.295  14.249
32266W        W 3992  19.490   2.549   3.710
32267W        W 3993   0.785  42.329  13.994
32268W        W 3994  40.587  17.176  13.361
32269W        W 3995  38.415  44.723  12.628
32270W        W 3996  23.110   4.149  14.424
32271W        W 3997   2.715  42.373  13.755
32272W        W 3998  28.441  38.063   1.869
32273W        W 3999   4.016  32.417   4.214
32274W        W 4000  31.994  44.754  10.595
32275W        W 4001  38.552  22.243  12.870
32276W        W 4002   1.505  28.087   1.347
32277W        W 4003  38.120  20.941  13.266
32278W        W 4004  34.462   6.219  13.606
32279W        W 4005  27.957  12.979   0.252
32280W        W 4006  37.436   9.682   3.589
32281W        W 4007  10.232  21.027  12.480
32282W        W 4008   7.954  27.692  12.577
32283W        W 4009  31.908  21.644  11.188
32284W        W 4010  30.630  31.843  13.487
32285W        W 4011   7.429  18.938  12.219
32286W        W 4012  30.073  22.563   0.625
32287W        W 4013  18.845   7.971  13.656
32288W        W 4014  24.918  33.609   2.908
32289W        W 4015  24.186  15.983   3.714
32290W        W 4016  17.255  31.612   1.131
32291W        W 4017  22.615   1.925  14.564
32292W        W 4018  40.079   5.758  14.544
32293W        W 4019  40.885   1.280   2.851
32294W        W 4020  25.165  24.161  13.442
32295W        W 4021  31.431  12.300  13.761
32296W        W 4022  30.093  33.514  12.002
32297W        W 4023  19.141  28.020   1.392
32298W        W 4024  31.037  41.918   5.590
32299W        W 4025  28.427  15.063   2.220
32300W        W 4026  39.621   6.538  12.930
32301W        W 4027   0.388  17.185   2.650
32302W        W 4028  26.141  33.836   4.142
32303W        W 4029  12.884   5.905  14.428
32304W        W 4030  30.976  31.513  14.563
32305W        W 4031  44.797  31.325  14.387
32306W        W 4032  40.493  15.128   1.193
32307W        W 4033  30.342  22.355  12.186
32308W        W 4034  33.004   4.299  11.284
32309W        W 4035  29.198  25.896   5.075
32310W        W 4036  31.915  30.463  13.488
32311W        W 4037  21.231  20.816   2.300
32312W        W 4038  10.536  18.883   1.144
32313W        W 4039  40.324   3.760  12.073
32314W        W 4040  35.264   0.059  11.396
32315W        W 4041  33.719  33.092  11.484
32316W        W 4042   9.361  14.820  14.179
32317W        W 4043  20.180  17.475  12.513
32318W        W 4044  33.856  15.329  13.024
32319W        W 4045  29.923  12.786   1.192
32320W        W 4046  25.962  44.780  13.797
32321W        W 4047  39.300  35.269  10.954
32322W        W 4048  20.444  22.084   3.666
32323W        W 4049  24.680  22.053   1.741
32324W        W 4050  13.123  28.990  13.557
32325W        W 4051   8.840  30.433  13.091
32326W        W 4052   3.663   4.255   1.523
32327W        W 4053  34.096  21.638   3.855
32328W        W 4054   7.301  25.975  10.706
32329W        W 4055  21.187  24.665   4.293
32330W        W 4056  13.514  28.819  11.051
32331W        W 4057  23.488  26.100   0.365
32332W        W 4058  14.803  33.330  12.068
32333W        W 4059   8.670   8.731   3.857
32334W        W 4060  38.147  38.853  11.109
32335W        W 4061  18.434  35.437   3.010
32336W        W 4062   9.794   9.171   2.176
32337W        W 4063  36.830  17.073  11.973
32338W        W 4064  32.176  35.406   4.101
32339W        W 4065  20.519  24.660  14.213
32340W        W 4066  38.435  34.863  10.528
32341W        W 4067  34.649  24.194   4.660
32342W        W 4068  44.899  38.502  10.926
32343W        W 4069  11.719  22.604   0.443
32344W        W 4070  19.406  21.019  12.323
32345W        W 4071  10.417  39.523  12.817
32346W        W 4072   0.863  29.781   4.169
32347W        W 4073   5.206   6.642   3.281
32348W        W 4074  24.249  35.965   4.552
32349W        W 4075  38.089  41.443   1.940
32350W        W 4076  39.119   6.123  11.502
32351W        W 4077  18.161  35.901  12.178
32352W        W 4078  38.960   3.189  11.073
32353W        W 4079   2.778  28.764  13.079
32354W        W 4080  25.119  32.646  13.476
32355W        W 4081  36.335  19.994  12.414
32356W        W 4082   2.364  24.852   0.023
32357W        W 4083  18.145   3.107  11.550
32358W        W 4084  19.423  23.612   5.224
32359W        W 4085   8.294  28.631   1.906
32360W        W 4086  26.646   1.911   0.918
32361W        W 4087   6.742   8.431   4.207
32362W        W 4088  18.089  20.870   1.741
32363W        W 4089  15.645   3.217  11.961
32364W        W 4090  43.338  43.778  11.024
32365W        W 4091  44.923  36.671  12.085
32366W        W 4092  20.316  44.004   1.275
32367W        W 4093  31.863   7.205  11.755
32368W        W 4094  44.240  12.624   3.231
32369W        W 4095  32.060   3.345   1.887
32370W        W 4096   9.395  27.445   2.829
32371W        W 4097  28.084  39.899   4.572
32372W        W 4098  38.974  39.222  13.848
32373W        W 4099  24.581   8.208   1.596
32374W        W 4100  20.325  40.004   4.218
32375W        W 4101  36.458  24.487  14.549
32376W        W 4102   7.276  41.426  11.463
32377W        W 4103  37.100  32.469   4.654
32378W        W 4104  10.291  13.693   4.097
32379W        W 4105  36.505  43.444  14.244
32380W        W 4106  25.484   6.389  14.418
32381W        W 4107  14.227  41.415   2.920
32382W        W 4108  12.115  41.880  10.871
32383W        W 4109  40.380   6.558   0.639
32384W        W 4110   8.856  36.928  14.381
32385W        W 4111  23.740  42.269  12.929
32386W        W 4112  25.606  26.184   4.036
32387W        W 4113  12.265   5.500   1.787
32388W        W 4114  20.688  40.324  11.100
32389W        W 4115   5.931  35.161  10.694
32390W        W 4116  18.669  12.691  14.355
32391W        W 4117   1.354  10.711  11.511
32392W        W 4118  41.604   3.298   2.669
32393W        W 4119   5.288  33.849   2.364
32394W        W 4120  21.264  39.452   2.247
32395W        W 4121  36.054  14.769   4.928
32396W        W 4122  29.744  33.085  12.044
32397W        W 4123  42.791  44.358  12.574
32398W        W 4124  21.128  41.825   3.241
32399W        W 4125  20.113  44.020  14.672
32400W        W 4126  12.102  27.999  13.504
32401W        W 4127  13.197   9.823   4.663
32402W        W 4128  34.904   0.505   0.678
32403W        W 4129   7.913  42.827  10.767
32404W        W 4130  15.680  16.264   2.390
32405W        W 4131  44.737  34.841   4.367
32406W        W 4132   1.907  32.671   3.533
32407W        W 4133   4.212  24.215  10.455
32408W        W 4134  29.077   0.649   0.457
32409W        W 4135   6.088   7.318  10.261
32410W        W 4136   8.698  36.642  10.063
32411W        W 4137  23.772  24.192  12.880
32412W        W 4138   4.057  23.656   1.903
32413W        W 4139  27.525  29.645  11.542
32414W        W 4140  24.258  35.686   3.699
32415W        W 4141  40.781  41.099  10.450
32416W        W 4142  36.366  24.015  12.436
32417W        W 4143   1.473   1.168   0.827
32418W        W 4144  39.563  36.176   1.819
32419W        W 4145  19.608  38.069  14.287
32420W        W 4146  13.918  37.898  13.270
32421W        W 4147  23.946  34.811   3.803
32422W        W 4148  14.358  33.323  12.543
32423W        W 4149  37.344  31.533  11.536
32424W        W 4150  42.779  44.635  14.374
32425W        W 4151  32.938   3.738  13.002
32426W        W 4152  32.359  37.022  14.379
32427W        W 4153  31.784  40.827   4.067
32428W        W 4154  20.116  11.704   0.853
32429W        W 4155  20.176  10.634   1.823
32430W        W 4156  44.898  26.700   0.510
32431W        W 4157   0.724  21.520  10.591
32432W        W 4158  18.800  15.675  13.611
32433W        W 4159  19.686  34.828   3.643
32434W        W 4160  17.763  15.156   0.917
32435W        W 4161  28.418  10.157   2.816
32436W        W 4162  28.406   7.172   3.628
32437W        W 4163  13.024  18.085   1.353
32438W        W 4164  19.167  18.588  12.863
32439W        W 4165  22.185  27.594   3.844
32440W        W 4166  24.569  36.716   1.029
32441W        W 4167  38.596  12.120   3.283
32442W        W 4168  24.173  35.420  13.456
32443W        W 4169  23.247  14.492   3.696
32444W        W 4170   2.220   7.404   5.221
32445W        W 4171   9.127  34.157  11.183
32446W        W 4172  11.321  16.098   1.345
32447W        W 4173  32.117  41.389  14.922
32448W        W 4174  36.053   4.454  10.971
32449W        W 4175   5.702  23.278  13.865
32450W        W 4176  43.969  42.259  14.043
32451W        W 4177  31.399  10.119  13.293
32452W        W 4178  37.528  27.325   3.175
32453W        W 4179  16.173  24.739  12.348
32454W        W 4180   5.087  32.643   3.687
32455W        W 4181  13.266  40.417  14.763
32456W        W 4182  28.214   6.378  11.558
32457W        W 4183  40.461   1.296  14.098
32458W        W 4184  39.868   6.917   1.275
32459W        W 4185  22.986  37.982   2.890
32460W        W 4186   5.803  35.390  11.650
32461W        W 4187  23.266  26.533  14.402
32462W        W 4188  39.744   3.228   0.029
32463W        W 4189  22.914  24.516   2.996
32464W        W 4190  43.684  40.882  12.262
32465W        W 4191  28.977   5.749  13.580
32466W        W 4192   1.699  33.915   3.694
32467W        W 4193  24.949  16.541  14.314
32468W        W 4194  29.939  37.505   1.812
32469W        W 4195   7.362  33.403  11.197
32470W        W 4196   2.264  16.540   3.338
32471W        W 4197  32.638   9.821  11.860
32472W        W 4198   7.673   1.453   4.163
32473W        W 4199  39.682  12.856   0.447
32474W        W 4200  26.735  32.082  11.999
32475W        W 4201   8.674  11.048  11.179
32476W        W 4202   2.929  26.449  10.278
32477W        W 4203  21.822  26.110   1.324
32478W        W 4204  37.528  37.963   2.134
32479W        W 4205   8.435  13.205  12.873
32480W        W 4206   3.788  14.625  11.209
32481W        W 4207   5.535   2.412   0.753
32482W        W 4208  24.602   0.403   2.784
32483W        W 4209   7.923  11.662   0.353
32484W        W 4210  25.344  39.140   4.983
32485W        W 4211  18.169  16.797  13.300
32486W        W 4212   2.834   9.242   2.902
32487W        W 4213  44.956  32.498  13.384
32488W        W 4214  10.140   5.904   4.638
32489W        W 4215  20.755  18.773   1.798
32490W        W 4216  13.762  17.378   4.885
32491W        W 4217  41.375   7.916  13.440
32492W        W 4218  14.258  12.032   0.040
32493W        W 4219  17.502  34.975  13.032
32494W        W 4220  25.693  44.973  10.952
32495W        W 4221  37.060  30.494   3.034
32496W        W 4222  17.583   2.483  14.072
32497W        W 4223  16.735  12.870   0.249
32498W        W 4224  22.294   9.918   2.162
32499W        W 4225  13.276   4.125   5.017
32500W        W 4226  43.360  43.163  10.614
32501W        W 4227  12.401  24.218   4.117
32502W        W 4228  44.747  26.352   2.391
32503W        W 4229   6.587  33.543   4.665
32504W        W 4230  23.553  14.123  14.496
32505W        W 4231  16.484  37.392   4.667
32506W        W 4232   1.349  44.478   0.599
32507W        W 4233  30.573   9.940   3.109
32508W        W 4234   4.222  27.701  11.966
32509W        W 4235  21.177  23.091  10.288
32510W        W 4236  28.546  11.730  13.970
32511W        W 4237  15.090  31.427   1.814
32512W        W 4238   5.380  31.654  14.384
32513W        W 4239   4.126  32.680  12.809
32514W        W 4240   2.760  12.953  12.853
32515W        W 4241   8.609  30.182  11.862
32516W        W 4242  20.509  38.920   2.407
32517W        W 4243  38.460   3.190  11.197
32518W        W 4244   0.779  27.247   0.483
32519W        W 4245  15.104  42.394  12.443
32520W        W 4246   8.882  19.070  10.440
32521W        W 4247  38.743  32.529  10.875
32522W        W 4248   9.479  42.463   0.190
32523W        W 4249  31.840  19.643  14.119
32524W        W 4250  25.233   3.257  14.391
32525W        W 4251  38.804  25.985  14.884
32526W        W 4252  27.424  11.323   2.842
32527W        W 4253  10.180  34.839   2.285
32528W        W 4254  20.592  29.227   2.151
32529W        W 4255  39.841  35.480  12.104
32530W        W 4256  10.191  11.353   4.176
32531W        W 4257  24.395  35.181   3.717
32532W        W 4258  29.245   5.833  12.608
32533W        W 4259   1.211  27.355  13.766
32534W        W 4260  24.618  39.772   4.570
32535W        W 4261   5.001  40.073   4.973
32536W        W 4262  36.147   1.432   1.768
32537W        W 4263   6.645   5.922  14.563
32538W        W 4264  32.085  26.462  10.129
32539W        W 4265  39.521  13.066  12.459
32540W        W 4266  16.877  10.852  10.629
32541W        W 4267   2.958  44.945   0.400
32542W        W 4268  21.220  31.792  13.704
32543W        W 4269  40.510  23.662  11.692
32544W        W 4270  28.738  38.991  11.520
32545W        W 4271  27.079  35.805   2.756
32546W        W 4272  24.471  31.431   2.779
32547W        W 4273  28.326  44.028   4.256
32548W        W 4274   1.696  35.533  11.948
32549W        W 4275  18.239  32.853   3.110
32550W        W 4276   8.197   5.007   4.195
32551W        W 4277  16.587  19.560  11.926
32552W        W 4278  22.177  16.208   2.281
32553W        W 4279  13.891  17.236  13.264
32554W        W 4280   4.368  20.632   2.745
32555W        W 4281  36.425   1.654  13.933
32556W        W 4282  41.710   1.968   3.180
32557W        W 4283   2.293  30.004  10.499
32558W        W 4284  44.409  34.466   4.113
32559W        W 4285  10.213  18.168  11.698
32560W        W 4286  42.062   4.400  12.238
32561W        W 4287   6.446  28.674   0.558
32562W        W 4288   8.031  42.489  11.216
32563W        W 4289  16.195  21.172   0.650
32564W        W 4290  30.163  34.630  13.835
32565W        W 4291  23.278  25.246  14.808
32566W        W 4292  35.918  26.942   4.177
32567W        W 4293  25.459   6.752  12.572
32568W        W 4294  32.953  43.447  11.216
32569W        W 4295  13.025   5.845   3.616
32570W        W 4296  37.468  34.644   3.803
32571W        W 4297  35.606   2.758   3.752
32572W        W 4298  38.335  13.691  12.921
32573W        W 4299  27.247  18.750   0.528
32574W        W 4300  25.413  40.400  13.355
32575W        W 4301  19.762  19.117   0.318
32576W        W 4302  33.113  43.721   1.255
32577W        W 4303   3.589   4.553   0.867
32578W        W 4304   5.751   3.949   5.494
32579W        W 4305  23.533  24.044   1.336
32580W        W 4306  30.634  10.649  13.887
32581W        W 4307   7.837  34.017   2.201
32582W        W 4308  36.976  33.177   1.852
32583W        W 4309  36.380  10.844   0.183
32584W        W 4310  21.047   9.258   1.637
32585W        W 4311  40.481  33.696   1.457
32586W        W 4312  12.780  22.949  14.624
32587W        W 4313   0.464  43.324   0.300
32588W        W 4314  42.463  30.208   4.305
32589W        W 4315  16.228  24.174   3.985
32590W        W 4316  25.023   0.402  13.014
32591W        W 4317   6.958  14.449  10.997
32592W        W 4318  20.634  23.487   2.217
32593W        W 4319  42.999  10.093   1.834
32594W        W 4320  34.493  37.410  12.406
32595W        W 4321  14.886  41.822   4.353
32596W        W 4322  15.769  19.611   1.249
32597W        W 4323  42.272   7.392  12.720
32598W        W 4324  10.216  10.919  13.560
32599W        W 4325  17.356  39.372  14.743
32600W        W 4326  34.068   3.792   1.156
32601W        W 4327  36.336  19.534  13.405
32602W        W 4328  10.019   9.237  12.918
32603W        W 4329   4.886  16.045   2.720
32604W        W 4330  12.543  13.201  10.769
32605W        W 4331  38.641   4.891   4.173
32606W        W 4332   8.895  39.620   1.005
32607W        W 4333  23.432  17.111  12.925
32608W        W 4334   2.709  28.998  14.339
32609W        W 4335  15.223  13.093   1.906
32610W        W 4336  41.026  36.016   1.892
32611W        W 4337  11.087  30.053   4.426
32612W        W 4338  33.065  32.045   3.353
32613W        W 4339  26.032   6.226   0.296
32614W        W 4340  17.211   4.523   0.772
32615W        W 4341  19.731  14.186  13.488
32616W        W 4342  33.046  40.500   0.942
32617W        W 4343   6.187  22.164   4.046
32618W        W 4344  11.765  26.266   2.455
32619W        W 4345  40.176  27.011   3.277
32620W        W 4346  10.815  26.566  10.724
32621W        W 4347  19.480  31.385  11.964
32622W        W 4348  18.479  12.350  13.553
32623W        W 4349  15.631  23.636  12.817
32624W        W 4350  16.587  17.762  12.661
32625W        W 4351  38.612   9.420   2.794
32626W        W 4352  30.969  32.107  11.069
32627W        W 4353   5.783  30.823   2.302
32628W        W 4354  24.615  10.735   0.163
32629W        W 4355  42.507  28.438  13.442
32630W        W 4356  11.563  32.097  13.561
32631W        W 4357  24.137  39.195  13.427
32632W        W 4358   2.824  19.223  13.459
32633W        W 4359  19.024  41.405   4.241
32634W        W 4360  26.880  37.317   1.367
32635W        W 4361  23.711  44.055   1.713
32636W        W 4362  27.870  40.340   2.433
32637W        W 4363  15.382   9.360  11.509
32638W        W 4364  30.902  20.716  14.017
32639W        W 4365   4.809  15.168  12.213
32640W        W 4366  27.953  11.160   3.888
32641W        W 4367  38.478  25.201  14.042
32642W        W 4368  25.718  36.682   1.520
32643W        W 4369  31.938  29.691   3.125
32644W        W 4370  30.530   9.481   2.189
32645W        W 4371  39.406  12.572   1.874
32646W        W 4372  40.491  26.027   2.249
32647W        W 4373   7.433   3.186   5.094
32648W        W 4374  37.289  27.748   0.285
32649W        W 4375  35.035  22.008   2.227
32650W        W 4376   3.809  26.891  14.950
32651W        W 4377   8.569  20.663   3.710
32652W        W 4378  20.922  27.290  10.569
32653W        W 4379  31.165  15.189  11.900
32654W        W 4380  15.588  40.286  11.960
32655W        W 4381  12.323  35.352  11.583
32656W        W 4382  30.661   7.651  11.149
32657W        W 4383  35.596   3.682   4.460
32658W        W 4384  19.601  40.839  13.791
32659W        W 4385  14.992  38.245   4.490
32660W        W 4386  12.766   4.725   4.248
32661W        W 4387   6.976  14.380  10.096
32662W        W 4388   4.937  32.503  13.149
32663W        W 4389  30.633  35.133  10.441
32664W        W 4390  40.036  44.874   0.010
32665W        W 4391  25.513  21.092  11.184
32666W        W 4392  14.779   7.198   2.215
32667W        W 4393   4.478  42.090   0.179
32668W        W 4394   9.269   0.057   0.305
32669W        W 4395  20.189  36.218  11.131
32670W        W 4396   6.338   8.606  13.800
32671W        W 4397  26.351  35.320  14.921
32672W        W 4398  44.599   4.715  11.188
32673W        W 4399  44.740  39.786  14.517
32674W        W 4400   1.132  18.991   2.760
32675W        W 4401   7.368  20.100   2.529
32676W        W 4402   6.722  12.931   9.675
32677W        W 4403   3.856  40.662   3.081
32678W        W 4404  33.153  33.691   0.244
32679W        W 4405  26.368  41.486   0.919
32680W        W 4406  34.530   1.047   0.357
32681W        W 4407  39.357  25.593  13.751
32682W        W 4408  20.116   2.194  10.493
32683W        W 4409  33.524  31.131   1.063
32684W        W 4410  22.093  20.127   4.773
32685W        W 4411  30.222  28.453  13.349
32686W        W 4412  23.698  15.370  12.341
32687W        W 4413   8.768   4.898   3.206
32688W        W 4414  22.308   2.995  12.871
32689W        W 4415  14.150   4.958  10.936
32690W        W 4416  23.321   9.727  11.937
32691W        W 4417  27.016   8.665  12.446
32692W        W 4418  10.432  14.191   3.049
32693W        W 4419   7.811  34.510  11.171
32694W        W 4420  10.629   1.906   0.928
32695W        W 4421  29.897  27.088  12.528
32696W        W 4422  44.392  42.439  13.787
32697W        W 4423  22.757  22.420  13.401
32698W        W 4424  35.793  14.614  12.096
32699W        W 4425  33.346  27.838   3.717
32700W        W 4426  38.041  10.100   0.848
32701W        W 4427  33.685  42.557   0.361
32702W        W 4428  16.450  36.272  12.678
32703W        W 4429  26.580  30.633   3.356
32704W        W 4430  37.386   3.805   1.313
32705W        W 4431  13.239  23.159   4.204
32706W        W 4432  36.746  17.396  11.112
32707W        W 4433  40.475  44.563   4.107
32708W        W 4434  15.411   6.385   0.361
32709W        W 4435  27.937  18.597  12.040
32710W        W 4436  12.375  24.202   2.185
32711W        W 4437  35.603  19.230   0.293
32712W        W 4438  30.461  36.690  10.886
32713W        W 4439  12.318  23.656   0.923
32714W        W 4440  42.903  34.050   3.078
32715W        W 4441  40.883  11.132   4.488
32716W        W 4442  42.464   2.241   0.004
32717W        W 4443  25.122   7.144  12.734
32718W        W 4444  12.119  21.214   1.237
32719W        W 4445  12.612  40.459  13.832
32720W        W 4446  29.474  23.458   3.467
32721W        W 4447  34.428  15.633  11.219
32722W        W 4448  37.973   4.983   3.629
32723W        W 4449  13.296   2.457   4.824
32724W        W 4450  21.550   9.558  11.676
32725W        W 4451  44.527  42.444  10.784
32726W        W 4452  30.374  20.492  11.119
32727W        W 4453   9.865   7.320  14.696
32728W        W 4454  21.250  40.869  10.577
32729W        W 4455  24.233  27.050   1.247
32730W        W 4456  23.452  44.801   2.311
32731W        W 4457  28.680  32.078  14.455
32732W        W 4458   5.287  44.644   4.002
32733W        W 4459   3.604   7.187   4.113
32734W        W 4460  16.316  12.679   4.988
32735W        W 4461  31.070  16.700   0.885
32736W        W 4462   6.340  13.754   2.111
32737W        W 4463  16.141  35.460   0.934
32738W        W 4464  44.219   9.705  12.879
32739W        W 4465   0.968  30.059   4.614
32740W        W 4466  20.740   9.585  13.152
32741W        W 4467  38.540  28.258  13.660
32742W        W 4468   1.895  43.326   1.256
32743W        W 4469  14.437  14.778  12.553
32744W        W 4470  11.150   7.776   2.847
32745W        W 4471  42.602  20.541   2.684
32746W        W 4472   5.318  29.152  12.340
32747W        W 4473  40.026  20.835   1.651
32748W        W 4474   0.914  28.911   4.639
32749W        W 4475  25.089   9.363   0.426
32750W        W 4476  16.738  25.458  14.912
32751W        W 4477  22.078  42.472   3.904
32752W        W 4478   1.799  13.723   3.250
32753W        W 4479  31.050  29.394  12.194
32754W        W 4480  37.744  30.543   1.825
32755W        W 4481  29.115  25.261  11.446
32756W        W 4482  28.318  14.530  10.785
32757W        W 4483  18.239  33.034   4.494
32758W        W 4484   8.220  20.485   0.038
32759W        W 4485  25.031  25.698   0.629
32760W        W 4486   6.298  29.892  11.586
32761W        W 4487  25.241   1.482  10.279
32762W        W 4488  13.532   9.465   4.316
32763W        W 4489  44.754  17.620   0.318
32764W        W 4490  37.281   1.874  14.220
32765W        W 4491  24.371  29.925   3.119
32766W        W 4492  30.500   9.922  11.898
32767W        W 4493  30.316  36.364   3.454
32768W        W 4494   3.850  23.575   2.857
32769W        W 4495  39.603  35.513  13.651
32770W        W 4496  11.714  31.710  12.656
32771W        W 4497  37.492  31.473   3.800
32772W        W 4498  44.375  31.540   4.462
32773W        W 4499  38.448  13.392  13.814
32774W        W 4500   2.779  25.048   3.514
32775W        W 4501  34.314  35.040   2.210
32776W        W 4502  27.125  22.308   0.214
32777W        W 4503  42.511  21.874  14.957
32778W        W 4504  20.015  28.159  12.454
32779W        W 4505  44.480   3.013  13.044
32780W        W 4506  18.013   0.200   2.424
32781W        W 4507  26.817  42.029  13.024
32782W        W 4508  41.680  30.174  12.085
32783W        W 4509  40.714   1.856   2.406
32784W        W 4510   2.946  28.562  10.875
32785W        W 4511  27.479  12.127   0.282
32786W        W 4512  17.667  13.050  14.412
32787W        W 4513   0.922  36.403   1.701
32788W        W 4514  38.550   8.795  14.296
32789W        W 4515  41.968  13.686   0.861
32790W        W 4516   0.820  27.750  13.568
32791W        W 4517   2.891  28.156   0.814
32792W        W 4518  18.387  16.356   0.885
32793W        W 4519  39.942  42.995   4.579
32794W        W 4520  35.343  31.411   1.729
32795W        W 4521   7.859  37.368  10.545
32796W        W 4522  38.489   4.498   4.938
32797W        W 4523  20.319   1.897  11.138
32798W        W 4524  23.022  33.832   0.190
32799W        W 4525  10.295  19.190   3.391
32800W        W 4526  19.515  43.473   2.436
32801W        W 4527  24.663  27.542  13.796
32802W        W 4528   9.136  44.313  13.487
32803W        W 4529  26.299  35.075   3.833
32804W        W 4530  34.499  40.997  11.171
32805W        W 4531  32.598  23.720   5.096
32806W        W 4532  16.815  37.344  11.661
32807W        W 4533  24.005  44.064  14.786
32808W        W 4534  12.638  23.434  14.472
32809W        W 4535  21.962  20.180   2.655
32810W        W 4536  40.065  15.758  13.985
32811W        W 4537   1.891   7.933   0.057
32812W        W 4538  10.381  34.092  12.125
32813W        W 4539  11.618  40.846   3.146
32814W        W 4540  44.806  21.551   4.439
32815W        W 4541  20.079  13.561   1.877
32816W        W 4542  17.005  13.044  11.155
32817W        W 4543  24.590  28.679   2.139
32818W        W 4544  31.783  13.811   4.113
32819W        W 4545   6.886   4.002   9.742
32820W        W 4546  25.482   4.168   4.141
32821W        W 4547  10.743  43.936   1.594
32822W        W 4548  29.958   1.651   3.849
32823W        W 4549   7.036  33.008  11.316
32824W        W 4550  39.887  39.320   0.338
32825W        W 4551  38.288  43.928  13.977
32826W        W 4552  15.628  38.278   9.762
32827W        W 4553  43.796  29.887  14.268
32828W        W 4554   5.978  31.087   2.700
32829W        W 4555   0.260   5.659  12.003
32830W        W 4556  10.936  25.738   3.123
32831W        W 4557  42.244   7.032  14.273
32832W        W 4558   9.358  31.894   0.617
32833W        W 4559   9.378  25.673   4.244
32834W        W 4560  20.689  16.850   1.461
32835W        W 4561  19.514  21.114   4.793
32836W        W 4562  39.152  15.276  12.965
32837W        W 4563  40.492  29.009  14.791
32838W        W 4564   1.832  41.883  11.609
32839W        W 4565  20.114   1.973  14.476
32840W        W 4566  33.218  42.922  13.351
32841W        W 4567  41.817   8.638  14.578
32842W        W 4568  23.852  42.102  11.976
32843W        W 4569   5.155   2.040  13.917
32844W        W 4570  12.388  34.841  11.570
32845W        W 4571   8.395   4.274   5.496
32846W        W 4572  23.054  43.936   3.271
32847W        W 4573  15.863  42.869  11.504
32848W        W 4574  41.981  24.760   3.338
32849W        W 4575  31.414  40.797  13.395
32850W        W 4576  17.592  33.452  12.918
32851W        W 4577  32.859  29.453  12.973
32852W        W 4578  38.621  16.630  13.040
32853W        W 4579  32.878  42.730   2.210
32854W        W 4580  35.564   5.742  13.381
32855W        W 4581  31.064  29.692  10.810
32856W        W 4582  28.456  33.445  13.100
32857W        W 4583  21.585  12.876   9.733
32858W        W 4584  23.634  14.571   4.592
32859W        W 4585  22.072  29.907   1.762
32860W        W 4586   1.033   1.186  12.593
32861W        W 4587   7.813  20.134  11.092
32862W        W 4588  15.336  38.614   4.400
32863W        W 4589  30.070  44.447   4.156
32864W        W 4590  44.440   5.978  14.955
32865W        W 4591  20.094  39.821  13.350
32866W        W 4592  40.462  18.798  14.878
32867W        W 4593  29.201  10.330  14.506
32868W        W 4594  42.556  38.847   4.675
32869W        W 4595  36.377  35.480   0.243
32870W        W 4596   3.249  42.704  12.442
32871W        W 4597   4.289  23.089   1.333
32872W        W 4598  13.433   8.819   2.340
32873W        W 4599  29.463  43.311   3.669
32874W        W 4600  35.558   2.433  14.486
32875W        W 4601  36.392  13.682   4.768
32876W        W 4602  13.963  10.861   4.096
32877W        W 4603  19.763  21.080   4.309
32878W        W 4604  20.116  20.029  13.953
32879W        W 4605  41.768  19.777   4.134
32880W        W 4606  22.664  32.371   0.886
32881W        W 4607   2.806  42.528   3.719
32882W        W 4608  12.493  12.255  11.844
32883W        W 4609  39.729  15.276  11.981
32884W        W 4610  13.071   5.807   2.362
32885W        W 4611   6.733  11.114  14.976
32886W        W 4612  33.484  21.208   3.579
32887W        W 4613  35.021   9.431   4.211
32888W        W 4614  28.181  35.746   3.993
32889W        W 4615   8.915  35.849  11.748
32890W        W 4616  30.725   9.068  14.903
32891W        W 4617  41.477  42.617  10.722
32892W        W 4618  22.627   6.173  14.800
32893W        W 4619  17.222   0.908   0.657
32894W        W 4620  26.160   7.642  12.564
32895W        W 4621  28.144  42.383  13.169
32896W        W 4622  31.253  25.927   4.545
32897W        W 4623  40.802   7.185   1.250
32898W        W 4624  29.028  16.597   2.324
32899W        W 4625   1.700  10.380   1.847
32900W        W 4626   3.213  24.943   4.269
32901W        W 4627  44.302  28.409   2.814
32902W        W 4628  31.631  26.188   5.450
32903W        W 4629  23.716  39.863   4.865
32904W        W 4630   3.770  14.136  14.532
32905W        W 4631  23.197   5.047   0.200
32906W        W 4632  31.405  34.825   0.884
32907W        W 4633   0.696   5.756  10.834
32908W        W 4634  17.549  36.888   3.978
32909W        W 4635  19.543  14.619  13.725
32910W        W 4636   5.339   5.792  12.715
32911W        W 4637  24.232  24.730  11.694
32912W        W 4638   7.610  37.970  14.230
32913W        W 4639   3.575  41.433  13.299
32914W        W 4640  11.758   7.763   0.025
32915W        W 4641  19.952  17.871   4.984
32916W        W 4642  43.254  24.627  13.515
32917W        W 4643   7.301  37.788   0.537
32918W        W 4644  18.800  36.096  10.808
32919W        W 4645  26.288   6.355   0.731
32920W        W 4646   4.287   0.920   1.133
32921W        W 4647  21.151  12.481   2.877
32922W        W 4648  14.861   4.868  12.605
32923W        W 4649  22.815   0.718  12.432
32924W        W 4650   8.450  27.262  13.868
32925W        W 4651  39.361  22.639  13.815
32926W        W 4652  29.728   5.320   2.620
32927W        W 4653  23.256  43.625  13.661
32928W        W 4654  40.535  29.123  12.483
32929W        W 4655  42.494  25.684  11.099
32930W        W 4656  12.310  38.769  12.510
32931W        W 4657  39.313  20.507   3.616
32932W        W 4658  22.748  44.788  14.319
32933W        W 4659  35.041   1.123  12.524
32934W        W 4660  20.218  31.849  14.054
32935W        W 4661  35.564   1.212  12.584
32936W        W 4662   3.961  43.257  12.446
32937W        W 4663  24.651   7.470  12.025
32938W        W 4664  38.509   9.248   3.270
32939W        W 4665   6.633  17.263   1.940
32940W        W 4666  44.381   7.628   3.657
32941W        W 4667  13.302  32.736   4.819
32942W        W 4668  29.413  12.858  14.452
32943W        W 4669  17.782  15.716   4.323
32944W        W 4670   0.447  16.326   3.906
32945W        W 4671  33.100  14.365  12.514
32946W        W 4672  11.275   8.429  11.642
32947W        W 4673  34.774  18.934   3.773
32948W        W 4674   5.310  14.861  11.564
32949W        W 4675   9.302   7.021  12.026
32950W        W 4676  29.689   0.817   3.695
32951W        W 4677   2.058   5.769   0.462
32952W        W 4678  27.386   0.392  11.597
32953W        W 4679   5.983  24.016  14.731
32954W        W 4680   4.815  29.688  14.451
32955W        W 4681  28.445  26.147   1.183
32956W        W 4682  38.925   9.879   4.608
32957W        W 4683  12.710  42.412  10.959
32958W        W 4684  19.652   1.754   2.278
32959W        W 4685  28.938  33.435  12.868
32960W        W 4686  11.436  41.258  12.161
32961W        W 4687   1.251  43.943  11.148
32962W        W 4688  14.838  32.162  13.952
32963W        W 4689  42.328  25.176  11.109
32964W        W 4690  22.801  13.727  12.502
32965W        W 4691  26.189  10.460  12.146
32966W        W 4692  26.914  34.400   0.998
32967W        W 4693  19.611  33.405   0.004
32968W        W 4694   6.349   5.903  12.374
32969W        W 4695  34.939  36.569   0.906
32970W        W 4696  27.182  18.051  10.920
32971W        W 4697  31.494   2.364  10.903
32972W        W 4698  22.021  14.785  12.375
32973W        W 4699  28.673  35.026   0.458
32974W        W 4700  14.757  29.588   2.911
32975W        W 4701  24.460  12.744   1.900
32976W        W 4702   0.505  21.618  14.511
32977W        W 4703  37.253   3.626  11.446
32978W        W 4704  37.352  21.972   4.589
32979W        W 4705   7.395  40.783  14.915
32980W        W 4706  28.608  18.729   0.156
32981W        W 4707  23.332   1.290   0.023
32982W        W 4708  10.431  21.018   4.066
32983W        W 4709  37.571  10.595  11.807
32984W        W 4710  44.584   1.862  13.845
32985W        W 4711  23.549  41.132  10.660
32986W        W 4712  40.766  30.132  11.655
32987W        W 4713  37.010  27.603   4.541
32988W        W 4714  30.167  25.022  11.929
32989W        W 4715  22.224  37.875  10.695
32990W        W 4716  23.498  19.354  10.862
32991W        W 4717  20.152  10.846  13.405
32992W        W 4718  39.492  14.377   0.734
32993W        W 4719   0.995   8.865  11.499
32994W        W 4720  17.326  25.948  10.611
32995W        W 4721  39.494  10.713  10.403
32996W        W 4722  42.311   8.440   2.801
32997W        W 4723   9.314  12.132   2.689
32998W        W 4724  37.910  15.369   1.809
32999W        W 4725  40.461  41.372  14.427
33000W        W 4726  41.422  12.615   1.125
33001W        W 4727  20.708   2.255   1.245
33002W        W 4728  15.301  31.927   4.805
33003W        W 4729   1.389  36.190  11.632
33004W        W 4730  18.173  20.287  14.833
33005W        W 4731  20.219  33.002   0.999
33006W        W 4732  30.645  23.003  11.063
33007W        W 4733  16.044  13.315  13.044
33008W        W 4734  17.270  15.330   3.197
33009W        W 4735  43.514  42.895   3.344
33010W        W 4736  19.024   5.010  12.878
33011W        W 4737  22.258   8.911  12.959
33012W        W 4738  38.020   4.278  13.361
33013W        W 4739   9.697   3.023   1.755
33014W        W 4740  22.883   6.916  12.691
33015W        W 4741  41.317   7.746  14.844
33016W        W 4742  18.333  44.347  12.858
33017W        W 4743   4.333  18.738   3.168
33018W        W 4744   2.709   0.823  14.761
33019W        W 4745  25.968  22.652  14.209
33020W        W 4746  19.672  37.318   4.902
33021W        W 4747  36.096  20.378   3.323
33022W        W 4748  14.607  26.719  10.937
33023W        W 4749  14.489  39.090   4.193
33024W        W 4750  42.389  40.608  14.547
33025W        W 4751  41.791  35.226  10.182
33026W        W 4752  14.740  38.719   3.890
33027W        W 4753   5.464  37.498   4.956
33028W        W 4754  10.694  42.984  10.296
33029W        W 4755  40.327  22.997  13.975
33030W        W 4756  42.791  10.178  10.517
33031W        W 4757  38.592  23.182  11.019
33032W        W 4758  41.910  13.950   1.313
33033W        W 4759  19.703  15.796  12.868
33034W        W 4760  29.437  14.393   1.726
33035W        W 4761  28.056  17.594  14.382
33036W        W 4762  16.107   7.464  14.499
33037W        W 4763  25.679  34.655  11.030
33038W        W 4764   6.207  17.754  14.448
33039W        W 4765  30.607  39.753  12.374
33040W        W 4766   2.467  18.059  11.695
33041W        W 4767  25.294  14.715  12.421
33042W        W 4768  22.192  10.238  10.220
33043W        W 4769  25.576  14.848  13.364
33044W        W 4770  28.191  27.073  11.661
33045W        W 4771  25.694  18.639   2.937
33046W        W 4772   5.859  35.933   0.273
33047W        W 4773  39.037  14.995   4.490
33048W        W 4774   2.735  16.514  10.642
33049W        W 4775  22.748  21.662  11.128
33050W        W 4776   4.847  36.917   0.865
33051W        W 4777  14.886  23.700  14.790
33052W        W 4778  29.302  22.168  13.371
33053W        W 4779  32.033  24.475  11.023
33054W        W 4780  24.122  43.462  13.113
33055W        W 4781  30.097  27.148   1.781
33056W        W 4782  36.428  11.880  12.436
33057W        W 4783   3.187  40.117   0.842
33058W        W 4784   7.954  22.761   4.551
33059W        W 4785  13.869   7.073  11.756
33060W        W 4786  21.578  18.016  11.146
33061W        W 4787   0.535  19.236  11.517
33062W        W 4788  38.585  32.836   2.687
33063W        W 4789   8.922  13.463  12.646
33064W        W 4790  11.092  34.990  12.650
33065W        W 4791  43.747  21.685  12.274
33066W        W 4792   0.732  21.148   2.253
33067W        W 4793   1.180  40.146   2.862
33068W        W 4794   3.152  33.199   1.657
33069W        W 4795   6.101  44.868   2.293
33070W        W 4796  14.551  36.042  12.461
33071W        W 4797  13.598  44.954   3.135
33072W        W 4798  33.932  17.755   1.030
33073W        W 4799   8.295   1.212   2.346
33074W        W 4800  26.592  16.121   0.209
33075W        W 4801   4.448   7.864   0.416
33076W        W 4802   1.724  32.610  11.002
33077W        W 4803  27.526   4.781  12.140
33078W        W 4804  44.116   0.363  11.434
33079W        W 4805  38.564   8.981   1.361
33080W        W 4806  23.710  17.055   1.346
33081W        W 4807  30.115  41.859   0.983
33082W        W 4808  35.235  12.519   0.318
33083W        W 4809   5.564  42.464   0.383
33084W        W 4810   4.277  36.080  10.559
33085W        W 4811  11.690   5.481  11.606
33086W        W 4812  32.057  40.490   2.856
33087W        W 4813  26.989  30.739   1.680
33088W        W 4814  33.917  14.170   4.555
33089W        W 4815  20.517  29.587  13.581
33090W        W 4816  15.607  35.438   0.892
33091W        W 4817  15.005  41.326   0.739
33092W        W 4818  27.980  44.357  12.168
33093W        W 4819  28.323  33.595   2.486
33094W        W 4820  18.269   1.972   0.399
33095W        W 4821  25.031   1.277  11.142
33096W        W 4822   4.759   8.175  12.364
33097W        W 4823   2.145   0.492  11.100
33098W        W 4824  21.749  37.115  12.782
33099W        W 4825  26.176  34.643  14.367
33100W        W 4826  32.429  15.028  13.819
33101W        W 4827  28.699  43.733   4.055
33102W        W 4828  33.600  32.012  10.756
33103W        W 4829  38.934  13.213   3.910
33104W        W 4830  39.396  43.104   3.435
33105W        W 4831  22.721  27.670  14.042
33106W        W 4832   6.365   9.644   3.690
33107W        W 4833  18.877  40.237   0.182
33108W        W 4834  41.041  21.509   1.669
33109W        W 4835  31.000  13.004  14.773
33110W        W 4836   1.407  11.932   0.336
33111W        W 4837   6.813  36.643  11.112
33112W        W 4838   6.342   1.966   2.882
33113W        W 4839  21.555  39.302   1.836
33114W        W 4840  26.987   8.855   0.409
33115W        W 4841  37.475  10.778   1.820
33116W        W 4842  28.911  41.519  11.939
33117W        W 4843  40.165  42.002   4.699
33118W        W 4844   4.534   2.614   0.780
33119W        W 4845  20.658  15.698  11.707
33120W        W 4846  17.090  24.383  11.935
33121W        W 4847  43.213  16.602  12.403
33122W        W 4848  21.111   4.168   3.413
33123W        W 4849  29.125  34.960  12.902
33124W        W 4850  24.493  26.088   5.523
33125W        W 4851   0.766  33.139  10.720
33126W        W 4852  38.491  26.205  10.675
33127W        W 4853  33.598  15.756   4.893
33128W        W 4854  40.579   4.460   2.115
33129W        W 4855   9.627   8.704  10.727
33130W        W 4856  27.200   5.313  12.919
33131W        W 4857  16.143  41.263   1.252
33132W        W 4858  34.464  33.117   1.452
33133W        W 4859  41.998  23.241   0.672
33134W        W 4860   6.231   3.769   2.382
33135W        W 4861  30.628  37.430  13.022
33136W        W 4862  21.122  21.132  14.334
33137W        W 4863  27.599  30.152   4.772
33138W        W 4864  13.832  31.909   0.938
33139W        W 4865  21.575  23.998   0.806
33140W        W 4866   9.199  33.969  14.467
33141W        W 4867  17.633  28.545  12.570
33142W        W 4868  31.740  19.313  12.950
33143W        W 4869  31.686  32.403   4.576
33144W        W 4870  36.356  34.520  10.445
33145W        W 4871  38.282  32.357  14.568
33146W        W 4872  29.133  35.610  10.730
33147W        W 4873  41.897  40.409  14.254
33148W        W 4874  10.861  10.498   2.641
33149W        W 4875  15.729  32.626   4.319
33150W        W 4876  21.696  27.530  12.903
33151W        W 4877  21.263  24.602   0.366
33152W        W 4878  38.851  15.697   3.563
33153W        W 4879  42.798  22.603  12.363
33154W        W 4880   9.776  24.261  12.166
33155W        W 4881  35.054  20.295  13.350
33156W        W 4882  37.844  39.332   3.259
33157W        W 4883   2.275   1.394  14.053
33158W        W 4884   9.810  26.363  10.570
33159W        W 4885   6.308   4.232   5.454
33160W        W 4886  15.995  28.399   3.224
33161W        W 4887  35.009  41.838  12.505
33162W        W 4888  20.346  43.246  14.334
33163W        W 4889  18.548  36.507  10.616
33164W        W 4890   5.893  17.031   3.310
33165W        W 4891   1.362  13.387   4.087
33166W        W 4892   1.225  38.033   4.248
33167W        W 4893  44.224  18.102  10.296
33168W        W 4894  35.093  22.217   1.208
33169W        W 4895  41.508  38.458  12.486
33170W        W 4896  11.687  24.061  10.910
33171W        W 4897  17.419   6.958  14.464
33172W        W 4898  33.017  27.181  10.603
33173W        W 4899  24.538  13.127  10.635
33174W        W 4900  39.851  28.999  12.704
33175W        W 4901  20.779  27.496   0.377
33176W        W 4902  14.213  10.705  13.785
33177W        W 4903  21.769  35.894   0.537
33178W        W 4904   5.762   4.937  10.789
33179W        W 4905  20.154  27.725  11.772
33180W        W 4906   6.759   3.806   2.226
33181W        W 4907  21.709  37.528  12.004
33182W        W 4908  22.556   0.581   4.253
33183W        W 4909   2.527   7.305  13.098
33184W        W 4910   3.098  17.203   0.352
33185W        W 4911   2.478  36.281  13.341
33186W        W 4912  23.506   0.765   2.278
33187W        W 4913  22.691  39.038   0.048
33188W        W 4914  10.958   7.763   4.194
33189W        W 4915  28.900   7.329   2.278
33190W        W 4916  30.876  34.333   4.631
33191W        W 4917   5.309  40.012  10.977
33192W        W 4918  22.431  42.522  12.192
33193W        W 4919  24.621  27.015   5.471
33194W        W 4920  20.790  31.300   0.454
33195W        W 4921   6.648   7.673  10.591
33196W        W 4922  23.744  43.033   1.632
33197W        W 4923  12.335  38.580  13.426
33198W        W 4924   6.830   0.843   3.680
33199W        W 4925   8.644  43.125   1.875
33200W        W 4926  16.829   4.508  11.157
33201W        W 4927   7.250  10.250   3.253
33202W        W 4928  11.344  22.702  13.423
33203W        W 4929  41.405  43.094   4.212
33204W        W 4930  44.417  20.340  12.907
33205W        W 4931  38.041  21.815   3.225
33206W        W 4932  12.256  35.688  14.288
33207W        W 4933  14.942  19.220   1.986
33208W        W 4934  17.263   7.784   0.430
33209W        W 4935   3.364  18.201  13.075
33210W        W 4936   5.836  44.039   0.858
33211W        W 4937  17.005  43.382   0.639
33212W        W 4938  33.529  12.858   5.172
33213W        W 4939   4.210  35.555  14.463
33214W        W 4940  28.698  38.133  13.927
33215W        W 4941  17.273   6.200   3.311
33216W        W 4942  40.352   2.172  11.670
33217W        W 4943  27.469   8.657   4.515
33218W        W 4944   4.428  20.774  12.435
33219W        W 4945   0.818   2.219  12.504
33220W        W 4946  26.442  22.199  13.789
33221W        W 4947  40.298  14.881  11.611
33222W        W 4948  42.218   9.681  12.973
33223W        W 4949  35.891   7.672  12.190
33224W        W 4950   5.362  43.647   2.265
33225W        W 4951  26.745  13.481   2.511
33226W        W 4952  39.590  22.748   3.649
33227W        W 4953   7.846  43.226   3.346
33228W        W 4954  26.001  23.480  11.908
33229W        W 4955   2.741  26.189  12.218
33230W        W 4956  23.398   4.834   3.879
33231W        W 4957   4.973  33.898  12.938
33232W        W 4958  34.851   3.654  12.645
33233W        W 4959  21.167   1.211   4.961
33234W        W 4960   3.321  17.033   0.797
33235W        W 4961  13.851  40.591   1.525
33236W        W 4962  30.697  29.026   0.655
33237W        W 4963  22.979  40.953  13.907
33238W        W 4964   7.686  12.248  12.091
33239W        W 4965  29.951   2.533  10.661
33240W        W 4966   4.235  30.083  11.551
33241W        W 4967  35.678  34.077   2.912
33242W        W 4968  40.711  23.550  10.730
33243W        W 4969  21.616  41.754   0.199
33244W        W 4970  35.323   6.421   3.683
33245W        W 4971  27.572  16.829   2.320
33246W        W 4972  23.528   3.085  10.503
33247W        W 4973  33.124  23.242  14.266
33248W        W 4974  17.097  27.240   4.528
33249W        W 4975  20.271  42.006  11.432
33250W        W 4976   6.269   6.367   0.845
33251W        W 4977  22.334  33.966  14.523
33252W        W 4978  10.625  42.925  12.794
33253W        W 4979  34.816  33.200  12.092
33254W        W 4980  38.517   1.904   3.860
33255W        W 4981  41.706  17.642  10.609
33256W        W 4982   8.972   6.499   0.765
33257W        W 4983   6.628   0.317  11.945
33258W        W 4984  14.696  38.492   1.824
33259W        W 4985   1.933   9.210  14.403
33260W        W 4986  44.479  26.446  10.241
33261W        W 4987  32.594   7.578  14.928
33262W        W 4988  36.939   9.845   3.662
33263W        W 4989  43.316  33.712   4.575
33264W        W 4990  36.552  27.973   1.740
33265W        W 4991  37.143  12.426  12.087
33266W        W 4992  44.545  39.552  10.629
33267W        W 4993  11.650  14.336  12.346
33268W        W 4994  10.590  37.448  12.555
33269W        W 4995  41.014  10.164  12.941
33270W        W 4996   3.008  11.719  12.193
33271W        W 4997  42.468  40.500  11.027
33272W        W 4998  11.911  19.574   0.734
33273W        W 4999  44.987  27.907   4.199
33274W        W 5000  37.008  18.003   0.461
33275W        W 5001  39.163  19.672   2.155
33276W        W 5002   0.910  24.536  10.602
33277W        W 5003  17.427   7.642  10.686
33278W        W 5004   7.680  14.499   2.189
33279W        W 5005  19.079  29.983  12.134
33280W        W 5006  10.721  41.866  12.609
33281W        W 5007   3.306  15.768  14.524
33282W        W 5008   0.965  11.383  13.112
33283W        W 5009  16.741  18.506  14.952
33284W        W 5010  31.656  20.238  10.790
33285W        W 5011  18.109   0.489   2.006
33286W        W 5012  11.744   2.777  12.762
33287W        W 5013  38.256   0.948  13.879
33288W        W 5014  24.433   4.865  10.712
33289W        W 5015  44.716  15.303   3.276
33290W        W 5016  44.414  24.983  12.264
33291W        W 5017  44.342  25.277  12.669
33292W        W 5018  24.329  25.778   4.111
33293W        W 5019  19.390  12.800   4.888
33294W        W 5020  40.996  12.318  12.015
33295W        W 5021  15.043  28.040   2.162
33296W        W 5022  37.739  29.663   0.050
33297W        W 5023  15.025  40.789  14.706
33298W        W 5024  22.157  32.434  12.252
33299W        W 5025  25.765  14.699  10.697
33300W        W 5026  15.159  17.183   4.154
33301W        W 5027  29.463   7.976   2.980
33302W        W 5028  31.632  11.781   4.252
33303W        W 5029  40.209  28.123   2.695
33304W        W 5030  21.374  16.090   1.694
33305W        W 5031  24.385  28.060  11.591
33306W        W 5032  36.973  20.560  11.631
33307W        W 5033   7.606  27.553  14.008
33308W        W 5034  41.680  43.343  13.867
33309W        W 5035  22.470  32.683   3.241
33310W        W 5036  13.113  23.915   3.165
33311W        W 5037  43.511  29.148   1.853
33312W        W 5038  24.505  40.699  13.184
33313W        W 5039  26.469  15.746   4.560
33314W        W 5040   7.771  38.857  13.781
33315W        W 5041  37.826  36.844  10.979
33316W        W 5042  22.809  37.537   3.062
33317W        W 5043  41.905  26.495   4.099
33318W        W 5044  28.195  37.410  14.176
33319W        W 5045  12.313  19.251   2.356
33320W        W 5046  13.135  20.601  10.693
33321W        W 5047   3.389   4.186  14.249
33322W        W 5048   9.558  40.403   4.909
33323W        W 5049  22.161  23.048  12.164
33324W        W 5050  29.579  16.492   3.830
33325W        W 5051  43.244  23.550   2.269
33326W        W 5052  35.197   6.640   4.966
33327W        W 5053  12.920  29.526   1.384
33328W        W 5054  29.213  14.529   4.235
33329W        W 5055  10.781  20.604   2.402
33330W        W 5056  21.965  13.256  12.511
33331W        W 5057  23.174  37.516   4.999
33332W        W 5058  18.685  30.365   5.189
33333W        W 5059  22.744   3.254   2.679
33334W        W 5060  25.671  35.615   1.447
33335W        W 5061  14.712   3.406   3.104
33336W        W 5062  38.898  24.289  11.512
33337W        W 5063  14.582  13.909  12.846
33338W        W 5064   7.859  32.408   4.004
33339W        W 5065  33.065  36.947  12.452
33340W        W 5066   4.699  33.462  12.872
33341W        W 5067   5.839  13.844   4.563
33342W        W 5068  21.787  11.622  14.796
33343W        W 5069  16.322  24.607   0.246
33344W        W 5070  13.234  35.831  12.546
33345W        W 5071  17.247  12.577  12.902
33346W        W 5072  19.168  20.133  14.508
33347W        W 5073  25.127  21.287   1.977
33348W        W 5074  30.488   7.962  13.829
33349W        W 5075   9.908  23.765   0.939
33350W        W 5076  41.980  24.022  14.086
33351W        W 5077  19.681  43.281   1.377
33352W        W 5078   0.599   4.474  13.338
33353W        W 5079   2.205   6.804   1.236
33354W        W 5080  25.569  29.617  12.929
33355W        W 5081  37.805  42.053  12.999
33356W        W 5082  32.027  11.639   3.953
33357W        W 5083  10.996   2.058   2.471
33358W        W 5084  42.200  36.315  14.771
33359W        W 5085  38.913  18.308   2.006
33360W        W 5086  18.432  43.747   3.289
33361W        W 5087   4.961  28.825   3.757
33362W        W 5088   7.283   7.966   3.639
33363W        W 5089  27.044   0.020  13.275
33364W        W 5090  15.793   2.569   1.734
33365W        W 5091  42.959  27.063  10.691
33366W        W 5092  28.594  28.754   1.513
33367W        W 5093  40.822  12.128   0.245
33368W        W 5094  19.509  20.795   0.025
33369W        W 5095  12.839  37.410   4.081
33370W        W 5096  28.423  42.781  13.486
33371W        W 5097   6.566   2.324   4.808
33372W        W 5098   7.752  43.292  11.622
33373W        W 5099  20.230   9.235  12.091
33374W        W 5100  34.564  18.768   2.405
33375W        W 5101   7.160  20.940  11.957
33376W        W 5102  13.812  13.609  12.498
33377W        W 5103  41.577  17.593  12.805
33378W        W 5104  17.448  24.020  10.766
33379W        W 5105   3.934  22.707  12.199
33380W        W 5106   0.752  42.649  14.714
33381W        W 5107  10.681   1.060   2.329
33382W        W 5108  21.048  12.178  12.426
33383W        W 5109   2.950  17.436  13.381
33384W        W 5110  22.844  38.373  11.405
33385W        W 5111  12.283  12.569  12.770
33386W        W 5112  35.857  13.209   1.427
33387W        W 5113   9.777  20.777   0.387
33388W        W 5114  13.736  29.485   0.719
33389W        W 5115  23.577   3.924   4.182
33390W        W 5116  41.412  19.305  13.728
33391W        W 5117  38.449  34.419  12.588
33392W        W 5118   5.884  38.071   3.346
33393W        W 5119  29.632  40.976   1.376
33394W        W 5120  20.246   5.243   1.467
33395W        W 5121   6.103  20.776   1.440
33396W        W 5122  32.374  34.515   1.642
33397W        W 5123  32.302  33.288  14.016
33398W        W 5124  29.644   2.552   4.290
33399W        W 5125  15.364   6.207   2.719
33400W        W 5126   0.038  28.698   4.832
33401W        W 5127  11.576  41.878  10.695
33402W        W 5128  26.497  36.375   4.878
33403W        W 5129  41.907  39.689   2.293
33404W        W 5130  10.846  18.445  14.437
33405W        W 5131  34.634   4.206  14.280
33406W        W 5132   5.269  27.920   4.530
33407W        W 5133  29.374  29.795   3.939
33408W        W 5134   8.765  14.565  11.437
33409W        W 5135  23.228  15.058  10.184
33410W        W 5136  16.732  38.252   1.842
33411W        W 5137  30.482   2.357   0.186
33412W        W 5138  34.358  16.611  14.842
33413W        W 5139   0.922  37.964  10.510
33414W        W 5140  25.072  35.882   2.891
33415W        W 5141  13.315   1.771  11.931
33416W        W 5142  29.411  23.930  10.452
33417W        W 5143  37.082  17.750   4.958
33418W        W 5144   9.636   5.001   3.792
33419W        W 5145   2.213  30.412   3.881
33420W        W 5146  17.666  30.354   1.894
33421W        W 5147  13.361  40.843  12.065
33422W        W 5148   3.417  35.533  13.118
33423W        W 5149  13.764  43.838  13.570
33424W        W 5150   9.658  37.428   5.399
33425W        W 5151  18.079  30.204  11.195
33426W        W 5152  15.094  29.662   0.301
33427W        W 5153  14.159  32.082   3.719
33428W        W 5154  38.840  31.790  14.388
33429W        W 5155  18.589  18.732   2.699
33430W        W 5156  22.094  14.166  13.578
33431W        W 5157  35.026  18.738  11.519
33432W        W 5158  18.345  22.173   4.302
33433W        W 5159   1.466   8.231   4.693
33434W        W 5160  26.938   9.862  11.602
33435W        W 5161  15.352  29.062  14.810
33436W        W 5162  11.701  38.463  13.977
33437W        W 5163  20.546  40.128  12.505
33438W        W 5164  18.494  12.965  12.010
33439W        W 5165   6.770  23.468   4.557
33440W        W 5166  38.357   9.500  13.363
33441W        W 5167  11.110  20.156  11.972
33442W        W 5168  34.930  30.590  13.254
33443W        W 5169  27.514  39.443  12.836
33444W        W 5170   0.816  17.402  10.923
33445W        W 5171  15.343  41.308   0.309
33446W        W 5172  35.936  33.209   3.140
33447W        W 5173  44.883  24.615  10.596
33448W        W 5174  19.229  40.535  14.001
33449W        W 5175  40.311   4.992   3.338
33450W        W 5176  37.584   3.955  13.331
33451W        W 5177  15.110  37.014   9.772
33452W        W 5178  14.063   5.140  12.647
33453W        W 5179  24.720  17.565   1.154
33454W        W 5180  13.538  34.974   0.019
33455W        W 5181  28.407  34.122  11.509
33456W        W 5182   5.967   8.233   3.831
33457W        W 5183  22.888  30.827   0.284
33458W        W 5184  39.307  29.245   3.233
33459W        W 5185  30.895  41.598  14.424
33460W        W 5186  29.523  44.062   3.175
33461W        W 5187   3.454  24.126   1.319
33462W        W 5188   9.984  33.828  14.855
33463W        W 5189   1.587  18.072  13.578
33464W        W 5190  28.442  28.701  13.401
33465W        W 5191   1.720  11.467  11.620
33466W        W 5192  19.844  28.997   0.685
33467W        W 5193  10.452  42.804   1.189
33468W        W 5194   3.754  13.596  12.838
33469W        W 5195   4.661   9.676  13.091
33470W        W 5196   9.365  43.002  11.358
33471W        W 5197  10.341   8.611   0.361
33472W        W 5198  37.278  10.794   3.370
33473W        W 5199   9.112  16.912  11.086
33474W        W 5200  25.093  28.973   0.784
33475W        W 5201   3.853  12.731  14.012
33476W        W 5202  44.490  30.006  12.593
33477W        W 5203  42.361  15.602  11.931
33478W        W 5204   5.049   8.474   3.385
33479W        W 5205  33.044  44.315   4.083
33480W        W 5206   9.832   5.829   1.767
33481W        W 5207  17.259  16.844  11.652
33482W        W 5208  26.399  22.831   2.276
33483W        W 5209  31.398   5.691   4.471
33484W        W 5210   9.705  11.377  14.965
33485W        W 5211  36.566  12.660  10.306
33486W        W 5212  22.932   0.443  11.020
33487W        W 5213   7.745  44.027   2.725
33488W        W 5214  32.966  42.520  13.542
33489W        W 5215  18.407  22.666   3.116
33490W        W 5216   7.824  40.560  14.456
33491W        W 5217   6.894  38.482  14.838
33492W        W 5218  15.180  23.390  12.876
33493W        W 5219  11.393   3.412  14.335
33494W        W 5220  34.904   4.669   3.295
33495W        W 5221   7.107  10.676   0.314
33496W        W 5222  35.338  27.702   0.352
33497W        W 5223  16.618   2.660   0.792
33498W        W 5224  31.184  10.786   4.199
33499W        W 5225   6.785   2.050   4.380
33500W        W 5226  34.482  24.457  11.841
33501W        W 5227  25.785  33.101   4.362
33502W        W 5228  33.173  16.209   2.415
33503W        W 5229  22.021  23.535  12.964
33504W        W 5230  41.290  22.417  13.927
33505W        W 5231  29.740  17.769   2.863
33506W        W 5232  16.876  44.323  13.905
33507W        W 5233  42.010   3.263  10.441
33508W        W 5234  16.418  34.045  10.563
33509W        W 5235  31.618  26.964   2.476
33510W        W 5236  16.741  44.827  13.822
33511W        W 5237  18.194  25.680  14.251
33512W        W 5238  15.553  11.903  12.083
33513W        W 5239  33.952  27.657   1.217
33514W        W 5240  21.967  36.622   3.347
33515W        W 5241   4.233   0.754  13.485
33516W        W 5242  29.014  12.847   3.030
33517W        W 5243   0.167  16.474  11.547
33518W        W 5244  36.722  18.071  11.166
33519W        W 5245  42.261  35.862  11.694
33520W        W 5246  27.499  11.794  13.910
33521W        W 5247  24.072  21.786   0.810
33522W        W 5248  36.872   9.606  11.599
33523W        W 5249   3.387  44.966   2.448
33524W        W 5250  22.165  16.121   1.330
33525W        W 5251  37.832  39.316  10.568
33526W        W 5252  27.955  13.778   3.241
33527W        W 5253   6.727  29.588  13.096
33528W        W 5254  42.630  14.619   3.842
33529W        W 5255   4.280  28.326   0.474
33530W        W 5256  44.911  23.198   0.444
33531W        W 5257   6.664  30.748   4.121
33532W        W 5258  34.521  18.602   4.910
33533W        W 5259  43.914  20.287   2.273
33534W        W 5260   2.479  30.001   3.683
33535W        W 5261  26.635   6.423   2.702
33536W        W 5262  24.318   3.169  12.823
33537W        W 5263  27.798  30.619  10.655
33538W        W 5264  20.632  36.169   2.864
33539W        W 5265  39.294  39.940  10.767
33540W        W 5266  33.956   6.950   2.372
33541W        W 5267  40.922  25.035   4.660
33542W        W 5268   6.462  25.213  14.587
33543W        W 5269  44.425   5.875  14.450
33544W        W 5270   8.591  12.398   4.098
33545W        W 5271  11.114  13.625   0.415
33546W        W 5272  38.593  16.007  12.094
33547W        W 5273   1.403  18.814   1.424
33548W        W 5274  25.993  34.952  13.913
33549W        W 5275  22.845  28.226   0.839
33550W        W 5276  23.052  28.651  13.300
33551W        W 5277  35.616  34.043  13.284
33552W        W 5278  30.625  15.270   0.280
33553W        W 5279  30.832  19.260  14.954
33554W        W 5280  35.187  31.606  12.788
33555W        W 5281  25.928  33.493  10.789
33556W        W 5282  40.741  19.304   0.204
33557W        W 5283   4.201  26.108   0.306
33558W        W 5284   8.298  10.238  13.964
33559W        W 5285  32.161  18.254   2.742
33560W        W 5286  21.349  44.263   5.070
33561W        W 5287  12.308   5.162   3.252
33562W        W 5288  11.440  17.730   4.554
33563W        W 5289  39.595   2.648  14.020
33564W        W 5290  19.172   2.853  13.010
33565W        W 5291  43.889  40.998  14.503
33566W        W 5292  22.632  26.412   0.744
33567W        W 5293   0.731  42.256   1.958
33568W        W 5294  31.114  39.534  13.493
33569W        W 5295  32.188  30.652  12.190
33570W        W 5296  21.675  25.624   2.290
33571W        W 5297  26.592  34.027  11.779
33572W        W 5298  33.172   3.479   0.878
33573W        W 5299  24.522  21.095   2.328
33574W        W 5300  23.764  21.272   1.958
33575W        W 5301  27.610  27.984  11.194
33576W        W 5302  14.411   6.979  14.331
33577W        W 5303  42.164   6.663  13.290
33578W        W 5304  41.917  15.990   2.455
33579W        W 5305  34.581  32.940   0.959
33580W        W 5306   8.454  20.633  10.944
33581W        W 5307  42.486  24.215  12.811
33582W        W 5308  27.512  34.606  11.428
33583W        W 5309  39.299  13.877  11.987
33584W        W 5310  38.325  21.603  12.528
33585W        W 5311  39.350  26.375   1.868
33586W        W 5312  41.069   7.731   2.808
33587W        W 5313  13.190  34.493  10.643
33588W        W 5314  27.735  14.094   2.245
33589W        W 5315  28.684  32.613  14.294
33590W        W 5316  26.610  43.880  11.573
33591W        W 5317  39.290   0.850   3.601
33592W        W 5318   8.125  14.859  13.950
33593W        W 5319  17.732  35.044  12.579
33594W        W 5320  23.719  12.534  10.224
33595W        W 5321  25.748  11.177  11.605
33596W        W 5322  33.610  14.486   1.942
33597W        W 5323  38.863  27.019  14.029
33598W        W 5324  26.653  32.380   0.706
33599W        W 5325  27.584  15.040   2.562
33600W        W 5326   2.360  22.691   2.408
33601W        W 5327  23.245   3.412  12.149
33602W        W 5328  44.641  14.873   4.495
33603W        W 5329  13.072  12.070   2.402
33604W        W 5330  21.157  16.788   1.893
33605W        W 5331  23.968  17.222   1.876
33606W        W 5332  12.693  19.779   3.449
33607W        W 5333  27.007  25.532  14.885
33608W        W 5334  24.948   3.301  11.069
33609W        W 5335   5.773  43.498   0.762
33610W        W 5336   5.255  39.871  12.553
33611W        W 5337  32.566  19.736   0.757
33612W        W 5338   1.915  11.160   2.182
33613W        W 5339  19.696  21.812   1.720
33614W        W 5340  32.866  16.281  11.069
33615W        W 5341  10.233  26.059   3.599
33616W        W 5342  38.442  26.951  12.801
33617W        W 5343  34.426  20.605   4.633
33618W        W 5344   2.512  27.206  14.438
33619W        W 5345  43.345  33.556   1.930
33620W        W 5346  29.042  25.992  13.240
33621W        W 5347  40.373  13.174   4.349
33622W        W 5348  20.013   2.990   2.144
33623W        W 5349  21.495  14.531  14.989
33624W        W 5350  35.383  18.480  11.212
33625W        W 5351  40.065   6.956   3.739
33626W        W 5352  33.484  10.217  11.867
33627W        W 5353   7.288   6.905   5.032
33628W        W 5354  10.686  24.946   0.420
33629W        W 5355  34.058   2.252   2.850
33630W        W 5356  21.475  28.605   2.398
33631W        W 5357   8.091  29.061   1.674
33632W        W 5358   9.253  40.806   2.630
33633W        W 5359   2.295  41.979  14.741
33634W        W 5360  36.429  17.038  14.090
33635W        W 5361  32.832  10.619  11.163
33636W        W 5362  34.447  40.592   3.011
33637W        W 5363  39.045  27.581   2.154
33638W        W 5364  37.963   6.303   3.132
33639W        W 5365  42.325   3.035  14.584
33640W        W 5366  35.278  33.812  14.841
33641W        W 5367  42.612  21.581   1.242
33642W        W 5368  33.605  30.274  11.977
33643W        W 5369  21.133  37.644  11.301
33644W        W 5370  19.734  42.605   0.327
33645W        W 5371  22.060  27.980   2.129
33646W        W 5372  22.033  12.007   2.656
33647W        W 5373  16.230  12.092   3.679
33648W        W 5374  38.830   2.893   2.317
33649W        W 5375  18.083  42.383   3.000
33650W        W 5376  26.786  38.884   2.770
33651W        W 5377   7.802  39.566   3.225
33652W        W 5378  32.506  36.998   2.945
33653W        W 5379  23.538   4.783  11.673
33654W        W 5380  39.050  26.072   2.244
33655W        W 5381  41.766  26.961  13.982
33656W        W 5382  30.425   3.607  14.433
33657W        W 5383  40.297  25.640   4.313
33658W        W 5384  31.141  28.521  13.371
33659W        W 5385  11.782  29.503   0.166
33660W        W 5386  24.211  39.409   1.727
33661W        W 5387   5.641  25.687  13.750
33662W        W 5388  23.674  37.485  11.709
33663W        W 5389  30.615  38.894   0.011
33664W        W 5390  16.746   3.255  14.949
33665W        W 5391  13.149  13.358   2.789
33666W        W 5392  30.341  43.900   2.225
33667W        W 5393  27.551  11.311   0.738
33668W        W 5394  42.255  31.453  13.027
33669W        W 5395  33.704   4.212   3.767
33670W        W 5396  32.991  38.848   0.456
33671W        W 5397  32.516  36.856  13.919
33672W        W 5398  38.206  17.574   4.160
33673W        W 5399  37.452  38.973  13.822
33674W        W 5400  18.263  11.848  12.012
33675W        W 5401  35.950  25.076  13.290
33676W        W 5402  31.517  43.874  13.511
33677W        W 5403   7.880   9.365  13.735
33678W        W 5404   7.475  21.173  11.602
33679W        W 5405  22.684   8.008   3.710
33680W        W 5406  37.415   7.908   3.155
33681W        W 5407  42.806  14.686   1.841
33682W        W 5408   6.434   3.940  12.074
33683W        W 5409  23.529  36.147  12.330
33684W        W 5410  27.889   6.836  12.527
33685W        W 5411  41.499  28.620  14.744
33686W        W 5412   2.515  19.846  12.918
33687W        W 5413  39.537  14.197   1.242
33688W        W 5414  17.288  35.624   2.198
33689W        W 5415   2.476  10.782   0.710
33690W        W 5416  13.825   9.203   4.674
33691W        W 5417  12.294  11.645   1.905
33692W        W 5418  36.899  34.867   0.647
33693W        W 5419   9.275  32.808   4.984
33694W        W 5420  35.435  22.671  14.801
33695W        W 5421  21.094   2.317  11.415
33696W        W 5422  32.047  16.283   0.951
33697W        W 5423   3.345  14.583   3.797
33698W        W 5424  13.807   3.267  14.788
33699W        W 5425  30.453  19.112  12.645
33700W        W 5426   5.176  23.250  10.727
33701W        W 5427  28.389  31.625  14.332
33702W        W 5428  41.333  39.101  10.661
33703W        W 5429  26.011  36.031   2.880
33704W        W 5430  14.129  23.536   9.914
33705W        W 5431  17.294  24.234  10.308
33706W        W 5432  20.725  14.067   1.298
33707W        W 5433   3.246   2.402  10.496
33708W        W 5434  44.051  14.254   1.652
33709W        W 5435  13.167  14.112   4.257
33710W        W 5436  31.477  24.898   1.771
33711W        W 5437   2.399  12.077   1.286
33712W        W 5438  11.216  16.310  13.092
33713W        W 5439  31.827  21.564  13.086
33714W        W 5440  14.047  33.795   3.749
33715W        W 5441  36.781  33.406   2.758
33716W        W 5442  37.933  30.031  14.732
33717W        W 5443  25.181  10.366   2.265
33718W        W 5444   9.103  15.172  11.187
33719W        W 5445  38.956   3.242   3.166
33720W        W 5446  41.034  43.238   0.988
33721W        W 5447  16.874  26.750  13.707
33722W        W 5448   4.555  35.506   4.147
33723W        W 5449  21.617  21.050  13.086
33724W        W 5450  23.281   2.467  13.818
33725W        W 5451   1.947  19.290   3.361
33726W        W 5452   8.937  38.384  11.885
33727W        W 5453  29.942  15.412   4.638
33728W        W 5454  17.019  22.637   3.627
33729W        W 5455  40.713  26.675  13.249
33730W        W 5456  35.205  29.955   2.412
33731W        W 5457   9.303  21.136  12.277
33732W        W 5458  23.875  37.036  10.744
33733W        W 5459  14.826  42.377   3.708
33734W        W 5460  35.787   1.778   2.005
33735W        W 5461  28.876  34.445  13.846
33736W        W 5462   3.775  12.337   3.589
33737W        W 5463   6.896   1.252   1.308
33738W        W 5464  37.210  17.730  14.289
33739W        W 5465  27.013   1.112  10.587
33740W        W 5466   9.365   1.472   1.227
33741W        W 5467  40.580  15.321  11.548
33742W        W 5468  13.720  37.506  14.746
33743W        W 5469  44.812  42.237   2.979
33744W        W 5470  10.811   6.954   2.225
33745W        W 5471  20.801  33.459  10.699
33746W        W 5472  44.209  19.587   4.552
33747W        W 5473  19.650  26.231  12.057
33748W        W 5474  18.837  19.037   1.850
33749W        W 5475  29.184  38.683   1.754
33750W        W 5476  42.487   5.280   0.793
33751W        W 5477  36.048  20.606   3.932
33752W        W 5478  22.557  38.904  13.620
33753W        W 5479  11.946  37.598  12.957
33754W        W 5480  17.113   3.918  12.943
33755W        W 5481   6.362   2.934   1.157
33756W        W 5482  39.296  34.359   3.653
33757W        W 5483  14.757  43.849  11.433
33758W        W 5484   7.340   9.750  10.454
33759W        W 5485   0.728  14.368  12.883
33760W        W 5486  41.937  33.988  13.532
33761W        W 5487   7.405   2.729   2.247
33762W        W 5488  16.073  18.973  11.202
33763W        W 5489   6.199  32.855   1.585
33764W        W 5490  27.470  37.628  13.427
33765W        W 5491  34.700   0.979   3.574
33766W        W 5492   5.512  24.049  14.912
33767W        W 5493  36.558   2.534  13.446
33768W        W 5494   1.172  26.203  12.342
33769W        W 5495  23.801  17.031  12.021
33770W        W 5496  27.585  20.793  13.570
33771W        W 5497  12.468  44.782  14.366
33772W        W 5498  16.507   4.103  13.802
33773W        W 5499  33.976  14.634   4.331
33774W        W 5500  32.391  33.712  10.806
33775W        W 5501   6.659   4.998   0.824
33776W        W 5502  11.681   7.989  11.054
33777W        W 5503  30.365   2.030   4.435
33778W        W 5504  24.326  38.546   2.786
33779W        W 5505   1.498  16.609   3.076
33780W        W 5506  11.332   8.819   2.398
33781W        W 5507  23.745   1.052   3.547
33782W        W 5508   8.686  26.614  10.475
33783W        W 5509  27.389   9.764  13.776
33784W        W 5510   2.030  41.026   4.383
33785W        W 5511   3.161  29.591  13.142
33786W        W 5512  35.569  17.117   1.697
33787W        W 5513  23.331   4.804  13.520
33788W        W 5514  14.576  30.073  11.209
33789W        W 5515   8.453  41.013   0.845
33790W        W 5516  31.675  41.562  11.215
33791W        W 5517  21.117  43.635  11.900
33792W        W 5518  24.475   3.906  12.632
33793W        W 5519  13.173  11.932  13.257
33794W        W 5520  25.386   6.205   4.252
33795W        W 5521  33.109  10.677  14.173
33796W        W 5522  37.621  39.441  14.586
33797W        W 5523  22.934  27.649   2.283
33798W        W 5524   7.825   9.893  14.801
33799W        W 5525  17.455   6.991  12.795
33800W        W 5526  37.976  43.092  11.574
33801W        W 5527   4.891  34.916   3.393
33802W        W 5528  28.063  23.542   0.534
33803W        W 5529   8.118  25.266  13.007
33804W        W 5530  26.422  10.243  11.061
33805W        W 5531  16.616  19.497  13.783
33806W        W 5532  16.695   0.906  12.845
33807W        W 5533  15.500  26.878  14.271
33808W        W 5534  16.108  42.091   4.063
33809W        W 5535   1.791  11.793  13.837
33810W        W 5536  42.856  26.369   1.966
33811W        W 5537  24.934   2.827   3.056
33812W        W 5538  23.577  12.204  12.119
33813W        W 5539  13.687  13.700  11.678
33814W        W 5540  40.711   8.650  11.118
33815W        W 5541  19.869  42.577  13.259
33816W        W 5542  40.728  44.369  10.804
33817W        W 5543   1.092  38.313   2.771
33818W        W 5544  16.513  38.091  11.197
33819W        W 5545  13.752   8.303   1.253
33820W        W 5546   6.673  25.109   0.062
33821W        W 5547  14.965   7.940  10.690
33822W        W 5548  20.142   4.416   3.763
33823W        W 5549  14.858  32.375  14.865
33824W        W 5550  22.673   8.434  11.596
33825W        W 5551   8.286  35.871  10.116
33826W        W 5552  34.480  15.241   4.430
33827W        W 5553   0.381   1.465  14.996
33828W        W 5554  43.694  19.771   4.621
33829W        W 5555   8.827  16.830  14.392
33830W        W 5556  43.682   7.808  10.744
33831W        W 5557  29.732   4.240  14.068
33832W        W 5558  40.243   1.691   2.272
33833W        W 5559  28.689  37.892   0.175
33834W        W 5560  27.385  32.647  11.996
33835W        W 5561  27.986  25.029  14.516
33836W        W 5562  40.161  40.009  12.800
33837W        W 5563  29.878   0.178  12.624
33838W        W 5564  14.275   9.575   1.429
33839W        W 5565  38.964   4.525  14.415
33840W        W 5566  14.192  30.503  13.014
33841W        W 5567   5.343  35.196   1.208
33842W        W 5568  38.394  32.468   1.720
33843W        W 5569  28.729  40.386  12.973
33844W        W 5570   1.982  16.783   2.982
33845W        W 5571  13.772  37.070  13.926
33846W        W 5572  25.471   8.997  10.932
33847W        W 5573   6.437  22.222  14.792
33848W        W 5574  11.140  36.130   2.201
33849W        W 5575  25.497   3.958   1.263
33850W        W 5576  14.264  44.516  13.953
33851W        W 5577  30.148   5.452  12.506
33852W        W 5578  19.041  27.687   3.811
33853W        W 5579  37.443   0.358  13.960
33854W        W 5580  35.058  31.902  14.991
33855W        W 5581  20.055   2.336   2.832
33856W        W 5582  35.630  25.078  12.455
33857W        W 5583   0.769  18.782  13.576
33858W        W 5584   1.833  30.964  11.707
33859W        W 5585   5.016  13.705   3.321
33860W        W 5586  21.508  35.607   2.360
33861W        W 5587   4.177  13.689  11.028
33862W        W 5588  18.020  37.447  13.322
33863W        W 5589   9.861  39.178  14.951
33864W        W 5590  23.533  20.740   2.960
33865W        W 5591   6.220   0.146   3.151
33866W        W 5592  40.548  41.194   1.370
33867W        W 5593  16.647  14.096  13.917
33868W        W 5594  29.579  13.118  10.439
33869W        W 5595  27.355   4.052   1.977
33870W        W 5596  38.622  27.568   4.705
33871W        W 5597  24.927  28.638  12.891
33872W        W 5598   1.844  29.548  12.469
33873W        W 5599  21.517  22.558   2.251
33874W        W 5600  26.010  22.277  13.485
33875W        W 5601  30.378  30.667   3.289
33876W        W 5602  44.194   5.697  11.071
33877W        W 5603  41.705  13.194  14.853
33878W        W 5604   0.362   5.355   3.177
33879W        W 5605  23.690  13.379  11.419
33880W        W 5606  30.618   7.382   2.313
33881W        W 5607  43.465  41.264  11.105
33882W        W 5608  41.664  40.044   3.546
33883W        W 5609  19.108  32.107   0.469
33884W        W 5610  37.818  38.391  13.834
33885W        W 5611   5.854   0.602  13.520
33886W        W 5612  25.330  33.816  13.244
33887W        W 5613  12.672  32.321  10.750
33888W        W 5614  38.948  40.538  14.177
33889W        W 5615  37.937  29.447  13.034
33890W        W 5616  33.684   7.029  11.620
33891W        W 5617  14.912   6.989  14.226
33892W        W 5618  20.241  41.523  11.669
33893W        W 5619  11.778   2.019   3.080
33894W        W 5620  33.274  41.054  10.479
33895W        W 5621  17.253  42.956   0.109
33896W        W 5622  31.041  44.469   9.931
33897W        W 5623  20.991  40.831   3.214
33898W        W 5624  29.269  24.054   4.235
33899W        W 5625  28.582   7.950   4.807
33900W        W 5626   9.846  44.360   2.347
33901W        W 5627  11.385  15.811  13.070
33902W        W 5628  15.354   9.240   3.381
33903W        W 5629  28.942  30.904   1.202
33904W        W 5630  35.547  23.631   2.265
33905W        W 5631  23.820  10.305   0.701
33906W        W 5632   5.240  26.614  13.917
33907W        W 5633  31.376  23.712  11.955
33908W        W 5634   0.455   3.427   2.366
33909W        W 5635  12.738  19.064  13.663
33910W        W 5636  37.555   2.473  13.430
33911W        W 5637   3.436   0.629   2.048
33912W        W 5638  23.751  20.940  13.404
33913W        W 5639  25.151   3.653  13.366
33914W        W 5640  10.616  43.553   1.268
33915W        W 5641   4.342  21.766   2.225
33916W        W 5642  37.246  32.169   4.197
33917W        W 5643  41.098  38.047   3.857
33918W        W 5644  40.532   1.470  13.604
33919W        W 5645   6.788   0.342   3.761
33920W        W 5646  19.652  35.357   1.126
33921W        W 5647  13.285  34.483  10.110
33922W        W 5648  25.225  10.873   2.310
33923W        W 5649  17.179  36.015   4.633
33924W        W 5650   1.014  11.737   0.764
33925W        W 5651  22.251  39.865   0.852
33926W        W 5652  39.133  22.700   1.958
33927W        W 5653  40.493  15.286  14.335
33928W        W 5654   6.506   4.923   9.733
33929W        W 5655   9.303  24.934   4.100
33930W        W 5656  43.384  40.868  12.671
33931W        W 5657  33.090   6.954   3.661
33932W        W 5658   8.135  29.204  10.916
33933W        W 5659  31.112  30.558  10.618
33934W        W 5660  15.604  14.244   3.270
33935W        W 5661  44.295  20.120   4.547
33936W        W 5662  34.816  30.986  11.555
33937W        W 5663  15.730  41.974  12.830
33938W        W 5664  39.312   1.989  13.073
33939W        W 5665  11.364  22.298   0.725
33940W        W 5666   6.224  20.228  14.875
33941W        W 5667  22.412  12.190   4.653
33942W        W 5668  44.981  44.951   3.577
33943W        W 5669  42.883  21.576   4.530
33944W        W 5670  19.601  21.842   0.923
33945W        W 5671  23.957  44.893   2.254
33946W        W 5672  31.552  19.218   2.875
33947W        W 5673  39.356  25.216  11.527
33948W        W 5674  34.191  34.029   1.994
33949W        W 5675  24.712   4.843  13.851
33950W        W 5676   5.485   7.260  11.148
33951W        W 5677  44.884   7.665   4.921
33952W        W 5678  30.151   1.386   1.289
33953W        W 5679  29.331  25.009  10.959
33954W        W 5680  26.532  44.925  14.974
33955W        W 5681  35.436  28.279  13.917
33956W        W 5682  25.178  21.552  11.164
33957W        W 5683  30.149   1.903  12.085
33958W        W 5684  14.673  19.904  10.448
33959W        W 5685   5.452  23.677  11.596
33960W        W 5686   0.424  22.686  11.628
33961W        W 5687  30.523  22.694   1.901
33962W        W 5688  43.026   3.034   2.369
33963W        W 5689  27.233   9.825   0.538
33964W        W 5690  42.369  41.927   1.191
33965W        W 5691  23.127  29.566  13.788
33966W        W 5692  28.552   6.404  12.159
33967W        W 5693  42.925   6.816  14.336
33968W        W 5694  17.696  34.417  11.387
33969W        W 5695  26.647   1.494   1.813
33970W        W 5696  19.170  43.084   3.508
33971W        W 5697  26.605  34.032  14.834
33972W        W 5698  32.666  30.066   0.725
33973W        W 5699   5.416  31.448  10.704
33974W        W 5700  10.806  34.884  14.513
33975W        W 5701   0.123  43.954   3.771
33976W        W 5702  27.628   5.424  11.494
33977W        W 5703  42.095  25.906   1.402
33978W        W 5704  28.570  28.737  14.454
33979W        W 5705  28.171  28.166  11.891
33980W        W 5706  10.121  11.763  11.626
33981W        W 5707   0.566   6.762  14.755
33982W        W 5708  44.040  16.066   2.763
33983W        W 5709   6.659  30.885   1.884
33984W        W 5710  23.608  39.603   4.264
33985W        W 5711  40.224  17.204  10.784
33986W        W 5712  14.212  34.511   4.569
33987W        W 5713  39.272  29.928   1.619
33988W        W 5714  16.066  33.522   4.513
33989W        W 5715   4.406   1.478  10.730
33990W        W 5716  41.046   5.726   4.599
33991W        W 5717  37.517   6.149  12.562
33992W        W 5718  11.099  25.088   4.355
33993W        W 5719  21.976   9.707  11.455
33994W        W 5720  20.501   3.888  11.592
33995W        W 5721   7.700  13.541   0.885
33996W        W 5722   3.982  12.230  13.950
33997W        W 5723  44.754   4.955   3.743
33998W        W 5724  12.428  16.668  10.782
33999W        W 5725  27.901  30.328   0.744
34000W        W 5726  33.561  35.488  12.604
34001W        W 5727  10.632  26.317   0.141
34002W        W 5728   0.048  31.984  13.453
34003W        W 5729  39.857  43.027   1.870
34004W        W 5730  38.422  23.190  14.939
34005W        W 5731  36.253   6.636   2.350
34006W        W 5732  41.503   9.889   0.520
34007W        W 5733  34.556   9.833  13.002
34008W        W 5734  20.602  29.603   3.658
34009W        W 5735  30.223  44.942   4.065
34010W        W 5736  16.129  18.154  11.500
34011W        W 5737  12.625  18.741   1.652
34012W        W 5738   7.966  32.086  11.458
34013W        W 5739  24.347  24.060   3.580
34014W        W 5740  43.567  16.012  13.123
34015W        W 5741  36.942  25.098  14.805
34016W        W 5742  37.610  12.009  14.066
34017W        W 5743  30.882  17.265   1.037
34018W        W 5744  40.181   0.494   0.851
34019W        W 5745  23.483   5.675   0.822
34020W        W 5746  21.175   9.387   0.416
34021W        W 5747   7.764   0.783  12.426
34022W        W 5748   6.110  42.392   1.950
34023W        W 5749   4.960   9.350   3.568
34024W        W 5750  10.905  24.127  14.212
34025W        W 5751  23.031  31.519   0.312
34026W        W 5752   9.427  19.026  14.407
34027W        W 5753  36.317  43.282  10.546
34028W        W 5754   9.646  41.303   0.726
34029W        W 5755  19.038  18.159  11.679
34030W        W 5756  12.402  29.674  14.247
34031W        W 5757  31.447  33.118   0.113
34032W        W 5758   6.376  15.503   3.613
34033W        W 5759  16.977  30.500  10.523
34034W        W 5760  41.285  44.481   0.405
34035W        W 5761  38.980  12.723   4.015
34036W        W 5762   3.464  26.702   2.852
34037W        W 5763  26.178  36.297  14.040
34038W        W 5764  39.513  21.488   2.367
34039W        W 5765  24.698  41.145   1.575
34040W        W 5766  21.729   9.324  12.159
34041W        W 5767  38.911  18.867  14.060
34042W        W 5768  19.564  25.750  11.933
34043W        W 5769  26.560   9.898  12.369
34044W        W 5770  27.421  39.437   2.340
34045W        W 5771  30.111  31.884   2.954
34046W        W 5772  19.135  15.047  10.930
34047W        W 5773  21.673  26.441   4.228
34048W        W 5774  19.063  32.543  13.857
34049W        W 5775  34.466  26.917   2.842
34050W        W 5776  19.833  34.928   2.390
34051W        W 5777  23.750  22.532  14.991
34052W        W 5778  14.982  34.010  12.796
34053W        W 5779  22.162   0.475  13.892
34054W        W 5780  20.119  27.615  12.621
34055W        W 5781  31.393  19.351  12.410
34056W        W 5782   0.662  10.121  13.928
34057W        W 5783  25.975   3.895  10.670
34058W        W 5784   2.423   5.437  14.013
34059W        W 5785  18.145  34.133   0.978
34060W        W 5786  22.672  25.669  12.544
34061W        W 5787   1.707   5.365   4.544
34062W        W 5788  10.769  44.182  12.547
34063W        W 5789   0.881  15.698   3.439
34064W        W 5790   7.302  30.577  13.006
34065W        W 5791  22.199  42.711  11.763
34066W        W 5792  15.594  31.602  11.642
34067W        W 5793  18.785  37.321  10.280
34068W        W 5794  31.084  29.362   0.677
34069W        W 5795  36.878  30.039   2.849
34070W        W 5796  27.375  41.302   0.889
34071W        W 5797  33.506  24.259  12.518
34072W        W 5798  21.053  19.645   2.665
34073W        W 5799  41.867   5.318  13.673
34074W        W 5800   6.800  30.171  11.378
34075W        W 5801  41.963  14.218   1.761
34076W        W 5802  41.900   8.139  14.422
34077W        W 5803  43.509  29.863   3.303
34078W        W 5804   0.855  28.747   1.354
34079W        W 5805   3.014  43.656  10.691
34080W        W 5806   9.756  10.491   1.477
34081W        W 5807   4.928  22.591  12.506
34082W        W 5808   0.056  28.829   1.221
34083W        W 5809  43.534  31.603  12.810
34084W        W 5810  28.039   5.404  11.785
34085W        W 5811   9.947   8.797  12.582
34086W        W 5812   4.269  13.058  11.098
34087W        W 5813  12.476  14.288  12.072
34088W        W 5814  18.784  29.844   3.890
34089W        W 5815  21.253  26.813  13.892
34090W        W 5816  21.530   5.972  13.539
34091W        W 5817   8.370   7.616  14.947
34092W        W 5818   6.396  17.540  11.943
34093W        W 5819  30.324  42.235  14.258
34094W        W 5820   7.828   3.989  14.443
34095W        W 5821  17.302  17.628  12.086
34096W        W 5822  23.277   3.678   3.255
34097W        W 5823   8.226   2.700   4.537
34098W        W 5824   7.534  41.824  11.666
34099W        W 5825  35.925  42.319   3.970
34100W        W 5826  33.684   2.332   1.295
34101W        W 5827   6.877  22.619   3.662
34102W        W 5828  20.628  30.503  13.706
34103W        W 5829  31.038   6.257  11.181
34104W        W 5830  32.160  10.471   2.244
34105W        W 5831   8.471  42.275   0.418
34106W        W 5832  41.951  15.059   2.567
34107W        W 5833  18.042  42.062  10.537
34108W        W 5834  18.003  41.598  12.974
34109W        W 5835  44.776  38.316   1.189
34110W        W 5836  20.590  44.751  14.499
34111W        W 5837   1.935   2.741  10.439
34112W        W 5838  41.566  29.702   4.260
34113W        W 5839  22.942   6.337   1.187
34114W        W 5840  28.970  31.656  12.652
34115W        W 5841   4.909  43.302  10.898
34116W        W 5842   5.936  36.565   1.328
34117W        W 5843  40.370  39.444  10.587
34118W        W 5844  34.368  31.408   4.651
34119W        W 5845   0.507  18.711  13.067
34120W        W 5846  26.319  43.754   4.671
34121W        W 5847  25.891  23.698  12.348
34122W        W 5848   9.725  27.453   4.064
34123W        W 5849  18.273   8.275   1.257
34124W        W 5850  26.452   4.511  12.757
34125W        W 5851   0.974  42.385   4.179
34126W        W 5852  21.164   1.351  12.710
34127W        W 5853   8.866   8.942   0.369
34128W        W 5854   5.833  40.470  13.841
34129W        W 5855  41.504   7.903  11.057
34130W        W 5856  17.263   5.401  12.547
34131W        W 5857   6.472  31.650  12.293
34132W        W 5858  39.812  39.865  10.621
34133W        W 5859  22.461  24.165  10.047
34134W        W 5860  33.301  13.202   2.834
34135W        W 5861  32.067  11.574   4.479
34136W        W 5862   5.898  30.868  11.505
34137W        W 5863  10.445  39.607  14.093
34138W        W 5864  10.953  42.849  10.743
34139W        W 5865  35.132  11.615  10.728
34140W        W 5866  16.528   3.329   2.828
34141W        W 5867  39.394  24.287   2.828
34142W        W 5868  13.567   5.058   0.896
34143W        W 5869   2.560  39.504   2.882
34144W        W 5870  18.914  31.046  10.723
34145W        W 5871  28.996   0.932  13.942
34146W        W 5872   2.987  25.732  12.496
34147W        W 5873  14.254   1.030   0.955
34148W        W 5874  36.059  31.179   2.348
34149W        W 5875   2.684  40.105   4.205
34150W        W 5876  12.892  27.543   2.119
34151W        W 5877  25.712  28.128  11.990
34152W        W 5878  10.652  25.027  13.302
34153W        W 5879  33.275  44.855  13.163
34154W        W 5880  24.703  11.541   2.456
34155W        W 5881  16.619  15.813   1.378
34156W        W 5882  15.884  29.575   4.788
34157W        W 5883  31.579  16.466   0.811
34158W        W 5884  43.789   6.826   4.531
34159W        W 5885   1.072   0.572   3.201
34160W        W 5886  29.655  44.812   1.660
34161W        W 5887  37.095  24.905   0.860
34162W        W 5888   2.266  22.729  11.961
34163W        W 5889  41.480  25.078   4.618
34164W        W 5890  38.969   1.460  12.517
34165W        W 5891  34.172   8.372   4.156
34166W        W 5892  37.318  27.667  11.671
34167W        W 5893  13.239   2.793  13.351
34168W        W 5894  29.975  23.753  10.644
34169W        W 5895  36.852   1.962  12.455
34170W        W 5896  33.293  41.834   2.303
34171W        W 5897  17.594  42.851   4.664
34172W        W 5898  17.255   9.326  11.718
34173W        W 5899  18.275   0.834   1.239
34174W        W 5900  22.037  37.905  11.178
34175W        W 5901  36.620  35.062   2.666
34176W        W 5902  14.796  39.756   3.690
34177W        W 5903  22.794   2.059   4.716
34178W        W 5904   8.119  40.412  13.656
34179W        W 5905   8.654  36.643  10.983
34180W        W 5906  21.110  31.019   0.747
34181W        W 5907  28.150  12.706  14.855
34182W        W 5908   4.842  23.127   4.821
34183W        W 5909  37.846  24.105  11.683
34184W        W 5910  40.260  37.818  11.153
34185W        W 5911  17.024   1.191   4.640
34186W        W 5912  13.786   2.255  13.690
34187W        W 5913  19.711  38.131   3.106
34188W        W 5914  17.340  14.311  13.375
34189W        W 5915  11.888  27.510  13.505
34190W        W 5916  23.700  12.242   9.640
34191W        W 5917   1.562  25.685  11.545
34192W        W 5918  29.681  15.574   1.745
34193W        W 5919  10.576  25.518   2.348
34194W        W 5920  17.809   9.341   0.795
34195W        W 5921  34.393  39.001   1.527
34196W        W 5922  32.478  14.248  12.064
34197W        W 5923  10.056  18.631  13.891
34198W        W 5924  28.179  10.108   1.900
34199W        W 5925  43.495  26.281   2.601
34200W        W 5926   5.883  11.945   3.234
34201W        W 5927   6.823  30.000  12.358
34202W        W 5928   6.993  40.060  13.845
34203W        W 5929   5.364   3.772   2.223
34204W        W 5930  43.607  37.452  12.898
34205W        W 5931  30.270  40.080  14.694
34206W        W 5932  36.341  22.226   3.816
34207W        W 5933   7.326  33.327  12.097
34208W        W 5934  23.552   5.215   3.577
34209W        W 5935  26.448   5.045  12.471
34210W        W 5936  32.735   0.781   4.200
34211W        W 5937  23.765  42.835  12.489
34212W        W 5938  21.546  34.148   2.681
34213W        W 5939  31.977   9.100  14.486
34214W        W 5940  40.034   9.323   3.153
34215W        W 5941  24.123  26.769  10.656
34216W        W 5942  26.977  30.059   4.797
34217W        W 5943  43.237  44.968   1.779
34218W        W 5944  14.045  17.242   1.339
34219W        W 5945  41.994  37.905  13.445
34220W        W 5946   2.733  29.366   4.138
34221W        W 5947  40.371   8.916   4.134
34222W        W 5948  35.854  25.089   5.078
34223W        W 5949  16.124  23.507  13.465
34224W        W 5950  41.884  28.689  14.358
34225W        W 5951   3.966   9.128  11.928
34226W        W 5952  21.169  28.672  14.871
34227W        W 5953  34.491  23.358   3.876
34228W        W 5954   5.480   8.460  10.593
34229W        W 5955   1.529   5.600  11.181
34230W        W 5956  44.487  38.990   2.373
34231W        W 5957  12.964   6.881   2.808
34232W        W 5958  44.931   1.210  14.866
34233W        W 5959  33.527  44.453  11.248
34234W        W 5960  44.382   6.080   4.548
34235W        W 5961   2.207  13.695  10.987
34236W        W 5962  29.574  27.895  14.059
34237W        W 5963  44.594  44.468   2.953
34238W        W 5964  33.425  18.942   2.413
34239W        W 5965  11.098  32.408   0.835
34240W        W 5966  30.137  44.375   9.924
34241W        W 5967  15.107  20.715  11.571
34242W        W 5968  19.169  34.055   1.762
34243W        W 5969  40.820  31.552  13.447
34244W        W 5970  27.038  41.865   2.216
34245W        W 5971  35.295  42.939  13.501
34246W        W 5972  43.058  31.576  14.990
34247W        W 5973  40.837  20.757   3.724
34248W        W 5974  30.488  16.421   1.954
34249W        W 5975  41.682  27.913  13.962
34250W        W 5976  42.262  22.818  12.875
34251W        W 5977  41.308  37.783   4.254
34252W        W 5978  20.631  12.799  13.983
34253W        W 5979   8.188   3.485  14.884
34254W        W 5980  12.835  25.664  11.573
34255W        W 5981   3.906  21.814  10.597
34256W        W 5982  21.509  38.846  12.748
34257W        W 5983  22.275  20.809  13.618
34258W        W 5984  11.524   9.599   1.931
34259W        W 5985  33.499  43.459   0.202
34260W        W 5986  21.050  37.844   5.060
34261W        W 5987   2.187  11.248  11.479
34262W        W 5988  42.498  24.912   3.204
34263W        W 5989  27.181  36.832   0.349
34264W        W 5990   5.483  30.556  11.493
34265W        W 5991  37.223  32.978   4.613
34266W        W 5992  16.120  38.778   1.196
34267W        W 5993  43.683  11.447   0.257
34268W        W 5994   1.323   4.308   3.262
34269W        W 5995  44.707  14.743   2.291
34270W        W 5996   8.251  36.429  10.746
34271W        W 5997  34.206   9.987   2.150
34272W        W 5998  38.611  16.016  13.015
34273W        W 5999  39.802  39.600   0.782
34274W        W 6000  40.275  21.724  12.577
34275W        W 6001  36.600  31.541   1.796
34276W        W 6002  13.388  31.225  11.911
34277W        W 6003  30.661  35.839   0.836
34278W        W 6004  33.867  30.340   1.672
34279W        W 6005  13.763   5.534   1.825
34280W        W 6006   9.295  28.966   0.758
34281W        W 6007  11.363  16.142  11.095
34282W        W 6008  39.525  34.623   4.058
34283W        W 6009  32.031   4.976  13.808
34284W        W 6010  39.429  42.464   2.545
34285W        W 6011  29.590  19.545   0.542
34286W        W 6012   0.275  33.314   1.099
34287W        W 6013  40.211  37.129   4.209
34288W        W 6014  38.673   1.041  14.811
34289W        W 6015  43.677  10.914  11.164
34290W        W 6016  25.572  34.317  13.385
34291W        W 6017  35.572  26.025   2.892
34292W        W 6018  15.155   3.791   1.840
34293W        W 6019  18.615  29.202  14.039
34294W        W 6020   0.405  41.915   0.099
34295W        W 6021   3.296   4.272  13.357
34296W        W 6022  13.632   6.624  11.640
34297W        W 6023  15.546  26.666   5.036
34298W        W 6024  16.522  11.343  13.856
34299W        W 6025   4.143  29.093  10.777
34300W        W 6026  37.588  32.522  13.781
34301W        W 6027  39.454  11.248   1.188
34302W        W 6028  12.877  10.094  13.502
34303W        W 6029  31.169  18.278   4.238
34304W        W 6030   6.738  31.392   3.210
34305W        W 6031  30.057  44.031   0.445
34306W        W 6032  34.586  26.397   2.890
34307W        W 6033  12.424  23.090  12.122
34308W        W 6034  29.292  26.103   0.746
34309W        W 6035  25.833  40.722  14.306
34310W        W 6036  38.804  36.683  12.808
34311W        W 6037  27.989  40.562  11.631
34312W        W 6038  41.326  38.646   0.044
34313W        W 6039  11.286   7.227   3.380
34314W        W 6040  20.731  16.253   2.710
34315W        W 6041  24.883  34.968   3.877
34316W        W 6042  26.957  29.707  13.425
34317W        W 6043  17.833  10.584   1.861
34318W        W 6044  23.502   2.696  12.010
34319W        W 6045   9.448   6.472   1.004
34320W        W 6046  34.303  34.618   2.482
34321W        W 6047  36.403   2.222  12.412
34322W        W 6048  32.553  21.489   2.188
34323W        W 6049   6.705  33.110  14.878
34324W        W 6050  34.743  21.592  11.767
34325W        W 6051  31.500  23.301   9.500
34326W        W 6052  43.186  32.950  12.277
34327W        W 6053  35.981  29.530  13.446
34328W        W 6054  42.207  23.593   0.148
34329W        W 6055   2.510  12.194  12.989
34330W        W 6056  28.289  18.611  14.778
34331W        W 6057   1.821   8.824  12.363
34332W        W 6058   2.429  25.563  11.130
34333W        W 6059  18.285  10.160   3.420
34334W        W 6060  19.536  36.709   2.373
34335W        W 6061  28.235   4.493  13.026
34336W        W 6062  13.674  20.541   3.862
34337W        W 6063  31.024   6.431   1.344
34338W        W 6064  15.824  36.388   1.336
34339W        W 6065  40.191   4.544  12.541
34340W        W 6066  18.843  13.849  11.039
34341W        W 6067   6.961  26.070  14.042
34342W        W 6068  26.052   2.379   2.202
34343W        W 6069  38.850  42.492   0.845
34344W        W 6070   6.010   8.399  12.425
34345W        W 6071  21.041  42.709  10.625
34346W        W 6072   2.316   0.708   2.276
34347W        W 6073  38.015   3.432  10.232
34348W        W 6074  36.915  27.119  12.220
34349W        W 6075   5.691  37.056   1.392
34350W        W 6076  27.614  17.167  13.231
34351W        W 6077  29.326  38.496   1.250
34352W        W 6078  34.356  41.295  11.554
34353W        W 6079  16.988  11.298  14.187
34354W        W 6080  13.309  10.091   0.097
34355W        W 6081  28.546  42.496   4.630
34356W        W 6082  31.026   0.675  14.483
34357W        W 6083  10.005  44.753   2.926
34358W        W 6084  29.485  18.631   2.257
34359W        W 6085  42.995   7.870  13.653
34360W        W 6086  41.588  22.175  13.521
34361W        W 6087  34.894  31.440  12.418
34362W        W 6088  26.921   2.897   3.240
34363W        W 6089  24.702  11.183   0.868
34364W        W 6090  30.448  19.714  13.521
34365W        W 6091  18.094  36.928  13.450
34366W        W 6092  17.459  12.297   4.049
34367W        W 6093  37.310  13.449  14.990
34368W        W 6094   6.145  24.574  12.302
34369W        W 6095  21.567  11.112  14.832
34370W        W 6096  34.952  43.576   1.009
34371W        W 6097  24.030  23.954   3.158
34372W        W 6098  36.387   9.179   4.658
34373W        W 6099  31.000  10.291   4.277
34374W        W 6100  25.206  22.910  11.955
34375W        W 6101  27.625  28.781   5.020
34376W        W 6102  15.914  21.509  14.174
34377W        W 6103   3.102   2.386   1.819
34378W        W 6104  35.136  21.679   3.828
34379W        W 6105  12.191  23.312  13.984
34380W        W 6106  27.419   2.901   3.081
34381W        W 6107  40.461   1.213   1.511
34382W        W 6108   5.742  20.684  11.861
34383W        W 6109   6.771  35.723  14.503
34384W        W 6110  10.328  11.148   2.852
34385W        W 6111   6.251  18.023   3.287
34386W        W 6112  36.515  13.074   2.360
34387W        W 6113  31.847  26.676  14.539
34388W        W 6114  17.222   0.325  13.790
34389W        W 6115  35.410   1.028   0.244
34390W        W 6116   4.689  20.116  13.941
34391W        W 6117  44.876  39.823   0.678
34392W        W 6118  26.828  17.087  12.396
34393W        W 6119  14.321  27.135   1.835
34394W        W 6120  34.384  23.184  13.909
34395W        W 6121  34.957  13.306   0.563
34396W        W 6122   5.192  40.428  13.238
34397W        W 6123  23.793  26.468   4.595
34398W        W 6124  34.161  10.062   0.883
34399W        W 6125  16.193  30.599   3.778
34400W        W 6126  26.786   6.438  14.921
34401W        W 6127  12.169  20.243   2.793
34402W        W 6128  20.949   4.352  13.236
34403W        W 6129  21.991   8.890  14.417
34404W        W 6130  12.862  40.981   3.398
34405W        W 6131  16.622  37.575  12.097
34406W        W 6132  36.661  17.353   3.707
34407W        W 6133  31.916  25.181  14.877
34408W        W 6134   7.256   8.047  13.239
34409W        W 6135   8.737   0.790  14.509
34410W        W 6136  31.467  18.684   2.808
34411W        W 6137  43.020   5.168  14.974
34412W        W 6138  42.814   8.127   3.627
34413W        W 6139   1.603  26.460  12.511
34414W        W 6140  16.804  37.327   1.847
34415W        W 6141  28.035  27.052  14.465
34416W        W 6142  24.691  18.489   4.169
34417W        W 6143  37.028  24.587  14.697
34418W        W 6144   2.813   1.494  13.949
34419W        W 6145  33.051  14.804   0.390
34420W        W 6146  31.769  37.086  14.453
34421W        W 6147  17.911   1.599  13.060
34422W        W 6148  44.355  18.826  11.489
34423W        W 6149  16.088  34.827   4.138
34424W        W 6150  26.003  22.790  11.467
34425W        W 6151  32.835  18.285  12.412
34426W        W 6152  40.053  31.325   0.878
34427W        W 6153  19.166   2.718  11.132
34428W        W 6154  14.705  22.109  10.913
34429W        W 6155  10.815  33.589   1.442
34430W        W 6156   4.354  41.952   0.661
34431W        W 6157  26.685  31.123   3.412
34432W        W 6158  30.951  31.311   4.928
34433W        W 6159  34.430   2.655   2.787
34434W        W 6160  13.797   8.496  13.434
34435W        W 6161  30.836  12.754   3.350
34436W        W 6162  35.990  27.195   1.213
34437W        W 6163  23.535   7.373   4.600
34438W        W 6164  40.932  16.527  13.739
34439W        W 6165  26.162  38.417  14.115
34440W        W 6166  37.168   1.490  10.927
34441W        W 6167  12.594  15.764   9.928
34442W        W 6168  17.071  14.902  14.537
34443W        W 6169  40.080  22.835   0.927
34444W        W 6170  18.494  30.412  13.064
34445W        W 6171  11.777   8.889  13.904
34446W        W 6172  10.236   7.128   3.450
34447W        W 6173  35.987  15.287   4.433
34448W        W 6174   3.062  12.850  12.419
34449W        W 6175  40.278   5.784  13.664
34450W        W 6176   5.231  16.885   2.632
34451W        W 6177   5.220  26.055   0.643
34452W        W 6178  11.483   2.836  14.977
34453W        W 6179  11.277  25.174   5.694
34454W        W 6180  34.598   1.185   1.198
34455W        W 6181  11.746  34.453  13.924
34456W        W 6182  44.783  19.210  13.818
34457W        W 6183  13.302  25.277  10.362
34458W        W 6184   8.737  13.344   2.606
34459W        W 6185  43.598  12.845   2.346
34460W        W 6186  24.653   6.411   1.909
34461W        W 6187  40.201  14.586  12.457
34462W        W 6188  17.804  14.902   0.463
34463W        W 6189  19.659  31.699  14.007
34464W        W 6190  10.338  12.896  13.480
34465W        W 6191  41.796  28.074   1.243
34466W        W 6192   6.904  14.352   0.467
34467W        W 6193   3.480  44.700   0.531
34468W        W 6194  25.853  19.062  14.852
34469W        W 6195   2.033  17.260   5.083
34470W        W 6196   7.146   4.664  10.896
34471W        W 6197  36.416  32.112   0.162
34472W        W 6198   4.731  40.242   3.151
34473W        W 6199  44.383  37.527  12.161
34474W        W 6200   4.656  25.017   3.685
34475W        W 6201   6.715  34.889   1.617
34476W        W 6202  31.471   9.805   1.242
34477W        W 6203  34.978   4.142  14.655
34478W        W 6204  34.358  20.694  14.344
34479W        W 6205  41.745  20.132  13.057
34480W        W 6206  43.554  44.906  11.052
34481W        W 6207  42.313  13.603   2.929
34482W        W 6208  35.866  43.740  12.529
34483W        W 6209  32.625  13.786  13.935
34484W        W 6210  11.411   2.742   1.829
34485W        W 6211  33.142  32.495   3.686
34486W        W 6212  31.487   7.222   1.506
34487W        W 6213  26.717  34.873   1.202
34488W        W 6214   1.574  43.852   4.890
34489W        W 6215   4.718  26.745  13.315
34490W        W 6216   8.691   5.314   2.451
34491W        W 6217  37.302  16.165   3.253
34492W        W 6218  18.603  28.382   2.349
34493W        W 6219  24.796  30.244   0.785
34494W        W 6220  28.909  30.542  13.113
34495W        W 6221  40.116  30.821  14.371
34496W        W 6222   8.198   3.728  13.534
34497W        W 6223  16.225  33.670   0.049
34498W        W 6224  11.418  22.889  11.911
34499W        W 6225  37.009  30.763  14.000
34500W        W 6226  27.041   9.147  13.504
34501W        W 6227  42.282  17.483  14.751
34502W        W 6228  27.114   9.809   2.349
34503W        W 6229  39.103  30.482  14.426
34504W        W 6230  44.924   4.028  14.409
34505W        W 6231  44.880  41.261   5.045
34506W        W 6232  18.794  21.558   4.777
34507W        W 6233  19.497  18.662   0.176
34508W        W 6234  15.138  38.417   4.933
34509W        W 6235  21.181  29.131  11.480
34510W        W 6236  44.362  30.369   2.780
34511W        W 6237   7.735  11.840   3.401
34512W        W 6238  19.124  16.464  14.551
34513W        W 6239  16.786  40.475  13.998
34514W        W 6240  16.144   4.862  10.260
34515W        W 6241  15.401  25.035   1.253
34516W        W 6242  16.092  21.782   2.619
34517W        W 6243  29.412  26.549  11.140
34518W        W 6244  17.126  21.637  12.933
34519W        W 6245  38.201  21.354  12.042
34520W        W 6246  44.678  21.540  10.676
34521W        W 6247  34.350  26.795  11.464
34522W        W 6248   7.823  20.941   4.110
34523W        W 6249  17.355  14.907  12.405
34524W        W 6250  13.229  34.744   3.288
34525W        W 6251   5.913   0.018  12.132
34526W        W 6252   2.378  24.752   3.372
34527W        W 6253   4.407  28.616  12.343
34528W        W 6254  41.389   2.027  10.780
34529W        W 6255   1.796  40.866  11.534
34530W        W 6256  16.417  27.644   2.778
34531W        W 6257   7.726  31.440  13.347
34532W        W 6258   4.930   9.188  13.793
34533W        W 6259  39.363  15.747   1.353
34534W        W 6260  39.126   2.351   4.759
34535W        W 6261  38.859   0.804  12.822
34536W        W 6262  44.257  44.158  11.131
34537W        W 6263  37.716  27.390  11.806
34538W        W 6264   3.867  33.442  13.443
34539W        W 6265   9.700  42.508   3.683
34540W        W 6266  10.561  23.273   0.272
34541W        W 6267  17.865   4.221   0.289
34542W        W 6268  27.480  43.531  12.606
34543W        W 6269  12.956   9.187   3.057
34544W        W 6270   4.730  14.080   4.148
34545W        W 6271  30.105   5.470  11.022
34546W        W 6272  44.732  17.323   3.338
34547W        W 6273  40.058   4.631   2.391
34548W        W 6274  24.919   8.155   0.270
34549W        W 6275  29.275   9.820  12.449
34550W        W 6276  38.347  28.142   2.186
34551W        W 6277  34.767  21.677   3.354
34552W        W 6278  18.370  16.052   4.884
34553W        W 6279   2.953  28.297  13.031
34554W        W 6280  15.167  19.491  11.174
34555W        W 6281   4.958  44.738  13.058
34556W        W 6282  18.151  36.781  14.958
34557W        W 6283  14.998  41.049   9.771
34558W        W 6284  21.657  25.218   2.604
34559W        W 6285  18.767  24.867  14.366
34560W        W 6286  39.457  34.991  13.748
34561W        W 6287  22.769   2.923  14.408
34562W        W 6288  41.617   2.275  14.796
34563W        W 6289  33.459  41.123  12.571
34564W        W 6290  15.228  33.385  13.962
34565W        W 6291  33.092  17.563   1.351
34566W        W 6292   1.351  28.890  13.983
34567W        W 6293   5.986  21.727   2.942
34568W        W 6294  29.751   0.646   2.312
34569W        W 6295  19.559  11.399   0.545
34570W        W 6296  19.114  21.100  14.892
34571W        W 6297  27.932  31.600  10.782
34572W        W 6298   1.346  34.402   2.398
34573W        W 6299  20.274  38.841   3.609
34574W        W 6300   6.453   9.501  14.995
34575W        W 6301  38.920  13.385   1.791
34576W        W 6302  13.152  20.213  13.413
34577W        W 6303  25.182  10.355  10.678
34578W        W 6304  36.412  32.532  12.159
34579W        W 6305  37.847  20.108  12.411
34580W        W 6306   0.504   8.264   1.846
34581W        W 6307  12.577  11.382  12.844
34582W        W 6308  39.085  24.150   2.335
34583W        W 6309  10.393  30.866   2.735
34584W        W 6310   6.706  35.046  12.583
34585W        W 6311  26.009  17.032  13.967
34586W        W 6312  15.551  25.057   1.745
34587W        W 6313  15.607  31.341   1.818
34588W        W 6314   3.863  34.140   3.066
34589W        W 6315  23.703  37.934  11.506
34590W        W 6316  19.800   4.720   1.317
34591W        W 6317   3.408  13.068  11.050
34592W        W 6318   7.938  20.120  11.637
34593W        W 6319  19.596  32.392  12.209
34594W        W 6320  38.789  17.266   1.614
34595W        W 6321  44.253  20.500  14.777
34596W        W 6322  32.752   2.215   3.154
34597W        W 6323  34.527  34.848   4.682
34598W        W 6324  17.232  17.126   0.728
34599W        W 6325  42.167   5.697  13.409
34600W        W 6326  23.220  10.738   0.990
34601W        W 6327  41.327  37.780  13.026
34602W        W 6328  21.165   7.117   0.372
34603W        W 6329   9.844  21.031   4.166
34604W        W 6330  26.036  42.023  13.518
34605W        W 6331  23.823   7.141   4.211
34606W        W 6332  19.086   0.428   4.339
34607W        W 6333  30.867   5.260  14.371
34608W        W 6334  25.746  18.260   2.372
34609W        W 6335  10.462   5.983   2.851
34610W        W 6336  40.542   5.325   2.715
34611W        W 6337   9.845   3.729  11.140
34612W        W 6338  22.938   0.415  12.915
34613W        W 6339  44.758  25.187  13.939
34614W        W 6340   4.873  19.279   4.157
34615W        W 6341  41.807  18.685  10.732
34616W        W 6342  16.083   2.985   4.534
34617W        W 6343  32.644  33.427   2.334
34618W        W 6344  29.006  32.481  13.871
34619W        W 6345  43.409  23.758   2.742
34620W        W 6346  14.106  33.602  13.535
34621W        W 6347   6.260  23.005  12.931
34622W        W 6348  28.446  13.788  13.950
34623W        W 6349   7.670  41.542  11.137
34624W        W 6350  34.996  29.417   0.727
34625W        W 6351  12.812  39.358  13.419
34626W        W 6352   7.200  31.694   1.385
34627W        W 6353  43.493  17.009  12.234
34628W        W 6354   9.662  41.364   0.213
34629W        W 6355  33.429  18.656   0.689
34630W        W 6356  19.951  32.044  11.322
34631W        W 6357  17.113  24.563  10.667
34632W        W 6358  18.054  10.357  12.930
34633W        W 6359  27.645  28.011   0.310
34634W        W 6360   3.884   7.700  11.753
34635W        W 6361   3.788  28.200   0.313
34636W        W 6362  28.983  43.359  12.988
34637W        W 6363  24.312  33.844   3.755
34638W        W 6364  32.159  17.843  14.061
34639W        W 6365  33.692  22.428  12.170
34640W        W 6366  30.393  43.959  12.463
34641W        W 6367   2.385  29.914  13.886
34642W        W 6368   9.823  41.424   2.255
34643W        W 6369  28.436  21.776   4.230
34644W        W 6370  21.588  25.179  13.236
34645W        W 6371  26.072  26.477  14.025
34646W        W 6372  22.729  40.127  12.953
34647W        W 6373  36.459   4.233   1.564
34648W        W 6374   1.382  27.280  14.931
34649W        W 6375   3.819  12.787  11.178
34650W        W 6376  20.307   0.267   0.143
34651W        W 6377  19.329  29.449   0.744
34652W        W 6378  43.864  24.533   2.602
34653W        W 6379  21.459  33.030  11.030
34654W        W 6380  26.222  25.237   4.463
34655W        W 6381  42.136  37.280  13.721
34656W        W 6382  27.403  11.570  12.122
34657W        W 6383  24.114  39.646  10.719
34658W        W 6384  27.195  21.279   4.951
34659W        W 6385  21.007   2.950  13.039
34660W        W 6386   5.639   7.969   9.640
34661W        W 6387  33.050  44.366   5.008
34662W        W 6388  38.488  11.719  12.271
34663W        W 6389  20.209  34.283   0.439
34664W        W 6390  28.115  19.767  14.498
34665W        W 6391  24.460  22.773  11.216
34666W        W 6392  41.171  35.912   4.028
34667W        W 6393  35.952   7.288   2.321
34668W        W 6394  24.157  19.736  14.974
34669W        W 6395  16.068   8.796  11.465
34670W        W 6396  36.383  40.440   0.256
34671W        W 6397   2.329  39.677   3.320
34672W        W 6398  37.123   0.377  11.647
34673W        W 6399  31.210  41.321  11.438
34674W        W 6400  12.372  30.046  13.785
34675W        W 6401  30.493   7.144  11.191
34676W        W 6402   3.980  40.850   2.557
34677W        W 6403  41.049  20.313   4.521
34678W        W 6404   1.162  31.447  13.865
34679W        W 6405  33.080  42.785   4.922
34680W        W 6406  21.740  36.405   3.754
34681W        W 6407   5.619  33.617   1.398
34682W        W 6408  40.554  28.271  12.514
34683W        W 6409  42.290  16.517  14.801
34684W        W 6410  34.018  29.378  12.470
34685W        W 6411  39.720  38.432   1.470
34686W        W 6412  25.463  17.550   3.148
34687W        W 6413  19.535  29.878   4.841
34688W        W 6414   1.424   3.408  12.657
34689W        W 6415  33.591  31.133  14.587
34690W        W 6416  14.695   6.312  13.713
34691W        W 6417  24.466   1.370  10.781
34692W        W 6418  37.949  34.915   4.176
34693W        W 6419   5.301  32.409   3.272
34694W        W 6420  25.113  17.324  11.411
34695W        W 6421  19.087  39.710  10.786
34696W        W 6422  32.080  23.149   3.329
34697W        W 6423  31.661  41.711   9.838
34698W        W 6424  24.755   1.825   3.080
34699W        W 6425  41.043   8.675  12.953
34700W        W 6426  37.435  10.832  14.218
34701W        W 6427  28.982  30.848   2.882
34702W        W 6428   6.673  43.955   2.694
34703W        W 6429  26.253  44.494   0.628
34704W        W 6430  40.333  41.989  10.668
34705W        W 6431  21.006  16.782   4.613
34706W        W 6432   0.508  15.091  11.553
34707W        W 6433  13.741   1.341  13.468
34708W        W 6434  26.780  18.031   3.155
34709W        W 6435  25.060   8.054   1.760
34710W        W 6436  28.046   5.725  12.170
34711W        W 6437   6.853  23.029  11.609
34712W        W 6438  10.336  20.678   2.640
34713W        W 6439  11.660  17.461   9.898
34714W        W 6440  31.922  29.769   0.853
34715W        W 6441  32.920  43.935  13.366
34716W        W 6442  30.194  34.822   0.276
34717W        W 6443  18.131   6.419   3.901
34718W        W 6444  24.209   6.668  11.191
34719W        W 6445   6.695   2.917  14.768
34720W        W 6446  44.595  26.097  14.389
34721W        W 6447   3.666  17.734  12.963
34722W        W 6448  37.512  27.939  10.383
34723W        W 6449  44.561  22.076   4.155
34724W        W 6450   8.652  11.154   4.662
34725W        W 6451  42.268  42.269   3.830
34726W        W 6452  15.772  28.710  14.893
34727W        W 6453  13.007  18.273  12.491
34728W        W 6454  29.024  35.483   2.093
34729W        W 6455  29.690   5.339  10.717
34730W        W 6456  41.799   9.420   3.596
34731W        W 6457  13.400  41.223   0.405
34732W        W 6458  13.581  41.844  12.958
34733W        W 6459  44.359  43.891  10.686
34734W        W 6460   3.369  27.705   4.630
34735W        W 6461  17.091  30.226   5.114
34736W        W 6462   1.811   9.727  12.311
34737W        W 6463  18.137  17.626   4.733
34738W        W 6464  15.148  12.630   1.697
34739W        W 6465  31.910   6.459   2.026
34740W        W 6466   1.879  25.525  10.827
34741W        W 6467  38.798   2.398  12.613
34742W        W 6468  42.365  10.796   2.136
34743W        W 6469  38.815   2.776   4.740
34744W        W 6470  14.150  38.043  11.959
34745W        W 6471  35.335  41.424  12.347
34746W        W 6472   8.689  19.827  13.473
34747W        W 6473  36.588   1.691   4.600
34748W        W 6474  32.998  31.798   2.759
34749W        W 6475   6.956  27.273   2.889
34750W        W 6476  15.298   8.684  14.893
34751W        W 6477  34.578   7.195   1.757
34752W        W 6478  15.749   3.638  13.389
34753W        W 6479  41.752  36.730   0.849
34754W        W 6480  13.856  27.453   1.895
34755W        W 6481  30.097  10.561  10.712
34756W        W 6482   2.635  18.251   0.991
34757W        W 6483  34.859   0.281  11.090
34758W        W 6484  24.563  32.594  13.579
34759W        W 6485  21.955  21.322  11.885
34760W        W 6486  15.777  16.765  10.697
34761W        W 6487  41.870   4.826  12.515
34762W        W 6488  15.302   1.218   2.690
34763W        W 6489  33.496  20.729   0.400
34764W        W 6490  41.929  27.224   2.285
34765W        W 6491  13.488  13.735  12.869
34766W        W 6492  10.222  30.183  14.090
34767W        W 6493  34.327  32.010  11.194
34768W        W 6494  43.359  29.421  12.020
34769W        W 6495  23.739  33.570  14.839
34770W        W 6496  39.266   1.924  14.918
34771W        W 6497  44.471   4.254  14.311
34772W        W 6498  28.053  31.888   2.677
34773W        W 6499   0.730  31.667  11.130
34774W        W 6500  38.508   4.503  13.781
34775W        W 6501  43.406  42.499  11.415
34776W        W 6502  32.271  27.423  13.403
34777W        W 6503  26.669  43.009   0.967
34778W        W 6504  42.048   0.669  14.384
34779W        W 6505  13.253  30.404   4.151
34780W        W 6506  28.457  41.942  13.144
34781W        W 6507  11.859   0.798   3.139
34782W        W 6508  30.428  19.656   4.258
34783W        W 6509  20.017  29.566  12.817
34784W        W 6510   7.385  16.662   1.789
34785W        W 6511  39.228  39.847   2.648
34786W        W 6512  30.579   9.564  12.849
34787W        W 6513  40.261  10.275  10.622
34788W        W 6514  12.230  35.371  14.690
34789W        W 6515  11.921   6.116  13.384
34790W        W 6516  31.536  25.111   4.372
34791W        W 6517   2.901  18.651   0.326
34792W        W 6518  14.172   9.131   0.063
34793W        W 6519  12.871  29.860  12.958
34794W        W 6520  39.113  21.958   4.454
34795W        W 6521  25.267  43.066  12.536
34796W        W 6522  19.062   7.694  12.687
34797W        W 6523  31.967  25.171   2.450
34798W        W 6524  37.860  25.459  14.998
34799W        W 6525  19.521  16.747  14.438
34800W        W 6526  28.377  38.737   3.291
34801W        W 6527  19.761   7.829  11.582
34802W        W 6528  13.609  43.005  14.833
34803W        W 6529  25.294   1.934  10.613
34804W        W 6530   8.381  35.975  13.103
34805W        W 6531  40.374  14.181   0.192
34806W        W 6532  34.071   0.891   0.571
34807W        W 6533   1.049  20.437   0.428
34808W        W 6534  30.181  20.168  13.508
34809W        W 6535   5.149  31.440   0.359
34810W        W 6536   4.386  44.362   4.582
34811W        W 6537   6.267  39.168  11.646
34812W        W 6538   1.291  12.134  11.548
34813W        W 6539  28.594  16.153  11.516
34814W        W 6540  42.792  13.775   4.118
34815W        W 6541  19.022  14.700   4.715
34816W        W 6542  38.570  37.525  12.873
34817W        W 6543  24.125  15.741   4.968
34818W        W 6544  25.272  32.912   1.618
34819W        W 6545  20.026  19.295   2.346
34820W        W 6546   1.624   7.850  12.823
34821W        W 6547  25.210  16.024   1.929
34822W        W 6548   7.781   5.765  13.217
34823W        W 6549   0.411  44.247   3.441
34824W        W 6550   8.827   4.327  10.396
34825W        W 6551  36.867  13.541  14.201
34826W        W 6552  42.224   8.748  14.279
34827W        W 6553  41.387  22.535   0.312
34828W        W 6554  17.072  25.045  12.408
34829W        W 6555  30.173  34.905   2.561
34830W        W 6556  40.396  19.639  14.463
34831W        W 6557  21.023   8.691  14.011
34832W        W 6558  28.957   5.788   1.835
34833W        W 6559  32.018  13.113  11.381
34834W        W 6560  42.140  32.415  13.829
34835W        W 6561  17.616  29.427   3.219
34836W        W 6562  11.215  26.506  12.810
34837W        W 6563  33.497  19.836  12.467
34838W        W 6564  17.735   2.218   4.061
34839W        W 6565  42.497   0.837   1.291
34840W        W 6566   7.358  16.661   4.754
34841W        W 6567  13.234  28.741  14.500
34842W        W 6568  33.660   6.770  14.523
34843W        W 6569  38.976  34.029   4.888
34844W        W 6570  16.709  40.076   0.393
34845W        W 6571  13.331  41.388  14.488
34846W        W 6572  11.347  40.640   2.777
34847W        W 6573  44.059   6.768  14.821
34848W        W 6574   9.294  32.120  10.254
34849W        W 6575  12.404  31.984  10.480
34850W        W 6576  32.596   1.927   4.605
34851W        W 6577   1.953  41.919  14.375
34852W        W 6578  31.166  11.591   0.821
34853W        W 6579   0.891   1.533  13.548
34854W        W 6580  17.324  37.942   0.104
34855W        W 6581  28.411   1.349   1.920
34856W        W 6582  28.823  20.101  12.087
34857W        W 6583  32.597  35.929  11.084
34858W        W 6584  33.977   8.774  12.993
34859W        W 6585  22.807  43.401  11.457
34860W        W 6586  40.756  11.159  10.719
34861W        W 6587  34.382   0.398  10.786
34862W        W 6588  30.748  16.812  10.908
34863W        W 6589  25.288  20.096   4.229
34864W        W 6590  29.485  39.560   0.457
34865W        W 6591  27.052  38.105   3.590
34866W        W 6592   4.399  18.075  14.920
34867W        W 6593  38.154  44.069   1.256
34868W        W 6594  32.545  37.466  14.572
34869W        W 6595  18.844  19.641   4.107
34870W        W 6596  15.583  35.900   3.826
34871W        W 6597   9.380  15.884   4.181
34872W        W 6598  21.968  43.473  14.547
34873W        W 6599  38.021  28.452  14.552
34874W        W 6600  36.203  38.010   4.203
34875W        W 6601  13.570  16.115  10.595
34876W        W 6602  16.642  21.956   4.758
34877W        W 6603  38.311  41.717  12.133
34878W        W 6604  36.128  38.382   0.748
34879W        W 6605  18.573  41.368  11.203
34880W        W 6606  21.790  41.328  11.733
34881W        W 6607   0.266  29.931  13.072
34882W        W 6608  29.536  33.420   2.168
34883W        W 6609   7.260  14.816   2.241
34884W        W 6610   4.701  39.556  13.501
34885W        W 6611  44.937  20.334   4.723
34886W        W 6612  40.521  31.537   2.726
34887W        W 6613  27.048  35.397  10.403
34888W        W 6614   3.995   2.337   4.468
34889W        W 6615  39.354  18.251  11.100
34890W        W 6616  32.056  42.454  13.445
34891W        W 6617  10.221  20.433  14.864
34892W        W 6618  38.441   4.294   1.416
34893W        W 6619  39.338  21.772   3.649
34894W        W 6620  26.050   3.483  11.984
34895W        W 6621  25.014  44.319   0.857
34896W        W 6622  33.857  27.200  12.690
34897W        W 6623  24.636   9.143   0.557
34898W        W 6624  32.912   8.293   2.449
34899W        W 6625  33.837  41.527  14.221
34900W        W 6626  13.787  18.814  11.882
34901W        W 6627  10.169  32.335   1.654
34902W        W 6628  35.390   5.917   1.314
34903W        W 6629  30.201  29.435   3.462
34904W        W 6630   0.045  33.820  12.424
34905W        W 6631  21.709  23.193  11.472
34906W        W 6632  44.406   1.433   4.588
34907W        W 6633  11.270   3.845  14.023
34908W        W 6634  16.052  33.329   0.879
34909W        W 6635   5.696  35.851   4.118
34910W        W 6636  35.608  39.726  11.895
34911W        W 6637  31.678  11.618   1.419
34912W        W 6638  25.712  28.512  13.665
34913W        W 6639  27.923  15.028   4.039
34914W        W 6640  24.391  32.274   3.197
34915W        W 6641  16.727  43.460  13.095
34916W        W 6642  29.054  25.257  12.523
34917W        W 6643  25.988  13.200  14.219
34918W        W 6644   0.910  26.054  10.693
34919W        W 6645  20.471   5.813  12.917
34920W        W 6646  41.948  32.148  14.692
34921W        W 6647   6.354  38.582  14.570
34922W        W 6648  18.602  21.070  10.610
34923W        W 6649   4.274  24.242   2.753
34924W        W 6650   3.834  13.636  12.329
34925W        W 6651  18.538  16.178  12.390
34926W        W 6652  20.640   5.953  10.749
34927W        W 6653  14.073  24.604  12.559
34928W        W 6654  13.264  44.759  13.043
34929W        W 6655   6.738  11.252   2.436
34930W        W 6656  37.156  10.894  12.071
34931W        W 6657  28.270   9.513   3.550
34932W        W 6658  40.895  15.629  12.629
34933W        W 6659  37.057  19.620   0.620
34934W        W 6660  43.605  14.272  13.174
34935W        W 6661  12.666  42.390   3.895
34936W        W 6662  14.070  17.164  13.728
34937W        W 6663  25.027  18.051  13.572
34938W        W 6664  37.514  35.648   0.804
34939W        W 6665  35.288  12.056  11.530
34940W        W 6666  38.759  35.546  12.071
34941W        W 6667  42.823  23.615  14.377
34942W        W 6668  44.991   4.913  13.928
34943W        W 6669  20.164  35.277   0.404
34944W        W 6670  27.881  16.745  13.022
34945W        W 6671  26.580  20.040   5.134
34946W        W 6672  38.767  14.141  11.910
34947W        W 6673  43.428   3.089   3.244
34948W        W 6674   6.581   7.415   5.496
34949W        W 6675  12.664  39.469  14.281
34950W        W 6676  32.342  31.187   3.169
34951W        W 6677  19.880  29.047   3.788
34952W        W 6678  25.777  24.906  11.215
34953W        W 6679  29.700  25.204   4.707
34954W        W 6680  20.580  42.818   3.198
34955W        W 6681  39.115  37.879  14.052
34956W        W 6682  22.760  39.385   0.503
34957W        W 6683  14.083   5.693  14.867
34958W        W 6684  13.119   9.151   1.341
34959W        W 6685   9.654  25.761  14.211
34960W        W 6686   2.800  19.855   1.020
34961W        W 6687  28.703  30.723   3.815
34962W        W 6688  33.585  18.742  14.776
34963W        W 6689  29.806   4.273  14.899
34964W        W 6690  31.158  18.571   3.368
34965W        W 6691  22.074   0.004  12.544
34966W        W 6692  14.627  19.555   0.306
34967W        W 6693   6.837  24.524  10.617
34968W        W 6694   4.246  33.070   4.305
34969W        W 6695  24.730  33.512  12.120
34970W        W 6696   9.325  24.792   1.147
34971W        W 6697  41.867  41.547  12.442
34972W        W 6698  37.058  39.019   2.787
34973W        W 6699  33.952   8.476  13.433
34974W        W 6700   3.888  20.154  12.990
34975W        W 6701  13.149  10.675  11.392
34976W        W 6702   7.564  15.707   3.669
34977W        W 6703  30.689  24.757  12.010
34978W        W 6704  17.382  24.142  11.552
34979W        W 6705  14.443  38.756  11.521
34980W        W 6706  14.576  38.867   2.231
34981W        W 6707  38.251  23.146   3.730
34982W        W 6708   8.689   9.245  12.407
34983W        W 6709  12.179  19.752   4.831
34984W        W 6710  18.145  29.616   1.933
34985W        W 6711  16.558  39.938   1.400
34986W        W 6712  41.052   0.346   2.327
34987W        W 6713  33.894  11.957   2.406
34988W        W 6714  38.032  19.989  14.876
34989W        W 6715  39.617   9.335  11.698
34990W        W 6716  24.860  42.624   3.196
34991W        W 6717  42.808  10.239  12.604
34992W        W 6718  36.525  17.086   4.516
34993W        W 6719  44.237  19.740  11.594
34994W        W 6720   8.683  18.915   0.888
34995W        W 6721  36.956  28.709  10.621
34996W        W 6722  36.312  18.683   3.821
34997W        W 6723  19.780   7.045  11.217
34998W        W 6724  14.932  25.468   2.861
34999W        W 6725  16.555  23.194   2.244
35000W        W 6726  27.597  20.558  12.100
35001W        W 6727  36.496  18.194  14.279
35002W        W 6728  21.009  10.604   3.236
35003W        W 6729  14.155  24.972   2.630
35004W        W 6730  17.562   0.817  14.458
35005W        W 6731  11.045  19.886   2.041
35006W        W 6732  34.680  12.928  13.053
35007W        W 6733  14.876  42.707   0.261
35008W        W 6734  26.151  33.025  12.570
35009W        W 6735  34.419  31.181  14.249
35010W        W 6736  42.085  26.059  11.155
35011W        W 6737  40.008   0.463  10.496
35012W        W 6738  14.200  18.668  12.129
35013W        W 6739  27.882  43.249   2.204
35014W        W 6740  33.151  31.182   0.283
35015W        W 6741   0.448   2.350  11.900
35016W        W 6742   3.674   3.771   1.276
35017W        W 6743  25.107  24.201   5.165
35018W        W 6744  19.525  20.550  12.180
35019W        W 6745   2.336  30.037  11.496
35020W        W 6746  29.019  17.234  10.920
35021W        W 6747  18.193  18.239  12.824
35022W        W 6748  13.428   7.874  10.800
35023W        W 6749  18.151   2.829   2.922
35024W        W 6750  23.988  32.743   1.807
35025W        W 6751  38.769   5.796  13.463
35026W        W 6752  31.598  25.574  10.215
35027W        W 6753  40.099  32.279  14.550
35028W        W 6754  29.201  30.594   0.227
35029W        W 6755  30.527  13.085   0.040
35030W        W 6756  24.975  18.360   4.765
35031W        W 6757  19.824  24.226   1.799
35032W        W 6758   4.843  44.404  12.214
35033W        W 6759  38.723  44.313   5.110
35034W        W 6760  38.406   6.252   1.810
35035W        W 6761  33.902  15.854   1.735
35036W        W 6762  18.109  43.914  11.507
35037W        W 6763  39.167   8.539  11.409
35038W        W 6764  39.519  25.108   1.108
35039W        W 6765  24.700  26.688   5.035
35040W        W 6766  25.611  25.015   5.107
35041W        W 6767  23.441  39.925  13.328
35042W        W 6768  13.545  17.795  11.119
35043W        W 6769   2.263  36.383   0.554
35044W        W 6770  22.498   2.283  11.551
35045W        W 6771  41.278  31.289   0.262
35046W        W 6772  24.710  28.478  10.689
35047W        W 6773  36.325  17.075  11.004
35048W        W 6774   4.549  39.550  12.083
35049W        W 6775   9.576  33.804  12.614
35050W        W 6776  28.741  13.172   4.686
35051W        W 6777  40.763  22.711  13.908
35052W        W 6778  13.717  36.958  10.690
35053W        W 6779  34.370   6.255   3.604
35054W        W 6780  28.981  13.634   1.410
35055W        W 6781  15.609  12.164   0.428
35056W        W 6782  27.105  14.115   3.059
35057W        W 6783  30.636  27.974   5.093
35058W        W 6784   2.362  14.934  12.403
35059W        W 6785  16.502  34.408   3.280
35060W        W 6786  38.139  41.356   4.735
35061W        W 6787  40.981  38.454   3.253
35062W        W 6788  35.189   8.578   0.493
35063W        W 6789   3.895  38.287   3.513
35064W        W 6790  38.060  13.924  10.784
35065W        W 6791  25.816  34.893   3.030
35066W        W 6792  25.628  19.253   5.159
35067W        W 6793  39.133   9.869   1.292
35068W        W 6794  10.690  18.536  13.012
35069W        W 6795   0.276   5.662   2.750
35070W        W 6796  26.132  22.798  12.506
35071W        W 6797  35.354  32.663  12.912
35072W        W 6798  29.879   0.774   4.178
35073W        W 6799  20.609  35.253   4.869
35074W        W 6800  29.889   8.825  13.915
35075W        W 6801  30.617  42.504   0.030
35076W        W 6802  31.510  43.706   2.842
35077W        W 6803  27.243  22.149   3.694
35078W        W 6804   8.713  21.769   3.865
35079W        W 6805  18.080  17.173  11.925
35080W        W 6806  41.220  36.396  13.793
35081W        W 6807  36.557  40.296   0.799
35082W        W 6808  10.430   9.828  14.306
35083W        W 6809  29.187   9.325  14.031
35084W        W 6810  33.350  19.207  14.874
35085W        W 6811  24.923   3.197  13.469
35086W        W 6812  18.584   4.769   1.910
35087W        W 6813  38.256  39.025  11.614
35088W        W 6814  42.536  18.618   1.718
35089W        W 6815   4.419  17.630   4.736
35090W        W 6816   0.160   7.465  11.485
35091W        W 6817   5.899  30.844  13.344
35092W        W 6818   8.125   0.871   1.946
35093W        W 6819  13.650  19.420   4.150
35094W        W 6820  12.315  37.795  12.150
35095W        W 6821   8.572   7.408   4.307
35096W        W 6822  38.381  28.214  10.597
35097W        W 6823  23.586  43.856   3.314
35098W        W 6824   9.197   8.679   5.154
35099W        W 6825  30.970   6.758   2.657
35100W        W 6826  37.335  14.253   0.126
35101W        W 6827   8.194  40.877   3.530
35102W        W 6828  35.368  24.076   0.894
35103W        W 6829  12.166  31.455   3.144
35104W        W 6830  20.541  40.982   2.923
35105W        W 6831  10.344  40.477  14.682
35106W        W 6832  31.601  17.535   2.769
35107W        W 6833   3.940  15.683  10.478
35108W        W 6834  25.136  22.054   0.359
35109W        W 6835  20.754  26.435  12.967
35110W        W 6836  15.867  22.777  11.079
35111W        W 6837  42.744  33.482  14.284
35112W        W 6838   3.948  44.481   2.730
35113W        W 6839  22.504  28.098   9.797
35114W        W 6840   3.726  12.940  13.551
35115W        W 6841  35.636  20.161  11.927
35116W        W 6842  24.922  10.694  11.734
35117W        W 6843  12.244  22.568   0.637
35118W        W 6844  14.445   7.306   0.114
35119W        W 6845  22.826  38.423  12.820
35120W        W 6846   1.472   6.453  14.431
35121W        W 6847  39.502  35.672   0.428
35122W        W 6848  38.897  43.847  10.232
35123W        W 6849  34.525  27.904  13.274
35124W        W 6850  31.099  23.150  11.256
35125W        W 6851  29.633  21.698   2.182
35126W        W 6852   3.450   6.184  13.252
35127W        W 6853  13.291  30.039  13.812
35128W        W 6854  29.840   1.122  13.749
35129W        W 6855  19.637  26.080   3.817
35130W        W 6856  19.020  12.360   0.448
35131W        W 6857  12.689  23.148  14.029
35132W        W 6858   8.620  38.984   0.069
35133W        W 6859  38.931  44.287   9.893
35134W        W 6860   3.884  19.110   3.715
35135W        W 6861  41.924   1.602  13.422
35136W        W 6862  36.615   3.383   0.652
35137W        W 6863   7.858  44.321  12.551
35138W        W 6864  16.045  41.400  13.812
35139W        W 6865  21.179   7.659   1.451
35140W        W 6866  35.873  11.194   1.403
35141W        W 6867   0.018   8.699  14.898
35142W        W 6868   7.782   6.400  10.585
35143W        W 6869  20.073  23.336   2.667
35144W        W 6870  15.902  17.050   0.344
35145W        W 6871  36.441  19.063  13.161
35146W        W 6872  16.309  42.246   2.782
35147W        W 6873  32.994  34.833  12.467
35148W        W 6874   9.911   3.508   1.803
35149W        W 6875  15.514  34.504  11.195
35150W        W 6876  22.070  12.771  12.944
35151W        W 6877  36.029  18.327   4.080
35152W        W 6878   7.937  41.951   4.851
35153W        W 6879  23.139  11.880   3.158
35154W        W 6880  19.292   6.849   1.396
35155W        W 6881  27.572   5.741   3.851
35156W        W 6882  15.586   8.144  13.437
35157W        W 6883  38.444   9.476  12.002
35158W        W 6884  40.294   0.824  13.859
35159W        W 6885  25.755  29.693  14.278
35160W        W 6886  26.440   5.813  12.899
35161W        W 6887  30.310  35.393  13.323
35162W        W 6888  16.980  41.458   1.774
35163W        W 6889  12.328  33.952  11.375
35164W        W 6890  22.529   7.933  11.626
35165W        W 6891  28.970  31.360   2.892
35166W        W 6892  30.360   4.793   1.509
35167W        W 6893  26.673   7.888  10.651
35168W        W 6894   8.384  36.962   0.888
35169W        W 6895  42.931  25.192  12.005
35170W        W 6896  18.756  37.862  12.943
35171W        W 6897  31.027  35.454   4.517
35172W        W 6898  29.022  15.655   0.492
35173W        W 6899  43.988  43.930   2.184
35174W        W 6900  41.809   3.771  14.505
35175W        W 6901  12.681  11.306  13.366
35176W        W 6902   1.827  20.143   1.257
35177W        W 6903  41.922  18.252  12.104
35178W        W 6904  17.742  33.019  11.154
35179W        W 6905  42.054  34.222  13.978
35180W        W 6906  41.086  33.448   0.421
35181W        W 6907   4.426  35.420  14.017
35182W        W 6908  20.795  38.898   3.657
35183W        W 6909   9.896  39.953   4.102
35184W        W 6910  29.556   3.228   1.651
35185W        W 6911   7.619  25.605   2.706
35186W        W 6912  21.000  36.072   4.599
35187W        W 6913  41.954  37.037   1.755
35188W        W 6914  34.557  11.911   1.667
35189W        W 6915  44.080  17.740  13.399
35190W        W 6916   4.388  43.347   3.224
35191W        W 6917  16.727  31.001   2.381
35192W        W 6918   8.297   7.087   0.001
35193W        W 6919  17.735  30.973  12.767
35194W        W 6920  39.768  34.824  13.313
35195W        W 6921   9.823   7.337   2.235
35196W        W 6922   1.813  39.081   0.940
35197W        W 6923  38.643  41.063   0.419
35198W        W 6924   1.982  31.972  13.678
35199W        W 6925   2.497  17.546  13.603
35200W        W 6926  27.725  35.143   4.428
35201W        W 6927  29.415  11.195   4.047
35202W        W 6928  29.483  26.606   0.782
35203W        W 6929   8.023  24.507  14.255
35204W        W 6930  12.335  25.356   0.030
35205W        W 6931   2.465  20.154  10.706
35206W        W 6932   5.358  20.973   1.050
35207W        W 6933   4.389  27.004   0.754
35208W        W 6934  40.804  36.842   0.214
35209W        W 6935  42.102  25.963  12.866
35210W        W 6936  21.097  19.377   4.286
35211W        W 6937  31.190   6.412   0.352
35212W        W 6938  15.097  34.486  14.813
35213W        W 6939  37.718   9.287   4.972
35214W        W 6940   1.897  26.231   2.278
35215W        W 6941  29.697  34.942   0.326
35216W        W 6942  22.218  13.652  14.268
35217W        W 6943  12.049  31.372   1.269
35218W        W 6944   5.747  16.691   4.307
35219W        W 6945   9.438  37.923  13.891
35220W        W 6946   8.477  28.987  13.418
35221W        W 6947  40.826  33.470   4.539
35222W        W 6948  16.738  44.948   4.274
35223W        W 6949  30.641  11.548   2.282
35224W        W 6950   5.404  44.043  10.689
35225W        W 6951  12.626  24.133  14.013
35226W        W 6952   9.244  23.527  14.420
35227W        W 6953  11.682  18.522  13.274
35228W        W 6954  15.168   8.358  13.748
35229W        W 6955   5.794  32.860   0.775
35230W        W 6956  30.635  31.331  13.648
35231W        W 6957   3.957  43.316  10.691
35232W        W 6958   2.808  44.353  11.690
35233W        W 6959  26.764  21.130   3.638
35234W        W 6960   7.288  39.280  12.401
35235W        W 6961  28.444  16.230   0.063
35236W        W 6962  13.412  28.245  11.067
35237W        W 6963  33.109  13.578  13.806
35238W        W 6964   3.287  21.523   4.532
35239W        W 6965   4.648  18.299   5.278
35240W        W 6966  29.635  42.440  12.828
35241W        W 6967  23.148  29.086  13.014
35242W        W 6968  32.958  40.066   1.222
35243W        W 6969   6.495   0.007  10.728
35244W        W 6970  28.808  26.424   2.740
35245W        W 6971  16.727  16.891  11.600
35246W        W 6972  33.413  20.991  13.033
35247W        W 6973  19.540  37.447   4.431
35248W        W 6974  15.564  33.315   1.810
35249W        W 6975   9.387   7.902  13.413
35250W        W 6976  36.407   8.184  10.956
35251W        W 6977  44.504  24.289   3.216
35252W        W 6978  20.700   2.345  12.212
35253W        W 6979  12.671  40.955  11.555
35254W        W 6980  21.094   5.626   4.393
35255W        W 6981  21.539  25.205   1.691
35256W        W 6982   3.895  28.101  11.313
35257W        W 6983  10.865  29.583  11.625
35258W        W 6984  43.437  22.078  12.560
35259W        W 6985  37.822  28.131  14.935
35260W        W 6986   8.598  17.168  10.532
35261W        W 6987  29.692  23.748   4.233
35262W        W 6988   2.785  25.977   2.431
35263W        W 6989   3.413   2.085   2.258
35264W        W 6990  16.070  26.463   2.394
35265W        W 6991  40.260  42.942  10.658
35266W        W 6992  14.644  13.820   2.304
35267W        W 6993  19.187   5.640  11.018
35268W        W 6994  44.403  32.822  12.753
35269W        W 6995  15.164  14.652  10.629
35270W        W 6996   4.929  29.555  12.976
35271W        W 6997  36.614  15.046  13.759
35272W        W 6998  11.120   3.513   1.359
35273W        W 6999  20.642  23.992  11.845
35274W        W 7000  41.844  13.431   1.295
35275W        W 7001  22.624  25.106   0.186
35276W        W 7002  29.119   7.352   4.078
35277W        W 7003   3.783  17.248  11.121
35278W        W 7004  27.034   5.353  14.335
35279W        W 7005  15.646  13.032  11.033
35280W        W 7006  24.967  35.444  14.748
35281W        W 7007  17.688  41.578  13.415
35282W        W 7008  39.584  38.856   0.944
35283W        W 7009  19.326  33.131   4.164
35284W        W 7010   9.313  38.395   3.375
35285W        W 7011   9.361  33.324  13.793
35286W        W 7012  42.804  11.657   4.595
35287W        W 7013  18.052  22.600   0.270
35288W        W 7014  15.052   8.346   1.472
35289W        W 7015  33.068  32.692  14.916
35290W        W 7016  36.869   0.233   3.906
35291W        W 7017  23.609  37.060  12.941
35292W        W 7018  28.979  33.560   4.183
35293W        W 7019  21.725  15.685  12.213
35294W        W 7020  21.551   4.894   1.670
35295W        W 7021  21.002  30.575   2.435
35296W        W 7022  29.561   0.326   4.184
35297W        W 7023  26.534  17.232   2.181
35298W        W 7024  23.050  18.170  10.986
35299W        W 7025  24.531  32.622  13.052
35300W        W 7026   1.068  33.038   4.223
35301W        W 7027   0.894  39.384  11.418
35302W        W 7028  44.406   9.411   3.502
35303W        W 7029  18.734  43.357   3.450
35304W        W 7030  17.019  31.662   2.986
35305W        W 7031   5.176   2.047   4.053
35306W        W 7032   9.723  11.677  14.523
35307W        W 7033  28.094  12.929   3.232
35308W        W 7034  28.934  29.994  10.727
35309W        W 7035  27.114  10.944  11.432
35310W        W 7036  27.882   3.863  13.834
35311W        W 7037  37.490  12.293   4.593
35312W        W 7038  13.628  33.442   3.829
35313W        W 7039  14.192  22.479  13.923
35314W        W 7040  15.148   6.719  10.647
35315W        W 7041  39.332  33.902   3.133
35316W        W 7042  30.952  17.667   3.103
35317W        W 7043   5.379  10.521   2.294
35318W        W 7044   1.438  38.576  10.710
35319W        W 7045  24.908  34.385  14.050
35320W        W 7046  21.255  10.853   0.828
35321W        W 7047   7.360  18.853  13.219
35322W        W 7048   9.719   7.681  11.684
35323W        W 7049  39.574  17.247  11.209
35324W        W 7050   0.595  30.415  10.618
35325W        W 7051   4.879  20.672   2.881
35326W        W 7052   4.178  18.260   3.403
35327W        W 7053  27.474  13.772   1.370
35328W        W 7054  44.980  19.139  12.435
35329W        W 7055  27.500  35.567   3.503
35330W        W 7056  23.445  12.965   0.210
35331W        W 7057   4.817  35.883  10.594
35332W        W 7058  42.864  43.230  13.524
35333W        W 7059  32.196  31.421  14.445
35334W        W 7060  31.295  28.935   3.709
35335W        W 7061  12.487   1.365  13.113
35336W        W 7062  29.178   8.646  12.009
35337W        W 7063  38.155  14.364  12.772
35338W        W 7064   2.993  11.532   1.405
35339W        W 7065  37.893  20.298  11.129
35340W        W 7066  33.215  37.533   2.776
35341W        W 7067   9.832  22.582   3.704
35342W        W 7068  17.600  10.327   1.476
35343W        W 7069  25.988  18.925  10.718
35344W        W 7070  26.139  17.393   1.249
35345W        W 7071   6.609  40.417  13.176
35346W        W 7072  39.097  42.369  13.413
35347W        W 7073   2.809   8.975  11.998
35348W        W 7074  33.908  21.274   0.841
35349W        W 7075  26.893   4.111   3.752
35350W        W 7076  24.059  11.607  10.013
35351W        W 7077  13.859  35.190  11.686
35352W        W 7078  26.483  38.292   3.726
35353W        W 7079   5.667  37.904  13.308
35354W        W 7080  29.535  28.654   4.563
35355W        W 7081  27.133  38.123  12.119
35356W        W 7082  15.237  42.638   1.425
35357W        W 7083   6.910  39.515  10.789
35358W        W 7084   4.185  28.692   1.469
35359W        W 7085  36.455  34.172   0.854
35360W        W 7086  31.633  15.216  12.730
35361W        W 7087  42.306  44.925  12.061
35362W        W 7088  41.501   2.160  11.268
35363W        W 7089   0.890  23.292  12.992
35364W        W 7090  43.253  42.078  10.664
35365W        W 7091  36.905  25.589  13.873
35366W        W 7092  20.104  30.132   2.609
35367W        W 7093  17.777  30.506   4.676
35368W        W 7094  32.474  10.589   0.644
35369W        W 7095  32.124  42.034   2.886
35370W        W 7096  36.965  30.386   1.898
35371W        W 7097  38.961  34.114  12.182
35372W        W 7098  32.945   9.568  14.410
35373W        W 7099  18.071   7.458   1.122
35374W        W 7100  16.804  29.862   2.204
35375W        W 7101   6.905   7.949   4.285
35376W        W 7102  44.451   2.977  12.186
35377W        W 7103  11.808  12.513  12.568
35378W        W 7104  13.739  34.382  11.996
35379W        W 7105  26.967   0.985   3.390
35380W        W 7106   0.839  18.155   2.795
35381W        W 7107   6.359  12.630  13.302
35382W        W 7108  39.829  44.111  13.078
35383W        W 7109  11.629  41.301   1.873
35384W        W 7110   5.948  32.182   5.052
35385W        W 7111  17.344  28.730   0.820
35386W        W 7112  10.506  25.696   9.710
35387W        W 7113  35.097   0.702   3.073
35388W        W 7114   4.511  15.845   2.395
35389W        W 7115  10.186  43.034   4.266
35390W        W 7116   8.217  34.309  12.683
35391W        W 7117  37.606   6.918  12.970
35392W        W 7118  25.192  20.842   2.279
35393W        W 7119  37.179  35.499  12.341
35394W        W 7120  11.666  27.610   1.945
35395W        W 7121  25.373  24.283  13.961
35396W        W 7122   3.299  13.400  10.681
35397W        W 7123  19.249  41.758   2.345
35398W        W 7124  21.114   6.499   5.053
35399W        W 7125  10.893   7.191  11.670
35400W        W 7126  10.837  12.185   3.251
35401W        W 7127  14.788   8.104  14.609
35402W        W 7128  23.443   5.179   1.121
35403W        W 7129  11.181  41.512   0.308
35404W        W 7130   6.258   1.134   4.839
35405W        W 7131  31.528  20.322  14.645
35406W        W 7132  32.462  16.537  14.995
35407W        W 7133  17.348  25.270  13.801
35408W        W 7134  23.705  19.288  12.593
35409W        W 7135   0.031  16.679   0.952
35410W        W 7136   5.378  18.211  13.948
35411W        W 7137  39.522   8.729  14.553
35412W        W 7138   7.716  37.563  12.133
35413W        W 7139  10.350  12.937  11.030
35414W        W 7140  37.340  23.626  10.849
35415W        W 7141  33.488   2.378  12.939
35416W        W 7142  26.389  15.088   1.935
35417W        W 7143   5.468   2.483   4.029
35418W        W 7144  33.430  40.883   4.158
35419W        W 7145  22.745  33.214   4.066
35420W        W 7146  43.800   9.835   1.401
35421W        W 7147  42.735   5.414  12.550
35422W        W 7148  14.146   6.142  11.679
35423W        W 7149   1.723  41.051   0.868
35424W        W 7150  35.807  41.896   4.808
35425W        W 7151  41.854   5.136   2.179
35426W        W 7152   3.315  23.603   1.411
35427W        W 7153  39.133  14.786   2.080
35428W        W 7154  40.920  18.048   0.052
35429W        W 7155  40.441   7.451  10.628
35430W        W 7156  13.198  36.955   2.940
35431W        W 7157  19.643  36.036   0.915
35432W        W 7158  10.286  40.372  12.058
35433W        W 7159  18.970   2.931  12.536
35434W        W 7160  11.756  43.530  13.828
35435W        W 7161  18.778  13.341  11.149
35436W        W 7162  33.571   5.530   9.846
35437W        W 7163  37.982  29.528   1.844
35438W        W 7164  38.844  15.622   4.105
35439W        W 7165   6.228   9.624  14.015
35440W        W 7166  18.134  14.324   2.658
35441W        W 7167  28.411  17.588   3.169
35442W        W 7168  34.671  27.202  11.436
35443W        W 7169  43.706  13.724  12.409
35444W        W 7170   7.637  31.546   0.803
35445W        W 7171  34.558  17.348   2.658
35446W        W 7172  16.422  34.128  14.770
35447W        W 7173   2.753  26.424  11.767
35448W        W 7174  41.248  24.221  14.475
35449W        W 7175  39.525  24.030  13.511
35450W        W 7176   9.959  33.623   4.096
35451W        W 7177  24.012  21.496   3.226
35452W        W 7178   7.449  40.141  13.603
35453W        W 7179  25.123   9.348  12.396
35454W        W 7180  18.205  38.776  14.425
35455W        W 7181  28.227  18.972  11.155
35456W        W 7182   1.645  26.430  13.766
35457W        W 7183  37.791  43.998  13.836
35458W        W 7184  11.340   9.169  13.915
35459W        W 7185  26.075  44.057   4.302
35460W        W 7186  24.524  10.889   4.761
35461W        W 7187  25.972   4.792  13.410
35462W        W 7188  14.595  28.396   1.719
35463W        W 7189  26.626  32.466   0.196
35464W        W 7190  25.088  28.123   2.505
35465W        W 7191  20.767  12.604  12.551
35466W        W 7192  13.035  29.565  11.121
35467W        W 7193  22.133  34.092  11.189
35468W        W 7194  37.101  34.442   4.124
35469W        W 7195  14.573  35.169  13.792
35470W        W 7196   5.798  17.286  11.053
35471W        W 7197  35.340   3.479   2.174
35472W        W 7198  14.120  44.177   3.253
35473W        W 7199  34.950  26.167  14.373
35474W        W 7200  33.590  16.659   3.766
35475W        W 7201  16.356  26.631  13.293
35476W        W 7202  39.794  32.450  12.045
35477W        W 7203  39.539  37.711  12.955
35478W        W 7204   0.348  24.513  12.615
35479W        W 7205  38.888   3.944  10.676
35480W        W 7206  44.301   8.463   0.423
35481W        W 7207  27.431  26.419  11.822
35482W        W 7208  39.494  40.003   3.986
35483W        W 7209   3.715  25.420  14.960
35484W        W 7210   6.757  14.268  10.549
35485W        W 7211   9.530  27.796  13.880
35486W        W 7212  34.855  21.617   4.342
35487W        W 7213  10.139  13.390  11.554
35488W        W 7214  25.480  43.658   3.675
35489W        W 7215  17.137  33.151  12.951
35490W        W 7216  26.158  31.070  10.724
35491W        W 7217  35.041  35.002  11.212
35492W        W 7218  29.129  27.341   0.599
35493W        W 7219  26.063  29.494   2.334
35494W        W 7220  36.360  32.900   3.284
35495W        W 7221  34.101   8.095   1.734
35496W        W 7222   2.427  18.146  11.185
35497W        W 7223  38.126  16.750   1.442
35498W        W 7224  32.711   5.459   1.026
35499W        W 7225  38.876  15.525   0.303
35500W        W 7226  42.361  10.143  13.892
35501W        W 7227  17.218  36.607  13.840
35502W        W 7228   2.254   7.157  10.740
35503W        W 7229  20.168  10.362  10.675
35504W        W 7230   1.965  20.293  14.455
35505W        W 7231  19.337  34.508   2.797
35506W        W 7232  44.990  16.322  12.669
35507W        W 7233   1.395  40.308   0.878
35508W        W 7234  17.541  14.318   4.838
35509W        W 7235  11.142  20.629  14.340
35510W        W 7236  13.626  24.277  11.910
35511W        W 7237  10.261  15.490   0.215
35512W        W 7238   9.028   5.043   0.297
35513W        W 7239  30.124   7.293  12.808
35514W        W 7240  39.768  40.286   1.747
35515W        W 7241  35.452  23.713   3.634
35516W        W 7242  29.044   1.549  10.698
35517W        W 7243  40.699  44.875   2.721
35518W        W 7244  20.013  32.185  14.400
35519W        W 7245  20.066  21.521   2.433
35520W        W 7246  36.847  28.474   1.922
35521W        W 7247  33.110  36.035   0.869
35522W        W 7248  38.604  15.875  11.558
35523W        W 7249   2.939   4.800   1.422
35524W        W 7250  42.539  38.915   3.742
35525W        W 7251  25.595  12.378  14.570
35526W        W 7252   9.899  18.555   4.208
35527W        W 7253  21.780  24.044  12.066
35528W        W 7254  13.656   6.672  12.910
35529W        W 7255  13.794   7.484  10.770
35530W        W 7256  42.839  24.619   2.473
35531W        W 7257  38.781  39.971  13.407
35532W        W 7258  32.320  33.085   4.059
35533W        W 7259  34.632   1.868   4.678
35534W        W 7260  41.650   5.734  13.393
35535W        W 7261  41.747  25.608  13.019
35536W        W 7262  14.927   9.755  14.720
35537W        W 7263  23.683  32.882  13.039
35538W        W 7264  12.754  20.044   1.838
35539W        W 7265  16.892  11.687  12.553
35540W        W 7266  33.484  36.277  11.626
35541W        W 7267   1.209  26.587  13.470
35542W        W 7268  17.960  21.902   2.918
35543W        W 7269  32.607  27.623   1.799
35544W        W 7270  10.026  25.629  11.581
35545W        W 7271  25.232  33.610   3.917
35546W        W 7272  33.317  15.120  12.143
35547W        W 7273  37.424   3.865  12.848
35548W        W 7274  21.400   2.363  13.371
35549W        W 7275  40.594  23.673   3.667
35550W        W 7276   6.765  37.221   2.797
35551W        W 7277  26.102  42.944   2.193
35552W        W 7278  25.326  38.108  12.198
35553W        W 7279  20.731  21.234  13.480
35554W        W 7280   8.948  11.561  13.841
35555W        W 7281  42.784  27.170   3.345
35556W        W 7282   8.559  33.941  12.524
35557W        W 7283  44.413  16.429   9.843
35558W        W 7284  29.584   9.729   4.221
35559W        W 7285   9.412  44.250   1.724
35560W        W 7286  20.838  39.886   1.279
35561W        W 7287  19.106  36.948   4.484
35562W        W 7288  17.305  21.197  13.968
35563W        W 7289  43.239  25.618   0.851
35564W        W 7290   3.241  19.991  14.091
35565W        W 7291   5.724  20.746   1.983
35566W        W 7292  20.795  38.385   3.753
35567W        W 7293   2.787  39.754   4.727
35568W        W 7294  36.949  19.047   4.428
35569W        W 7295  15.800  40.156  14.383
35570W        W 7296  24.143  38.779   4.340
35571W        W 7297  26.819  21.684  11.244
35572W        W 7298  14.266   1.744  14.428
35573W        W 7299   3.422  15.753  10.571
35574W        W 7300  33.414  39.508   2.232
35575W        W 7301  14.797  10.729   3.708
35576W        W 7302   1.750  11.713   1.305
35577W        W 7303  42.545  39.366  14.771
35578W        W 7304  10.711  15.533  14.246
35579W        W 7305  28.334   3.942   4.258
35580W        W 7306  39.605  28.888  13.387
35581W        W 7307  31.090   2.740   4.259
35582W        W 7308   4.008   6.531   3.710
35583W        W 7309  27.669  35.689   2.717
35584W        W 7310  38.952   7.934   2.757
35585W        W 7311  12.805  17.496   0.799
35586W        W 7312  17.980  11.075   4.066
35587W        W 7313   9.501  25.730   3.209
35588W        W 7314   6.750  12.287  13.345
35589W        W 7315  32.451   0.855   2.179
35590W        W 7316  18.781  14.820   3.118
35591W        W 7317  22.651  33.951   2.287
35592W        W 7318  11.170  44.459  13.330
35593W        W 7319   4.955  26.473   1.349
35594W        W 7320  34.038  40.940   3.696
35595W        W 7321  21.262  10.838   2.741
35596W        W 7322  35.504  44.741  12.391
35597W        W 7323  42.977  36.800  13.936
35598W        W 7324  38.426  10.345   2.943
35599W        W 7325  39.285  17.266   3.275
35600W        W 7326  27.973  34.368  11.444
35601W        W 7327  39.920  12.123  10.398
35602W        W 7328  22.428  17.226   1.717
35603W        W 7329   1.986  40.744   3.942
35604W        W 7330   0.670  36.296   4.555
35605W        W 7331  38.974  26.333  12.952
35606W        W 7332   6.562  35.420  12.979
35607W        W 7333  35.978  35.401  14.701
35608W        W 7334   4.891   5.395   1.949
35609W        W 7335  34.029  36.898   4.884
35610W        W 7336  14.001  33.130   2.228
35611W        W 7337  42.765  42.763   4.604
35612W        W 7338  14.962  31.008  14.970
35613W        W 7339  39.425  30.938   2.607
35614W        W 7340   9.058  43.555   3.701
35615W        W 7341   5.756  28.087  12.986
35616W        W 7342  37.110  25.085  13.975
35617W        W 7343  42.411  24.675  12.569
35618W        W 7344  16.544   3.186   4.664
35619W        W 7345  16.076  29.541   0.246
35620W        W 7346  34.943  16.345  12.361
35621W        W 7347  26.883  32.671   1.787
35622W        W 7348  11.735  10.964  10.286
35623W        W 7349   6.220  12.597   1.008
35624W        W 7350  32.308  43.075   3.700
35625W        W 7351  13.150  28.205   2.675
35626W        W 7352  36.287   9.108  13.047
35627W        W 7353  19.576  36.520  11.589
35628W        W 7354  14.209  44.739  12.085
35629W        W 7355  16.644   4.816   3.776
35630W        W 7356  14.622  14.872  14.301
35631W        W 7357  33.108  20.589   1.742
35632W        W 7358  19.171  28.799  14.693
35633W        W 7359  15.157   5.248  10.611
35634W        W 7360  29.059  11.686   1.821
35635W        W 7361  36.275   8.135   2.370
35636W        W 7362  27.155  38.571   3.025
35637W        W 7363  26.565  27.424  11.111
35638W        W 7364  31.955  18.115  11.390
35639W        W 7365  24.057  20.999  14.675
35640W        W 7366  13.587  20.354   1.046
35641W        W 7367  25.160  29.330   2.482
35642W        W 7368  36.970   8.704   0.910
35643W        W 7369  13.182   2.722   3.158
35644W        W 7370  30.674   6.395   3.604
35645W        W 7371  35.463  16.706  13.865
35646W        W 7372  17.258  30.521   1.629
35647W        W 7373  18.605  40.896  11.600
35648W        W 7374  15.348  41.934  12.454
35649W        W 7375  37.881  41.009   0.916
35650W        W 7376  15.935   8.861  11.971
35651W        W 7377  16.453  37.141   5.155
35652W        W 7378   2.334  33.094   1.352
35653W        W 7379  42.317   7.721   1.176
35654W        W 7380  20.739  17.803  14.322
35655W        W 7381   0.124  18.322  11.718
35656W        W 7382  40.327  41.080  14.875
35657W        W 7383  29.263  44.493   3.271
35658W        W 7384  19.635   8.177   2.786
35659W        W 7385  18.067  12.892   3.588
35660W        W 7386  12.176  18.807   4.507
35661W        W 7387  16.030  16.914  10.172
35662W        W 7388   2.769  27.418  12.063
35663W        W 7389   8.230   0.060   1.388
35664W        W 7390  10.043  26.436  10.086
35665W        W 7391   7.116  44.276   2.803
35666W        W 7392   9.197  24.239  12.895
35667W        W 7393  14.246  32.044   1.734
35668W        W 7394  37.647  16.321  12.557
35669W        W 7395   1.942  27.717  12.370
35670W        W 7396  31.410  20.639   2.317
35671W        W 7397   7.584  30.517  13.469
35672W        W 7398  19.831  33.878   2.355
35673W        W 7399  17.701  34.719   4.637
35674W        W 7400  14.678  40.236  11.104
35675W        W 7401  44.797  37.172   2.400
35676W        W 7402  20.973   9.083  11.106
35677W        W 7403   3.783  32.161  14.856
35678W        W 7404  11.264  23.787  11.041
35679W        W 7405  23.077  43.684  11.823
35680W        W 7406   9.283  20.312  13.845
35681W        W 7407   7.584  27.440   4.164
35682W        W 7408  38.033  38.199   2.148
35683W        W 7409   7.071  10.586  10.718
35684W        W 7410  26.659  25.925   1.817
35685W        W 7411   9.660  18.647   1.186
35686W        W 7412   2.714  15.329   4.131
35687W        W 7413  15.021  32.601  11.189
35688W        W 7414  41.632   0.885   1.829
35689W        W 7415   3.018  21.600  11.653
35690W        W 7416  27.711  34.784   0.483
35691W        W 7417  14.751  33.022   4.685
35692W        W 7418  38.347   6.934  14.139
35693W        W 7419  23.236   1.170   4.295
35694W        W 7420  39.471  34.632   1.939
35695W        W 7421  29.516   4.948  10.362
35696W        W 7422  39.729  35.042  10.703
35697W        W 7423  36.792  18.392   2.805
35698W        W 7424  18.115  40.886  11.479
35699W        W 7425  28.474  32.560   1.164
35700W        W 7426  27.003   9.816   2.856
35701W        W 7427  11.061   8.313  10.499
35702W        W 7428   1.933  14.411  10.695
35703W        W 7429  12.726   1.301  14.854
35704W        W 7430  17.791  25.990  10.391
35705W        W 7431   4.334  40.463   2.892
35706W        W 7432  34.780  28.699  13.397
35707W        W 7433   3.526  24.556  13.952
35708W        W 7434  36.930   0.281  12.976
35709W        W 7435  23.503  21.820  10.797
35710W        W 7436  33.062  15.277   4.278
35711W        W 7437  38.547  15.557  10.677
35712W        W 7438  12.316  18.065  10.680
35713W        W 7439   8.251  27.145   2.613
35714W        W 7440  34.280  43.292   4.532
35715W        W 7441  15.999  28.037  10.335
35716W        W 7442   4.315   8.915   4.723
35717W        W 7443  24.174  26.566   4.925
35718W        W 7444   6.462  11.839  12.706
35719W        W 7445  33.933  23.395   3.665
35720W        W 7446  34.836   1.014  11.531
35721W        W 7447   9.042  23.063  14.345
35722W        W 7448  31.485  24.890  14.730
35723W        W 7449   8.847  43.434   1.509
35724W        W 7450  27.470  35.016  14.580
35725W        W 7451  20.154  13.329   1.347
35726W        W 7452  19.133  31.586  14.792
35727W        W 7453  38.347  36.513   4.346
35728W        W 7454   4.620  22.204   0.894
35729W        W 7455  43.964   9.774   0.816
35730W        W 7456   3.831  41.989  11.956
35731W        W 7457  24.076  44.087  10.582
35732W        W 7458  24.971  34.886  13.893
35733W        W 7459  38.292   0.556   1.246
35734W        W 7460  41.854   2.733   1.909
35735W        W 7461  36.415  44.197  10.742
35736W        W 7462  22.631  41.951  11.552
35737W        W 7463  39.996  14.183   3.237
35738W        W 7464   8.133  33.119   1.709
35739W        W 7465  27.785   7.168   1.873
35740W        W 7466   5.372  32.236   5.003
35741W        W 7467  43.340   1.544   1.831
35742W        W 7468  16.398   6.762  13.971
35743W        W 7469  21.048  17.174  14.912
35744W        W 7470   6.379  13.083  13.984
35745W        W 7471   8.485   4.496  13.971
35746W        W 7472  16.571  18.109   3.624
35747W        W 7473  28.704  44.912  11.529
35748W        W 7474   9.345  21.189  13.177
35749W        W 7475  41.050   8.283   4.066
35750W        W 7476  24.540  30.846   1.918
35751W        W 7477  41.233  27.081   4.564
35752W        W 7478   1.762  35.113   1.887
35753W        W 7479  10.155  40.059   0.729
35754W        W 7480  14.649  15.902  10.327
35755W        W 7481  12.800  14.590  12.807
35756W        W 7482   4.244  11.057   3.597
35757W        W 7483  25.537   6.333   2.711
35758W        W 7484  15.018  35.980  13.415
35759W        W 7485  39.332   0.869  12.560
35760W        W 7486  23.235  44.106  13.344
35761W        W 7487   2.784  32.372   1.097
35762W        W 7488  40.847   6.779   3.161
35763W        W 7489  16.519  15.601  14.520
35764W        W 7490  40.340   8.227   1.392
35765W        W 7491  26.980  16.383   3.827
35766W        W 7492  15.289  38.951  10.202
35767W        W 7493  31.113  36.699   3.968
35768W        W 7494  39.593  34.389   4.512
35769W        W 7495  10.078  25.045  11.549
35770W        W 7496  41.750  41.519   0.788
35771W        W 7497  35.277  33.522   1.255
35772W        W 7498  20.668   3.655  14.904
35773W        W 7499  24.541  28.977   3.598
35774W        W 7500  18.245  33.580   4.353
35775W        W 7501  28.996  33.031  14.963
35776W        W 7502   7.809  43.228   2.323
35777W        W 7503   3.281   7.731   3.145
35778W        W 7504  32.364  21.255  10.839
35779W        W 7505  30.100   2.944   3.719
35780W        W 7506  36.409  38.502   4.083
35781W        W 7507  34.886  35.867   3.084
35782W        W 7508  38.290   4.905   3.202
35783W        W 7509  29.567  15.192  13.225
35784W        W 7510  37.359   6.695  11.697
35785W        W 7511  29.505  33.967   4.864
35786W        W 7512  33.572  32.544  13.446
35787W        W 7513  24.681  22.079   3.679
35788W        W 7514   2.829  34.371   0.969
35789W        W 7515  19.248  39.947   1.787
35790W        W 7516  36.984  42.545  10.698
35791W        W 7517  15.408  43.791   0.773
35792W        W 7518  12.628  28.441  12.986
35793W        W 7519   7.267  20.111   0.732
35794W        W 7520   0.627  24.655   3.898
35795W        W 7521  21.111  40.138  11.920
35796W        W 7522  23.851  41.345   1.441
35797W        W 7523  38.241  20.213   0.829
35798W        W 7524   3.908  23.482   0.855
35799W        W 7525  32.027  22.475   2.646
35800W        W 7526   6.506  31.375   1.869
35801W        W 7527   3.317   8.737  11.399
35802W        W 7528  16.253  38.746  13.390
35803W        W 7529  30.954   9.786   0.397
35804W        W 7530  17.584  41.349   4.934
35805W        W 7531  13.370  41.525   1.314
35806W        W 7532  37.425  15.155  10.472
35807W        W 7533  44.877  39.816   2.542
35808W        W 7534   0.511  44.709  10.111
35809W        W 7535  24.788   2.807   1.701
35810W        W 7536  25.061  43.969  11.538
35811W        W 7537   1.526  19.042   4.644
35812W        W 7538  34.625  43.548  12.979
35813W        W 7539  37.369   0.033  10.850
35814W        W 7540  19.993  35.491  14.750
35815W        W 7541   3.046  27.022  11.873
35816W        W 7542  35.480  20.132  10.613
35817W        W 7543  15.239  37.461   0.178
35818W        W 7544   4.060  40.468  14.543
35819W        W 7545  28.665  41.045   2.356
35820W        W 7546  22.269  11.791   3.201
35821W        W 7547  11.978  14.286  11.962
35822W        W 7548  10.652  24.165  14.678
35823W        W 7549  32.973  12.074   3.987
35824W        W 7550  32.823  30.420   1.475
35825W        W 7551  19.452  24.546   0.742
35826W        W 7552  16.103  10.317  13.656
35827W        W 7553  32.090  34.057  14.310
35828W        W 7554   1.834  37.047  13.403
35829W        W 7555  37.538  32.657   4.895
35830W        W 7556   0.355  31.021  13.812
35831W        W 7557   6.156  26.802   0.699
35832W        W 7558   5.249  21.200  10.700
35833W        W 7559  14.787  12.566   4.163
35834W        W 7560   9.150   2.453   0.821
35835W        W 7561  21.279  34.663   0.219
35836W        W 7562   2.981  14.678   1.843
35837W        W 7563  36.361  10.939  10.800
35838W        W 7564   9.725  32.005  11.984
35839W        W 7565  29.940  35.812  10.714
35840W        W 7566  11.072  39.954  14.936
35841W        W 7567  25.015  36.526   1.907
35842W        W 7568  27.761  25.844   1.631
35843W        W 7569   9.126  13.905  14.219
35844W        W 7570  39.174  19.562   5.037
35845W        W 7571  33.968  18.172  11.576
35846W        W 7572  39.333   7.329   0.297
35847W        W 7573  39.788  18.019   4.104
35848W        W 7574  38.765  14.810  14.234
35849W        W 7575  39.269  23.000   2.384
35850W        W 7576  33.221  12.235   0.320
35851W        W 7577  19.294  29.547   2.525
35852W        W 7578  42.303   8.391   0.424
35853W        W 7579  22.994  39.460   1.400
35854W        W 7580  34.416  15.784  14.059
35855W        W 7581  30.937  42.516   0.994
35856W        W 7582  27.561   6.703   2.785
35857W        W 7583  22.950  34.393  13.773
35858W        W 7584  38.902   3.000  14.759
35859W        W 7585   0.309  17.138  10.781
35860W        W 7586   9.340  26.928  12.383
35861W        W 7587  25.212  24.352   0.334
35862W        W 7588  38.569  25.444   3.763
35863W        W 7589  35.578  30.062   1.075
35864W        W 7590  43.538  17.842  12.460
35865W        W 7591  33.084  20.234   2.254
35866W        W 7592  16.605  27.104   4.665
35867W        W 7593  41.728  20.574   2.855
35868W        W 7594   6.109  21.632   1.806
35869W        W 7595  32.362  24.386  14.891
35870W        W 7596   9.319  39.735   3.852
35871W        W 7597  10.014  24.990  10.680
35872W        W 7598  25.595  40.088   4.569
35873W        W 7599  43.473  23.716   0.218
35874W        W 7600  19.725   5.652   9.852
35875W        W 7601  31.742  33.287   0.883
35876W        W 7602  19.283  41.596   3.813
35877W        W 7603  12.702  30.708  13.388
35878W        W 7604  29.675  24.086   0.855
35879W        W 7605  41.094   2.405  12.918
35880W        W 7606   4.176  43.422   0.487
35881W        W 7607  22.727  40.456  10.762
35882W        W 7608   8.800  16.095  14.986
35883W        W 7609  11.549  21.375   5.079
35884W        W 7610  23.497  31.495  13.024
35885W        W 7611  12.156   6.404   2.706
35886W        W 7612  31.498  30.831  11.107
35887W        W 7613  34.821  14.660  14.467
35888W        W 7614  12.693  23.352   0.278
35889W        W 7615  36.557  20.069  10.418
35890W        W 7616  43.498  10.341   1.806
35891W        W 7617  35.152  35.618   1.790
35892W        W 7618  22.756  10.628  11.856
35893W        W 7619  33.919  31.369  13.427
35894W        W 7620  40.112  21.094  11.105
35895W        W 7621  12.821  28.472  12.064
35896W        W 7622  18.617   2.465  14.863
35897W        W 7623  35.148  36.388   3.812
35898W        W 7624  27.929  36.215   2.681
35899W        W 7625  11.541  36.112  12.127
35900W        W 7626  25.652  22.102  11.682
35901W        W 7627  15.447  39.912   3.177
35902W        W 7628  18.566  24.161  13.420
35903W        W 7629  23.591   7.403  12.856
35904W        W 7630  35.620  27.616  12.654
35905W        W 7631  21.018  40.731  11.098
35906W        W 7632   0.450  44.265  11.909
35907W        W 7633  24.572   3.687   1.927
35908W        W 7634   2.452  41.481  12.022
35909W        W 7635  13.768   6.270   3.616
35910W        W 7636  41.904  12.293  14.417
35911W        W 7637   6.229  32.829  14.872
35912W        W 7638  38.397   0.804  11.055
35913W        W 7639   5.856   1.811  12.463
35914W        W 7640  36.904   3.043  14.182
35915W        W 7641  19.668  34.118   1.908
35916W        W 7642  28.963  17.116   2.272
35917W        W 7643  12.253  26.216  11.040
35918W        W 7644  33.440  31.209  14.116
35919W        W 7645  34.355  42.951  11.125
35920W        W 7646   9.649   4.377  11.597
35921W        W 7647  14.033  24.529   3.193
35922W        W 7648   4.886  23.157  12.595
35923W        W 7649  11.200  16.287  13.593
35924W        W 7650  35.756  33.972  14.755
35925W        W 7651  11.644  11.640   3.883
35926W        W 7652  11.603  39.214  12.380
35927W        W 7653  17.767  36.871  13.035
35928W        W 7654  24.684  32.995   4.366
35929W        W 7655  33.438  34.444   3.044
35930W        W 7656  16.592  26.467   4.064
35931W        W 7657   8.307  10.600   3.351
35932W        W 7658  30.008  20.332   1.202
35933W        W 7659  25.098  39.347  10.633
35934W        W 7660  33.495  34.393  14.051
35935W        W 7661   1.895   8.370  12.965
35936W        W 7662  28.739  23.402  12.387
35937W        W 7663  26.073  44.518   4.064
35938W        W 7664  35.962  27.186  12.769
35939W        W 7665  42.849  43.319  14.933
35940W        W 7666   2.274  10.223  14.374
35941W        W 7667  13.161   2.916  11.175
35942W        W 7668   8.106  36.076   3.220
35943W        W 7669  16.789  14.233  13.372
35944W        W 7670  33.616  36.902  12.454
35945W        W 7671   1.178  36.464   2.137
35946W        W 7672  40.439  11.370   4.796
35947W        W 7673  41.915  12.671   4.541
35948W        W 7674  12.594  16.051   3.413
35949W        W 7675  13.175  16.000   4.117
35950W        W 7676  15.623  23.177  11.415
35951W        W 7677  12.765  22.582   3.785
35952W        W 7678  34.831   8.869   3.568
35953W        W 7679  26.458  23.356   2.143
35954W        W 7680   9.181  27.523  13.033
35955W        W 7681  44.211   6.750  14.302
35956W        W 7682  31.677   0.963  11.171
35957W        W 7683  16.052  31.075  13.385
35958W        W 7684   3.873  36.026   4.548
35959W        W 7685  13.826  24.508   1.756
35960W        W 7686  36.868   6.489   1.809
35961W        W 7687  12.595  17.111   0.455
35962W        W 7688  18.541  42.420  13.806
35963W        W 7689  26.092  44.817  14.290
35964W        W 7690  15.146  40.575  12.837
35965W        W 7691  36.943   8.450   1.353
35966W        W 7692  26.963  33.068  14.513
35967W        W 7693  30.133  24.952   4.553
35968W        W 7694   5.349  40.009   1.230
35969W        W 7695  35.134   7.575   4.962
35970W        W 7696   6.545  30.366  12.656
35971W        W 7697  13.219  36.767   4.509
35972W        W 7698   2.503  20.986  11.163
35973W        W 7699  23.223  22.703   1.382
35974W        W 7700   1.274   6.596  12.162
35975W        W 7701  26.575   3.191  13.061
35976W        W 7702  17.768   4.250   4.139
35977W        W 7703   0.874   8.259   2.231
35978W        W 7704  22.219   6.740  12.189
35979W        W 7705  20.976  37.403  13.148
35980W        W 7706   6.908  18.708   2.213
35981W        W 7707  37.055   6.591   4.631
35982W        W 7708  37.547  41.673  13.962
35983W        W 7709   3.249   9.830   2.121
35984W        W 7710   6.227   7.378   3.283
35985W        W 7711  25.537  21.211   4.604
35986W        W 7712  27.366  29.906   0.036
35987W        W 7713  31.602  15.252   3.282
35988W        W 7714  10.804  17.138   0.503
35989W        W 7715  25.484  14.026   2.433
35990W        W 7716  25.021  16.814  11.370
35991W        W 7717  12.294  23.030  14.402
35992W        W 7718  32.460  12.247  14.140
35993W        W 7719  29.828  10.343   4.923
35994W        W 7720  18.961  12.834  11.142
35995W        W 7721  42.645  39.440  13.901
35996W        W 7722  35.932  39.834  13.385
35997W        W 7723  22.004  20.538   3.437
35998W        W 7724  21.200  40.511  13.292
35999W        W 7725  14.167  36.038   1.386
36000W        W 7726   1.138  24.614   1.779
36001W        W 7727   7.293  39.892  10.820
36002W        W 7728  37.540   4.212   2.944
36003W        W 7729  31.575  14.906   4.180
36004W        W 7730  17.622  34.306   2.277
36005W        W 7731  33.409   9.447  10.301
36006W        W 7732  10.642   9.961  10.883
36007W        W 7733  38.873   7.323   3.466
36008W        W 7734   7.296  40.341   0.196
36009W        W 7735  22.990  15.709   4.067
36010W        W 7736  36.002  39.154   0.260
36011W        W 7737   7.736  28.211  11.086
36012W        W 7738   8.251  23.190   5.131
36013W        W 7739  38.063  17.294   4.585
36014W        W 7740  15.166  17.605   1.478
36015W        W 7741  34.970   5.704   4.079
36016W        W 7742   3.225  36.995  10.701
36017W        W 7743  21.843  15.157  12.791
36018W        W 7744  19.657  29.220   1.126
36019W        W 7745  40.344  29.009  10.382
36020W        W 7746  28.983   7.951   3.201
36021W        W 7747  43.400  31.230  12.069
36022W        W 7748  13.279  39.870  14.776
36023W        W 7749  36.750  17.786  14.513
36024W        W 7750   0.264  42.885   0.481
36025W        W 7751   2.803  19.230   4.770
36026W        W 7752  24.182  31.954   2.266
36027W        W 7753  43.801  19.876   3.151
36028W        W 7754  20.822   4.298   3.819
36029W        W 7755   4.454   5.615   0.920
36030W        W 7756  35.836  20.781   4.742
36031W        W 7757  21.747  32.028   0.574
36032W        W 7758  41.034   7.697   4.892
36033W        W 7759  22.820  21.447   0.357
36034W        W 7760  28.550  19.035   1.612
36035W        W 7761  24.177  36.035  12.088
36036W        W 7762   0.603  32.273   3.393
36037W        W 7763  12.350  35.014   4.732
36038W        W 7764  35.058  27.426   4.101
36039W        W 7765  17.706  27.166   2.686
36040W        W 7766  35.813  31.952  12.008
36041W        W 7767  14.105  31.947  12.481
36042W        W 7768  37.268   4.787  10.737
36043W        W 7769  21.506   2.830  13.104
36044W        W 7770  28.840  18.690   4.714
36045W        W 7771  29.472  42.905  13.332
36046W        W 7772  42.997  34.466   4.633
36047W        W 7773  32.823   4.086  11.709
36048W        W 7774  19.381  23.318  13.351
36049W        W 7775  20.966  44.223   1.771
36050W        W 7776  21.092  18.536   2.809
36051W        W 7777   8.804  19.604   0.271
36052W        W 7778  26.463  15.797   3.532
36053W        W 7779  25.549  16.495  13.928
36054W        W 7780  23.100  42.665  11.654
36055W        W 7781  42.884  25.431  12.872
36056W        W 7782  43.259  14.855   1.983
36057W        W 7783  35.466  37.583   4.071
36058W        W 7784  10.276   0.256   4.519
36059W        W 7785  32.578  11.566  12.525
36060W        W 7786  20.063   9.616   3.849
36061W        W 7787  28.456  27.936  14.888
36062W        W 7788   1.889  17.695  11.658
36063W        W 7789  44.993  25.830   2.018
36064W        W 7790  12.781  27.601   3.375
36065W        W 7791  37.551  42.732   3.201
36066W        W 7792  23.170  22.023   2.749
36067W        W 7793  26.769  14.404  13.952
36068W        W 7794  32.293  39.935   1.655
36069W        W 7795  26.601  30.413  13.053
36070W        W 7796  44.542  26.728   4.137
36071W        W 7797  25.688  29.936   4.172
36072W        W 7798  20.546  43.994  13.883
36073W        W 7799  34.306  13.900  14.388
36074W        W 7800  43.682  11.824   2.973
36075W        W 7801  10.445  14.191  12.906
36076W        W 7802   3.993  11.782  12.426
36077W        W 7803  10.661  25.271   3.080
36078W        W 7804  29.244  17.422   2.603
36079W        W 7805  26.465  26.133  14.004
36080W        W 7806  35.431  32.856  13.935
36081W        W 7807  16.888  43.257  14.927
36082W        W 7808  39.718   9.356   1.802
36083W        W 7809   3.700  32.535  11.434
36084W        W 7810  15.886  19.817  14.000
36085W        W 7811  41.450  22.047   0.477
36086W        W 7812  27.529   3.133   4.330
36087W        W 7813  26.548   3.525  14.935
36088W        W 7814  33.266   7.706  12.576
36089W        W 7815  16.963   3.635  10.665
36090W        W 7816  36.865  23.211  12.156
36091W        W 7817  18.287  19.648  11.539
36092W        W 7818  28.438  23.798   4.222
36093W        W 7819  23.083  21.086   1.749
36094W        W 7820   5.165   1.273   2.295
36095W        W 7821  26.454   4.116   4.052
36096W        W 7822  43.455  13.245   0.398
36097W        W 7823  15.923  41.430  11.694
36098W        W 7824  42.014  21.615   3.316
36099W        W 7825  39.384  39.607  12.928
36100W        W 7826  40.269  26.920   4.938
36101W        W 7827  10.724  32.859   4.284
36102W        W 7828  40.860  13.586  13.862
36103W        W 7829  18.498   6.775  14.517
36104W        W 7830  43.391  32.994  14.787
36105W        W 7831   9.792  27.959   2.500
36106W        W 7832  17.570   6.031  12.197
36107W        W 7833  32.461  23.319   1.731
36108W        W 7834  21.832  36.363   1.942
36109W        W 7835  39.536  31.178   2.137
36110W        W 7836  32.699   0.816  14.442
36111W        W 7837  16.001  44.195   3.270
36112W        W 7838  36.839  43.263  13.412
36113W        W 7839  10.377  15.338  10.937
36114W        W 7840   4.765  33.529   3.782
36115W        W 7841  26.014  36.408  12.115
36116W        W 7842  32.591  34.377   0.228
36117W        W 7843  40.493  44.087   0.775
36118W        W 7844  25.581   3.715   1.707
36119W        W 7845  18.048  22.075   0.245
36120W        W 7846  25.466  38.955  11.682
36121W        W 7847  13.341  35.362  14.724
36122W        W 7848  35.785   2.271   3.710
36123W        W 7849  42.240  29.428   0.358
36124W        W 7850   1.798  10.893  10.684
36125W        W 7851  18.663  35.388  11.509
36126W        W 7852   9.318  28.115   0.489
36127W        W 7853  43.329  14.083   3.708
36128W        W 7854  24.990   5.149   2.739
36129W        W 7855  32.846   6.850  12.727
36130W        W 7856   6.600   0.511   3.317
36131W        W 7857  35.964  14.525   4.010
36132W        W 7858  39.532  18.586   0.026
36133W        W 7859  11.867  27.823   4.079
36134W        W 7860  42.202   6.813  11.122
36135W        W 7861   4.753  43.831   0.037
36136W        W 7862  12.278   2.373   3.373
36137W        W 7863   5.683  44.402  10.391
36138W        W 7864   9.684  41.049   3.831
36139W        W 7865  19.032  37.858   2.673
36140W        W 7866  13.213  32.113  11.889
36141W        W 7867  17.091  28.532  13.490
36142W        W 7868  27.071  38.420  10.620
36143W        W 7869  28.412  33.622  10.385
36144W        W 7870  23.977   7.096   1.951
36145W        W 7871  38.146   1.218  13.437
36146W        W 7872  13.919   5.916   2.799
36147W        W 7873   7.892  33.103  12.914
36148W        W 7874   0.891  26.600  10.733
36149W        W 7875  14.303  38.122   5.082
36150W        W 7876  16.158  24.229  12.189
36151W        W 7877  13.134  33.842   1.280
36152W        W 7878  36.022  13.259   2.287
36153W        W 7879  32.583  34.069  11.127
36154W        W 7880  32.963  26.931   4.604
36155W        W 7881  30.398  38.477  12.034
36156W        W 7882  11.811  38.448  12.023
36157W        W 7883   3.719  19.262  10.509
36158W        W 7884  15.860   9.297   1.922
36159W        W 7885  32.931  13.953  11.118
36160W        W 7886  21.132  32.874   3.355
36161W        W 7887  20.176  20.074   3.373
36162W        W 7888  40.328  25.057  14.273
36163W        W 7889  26.402  40.697   4.981
36164W        W 7890  12.579  28.789   1.092
36165W        W 7891  37.488  22.374   0.539
36166W        W 7892  30.390  32.957   2.454
36167W        W 7893  37.389  22.741  14.264
36168W        W 7894   1.840   9.208   0.410
36169W        W 7895  27.736  40.106   3.781
36170W        W 7896   6.967  32.522  11.422
36171W        W 7897  41.993  12.894  11.627
36172W        W 7898  28.118   1.308   3.263
36173W        W 7899  31.903  27.975   1.929
36174W        W 7900  32.858  22.280   1.390
36175W        W 7901  21.261  31.490   0.470
36176W        W 7902   8.613  37.676   4.237
36177W        W 7903  11.819  11.894  13.537
36178W        W 7904  17.026  39.915   4.966
36179W        W 7905  34.322  29.577  13.315
36180W        W 7906  20.921   2.709   1.336
36181W        W 7907  10.119  29.106   1.021
36182W        W 7908  39.146  14.520   1.139
36183W        W 7909  34.479  37.337  14.352
36184W        W 7910  44.761   1.386   2.705
36185W        W 7911  27.473   4.910  13.059
36186W        W 7912  26.712   3.483   4.849
36187W        W 7913   1.783  29.107   3.088
36188W        W 7914   7.110  16.157  10.576
36189W        W 7915   2.222  40.281   5.124
36190W        W 7916  20.678  44.876   4.578
36191W        W 7917   5.604   7.853   0.972
36192W        W 7918  31.469  29.973  10.982
36193W        W 7919  16.970   4.670   4.262
36194W        W 7920  31.048  17.478  13.746
36195W        W 7921   3.727  19.631   1.326
36196W        W 7922  30.654  27.723   0.166
36197W        W 7923   0.376  43.226   1.966
36198W        W 7924  32.553  43.956   9.998
36199W        W 7925  24.016  19.360   3.084
36200W        W 7926  15.337  17.219   1.108
36201W        W 7927  42.995  31.580   2.618
36202W        W 7928  10.693  35.099   4.280
36203W        W 7929  33.995  35.929   4.606
36204W        W 7930   7.135  36.485  12.864
36205W        W 7931  32.854  14.548  12.933
36206W        W 7932  27.485  24.306   4.651
36207W        W 7933  12.796   2.187  14.789
36208W        W 7934   0.271  14.319  11.162
36209W        W 7935  31.408  27.671   1.221
36210W        W 7936   8.999  44.703   0.916
36211W        W 7937  16.705  17.918   0.816
36212W        W 7938   7.596  33.572  13.818
36213W        W 7939  40.048   2.927   3.825
36214W        W 7940  14.700   1.984  14.272
36215W        W 7941  38.814  14.165  14.924
36216W        W 7942  41.001  16.097   0.000
36217W        W 7943   2.464  35.164   4.091
36218W        W 7944  33.457  12.559   9.905
36219W        W 7945   7.751  32.028   2.454
36220W        W 7946   8.598  16.199  12.517
36221W        W 7947   3.229  29.557   4.196
36222W        W 7948  22.117  35.536  10.670
36223W        W 7949  12.350  21.019   3.969
36224W        W 7950  44.780   5.509   3.771
36225W        W 7951  12.384  12.337   0.201
36226W        W 7952  34.062  12.583  14.785
36227W        W 7953  19.477  37.039   1.774
36228W        W 7954  16.489  28.281   3.247
36229W        W 7955  11.732  35.292  13.484
36230W        W 7956  35.879  31.400  14.997
36231W        W 7957  31.593  38.500  12.820
36232W        W 7958   1.427   8.587   0.753
36233W        W 7959  17.788  18.357   2.760
36234W        W 7960   0.734  32.919   4.587
36235W        W 7961   8.268  21.273  10.427
36236W        W 7962  26.966  13.551  13.898
36237W        W 7963  26.072   1.500  10.021
36238W        W 7964   9.647  25.352  10.666
36239W        W 7965   2.756   9.659   1.938
36240W        W 7966  42.066   3.527   2.654
36241W        W 7967   2.409   8.795  10.264
36242W        W 7968   2.045   8.126  10.757
36243W        W 7969  42.012  32.447   0.535
36244W        W 7970  39.705  26.511  13.370
36245W        W 7971  16.350  41.108   1.714
36246W        W 7972   7.913  39.327   4.500
36247W        W 7973  23.640  27.238   2.090
36248W        W 7974  31.884  39.791   1.944
36249W        W 7975  37.744  40.006   0.892
36250W        W 7976  31.284  26.547   2.351
36251W        W 7977   4.906  42.263   5.067
36252W        W 7978  43.906  30.498   3.995
36253W        W 7979  17.372  25.878  10.084
36254W        W 7980  16.135  25.370  11.008
36255W        W 7981   7.149   0.524  13.466
36256W        W 7982  28.476  37.373   1.099
36257W        W 7983  14.173  37.591   2.780
36258W        W 7984  25.595  30.623   1.417
36259W        W 7985  42.947  34.609   2.612
36260W        W 7986   2.656  39.398  13.829
36261W        W 7987  38.632  24.219  11.032
36262W        W 7988   3.254  11.850  13.888
36263W        W 7989  29.073  11.121   1.787
36264W        W 7990  14.640  20.514  12.527
36265W        W 7991  20.062   6.715  14.720
36266W        W 7992   6.270   9.190   0.387
36267W        W 7993  44.002  10.749   3.943
36268W        W 7994  20.945  33.155   1.337
36269W        W 7995  18.179  42.989  14.691
36270W        W 7996  27.386  41.401  14.800
36271W        W 7997   5.645   3.398  12.968
36272W        W 7998  39.606  37.524   1.472
36273W        W 7999  16.601  24.087   2.216
36274W        W 8000  27.628  13.791  12.675
36275W        W 8001   0.990  10.268   4.131
36276W        W 8002  22.784   0.317   3.880
36277W        W 8003   4.670   8.436  12.818
36278W        W 8004   8.398  42.824  11.380
36279W        W 8005  21.137  11.643  14.254
36280W        W 8006  12.212  41.698   2.942
36281W        W 8007   7.937  35.077  12.830
36282W        W 8008  12.889  22.033   3.150
36283W        W 8009  38.372  32.217   2.397
36284W        W 8010  36.227  25.257   1.449
36285W        W 8011  18.699  36.304  12.149
36286W        W 8012  25.689  39.863  13.082
36287W        W 8013  23.797   9.212   0.184
36288W        W 8014  37.338  40.691  13.803
36289W        W 8015  27.490   3.502  12.952
36290W        W 8016  41.949   9.633   4.922
36291W        W 8017  19.054  10.096   3.702
36292W        W 8018   3.249  15.657   0.468
36293W        W 8019  40.992  30.604   0.616
36294W        W 8020  40.847  12.209   0.753
36295W        W 8021  27.986  33.142  13.495
36296W        W 8022  38.587  10.771  10.847
36297W        W 8023  31.921  42.534  14.463
36298W        W 8024  36.517  35.882  12.789
36299W        W 8025   6.952  34.651  12.356
36300W        W 8026  28.724  25.811   1.455
36301W        W 8027  18.008  34.015  10.630
36302W        W 8028  11.255  33.500  14.030
36303W        W 8029  39.922  16.684  14.721
36304W        W 8030   2.886   4.511  11.608
36305W        W 8031  32.366  20.271  11.182
36306W        W 8032   4.751  43.859  10.160
36307W        W 8033  35.155  19.117   2.426
36308W        W 8034  44.458  25.122   2.017
36309W        W 8035  32.704  21.664  10.695
36310W        W 8036  28.986  23.274   4.585
36311W        W 8037  13.515   8.206  14.468
36312W        W 8038  37.502   5.473   4.564
36313W        W 8039  16.135  40.935  14.060
36314W        W 8040  28.143   2.752   3.587
36315W        W 8041   7.178  25.925  13.509
36316W        W 8042  30.657  39.061  13.319
36317W        W 8043  11.744  23.769   1.621
36318W        W 8044  38.766  12.399   2.286
36319W        W 8045  22.059  16.120  14.807
36320W        W 8046   8.646  41.589   1.824
36321W        W 8047   4.232  20.806  14.668
36322W        W 8048  37.201  33.684  13.117
36323W        W 8049  19.660  11.713  12.963
36324W        W 8050  40.492  41.283   0.495
36325W        W 8051   0.885  21.652  14.039
36326W        W 8052   0.351  44.975  11.513
36327W        W 8053  37.286  36.969   2.538
36328W        W 8054   4.269  31.497  13.009
36329W        W 8055  44.754   5.373  13.962
36330W        W 8056  42.878  13.227   0.875
36331W        W 8057  25.409  12.134  11.675
36332W        W 8058  33.894  19.177   3.268
36333W        W 8059  26.416  16.152  13.405
36334W        W 8060  41.008  25.399   1.743
36335W        W 8061  22.642   2.698   3.543
36336W        W 8062  33.949  44.925   4.911
36337W        W 8063  17.067  25.177   2.893
36338W        W 8064  13.367  41.008   2.060
36339W        W 8065  12.171   8.114  13.095
36340W        W 8066  27.174   1.866   0.880
36341W        W 8067  23.430  19.077  14.755
36342W        W 8068  15.156  38.066  13.838
36343W        W 8069  28.972  30.732  14.781
36344W        W 8070  44.043  42.988   3.230
36345W        W 8071  33.918  17.927   3.371
36346W        W 8072  19.511  10.906  12.511
36347W        W 8073  38.871  15.095  10.639
36348W        W 8074   1.415  25.170  11.547
36349W        W 8075   1.210  32.911   0.426
36350W        W 8076  39.622  44.994  11.214
36351W        W 8077  20.796   6.041   4.161
36352W        W 8078  30.183   6.544   1.853
36353W        W 8079  39.006  33.184   1.186
36354W        W 8080  29.167   1.274  14.324
36355W        W 8081  15.258  20.475  12.019
36356W        W 8082  10.616  14.753   4.764
36357W        W 8083  28.166  13.404   4.131
36358W        W 8084   0.314  40.541   2.313
36359W        W 8085  16.226  27.502  12.825
36360W        W 8086   1.928  17.729   4.871
36361W        W 8087  30.416  16.909   1.794
36362W        W 8088   7.223  15.361   4.587
36363W        W 8089  22.771  19.021  12.127
36364W        W 8090  28.367   7.323   2.766
36365W        W 8091   7.233  42.402  13.742
36366W        W 8092   8.343  16.779  14.693
36367W        W 8093   6.087  17.127   4.632
36368W        W 8094  36.181   3.334   3.287
36369W        W 8095  32.068  30.377  10.375
36370W        W 8096  16.073  16.570   2.342
36371W        W 8097   4.750  38.361  10.571
36372W        W 8098  42.691   6.571   3.597
36373W        W 8099   4.483   5.921  13.018
36374W        W 8100  31.398   7.401   3.409
36375W        W 8101  42.574  13.759   4.594
36376W        W 8102  31.691  32.983  11.503
36377W        W 8103  39.374  31.975  13.491
36378W        W 8104  41.938  20.242   1.166
36379W        W 8105   3.951  27.263   0.915
36380W        W 8106  44.698  33.952   3.398
36381W        W 8107  16.537  41.804  10.760
36382W        W 8108   7.953  44.899   2.436
36383W        W 8109   1.793   4.412   1.845
36384W        W 8110  33.577  34.021  10.738
36385W        W 8111  40.038  38.516   4.648
36386W        W 8112  29.196  32.577  12.336
36387W        W 8113  19.402  39.126   3.151
36388W        W 8114   6.269  42.259  11.121
36389W        W 8115  21.516  39.020   2.288
36390W        W 8116  15.287  17.709   0.968
36391W        W 8117  16.647  38.655   0.957
36392W        W 8118   9.901  12.165   0.414
36393W        W 8119  11.597  37.362   3.623
36394W        W 8120   2.981   0.739  11.606
36395W        W 8121  32.969  20.075   0.977
36396W        W 8122  23.356  11.108   4.268
36397W        W 8123  15.812  11.284   0.947
36398W        W 8124  17.048  25.912   0.856
36399W        W 8125  19.628  19.835  13.459
36400W        W 8126  33.915   3.532  13.938
36401W        W 8127  38.768  44.305   3.189
36402W        W 8128   5.303  27.434  13.498
36403W        W 8129  36.060  13.736   0.727
36404W        W 8130  28.261  42.225  11.153
36405W        W 8131  44.051   0.762  13.597
36406W        W 8132  39.427  20.039  14.299
36407W        W 8133  23.963  20.505  14.466
36408W        W 8134  24.083   4.406   4.709
36409W        W 8135  20.642  31.172   0.950
36410W        W 8136  33.383  13.702  10.723
36411W        W 8137  43.938  13.676   4.702
36412W        W 8138  43.961  29.866  14.784
36413W        W 8139  30.539  19.585   3.756
36414W        W 8140  29.790   9.462   0.910
36415W        W 8141  24.919  12.912   4.860
36416W        W 8142   8.678  18.687  13.813
36417W        W 8143  44.744  11.301   2.393
36418W        W 8144   1.919   8.980  11.008
36419W        W 8145  14.234  41.348  12.216
36420W        W 8146  31.532  42.942  11.101
36421W        W 8147  17.104  27.021   1.522
36422W        W 8148   5.678  22.328   4.015
36423W        W 8149   4.819  41.609   1.821
36424W        W 8150  20.558   9.727   2.818
36425W        W 8151  30.926   9.337  12.367
36426W        W 8152  17.998  20.275  12.905
36427W        W 8153   8.251  34.612   2.654
36428W        W 8154   9.787  17.166   2.813
36429W        W 8155   1.479  34.990   2.318
36430W        W 8156  32.305  19.143  14.900
36431W        W 8157  32.500  18.608  12.639
36432W        W 8158   0.409  24.276   4.673
36433W        W 8159   5.693  32.213   1.247
36434W        W 8160   6.145  28.477   1.837
36435W        W 8161   4.433  25.502  14.076
36436W        W 8162  29.908   2.841  13.887
36437W        W 8163  28.080   1.901  13.554
36438W        W 8164  18.635  10.560  11.513
36439W        W 8165  14.319  16.296   1.127
36440W        W 8166   2.682  14.131  11.857
36441W        W 8167  25.612  37.850   2.262
36442W        W 8168  35.085  28.125   0.446
36443W        W 8169  28.004   0.873  11.164
36444W        W 8170   7.641  29.641   3.422
36445W        W 8171  12.981  33.776  12.468
36446W        W 8172  36.800  28.305  13.993
36447W        W 8173  16.737  30.859  14.260
36448W        W 8174  40.819  11.659   2.755
36449W        W 8175  15.095  22.493  13.083
36450W        W 8176  35.143  11.291  11.206
36451W        W 8177  43.013  36.385  13.608
36452W        W 8178  18.677   7.686   4.209
36453W        W 8179   9.761  25.541  14.660
36454W        W 8180   1.556  18.161  14.502
36455W        W 8181  28.754  19.826  11.363
36456W        W 8182   2.793   6.373  14.024
36457W        W 8183  44.021  41.435  10.709
36458W        W 8184  26.484  31.190  10.348
36459W        W 8185  18.576   4.825   3.602
36460W        W 8186  16.695  30.189  13.893
36461W        W 8187  30.983   5.606   3.446
36462W        W 8188  33.176  27.451  14.363
36463W        W 8189  15.092  15.268  12.372
36464W        W 8190  21.920  39.074   0.444
36465W        W 8191   4.314  15.253   2.882
36466W        W 8192  37.936  43.940   3.130
36467W        W 8193   8.395  33.509   1.478
36468W        W 8194   2.691  23.048  10.652
36469W        W 8195   0.424  15.654  14.908
36470W        W 8196   2.256  17.231   2.748
36471W        W 8197  33.854  36.010  14.302
36472W        W 8198  23.685   6.324   3.350
36473W        W 8199  23.487  40.263   2.675
36474W        W 8200  39.424   2.791   0.523
36475W        W 8201  16.194  14.915   4.174
36476W        W 8202  14.717  13.154  12.139
36477W        W 8203  42.605  27.436  10.810
36478W        W 8204  15.560  36.731  14.227
36479W        W 8205  15.943  18.092   2.383
36480W        W 8206  13.749  40.453  13.520
36481W        W 8207  25.583  39.419   3.559
36482W        W 8208  26.123  11.599  10.915
36483W        W 8209  33.042  13.557  12.936
36484W        W 8210   4.276  28.825   0.317
36485W        W 8211  30.405   5.883  10.728
36486W        W 8212  29.239  43.777  11.262
36487W        W 8213  33.570  12.872  11.723
36488W        W 8214  13.194  10.261   2.076
36489W        W 8215   9.883  14.563   4.154
36490W        W 8216   2.448  43.794  13.526
36491W        W 8217  24.539  31.448   4.163
36492W        W 8218  14.336  38.990   1.212
36493W        W 8219  37.909  18.143   3.334
36494W        W 8220   9.166  27.016   2.623
36495W        W 8221   7.355  17.739  13.978
36496W        W 8222  37.428  37.418  11.944
36497W        W 8223  10.299   1.522   2.484
36498W        W 8224   4.790  36.348   0.503
36499W        W 8225  26.605  41.860  11.769
36500W        W 8226  25.101  22.825   0.749
36501W        W 8227  26.857   8.668  14.929
36502W        W 8228   4.207  21.531   4.718
36503W        W 8229  40.725   8.187   3.216
36504W        W 8230  23.327   2.841   1.650
36505W        W 8231   1.547   4.307  11.752
36506W        W 8232  41.445  12.324   2.873
36507W        W 8233   1.975  19.505   2.116
36508W        W 8234  39.778   1.865   0.848
36509W        W 8235   9.650  38.505   1.376
36510W        W 8236   8.473  26.273  10.122
36511W        W 8237   2.592  20.559   4.858
36512W        W 8238  39.148  38.084  13.373
36513W        W 8239  38.063   1.852  11.050
36514W        W 8240  11.974  34.795  11.920
36515W        W 8241  27.738   7.916  10.755
36516W        W 8242  44.640   1.847  10.698
36517W        W 8243  29.468   9.131   3.785
36518W        W 8244   7.623  18.118   1.785
36519W        W 8245  42.348   2.586   1.903
36520W        W 8246  32.482  21.736   2.894
36521W        W 8247  39.178   7.306   0.792
36522W        W 8248  37.579  37.861   2.649
36523W        W 8249   7.419  18.117  12.593
36524W        W 8250  24.288  22.493  14.016
36525W        W 8251  37.529   4.044   1.774
36526W        W 8252  31.370  14.698  14.946
36527W        W 8253   4.717  18.047   1.339
36528W        W 8254   5.186   7.049   4.120
36529W        W 8255   2.317  33.556   1.697
36530W        W 8256   7.758  26.112  11.668
36531W        W 8257   7.464  29.429  10.343
36532W        W 8258  38.827  23.172   3.746
36533W        W 8259  14.090   2.248  13.279
36534W        W 8260   9.708  24.930   1.463
36535W        W 8261  44.324  18.029  11.845
36536W        W 8262  43.375  31.031   3.619
36537W        W 8263  18.586  13.622  13.964
36538W        W 8264  21.762  40.495  11.157
36539W        W 8265   2.738   4.672   2.820
36540W        W 8266  35.765  21.749  14.778
36541W        W 8267   5.647  43.325  11.796
36542W        W 8268  39.883  15.578   3.063
36543W        W 8269  25.383  27.675  13.979
36544W        W 8270  13.764  13.273  14.944
36545W        W 8271  22.095  44.257  11.929
36546W        W 8272  36.577  37.138  11.949
36547W        W 8273  37.053   8.713  10.675
36548W        W 8274  43.944   2.387   4.382
36549W        W 8275  30.330   8.533  11.128
36550W        W 8276  25.748  33.525   0.775
36551W        W 8277  29.679  17.601   2.367
36552W        W 8278  13.239  25.460  14.090
36553W        W 8279  41.275   2.817   4.904
36554W        W 8280  42.021  43.401  14.446
36555W        W 8281  20.783  33.109   4.142
36556W        W 8282  44.879  14.315   0.758
36557W        W 8283  37.371  43.229   3.148
36558W        W 8284  33.922  20.681  13.051
36559W        W 8285   8.834  28.896   2.228
36560W        W 8286  13.694   9.439  12.399
36561W        W 8287   6.268  10.321   0.364
36562W        W 8288  30.899  31.308  11.699
36563W        W 8289  12.675  38.977  11.623
36564W        W 8290  33.500  30.862  12.824
36565W        W 8291  40.588   4.695   1.292
36566W        W 8292   3.508   7.837  14.412
36567W        W 8293  43.195  41.517   1.286
36568W        W 8294  25.654  11.538   3.760
36569W        W 8295  41.612  43.013   0.184
36570W        W 8296  38.606  31.360   4.858
36571W        W 8297   6.193  29.466  11.093
36572W        W 8298   1.523  22.612  14.472
36573W        W 8299  30.922  19.719   2.256
36574W        W 8300  30.662   1.287  13.595
36575W        W 8301  32.586   3.926  13.344
36576W        W 8302  21.043  30.518  14.026
36577W        W 8303  38.705  16.201   0.892
36578W        W 8304   2.286  11.543  12.365
36579W        W 8305  30.338   3.303  12.596
36580W        W 8306  41.892  26.077  11.641
36581W        W 8307  27.998   0.237   4.065
36582W        W 8308  14.677  41.314  10.845
36583W        W 8309   3.242  23.487  11.365
36584W        W 8310  19.859  33.807  11.570
36585W        W 8311  34.490  16.083  11.001
36586W        W 8312   7.722  22.008  14.393
36587W        W 8313  27.471  13.771   0.029
36588W        W 8314   8.850   0.913  11.661
36589W        W 8315  23.540  39.304  11.513
36590W        W 8316   5.810  34.051   1.168
36591W        W 8317   9.437  25.185   9.839
36592W        W 8318  18.757  17.817  14.404
36593W        W 8319  18.280  15.799  12.665
36594W        W 8320  17.495  44.843  14.420
36595W        W 8321  19.097  20.616   2.882
36596W        W 8322  36.960  40.781   1.717
36597W        W 8323   5.352   4.269  13.885
36598W        W 8324  36.883   7.963   4.038
36599W        W 8325  15.118  30.953  10.496
36600W        W 8326  35.277   9.626   3.161
36601W        W 8327  18.781  41.537   3.755
36602W        W 8328   5.349  16.274   5.370
36603W        W 8329  27.213  36.004   0.002
36604W        W 8330  26.000  25.485  12.021
36605W        W 8331  43.646   4.441  13.335
36606W        W 8332   3.709  18.201   1.292
36607W        W 8333  14.912   5.404   1.573
36608W        W 8334  20.920  37.868  11.930
36609W        W 8335   6.792  10.811   3.796
36610W        W 8336  23.489  18.973  12.976
36611W        W 8337  12.546  11.142  11.923
36612W        W 8338  44.310   0.969   4.382
36613W        W 8339  31.633  20.691   0.940
36614W        W 8340  39.042  26.608  14.966
36615W        W 8341  37.303  26.214  11.662
36616W        W 8342  26.135  20.549  12.506
36617W        W 8343  41.881  11.174  11.915
36618W        W 8344  44.940  14.395  13.891
36619W        W 8345   6.423  12.579   3.431
36620W        W 8346  38.942  20.698  13.584
36621W        W 8347   8.609  39.073  14.541
36622W        W 8348  36.960  11.926  12.087
36623W        W 8349  10.829  19.546  11.208
36624W        W 8350  37.082  26.543  14.864
36625W        W 8351  12.113   8.754   1.809
36626W        W 8352   8.377  10.388   1.950
36627W        W 8353   1.468  24.410   2.288
36628W        W 8354  24.284  30.058  10.778
36629W        W 8355  29.198  27.797   0.821
36630W        W 8356  30.377  19.612  12.592
36631W        W 8357  17.858  35.994  12.646
36632W        W 8358  26.007  33.424  11.290
36633W        W 8359  18.297  29.701  13.035
36634W        W 8360  18.251  23.675   4.626
36635W        W 8361  24.249  43.051  12.389
36636W        W 8362  38.087  18.457  10.756
36637W        W 8363  23.620   2.419   0.254
36638W        W 8364  22.691  34.099  12.052
36639W        W 8365   7.247  38.902   0.003
36640W        W 8366  10.676   4.497   1.790
36641W        W 8367  38.163  23.445  11.152
36642W        W 8368   8.925  19.547  12.487
36643W        W 8369  28.478   0.190  11.943
36644W        W 8370  34.540  42.404  12.986
36645W        W 8371  29.372  23.832   9.929
36646W        W 8372  22.997   0.040  12.563
36647W        W 8373  30.266   3.201   4.146
36648W        W 8374  39.089   7.778   3.733
36649W        W 8375  31.134  34.950  13.939
36650W        W 8376  43.663  16.588   4.156
36651W        W 8377  24.691  37.447   2.183
36652W        W 8378  11.977  38.891   4.960
36653W        W 8379   2.810   1.705   4.307
36654W        W 8380  39.986  37.181   0.743
36655W        W 8381  38.503  20.867   3.992
36656W        W 8382  43.327  12.301   3.257
36657W        W 8383  24.916  44.594  14.839
36658W        W 8384  43.365  20.997   9.688
36659W        W 8385  21.578   6.777  13.895
36660W        W 8386  42.381  19.728   4.786
36661W        W 8387   9.735   4.483  13.367
36662W        W 8388  17.519  14.231  14.972
36663W        W 8389   1.391  16.042   2.912
36664W        W 8390   4.135  44.769   3.226
36665W        W 8391   7.022  38.502  13.160
36666W        W 8392  22.227   5.154   3.804
36667W        W 8393  15.777  30.495   1.859
36668W        W 8394  20.608  27.609  11.537
36669W        W 8395   6.012  16.062   4.396
36670W        W 8396  38.314  35.340  12.221
36671W        W 8397  22.984  28.674  11.801
36672W        W 8398  15.543   7.829   0.720
36673W        W 8399  12.149  13.797  14.394
36674W        W 8400  30.376  27.037   1.300
36675W        W 8401  17.208  21.753  14.849
36676W        W 8402  11.676  11.126   1.114
36677W        W 8403  18.523  40.768   4.158
36678W        W 8404  37.700  34.867  11.658
36679W        W 8405  15.638  30.605  12.612
36680W        W 8406  35.613  40.599   4.842
36681W        W 8407  37.461  28.604  13.420
36682W        W 8408   3.464  25.743   1.891
36683W        W 8409  40.320  27.866  14.228
36684W        W 8410  16.674  42.100  12.778
36685W        W 8411  44.532  31.599  13.012
36686W        W 8412   1.604   2.468   2.255
36687W        W 8413  41.499  38.027   2.428
36688W        W 8414  43.934  12.963  12.025
36689W        W 8415  38.154  44.386   0.825
36690W        W 8416  36.896  12.938   4.896
36691W        W 8417  38.530  10.259  14.075
36692W        W 8418   7.748  33.249   4.313
36693W        W 8419  12.846  13.277   2.135
36694W        W 8420  41.247  11.760   4.074
36695W        W 8421  18.339  41.930   1.867
36696W        W 8422   2.320  29.980   3.177
36697W        W 8423  17.724  12.583  11.517
36698W        W 8424  41.006  42.199   1.731
36699W        W 8425  37.782   1.513  12.448
36700W        W 8426   9.239  28.708  11.179
36701W        W 8427   6.518  35.383   0.533
36702W        W 8428  12.250  21.999   4.214
36703W        W 8429   7.863   1.878   0.263
36704W        W 8430   1.651   4.310   1.359
36705W        W 8431   6.138  29.136  10.275
36706W        W 8432  30.407  22.683  13.871
36707W        W 8433  12.193  36.790  11.958
36708W        W 8434  38.092  42.193  14.466
36709W        W 8435  29.030  21.532   2.422
36710W        W 8436   5.662  24.228  12.927
36711W        W 8437  17.875  13.452   2.246
36712W        W 8438   0.999  16.165   4.638
36713W        W 8439   6.598  36.801   4.147
36714W        W 8440   1.866  20.215   0.328
36715W        W 8441  41.380  36.373  10.439
36716W        W 8442  21.055  39.993  13.398
36717W        W 8443   8.778  12.606   3.597
36718W        W 8444  33.399  15.743  13.920
36719W        W 8445  34.887  33.402  13.478
36720W        W 8446  32.549   6.737  12.300
36721W        W 8447  17.030  38.579  13.051
36722W        W 8448   8.502  32.606   3.416
36723W        W 8449   5.828  39.783  11.715
36724W        W 8450  38.924  19.643  11.974
36725W        W 8451  40.270  21.609  14.870
36726W        W 8452  28.055  28.852  14.763
36727W        W 8453  28.127  13.938  11.899
36728W        W 8454   6.730  21.690  10.888
36729W        W 8455  12.708   7.018  11.712
36730W        W 8456  13.148  22.484   1.848
36731W        W 8457  35.016  29.949  12.571
36732W        W 8458   3.174  23.019  11.595
36733W        W 8459  18.068  17.008  13.747
36734W        W 8460  12.042  35.599   0.545
36735W        W 8461  42.903  22.028  11.785
36736W        W 8462   6.801  31.990   5.003
36737W        W 8463  27.486   8.835  12.312
36738W        W 8464  21.747  10.716   1.776
36739W        W 8465   6.113  30.310  12.409
36740W        W 8466   0.266   6.777   0.717
36741W        W 8467  11.854  15.615   2.580
36742W        W 8468  32.416  32.420  11.978
36743W        W 8469   0.257   5.369   2.234
36744W        W 8470  21.130  19.264  12.535
36745W        W 8471  44.465   8.186  12.081
36746W        W 8472  13.698  38.735   9.612
36747W        W 8473  37.024  14.325  12.055
36748W        W 8474  29.904  18.683  13.864
36749W        W 8475   0.879  22.735  13.993
36750W        W 8476  44.274  22.734  13.800
36751W        W 8477   8.362  11.192  10.781
36752W        W 8478   6.225   6.905   0.911
36753W        W 8479  14.113  23.720  12.611
36754W        W 8480  40.796  10.672   3.647
36755W        W 8481  34.724   2.589   2.139
36756W        W 8482  21.222   6.327  11.557
36757W        W 8483  14.498  27.766   0.412
36758W        W 8484  35.151   8.204   0.844
36759W        W 8485  27.098  16.032   0.044
36760W        W 8486   2.289  10.314  13.834
36761W        W 8487  21.067  43.236  10.585
36762W        W 8488  13.168  33.235   4.030
36763W        W 8489  26.530   0.495   4.087
36764W        W 8490   0.104  43.382   1.253
36765W        W 8491   3.948  26.962   3.429
36766W        W 8492  30.132  26.792   3.628
36767W        W 8493  40.011  36.935  14.711
36768W        W 8494  12.677  38.117  11.964
36769W        W 8495  30.669  26.481  11.676
36770W        W 8496  15.423  20.687  13.852
36771W        W 8497  18.295  20.358  11.063
36772W        W 8498  44.711  40.599   4.428
36773W        W 8499  16.628  10.873  14.046
36774W        W 8500  32.172   5.796  14.081
36775W        W 8501  25.307  29.160   1.762
36776W        W 8502  26.216  27.473   1.166
36777W        W 8503   6.681  19.153   0.891
36778W        W 8504  15.214  13.318  12.062
36779W        W 8505  31.388   2.251  10.412
36780W        W 8506  23.526   2.923  13.405
36781W        W 8507   9.635   6.871  11.141
36782W        W 8508  20.678  26.730  12.544
36783W        W 8509  43.526   1.962   3.753
36784W        W 8510   7.237  19.922   2.986
36785W        W 8511   3.013  30.489  11.352
36786W        W 8512   4.910  21.279   4.200
36787W        W 8513  19.487  24.407  11.747
36788W        W 8514  22.650  38.076   1.362
36789W        W 8515  36.588  19.052   4.054
36790W        W 8516   6.017   5.186   3.659
36791W        W 8517   5.623  15.211  14.236
36792W        W 8518  41.340  34.990   1.305
36793W        W 8519  42.567  34.505  10.451
36794W        W 8520  29.549  37.935  13.962
36795W        W 8521  18.589  41.395  10.324
36796W        W 8522  31.134  13.173   1.835
36797W        W 8523  15.520   4.421   0.644
36798W        W 8524   0.492  32.132  11.199
36799W        W 8525  12.405  13.326   0.550
36800W        W 8526  36.048   3.825  11.330
36801W        W 8527  17.020  15.279  14.886
36802W        W 8528  23.964  19.168  13.051
36803W        W 8529  28.105  32.519  10.640
36804W        W 8530  14.175  13.023   4.529
36805W        W 8531  35.977  12.813   0.755
36806W        W 8532  40.894  22.214  10.797
36807W        W 8533  11.895  20.517  14.868
36808W        W 8534   2.071  33.312   2.322
36809W        W 8535   9.875  30.923   2.693
36810W        W 8536  14.509  21.275   2.800
36811W        W 8537  20.556  19.522  12.624
36812W        W 8538   2.961  18.042  12.437
36813W        W 8539  13.338  13.576  14.898
36814W        W 8540  27.787  34.604   2.300
36815W        W 8541  12.081  27.198  14.742
36816W        W 8542  21.153   0.495  13.519
36817W        W 8543   7.871  16.213   0.029
36818W        W 8544  22.754  13.724  13.350
36819W        W 8545  40.610  19.721  14.935
36820W        W 8546  20.349  43.991   0.111
36821W        W 8547  43.727  20.629  10.753
36822W        W 8548  35.423  17.055  11.470
36823W        W 8549  42.532  34.136  13.762
36824W        W 8550  25.730  26.703   0.919
36825W        W 8551  18.095  29.380   2.923
36826W        W 8552   1.909   1.593   4.146
36827W        W 8553  34.650   7.786   1.325
36828W        W 8554  18.671  15.756   3.598
36829W        W 8555  44.464  35.603  13.740
36830W        W 8556  22.042  35.826  12.400
36831W        W 8557   9.008  30.059  12.783
36832W        W 8558   0.769  26.487   0.950
36833W        W 8559   4.883  13.647   5.079
36834W        W 8560  30.960  37.609   5.059
36835W        W 8561  21.600  18.344   1.344
36836W        W 8562  23.551  36.567  12.632
36837W        W 8563  16.168  26.887   1.231
36838W        W 8564  29.599  23.008  10.662
36839W        W 8565  27.840  36.532   0.940
36840W        W 8566   5.295   5.885  13.237
36841W        W 8567  42.259  15.224   4.821
36842W        W 8568  38.490  34.870   4.688
36843W        W 8569  43.928  25.514   2.808
36844W        W 8570  18.319  16.251   1.815
36845W        W 8571   2.982  41.166  10.982
36846W        W 8572  44.955  21.627   3.424
36847W        W 8573  20.585  25.267   3.303
36848W        W 8574  17.288  39.388  13.611
36849W        W 8575  24.946  12.165  12.826
36850W        W 8576  37.406   9.106  13.329
36851W        W 8577   7.161   3.886  13.721
36852W        W 8578   7.188  34.590   0.755
36853W        W 8579  30.002  17.175  11.547
36854W        W 8580  34.892  13.239   3.741
36855W        W 8581  43.501  36.800   4.607
36856W        W 8582  19.770  14.180   1.383
36857W        W 8583  34.621  25.292  11.540
36858W        W 8584  32.926  19.891   5.017
36859W        W 8585   5.339  39.442   3.635
36860W        W 8586  20.582   4.550   1.989
36861W        W 8587   3.788  29.082   3.150
36862W        W 8588   0.372  27.410   2.393
36863W        W 8589  13.211   6.754  10.682
36864W        W 8590  15.807  29.225   0.793
36865W        W 8591  36.026  42.515  11.950
36866W        W 8592  24.922  44.526   3.186
36867W        W 8593  40.963  26.481   0.146
36868W        W 8594   6.180  11.146  12.790
36869W        W 8595   5.153  22.473   2.176
36870W        W 8596  24.399   3.319   1.031
36871W        W 8597  16.547  28.999  12.142
36872W        W 8598  23.944  19.091   1.214
36873W        W 8599  12.819   5.454   4.896
36874W        W 8600  38.290  31.452  12.572
36875W        W 8601  37.821   1.049   1.605
36876W        W 8602  16.237  24.991  13.303
36877W        W 8603  12.376  10.667   3.247
36878W        W 8604  18.558  19.364   2.537
36879W        W 8605  15.735  38.279   3.848
36880W        W 8606  34.778  22.215   2.842
36881W        W 8607  35.135  22.662   1.482
36882W        W 8608   8.599  10.688   0.483
36883W        W 8609  10.417  25.137   0.047
36884W        W 8610  28.637  24.377  11.992
36885W        W 8611   4.645  34.871  11.155
36886W        W 8612   5.665  33.218   3.673
36887W        W 8613  38.519  11.387  12.676
36888W        W 8614  29.232  27.128   1.958
36889W        W 8615  29.415  29.565  14.140
36890W        W 8616  17.247  44.838  13.960
36891W        W 8617  15.665  27.927  13.553
36892W        W 8618   0.235  15.399  11.211
36893W        W 8619  33.368   7.094   4.822
36894W        W 8620  21.051  20.296  12.425
36895W        W 8621  39.026   4.480  13.376
36896W        W 8622   9.426  27.969   2.893
36897W        W 8623  41.124  22.814   2.849
36898W        W 8624  18.979  20.378   1.732
36899W        W 8625  11.348  28.983  14.639
36900W        W 8626  15.374  29.587   1.192
36901W        W 8627   6.570  36.601   0.518
36902W        W 8628  31.163  14.312  11.515
36903W        W 8629  18.203  41.221  13.892
36904W        W 8630  18.609  25.570   2.359
36905W        W 8631  36.554   8.337  11.834
36906W        W 8632  29.154   2.759  13.544
36907W        W 8633  18.590   5.696   0.001
36908W        W 8634  18.071   3.283   1.463
36909W        W 8635  29.424  31.666   1.812
36910W        W 8636   0.673  15.939   2.169
36911W        W 8637  22.241  21.233   3.137
36912W        W 8638  33.352  44.937   0.397
36913W        W 8639   4.394  28.006   4.241
36914W        W 8640  12.652   4.044  12.092
36915W        W 8641  32.899  23.465   1.986
36916W        W 8642  22.154  36.072  10.569
36917W        W 8643   5.914  21.320   4.206
36918W        W 8644   8.162  26.204   2.409
36919W        W 8645  37.640  13.169  13.427
36920W        W 8646  21.069  29.891  12.026
36921W        W 8647   6.729   7.056   4.160
36922W        W 8648  34.099  18.881  13.027
36923W        W 8649  43.860  37.671   2.877
36924W        W 8650   8.766  34.769   1.212
36925W        W 8651  24.669  19.683  14.905
36926W        W 8652   3.686   2.379   3.263
36927W        W 8653   3.742   8.160   3.074
36928W        W 8654  30.477  28.938   4.546
36929W        W 8655  17.759  16.615  13.592
36930W        W 8656   3.736  30.553  14.062
36931W        W 8657   3.709   7.655  11.255
36932W        W 8658   5.258  39.495  11.021
36933W        W 8659  21.995  29.519  12.340
36934W        W 8660  20.666  38.041   2.224
36935W        W 8661  13.161   8.412   3.697
36936W        W 8662   9.477  14.232  11.053
36937W        W 8663  27.394  26.123   1.198
36938W        W 8664  38.255  12.633  10.185
36939W        W 8665  17.202  28.447   2.362
36940W        W 8666  35.573   3.239  14.414
36941W        W 8667  36.080  36.332  11.582
36942W        W 8668  22.647  12.352  10.511
36943W        W 8669  36.672  41.903  12.178
36944W        W 8670  10.358   6.454  11.562
36945W        W 8671  10.346  24.516  10.120
36946W        W 8672  13.264  12.191  10.743
36947W        W 8673   9.752  23.893  13.526
36948W        W 8674  37.600  38.046  12.998
36949W        W 8675  12.930   0.042   2.374
36950W        W 8676  31.364  32.013   4.792
36951W        W 8677   6.100  11.862  10.044
36952W        W 8678  43.988  24.370  11.622
36953W        W 8679   6.945  15.132   9.762
36954W        W 8680   9.188  21.538   4.591
36955W        W 8681  23.491  19.348  11.649
36956W        W 8682  44.940  18.274   3.689
36957W        W 8683  36.587  25.636   0.616
36958W        W 8684   0.881  34.832  11.369
36959W        W 8685  26.875  30.069   0.075
36960W        W 8686  16.123  29.591  13.510
36961W        W 8687   5.350  40.742   4.571
36962W        W 8688  12.355  29.462   3.074
36963W        W 8689  19.796   8.440   2.322
36964W        W 8690  26.580  27.216  14.924
36965W        W 8691  31.094  41.938   3.607
36966W        W 8692  29.583  26.166   2.871
36967W        W 8693  21.541  17.838   0.273
36968W        W 8694  24.054  16.583  10.428
36969W        W 8695  43.266  38.493  13.801
36970W        W 8696  14.818  11.292  14.943
36971W        W 8697  17.043   8.447   2.798
36972W        W 8698  24.595  21.160  10.703
36973W        W 8699  14.695  32.105   3.608
36974W        W 8700  21.163  40.871  12.410
36975W        W 8701  36.875  20.525   2.912
36976W        W 8702  20.718  35.626  12.043
36977W        W 8703  24.044   5.991   2.639
36978W        W 8704   4.347  23.660  12.842
36979W        W 8705  34.859  18.717   9.506
36980W        W 8706  40.317  29.530  14.946
36981W        W 8707  31.917   6.090   1.012
36982W        W 8708  37.834  29.984   1.411
36983W        W 8709   9.199  40.903  11.387
36984W        W 8710  41.324  10.746   3.600
36985W        W 8711  42.391   2.749  11.191
36986W        W 8712  35.795   4.784  10.672
36987W        W 8713  14.611   2.799   1.923
36988W        W 8714  22.114  37.112   3.374
36989W        W 8715  19.300  39.536  14.897
36990W        W 8716   8.764   8.381   1.417
36991W        W 8717  26.031  24.184   2.311
36992W        W 8718  12.835  41.488   1.303
36993W        W 8719  36.381  34.978  10.743
36994W        W 8720  36.263  28.185  12.670
36995W        W 8721   9.904  32.851   4.552
36996W        W 8722  23.875  12.713   9.774
36997W        W 8723  18.280  11.532  11.186
36998W        W 8724  29.927  11.365  14.900
36999W        W 8725  13.395  41.495   5.113
37000W        W 8726  44.217  36.787   0.793
37001W        W 8727   6.393  14.801   0.959
37002W        W 8728  42.952  25.571  12.364
37003W        W 8729  34.340  12.444  14.366
37004W        W 8730  33.936   4.206  11.740
37005W        W 8731  23.299  15.451  13.920
37006W        W 8732  32.449   4.474   3.270
37007W        W 8733   0.945  20.137  13.472
37008W        W 8734  42.252  27.885  11.712
37009W        W 8735  40.685  42.075   2.800
37010W        W 8736  36.111  25.619  11.503
37011W        W 8737  16.905  18.061   2.689
37012W        W 8738  15.522  25.290  10.223
37013W        W 8739  25.610   3.389   3.552
37014W        W 8740  27.457  27.155  11.201
37015W        W 8741  27.244  33.465   3.534
37016W        W 8742  37.098  31.278   4.075
37017W        W 8743  13.849  34.074   3.166
37018W        W 8744  40.935  34.446   2.798
37019W        W 8745  15.589  42.313   3.191
37020W        W 8746  25.581  34.468   0.651
37021W        W 8747  22.213  22.108   4.861
37022W        W 8748  43.395  37.759   0.823
37023W        W 8749  23.031  17.262  12.598
37024W        W 8750  25.653   5.364  13.773
37025W        W 8751  11.210  12.806  13.397
37026W        W 8752  25.671   1.782   1.667
37027W        W 8753  40.499  19.183   3.622
37028W        W 8754   3.733  21.021   0.089
37029W        W 8755  30.722  38.878  11.940
37030W        W 8756  36.852  43.376  10.518
37031W        W 8757  32.698  34.829   3.410
37032W        W 8758  11.706  18.149   3.238
37033W        W 8759  32.443   5.835   1.243
37034W        W 8760  40.067   5.705   2.331
37035W        W 8761  27.685  10.519   1.087
37036W        W 8762  17.500  32.615  12.575
37037W        W 8763  12.423  32.182   4.957
37038W        W 8764   8.449  21.383  12.894
37039W        W 8765  21.922  36.445  11.309
37040W        W 8766  34.898  25.459  13.905
37041W        W 8767  33.623  15.013   1.838
37042W        W 8768  28.695   0.362  14.701
37043W        W 8769  40.385   1.910   4.160
37044W        W 8770  30.593  18.694   1.730
37045W        W 8771  27.630   4.002  13.009
37046W        W 8772   9.665  12.843   2.568
37047W        W 8773  39.323   3.678   4.617
37048W        W 8774  11.697  23.534   4.182
37049W        W 8775   0.349   2.895   1.391
37050W        W 8776  20.595  43.126   0.461
37051W        W 8777  32.986  31.085   3.830
37052W        W 8778  28.122  36.999   0.902
37053W        W 8779  27.884  36.783   3.597
37054W        W 8780  10.242  22.598   0.243
37055W        W 8781  14.725  27.937  13.594
37056W        W 8782   3.971  36.582   4.456
37057W        W 8783  31.035  31.973   1.778
37058W        W 8784  36.779  29.097  14.440
37059W        W 8785  33.041  30.339   3.076
37060W        W 8786  29.185  12.721  11.598
37061W        W 8787  14.264  26.972  11.616
37062W        W 8788   5.352  28.499   3.651
37063W        W 8789  11.287  22.052  12.313
37064W        W 8790   7.876  28.571   4.536
37065W        W 8791  30.355  20.114   2.791
37066W        W 8792  18.229  23.107  12.821
37067W        W 8793   6.382   7.427  11.534
37068W        W 8794   8.102  35.909   2.299
37069W        W 8795  23.583  31.443  11.591
37070W        W 8796   1.395   1.383  12.956
37071W        W 8797  20.232   0.735  11.055
37072W        W 8798  44.853   5.833   4.676
37073W        W 8799   5.337  12.564  12.912
37074W        W 8800  18.957  15.279   1.372
37075W        W 8801   2.304  41.336   4.813
37076W        W 8802   1.231  13.899   4.116
37077W        W 8803  29.516  26.706  13.459
37078W        W 8804  23.484  23.208  11.198
37079W        W 8805  43.930  14.003  12.047
37080W        W 8806   2.798  17.523  14.356
37081W        W 8807   0.058   2.219  12.949
37082W        W 8808  42.879  12.839  11.514
37083W        W 8809  25.331  44.354   2.234
37084W        W 8810  41.454  19.508   2.762
37085W        W 8811  39.853  41.258  14.747
37086W        W 8812  35.988  43.946   3.200
37087W        W 8813   5.257  39.711  13.520
37088W        W 8814  31.443  43.270   4.247
37089W        W 8815  29.374  35.282   3.443
37090W        W 8816  32.460  40.867  11.702
37091W        W 8817  14.708  27.447  12.412
37092W        W 8818  42.882  33.106  11.420
37093W        W 8819   2.923  30.992  12.152
37094W        W 8820   1.435  16.797   3.542
37095W        W 8821   6.672  33.524  13.975
37096W        W 8822   5.060  24.659  12.897
37097W        W 8823  14.493  27.787  14.565
37098W        W 8824  40.492   9.438  13.482
37099W        W 8825   5.143  10.973   0.442
37100W        W 8826   7.461  26.033  12.083
37101W        W 8827  30.024  41.774  11.571
37102W        W 8828  28.008  19.256  11.537
37103W        W 8829  18.180  38.198   2.345
37104W        W 8830  34.944   5.001  11.673
37105W        W 8831  36.430  21.614  12.055
37106W        W 8832  22.519  34.589  12.002
37107W        W 8833  37.128  32.399   1.000
37108W        W 8834  41.749  21.426   0.955
37109W        W 8835  21.090  27.921   0.414
37110W        W 8836  26.982  19.298   4.046
37111W        W 8837  11.811  10.856  11.098
37112W        W 8838  31.944  31.561   3.606
37113W        W 8839  12.595  11.850   4.447
37114W        W 8840  21.487  24.468  11.997
37115W        W 8841  26.590  21.978   2.587
37116W        W 8842  19.279  32.618  14.742
37117W        W 8843  24.080   1.220   0.589
37118W        W 8844  19.044  25.498   0.406
37119W        W 8845  33.460  43.346   0.722
37120W        W 8846  11.219  26.138   0.488
37121W        W 8847  32.850  14.810  12.069
37122W        W 8848  14.800  37.813  11.643
37123W        W 8849  19.616   5.732  10.704
37124W        W 8850  44.858  26.950  13.648
37125W        W 8851  31.477  13.867  11.639
37126W        W 8852  17.077   2.191  14.946
37127W        W 8853  33.674  33.528  14.302
37128W        W 8854  21.063   0.606   1.382
37129W        W 8855  43.551   5.297   3.672
37130W        W 8856   7.921  28.499   2.268
37131W        W 8857  32.455   6.642   3.657
37132W        W 8858  23.853   3.241  13.695
37133W        W 8859   1.785  21.787   1.611
37134W        W 8860  41.281  40.372   0.282
37135W        W 8861  14.694   0.454  10.650
37136W        W 8862  24.439  11.340  11.134
37137W        W 8863  42.387  12.933   0.803
37138W        W 8864  10.245  44.889  11.200
37139W        W 8865  37.583  44.536   0.531
37140W        W 8866  22.808  15.885  12.990
37141W        W 8867  30.723  37.432  14.731
37142W        W 8868  17.098   8.368  14.885
37143W        W 8869  17.280  16.819  13.481
37144W        W 8870  38.494  30.167  13.003
37145W        W 8871  37.443  22.534  12.414
37146W        W 8872  41.295  27.944   1.407
37147W        W 8873  16.179  41.399   4.608
37148W        W 8874   9.399  16.218  13.518
37149W        W 8875   8.376   6.820  11.156
37150W        W 8876  14.372  37.820  12.380
37151W        W 8877   9.647  29.461  11.519
37152W        W 8878  43.388  40.985  10.658
37153W        W 8879   9.934  33.519   0.286
37154W        W 8880   1.638  34.421  12.892
37155W        W 8881  40.168  28.241   0.170
37156W        W 8882  20.223  31.705   2.247
37157W        W 8883  15.934  12.759  14.862
37158W        W 8884  30.143  16.399  11.181
37159W        W 8885  26.046  18.659   2.456
37160W        W 8886  25.403  12.050   1.370
37161W        W 8887  15.250  31.450   0.901
37162W        W 8888  29.028  20.268   1.178
37163W        W 8889  43.355  42.949   2.369
37164W        W 8890  36.989  30.943   2.771
37165W        W 8891  37.830  25.409   4.359
37166W        W 8892  35.781   5.959   4.692
37167W        W 8893  15.323  20.395   3.354
37168W        W 8894  15.203  36.627  14.820
37169W        W 8895  41.747  28.179  14.425
37170W        W 8896  20.162  36.819  13.802
37171W        W 8897  11.889  22.619   3.666
37172W        W 8898  35.365  12.607  10.734
37173W        W 8899  35.812  38.347   1.718
37174W        W 8900  16.100  36.778   4.382
37175W        W 8901  14.152  30.116   3.329
37176W        W 8902  15.170  30.817   3.798
37177W        W 8903  37.045  18.506  13.924
37178W        W 8904   2.530  34.592  14.920
37179W        W 8905  14.413  29.011   0.885
37180W        W 8906  29.510  32.545   3.842
37181W        W 8907  41.765  37.712   5.006
37182W        W 8908  12.700  30.333  11.141
37183W        W 8909  41.481  22.129   2.921
37184W        W 8910  33.597  23.512   0.126
37185W        W 8911   9.462   0.300   3.765
37186W        W 8912  26.225  26.688   1.707
37187W        W 8913  25.125  33.408  11.235
37188W        W 8914  37.371  40.379  14.221
37189W        W 8915  44.476  22.386   3.702
37190W        W 8916  18.156  19.824   4.522
37191W        W 8917  31.414  28.230  14.459
37192W        W 8918  17.148  28.596  12.324
37193W        W 8919   7.281   8.010   3.129
37194W        W 8920   3.651  17.592   2.758
37195W        W 8921   8.085  37.324  11.211
37196W        W 8922  31.648  16.331   4.033
37197W        W 8923  15.239  16.294   4.186
37198W        W 8924   2.746  22.081  13.839
37199W        W 8925  31.405  11.150   0.570
37200W        W 8926  16.972  29.246  12.990
37201W        W 8927   0.983  18.802   3.207
37202W        W 8928  37.148  37.293   4.256
37203W        W 8929   0.923  25.087   3.929
37204W        W 8930   4.896   4.571  12.305
37205W        W 8931  36.434  10.089   3.667
37206W        W 8932   6.423  17.110  14.444
37207W        W 8933  28.456  10.310  14.032
37208W        W 8934  14.537  37.530   0.386
37209W        W 8935   7.216  12.331   4.398
37210W        W 8936   8.345  41.058   4.227
37211W        W 8937  39.591  22.785  11.858
37212W        W 8938  19.052  44.467   1.981
37213W        W 8939  44.908   2.575  13.397
37214W        W 8940  11.422  19.797  12.407
37215W        W 8941  18.119   6.920  10.809
37216W        W 8942  38.227  38.035   4.558
37217W        W 8943   4.008  44.210   2.193
37218W        W 8944   7.106  40.452  13.379
37219W        W 8945  17.835  29.691  14.281
37220W        W 8946  26.520  30.547   4.225
37221W        W 8947  20.707  15.760  11.192
37222W        W 8948   6.794  36.841  12.050
37223W        W 8949  22.761  22.347  12.531
37224W        W 8950  35.602   4.973   3.797
37225W        W 8951   0.187   5.839  10.907
37226W        W 8952  19.953  31.123   0.333
37227W        W 8953  18.165  36.992  13.986
37228W        W 8954  27.977  24.758   1.467
37229W        W 8955  43.805  26.548  13.457
37230W        W 8956  24.631  11.263   4.354
37231W        W 8957  16.369  16.565   1.907
37232W        W 8958  21.950  12.811   1.361
37233W        W 8959  36.425  28.768   0.325
37234W        W 8960  33.355  26.666   3.174
37235W        W 8961   9.634   9.577   1.363
37236W        W 8962  44.957   3.783  14.867
37237W        W 8963  22.165  42.239  11.542
37238W        W 8964  29.205  41.749   3.826
37239W        W 8965  21.079   8.863  10.662
37240W        W 8966  42.076  27.111  12.394
37241W        W 8967  43.047  11.750   2.319
37242W        W 8968  13.156  24.845   2.746
37243W        W 8969   1.869  24.272   3.797
37244W        W 8970  41.371  24.903   0.777
37245W        W 8971   4.404  34.767   2.109
37246W        W 8972  19.231  38.933   1.809
37247W        W 8973  35.661   6.109  11.099
37248W        W 8974   0.383  21.468  14.002
37249W        W 8975  30.432   1.760  14.373
37250W        W 8976  23.527  10.015   2.205
37251W        W 8977  26.605  18.834   0.764
37252W        W 8978  28.564  36.548   3.727
37253W        W 8979  44.354  15.615   1.676
37254W        W 8980  37.490  24.523  11.524
37255W        W 8981  11.665   6.211  14.479
37256W        W 8982  27.217   0.341  11.119
37257W        W 8983   1.938  42.869   4.072
37258W        W 8984   9.883  13.740   1.407
37259W        W 8985  29.104   5.265  14.470
37260W        W 8986  35.906  15.895   3.231
37261W        W 8987   2.555   3.121  14.468
37262W        W 8988  30.162  16.545   0.795
37263W        W 8989  37.877  30.895   3.097
37264W        W 8990  23.028  14.564   3.226
37265W        W 8991  29.369  38.116  12.657
37266W        W 8992  29.118   7.301  13.069
37267W        W 8993   2.857  31.659  14.947
37268W        W 8994  17.014  34.502   3.325
37269W        W 8995  25.139  16.757   4.368
37270W        W 8996  26.216   6.836   2.669
37271W        W 8997  31.596  35.123   2.182
37272W        W 8998   6.178  24.912  14.912
37273W        W 8999   2.678  21.081   1.706
37274W        W 9000  18.596  22.694  13.072
37275W        W 9001  13.752  40.700   4.206
37276W        W 9002  33.422  16.338  11.603
37277W        W 9003  42.313  26.157   1.807
37278W        W 9004  21.524  13.355   2.739
37279W        W 9005   5.046   8.283  11.379
37280W        W 9006  21.372  15.204  11.532
37281W        W 9007  34.930   5.221   2.654
37282W        W 9008  24.883  27.002  10.657
37283W        W 9009   0.003   4.941  10.956
37284W        W 9010  16.036  10.299  14.676
37285W        W 9011  16.090  17.092  12.888
37286W        W 9012   5.303  19.027   1.660
37287W        W 9013  17.653  42.909  11.635
37288W        W 9014  17.286  14.712   2.768
37289W        W 9015  11.164  15.173   1.079
37290W        W 9016  39.439  25.897   1.324
37291W        W 9017  13.400  25.018  13.193
37292W        W 9018   7.817  23.573   1.960
37293W        W 9019  29.519  35.376   2.948
37294W        W 9020  44.199  38.346  13.007
37295W        W 9021  27.925  24.000  14.903
37296W        W 9022  36.104  44.656  11.209
37297W        W 9023  17.978  18.815  14.032
37298W        W 9024  38.061  29.089   2.663
37299W        W 9025  20.500  31.158   4.566
37300W        W 9026  24.132  20.474  11.068
37301W        W 9027   3.011  14.862  14.382
37302W        W 9028  16.217  24.457  14.335
37303W        W 9029   4.784  12.791  10.123
37304W        W 9030   8.837   6.586  10.561
37305W        W 9031  16.001  14.058  11.081
37306W        W 9032  40.702  13.306  14.775
37307W        W 9033  42.569  38.964  13.140
37308W        W 9034  28.508  32.622  13.783
37309W        W 9035  17.833  22.131  12.856
37310W        W 9036   3.774  12.264  12.431
37311W        W 9037  31.400  16.472   1.702
37312W        W 9038  39.906  15.604  12.344
37313W        W 9039  22.461  10.902   2.295
37314W        W 9040  23.230  32.559  14.281
37315W        W 9041  40.512   0.574   4.161
37316W        W 9042  34.980  23.030   1.824
37317W        W 9043  28.600  42.481  12.392
37318W        W 9044  27.223  15.826   0.507
37319W        W 9045   3.695  39.550   2.128
37320W        W 9046  34.762  29.823   1.292
37321W        W 9047  20.209   5.862  14.027
37322W        W 9048  11.065  34.131   9.739
37323W        W 9049  13.316   1.397  13.977
37324W        W 9050   7.439  19.162   1.410
37325W        W 9051  21.989   2.943  13.290
37326W        W 9052  18.828  22.142  11.081
37327W        W 9053  42.247  10.171   5.054
37328W        W 9054  18.872  34.402   1.380
37329W        W 9055  35.078  29.524  11.688
37330W        W 9056  31.445  35.156  14.794
37331W        W 9057  35.826  22.270   3.887
37332W        W 9058   2.022  34.006   3.260
37333W        W 9059  12.850   9.671   2.310
37334W        W 9060  31.618  40.037  11.255
37335W        W 9061  20.725  10.960  11.970
37336W        W 9062   5.294  41.295  13.982
37337W        W 9063   3.900   8.308   0.053
37338W        W 9064  26.194  36.482   0.350
37339W        W 9065   3.969  35.610   1.757
37340W        W 9066   0.976   2.392  11.156
37341W        W 9067  20.999   8.774   3.172
37342W        W 9068  38.642  41.760   4.818
37343W        W 9069  13.653  24.494   3.566
37344W        W 9070  22.528   6.724   3.338
37345W        W 9071  44.338   6.053   0.461
37346W        W 9072  12.040  30.001   0.366
37347W        W 9073  37.458  25.615  11.920
37348W        W 9074  32.611   1.706  11.682
37349W        W 9075  12.226   3.770   4.938
37350W        W 9076   5.966  13.992   0.450
37351W        W 9077   9.420   0.701  13.301
37352W        W 9078  27.431  36.487  14.670
37353W        W 9079  30.118  29.403  10.985
37354W        W 9080  27.674  31.605   2.002
37355W        W 9081  14.195  14.076  14.801
37356W        W 9082   2.652  44.801  11.506
37357W        W 9083  27.949   9.172   3.746
37358W        W 9084  39.839  37.819   3.825
37359W        W 9085   3.445  20.731   2.750
37360W        W 9086  15.737  40.270   1.343
37361W        W 9087   4.686  36.495  13.803
37362W        W 9088  20.471  41.999   2.666
37363W        W 9089   9.737  40.396  12.972
37364W        W 9090  25.762  33.899  11.532
37365W        W 9091  16.572  31.923   0.198
37366W        W 9092  24.077  12.161   1.804
37367W        W 9093  41.188   6.961  11.190
37368W        W 9094  23.034  30.580   3.955
37369W        W 9095  43.664   7.483  14.714
37370W        W 9096  23.419  20.631  11.113
37371W        W 9097  28.651  37.903  13.033
37372W        W 9098  32.919  14.215   0.980
37373W        W 9099  25.487  36.066   4.094
37374W        W 9100  13.754  22.229  13.773
37375W        W 9101  40.083  38.793   2.720
37376W        W 9102  24.626  36.126   2.695
37377W        W 9103  27.387  25.626  12.998
37378W        W 9104  11.166   2.363  12.954
37379W        W 9105  43.723  12.049   3.548
37380W        W 9106   2.109  43.782   4.999
37381W        W 9107  38.936   0.467  12.455
37382W        W 9108  37.511   8.375   4.551
37383W        W 9109  18.488  32.433   2.311
37384W        W 9110  22.866  32.200  11.083
37385W        W 9111  29.990  22.121  10.980
37386W        W 9112  26.640  14.314   2.888
37387W        W 9113   0.453   5.942   0.912
37388W        W 9114  18.349  38.948   1.618
37389W        W 9115   2.781  33.698  10.899
37390W        W 9116  16.231   3.684   1.623
37391W        W 9117  13.866   0.524  14.820
37392W        W 9118  19.512   0.895  10.656
37393W        W 9119   3.826  15.364  13.418
37394W        W 9120   6.267  19.999   1.869
37395W        W 9121  37.893  44.733  11.988
37396W        W 9122  10.418  30.617   0.336
37397W        W 9123  43.789  43.131  11.594
37398W        W 9124   0.794  38.569   3.653
37399W        W 9125   4.288  33.883  12.698
37400W        W 9126  39.732   2.896   1.806
37401W        W 9127  17.628  15.697   2.422
37402W        W 9128   5.373  16.806   0.931
37403W        W 9129  32.386   2.016  14.809
37404W        W 9130  19.620   7.914   3.232
37405W        W 9131  21.520  23.108   2.632
37406W        W 9132  10.920   5.202   3.223
37407W        W 9133  28.025  36.108   1.675
37408W        W 9134  23.789  10.620  10.947
37409W        W 9135  32.657   7.666   1.159
37410W        W 9136   0.701  38.930  10.579
37411W        W 9137  36.000  30.791   1.467
37412W        W 9138  10.550   3.344  10.733
37413W        W 9139  40.420  10.946  13.507
37414W        W 9140   5.324  44.695   2.749
37415W        W 9141  12.442  15.717  13.791
37416W        W 9142  32.124   7.420   3.666
37417W        W 9143  42.454   4.680  13.813
37418W        W 9144  28.938  12.818   0.656
37419W        W 9145  37.829  12.430   0.328
37420W        W 9146  35.365  15.687  12.570
37421W        W 9147  32.962  14.574   4.566
37422W        W 9148   0.991   5.658   3.306
37423W        W 9149  23.326  37.897  13.897
37424W        W 9150  17.196  29.628   0.710
37425W        W 9151  29.707  11.647   4.360
37426W        W 9152   0.684  34.507   2.735
37427W        W 9153  26.133  37.656  13.502
37428W        W 9154  33.447   2.146  12.448
37429W        W 9155   8.843  37.591  10.793
37430W        W 9156  42.452   3.345   2.346
37431W        W 9157  37.619  37.913  11.959
37432W        W 9158   6.192  14.206  12.147
37433W        W 9159  10.685  14.309  10.789
37434W        W 9160  42.059   2.026   4.229
37435W        W 9161  24.999  12.344  11.904
37436W        W 9162  34.780  25.776  11.521
37437W        W 9163  23.187  26.062  13.799
37438W        W 9164  19.662  42.028  13.337
37439W        W 9165  16.773  34.578   0.959
37440W        W 9166  37.897  27.062   1.047
37441W        W 9167  26.955   9.888   1.525
37442W        W 9168   2.604  23.435   2.757
37443W        W 9169  11.210   8.677   4.757
37444W        W 9170   5.439  21.910  12.954
37445W        W 9171  41.838  10.857   3.630
37446W        W 9172   7.242  15.671  13.328
37447W        W 9173  13.343  34.934  10.384
37448W        W 9174  32.210  30.145   3.897
37449W        W 9175  34.580  32.647  12.461
37450W        W 9176   9.624  22.416   5.029
37451W        W 9177  36.005  38.896  12.791
37452W        W 9178  36.548  20.296   0.453
37453W        W 9179  15.619  39.441  13.997
37454W        W 9180  33.958  30.429   4.101
37455W        W 9181  38.475  44.181   4.298
37456W        W 9182  11.887  28.930  11.678
37457W        W 9183  25.615   0.679  11.514
37458W        W 9184  42.702  18.509  13.807
37459W        W 9185  24.600  15.179   3.631
37460W        W 9186  27.536  40.520  14.384
37461W        W 9187  43.661  25.393   2.346
37462W        W 9188  44.945  35.796   2.739
37463W        W 9189  20.111  27.358  10.791
37464W        W 9190  19.395  26.568   4.584
37465W        W 9191  38.787  19.551  10.715
37466W        W 9192   2.677   8.757  13.790
37467W        W 9193  42.523  17.033  14.921
37468W        W 9194  19.163  43.604   3.552
37469W        W 9195  10.167  32.232   3.914
37470W        W 9196  23.749  17.561  13.000
37471W        W 9197   0.414  38.640  14.306
37472W        W 9198  31.120  40.849  11.258
37473W        W 9199  21.048   8.624   3.665
37474W        W 9200  31.639  12.415   3.488
37475W        W 9201  21.894  28.962  13.841
37476W        W 9202   3.775  14.795   5.002
37477W        W 9203  25.532  22.887   0.497
37478W        W 9204   8.168  34.882   5.317
37479W        W 9205  42.968  25.193   3.164
37480W        W 9206  43.752  39.587  12.348
37481W        W 9207  37.716  44.728  11.076
37482W        W 9208  20.068  36.426  12.161
37483W        W 9209   1.390   4.164  14.489
37484W        W 9210  30.403  27.589   4.800
37485W        W 9211  27.579  31.951   1.379
37486W        W 9212  21.971  22.537   0.380
37487W        W 9213   5.319  13.001  12.658
37488W        W 9214  15.426   3.251  14.105
37489W        W 9215  20.518  38.268  14.802
37490W        W 9216   8.612   1.330   3.310
37491W        W 9217  21.624   3.958  14.362
37492W        W 9218   7.926  15.767   0.312
37493W        W 9219  37.891  33.318   2.250
37494W        W 9220  43.291  41.024  14.962
37495W        W 9221  32.003  30.363   4.631
37496W        W 9222   0.328  22.296  13.435
37497W        W 9223  39.554  15.595  13.120
37498W        W 9224   7.986  13.944  12.424
37499W        W 9225  23.484  15.171   0.857
37500W        W 9226  34.726  20.891   3.844
37501W        W 9227   1.918  27.038   4.685
37502W        W 9228  40.769  43.440   4.289
37503W        W 9229  40.440   8.241  13.330
37504W        W 9230  18.880  17.133  10.587
37505W        W 9231  24.154  23.203  12.479
37506W        W 9232  30.108  17.454   2.665
37507W        W 9233  15.659  29.533   2.316
37508W        W 9234  38.373   4.772   0.043
37509W        W 9235  17.064  44.251  14.873
37510W        W 9236  22.205  32.587   1.005
37511W        W 9237  27.187  11.607   3.759
37512W        W 9238  32.068  17.266  12.898
37513W        W 9239  35.134   8.463   3.358
37514W        W 9240  40.719  39.912   1.813
37515W        W 9241   9.252  25.054  12.621
37516W        W 9242   6.846   2.328  10.549
37517W        W 9243  39.004  27.001  11.928
37518W        W 9244  15.258   0.948  14.844
37519W        W 9245  29.637  31.899  14.895
37520W        W 9246  18.858  37.328   0.985
37521W        W 9247  43.416  27.452   3.242
37522W        W 9248   8.111  39.869   2.237
37523W        W 9249  23.929   6.213   2.143
37524W        W 9250   9.239  14.036  11.931
37525W        W 9251  44.107  37.616  12.613
37526W        W 9252  16.422  12.901  14.816
37527W        W 9253  39.875   5.367   1.920
37528W        W 9254  27.575  26.611  13.043
37529W        W 9255  35.841  20.810   0.813
37530W        W 9256   4.367  44.503   0.884
37531W        W 9257  31.423  12.278   4.332
37532W        W 9258  22.454  32.929   1.719
37533W        W 9259   7.676  11.113  11.885
37534W        W 9260  43.880   8.800   0.536
37535W        W 9261  35.224   3.748   0.471
37536W        W 9262  35.105  25.157  12.411
37537W        W 9263  43.944  40.749  12.681
37538W        W 9264  16.974  33.997  10.451
37539W        W 9265  21.020  21.254  12.466
37540W        W 9266  26.955  25.963   4.653
37541W        W 9267   5.390   8.013  10.108
37542W        W 9268   2.283  34.930  13.094
37543W        W 9269  23.285  44.240  12.452
37544W        W 9270  12.087  15.122  10.852
37545W        W 9271  11.032  11.749   1.272
37546W        W 9272  39.060   3.696   3.373
37547W        W 9273  25.556  12.007   3.561
37548W        W 9274  35.459  34.110   1.195
37549W        W 9275  26.066  31.922  11.074
37550W        W 9276  26.461  43.274   1.379
37551W        W 9277  22.606  15.571   0.780
37552W        W 9278  41.862  23.518  13.375
37553W        W 9279  29.598  30.108  11.139
37554W        W 9280  27.723  14.991  14.420
37555W        W 9281   4.866   9.229   4.058
37556W        W 9282  43.762  31.974   1.386
37557W        W 9283   8.835  23.231   4.254
37558W        W 9284  32.477  27.375   0.417
37559W        W 9285  13.432  24.232  13.621
37560W        W 9286  20.809  41.887  13.910
37561W        W 9287   6.509  40.455  11.687
37562W        W 9288  39.581   8.298   0.740
37563W        W 9289   0.575  13.927  11.000
37564W        W 9290  39.206  31.440  11.191
37565W        W 9291  18.181  21.314  13.802
37566W        W 9292  26.539  18.103   4.265
37567W        W 9293   5.501   7.741  12.369
37568W        W 9294  41.565  13.319  12.446
37569W        W 9295  43.706  14.489   3.612
37570W        W 9296  32.061  41.332   5.121
37571W        W 9297  44.324   5.181   0.214
37572W        W 9298   1.158  34.613   4.282
37573W        W 9299  16.593  23.291  11.177
37574W        W 9300  33.441  43.097   2.749
37575W        W 9301  27.526  19.795   4.825
37576W        W 9302  11.643  33.081  14.530
37577W        W 9303   4.921  25.759  11.142
37578W        W 9304  23.507  24.508  10.655
37579W        W 9305  42.123  34.484  10.714
37580W        W 9306   4.965  30.997  11.129
37581W        W 9307  19.470  37.007  11.388
37582W        W 9308   5.817   6.148   3.355
37583W        W 9309  44.017   5.917  13.813
37584W        W 9310  39.926  23.833  14.879
37585W        W 9311  41.464  21.502   0.466
37586W        W 9312  42.911  22.110   4.534
37587W        W 9313   2.043  37.851   3.782
37588W        W 9314  25.036   0.769   0.604
37589W        W 9315   6.989  18.076  14.856
37590W        W 9316  36.592  27.700   2.202
37591W        W 9317   3.603  15.275   2.305
37592W        W 9318   8.649  43.453  13.277
37593W        W 9319  15.837  15.999  11.259
37594W        W 9320  34.353  42.969  11.918
37595W        W 9321   4.221  13.467   1.183
37596W        W 9322   1.298   2.458   2.691
37597W        W 9323  20.574  35.505  10.743
37598W        W 9324  12.259   8.190  12.585
37599W        W 9325  26.543  43.471  12.159
37600W        W 9326  34.766  38.331  13.986
37601W        W 9327   3.834   0.193  11.575
37602W        W 9328  22.502  12.087   1.407
37603W        W 9329  28.168   1.162  11.608
37604W        W 9330  18.975  11.392  11.930
37605W        W 9331  42.361  18.148  14.452
37606W        W 9332  22.810   5.959  12.440
37607W        W 9333  24.547   6.189  14.452
37608W        W 9334  26.418  20.624  11.905
37609W        W 9335  24.159  41.435  11.201
37610W        W 9336   1.019   8.421   1.039
37611W        W 9337  19.943  44.271   4.532
37612W        W 9338  22.067  23.398   0.662
37613W        W 9339  15.326  39.107   0.707
37614W        W 9340  40.804   1.979  13.873
37615W        W 9341  31.132  43.442   0.579
37616W        W 9342  23.966  24.920   3.218
37617W        W 9343   5.974   0.568   3.411
37618W        W 9344  38.376   7.917   1.986
37619W        W 9345  14.242  20.240   5.084
37620W        W 9346   7.595   5.804   3.183
37621W        W 9347  37.394   0.498  13.059
37622W        W 9348  14.732  41.994   0.749
37623W        W 9349  19.534  40.583   0.815
37624W        W 9350  20.239  40.313  13.505
37625W        W 9351  34.796  35.483   2.752
37626W        W 9352  29.158  19.990   4.234
37627W        W 9353  32.163  19.445  12.692
37628W        W 9354  34.602  38.059  11.569
37629W        W 9355   3.986  35.445   0.408
37630W        W 9356  40.994   2.168   2.746
37631W        W 9357  41.972   8.459  10.571
37632W        W 9358  31.891  24.075  14.192
37633W        W 9359  32.145  19.205   4.837
37634W        W 9360  38.808   9.207  14.465
37635W        W 9361  14.236   4.669   1.116
37636W        W 9362   8.365  28.581   4.373
37637W        W 9363   0.711  15.410   4.257
37638W        W 9364   3.715  15.294   3.720
37639W        W 9365   0.665  14.839   1.308
37640W        W 9366  43.507   2.436  12.966
37641W        W 9367  11.820  23.177  12.350
37642W        W 9368  16.588  27.083  13.385
37643W        W 9369  37.694   8.270   5.051
37644W        W 9370  11.323  23.729  14.260
37645W        W 9371   3.139  18.621  12.053
37646W        W 9372  34.284  14.746  12.035
37647W        W 9373  25.247  16.796   0.849
37648W        W 9374  15.158  38.889   5.121
37649W        W 9375  42.864  39.635   1.101
37650W        W 9376   6.825  35.421  13.516
37651W        W 9377  16.280  15.124  10.947
37652W        W 9378  42.062  37.244   2.380
37653W        W 9379  26.948  26.019  14.388
37654W        W 9380   7.250  27.460   0.691
37655W        W 9381  13.737   7.876  12.115
37656W        W 9382  44.926   9.211  12.509
37657W        W 9383  35.322  36.947   3.260
37658W        W 9384  27.450  15.797  14.257
37659W        W 9385  14.875  13.677   4.490
37660W        W 9386  21.015  26.716  10.699
37661W        W 9387  23.647  42.947  14.275
37662W        W 9388   7.878  30.373  13.889
37663W        W 9389  43.784  22.598   4.280
37664W        W 9390  42.192  43.104   3.282
37665W        W 9391   0.389  43.912   2.101
37666W        W 9392  41.091   9.774   3.608
37667W        W 9393  33.137  38.299   3.633
37668W        W 9394   0.260  28.539  11.115
37669W        W 9395  18.975   7.673  14.425
37670W        W 9396   0.760  15.159  12.002
37671W        W 9397  26.582   4.040   0.020
37672W        W 9398  23.235   3.213  11.664
37673W        W 9399  12.213  40.597  11.540
37674W        W 9400   7.678  39.572   4.111
37675W        W 9401  14.151  41.859   5.021
37676W        W 9402  14.374   7.166   2.849
37677W        W 9403  11.377  23.727   1.207
37678W        W 9404  35.753  29.589  11.208
37679W        W 9405  20.707  16.779  10.279
37680W        W 9406  28.873  34.027   3.889
37681W        W 9407  26.192  10.743   3.995
37682W        W 9408  17.222  38.309   2.847
37683W        W 9409   0.791  41.610  10.051
37684W        W 9410  25.756  32.916   1.854
37685W        W 9411  24.180  17.536  12.679
37686W        W 9412  24.273   4.568  13.822
37687W        W 9413   9.302  30.184   4.140
37688W        W 9414  22.017  25.640   9.852
37689W        W 9415  17.520   5.753  13.081
37690W        W 9416  43.925   6.820  13.344
37691W        W 9417  10.633  12.235   1.890
37692W        W 9418  38.387  13.215   4.674
37693W        W 9419  14.576  44.398   1.883
37694W        W 9420  27.383  43.848   4.619
37695W        W 9421   5.668  16.913   2.342
37696W        W 9422  33.897  34.528   2.809
37697W        W 9423  20.106   3.249  12.903
37698W        W 9424  43.979  13.365  13.896
37699W        W 9425   1.270  32.557   4.135
37700W        W 9426  31.432  34.611  14.816
37701W        W 9427  17.430  36.636   2.336
37702W        W 9428  23.014  15.284   5.482
37703W        W 9429  27.953  15.783  14.451
37704W        W 9430  26.404   1.847   0.180
37705W        W 9431  14.800  19.766   1.671
37706W        W 9432  16.207  20.875  10.051
37707W        W 9433  27.296  19.288  12.847
37708W        W 9434   8.171   6.334  11.185
37709W        W 9435  27.560   3.443  13.460
37710W        W 9436  35.632  24.466   0.695
37711W        W 9437  39.461  21.552  10.656
37712W        W 9438  22.144  23.226  14.334
37713W        W 9439  13.851  42.034   3.589
37714W        W 9440  18.090  39.863   1.364
37715W        W 9441   3.996  16.079  11.810
37716W        W 9442   7.442  43.272  12.029
37717W        W 9443  27.119  14.530   0.944
37718W        W 9444  26.569  14.843   3.537
37719W        W 9445  34.920  43.306   1.461
37720W        W 9446   2.831   6.538  14.512
37721W        W 9447  37.343  32.561   2.904
37722W        W 9448  25.471  33.978   0.820
37723W        W 9449  20.430   9.192   4.189
37724W        W 9450  26.062   2.919  14.452
37725W        W 9451  16.095  41.140   4.166
37726W        W 9452  11.438  33.954  12.968
37727W        W 9453  29.443  39.528  10.993
37728W        W 9454  44.735  14.555   3.677
37729W        W 9455  30.404  37.107  14.506
37730W        W 9456  26.228  15.241   2.832
37731W        W 9457  44.453  41.580  11.004
37732W        W 9458  31.516  27.079  10.233
37733W        W 9459  31.407  31.064   0.688
37734W        W 9460  18.002  39.996  11.524
37735W        W 9461   5.383  14.377  11.610
37736W        W 9462   0.589  34.012   1.814
37737W        W 9463  15.240   5.723   1.832
37738W        W 9464  14.839  35.940   0.771
37739W        W 9465  25.433  12.252  12.615
37740W        W 9466  21.931  21.306   0.805
37741W        W 9467  37.700  27.204   2.400
37742W        W 9468  20.999  12.786   0.426
37743W        W 9469   5.583  32.558  13.839
37744W        W 9470  30.323   1.605   4.740
37745W        W 9471   7.938  20.227   1.310
37746W        W 9472  11.339  16.062   3.760
37747W        W 9473  30.960  39.570   1.419
37748W        W 9474  19.134   8.619   1.912
37749W        W 9475  39.177  21.186  12.798
37750W        W 9476  21.628  31.682   1.963
37751W        W 9477  36.649   5.955  12.554
37752W        W 9478  27.457  12.122   1.249
37753W        W 9479   2.686   3.066   2.803
37754W        W 9480  13.134   8.749   5.076
37755W        W 9481   6.857  26.620   2.301
37756W        W 9482  19.033  16.963   3.346
37757W        W 9483  16.639  30.339  10.870
37758W        W 9484  35.951  41.749  11.138
37759W        W 9485  13.815  23.722  13.764
37760W        W 9486  34.038  35.943   4.094
37761W        W 9487  19.283  32.829  10.739
37762W        W 9488   8.327  11.999  13.582
37763W        W 9489  29.592  37.496  12.980
37764W        W 9490  29.486  32.203  11.101
37765W        W 9491  28.730   9.617   3.750
37766W        W 9492  23.734  39.132  12.352
37767W        W 9493  25.390  13.326  12.384
37768W        W 9494  30.966   3.460  10.969
37769W        W 9495  32.597  17.672  10.334
37770W        W 9496   0.277   8.759   1.828
37771W        W 9497  10.340   0.528   4.069
37772W        W 9498   1.275  41.906  10.663
37773W        W 9499  42.258  30.446   0.194
37774W        W 9500  13.334   0.280  14.775
37775W        W 9501  12.783  25.969  11.993
37776W        W 9502  38.368   5.775  10.654
37777W        W 9503  27.559  42.541  14.002
37778W        W 9504  17.699  25.678  12.112
37779W        W 9505  31.916  19.360   1.271
37780W        W 9506  43.985  24.498   4.500
37781W        W 9507   5.799  38.396  13.402
37782W        W 9508  34.141  37.651   2.379
37783W        W 9509  43.347  20.746   1.993
37784W        W 9510   2.871  44.514  12.680
37785W        W 9511   2.101  16.939   0.505
37786W        W 9512  10.726  44.396   1.018
37787W        W 9513  34.009  40.338  12.701
37788W        W 9514  14.197   6.348   2.844
37789W        W 9515  17.156  41.588  13.881
37790W        W 9516  33.073  28.949   0.412
37791W        W 9517  31.988  13.692  14.549
37792W        W 9518  39.149   9.160  11.535
37793W        W 9519  16.572  38.944  14.838
37794W        W 9520  24.568  10.709  10.955
37795W        W 9521  20.585  13.532   0.326
37796W        W 9522  19.514  11.615   1.387
37797W        W 9523  32.620  22.699   1.192
37798W        W 9524   6.381  29.867  12.673
37799W        W 9525  25.510  21.088   0.161
37800W        W 9526   6.310  16.344  12.490
37801W        W 9527  14.629  10.275   5.109
37802W        W 9528   9.577  43.542   3.619
37803W        W 9529   8.369  30.873   3.674
37804W        W 9530  21.001  25.185   1.793
37805W        W 9531  36.835  38.555   2.739
37806W        W 9532   0.425   3.899   3.315
37807W        W 9533  22.174  13.590   1.420
37808W        W 9534  42.800  37.902  10.651
37809W        W 9535  42.093  23.231   3.253
37810W        W 9536  35.326  14.235  13.321
37811W        W 9537  33.503  12.747  12.426
37812W        W 9538  37.335  39.878   3.165
37813W        W 9539  31.603   3.864  14.814
37814W        W 9540  12.708  24.086  11.665
37815W        W 9541  14.764  15.218  13.313
37816W        W 9542   2.239   3.274   4.851
37817W        W 9543  31.506   3.536   3.645
37818W        W 9544  26.531  36.146   1.031
37819W        W 9545   1.548   1.682   0.199
37820W        W 9546  43.692   8.796  12.158
37821W        W 9547  32.163   9.812   1.762
37822W        W 9548  42.018   6.998   4.179
37823W        W 9549   7.438  34.476   9.808
37824W        W 9550  13.047  34.559  11.125
37825W        W 9551  26.187  41.722   4.653
37826W        W 9552  41.994  25.022   4.349
37827W        W 9553  33.636  30.879   2.390
37828W        W 9554   5.769  12.393  11.936
37829W        W 9555  29.491  29.966   2.436
37830W        W 9556  10.123  27.321   0.390
37831W        W 9557   6.913  14.400   4.501
37832W        W 9558  32.181  44.762  10.108
37833W        W 9559  19.759  24.974   4.777
37834W        W 9560  40.603  23.742   1.794
37835W        W 9561   6.350  39.485   3.666
37836W        W 9562   2.434  42.097  14.245
37837W        W 9563   4.007  36.828   0.563
37838W        W 9564  34.120   0.516  11.707
37839W        W 9565   7.894  41.060  11.096
37840W        W 9566  35.493  35.036  11.675
37841W        W 9567  16.236  29.512   1.654
37842W        W 9568  16.164  16.064   2.168
37843W        W 9569  38.276  44.855   4.672
37844W        W 9570  19.109  26.414   0.422
37845W        W 9571   2.841  42.508  13.242
37846W        W 9572  43.972  34.506  11.364
37847W        W 9573  31.994  39.550   4.726
37848W        W 9574  41.793  44.336  10.812
37849W        W 9575  24.711  28.501  13.970
37850W        W 9576  22.564   3.915   4.056
37851W        W 9577  43.966  29.005   2.645
37852W        W 9578  30.443  28.128  10.797
37853W        W 9579  20.852   5.166  13.490
37854W        W 9580  25.001  41.827  12.819
37855W        W 9581   3.019  27.851  12.161
37856W        W 9582   4.978  44.924   1.422
37857W        W 9583  25.400  38.748  13.855
37858W        W 9584  28.211  16.166  12.979
37859W        W 9585  16.344  40.274  12.559
37860W        W 9586  22.048   0.621  11.521
37861W        W 9587  29.313  31.465  13.736
37862W        W 9588  41.968  34.919  13.399
37863W        W 9589  20.930  22.683   4.222
37864W        W 9590  10.177  17.656   4.033
37865W        W 9591  15.189  43.828  11.145
37866W        W 9592  23.096  31.081   4.688
37867W        W 9593  30.960  28.648  11.896
37868W        W 9594  28.338  22.734   2.332
37869W        W 9595   5.699  39.252   0.493
37870W        W 9596  35.689   9.625   2.139
37871W        W 9597  16.273   6.028  14.367
37872W        W 9598   8.360   9.510  13.583
37873W        W 9599  38.482   7.940   1.447
37874W        W 9600   5.474  19.249   4.877
37875W        W 9601  37.177  23.237   3.498
37876W        W 9602  41.077  43.680  11.663
37877W        W 9603   8.886  15.175   2.417
37878W        W 9604  41.397  15.790   1.190
37879W        W 9605  31.366   0.200  11.210
37880W        W 9606  21.288  25.597   2.597
37881W        W 9607  33.769  22.726   1.342
37882W        W 9608  14.136   1.369  13.811
37883W        W 9609  27.646  38.644   2.804
37884W        W 9610  34.162  20.606  10.660
37885W        W 9611   1.262  12.176   2.763
37886W        W 9612  26.867  21.532   4.649
37887W        W 9613  18.090  35.998   3.284
37888W        W 9614  30.856  27.530   3.934
37889W        W 9615  19.108  35.563  14.340
37890W        W 9616   4.769   5.854  13.457
37891W        W 9617  30.474  29.065  14.806
37892W        W 9618  35.390  29.154   0.436
37893W        W 9619  12.614  39.031   2.770
37894W        W 9620  44.001  29.483  11.246
37895W        W 9621   5.290  22.879  12.797
37896W        W 9622  39.964  22.720   4.479
37897W        W 9623  40.440   2.657   1.428
37898W        W 9624   4.975  34.964  14.294
37899W        W 9625   2.026  34.355  11.505
37900W        W 9626  32.488  33.844   0.666
37901W        W 9627  31.997   9.236  13.149
37902W        W 9628  19.659  26.091   4.807
37903W        W 9629   2.215   7.483   0.925
37904W        W 9630  33.899  44.407   5.121
37905W        W 9631   8.125  22.702   1.544
37906W        W 9632  23.123  17.670   4.178
37907W        W 9633  20.125  41.602   2.707
37908W        W 9634   8.720  11.550  12.375
37909W        W 9635  31.852   3.348   2.386
37910W        W 9636  19.598  21.523   2.698
37911W        W 9637  14.388  26.489  14.514
37912W        W 9638  42.970  10.238   2.830
37913W        W 9639  26.049  37.226   4.561
37914W        W 9640  17.014  26.059   2.350
37915W        W 9641  37.311  41.109   3.698
37916W        W 9642   7.230   5.709  13.904
37917W        W 9643  22.297  42.876  12.640
37918W        W 9644  15.841  17.128   2.436
37919W        W 9645   5.173  39.775   4.592
37920W        W 9646   3.362   4.451   2.438
37921W        W 9647  36.945  29.319  14.011
37922W        W 9648   4.508  37.998  11.077
37923W        W 9649  22.649  26.077  13.816
37924W        W 9650  21.874  35.956   2.291
37925W        W 9651   5.804  18.174   1.468
37926W        W 9652  44.909   4.162   0.353
37927W        W 9653   1.688  26.191  14.449
37928W        W 9654  18.213   9.263  14.058
37929W        W 9655  22.639  21.299   1.930
37930W        W 9656   4.277  41.057   1.576
37931W        W 9657  25.969  14.547  13.451
37932W        W 9658  20.002  28.486   1.239
37933W        W 9659  38.908   6.862   3.148
37934W        W 9660   1.013  29.829   2.648
37935W        W 9661  22.638  14.613  11.237
37936W        W 9662  29.986  19.837   4.998
37937W        W 9663  31.565  29.237   4.370
37938W        W 9664  36.313   9.950  10.796
37939W        W 9665  43.757   0.408  11.055
37940W        W 9666  17.539  43.493   1.937
37941W        W 9667  31.856   6.161   3.218
37942W        W 9668  17.830  40.338   0.061
37943W        W 9669  34.702   5.202  13.555
37944W        W 9670  27.198  12.375   1.652
37945W        W 9671  23.274   6.455  13.939
37946W        W 9672  22.472  32.509  10.896
37947W        W 9673  37.481  39.257  12.328
37948W        W 9674  31.588  17.201   3.266
37949W        W 9675  40.033  11.924  11.086
37950W        W 9676   7.182  11.558  14.378
37951W        W 9677  23.685   6.254   4.315
37952W        W 9678  24.483  44.749   1.496
37953W        W 9679  22.728  28.417   3.706
37954W        W 9680  36.364   6.463   0.686
37955W        W 9681  41.387  18.688   0.172
37956W        W 9682  29.163  39.927  14.010
37957W        W 9683  40.466  20.528  13.997
37958W        W 9684  29.450  29.890  10.694
37959W        W 9685  36.997  22.907  11.236
37960W        W 9686  18.483  22.342   0.447
37961W        W 9687  39.566  21.210  13.133
37962W        W 9688  37.017  30.742  10.714
37963W        W 9689  19.347   2.433  13.322
37964W        W 9690  33.093  28.130  11.394
37965W        W 9691  19.205  43.209   0.797
37966W        W 9692  22.506  21.056   0.449
37967W        W 9693  24.013  27.493  13.034
37968W        W 9694  33.478  40.069   1.316
37969W        W 9695   8.240  28.037  10.941
37970W        W 9696  19.166  38.449   0.405
37971W        W 9697   5.174  29.544   0.829
37972W        W 9698   0.954  40.445  11.634
37973W        W 9699  21.152  10.106  11.192
37974W        W 9700  26.040   5.656  10.388
37975W        W 9701  41.406   1.512  10.650
37976W        W 9702  13.995  27.743   1.333
37977W        W 9703  13.844  32.783   1.882
37978W        W 9704   5.170   9.727   2.221
37979W        W 9705  41.484   2.317  13.851
37980W        W 9706   5.004   8.830  13.047
37981W        W 9707  20.152  26.486   5.064
37982W        W 9708  13.277   6.152   3.268
37983W        W 9709  16.408   6.065  10.385
37984W        W 9710   6.738  25.522   4.548
37985W        W 9711  34.534  13.116   3.241
37986W        W 9712  26.522  12.061   0.336
37987W        W 9713   6.736   8.950   4.234
37988W        W 9714  26.637   7.473   1.292
37989W        W 9715  21.185  29.114   2.611
37990W        W 9716  43.524   4.734  10.612
37991W        W 9717  29.928  21.530   1.790
37992W        W 9718  34.404  13.655  11.168
37993W        W 9719   7.207  28.368  13.229
37994W        W 9720   2.146  26.427  13.905
37995W        W 9721  39.067  29.655  10.774
37996W        W 9722  18.558  16.557   4.003
37997W        W 9723  22.717   4.409   3.927
37998W        W 9724   9.724   6.344   2.446
37999W        W 9725  15.627  22.779  13.883
38000W        W 9726  18.678   6.434  12.940
38001W        W 9727  37.892  36.562  14.166
38002W        W 9728  37.110   3.409   0.465
38003W        W 9729  35.496  31.123   3.682
38004W        W 9730  36.225  17.901  11.612
38005W        W 9731  10.822   3.828  10.698
38006W        W 9732   4.464  22.450   2.694
38007W        W 9733  35.837  29.060   1.321
38008W        W 9734  12.465  28.068  14.956
38009W        W 9735  35.783  10.098   4.169
38010W        W 9736  33.592  12.784   2.850
38011W        W 9737  12.666  17.560   3.467
38012W        W 9738   2.891  18.988   3.002
38013W        W 9739  15.866  37.817  13.347
38014W        W 9740  32.591  37.003   2.443
38015W        W 9741  32.893  30.019   4.577
38016W        W 9742  39.479  14.764   1.457
38017W        W 9743  21.409  12.912  10.631
38018W        W 9744  12.493  41.440  11.475
38019W        W 9745  21.991   0.100  11.583
38020W        W 9746  23.200  24.471  14.466
38021W        W 9747  31.708   7.478   4.390
38022W        W 9748  25.506  13.865  13.602
38023W        W 9749  37.274  14.815   4.387
38024W        W 9750  18.805  18.852  12.539
38025W        W 9751  39.769  43.967   4.132
38026W        W 9752  23.929  25.739   0.463
38027W        W 9753   7.702  13.566   3.214
38028W        W 9754  18.923  43.338   3.944
38029W        W 9755   4.380   7.664  14.271
38030W        W 9756  25.885  11.029  12.534
38031W        W 9757  15.217  40.812   4.218
38032W        W 9758  16.572  44.052  14.935
38033W        W 9759   6.344   3.306  11.291
38034W        W 9760   9.621  29.712  12.792
38035W        W 9761  37.930   5.850  14.044
38036W        W 9762  19.308  36.064  10.658
38037W        W 9763  20.639  37.550   0.368
38038W        W 9764  28.137  40.604   2.833
38039W        W 9765  41.271  14.126   0.031
38040W        W 9766   5.516  42.327  12.029
38041W        W 9767   3.647  33.377  12.928
38042W        W 9768  34.133  41.363   5.018
38043W        W 9769  25.927  36.443  14.905
38044W        W 9770  27.459   8.812  10.952
38045W        W 9771  15.183   4.124  13.094
38046W        W 9772  15.972  29.784  14.386
38047W        W 9773   6.304   5.205  11.571
38048W        W 9774  27.607  12.043  11.988
38049W        W 9775  20.457  15.341  11.383
38050W        W 9776  13.502  23.549  14.810
38051W        W 9777  44.823  15.743   4.314
38052W        W 9778   6.767  39.980   0.764
38053W        W 9779  30.494  38.891   1.043
38054W        W 9780  42.024  26.439  13.551
38055W        W 9781  20.082  19.494   4.258
38056W        W 9782   9.572  13.581   0.412
38057W        W 9783  10.405   6.272  12.431
38058W        W 9784  44.360   5.136  13.427
38059W        W 9785  21.220  24.090   2.764
38060W        W 9786  20.319  17.672  13.950
38061W        W 9787  12.030   0.998  11.387
38062W        W 9788  33.607  30.128  14.877
38063W        W 9789  26.949  30.740  13.270
38064W        W 9790  43.766  17.605   0.313
38065W        W 9791  19.350  20.153  14.976
38066W        W 9792  13.372  43.758   4.678
38067W        W 9793   2.699  31.959  12.102
38068W        W 9794  27.080  35.592  12.719
38069W        W 9795  22.458  12.682   1.384
38070W        W 9796  11.040  30.088   0.384
38071W        W 9797   0.210   6.929  10.743
38072W        W 9798  34.388  42.996   0.264
38073W        W 9799   4.817  15.246  14.971
38074W        W 9800  37.483  32.973  12.812
38075W        W 9801  42.452  20.179   2.282
38076W        W 9802  26.546  26.256   2.241
38077W        W 9803  11.900  23.387  14.418
38078W        W 9804  15.616  23.483   0.490
38079W        W 9805  21.675  19.652  14.158
38080W        W 9806  29.986  43.817   1.844
38081W        W 9807  28.860  39.575   4.514
38082W        W 9808  22.529  32.776  14.904
38083W        W 9809  32.363  42.505  11.548
38084W        W 9810  39.460  33.397   1.274
38085W        W 9811  42.776  26.628  10.881
38086W        W 9812   4.405  15.789  14.964
38087W        W 9813  33.329  25.768   1.779
38088W        W 9814  32.186   5.604   2.247
38089W        W 9815   9.756   1.415   2.330
38090W        W 9816  35.919   3.192   1.440
38091W        W 9817   3.163  44.369   3.201
38092W        W 9818  32.546  31.348  12.848
38093W        W 9819  33.877  37.905  11.466
38094W        W 9820  17.660   9.830   1.431
38095W        W 9821  44.711  43.477  14.734
38096W        W 9822  20.025  40.468   4.135
38097W        W 9823  35.892   1.966   4.128
38098W        W 9824   7.331  22.269  11.493
38099W        W 9825  40.500  12.682   1.292
38100W        W 9826  18.694  21.206   9.983
38101W        W 9827  24.238  27.207   9.792
38102W        W 9828  31.637  16.146   0.312
38103W        W 9829   9.589  42.687   3.161
38104W        W 9830   7.825  27.575  14.992
38105W        W 9831   5.758  42.316  10.990
38106W        W 9832  26.524  24.641   0.844
38107W        W 9833   8.571   0.970  11.213
38108W        W 9834  17.579  24.510   1.784
38109W        W 9835   6.972  18.617  10.977
38110W        W 9836  13.775  13.373   4.429
38111W        W 9837   4.012  22.661   2.826
38112W        W 9838  12.793  27.214  12.482
38113W        W 9839  16.538   6.871   4.931
38114W        W 9840   7.960  35.983  11.580
38115W        W 9841   7.951   9.952   2.158
38116W        W 9842  12.787  20.286   2.284
38117W        W 9843  42.449  25.665   3.581
38118W        W 9844  42.223  13.063   2.219
38119W        W 9845  21.063  22.309  13.781
38120W        W 9846  27.434  14.162  11.061
38121W        W 9847  35.579  38.125  12.674
38122W        W 9848   4.526  17.121  11.585
38123W        W 9849  10.406  36.059   0.965
38124W        W 9850  30.140  41.036   2.738
38125W        W 9851  39.789  34.105   2.275
38126W        W 9852  17.703  19.583  10.726
38127W        W 9853  41.949  22.189   0.706
38128W        W 9854   9.737  22.437   0.392
38129W        W 9855  31.604  13.569   2.824
38130W        W 9856  13.662  43.933  12.604
38131W        W 9857  38.988  44.437  10.971
38132W        W 9858   5.446  35.458   1.740
38133W        W 9859  44.745   7.400  10.488
38134W        W 9860  31.979  37.431  13.294
38135W        W 9861  44.311   5.473  14.782
38136W        W 9862  25.211   3.776  11.065
38137W        W 9863  42.420   9.858   3.651
38138W        W 9864  32.872  19.833   1.457
38139W        W 9865  19.718  41.317   4.756
38140W        W 9866   0.222   3.208  10.913
38141W        W 9867  44.823  43.041   4.203
38142W        W 9868  11.839  29.060  14.851
38143W        W 9869  40.040  29.878   2.146
38144W        W 9870   0.979   7.719  12.482
38145W        W 9871  14.197   3.872   0.001
38146W        W 9872  18.381  10.716  10.683
38147W        W 9873   2.594  27.546   0.048
38148W        W 9874   8.195   8.818   2.544
38149W        W 9875   1.245  17.363   1.450
38150W        W 9876  28.135   2.244   3.087
38151W        W 9877  25.184   0.980   4.206
38152W        W 9878  12.794  35.067   3.272
38153W        W 9879  19.698  36.519   2.873
38154W        W 9880   3.131  19.638   0.691
38155W        W 9881  24.167  32.056  10.583
38156W        W 9882  19.488  17.195  14.710
38157W        W 9883   9.150  16.697   4.553
38158W        W 9884  43.342  42.836  10.993
38159W        W 9885  35.417   9.876  14.932
38160W        W 9886  13.744  35.066   3.145
38161W        W 9887  44.515  19.313  11.552
38162W        W 9888  40.532  41.004  12.950
38163W        W 9889  10.642   5.458  14.431
38164W        W 9890  36.491   4.707   3.570
38165W        W 9891  18.953  24.498   2.758
38166W        W 9892  30.655  34.542   0.406
38167W        W 9893   0.967  18.981   1.135
38168W        W 9894  16.837  17.786   3.276
38169W        W 9895  22.532  22.770   4.335
38170W        W 9896  44.962  30.670   1.624
38171W        W 9897  32.494  32.520  13.817
38172W        W 9898  12.721   7.776  12.173
38173W        W 9899  41.118  28.933  13.519
38174W        W 9900  30.966  22.769  10.448
38175W        W 9901  16.254   6.029   2.546
38176W        W 9902  41.358  27.447   0.635
38177W        W 9903  41.518  25.720  13.492
38178W        W 9904   6.414  33.327   4.214
38179W        W 9905  40.003  11.212   4.534
38180W        W 9906  10.617   1.308  13.327
38181W        W 9907   5.910   8.352  12.933
38182W        W 9908  30.887  27.043   1.191
38183W        W 9909   9.677  40.321   3.299
38184W        W 9910  44.534  28.548   1.221
38185W        W 9911  41.782   0.011  11.486
38186W        W 9912  23.902  29.457   4.829
38187W        W 9913  15.644  14.762  13.459
38188W        W 9914   5.097  24.983  10.606
38189W        W 9915  17.785  27.269   2.191
38190W        W 9916  42.099  26.584  11.521
38191W        W 9917  41.917  41.558  13.795
38192W        W 9918  26.982  33.910   3.549
38193W        W 9919  24.146  38.951   1.970
38194W        W 9920   4.331  30.427   2.404
38195W        W 9921   3.773  26.501   5.016
38196W        W 9922  10.953  30.956   4.290
38197W        W 9923   6.748  37.110   0.498
38198W        W 9924   4.359  39.018   2.668
38199W        W 9925   3.825  38.441  10.636
38200W        W 9926  35.757   6.760   2.279
38201W        W 9927   1.427  26.098   2.687
38202W        W 9928  20.585  18.790  10.969
38203W        W 9929  42.895  12.017   3.150
38204W        W 9930   1.237   6.813   0.417
38205W        W 9931  11.269  28.492   2.795
38206W        W 9932  16.266  28.199  12.471
38207W        W 9933  37.965  21.069  11.582
38208W        W 9934  20.541   2.654  14.760
38209W        W 9935  30.076  40.377   0.478
38210W        W 9936  41.782   2.855   0.983
38211W        W 9937  12.097  30.091   3.618
38212W        W 9938   4.423  35.875  11.912
38213W        W 9939  43.728  25.477   0.972
38214W        W 9940  38.141  28.144   2.692
38215W        W 9941  12.369  42.960   2.257
38216W        W 9942  12.526  33.609  12.239
38217W        W 9943  33.656  41.864   5.456
38218W        W 9944  10.804   5.878   1.985
38219W        W 9945   1.327   2.360   0.910
38220W        W 9946  26.644  33.934  13.393
38221W        W 9947  22.094   8.479  11.606
38222W        W 9948  17.940  30.522   2.280
38223W        W 9949  15.384  22.281   2.006
38224W        W 9950  23.478   6.875   3.680
38225W        W 9951  17.113  27.024  13.335
38226W        W 9952  27.406  17.496  14.989
38227W        W 9953  12.354  17.349  11.187
38228W        W 9954  21.232  41.421   0.201
38229W        W 9955  26.940  37.069  11.973
38230W        W 9956  29.438   7.254   3.642
38231W        W 9957  37.464  43.736   3.212
38232W        W 9958  22.452  31.635  12.123
38233W        W 9959  42.459   7.300   4.146
38234W        W 9960  14.487  39.546   2.840
38235W        W 9961  33.426  13.372   4.552
38236W        W 9962  37.584   2.891  14.347
38237W        W 9963  19.822  19.960  14.849
38238W        W 9964  14.040   2.335   1.210
38239W        W 9965  44.724  23.277   1.486
38240W        W 9966  11.511  29.103  10.218
38241W        W 9967  34.415   1.383   4.636
38242W        W 9968  21.230   6.275  10.651
38243W        W 9969   5.534   7.090   2.386
38244W        W 9970   4.689  23.076  11.663
38245W        W 9971   4.219  41.080   4.159
38246W        W 9972   3.743  26.599  11.613
38247W        W 9973  37.018  16.866   0.827
38248W        W 9974  25.146   8.337  14.243
38249W        W 9975   1.832  36.465  13.815
38250W        W 9976  33.375  32.090  14.183
38251W        W 9977  11.890  42.904   3.246
38252W        W 9978   3.199   7.704  11.188
38253W        W 9979  15.579  15.053   0.265
38254W        W 9980  13.076  21.318  11.082
38255W        W 9981  14.281   5.887  12.120
38256W        W 9982  20.308  25.208   4.586
38257W        W 9983  24.087   4.057   2.218
38258W        W 9984  28.962  39.676   2.178
38259W        W 9985  18.748  10.765  12.002
38260W        W 9986  36.307   4.638   1.257
38261W        W 9987  26.424  26.152   4.523
38262W        W 9988  17.754  20.683   4.129
38263W        W 9989   3.819  12.235  14.496
38264W        W 9990  10.800  29.386   2.614
38265W        W 9991   9.288  17.729  11.406
38266W        W 9992   7.805  18.837   0.472
38267W        W 9993  43.138  22.192   2.435
38268W        W 9994  19.777  25.057   3.870
38269W        W 9995  38.944  25.481   0.334
38270W        W 9996   5.216  40.241   1.677
38271W        W 9997  30.569  43.454  10.281
38272W        W 9998  12.373  44.072  12.675
38273W        W 9999  10.453  27.021   0.747
38274W        W10000  31.197  41.494  13.500
38275W        W10001  16.590  12.130   4.217
38276W        W10002  35.961  39.085  11.552
38277W        W10003  19.825  22.216   2.021
38278W        W10004  24.478  44.266  13.055
38279W        W10005  28.412  32.145   4.648
38280W        W10006  37.011  13.773  14.655
38281W        W10007  14.558  30.625  11.890
38282W        W10008  38.573  43.710   1.989
38283W        W10009   8.272  34.634  10.356
38284W        W10010  35.429  41.039  11.081
38285W        W10011  17.184  13.822  12.449
38286W        W10012   7.643  29.957  12.018
38287W        W10013   7.803   2.814  11.909
38288W        W10014  19.956  21.934  12.027
38289W        W10015   5.422  29.859   2.364
38290W        W10016  44.457  44.070  10.009
38291W        W10017  28.526   8.533   2.061
38292W        W10018  35.439   6.334   4.541
38293W        W10019  44.267  13.154  11.065
38294W        W10020  18.206   7.370  10.515
38295W        W10021   6.698   9.805   4.837
38296W        W10022  11.282  18.185   1.884
38297W        W10023  22.334  35.467   2.035
38298W        W10024  14.781   9.388  13.321
38299W        W10025  39.828  15.315   0.436
38300W        W10026  13.022  25.144  10.784
38301W        W10027   1.469  18.271   1.495
38302W        W10028  34.216  28.970  14.514
38303W        W10029  10.655  12.650   4.085
38304W        W10030  30.972   4.205   0.451
38305W        W10031   1.698   0.229   0.887
38306W        W10032  10.896  23.440  11.056
38307W        W10033   7.923  40.836   0.324
38308W        W10034  10.490  21.677   0.464
38309W        W10035   7.615  27.034  13.598
38310W        W10036  37.371  21.821   2.844
38311W        W10037  23.166   0.874  13.795
38312W        W10038   7.756   8.928   2.783
38313W        W10039  36.589  33.748  14.776
38314W        W10040  26.131  19.569  14.826
38315W        W10041  20.993  18.065   3.821
38316W        W10042  34.899  37.770  12.330
38317W        W10043  26.584   8.875   0.748
38318W        W10044   2.786  23.323   3.213
38319W        W10045   8.008   2.444   2.749
38320W        W10046  14.713   2.746  11.125
38321W        W10047  19.666   2.211  14.771
38322W        W10048  41.868  35.034   1.286
38323W        W10049  12.634   7.812   0.010
38324W        W10050  27.126  27.023  12.458
38325W        W10051  19.861  34.474   2.624
38326W        W10052  13.546  18.126   2.196
38327W        W10053  31.978  29.667  12.110
38328W        W10054  28.902  32.011   2.138
38329W        W10055  36.560  36.118  14.831
38330W        W10056  37.150   0.819   4.657
38331W        W10057   6.144  27.436  13.538
38332W        W10058  19.697  31.490   3.628
38333W        W10059  38.127  35.446   3.381
38334W        W10060  15.123  21.128   1.490
38335W        W10061  31.862  12.240   0.421
38336W        W10062   6.313   0.801  11.145
38337W        W10063  38.397  29.414  11.703
38338W        W10064  44.506  44.039   1.837
38339W        W10065  29.997  11.958   2.266
38340W        W10066   0.238  33.056   4.496
38341W        W10067  44.356  16.087   1.898
38342W        W10068  32.000  35.590  11.985
38343W        W10069  35.102  44.284   2.854
38344W        W10070  34.695   3.744   1.813
38345W        W10071  12.601  18.185  14.048
38346W        W10072   4.385  40.539   3.442
38347W        W10073   9.607   2.893   4.982
38348W        W10074  23.001   2.695  12.540
38349W        W10075  10.695  43.320   0.818
38350W        W10076  22.432  35.464   2.757
38351W        W10077   6.685   6.544   4.243
38352W        W10078  42.558  44.376   4.529
38353W        W10079  15.200  30.161  13.053
38354W        W10080  12.627  29.189   0.423
38355W        W10081  14.879  22.551   4.587
38356W        W10082  19.583  38.469   1.017
38357W        W10083  19.843  39.498  10.790
38358W        W10084  43.408  34.731   4.467
38359W        W10085   4.421  28.328   3.238
38360W        W10086   0.893   1.652  10.776
38361W        W10087  20.547  23.054  10.962
38362W        W10088  33.205   6.903   1.488
38363W        W10089  27.859   4.268   3.778
38364W        W10090  33.537   9.868  13.085
38365W        W10091   5.848  44.142   3.415
38366W        W10092  30.314  11.042  10.552
38367W        W10093  41.395  12.797   4.503
38368W        W10094   1.966  25.153  13.602
38369W        W10095  29.410   5.450   0.386
38370W        W10096  28.031  35.180  10.074
38371W        W10097   9.297  16.274  13.018
38372W        W10098  13.416  13.894  12.200
38373W        W10099  26.647   7.674   3.371
38374W        W10100  25.199  35.816   1.278
38375W        W10101  40.414  39.606  14.691
38376W        W10102  22.546  33.073   0.340
38377W        W10103  39.249  32.966  13.303
38378W        W10104   2.135  16.208   0.569
38379W        W10105  31.705  19.320   3.358
38380W        W10106  10.682  42.302   1.953
38381W        W10107   8.420   1.973  13.114
38382W        W10108  21.757  10.359  13.539
38383W        W10109  43.944  22.903   0.485
38384W        W10110  27.420  25.929   3.732
38385W        W10111   5.922  39.836  14.386
38386W        W10112  11.262   2.458  11.187
38387W        W10113  26.442  41.269   4.691
38388W        W10114  40.854  18.964   1.581
38389W        W10115  40.405  15.673   5.034
38390W        W10116  17.343   1.880   3.163
38391W        W10117  25.744  29.869  11.061
38392W        W10118  40.605  27.119  11.189
38393W        W10119  28.244   9.852  12.434
38394W        W10120  37.890   3.208  11.955
38395W        W10121  30.550   7.701  14.313
38396W        W10122  26.247  44.023   3.572
38397W        W10123   0.365   1.551   4.597
38398W        W10124  12.707  43.332   4.807
38399W        W10125  28.414   4.798  11.836
38400W        W10126  39.370  29.629  12.072
38401W        W10127  36.541  19.570  10.212
38402W        W10128  31.518  17.733  14.477
38403W        W10129  34.773  26.427  14.781
38404W        W10130  29.483  20.479   2.735
38405W        W10131  43.564  29.206  11.213
38406W        W10132  13.699  33.028  10.765
38407W        W10133  14.253  23.690   3.408
38408W        W10134  11.626   0.317  14.493
38409W        W10135  16.201  36.573   3.392
38410W        W10136  37.035  14.546   1.274
38411W        W10137   8.833  29.728  12.031
38412W        W10138  29.606  31.187   3.587
38413W        W10139  38.324  27.505   4.305
38414W        W10140  27.019  33.341   2.200
38415W        W10141  10.204   0.800   1.650
38416W        W10142   6.758  44.781   1.480
38417W        W10143   3.989  44.853   0.517
38418W        W10144  10.027   5.745   1.295
38419W        W10145   5.452   2.920   3.213
38420W        W10146  20.221   2.450  11.994
38421W        W10147  11.597  29.912   1.294
38422W        W10148  44.423  38.567  12.598
38423W        W10149  39.786  38.829  14.982
38424W        W10150  40.405  16.307   3.801
38425W        W10151  26.122  25.665   4.135
38426W        W10152  42.873  17.119   1.298
38427W        W10153  13.749  25.516  11.265
38428W        W10154  10.099  41.620   0.051
38429W        W10155  32.767   7.356  13.834
38430W        W10156  25.689  36.526  11.628
38431W        W10157  31.095  34.485   0.656
38432W        W10158  43.876   2.436   4.884
38433W        W10159  27.210  16.631  13.628
38434W        W10160  37.294  12.285   2.772
38435W        W10161   6.876  28.706  14.889
38436W        W10162  42.067  29.969  13.024
38437W        W10163  22.541  37.912   4.528
38438W        W10164  27.648  14.772  14.878
38439W        W10165  13.388  33.354  12.842
38440W        W10166   6.147  10.218  11.647
38441W        W10167  10.373   6.635   1.337
38442W        W10168   2.993  19.602  13.826
38443W        W10169  44.717  24.028  13.909
38444W        W10170   7.982  23.990   5.400
38445W        W10171  38.471  20.239  14.676
38446W        W10172   3.808  13.398  13.323
38447W        W10173  30.602  17.584   3.686
38448W        W10174  11.127  16.286   0.897
38449W        W10175  21.760   4.926  14.493
38450W        W10176  19.510  28.537   2.310
38451W        W10177  10.797  44.123   0.245
38452W        W10178  28.543  29.534   4.245
38453W        W10179  36.592  21.483  13.353
38454W        W10180  16.635  44.207  10.710
38455W        W10181  11.135  28.241   3.599
38456W        W10182  37.825   5.796   2.373
38457W        W10183  13.873  33.034  11.253
38458W        W10184  17.749  27.266  14.513
38459W        W10185  31.585   8.249   2.813
38460W        W10186  35.379  32.158   1.279
38461W        W10187  17.515  35.366  10.906
38462W        W10188  23.314   3.560   4.458
38463W        W10189  39.017   8.433  13.383
38464W        W10190  21.805  24.028   1.275
38465W        W10191  22.938  31.511  12.220
38466W        W10192  29.440   3.489   0.748
38467W        W10193  10.124   7.480  13.824
38468W        W10194  19.497  27.421  14.744
38469W        W10195  16.250  30.489   0.261
38470W        W10196  27.233  21.133  13.783
38471W        W10197  41.929  30.395   2.126
38472W        W10198   8.758  28.475   1.694
38473W        W10199  41.600  35.128   1.730
38474W        W10200  30.088  43.071   2.826
38475W        W10201  23.811  31.040  13.575
38476W        W10202  31.705  44.831  12.423
38477W        W10203  33.622  40.993   1.485
38478W        W10204  12.084  19.601  13.759
38479W        W10205   9.886  41.940   2.355
38480W        W10206  40.846   6.870   4.199
38481W        W10207  33.940  33.816  11.041
38482W        W10208   8.906  38.540   0.189
38483W        W10209  15.056  43.029   1.109
38484W        W10210  39.510  28.284   4.625
38485W        W10211   0.050   3.306  12.235
38486W        W10212  44.187  16.573   2.846
38487W        W10213  25.588  28.665  14.143
38488W        W10214  10.812   8.350   4.902
38489W        W10215   3.987  23.219   0.358
38490W        W10216  16.124  19.331  14.024
38491W        W10217  43.991  18.075   3.525
38492W        W10218  11.596  27.601   1.371
38493W        W10219  12.458   4.968  12.471
38494W        W10220  15.812  42.530   4.046
38495W        W10221  37.872  32.037  14.546
38496W        W10222  12.126  42.000  12.355
38497W        W10223   0.040  25.669   1.535
38498W        W10224   5.265  11.657  14.448
38499W        W10225  33.184  31.532   4.093
38500W        W10226  26.850  12.632   1.972
38501W        W10227  27.402   1.457   2.782
38502W        W10228  16.420  10.326   0.031
38503W        W10229  43.655  40.404  12.422
38504W        W10230   9.958   0.501   3.718
38505W        W10231  13.349   7.443  11.087
38506W        W10232  25.887  39.874  14.899
38507W        W10233  29.044   7.862  14.485
38508W        W10234  35.525  30.577  11.467
38509W        W10235  11.789  33.973  13.717
38510W        W10236  26.793  14.583   1.947
38511W        W10237  28.135  18.083  14.524
38512W        W10238  30.521   2.329  13.385
38513W        W10239  19.073  34.855  13.897
38514W        W10240  41.337  23.010   3.776
38515W        W10241  31.916  12.108   4.553
38516W        W10242  31.133   5.692  12.648
38517W        W10243  44.890  32.347  11.518
38518W        W10244   0.554   9.680   2.183
38519W        W10245  16.535  41.547   1.503
38520W        W10246  20.697   0.463  11.843
38521W        W10247   0.705  36.740   4.249
38522W        W10248   7.779  27.417   1.391
38523W        W10249  43.271  36.177  14.016
38524W        W10250  32.174  22.742   2.155
38525W        W10251  42.331   1.753  13.166
38526W        W10252  40.755  30.654   2.281
38527W        W10253  44.362   6.370  14.613
38528W        W10254   0.161  21.890   1.447
38529W        W10255  36.883  42.451   3.735
38530W        W10256  30.869  32.608   4.166
38531W        W10257  29.694  12.399   0.299
38532W        W10258  30.898  37.018   4.946
38533W        W10259  40.011   8.895  12.958
38534W        W10260  35.504  41.803   0.815
38535W        W10261  30.591  14.258  14.446
38536W        W10262  21.050   0.547  11.093
38537W        W10263  26.911  33.392  13.809
38538W        W10264  20.419   5.416  12.052
38539W        W10265  10.426  23.221  14.371
38540W        W10266  11.612  37.423  12.597
38541W        W10267  31.394   9.074   1.792
38542W        W10268  40.318  32.886   0.308
38543W        W10269  19.705  10.860   1.882
38544W        W10270  27.167  30.990   0.768
38545W        W10271   1.664  20.058  14.836
38546W        W10272  16.861  16.568   1.712
38547W        W10273  15.897  12.553  12.466
38548W        W10274  11.130  25.451  10.460
38549W        W10275  27.091   1.286  12.397
38550W        W10276  14.220  15.112   2.522
38551W        W10277  11.163  23.260  11.658
38552W        W10278  26.133  26.162   3.993
38553W        W10279  20.209   6.746   3.927
38554W        W10280  29.201  10.773  10.817
38555W        W10281   9.198  38.750  11.578
38556W        W10282  20.508   8.736  13.886
38557W        W10283  33.086  22.307   4.161
38558W        W10284   3.290  34.934   3.612
38559W        W10285  13.540   8.853  12.968
38560W        W10286  33.151   8.667  11.193
38561W        W10287  41.003  36.027  13.528
38562W        W10288  38.520  33.787  14.087
38563W        W10289  42.809  26.536  12.540
38564W        W10290  17.251  20.756  13.087
38565W        W10291  34.952  30.014  13.120
38566W        W10292   4.922  14.681  12.354
38567W        W10293   3.341   2.824   1.604
38568W        W10294  41.043  39.234  11.077
38569W        W10295  19.683  24.264   2.637
38570W        W10296  20.536  13.630   3.549
38571W        W10297  29.952  19.006  11.617
38572W        W10298  41.626  40.299   2.915
38573W        W10299  43.972  23.193  13.928
38574W        W10300  21.781  27.509   1.065
38575W        W10301   3.848   4.417   4.133
38576W        W10302   4.649  31.218   1.834
38577W        W10303  37.919   6.682   1.378
38578W        W10304   2.437  29.790   2.193
38579W        W10305  16.643  24.650   3.762
38580W        W10306  36.401   1.982   3.258
38581W        W10307  34.078  43.276  10.635
38582W        W10308  25.677  13.493  12.010
38583W        W10309  18.691  26.343  10.216
38584W        W10310  38.227   3.256  12.519
38585W        W10311  29.436   6.944  14.901
38586W        W10312  40.341  24.739   0.747
38587W        W10313   2.948  17.907   0.756
38588W        W10314  19.536  37.549   1.410
38589W        W10315  23.138   3.549  12.969
38590W        W10316  19.541  24.548   3.903
38591W        W10317  15.889  36.196   4.164
38592W        W10318  31.579  12.290   0.859
38593W        W10319   8.601  33.141   0.348
38594W        W10320   2.823  12.878  11.162
38595W        W10321  21.067  19.048  14.036
38596W        W10322  12.299   6.716  11.949
38597W        W10323  26.567  36.329  12.050
38598W        W10324  36.472  40.773   3.234
38599W        W10325  18.604  33.701  14.370
38600W        W10326  10.593  41.394   1.807
38601W        W10327   4.542   9.343   3.259
38602W        W10328  15.878   5.736   1.319
38603W        W10329  10.186  34.104  10.649
38604W        W10330  36.139  35.873   1.876
38605W        W10331  14.776  26.940   1.672
38606W        W10332  27.723  23.845  11.665
38607W        W10333  32.941  36.030   3.682
38608W        W10334  24.864  37.985   0.854
38609W        W10335   5.348  33.911   1.854
38610W        W10336  24.059   4.300   4.220
38611W        W10337   2.353   7.681  10.701
38612W        W10338  43.337   2.016   0.452
38613W        W10339   7.412  21.614  14.502
38614W        W10340  31.379  30.678   4.205
38615W        W10341  31.538   8.459   4.166
38616W        W10342  17.079  35.661  11.067
38617W        W10343  30.269  39.768   2.223
38618W        W10344  44.245  30.134   4.162
38619W        W10345  13.599  22.297   1.712
38620W        W10346  19.201  34.478  14.283
38621W        W10347   5.226  41.787   3.452
38622W        W10348   9.390   4.224  12.034
38623W        W10349  40.038  35.928   0.861
38624W        W10350   1.110  10.827  14.230
38625W        W10351  23.167   7.197   0.865
38626W        W10352  10.813  28.218   0.400
38627W        W10353   2.857   6.281   1.924
38628W        W10354  18.051  13.877  14.583
38629W        W10355  16.505  36.937   0.819
38630W        W10356  29.983  38.117   2.985
38631W        W10357  32.134  32.962   2.663
38632W        W10358  39.232  20.184   0.896
38633W        W10359  17.832  19.533  14.479
38634W        W10360  38.003  28.135  12.911
38635W        W10361   8.104  42.437  14.496
38636W        W10362  18.208  18.358  14.998
38637W        W10363  37.581  35.564  13.936
38638W        W10364   7.206  12.386   2.064
38639W        W10365   7.747  40.069  14.317
38640W        W10366  30.457   5.405  12.948
38641W        W10367  32.382  41.975  11.476
38642W        W10368  15.616  18.638  14.375
38643W        W10369   3.183  10.454   2.862
38644W        W10370   6.320  16.853  12.440
38645W        W10371   9.725   3.995   3.026
38646W        W10372  37.326   1.992   2.753
38647W        W10373   9.711  37.260  13.317
38648W        W10374  26.265  15.089   3.931
38649W        W10375  16.603   6.875   2.303
38650W        W10376  39.263   1.363  11.074
38651W        W10377  18.440  41.920   2.396
38652W        W10378  32.003  43.910   1.659
38653W        W10379   4.260   6.996   4.951
38654W        W10380  29.008  31.376   4.604
38655W        W10381  38.777   8.825   3.148
38656W        W10382   1.787  41.306   0.397
38657W        W10383  11.839   9.318   0.689
38658W        W10384  32.116  29.345  14.406
38659W        W10385  17.742  23.555  10.702
38660W        W10386  34.193  19.235  11.818
38661W        W10387  11.902  13.710  11.172
38662W        W10388  35.401  35.689   1.165
38663W        W10389  20.284  10.785   3.630
38664W        W10390  33.831  31.903   1.733
38665W        W10391  15.656   3.790   2.676
38666W        W10392   9.327   6.217  11.567
38667W        W10393  42.854  43.490  13.069
38668W        W10394  16.425  31.037   1.490
38669W        W10395  33.510  16.098  11.159
38670W        W10396  43.028  33.458  10.636
38671W        W10397   3.797  16.997  14.000
38672W        W10398  44.249  25.633  13.519
38673W        W10399  36.522  21.314   1.400
38674W        W10400   7.807  26.639  14.880
38675W        W10401   8.454  34.361  14.915
38676W        W10402  16.939   5.997  14.384
38677W        W10403  38.448   6.196  11.516
38678W        W10404  41.423   0.431   1.608
38679W        W10405  42.858  35.934  13.809
38680W        W10406  38.462  17.660   0.080
38681W        W10407  44.399  39.954  12.425
38682W        W10408  33.107  28.452   0.207
38683W        W10409  27.687  31.890  12.985
38684W        W10410  38.460   6.108  11.028
38685W        W10411  14.212  31.609   1.461
38686W        W10412  15.095  10.747   3.263
38687W        W10413  22.426  44.864   3.798
38688W        W10414  11.618  28.943  10.720
38689W        W10415  10.231   4.451   0.899
38690W        W10416   5.138  20.229   4.223
38691W        W10417  20.155   7.728   4.876
38692W        W10418  32.986  44.831   4.083
38693W        W10419  34.362  21.458   2.485
38694W        W10420  36.970  33.076  11.637
38695W        W10421  44.359   6.470   0.139
38696W        W10422  21.526  33.365   0.936
38697W        W10423  14.594  25.499   1.431
38698W        W10424  26.172   0.296  14.509
38699W        W10425   4.421  44.504   2.897
38700W        W10426  31.990  15.199  14.051
38701W        W10427  31.138  27.353  12.330
38702W        W10428  39.870  10.618  12.086
38703W        W10429  27.169   6.309   1.693
38704W        W10430  13.775  41.436  13.903
38705W        W10431  34.437  28.474  14.452
38706W        W10432  27.299  42.699  14.832
38707W        W10433  35.557  24.882   4.138
38708W        W10434   5.313   0.412   2.161
38709W        W10435   9.138  34.942  10.676
38710W        W10436   9.169  11.374  14.807
38711W        W10437  10.646   3.379   1.217
38712W        W10438  40.631  38.558  14.477
38713W        W10439   4.854  42.389   3.742
38714W        W10440  17.567  25.028   2.830
38715W        W10441  41.284  35.863   1.399
38716W        W10442  34.389  32.949   4.813
38717W        W10443  23.727  44.382   4.263
38718W        W10444  25.139  18.280  14.511
38719W        W10445  17.112  17.676   0.026
38720W        W10446   9.630  20.089  12.911
38721W        W10447  41.977  40.030  14.781
38722W        W10448  42.334  11.817   0.006
38723W        W10449  39.490   3.150  14.195
38724W        W10450  43.493  39.358   2.604
38725W        W10451  36.553  11.893   0.911
38726W        W10452  36.194  24.638  13.138
38727W        W10453  23.747   3.284  14.203
38728W        W10454  30.838   7.690   4.554
38729W        W10455  21.237  20.060  13.777
38730W        W10456  28.720  44.027  14.911
38731W        W10457  23.383   6.936  12.471
38732W        W10458  10.823  34.085   5.509
38733W        W10459   0.221  30.864   2.587
38734W        W10460  20.188  31.871   4.079
38735W        W10461   3.298  32.865   4.041
38736W        W10462  31.130  34.854   2.895
38737W        W10463  36.371  32.474   2.988
38738W        W10464  21.718  21.663  12.827
38739W        W10465  30.472   4.334  13.413
38740W        W10466   5.347   1.797  11.765
38741W        W10467  10.420  35.048   0.994
38742W        W10468  38.174  43.736  12.985
38743W        W10469   3.069  42.443  11.755
38744W        W10470  26.996  42.790   4.118
38745W        W10471  35.842   2.443  13.947
38746W        W10472  26.074  18.043  11.631
38747W        W10473  24.214  12.175  14.422
38748W        W10474   9.213  11.124  13.917
38749W        W10475  18.915   0.850  13.993
38750W        W10476   9.462  13.348  12.560
38751W        W10477  13.839   8.353  13.949
38752W        W10478  24.478  24.651   2.620
38753W        W10479  36.244  14.579   4.479
38754W        W10480  32.381  37.296   3.337
38755W        W10481  16.512  31.948   3.785
38756W        W10482  35.659  12.226   3.336
38757W        W10483  16.532  39.056  11.170
38758W        W10484  12.109   5.606   3.063
38759W        W10485  27.277   9.749   3.709
38760W        W10486  12.649  12.322   1.909
38761W        W10487  29.558  22.529   4.580
38762W        W10488   5.371  13.264  10.640
38763W        W10489  38.022  10.927   4.833
38764W        W10490  34.543  22.150   3.285
38765W        W10491  16.539  43.363   3.266
38766W        W10492  13.414  26.703   0.815
38767W        W10493   4.228  33.522  13.814
38768W        W10494   0.419  36.370   3.375
38769W        W10495  44.966  25.283   1.924
38770W        W10496  30.633   8.390   1.499
38771W        W10497  40.244  32.077  13.504
38772W        W10498  19.099  42.477   1.450
38773W        W10499   7.836  23.029  12.581
38774W        W10500  22.462  19.460  14.045
38775W        W10501  22.329   4.860  13.479
38776W        W10502  40.585  12.729   4.995
38777W        W10503  44.385   9.941   0.347
38778W        W10504   4.971  24.785   4.106
38779W        W10505  13.341   3.293   3.819
38780W        W10506  11.331  43.064   0.747
38781W        W10507   1.551  22.118  12.064
38782W        W10508  10.729   8.136  14.838
38783W        W10509  44.036  23.037   4.234
38784W        W10510  33.930  42.379  10.665
38785W        W10511  29.223  17.530   2.113
38786W        W10512   9.980  25.019  12.367
38787W        W10513  29.053  25.662  12.148
38788W        W10514  19.075  41.459  11.191
38789W        W10515  11.709  25.957   2.918
38790W        W10516   8.735   9.799   0.980
38791W        W10517  41.342   6.709   1.822
38792W        W10518  34.980   2.302   0.182
38793W        W10519  33.670  10.796  13.360
38794W        W10520  39.143  13.283   2.240
38795W        W10521  11.620   7.859  13.876
38796W        W10522  13.595  13.639   3.248
38797W        W10523  39.626  29.698  13.820
38798W        W10524  14.383  44.039   0.362
38799W        W10525   9.152  10.043  12.801
38800W        W10526  12.474  40.471  13.187
38801W        W10527  13.564   1.305   0.426
38802W        W10528  42.305  29.277  14.026
38803W        W10529  43.987  12.453   2.253
38804W        W10530   6.736   6.764   2.860
38805W        W10531  14.661  38.949   5.002
38806W        W10532  30.961   0.795  11.852
38807W        W10533  37.077   1.014  10.725
38808W        W10534  24.112  44.495  14.485
38809W        W10535   6.187   5.499  12.881
38810W        W10536  34.411  11.293   1.542
38811W        W10537  14.498  30.329   5.138
38812W        W10538   1.898  30.850   4.715
38813W        W10539  14.117  12.747  11.028
38814W        W10540   7.256  38.109   3.766
38815W        W10541  29.473  40.074  11.951
38816W        W10542  20.334   6.321  13.782
38817W        W10543  29.043  43.937  11.724
38818W        W10544  16.647  23.340  14.066
38819W        W10545  36.976  14.756   2.953
38820W        W10546  23.577   7.617  13.369
38821W        W10547   0.457  34.983   3.878
38822W        W10548  12.163  12.787   0.391
38823W        W10549  12.751  41.866   0.606
38824W        W10550  41.783   8.817  13.990
38825W        W10551  29.642  36.328   0.362
38826W        W10552  34.283  16.068  11.493
38827W        W10553  23.938  22.787  10.146
38828W        W10554  24.206  33.471   0.049
38829W        W10555  43.301   9.812  11.433
38830W        W10556  41.093  39.998   2.251
38831W        W10557  22.526  41.681  12.720
38832W        W10558  32.851   1.692   3.243
38833W        W10559  25.554   1.383   1.347
38834W        W10560  19.365  28.183   1.933
38835W        W10561  19.249   4.496   4.124
38836W        W10562  32.947  40.437  13.915
38837W        W10563  43.194  13.371  13.597
38838W        W10564  15.554  30.566   0.857
38839W        W10565  41.076  31.371   4.407
38840W        W10566  14.176  38.455  13.737
38841W        W10567  26.128  40.619   3.014
38842W        W10568  39.454  10.696   4.334
38843W        W10569  12.735  22.146  12.474
38844W        W10570   4.838  18.882   3.269
38845W        W10571  25.782   2.930  10.871
38846W        W10572  43.976  18.690   1.767
38847W        W10573  12.108   1.770   4.429
38848W        W10574  38.096   6.251   2.261
38849W        W10575  20.767   3.729  12.480
38850W        W10576   1.220  18.308  10.566
38851W        W10577  21.430   9.201  11.304
38852W        W10578   3.358  36.005   0.895
38853W        W10579  17.267  22.634  14.395
38854W        W10580  23.002  13.297  13.422
38855W        W10581  39.357  42.771   3.024
38856W        W10582  14.207   3.270  10.978
38857W        W10583   4.659  44.788  12.578
38858W        W10584  32.120   6.337   0.377
38859W        W10585  31.726   6.798   1.684
38860W        W10586  15.814  25.989  10.633
38861W        W10587  25.023  42.453  13.878
38862W        W10588  28.431  43.728  10.646
38863W        W10589  40.337  29.930   1.699
38864W        W10590  20.096  41.275   2.249
38865W        W10591  21.440  17.272   3.526
38866W        W10592  20.739  34.411   2.303
38867W        W10593  15.818   2.514  14.472
38868W        W10594  40.552  31.588   1.801
38869W        W10595  43.865  15.219  14.404
38870W        W10596   1.117  36.003   4.521
38871W        W10597  39.938  44.704  14.493
38872W        W10598  38.644  22.652  14.883
38873W        W10599   1.177  12.140  13.282
38874W        W10600   4.690  16.573  12.048
38875W        W10601  11.399   1.714   3.309
38876W        W10602  32.931  21.972   2.629
38877W        W10603  26.345  17.249  10.522
38878W        W10604   7.291  31.396  13.620
38879W        W10605  35.137   1.185  14.286
38880W        W10606  34.852  32.416  12.950
38881W        W10607  23.111  15.625   2.274
38882W        W10608  28.120  17.037  10.734
38883W        W10609   7.156  43.376   1.807
38884W        W10610  12.073   5.894   3.639
38885W        W10611  21.478   0.476  10.818
38886W        W10612   2.382  39.211   0.052
38887W        W10613  38.895   5.366   4.080
38888W        W10614  32.186  18.702   3.649
38889W        W10615   8.438   7.403   0.788
38890W        W10616  33.004  35.158   1.729
38891W        W10617  37.602  16.671  13.083
38892W        W10618  16.126  12.289  14.319
38893W        W10619  10.137  40.896   2.672
38894W        W10620  25.741   3.450  13.152
38895W        W10621  11.547  44.909   4.127
38896W        W10622  28.272  19.709  13.984
38897W        W10623  42.650  13.217  14.830
38898W        W10624  20.606  17.257  13.376
38899W        W10625  15.362  22.751  14.808
38900W        W10626  12.689   7.944  11.681
38901W        W10627  20.675   9.618   0.738
38902W        W10628  11.220  25.583  12.832
38903W        W10629  40.902  12.820  14.805
38904W        W10630  25.556   5.725   4.069
38905W        W10631  33.031  21.817  12.538
38906W        W10632  14.611   0.223  13.000
38907W        W10633  30.352  14.923   4.906
38908W        W10634   4.454  33.553   4.224
38909W        W10635  41.580  23.632   4.535
38910W        W10636  40.126  18.999   4.202
38911W        W10637  32.601  36.220   0.763
38912W        W10638   3.186  36.305  11.682
38913W        W10639  37.305  32.625  11.952
38914W        W10640  31.086   5.444   1.609
38915W        W10641  31.852  37.232  11.397
38916W        W10642  24.127  42.775  14.478
38917W        W10643  23.162  20.793  14.807
38918W        W10644  32.631  27.026   2.272
38919W        W10645  30.891  38.554   1.112
38920W        W10646   6.901  31.064   4.911
38921W        W10647   5.380  35.264  13.342
38922W        W10648   9.595   1.469  12.490
38923W        W10649   1.862   6.092  11.525
38924W        W10650  11.583  41.457  14.805
38925W        W10651  29.677   1.697   2.198
38926W        W10652  24.680  28.322  12.519
38927W        W10653  31.914  20.346   1.233
38928W        W10654  29.156  41.536  12.455
38929W        W10655  29.111   7.263  13.608
38930W        W10656  35.361  13.190   0.877
38931W        W10657  14.519  24.073  14.492
38932W        W10658  27.136  43.181  14.867
38933W        W10659  27.809  43.303   3.237
38934W        W10660  29.404  20.264  11.326
38935W        W10661  14.798  30.995  12.169
38936W        W10662   6.806  41.565  12.147
38937W        W10663   7.183  27.957   4.012
38938W        W10664   9.675  36.351   4.516
38939W        W10665  26.221  12.153  13.282
38940W        W10666  27.453  32.836  11.045
38941W        W10667  34.903  10.451  12.524
38942W        W10668  24.524   1.245  11.266
38943W        W10669   8.909  41.787   1.301
38944W        W10670   7.195  23.595  12.043
38945W        W10671  44.095  24.976   2.399
38946W        W10672   6.910  36.278   3.921
38947W        W10673  15.704  20.537   3.744
38948W        W10674  27.472  27.587  12.961
38949W        W10675   1.058  15.787   4.276
38950W        W10676   1.303  28.402   1.816
38951W        W10677   1.746  14.800  10.990
38952W        W10678   4.662  18.802  14.476
38953W        W10679  36.587  10.981  13.864
38954W        W10680  22.531  28.108  11.171
38955W        W10681   8.540  40.955   1.328
38956W        W10682   8.195  26.701  14.004
38957W        W10683  15.887  35.584  11.548
38958W        W10684   4.522  24.198  11.449
38959W        W10685  33.854  39.058   4.574
38960W        W10686  34.615  10.670  13.762
38961W        W10687  33.349  21.066  14.228
38962W        W10688  20.094  23.306   4.033
38963W        W10689  13.578  27.274   5.048
38964W        W10690  15.521   4.234  12.571
38965W        W10691  24.124  15.575   3.385
38966W        W10692  16.062  26.519  14.899
38967W        W10693  40.543  33.642   4.134
38968W        W10694  43.818  20.943  13.335
38969W        W10695  17.596   3.851   1.011
38970W        W10696  44.832  10.920  13.223
38971W        W10697   1.700  24.491   2.784
38972W        W10698  36.282  17.461  11.371
38973W        W10699  43.601   0.393  12.899
38974W        W10700  31.998  41.637  14.131
38975W        W10701  27.651   3.417   4.738
38976W        W10702  44.780   9.216  14.020
38977W        W10703  40.845  26.012   3.575
38978W        W10704  16.091   6.639  14.834
38979W        W10705  15.722   9.971  14.360
38980W        W10706  16.016  22.709  12.454
38981W        W10707  23.795  14.794   5.501
38982W        W10708  26.602   8.882  11.441
38983W        W10709   0.277  30.607  10.981
38984W        W10710  18.153  22.512   3.969
38985W        W10711  30.042   0.325   4.368
38986W        W10712  35.544  31.776  14.856
38987W        W10713  26.532  29.388   2.810
38988W        W10714  42.290   6.757   3.299
38989W        W10715   2.744  37.174  10.545
38990W        W10716  10.715  25.938  14.798
38991W        W10717  33.860  25.970   2.776
38992W        W10718  15.330  16.751   4.448
38993W        W10719  16.602  41.348   4.890
38994W        W10720  42.234  12.850   4.183
38995W        W10721   5.409  24.619   1.651
38996W        W10722  32.136   7.918  14.908
38997W        W10723   6.124  22.661   4.211
38998W        W10724  25.346  30.219  11.606
38999W        W10725  12.284  36.812   4.176
39000W        W10726  44.494  29.900  13.456
39001W        W10727  36.344   5.428   1.474
39002W        W10728  14.748  11.245   3.735
39003W        W10729  40.039  32.805  14.447
39004W        W10730   9.300   4.306  14.900
39005W        W10731   3.484  30.494   1.360
39006W        W10732  23.997  37.660  13.485
39007W        W10733  23.103  12.811   0.587
39008W        W10734  21.300  43.572  13.309
39009W        W10735  34.399  33.632   1.684
39010W        W10736  24.980  19.078   2.940
39011W        W10737  34.595  35.521  10.737
39012W        W10738  23.601  35.427   3.320
39013W        W10739  17.551  17.592  13.560
39014W        W10740   8.292  30.583  11.198
39015W        W10741   9.026  33.808   9.845
39016W        W10742  40.961  17.030  13.883
39017W        W10743  15.529  26.591  12.911
39018W        W10744  41.052  35.921   0.934
39019W        W10745  19.263  12.253   3.809
39020W        W10746   7.889  13.154  13.720
39021W        W10747   3.303  25.738  10.725
39022W        W10748   8.285  16.585  11.600
39023W        W10749  16.100  17.589  12.761
39024W        W10750  30.433  20.461  13.090
39025W        W10751   0.872  11.634  12.062
39026W        W10752  37.027  26.243  11.163
39027W        W10753   5.755  27.221  11.026
39028W        W10754  21.250  33.608   3.580
39029W        W10755  34.420  34.218  13.359
39030W        W10756   7.668  11.907  14.976
39031W        W10757  24.247  17.752  13.152
39032W        W10758   0.358  35.851   2.099
39033W        W10759  44.346   3.172  11.154
39034W        W10760  13.362  18.126  10.736
39035W        W10761  11.885  39.480   2.444
39036W        W10762  28.780  11.204  12.037
39037W        W10763   1.818  16.386   4.203
39038W        W10764  35.978  16.083  11.097
39039W        W10765  42.096   6.351  13.814
39040W        W10766  43.262  43.251  14.657
39041W        W10767  36.457  37.775   2.388
39042W        W10768  15.075   4.965  11.019
39043W        W10769  25.606  22.697   0.025
39044W        W10770  17.575   7.890   3.126
39045W        W10771  30.781   1.667   3.254
39046W        W10772  40.658  25.212  13.892
39047W        W10773  24.741  39.844  13.436
39048W        W10774  20.833  35.348   3.157
39049W        W10775  25.991  30.631  11.989
39050W        W10776  13.631   3.299   2.098
39051W        W10777  40.011  36.560   1.384
39052W        W10778   5.602  19.675   3.605
39053W        W10779  17.257  12.005   1.720
39054W        W10780  14.774  24.558   1.435
39055W        W10781   7.813  22.771   0.256
39056W        W10782  14.077   0.966  11.601
39057W        W10783   9.850  22.781  11.518
39058W        W10784  15.610   0.971  14.431
39059W        W10785  11.814  16.456  14.782
39060W        W10786  24.661  23.677  14.821
39061W        W10787  40.578  19.802   1.826
39062W        W10788  36.061   9.262   3.778
39063W        W10789  41.953  22.048  14.748
39064W        W10790  33.454   8.859  11.585
39065W        W10791  19.572  22.273   0.488
39066W        W10792   4.375  27.577  10.876
39067W        W10793   2.517  21.602  11.537
39068W        W10794  15.807  16.322  13.495
39069W        W10795   2.020   4.718  14.243
39070W        W10796  40.337  29.754  12.026
39071W        W10797  20.626  39.381   3.756
39072W        W10798  30.151  13.194  14.379
39073W        W10799  20.443  39.412   4.250
39074W        W10800  10.849  25.758   1.300
39075W        W10801   5.819  43.063  12.951
39076W        W10802  11.124  31.351   0.002
39077W        W10803  27.423   8.297  13.550
39078W        W10804  33.076   6.198   4.715
39079W        W10805  27.631  31.575   2.816
39080W        W10806  44.239   1.904   1.373
39081W        W10807   7.624   8.388  11.643
39082W        W10808   2.186   1.943  12.457
39083W        W10809  28.685  34.682   2.621
39084W        W10810  25.625   8.793   1.722
39085W        W10811  41.556  36.141  13.469
39086W        W10812  38.712  24.529  13.521
39087W        W10813  14.631   9.331  10.991
39088W        W10814  10.191  42.499  13.791
39089W        W10815  11.859  22.051  11.613
39090W        W10816  34.042  19.518   2.422
39091W        W10817   9.214  24.552  11.471
39092W        W10818   9.189  11.249  11.724
39093W        W10819  24.117  17.217  11.659
39094W        W10820  44.475  20.499  14.284
39095W        W10821  42.525  27.136  12.081
39096W        W10822  13.400  14.448  10.896
39097W        W10823  40.475   3.900   4.674
39098W        W10824  27.603  20.729  13.056
39099W        W10825   0.864  13.815  12.998
39100W        W10826   8.362  14.741  13.486
39101W        W10827  16.122  43.301  12.408
39102W        W10828  25.549  23.786   0.563
39103W        W10829  42.454  39.868  14.841
39104W        W10830  18.077  41.933   4.839
39105W        W10831  44.051   3.287   2.432
39106W        W10832  21.631  39.125  12.327
39107W        W10833  25.002  37.372  10.711
39108W        W10834  10.259  16.602   1.660
39109W        W10835  11.093  16.263   2.350
39110W        W10836  11.402  10.181   0.428
39111W        W10837  43.524  12.633  12.092
39112W        W10838  26.384  11.290   2.759
39113W        W10839  20.748   0.789  13.655
39114W        W10840   2.112   7.989  12.693
39115W        W10841  21.056  36.480   0.896
39116W        W10842   5.327   6.762   0.712
39117W        W10843  15.758   8.017  14.320
39118W        W10844   7.377  36.331   1.584
39119W        W10845  25.207  35.311   3.615
39120W        W10846   8.090  12.324   4.555
39121W        W10847   3.999   7.048   3.760
39122W        W10848  12.341  32.411   2.728
39123W        W10849   5.244  40.724   0.858
39124W        W10850  35.436  34.830  14.884
39125W        W10851  33.155  38.486  12.611
39126W        W10852  38.425  42.124   4.179
39127W        W10853   9.589  30.501   2.360
39128W        W10854  18.683  39.827   3.171
39129W        W10855   1.628  42.555   1.896
39130W        W10856  22.658  13.844  10.761
39131W        W10857  24.781  30.699  10.535
39132W        W10858  31.187  37.838   4.440
39133W        W10859  43.580  24.211   2.939
39134W        W10860  37.372  35.543   2.684
39135W        W10861  33.412   1.382  12.809
39136W        W10862   4.568  30.592   1.330
39137W        W10863  12.166  21.975   0.994
39138W        W10864   3.710  32.411   1.261
39139W        W10865  25.845  44.049  11.179
39140W        W10866  43.468  22.990   3.173
39141W        W10867  17.739   0.036  14.010
39142W        W10868  14.339  36.506   3.782
39143W        W10869  10.122  18.736   1.436
39144W        W10870  23.100  23.938  14.549
39145W        W10871  11.177  26.805   4.088
39146W        W10872  41.100  28.032  11.119
39147W        W10873  13.846  13.802  13.799
39148W        W10874  12.765  27.973   2.402
39149W        W10875  44.542  21.116   1.422
39150W        W10876  14.716  18.042  10.590
39151W        W10877  38.466  27.947   1.710
39152W        W10878  21.730   6.670  12.323
39153W        W10879  30.672   0.643   4.647
39154W        W10880  29.353  18.057  10.367
39155W        W10881  11.988  43.017  10.708
39156W        W10882  43.150  43.409   4.546
39157W        W10883  36.520   4.076   0.208
39158W        W10884  24.183   7.454   1.254
39159W        W10885   0.337  10.543  11.597
39160W        W10886  24.515  44.149   3.153
39161W        W10887  23.069  27.424  11.585
39162W        W10888   2.917  20.327   0.824
39163W        W10889   1.241  32.374  13.995
39164W        W10890  19.521  15.901  14.189
39165W        W10891  12.931   2.859  12.952
39166W        W10892   1.969   7.907  13.202
39167W        W10893   1.414  23.536   0.823
39168W        W10894  19.284  20.225  11.065
39169W        W10895  17.374  12.801  12.445
39170W        W10896  20.063  12.658   4.162
39171W        W10897  24.701  19.137  11.008
39172W        W10898  34.014  29.174  10.650
39173W        W10899  19.818   6.837   3.589
39174W        W10900  40.264   0.075  12.193
39175W        W10901  39.980   8.694  11.716
39176W        W10902   5.134  25.749  14.507
39177W        W10903  20.713  39.844  14.043
39178W        W10904  43.872  39.279  14.775
39179W        W10905  38.581  42.286   3.731
39180W        W10906  37.412  17.731   3.162
39181W        W10907  31.620  43.978  10.298
39182W        W10908   7.417   8.177   1.278
39183W        W10909   7.362  18.719   1.167
39184W        W10910  12.271  34.431   2.859
39185W        W10911   6.703  23.151  10.701
39186W        W10912   5.139  29.225   4.093
39187W        W10913  24.222  41.571   2.861
39188W        W10914  16.772   4.947  13.541
39189W        W10915  27.917   8.231  13.493
39190W        W10916  37.920  39.785  14.063
39191W        W10917  10.252  39.968  12.379
39192W        W10918  17.293  13.197   0.957
39193W        W10919   6.003  31.500   1.786
39194W        W10920   5.409   7.199   9.967
39195W        W10921  14.272  23.309   1.073
39196W        W10922   0.596  39.093  10.074
39197W        W10923  11.409   3.196  12.930
39198W        W10924  37.141  44.275   4.055
39199W        W10925  40.085  23.509   2.702
39200W        W10926  39.424  40.570   2.040
39201W        W10927  26.476  23.992  13.828
39202W        W10928  32.086  10.387  14.839
39203W        W10929   6.814   5.752  12.149
39204W        W10930  11.699  29.938  10.936
39205W        W10931  42.232  41.922  12.469
39206W        W10932  37.808   2.797   4.583
39207W        W10933  20.524  41.174   0.505
39208W        W10934   7.823  24.603   1.879
39209W        W10935  15.294  18.729   2.146
39210W        W10936   9.253  22.179   9.829
39211W        W10937  21.571  34.308   1.152
39212W        W10938  15.778  15.130   4.377
39213W        W10939  16.182  12.988   1.768
39214W        W10940  12.763  20.619   2.684
39215W        W10941  15.602  14.575  12.979
39216W        W10942  21.163  12.434   3.794
39217W        W10943  20.740  14.376  12.310
39218W        W10944  28.620  22.810  12.120
39219W        W10945  23.296  42.989   4.664
39220W        W10946  20.851   7.872  13.462
39221W        W10947  28.463  14.222   0.367
39222W        W10948   4.677   7.730  13.457
39223W        W10949   6.796  25.023  13.614
39224W        W10950   0.790  14.171   0.274
39225W        W10951  43.689  35.890   3.272
39226W        W10952  16.175  19.549   1.839
39227W        W10953  15.666  37.605  11.136
39228W        W10954  26.903  12.166   2.723
39229W        W10955  16.240   0.693   1.860
39230W        W10956  36.336  36.800  13.428
39231W        W10957  20.853  22.375  14.243
39232W        W10958  14.950  16.427   4.609
39233W        W10959  20.299  15.707   4.600
39234W        W10960   3.877  40.421   3.568
39235W        W10961  32.010   3.510   4.139
39236W        W10962  31.508  27.702  12.294
39237W        W10963  41.729   0.006   2.808
39238W        W10964  19.386  13.699   4.440
39239W        W10965  34.381  18.612   4.424
39240W        W10966  35.951  24.177  11.797
39241W        W10967   5.258  14.723   3.333
39242W        W10968  15.070   5.838  14.725
39243W        W10969   2.338  40.362   3.785
39244W        W10970   6.830   8.807   0.650
39245W        W10971  40.535  25.054   3.169
39246W        W10972  29.532  15.594  13.531
39247W        W10973   0.400  17.725   3.601
39248W        W10974   7.236   3.517  11.619
39249W        W10975  43.254  25.184   2.716
39250W        W10976  25.196  37.567   2.139
39251W        W10977   2.812  36.437  12.065
39252W        W10978  28.586  40.552   0.525
39253W        W10979   6.782  23.064   4.886
39254W        W10980  30.455  30.501   4.646
39255W        W10981  27.045  20.712   0.399
39256W        W10982  36.103  37.032  12.104
39257W        W10983  18.638  14.862  10.779
39258W        W10984  29.950  41.520  12.001
39259W        W10985  14.706  30.718   0.678
39260W        W10986  10.222  10.807  14.545
39261W        W10987  30.603  33.811   0.868
39262W        W10988  16.774  33.868  12.494
39263W        W10989   5.881  33.864   3.109
39264W        W10990   7.090   2.192  11.048
39265W        W10991  40.575  23.032   4.192
39266W        W10992  31.488   3.781  13.859
39267W        W10993   4.254  37.057  10.789
39268W        W10994  28.514  23.683  10.727
39269W        W10995  14.334  24.449  11.593
39270W        W10996  21.582  27.140   2.351
39271W        W10997  43.196  30.921   2.289
39272W        W10998  26.210  22.381   1.729
39273W        W10999  23.240   3.171  14.329
39274W        W11000  27.302  35.774  11.085
39275W        W11001   7.156  43.272   0.906
39276W        W11002  23.739  35.125  13.301
39277W        W11003  31.137  17.952  10.791
39278W        W11004   6.643  34.397   2.875
39279W        W11005  14.650  22.955   0.911
39280W        W11006   9.221  31.951   3.728
39281W        W11007   0.452  39.447  13.635
39282W        W11008  18.199  25.045  13.579
39283W        W11009  11.900  44.934   3.161
39284W        W11010  13.132   1.320   1.721
39285W        W11011  21.888   6.458   4.818
39286W        W11012   8.167  13.126   1.219
39287W        W11013  16.336  35.851   4.130
39288W        W11014  27.213  39.015   1.356
39289W        W11015  25.141   8.652  11.292
39290W        W11016  35.352  20.148  12.500
39291W        W11017  12.369  40.982   0.304
39292W        W11018  44.846  28.983   3.367
39293W        W11019  30.157  22.060   0.794
39294W        W11020   2.439  43.764  12.663
39295W        W11021   4.161  44.447  14.850
39296W        W11022  21.438  44.752  14.103
39297W        W11023  40.573  28.053  10.996
39298W        W11024  28.327  25.123  11.162
39299W        W11025  15.680  24.582   2.457
39300W        W11026  25.603  36.866  14.987
39301W        W11027  30.549  30.218  11.217
39302W        W11028  20.147  38.232  14.379
39303W        W11029  27.559   9.245  12.627
39304W        W11030  27.939  24.980   1.000
39305W        W11031   9.954  42.121   1.359
39306W        W11032  28.624  23.109  11.416
39307W        W11033  40.477  38.212   4.898
39308W        W11034   2.900  16.633  14.121
39309W        W11035  40.587  28.963   2.675
39310W        W11036  19.601   7.276   3.812
39311W        W11037   7.869  40.131  13.313
39312W        W11038  25.564   7.717   3.386
39313W        W11039   8.906   3.394   4.525
39314W        W11040  40.896   5.314   1.860
39315W        W11041  33.748   8.282  14.814
39316W        W11042   5.128  42.790   2.808
39317W        W11043  25.462   8.285   1.523
39318W        W11044  27.195  30.583   3.681
39319W        W11045  34.108   0.384   4.578
39320W        W11046  33.558  19.533  13.864
39321W        W11047  36.062  24.942  10.599
39322W        W11048  30.062  33.650  10.214
39323W        W11049  29.064  39.486  14.284
39324W        W11050  17.748  15.688  13.550
39325W        W11051  14.553  11.768   1.241
39326W        W11052   6.304   8.759   5.378
39327W        W11053  15.247  40.096   1.395
39328W        W11054  40.659   4.164  12.116
39329W        W11055  20.474   3.942  12.902
39330W        W11056  34.862   6.757   4.176
39331W        W11057   3.824  43.442   2.765
39332W        W11058   4.246  30.332  13.855
39333W        W11059  25.554   3.465   2.188
39334W        W11060  14.145  44.474   2.366
39335W        W11061  21.822  25.748   1.834
39336W        W11062  18.780   6.303   0.874
39337W        W11063   5.247  11.918   2.711
39338W        W11064   5.202  21.962   2.217
39339W        W11065  35.052   3.209  12.480
39340W        W11066  12.867  37.415  14.469
39341W        W11067  44.411   2.960  14.856
39342W        W11068   5.645  42.675   1.861
39343W        W11069  30.558  27.542   1.174
39344W        W11070  14.753  27.610   3.286
39345W        W11071  27.558  17.585  14.489
39346W        W11072  26.274  31.876  11.526
39347W        W11073  17.669  25.105   1.000
39348W        W11074  24.188   3.728  11.065
39349W        W11075  22.525  31.140  11.159
39350W        W11076  40.047   4.876   1.933
39351W        W11077  17.704   7.135   0.950
39352W        W11078  19.467  44.923   3.737
39353W        W11079  33.593  43.568  10.445
39354W        W11080  17.491  29.242   0.960
39355W        W11081  34.834  30.457  11.535
39356W        W11082  37.420   6.670  12.558
39357W        W11083  22.972  28.675   4.637
39358W        W11084  34.637  26.122   4.938
39359W        W11085   3.823  40.783   1.642
39360W        W11086  27.153   5.912  11.160
39361W        W11087  26.718   7.664   2.386
39362W        W11088  25.038  41.592   3.324
39363W        W11089  19.595   5.349  11.175
39364W        W11090   5.569  30.764   3.568
39365W        W11091  22.734  39.037   1.638
39366W        W11092  10.428  40.184  11.575
39367W        W11093  10.383  23.935   4.196
39368W        W11094  15.795   3.398  12.910
39369W        W11095  16.506  27.099   0.354
39370W        W11096  33.513  30.118  13.899
39371W        W11097   5.201  15.196   2.322
39372W        W11098  27.079  15.934  11.643
39373W        W11099   4.462  37.792  14.514
39374W        W11100  34.590   6.102   1.769
39375W        W11101  15.093   0.353   2.154
39376W        W11102  13.304  15.631   4.606
39377W        W11103  34.620  13.692   0.638
39378W        W11104  13.658  19.407  11.232
39379W        W11105  35.450  18.264  12.879
39380W        W11106  20.171   2.750  13.007
39381W        W11107  40.345  28.505  13.411
39382W        W11108  32.472   7.756   4.473
39383W        W11109  35.556   4.653  11.146
39384W        W11110  16.241   6.292   4.392
39385W        W11111  44.678  35.901   1.858
39386W        W11112  23.286   1.292   3.754
39387W        W11113  36.061  12.224   0.379
39388W        W11114   4.531  16.289  13.085
39389W        W11115  25.106  21.776  14.910
39390W        W11116   4.349  43.586   2.765
39391W        W11117   8.175  18.784  12.932
39392W        W11118  24.575   4.593  13.358
39393W        W11119  30.455  34.553   1.965
39394W        W11120  22.751  33.102   2.620
39395W        W11121  39.108  30.487   0.905
39396W        W11122   9.885   4.862  11.642
39397W        W11123  19.786  20.174  11.926
39398W        W11124  38.942  15.303   0.783
39399W        W11125   5.719  37.005  14.535
39400W        W11126  25.934  19.168   1.723
39401W        W11127   3.924   4.401  11.544
39402W        W11128   3.400  32.432  12.481
39403W        W11129  25.728  27.809  14.369
39404W        W11130  24.461  44.964  13.786
39405W        W11131  15.305   0.216  11.195
39406W        W11132  39.460   5.383  11.014
39407W        W11133  18.979  36.948   0.261
39408W        W11134  35.445  18.566   1.907
39409W        W11135   9.393   4.693  14.552
39410W        W11136  16.201  19.224   2.272
39411W        W11137  19.751  35.830  13.380
39412W        W11138  31.342  34.128   3.227
39413W        W11139  11.582  13.040   4.269
39414W        W11140  44.020  15.907  14.818
39415W        W11141  11.305  39.070   0.057
39416W        W11142  40.503  27.117  13.340
39417W        W11143  19.390  14.940   2.403
39418W        W11144   3.010  13.664   1.759
39419W        W11145  25.741  19.259  11.862
39420W        W11146  11.204  26.065  14.964
39421W        W11147  15.266  11.397  11.257
39422W        W11148  24.166  22.950  12.936
39423W        W11149   0.644  38.578   2.230
39424W        W11150  44.520   2.735   1.689
39425W        W11151  34.062  42.035  12.284
39426W        W11152  24.890   5.004  11.529
39427W        W11153  30.539  16.036   2.791
39428W        W11154  31.587  41.633   0.789
39429W        W11155  12.189   9.448  12.564
39430W        W11156   7.340  38.475   0.292
39431W        W11157   9.796   6.741  14.398
39432W        W11158  15.309  18.966   4.306
39433W        W11159  44.368  30.656  13.900
39434W        W11160  11.141  21.049   1.250
39435W        W11161   9.976   4.838   0.310
39436W        W11162   0.502  20.637  10.793
39437W        W11163  34.571   2.841  13.025
39438W        W11164  35.739   5.338  11.513
39439W        W11165  39.814  38.357   2.800
39440W        W11166  33.439  42.434   4.811
39441W        W11167  40.318  29.179   4.118
39442W        W11168  18.710   7.768   1.657
39443W        W11169  33.610  28.461   4.172
39444W        W11170  28.401  28.147   3.634
39445W        W11171  28.664  26.377   1.609
39446W        W11172  11.618  41.875   2.296
39447W        W11173  18.983   4.167  14.446
39448W        W11174   6.227  22.562  10.780
39449W        W11175  40.398  38.208  12.971
39450W        W11176  11.319  12.678  12.403
39451W        W11177  18.190  43.259  11.064
39452W        W11178  34.870  38.482   4.073
39453W        W11179  36.733   6.164   4.606
39454W        W11180  42.934  26.868   1.953
39455W        W11181  20.540  18.130  13.043
39456W        W11182  42.674  13.557  11.156
39457W        W11183  21.004  13.126   1.548
39458W        W11184   4.214   8.331  14.129
39459W        W11185  42.794  17.557   0.472
39460W        W11186  14.881  14.566  13.980
39461W        W11187   3.633  11.421  10.119
39462W        W11188  41.789   2.847  10.724
39463W        W11189   2.397  37.396   0.031
39464W        W11190  37.366  25.481  10.664
39465W        W11191  44.581  19.373  13.351
39466W        W11192   1.972   1.912  10.900
39467W        W11193  30.027  23.268   2.851
39468W        W11194  29.119   7.322  11.624
39469W        W11195   0.463   9.767   3.397
39470W        W11196   7.349  39.548  13.274
39471W        W11197  39.843  17.858  13.497
39472W        W11198  26.079  26.496   4.737
39473W        W11199  12.726   3.858   4.893
39474W        W11200   4.530  40.350  11.284
39475W        W11201  25.279  36.509  12.509
39476W        W11202   2.117   9.401  12.928
39477W        W11203  20.815  17.472  11.566
39478W        W11204   6.378  18.627   2.171
39479W        W11205   7.598  24.620  10.127
39480W        W11206  43.134   7.047  13.365
39481W        W11207   8.163  30.547  14.522
39482W        W11208  43.029  30.234  10.824
39483W        W11209  26.943  18.193  12.071
39484W        W11210  38.704  25.606  10.751
39485W        W11211  43.033  42.772   1.003
39486W        W11212  39.865  17.759  14.359
39487W        W11213  21.550   1.068  12.968
39488W        W11214  17.809  12.692   4.074
39489W        W11215  15.667  34.229  13.949
39490W        W11216  16.899  20.651   2.244
39491W        W11217   7.653   8.645  13.026
39492W        W11218   9.789  33.902  13.287
39493W        W11219  11.341  29.809   0.001
39494W        W11220  22.141   7.266   1.981
39495W        W11221   9.201  16.323   0.295
39496W        W11222  36.418  44.334  13.948
39497W        W11223  25.146  12.536   4.131
39498W        W11224  20.237  23.460  10.758
39499W        W11225  38.907  19.776   0.806
39500W        W11226  15.135   8.391   0.965
39501W        W11227  42.408  29.443   1.302
39502W        W11228  24.487   7.399  14.678
39503W        W11229  26.490  32.683  10.933
39504W        W11230  21.964  39.348  11.555
39505W        W11231  26.538  10.196  14.977
39506W        W11232   2.205  14.712   3.339
39507W        W11233  35.014  42.951   3.750
39508W        W11234  20.556  23.106  14.832
39509W        W11235  14.879  17.235   1.730
39510W        W11236  43.582  21.045   1.623
39511W        W11237  25.489  42.789  13.873
39512W        W11238  31.814  44.697   9.736
39513W        W11239  17.729  33.540  12.399
39514W        W11240   7.484  30.362   0.217
39515W        W11241  43.722  44.442  14.378
39516W        W11242  36.232  41.522  13.971
39517W        W11243  34.424  26.211  13.771
39518W        W11244  14.266  27.089   0.729
39519W        W11245   1.168  38.502   4.027
39520W        W11246  37.546  19.909   1.456
39521W        W11247  25.111  16.966   3.644
39522W        W11248  37.415  44.400   4.466
39523W        W11249  40.970  15.227  11.227
39524W        W11250   8.169  20.771  10.528
39525W        W11251  35.626   3.031   2.254
39526W        W11252  33.501  33.320   0.436
39527W        W11253   5.400  22.986   0.868
39528W        W11254  31.732  30.369   3.970
39529W        W11255  23.496  32.973  14.447
39530W        W11256  37.516  12.892  12.532
39531W        W11257  12.312   6.643   2.273
39532W        W11258   6.568  12.406   2.367
39533W        W11259  44.834  25.684  10.573
39534W        W11260  29.518  39.901  12.771
39535W        W11261  22.232  36.013   4.085
39536W        W11262  34.903  26.439   1.185
39537W        W11263  20.219  13.777  14.471
39538W        W11264  18.700  41.868   4.208
39539W        W11265  44.972  33.346  13.869
39540W        W11266  16.825  38.144   4.270
39541W        W11267  34.087  11.939  13.896
39542W        W11268  24.743  13.808  12.943
39543W        W11269  37.072  25.446   0.756
39544W        W11270  36.406  25.546   3.277
39545W        W11271  15.647  10.661   0.898
39546W        W11272  41.549  39.058   3.077
39547W        W11273  36.857  17.064   4.093
39548W        W11274   5.458  35.641   4.526
39549W        W11275  30.424  19.192  11.590
39550W        W11276  15.612  33.343  13.327
39551W        W11277  10.818  32.080   2.241
39552W        W11278   2.756  39.892   2.320
39553W        W11279   4.510  21.690  11.192
39554W        W11280  42.047  12.694   1.141
39555W        W11281  20.165   5.741   2.236
39556W        W11282  39.548  27.055  11.960
39557W        W11283   9.195  10.420   0.778
39558W        W11284  12.075  42.593  11.991
39559W        W11285   0.042   4.324  12.099
39560W        W11286  36.677  42.331   2.432
39561W        W11287  33.488  41.557  11.361
39562W        W11288  43.509  33.184  11.021
39563W        W11289  16.188  16.154   2.696
39564W        W11290  22.471  42.898  14.931
39565W        W11291  13.153  21.843  14.446
39566W        W11292  42.939  14.029   3.247
39567W        W11293  39.977  28.648  14.044
39568W        W11294   6.793  38.618   2.211
39569W        W11295  12.636   4.218  12.567
39570W        W11296  17.722  34.557   2.791
39571W        W11297  16.104  16.359   1.157
39572W        W11298  25.123  11.857  14.458
39573W        W11299  20.748   2.007  10.348
39574W        W11300  26.004  26.684  14.902
39575W        W11301  18.008  20.132   1.978
39576W        W11302  26.918  17.841   4.504
39577W        W11303  30.633  22.429   2.857
39578W        W11304   5.172  12.534  10.904
39579W        W11305  31.620   8.177  14.977
39580W        W11306  41.947   8.361   3.664
39581W        W11307  11.397  33.042  12.102
39582W        W11308  18.369  35.936   4.280
39583W        W11309   7.202  10.863   4.532
39584W        W11310  12.327  18.552   4.088
39585W        W11311  23.417  18.501  11.173
39586W        W11312   1.968  32.443   0.514
39587W        W11313  13.586   0.908  12.444
39588W        W11314  32.521   7.401   0.724
39589W        W11315  41.203  31.047  11.610
39590W        W11316  21.043  24.633  14.272
39591W        W11317  28.917  33.464  11.840
39592W        W11318  27.766   3.412  12.523
39593W        W11319  35.934   4.941  12.452
39594W        W11320  24.719   4.147   2.499
39595W        W11321   7.268  28.868   3.857
39596W        W11322  16.094  43.888  14.964
39597W        W11323  18.747  26.243   3.736
39598W        W11324  32.504   4.430  11.918
39599W        W11325  30.972  28.165  14.170
39600W        W11326  33.692   0.979  10.998
39601W        W11327  37.222  23.932  14.965
39602W        W11328   7.844  17.668  14.886
39603W        W11329  36.785  37.646  13.164
39604W        W11330   6.370   6.392  12.584
39605W        W11331   9.176  25.461  12.335
39606W        W11332  32.511  33.150  12.418
39607W        W11333  14.711  24.063  11.603
39608W        W11334  41.554   0.977  14.431
39609W        W11335  20.238   4.426   2.397
39610W        W11336  41.913  11.544   2.215
39611W        W11337   6.950  22.245   0.983
39612W        W11338  41.087   8.373   1.002
39613W        W11339  35.472   5.824   4.278
39614W        W11340  43.836   9.819  14.276
39615W        W11341   2.280  39.623  11.500
39616W        W11342  40.026  24.789   2.331
39617W        W11343  23.189  22.969  14.281
39618W        W11344  12.185  29.139  12.629
39619W        W11345  29.860  43.762   0.885
39620W        W11346   8.406   3.007  13.865
39621W        W11347   0.997  13.835   2.334
39622W        W11348   0.839  40.477  13.769
39623W        W11349  40.187  14.439  13.414
39624W        W11350  44.401   8.441   3.104
39625W        W11351   0.282  33.848   1.443
39626W        W11352  16.291  11.329   1.275
39627W        W11353  22.773   4.896   4.639
39628W        W11354  26.009  36.290  13.120
39629W        W11355  29.719  20.815   0.878
39630W        W11356  28.169  34.883   2.615
39631W        W11357   8.684  22.517  13.330
39632W        W11358  18.085   4.225   4.546
39633W        W11359  43.879  32.477   1.303
39634W        W11360  27.186  31.478   4.350
39635W        W11361  40.023  27.769   4.801
39636W        W11362  37.222   2.288   4.249
39637W        W11363  27.954  11.810  14.223
39638W        W11364   4.916   4.780   0.575
39639W        W11365  21.378   6.687  10.913
39640W        W11366   3.783   4.445  13.488
39641W        W11367  32.283  28.538   4.743
39642W        W11368   8.755  17.218   3.641
39643W        W11369  26.805  32.617   5.084
39644W        W11370   4.787  24.213  14.936
39645W        W11371  13.525  26.296   4.693
39646W        W11372  14.654  29.735  11.994
39647W        W11373  25.987  19.452  10.666
39648W        W11374   4.453  16.177   1.241
39649W        W11375  20.469  36.545   4.327
39650W        W11376  14.647  11.352   1.959
39651W        W11377  36.135   0.217  13.349
39652W        W11378  31.406  23.729   3.218
39653W        W11379  34.150   1.727  11.155
39654W        W11380   4.734   4.847   2.827
39655W        W11381  18.654  31.324   0.967
39656W        W11382   2.017  35.571   1.842
39657W        W11383  34.814   6.035  11.496
39658W        W11384   1.346  34.941   3.393
39659W        W11385   3.727  12.702  13.081
39660W        W11386  23.039   4.002   0.385
39661W        W11387  18.572   9.560  13.792
39662W        W11388  28.863   0.832   1.219
39663W        W11389   6.904  21.970  12.442
39664W        W11390   6.426  10.439  10.234
39665W        W11391  10.987  18.647   1.188
39666W        W11392  24.680  35.453   0.979
39667W        W11393  27.581  34.646   4.558
39668W        W11394  18.016   1.064   4.920
39669W        W11395  44.530  21.010  10.983
39670W        W11396  10.647   1.467  11.580
39671W        W11397   7.508  33.904   0.192
39672W        W11398  18.750  13.897   3.172
39673W        W11399  10.700  23.476   3.333
39674W        W11400  36.009  11.686  11.174
39675W        W11401  42.217   0.876  13.074
39676W        W11402   2.444  29.665  11.145
39677W        W11403   8.186  24.562  12.622
39678W        W11404  34.183  19.844   1.763
39679W        W11405  44.671  18.712   3.667
39680W        W11406  17.594   5.015  12.117
39681W        W11407   9.681  11.908   0.848
39682W        W11408  21.205  32.147   1.205
39683W        W11409  20.558  37.977  11.020
39684W        W11410   2.355   9.901   2.185
39685W        W11411  39.852  37.499  11.024
39686W        W11412  23.129  13.625  10.576
39687W        W11413  32.899  24.054   0.716
39688W        W11414  13.176   5.442   2.735
39689W        W11415  26.715  19.526   3.336
39690W        W11416  16.656  33.645  12.935
39691W        W11417  23.565  43.946   2.369
39692W        W11418  16.701  10.765  13.038
39693W        W11419  22.032  17.395  12.373
39694W        W11420  18.840   5.279   3.629
39695W        W11421   0.522  10.822  11.157
39696W        W11422   8.770  33.141   3.248
39697W        W11423  42.391  40.502  12.968
39698W        W11424  20.336  19.566  10.791
39699W        W11425  15.790  28.998   2.275
39700W        W11426  11.762  28.454   0.426
39701W        W11427  34.886  17.156  10.749
39702W        W11428   8.967  40.214  13.373
39703W        W11429   6.028   0.962   1.135
39704W        W11430  39.096   2.490  14.774
39705W        W11431  26.202   7.499  10.689
39706W        W11432  37.886  18.054   0.456
39707W        W11433  41.514   7.301  12.121
39708W        W11434  36.219  28.971   1.653
39709W        W11435  11.612   3.685   1.426
39710W        W11436  24.557  20.308   2.873
39711W        W11437  20.907  44.004  14.259
39712W        W11438  26.131  14.759   3.067
39713W        W11439  35.438  35.801   5.020
39714W        W11440  24.727  18.294  13.941
39715W        W11441  31.565  44.131   3.141
39716W        W11442  23.186  26.220   0.781
39717W        W11443  19.777  33.104   2.810
39718W        W11444  31.681  27.694   4.732
39719W        W11445  34.519  29.969  13.906
39720W        W11446  14.544  40.590   0.944
39721W        W11447  24.243  40.516   3.694
39722W        W11448  33.503  17.769  14.762
39723W        W11449   9.620  43.603   1.276
39724W        W11450  32.616  13.380   0.288
39725W        W11451   3.138   1.438  11.167
39726W        W11452  15.274   9.837  11.633
39727W        W11453  40.362  34.611   1.886
39728W        W11454  32.666  33.477   4.039
39729W        W11455  34.359  38.833   0.423
39730W        W11456  10.496  26.746   1.948
39731W        W11457  41.007  21.728   1.205
39732W        W11458   1.788  22.250   4.276
39733W        W11459  32.461   9.124   0.253
39734W        W11460  12.787  26.211   2.172
39735W        W11461  17.580  15.845  10.346
39736W        W11462  35.350  44.271  11.952
39737W        W11463  20.418  14.657  12.611
39738W        W11464   7.895  37.594   1.763
39739W        W11465   6.360  12.638  11.540
39740W        W11466  31.860  18.568  10.637
39741W        W11467  42.228  13.082  12.076
39742W        W11468  23.136  23.729   1.476
39743W        W11469  16.576  12.331   4.687
39744W        W11470  36.292  43.917   0.932
39745W        W11471  32.386  40.768   1.390
39746W        W11472  35.522  35.102  14.478
39747W        W11473  25.232  26.446   1.817
39748W        W11474  17.168   2.162   1.680
39749W        W11475  30.650  34.343   0.964
39750W        W11476  14.600  19.174  12.992
39751W        W11477  34.888  31.668   1.826
39752W        W11478   4.267  40.620   3.960
39753W        W11479  27.059  27.382  14.880
39754W        W11480  43.741  26.694   9.633
39755W        W11481  10.795  40.236   4.320
39756W        W11482  44.944   5.607   1.863
39757W        W11483  11.812  36.358   4.988
39758W        W11484  31.149  18.148  14.431
39759W        W11485  44.336  22.207  12.132
39760W        W11486  18.187  32.638   0.966
39761W        W11487  22.254  41.925   0.889
39762W        W11488  12.420   0.387   4.756
39763W        W11489  26.639  16.538   2.186
39764W        W11490  28.150  28.564  13.807
39765W        W11491  18.567  26.977   2.127
39766W        W11492  44.329   3.866  13.183
39767W        W11493  20.467  22.017   0.931
39768W        W11494  32.422  32.957   2.238
39769W        W11495  21.142  41.244  12.853
39770W        W11496  39.608   2.261   1.226
39771W        W11497   8.703   5.718   1.765
39772W        W11498  30.553  27.358   1.686
39773W        W11499  18.666   9.246  12.897
39774W        W11500   2.292  10.277   1.407
39775W        W11501  23.467   3.498   3.797
39776W        W11502  29.144  13.371  10.599
39777W        W11503  40.348  30.903   0.226
39778W        W11504   9.649  40.553   1.833
39779W        W11505  25.138  36.960  11.062
39780W        W11506  39.716  14.507  13.619
39781W        W11507  27.630  18.239  11.088
39782W        W11508  14.625  40.346   2.256
39783W        W11509   2.942   1.916  14.236
39784W        W11510   0.935  31.461  11.588
39785W        W11511  42.687  31.502  11.161
39786W        W11512  22.158  38.085   0.032
39787W        W11513  32.675  22.515  13.453
39788W        W11514  13.216  10.493  10.215
39789W        W11515  28.400  42.553  14.746
39790W        W11516  27.934  20.929  11.223
39791W        W11517  28.400  11.407   4.206
39792W        W11518  16.763   5.611   1.463
39793W        W11519  34.392  10.458   3.831
39794W        W11520  33.474  18.349  11.572
39795W        W11521  42.009  23.994  14.883
39796W        W11522  37.082   7.351  10.998
39797W        W11523  40.528  22.165  12.533
39798W        W11524  28.146  30.636  12.642
39799W        W11525  13.910  28.551  12.420
39800W        W11526   3.436  13.403   2.020
39801W        W11527   8.759  12.572  13.867
39802W        W11528  34.857  41.901   2.773
39803W        W11529  31.324  37.771   0.268
39804W        W11530  38.956  37.945   2.408
39805W        W11531   4.283   1.721   2.196
39806W        W11532   6.157  22.163  10.220
39807W        W11533  43.770  35.681   1.884
39808W        W11534   3.624   8.818   4.167
39809W        W11535  15.679  44.650  14.888
39810W        W11536   7.741  29.567  12.510
39811W        W11537   5.337  12.345   1.490
39812W        W11538   2.764   4.734  12.056
39813W        W11539  25.826  34.744   2.548
39814W        W11540   5.361   1.852  12.265
39815W        W11541  42.318  11.055  14.468
39816W        W11542  26.208  30.075  14.829
39817W        W11543  34.200   5.308  13.410
39818W        W11544  32.334  43.920  10.651
39819W        W11545  18.191  33.453   4.836
39820W        W11546  27.852  38.013  11.718
39821W        W11547  39.775  38.051  10.482
39822W        W11548   1.005  10.719   3.641
39823W        W11549  28.526   7.866   0.984
39824W        W11550  18.263   1.222  13.022
39825W        W11551  42.763  33.481  11.071
39826W        W11552  42.178   9.193   3.278
39827W        W11553  13.382  41.262  13.606
39828W        W11554  29.609  41.981   1.188
39829W        W11555  25.892  30.769  12.842
39830W        W11556  11.849  25.747  12.987
39831W        W11557  35.423  24.660   4.625
39832W        W11558  28.995  28.515  14.247
39833W        W11559   4.816  23.775  11.082
39834W        W11560   6.842  44.230  14.641
39835W        W11561  18.573  22.184  11.541
39836W        W11562  10.884  30.074  11.437
39837W        W11563   7.756  38.913   0.206
39838W        W11564   5.729  24.795  12.085
39839W        W11565  28.766  22.586  12.580
39840W        W11566   1.286  38.417   0.204
39841W        W11567  18.606  42.900  14.982
39842W        W11568  36.641  39.979  14.062
39843W        W11569  11.120  18.142   2.886
39844W        W11570   6.626  16.299  10.707
39845W        W11571  44.224  26.719  12.154
39846W        W11572  39.380  24.968  11.084
39847W        W11573  34.962   3.624  14.988
39848W        W11574  26.127  35.131  14.497
39849W        W11575  14.298  19.320   1.194
39850W        W11576  10.668  33.153  12.541
39851W        W11577   1.479  11.413   0.445
39852W        W11578  16.141  16.186   4.560
39853W        W11579  41.921   7.704   3.185
39854W        W11580  19.333  40.113   0.895
39855W        W11581  22.624  23.991  14.797
39856W        W11582  14.730  34.360   3.282
39857W        W11583   4.631  26.876  12.804
39858W        W11584  24.092  34.582   3.348
39859W        W11585  27.012  39.301  13.824
39860W        W11586  12.337  24.732   4.271
39861W        W11587   4.991  29.964  12.015
39862W        W11588  22.628  31.159  12.535
39863W        W11589   7.248  25.209   1.852
39864W        W11590  11.616  11.254  13.787
39865W        W11591   9.421  21.315  11.018
39866W        W11592  36.332  42.932  14.442
39867W        W11593  39.261  13.632  12.438
39868W        W11594  22.662  43.413  14.870
39869W        W11595  44.586  31.772   1.152
39870W        W11596  40.516   9.176   0.489
39871W        W11597  14.764  30.221  10.751
39872W        W11598   4.069  15.119  14.390
39873W        W11599  29.234  40.276  11.006
39874W        W11600  15.280  38.946  12.289
39875W        W11601  41.741  22.077  14.259
39876W        W11602  41.890  43.539  11.459
39877W        W11603  15.278  22.230  12.686
39878W        W11604  28.622  28.834   2.053
39879W        W11605  43.225  22.884  12.992
39880W        W11606  21.330  15.046   2.876
39881W        W11607  38.472   7.982   2.950
39882W        W11608   8.630  39.749   1.427
39883W        W11609  14.649   5.895  14.035
39884W        W11610  11.302  43.831  11.779
39885W        W11611   5.189   1.012   3.982
39886W        W11612  32.547   5.760  10.560
39887W        W11613   5.644   9.478   3.165
39888W        W11614  27.425  17.699   4.473
39889W        W11615  17.387  42.955  13.594
39890W        W11616  36.021   2.542  12.552
39891W        W11617  30.397  24.677  10.230
39892W        W11618  39.795  35.825  11.189
39893W        W11619  31.202  42.458   4.504
39894W        W11620   7.228   2.323   4.462
39895W        W11621  37.527   9.685  14.988
39896W        W11622   7.479  12.581  14.300
39897W        W11623   2.515   6.991   3.755
39898W        W11624  32.493  38.332  12.031
39899W        W11625  18.276   5.457   4.167
39900W        W11626  13.690  24.706   4.586
39901W        W11627  15.637  29.627   2.853
39902W        W11628  24.685  28.419   0.425
39903W        W11629   5.274  26.498  11.934
39904W        W11630  35.525  10.922   1.654
39905W        W11631  35.066  43.771   3.230
39906W        W11632  27.397  40.485   3.886
39907W        W11633  20.287  31.005   3.164
39908W        W11634   0.905  44.346   4.225
39909W        W11635  10.113  24.278   2.955
39910W        W11636  23.734  28.522  10.908
39911W        W11637  43.925  19.193   4.877
39912W        W11638   1.987   8.261  11.552
39913W        W11639  30.392   0.524  14.994
39914W        W11640  18.004  42.749   2.653
39915W        W11641  21.973  24.210   3.200
39916W        W11642  27.068  41.241  11.992
39917W        W11643  43.248   1.277  11.477
39918W        W11644  18.795  31.505   2.532
39919W        W11645  42.155  26.053   0.241
39920W        W11646  24.530  31.944   4.005
39921W        W11647  28.352  40.122  14.079
39922W        W11648  26.790  40.139  11.196
39923W        W11649  27.582  13.795   3.606
39924W        W11650  31.188  39.463  10.648
39925W        W11651  21.703  31.983  12.923
39926W        W11652  41.478  15.921  13.815
39927W        W11653  35.565  37.588   0.868
39928W        W11654   5.482   1.285   2.763
39929W        W11655  30.648  30.866  14.423
39930W        W11656  14.200   4.383  11.507
39931W        W11657  42.038  35.450  11.477
39932W        W11658  26.556   1.011   0.866
39933W        W11659  31.395  34.069  10.553
39934W        W11660  25.077  33.622   3.401
39935W        W11661  40.185   2.515  12.050
39936W        W11662  31.980  24.172  13.637
39937W        W11663  37.448   3.794  12.342
39938W        W11664  40.364  40.479   3.834
39939W        W11665  23.257   0.578  13.308
39940W        W11666  30.515  44.812  10.600
39941W        W11667  32.316  40.158   0.399
39942W        W11668  33.442  40.856   1.949
39943W        W11669  43.954   4.892   4.312
39944W        W11670   3.443  26.539   4.599
39945W        W11671  43.899  24.919   0.133
39946W        W11672  42.273  33.926  11.415
39947W        W11673   6.610  30.040   1.189
39948W        W11674  43.703  24.170  13.861
39949W        W11675  30.045  13.765  12.509
39950W        W11676  20.584  13.117   3.625
39951W        W11677   3.787  23.577   2.340
39952W        W11678  15.279  28.225   3.729
39953W        W11679  36.567  30.646  12.897
39954W        W11680  41.902   6.663  14.198
39955W        W11681  41.568  28.261   3.758
39956W        W11682  34.945   7.370   3.136
39957W        W11683  28.920  18.327   1.782
39958W        W11684   5.510   8.237  12.602
39959W        W11685   9.793  17.753   1.329
39960W        W11686   8.781  20.204   2.166
39961W        W11687  37.808  38.592   3.674
39962W        W11688   6.977   6.784   4.599
39963W        W11689  23.149  33.122   4.853
39964W        W11690  41.424  28.009   2.410
39965W        W11691   2.440  27.466  13.112
39966W        W11692  18.732  36.547  12.594
39967W        W11693  41.410  12.663  13.781
39968W        W11694  32.927  11.143  13.108
39969W        W11695  10.786  36.603  11.611
39970W        W11696  17.225  27.482   1.719
39971W        W11697  41.507   2.064   2.679
39972W        W11698  29.686  29.149  12.971
39973W        W11699   8.884  22.736   5.384
39974W        W11700  26.696  19.176  11.981
39975W        W11701  38.905  25.181   0.756
39976W        W11702  14.848  22.655  13.509
39977W        W11703  38.118  12.937  13.395
39978W        W11704  42.415  17.744  11.170
39979W        W11705   4.734  19.970   0.172
39980W        W11706  34.760  35.348   0.419
39981W        W11707  42.358  13.291   3.352
39982W        W11708  26.820  16.106   4.743
39983W        W11709  21.197   6.671   3.206
39984W        W11710   0.615   0.505  14.437
39985W        W11711  37.332   1.197   2.404
39986W        W11712  30.998   3.733  13.721
39987W        W11713   3.971  27.366   0.069
39988W        W11714   4.642  39.827  13.080
39989W        W11715  28.607   2.242  11.863
39990W        W11716  39.221   9.382   1.800
39991W        W11717   9.635  32.106  14.390
39992W        W11718  14.574  36.938  14.311
39993W        W11719  18.760  37.538   2.323
39994W        W11720   6.681  26.402  12.175
39995W        W11721  25.496   0.201  13.011
39996W        W11722  40.124   7.602   4.593
39997W        W11723   3.153  18.202  13.552
39998W        W11724   1.842   8.088   1.294
39999W        W11725   9.235  39.937   2.244
40000W        W11726   4.651  41.801  14.158
40001W        W11727  32.277  29.079  11.461
40002W        W11728   0.863  33.620   2.838
40003W        W11729   9.840  10.201  13.301
40004W        W11730  35.116  13.075   2.365
40005W        W11731  20.302   6.681  13.410
40006W        W11732  44.798   4.210   1.729
40007W        W11733  35.572  44.320   4.355
40008W        W11734  43.078  37.110  14.909
40009W        W11735  13.105   6.625   1.903
40010W        W11736  26.158   1.600  11.593
40011W        W11737  25.017  27.310  14.139
40012W        W11738  28.647  41.399  13.954
40013W        W11739  34.608   8.488   3.279
40014W        W11740  28.461  23.007  12.593
40015W        W11741  16.379  11.808   2.289
40016W        W11742  34.503  44.434   4.531
40017W        W11743  40.124  26.720  11.625
40018W        W11744  34.364  39.520   3.188
40019W        W11745  24.536  13.748  13.942
40020W        W11746  31.730  28.610  14.380
40021W        W11747  37.867  25.002   0.265
40022W        W11748  39.351  21.019  14.076
40023W        W11749  19.122  17.195  13.349
40024W        W11750  15.759   5.823   4.093
40025W        W11751  40.107  35.433   4.466
40026W        W11752  28.566  17.040   1.961
40027W        W11753  39.111  19.729  13.594
40028W        W11754  16.972  16.665   2.730
40029W        W11755  19.588  15.407  11.699
40030W        W11756  40.570  21.690   1.854
40031W        W11757   3.863  35.197  13.063
40032W        W11758  35.010  10.195   4.685
40033W        W11759   5.177  19.697  13.589
40034W        W11760  28.117   1.771  14.578
40035W        W11761  12.204  41.383  13.531
40036W        W11762   0.496  31.949  13.720
40037W        W11763  30.153   8.632   4.125
40038W        W11764   0.402  10.155  14.760
40039W        W11765   9.318   9.072   2.375
40040W        W11766  19.297  19.377   1.811
40041W        W11767  20.616  40.984   4.444
40042W        W11768  12.805  11.584   4.036
40043W        W11769  20.642  43.560   0.157
40044W        W11770  21.196   0.368   4.512
40045W        W11771  40.841  29.107  10.742
40046W        W11772   0.350  28.086  10.683
40047W        W11773  18.224  44.125  11.989
40048W        W11774  14.314  30.150   1.342
40049W        W11775  25.041  30.210   3.922
40050W        W11776   2.458  40.829  12.554
40051W        W11777  34.354  35.951   2.301
40052W        W11778  16.366  35.996   0.808
40053W        W11779   3.556  11.168   2.255
40054W        W11780   5.920  25.190  11.249
40055W        W11781  15.104  22.277  12.212
40056W        W11782  44.374  23.449   1.846
40057W        W11783  35.604   3.317  10.676
40058W        W11784  19.006  32.143   4.689
40059W        W11785  26.531  43.892  12.476
40060W        W11786  39.378  22.766   0.698
40061W        W11787  17.677  41.214   0.502
40062W        W11788  27.807  15.072   3.073
40063W        W11789  21.973  17.397  10.958
40064W        W11790  44.999  42.938  12.847
40065W        W11791  38.101  16.643  12.907
40066W        W11792  40.437   1.212  11.647
40067W        W11793  33.880  34.020   0.928
40068W        W11794   9.996   0.738  14.931
40069W        W11795  27.020  29.341   2.732
40070W        W11796   5.477   4.705  14.914
40071W        W11797  36.563  17.189  12.403
40072W        W11798  33.800  24.822  14.815
40073W        W11799  38.847   7.724   2.103
40074W        W11800  23.454   3.890  12.199
40075W        W11801  26.666   4.996  13.405
40076W        W11802  12.237  23.632   1.421
40077W        W11803  33.537  40.077   0.328
40078W        W11804  43.221   9.646  13.694
40079W        W11805  24.175  32.256  12.779
40080W        W11806  24.515  35.397   4.565
40081W        W11807  25.053  34.458  14.918
40082W        W11808  27.161  12.553   3.942
40083W        W11809  31.329   4.808  12.417
40084W        W11810   3.210  26.382   4.164
40085W        W11811  31.556  38.004   4.107
40086W        W11812  44.568   1.985  12.925
40087W        W11813  23.948  14.825  12.880
40088W        W11814  18.456  22.043   3.816
40089W        W11815   8.485   3.523   4.184
40090W        W11816  13.628  16.214  12.110
40091W        W11817  36.628  25.056   3.328
40092W        W11818  43.263  10.368   4.530
40093W        W11819  10.516  35.601  10.293
40094W        W11820  35.855  30.952   0.721
40095W        W11821   9.801  36.026  11.915
40096W        W11822  40.437  32.700   0.809
40097W        W11823  41.031   6.647  14.278
40098W        W11824   8.686   1.855  11.656
40099W        W11825   6.773  13.345  11.614
40100W        W11826  41.782  38.469  14.890
40101W        W11827  27.145  43.830  13.807
40102W        W11828  27.362  19.191   3.676
40103W        W11829  38.942   5.860  11.074
40104W        W11830  24.670  33.076  13.775
40105W        W11831   4.415  42.249  11.936
40106W        W11832  15.085   4.636   2.320
40107W        W11833   0.946  16.692   0.994
40108W        W11834   9.135  42.492   1.192
40109W        W11835  33.387  41.013  11.554
40110W        W11836   1.399  28.107   0.357
40111W        W11837  12.091   0.833   1.432
40112W        W11838  21.161  25.775  10.675
40113W        W11839  42.547   3.796  11.146
40114W        W11840   5.178  23.938   2.841
40115W        W11841   8.804  24.907   1.160
40116W        W11842  29.555   7.696  14.376
40117W        W11843   0.317  35.382   3.561
40118W        W11844  36.495  43.441   4.843
40119W        W11845  35.775  35.937  12.555
40120W        W11846  30.466  20.211   1.466
40121W        W11847   9.342  16.325  14.005
40122W        W11848  31.494  22.906  13.380
40123W        W11849  20.759  19.269  10.901
40124W        W11850  30.177   7.854  11.080
40125W        W11851  32.510  23.814   1.834
40126W        W11852  26.200  33.668  11.703
40127W        W11853  38.852  27.469   0.284
40128W        W11854  15.660  16.102   2.866
40129W        W11855  39.047  16.845   1.818
40130W        W11856  16.888   0.445   4.209
40131W        W11857  21.818  36.683  13.080
40132W        W11858  12.309  34.472  12.628
40133W        W11859  36.497  23.280  13.035
40134W        W11860  18.539  42.422  13.278
40135W        W11861  18.259   4.924  10.703
40136W        W11862  14.880  27.941   1.671
40137W        W11863  28.026   2.186   1.731
40138W        W11864   3.019  42.735   4.636
40139W        W11865  38.879   2.029  10.473
40140W        W11866   7.150  30.850  14.295
40141W        W11867   9.578  13.283   0.835
40142W        W11868   0.980  19.007  12.475
40143W        W11869   7.719  36.125  11.086
40144W        W11870  44.423   6.085  13.515
40145W        W11871  10.743   1.693  14.938
40146W        W11872  30.334  17.377  11.227
40147W        W11873  14.017  43.283  14.476
40148W        W11874  24.809   9.199   1.518
40149W        W11875  27.623   6.881  14.999
40150W        W11876  16.846  23.634   1.508
40151W        W11877   9.299  23.016   4.219
40152W        W11878  16.779   0.933   4.117
40153W        W11879  21.096   3.620   4.308
40154W        W11880  36.547   2.459   3.007
40155W        W11881  29.211  30.448  10.672
40156W        W11882  41.867  13.590   3.197
40157W        W11883  15.169   8.425  10.676
40158W        W11884  35.748  29.585   1.261
40159W        W11885  19.425  17.757   4.940
40160W        W11886  42.455  36.300   3.789
40161W        W11887  20.733   3.491  14.418
40162W        W11888  39.476  22.519  13.274
40163W        W11889  15.743   4.239   2.418
40164W        W11890  23.747  34.158  13.529
40165W        W11891  41.111  26.601  13.543
40166W        W11892  42.468   7.571   4.739
40167W        W11893  22.056  23.078   2.665
40168W        W11894  17.178   6.449   3.758
40169W        W11895   3.299  27.025  11.397
40170W        W11896   9.953  23.766  12.969
40171W        W11897  44.083  29.628  13.320
40172W        W11898   0.800  35.454   3.335
40173W        W11899  27.942  42.504  12.101
40174W        W11900  41.276  38.955   2.144
40175W        W11901   4.866  34.358  11.584
40176W        W11902   8.653  32.321   5.086
40177W        W11903  24.520   1.410   3.270
40178W        W11904  27.439  28.373  13.408
40179W        W11905  35.022  33.646   0.823
40180W        W11906  13.246   1.363  11.239
40181W        W11907   5.635  19.061   2.666
40182W        W11908   9.830  19.135  12.147
40183W        W11909  30.125  21.735   3.263
40184W        W11910  16.162  36.521   0.938
40185W        W11911  32.214  44.812  12.423
40186W        W11912   0.692   3.932  12.703
40187W        W11913  17.715  37.560  14.469
40188W        W11914  18.589  42.552   0.394
40189W        W11915  28.258  13.186  14.005
40190W        W11916  23.995   9.615  13.398
40191W        W11917   9.252  30.513   0.665
40192W        W11918  21.983   2.458  11.146
40193W        W11919   8.510  37.448   4.691
40194W        W11920  22.784   8.828   2.779
40195W        W11921  41.854   8.892  10.065
40196W        W11922  26.597  44.904  13.467
40197W        W11923   5.896  21.539  12.400
40198W        W11924  16.261  24.438   1.229
40199W        W11925   7.199  25.945   2.868
40200W        W11926  41.831  19.436   3.119
40201W        W11927  29.491   9.381  11.550
40202W        W11928  14.949  26.995  10.563
40203W        W11929   6.898  20.042   3.867
40204W        W11930  15.675  39.200   1.129
40205W        W11931  36.016  22.518   4.684
40206W        W11932  20.783  22.137  13.361
40207W        W11933  44.728  38.404  12.993
40208W        W11934  13.667  32.938   1.412
40209W        W11935  44.473  16.427   0.341
40210W        W11936  36.305  39.035  14.472
40211W        W11937   5.416  35.054  11.975
40212W        W11938  41.283  20.191  11.374
40213W        W11939  18.792  35.786   0.828
40214W        W11940  36.709   0.713   3.766
40215W        W11941  32.040  26.932  11.894
40216W        W11942  21.716  22.951  14.033
40217W        W11943  16.820  37.500   5.091
40218W        W11944  37.916  34.419  11.788
40219W        W11945  12.865  16.800  11.659
40220W        W11946  30.617  40.163   3.624
40221W        W11947  44.985   3.376   2.083
40222W        W11948  32.555   4.732   4.367
40223W        W11949  21.068   5.254  12.698
40224W        W11950   6.534   7.948   2.701
40225W        W11951  44.026   2.409  12.961
40226W        W11952  22.903   0.904  14.288
40227W        W11953  38.393  20.873  12.006
40228W        W11954  16.543  43.088   2.332
40229W        W11955  36.537  33.348  11.524
40230W        W11956   7.805   0.877   3.443
40231W        W11957  32.698   8.714   0.423
40232W        W11958  24.123  23.224   3.569
40233W        W11959  28.947  37.248  13.856
40234W        W11960   5.685  22.527  14.453
40235W        W11961  32.792  12.751  14.577
40236W        W11962  27.077  33.672   4.509
40237W        W11963  27.040  29.493   0.975
40238W        W11964  14.529  11.547  10.359
40239W        W11965  35.965  38.576  11.521
40240W        W11966  21.652  16.878  14.490
40241W        W11967  25.015  21.515  12.588
40242W        W11968  11.669  44.404  11.611
40243W        W11969  29.580  24.952   2.115
40244W        W11970  27.394  16.354  10.724
40245W        W11971  20.575  19.312   4.138
40246W        W11972  27.927   8.880  11.147
40247W        W11973   9.100  26.153   2.901
40248W        W11974  32.611  14.337  13.531
40249W        W11975  16.149  28.712  14.307
40250W        W11976  17.571  28.836  14.572
40251W        W11977  42.665  15.683  14.779
40252W        W11978  39.683  28.595   3.720
40253W        W11979  40.568  13.196   1.296
40254W        W11980  28.556  37.444   3.751
40255W        W11981  26.818  11.617   4.648
40256W        W11982   9.163  27.205  13.479
40257W        W11983   9.137  24.213   4.577
40258W        W11984   2.775  36.936   4.731
40259W        W11985   3.253  26.429  12.945
40260W        W11986  18.652  40.097  14.324
40261W        W11987  35.243  39.952  11.625
40262W        W11988   3.360   0.381   1.262
40263W        W11989   6.391   0.708  14.045
40264W        W11990  35.962  19.851  13.760
40265W        W11991  36.435  21.717   2.617
40266W        W11992  42.828  28.978   1.613
40267W        W11993   9.873   5.179  11.210
40268W        W11994  34.866  15.836  12.461
40269W        W11995  21.516  26.806   2.896
40270W        W11996  14.868  24.177  10.784
40271W        W11997  13.766  37.062   2.306
40272W        W11998   7.500  14.102  12.533
40273W        W11999  39.078  36.016   1.694
40274W        W12000  17.814  11.729  14.005
40275W        W12001  36.999  44.861  11.554
40276W        W12002   1.660  42.817  13.872
40277W        W12003   3.200  31.387  14.491
40278W        W12004  34.232  39.994  13.846
40279W        W12005  22.565   0.745  11.598
40280W        W12006  18.337  41.105   1.706
40281W        W12007  25.200   7.322   1.442
40282W        W12008  14.651  15.611   2.780
40283W        W12009  30.435  20.488   3.669
40284W        W12010  13.045  15.041   2.551
40285W        W12011   6.393  42.771  10.737
40286W        W12012  41.502  38.088  13.419
40287W        W12013  33.571   5.363  10.890
40288W        W12014   8.435  37.585   1.753
40289W        W12015  18.133  13.593   0.533
40290W        W12016  32.926  21.477   2.731
40291W        W12017   3.136  41.909  10.724
40292W        W12018   1.672   0.720  11.188
40293W        W12019   2.948  16.823   3.671
40294W        W12020  11.524  38.704  12.363
40295W        W12021   3.051  38.125  12.439
40296W        W12022  34.943   2.463  11.368
40297W        W12023  42.123  35.275   2.418
40298W        W12024  27.061  38.300   2.112
40299W        W12025  20.102  36.478  14.917
40300W        W12026  20.111   6.140   1.891
40301W        W12027  26.514  21.477  13.502
40302W        W12028  18.577  19.043   4.399
40303W        W12029  30.578   0.415  14.495
40304W        W12030   5.619   7.324   5.447
40305W        W12031  37.249  11.470  10.526
40306W        W12032  25.446   5.712  12.990
40307W        W12033   0.877  21.219  12.507
40308W        W12034  38.488  38.084   4.076
40309W        W12035  44.327  23.477  12.599
40310W        W12036  44.355  13.471   0.753
40311W        W12037  10.371   1.677  12.847
40312W        W12038  31.878   3.174  11.930
40313W        W12039   7.155  30.232   4.638
40314W        W12040   0.203  42.823  12.361
40315W        W12041   6.686  37.825  11.940
40316W        W12042   6.307  34.579  14.692
40317W        W12043   0.846  38.828  13.408
40318W        W12044  14.202  19.832  12.589
40319W        W12045  25.654  38.093  12.623
40320W        W12046  10.924   7.652  12.372
40321W        W12047  38.866  19.237  11.152
40322W        W12048  10.306  14.859   4.201
40323W        W12049  43.089  33.468   4.138
40324W        W12050  18.733  20.044   3.752
40325W        W12051  23.216  14.286   2.764
40326W        W12052  22.039  16.846   2.911
40327W        W12053  13.849   0.961   2.204
40328W        W12054  32.491   0.800  13.533
40329W        W12055  40.063  28.734   0.125
40330W        W12056  11.747  22.639  12.207
40331W        W12057  10.888  17.567  12.821
40332W        W12058  23.623  28.105  12.255
40333W        W12059  24.368  20.792   1.387
40334W        W12060  14.541  43.806  12.987
40335W        W12061   3.821  41.766   4.641
40336W        W12062  27.142  42.825   3.628
40337W        W12063   6.390  38.919   5.061
40338W        W12064   9.213  26.162   1.771
40339W        W12065  32.222  30.874  13.453
40340W        W12066  37.166  28.689  14.450
40341W        W12067  33.975  20.098   2.156
40342W        W12068  20.097  17.036  11.166
40343W        W12069  15.581  27.596  11.953
40344W        W12070  23.228  21.163  12.555
40345W        W12071  32.368  18.591  10.742
40346W        W12072  42.515   5.826   2.383
40347W        W12073   7.101  38.035   2.850
40348W        W12074  19.175  30.878  13.094
40349W        W12075   4.993  33.293   0.404
40350W        W12076  29.970  41.915  14.530
40351W        W12077  44.353  23.439  10.702
40352W        W12078  26.760   7.144  11.341
40353W        W12079  17.282  35.885  13.549
40354W        W12080  33.700  12.268  13.775
40355W        W12081   3.984   5.656   1.885
40356W        W12082  14.499  34.405  13.454
40357W        W12083   8.939  39.085   1.018
40358W        W12084  10.326   9.223   4.367
40359W        W12085   9.421  20.393  12.541
40360W        W12086  23.518  23.707   2.487
40361W        W12087   2.859  32.936  13.334
40362W        W12088  37.006  29.111  10.948
40363W        W12089  14.332  24.648   1.712
40364W        W12090  15.653  11.368  14.122
40365W        W12091  23.749  23.277   2.704
40366W        W12092   4.753   2.976  14.795
40367W        W12093  26.949  14.930  12.128
40368W        W12094  11.628  16.146  12.761
40369W        W12095   9.278  15.790  13.834
40370W        W12096  34.979   1.679  12.434
40371W        W12097  27.428   8.977   3.203
40372W        W12098  16.988  20.142  10.651
40373W        W12099  27.508   8.080  12.591
40374W        W12100   5.390   0.530  10.862
40375W        W12101  10.984   3.862   2.237
40376W        W12102  32.890  12.303  11.683
40377W        W12103   5.826  14.718  14.364
40378W        W12104  38.637   0.239  13.426
40379W        W12105  32.861  23.634   1.505
40380W        W12106   2.690   1.351  12.863
40381W        W12107  18.798  41.667  10.799
40382W        W12108  34.114  38.339  11.588
40383W        W12109  43.634  41.133  14.051
40384W        W12110  32.656  37.929  13.328
40385W        W12111  19.356   9.033   1.725
40386W        W12112  11.347  24.569   0.769
40387W        W12113  22.204  17.989  13.621
40388W        W12114  15.870  19.115  10.650
40389W        W12115  19.015  15.614   1.798
40390W        W12116  40.363  19.245  13.113
40391W        W12117  12.100   4.777   2.428
40392W        W12118   6.976  43.527   2.723
40393W        W12119  43.319  40.882   3.392
40394W        W12120   6.205  14.183   3.802
40395W        W12121  15.812  28.188   2.786
40396W        W12122   4.234   3.384  14.270
40397W        W12123  37.727  40.338   4.757
40398W        W12124  21.972  39.108  11.071
40399W        W12125  11.887  18.105  11.524
40400W        W12126  13.560  37.416   1.334
40401W        W12127  25.692   4.598   0.706
40402W        W12128  33.408  25.084  11.166
40403W        W12129  40.920  31.881   2.891
40404W        W12130  31.209  19.091   0.905
40405W        W12131  31.160  26.704  11.095
40406W        W12132   3.906  35.944  14.674
40407W        W12133   6.891  37.620   0.282
40408W        W12134  34.754  37.349   3.553
40409W        W12135  30.732  35.152  13.050
40410W        W12136  16.226  27.646  10.599
40411W        W12137  23.536  15.252   5.453
40412W        W12138  36.968  36.573   1.902
40413W        W12139   1.423  16.684  14.693
40414W        W12140   5.292  23.364  11.974
40415W        W12141  37.283  29.710   4.572
40416W        W12142   3.799  41.364   0.225
40417W        W12143  32.393  22.769   3.527
40418W        W12144  42.128  30.001  10.688
40419W        W12145  12.786  42.708  10.550
40420W        W12146  33.065  37.964  12.505
40421W        W12147  33.391  12.345   1.191
40422W        W12148   3.943  31.416   3.911
40423W        W12149  41.122  20.536  11.960
40424W        W12150  12.197  34.434   0.906
40425W        W12151  40.503  38.425   4.423
40426W        W12152  31.042   6.124   0.823
40427W        W12153  12.559  34.962  14.704
40428W        W12154   2.538  23.062  13.523
40429W        W12155  34.180   3.427  11.953
40430W        W12156  22.981   2.792   2.735
40431W        W12157   6.882  30.026  13.366
40432W        W12158   1.766   7.169   3.972
40433W        W12159   0.645  13.304   4.528
40434W        W12160  19.666   0.009  12.615
40435W        W12161   6.319  31.694   2.247
40436W        W12162  23.721  24.904   0.261
40437W        W12163  21.408  17.222   1.742
40438W        W12164  38.121  31.141  10.620
40439W        W12165   6.459  10.653  11.533
40440W        W12166  26.474  31.942   1.315
40441W        W12167   4.937  41.877  14.988
40442W        W12168  15.326  32.932   2.071
40443W        W12169   8.451  28.084  14.277
40444W        W12170  29.108  12.348   4.726
40445W        W12171  28.949   3.325   2.541
40446W        W12172  19.711  27.738  12.039
40447W        W12173  17.069  36.119  12.896
40448W        W12174  14.402  12.326  12.999
40449W        W12175  24.117  43.808   4.596
40450W        W12176   7.032  39.401  14.818
40451W        W12177  14.273  36.403  11.536
40452W        W12178  17.986   1.077   3.492
40453W        W12179  40.790   1.417   1.136
40454W        W12180  23.478  38.054   4.119
40455W        W12181   3.262  10.733  13.346
40456W        W12182  33.939  41.449   2.395
40457W        W12183  23.037  38.383  14.786
40458W        W12184  22.588  43.254   4.650
40459W        W12185  41.389  14.829   1.261
40460W        W12186  23.613  32.817  11.919
40461W        W12187  28.929  32.434   1.753
40462W        W12188   2.414  12.479   2.277
40463W        W12189  17.226   6.813  10.453
40464W        W12190  30.169  43.401   4.850
40465W        W12191  13.763   3.876  13.072
40466W        W12192  36.949  21.917  11.068
40467W        W12193   7.441  17.569  11.129
40468W        W12194  19.715   5.717   1.305
40469W        W12195   8.965  19.317   0.668
40470W        W12196  32.245  10.830  13.846
40471W        W12197  33.631   8.379  13.026
40472W        W12198  36.106  10.727  11.477
40473W        W12199  20.708  29.613  14.982
40474W        W12200  29.429   7.717  12.952
40475W        W12201  44.480  15.708  12.488
40476W        W12202  12.350  34.040   4.245
40477W        W12203  18.978  38.999   2.304
40478W        W12204  24.471  19.283   1.362
40479W        W12205  18.987  14.115   5.158
40480W        W12206  29.190  10.859  14.930
40481W        W12207  43.482  38.524   3.187
40482W        W12208  32.136   2.181  14.374
40483W        W12209  28.526  36.276   0.345
40484W        W12210  17.665  39.238  10.558
40485W        W12211   2.831  23.605  11.091
40486W        W12212  42.279  44.413   4.107
40487W        W12213   0.091  15.836  13.390
40488W        W12214  30.836  33.429   3.715
40489W        W12215  41.286  37.853   4.806
40490W        W12216  35.547  33.185  12.874
40491W        W12217  43.304  38.914  10.747
40492W        W12218  20.685  20.717  10.987
40493W        W12219  33.512   6.245   4.482
40494W        W12220  29.061  35.654   3.730
40495W        W12221  30.001  12.190  11.740
40496W        W12222  43.578  16.324   0.421
40497W        W12223   9.179  31.902   1.850
40498W        W12224  19.194   0.059  12.425
40499W        W12225  16.176  40.772  11.566
40500W        W12226  14.381  15.849  11.964
40501W        W12227   5.850  29.378  12.434
40502W        W12228   3.184  31.666  11.179
40503W        W12229  18.539  32.478  13.899
40504W        W12230  29.379  17.695   1.668
40505W        W12231  21.809   5.856  12.700
40506W        W12232  19.121  21.519   3.409
40507W        W12233  23.741  22.877  12.587
40508W        W12234   8.471  31.079  14.233
40509W        W12235  20.302  33.625   2.347
40510W        W12236  39.491  14.227   3.195
40511W        W12237  10.434  28.405  13.858
40512W        W12238  23.238  43.999  10.980
40513W        W12239  12.105  12.173  11.492
40514W        W12240  17.749   3.443  13.005
40515W        W12241  13.077  14.327   0.967
40516W        W12242  15.278  12.494   2.820
40517W        W12243  10.225  43.932   3.471
40518W        W12244  42.254  42.883   1.405
40519W        W12245   1.609  18.445  11.203
40520W        W12246  25.529  30.986   3.496
40521W        W12247  15.713  39.924   1.750
40522W        W12248  27.188   7.883  12.982
40523W        W12249  27.924   2.939  11.107
40524W        W12250  39.401   8.755  10.570
40525W        W12251  36.515  22.257   3.337
40526W        W12252  35.702   4.817  12.024
40527W        W12253  11.817  27.118   1.807
40528W        W12254  17.753   5.821   1.342
40529W        W12255  22.522  23.081  11.456
40530W        W12256  15.487   9.034  14.512
40531W        W12257  37.442  12.863   1.868
40532W        W12258  39.138  14.442   1.673
40533W        W12259  13.169  40.739  11.582
40534W        W12260  10.710  11.973   4.624
40535W        W12261   0.604  26.823   3.743
40536W        W12262  29.912  41.035  11.907
40537W        W12263  29.663  26.599  12.493
40538W        W12264   8.088   3.936  13.982
40539W        W12265  26.549   6.614  14.475
40540W        W12266   3.934   7.353   0.462
40541W        W12267   3.073   0.744   3.383
40542W        W12268  39.937  43.639  11.900
40543W        W12269  17.047  30.842  13.385
40544W        W12270  29.648  29.532   2.702
40545W        W12271  36.161  25.768   1.381
40546W        W12272   7.925  36.307   2.737
40547W        W12273  22.664   0.324   1.422
40548W        W12274   6.744   5.860   0.576
40549W        W12275  37.960   2.977   1.246
40550W        W12276  36.336  41.028  13.868
40551W        W12277  33.109  16.601  13.025
40552W        W12278  20.228  44.175   3.679
40553W        W12279   5.183  28.667   1.234
40554W        W12280  25.684  13.584  13.999
40555W        W12281  16.530  18.669  12.150
40556W        W12282  10.044  22.885  14.449
40557W        W12283  38.960  40.598   2.772
40558W        W12284   4.831   3.381  11.529
40559W        W12285  21.552  17.053  14.991
40560W        W12286  42.047   8.702   0.081
40561W        W12287  35.099  12.081   0.775
40562W        W12288  38.970  30.925  12.945
40563W        W12289  42.390   6.435  11.935
40564W        W12290   1.617   4.372  13.967
40565W        W12291  11.230   4.788   3.353
40566W        W12292  42.829  42.744  11.742
40567W        W12293  35.993  37.890  10.508
40568W        W12294  16.178   4.239   3.174
40569W        W12295  29.081  21.185  14.051
40570W        W12296  42.195   2.929   4.384
40571W        W12297  19.140  38.458  14.845
40572W        W12298  40.630  26.748  11.585
40573W        W12299  21.130  36.624  14.844
40574W        W12300  41.482   8.666   2.989
40575W        W12301  29.147  26.036   2.630
40576W        W12302  29.680  16.731   0.766
40577W        W12303   3.496  23.223   1.793
40578W        W12304  25.517  20.518   1.869
40579W        W12305  33.671  15.776   2.769
40580W        W12306   2.052  30.422   3.205
40581W        W12307  35.561   0.438  11.684
40582W        W12308  33.499  16.854  10.716
40583W        W12309  10.979  10.314   2.175
40584W        W12310  17.800   4.682   2.365
40585W        W12311  34.635  26.495  11.168
40586W        W12312  34.442  33.671  13.382
40587W        W12313   7.436   1.838   3.157
40588W        W12314  16.132   1.402   3.189
40589W        W12315  41.361  34.662   0.091
40590W        W12316  22.334  43.351   2.878
40591W        W12317  27.738  18.580   3.188
40592W        W12318  40.417  35.059   5.156
40593W        W12319  36.930  10.209   2.743
40594W        W12320  23.510  23.590  12.112
40595W        W12321  10.344  44.483  12.467
40596W        W12322  40.322   6.751   4.197
40597W        W12323  29.432   6.352   3.574
40598W        W12324  27.691  27.179  11.658
40599W        W12325   1.659  34.994   1.383
40600W        W12326  16.833  12.012   1.197
40601W        W12327   6.807  30.487  13.075
40602W        W12328  13.463  37.673  11.564
40603W        W12329   2.646  13.150  13.407
40604W        W12330  39.891  16.443  13.234
40605W        W12331   6.921   4.395  13.484
40606W        W12332  18.430  20.439   1.822
40607W        W12333  44.009   1.459   2.192
40608W        W12334  20.719  34.942   2.305
40609W        W12335  18.705   1.840   5.044
40610W        W12336  14.710  43.993   1.534
40611W        W12337  24.486  40.704  14.127
40612W        W12338  33.602  20.642  11.527
40613W        W12339  28.783  25.779   2.378
40614W        W12340  25.932  15.107  14.983
40615W        W12341  32.460  28.322   0.538
40616W        W12342  43.803   2.751   2.695
40617W        W12343  30.682  24.904   1.335
40618W        W12344   1.956  34.489   0.729
40619W        W12345   8.903   2.877   1.053
40620W        W12346  20.138  12.880  14.655
40621W        W12347   1.731  33.048  13.058
40622W        W12348  19.294  13.083   3.596
40623W        W12349  16.489   2.963   4.199
40624W        W12350   7.398  34.007   4.637
40625W        W12351  13.722  13.637   0.694
40626W        W12352   5.008  36.087   3.782
40627W        W12353  10.528  28.630  12.080
40628W        W12354  28.625  42.771  10.407
40629W        W12355  12.843  38.854   3.216
40630W        W12356  30.107  11.759  12.010
40631W        W12357  23.128   9.370  13.862
40632W        W12358  11.785  38.575   0.390
40633W        W12359  22.687  10.711  10.672
40634W        W12360  17.143  23.068   2.233
40635W        W12361  11.789  12.059   4.148
40636W        W12362  43.425  15.612   4.404
40637W        W12363  21.205  43.734  13.953
40638W        W12364  36.104  41.456   2.315
40639W        W12365  19.940   9.677  14.007
40640W        W12366  40.034   8.932   4.627
40641W        W12367  13.296  11.626  10.713
40642W        W12368  10.461   0.697  14.339
40643W        W12369  16.274  44.497   3.631
40644W        W12370   4.006  43.803   1.377
40645W        W12371   5.474  17.433  10.102
40646W        W12372   8.886   9.322   2.252
40647W        W12373   9.659  12.617  12.899
40648W        W12374  36.062  39.155  10.243
40649W        W12375  40.405  11.601  11.451
40650W        W12376  44.975  21.321  14.846
40651W        W12377   2.291  24.437  14.698
40652W        W12378   6.931   4.386  14.610
40653W        W12379  26.789  13.927   4.221
40654W        W12380  44.556  36.052   3.762
40655W        W12381  17.152  13.820  14.229
40656W        W12382  30.904  33.332  14.803
40657W        W12383  14.864  29.220  10.818
40658W        W12384  25.534   3.417   3.047
40659W        W12385  44.731  33.680   1.959
40660W        W12386   6.178  10.741  11.089
40661W        W12387  37.446  41.916   4.208
40662W        W12388  21.537  37.966  13.386
40663W        W12389   4.183  26.092  11.000
40664W        W12390  30.896  23.405   4.664
40665W        W12391  17.103   5.232  12.073
40666W        W12392  33.683  29.123  12.948
40667W        W12393  29.537   8.907  10.614
40668W        W12394  12.192  11.632   3.377
40669W        W12395  26.703  17.606   4.099
40670W        W12396  30.983   2.525  13.349
40671W        W12397  34.393  44.031  14.287
40672W        W12398  42.357  31.559  13.565
40673W        W12399  43.724   8.898  14.319
40674W        W12400  19.436  24.710   2.669
40675W        W12401  21.832  18.191   4.058
40676W        W12402   1.358  24.261  10.652
40677W        W12403  17.057  19.700   4.506
40678W        W12404   7.037  38.130   4.244
40679W        W12405  25.159   3.271  12.492
40680W        W12406  23.967  44.781  12.523
40681W        W12407  28.447  42.440   1.426
40682W        W12408   4.423  44.662  12.026
40683W        W12409  33.572   9.273  11.309
40684W        W12410  32.037  40.060   2.377
40685W        W12411  22.120  32.055  13.826
40686W        W12412   4.938  16.197  14.401
40687W        W12413   4.481  22.955   2.844
40688W        W12414  43.186  24.171   5.091
40689W        W12415  27.423   4.129  14.281
40690W        W12416   4.785  10.638   4.179
40691W        W12417   2.349  34.448  12.061
40692W        W12418  20.747  21.673   4.569
40693W        W12419  43.483  15.219   0.668
40694W        W12420  22.969  29.574  12.890
40695W        W12421  26.602  34.701   4.322
40696W        W12422  28.721  29.039   0.707
40697W        W12423  26.561  30.102   1.042
40698W        W12424  13.270  25.966  11.549
40699W        W12425   0.761   8.579   3.713
40700W        W12426  30.881  17.608   0.651
40701W        W12427   0.867  34.489   2.173
40702W        W12428  30.979  31.095  14.920
40703W        W12429   2.444   6.878  14.307
40704W        W12430  26.865  29.081   3.345
40705W        W12431  25.018  31.094   3.773
40706W        W12432  24.082  28.327  11.224
40707W        W12433  26.967   1.197   2.724
40708W        W12434   3.937  19.448  12.543
40709W        W12435  43.954  36.080  14.469
40710W        W12436   5.248   1.231   4.467
40711W        W12437   7.812   6.296  14.997
40712W        W12438  31.308  41.989  12.932
40713W        W12439  44.145  24.633  12.026
40714W        W12440  26.254   7.212  12.853
40715W        W12441  21.251  25.667  12.415
40716W        W12442  29.485  28.063  13.157
40717W        W12443   7.154   3.639  12.378
40718W        W12444   3.795  31.958   4.067
40719W        W12445  19.281  19.783   2.302
40720W        W12446  11.545  39.552   1.530
40721W        W12447  23.032   9.739  11.523
40722W        W12448   7.100  40.896  10.685
40723W        W12449  35.711  34.591  12.456
40724W        W12450  25.698   8.263   4.193
40725W        W12451   6.691  22.008  13.476
40726W        W12452  28.478  39.486   1.993
40727W        W12453  42.631  31.201  10.748
40728W        W12454  42.344   5.217  13.438
40729W        W12455  35.132  21.191   1.337
40730W        W12456   5.074  32.618  13.941
40731W        W12457   1.365  40.234  14.915
40732W        W12458  37.904  42.443  10.616
40733W        W12459  17.597   5.614  11.222
40734W        W12460  33.685  25.427  12.445
40735W        W12461  42.865  21.973  11.266
40736W        W12462  32.016   0.552   2.178
40737W        W12463  41.281  43.444   2.130
40738W        W12464  13.398  29.685  11.548
40739W        W12465  36.782  14.299   3.176
40740W        W12466  12.859  27.510  14.798
40741W        W12467  23.593  26.200  10.127
40742W        W12468  12.780   4.715  13.733
40743W        W12469  41.431  30.854   3.387
40744W        W12470  38.349  20.710  11.538
40745W        W12471  16.068  32.873   2.338
40746W        W12472  31.027  24.783   4.796
40747W        W12473  38.502  35.111   1.925
40748W        W12474  21.999  19.194   2.301
40749W        W12475  24.816  35.616  11.363
40750W        W12476  19.250  18.451  10.729
40751W        W12477  28.430  42.225   4.184
40752W        W12478  44.711   7.273   4.596
40753W        W12479  27.442  30.205   3.934
40754W        W12480  11.637   9.287   2.341
40755W        W12481  10.173  27.097  10.659
40756W        W12482  25.461  42.004  12.632
40757W        W12483   2.489   7.587  11.542
40758W        W12484   0.713  30.127  12.892
40759W        W12485  36.867  12.101   0.337
40760W        W12486  22.989  28.731  12.299
40761W        W12487  14.268  42.107   2.463
40762W        W12488   4.937  20.222  11.558
40763W        W12489  40.145  38.432  14.382
40764W        W12490   3.817   9.876   3.393
40765W        W12491   8.193  37.947   4.609
40766W        W12492   3.493   5.670   3.383
40767W        W12493  19.895   2.921   3.720
40768W        W12494   7.960  19.517  11.012
40769W        W12495  17.202  28.867  10.697
40770W        W12496  37.753  34.934  11.081
40771W        W12497  29.664  18.545   0.269
40772W        W12498  39.129  35.728   2.642
40773W        W12499  38.500  26.525  11.917
40774W        W12500  22.938  14.492  12.011
40775W        W12501  37.974   3.802  10.586
40776W        W12502  14.562  40.374  11.964
40777W        W12503  21.384  29.474   4.157
40778W        W12504  40.744  38.437   3.710
40779W        W12505  36.578  31.965  11.514
40780W        W12506  22.804  25.652  11.545
40781W        W12507  27.123   0.481   0.525
40782W        W12508   2.632   9.566  12.871
40783W        W12509  32.215  24.368   4.006
40784W        W12510  23.086  23.012   3.649
40785W        W12511  17.724  26.146   3.606
40786W        W12512  13.642   0.547   2.453
40787W        W12513  14.885  36.149   2.597
40788W        W12514  30.641   1.175   2.165
40789W        W12515  11.105  11.282   2.355
40790W        W12516  20.739  35.582   4.036
40791W        W12517  17.235  29.592  14.863
40792W        W12518  27.530  12.070  14.366
40793W        W12519   5.896   5.405  11.347
40794W        W12520  10.421  43.797  10.733
40795W        W12521  32.478  27.709  13.781
40796W        W12522   8.805  16.628  14.906
40797W        W12523  20.478  22.280   1.376
40798W        W12524  18.234  44.168   2.343
40799W        W12525  13.041  19.253  11.817
40800W        W12526  43.459  41.065   1.313
40801W        W12527   8.804  38.594   0.800
40802W        W12528  42.462  38.978  12.639
40803W        W12529  39.884  41.056   4.552
40804W        W12530  15.285  40.893   0.731
40805W        W12531  25.115  42.045   2.413
40806W        W12532  38.183  23.944  14.019
40807W        W12533  30.621  10.247   1.192
40808W        W12534  12.506  30.568   4.938
40809W        W12535  30.014  40.976  11.109
40810W        W12536  42.018  34.148   2.727
40811W        W12537  22.446  15.081   0.708
40812W        W12538  29.004  36.916  12.361
40813W        W12539  34.548  28.202   3.335
40814W        W12540  43.290  43.517  13.323
40815W        W12541   7.996  32.165   0.463
40816W        W12542   9.732  42.923   0.018
40817W        W12543   9.862   8.944  12.065
40818W        W12544   7.844  40.499  14.966
40819W        W12545  31.102  37.493  13.826
40820W        W12546  17.048  20.145  13.944
40821W        W12547  21.277   2.812   1.722
40822W        W12548  28.395  40.928  10.747
40823W        W12549   1.036  39.284   2.709
40824W        W12550  23.458  42.422  11.934
40825W        W12551  20.978  23.960   3.258
40826W        W12552  34.438  14.106   0.886
40827W        W12553   8.343  31.122  11.648
40828W        W12554  14.546  24.066   4.641
40829W        W12555   6.307   8.940   2.214
40830W        W12556  17.257  27.467  12.451
40831W        W12557  29.094  41.795   1.999
40832W        W12558  29.434  40.820   0.464
40833W        W12559  37.497  29.685   1.728
40834W        W12560  20.309  34.977  13.345
40835W        W12561  21.836  19.170  14.511
40836W        W12562  17.478  27.297   1.279
40837W        W12563  40.642  38.888  11.095
40838W        W12564   5.945  37.332   2.442
40839W        W12565   6.148   8.123  11.992
40840W        W12566  10.495  22.681   1.600
40841W        W12567  28.189   4.607   0.029
40842W        W12568  14.153  28.944  11.575
40843W        W12569  40.562  28.468   1.913
40844W        W12570  26.096   3.029   4.972
40845W        W12571  22.163  33.949  13.667
40846W        W12572  21.595   1.849  11.560
40847W        W12573  13.365  14.650   3.792
40848W        W12574  12.209  36.116   0.266
40849W        W12575  15.540  27.726   2.817
40850W        W12576  43.329  36.603   2.754
40851W        W12577  27.134   1.368  13.409
40852W        W12578   8.316  21.414  11.538
40853W        W12579  39.070  24.194  11.988
40854W        W12580  37.860  36.443   0.867
40855W        W12581  27.144  12.436  11.179
40856W        W12582  39.769  33.076   3.722
40857W        W12583  26.336   1.495   0.921
40858W        W12584  10.775  34.968  13.074
40859W        W12585  22.059   1.935   4.289
40860W        W12586  26.068  39.457   2.365
40861W        W12587  32.545  29.689  14.756
40862W        W12588   5.834  16.099  12.511
40863W        W12589  38.775  33.118  13.954
40864W        W12590  30.068  25.620   4.107
40865W        W12591   5.102  11.389   3.398
40866W        W12592  39.131   0.875  11.173
40867W        W12593  20.676  27.081   2.325
40868W        W12594   2.639  11.933  12.523
40869W        W12595  31.631  15.827  11.523
40870W        W12596   3.205  32.404   1.394
40871W        W12597  16.453   1.592   4.121
40872W        W12598  12.771  29.499  14.963
40873W        W12599  43.383   4.087  12.337
40874W        W12600  10.203  27.077   1.666
40875W        W12601  14.220  28.950   4.331
40876W        W12602   0.770   5.016   0.987
40877W        W12603  17.108  29.560  11.694
40878W        W12604  42.605  40.923  13.978
40879W        W12605  18.530  26.949  12.558
40880W        W12606  40.327  23.895  10.869
40881W        W12607  41.266  23.461  13.937
40882W        W12608   6.024   6.981  14.830
40883W        W12609  26.602  21.625   0.679
40884W        W12610  26.521   8.613   3.318
40885W        W12611  44.190  23.098  14.959
40886W        W12612  26.566   2.240   2.311
40887W        W12613  10.039  32.604  14.376
40888W        W12614  15.699  22.247  13.946
40889W        W12615  14.658  13.074   4.200
40890W        W12616  21.584   6.024   0.295
40891W        W12617   3.358  26.917  14.727
40892W        W12618  40.008  16.180  14.562
40893W        W12619   5.548  23.729  12.977
40894W        W12620  34.682  11.232   0.579
40895W        W12621  14.738  12.315   4.857
40896W        W12622  26.984  41.301   2.903
40897W        W12623  37.098  36.926  12.567
40898W        W12624   8.578  29.707  14.881
40899W        W12625  40.473  29.525   4.491
40900W        W12626   0.211   5.150   2.717
40901W        W12627  31.017  39.060   0.316
40902W        W12628  41.362  18.058  10.601
40903W        W12629  11.103  36.490  14.537
40904W        W12630  16.499   5.225  12.450
40905W        W12631  17.521  39.934   2.355
40906W        W12632  10.910  16.096   4.542
40907W        W12633   9.847  34.022  10.201
40908W        W12634  14.632  15.583   1.900
40909W        W12635  33.196  23.047  12.929
40910W        W12636  12.009  29.398   2.139
40911W        W12637  22.711  11.641   1.278
40912W        W12638  31.053  12.235  13.388
40913W        W12639  21.555  37.901  11.381
40914W        W12640  30.957  32.956   4.606
40915W        W12641  28.996   4.941   1.529
40916W        W12642  33.075  19.214   0.337
40917W        W12643  30.955   1.926  11.637
40918W        W12644  38.763  44.077  14.081
40919W        W12645  24.146  42.568  13.164
40920W        W12646  42.309  10.384  12.668
40921W        W12647  13.912   6.853  14.338
40922W        W12648  12.577  20.322   4.627
40923W        W12649  19.872  33.643  14.072
40924W        W12650  39.821   2.279   2.209
40925W        W12651  12.665   9.217   2.628
40926W        W12652  34.641  41.746   3.845
40927W        W12653   0.432  15.230   2.187
40928W        W12654  31.060  23.453   5.140
40929W        W12655  11.534  20.474   1.925
40930W        W12656  39.846  17.047   1.163
40931W        W12657  25.651  27.094  11.343
40932W        W12658  14.079   1.205   3.195
40933W        W12659  36.948  44.850  13.529
40934W        W12660  41.303  16.677  14.267
40935W        W12661  26.915  13.666  11.624
40936W        W12662   7.805  32.852  14.341
40937W        W12663  28.416  13.332  11.527
40938W        W12664  13.219  31.563   2.326
40939W        W12665  15.182  11.023   4.581
40940W        W12666  18.308  19.083  13.410
40941W        W12667   6.475  18.622  11.093
40942W        W12668  36.087  23.785   0.352
40943W        W12669   7.749  10.079  10.296
40944W        W12670  35.142   4.818   0.095
40945W        W12671  28.734  21.620  14.907
40946W        W12672  21.671  26.175   0.832
40947W        W12673  25.428  10.556   1.848
40948W        W12674  15.876  37.738   0.875
40949W        W12675  21.017  28.230   4.906
40950W        W12676  35.352  43.056   1.306
40951W        W12677  16.769  14.097   3.288
40952W        W12678   7.323  36.437   2.068
40953W        W12679   1.799  23.464  13.334
40954W        W12680  35.843  27.203  11.004
40955W        W12681  19.609  11.508   3.644
40956W        W12682   9.099  18.817  14.772
40957W        W12683  15.369   6.718   2.767
40958W        W12684   4.633  16.181   1.720
40959W        W12685  13.598  33.055  14.951
40960W        W12686  42.790  28.549   4.404
40961W        W12687   2.748   5.446   4.534
40962W        W12688   5.324  29.069   1.654
40963W        W12689  39.748  25.189   3.630
40964W        W12690  15.279  13.378   0.580
40965W        W12691  11.327  19.103  13.839
40966W        W12692  39.501  14.304  14.047
40967W        W12693  16.217  13.099  10.634
40968W        W12694  11.611  27.107   3.426
40969W        W12695   8.427  24.654   0.064
40970W        W12696  21.172  17.649   2.435
40971W        W12697  24.090  43.570  14.857
40972W        W12698  44.113   3.062   0.876
40973W        W12699  17.139  30.692   0.765
40974W        W12700  22.588  13.547  11.183
40975W        W12701  20.996  41.315  10.559
40976W        W12702  18.558  37.135  11.132
40977W        W12703  39.087  42.355   3.617
40978W        W12704  22.986  40.769   0.323
40979W        W12705   9.680  41.044  14.822
40980W        W12706   1.213  17.281   3.664
40981W        W12707  44.882   7.729   2.867
40982W        W12708  37.451  42.198   0.316
40983W        W12709  22.043  30.415  10.699
40984W        W12710   0.758  39.869  13.134
40985W        W12711   3.021  26.980   2.449
40986W        W12712  18.754  38.754   4.565
40987W        W12713  23.118   7.058   2.642
40988W        W12714   3.992  11.309  11.116
40989W        W12715  27.856   2.936   4.002
40990W        W12716   9.264  17.542  11.960
40991W        W12717  24.889  15.225  10.692
40992W        W12718  12.874  43.952   0.428
40993W        W12719   9.829   2.386  10.974
40994W        W12720  27.510  27.101   2.764
40995W        W12721  34.705   8.469   1.762
40996W        W12722   9.651  33.691  14.458
40997W        W12723  36.714  32.013  13.700
40998W        W12724  40.440  44.296  13.755
40999W        W12725   9.849  38.487  11.060
41000W        W12726   1.765   6.337   1.880
41001W        W12727  35.908  33.349   2.616
41002W        W12728   4.972  29.091  13.277
41003W        W12729  32.865  34.110   1.498
41004W        W12730  17.827  42.980  13.012
41005W        W12731  19.587  36.456  14.160
41006W        W12732  37.774  24.057   3.657
41007W        W12733  11.321  28.163  11.588
41008W        W12734   1.407  15.310  14.382
41009W        W12735  34.906  29.988   4.420
41010W        W12736  24.223  15.345   1.163
41011W        W12737  28.200  43.970  13.825
41012W        W12738  10.855  13.353   3.647
41013W        W12739   3.866  19.322   1.739
41014W        W12740  18.778  36.283   0.254
41015W        W12741   3.731  36.011  12.421
41016W        W12742   0.379  22.929   0.422
41017W        W12743   6.910  17.065   2.322
41018W        W12744  11.939  39.795  13.777
41019W        W12745  44.434  22.605  14.988
41020W        W12746   2.011  34.132   2.614
41021W        W12747   3.400  26.049  14.817
41022W        W12748  20.973  10.257   1.406
41023W        W12749  21.362  19.503   3.077
41024W        W12750   6.441  37.295  13.684
41025W        W12751   2.924  18.693  11.538
41026W        W12752  21.066  18.699  10.770
41027W        W12753   8.101  33.563   5.019
41028W        W12754  35.558   3.410  13.344
41029W        W12755   2.635  18.680   2.258
41030W        W12756  13.417  38.488  14.910
41031W        W12757   4.428  24.853   2.021
41032W        W12758  42.918  39.406  14.346
41033W        W12759  14.973  14.192  12.011
41034W        W12760   7.325  41.277  11.967
41035W        W12761   7.658  44.552   1.669
41036W        W12762  26.707  16.848   4.550
41037W        W12763  38.121  16.071  12.504
41038W        W12764   0.210  24.566  10.992
41039W        W12765   8.265  12.545  10.451
41040W        W12766  19.077  43.057   2.694
41041W        W12767  16.350   3.944  14.270
41042W        W12768  24.436   1.827  12.958
41043W        W12769   2.193  24.127  12.946
41044W        W12770  17.866  27.155  12.011
41045W        W12771   3.334  41.408  14.026
41046W        W12772  34.297  30.778  13.966
41047W        W12773  28.188   2.019   2.206
41048W        W12774   3.814  15.497   1.835
41049W        W12775  20.488  36.976  12.201
41050W        W12776  24.543  35.502   0.502
41051W        W12777   3.700  33.893  10.811
41052W        W12778  39.215  22.396  11.797
41053W        W12779   3.684  10.358   1.486
41054W        W12780  43.477   9.373  11.662
41055W        W12781  27.470  43.424   2.476
41056W        W12782   5.869  42.059  14.977
41057W        W12783  28.271   9.279   3.085
41058W        W12784   7.321  25.852  11.613
41059W        W12785  36.158  32.466   1.455
41060W        W12786  29.686  31.939   0.691
41061W        W12787  15.380  18.074   1.424
41062W        W12788  44.776  34.544  14.347
41063W        W12789  26.122  25.485   1.166
41064W        W12790   7.657  13.661   5.107
41065W        W12791  44.243   3.524   0.221
41066W        W12792  42.771  30.210  14.050
41067W        W12793  13.749   3.462   1.632
41068W        W12794  27.574  20.896  14.074
41069W        W12795   6.154   6.273   1.761
41070W        W12796  40.701   7.429  12.473
41071W        W12797  35.650  22.094   4.357
41072W        W12798  38.968   3.233  14.285
41073W        W12799   8.631  35.588   0.853
41074W        W12800   7.641  38.045   0.258
41075W        W12801  37.124  21.058  14.056
41076W        W12802   4.929  11.607  12.065
41077W        W12803   2.386  13.609  13.316
41078W        W12804   8.978  26.699   4.068
41079W        W12805  32.517  21.213   1.743
41080W        W12806  23.813  26.666  10.190
41081W        W12807   0.811  20.696  14.184
41082W        W12808   0.696  23.440   2.802
41083W        W12809  12.673  13.282   2.621
41084W        W12810   8.159  33.671   1.908
41085W        W12811   6.706  12.206   3.702
41086W        W12812  33.223  37.227  13.870
41087W        W12813  27.716   5.230   0.788
41088W        W12814  43.979  10.718  13.697
41089W        W12815  28.181   2.451  12.061
41090W        W12816  27.790  28.999   1.799
41091W        W12817   2.533  36.604  12.499
41092W        W12818  15.821  19.579   2.234
41093W        W12819  22.140  20.338  11.484
41094W        W12820  35.390  31.572   2.939
41095W        W12821  41.777  15.520   3.992
41096W        W12822  11.672  13.302  14.875
41097W        W12823  19.598  31.451  13.425
41098W        W12824  36.696  42.446   0.815
41099W        W12825  17.207   9.452  13.352
41100W        W12826   2.290  26.683  11.602
41101W        W12827  27.411  30.640   2.385
41102W        W12828  30.088  23.747  11.582
41103W        W12829   2.589  32.087   0.706
41104W        W12830  14.031  26.885   5.101
41105W        W12831  41.490  18.259   1.346
41106W        W12832  17.781  42.002  13.728
41107W        W12833  19.760  10.057  14.340
41108W        W12834  26.490  39.691   2.613
41109W        W12835  44.722  27.938   1.394
41110W        W12836   9.234  18.314   3.612
41111W        W12837  16.350   9.694  12.590
41112W        W12838  23.666  44.493  13.446
41113W        W12839  39.064  39.795   2.167
41114W        W12840  38.498   4.489  13.268
41115W        W12841  26.880  26.907  12.002
41116W        W12842  29.059  27.992  14.260
41117W        W12843  25.356  41.396  11.477
41118W        W12844  40.796  13.140   4.649
41119W        W12845  29.991  29.121  13.901
41120W        W12846  13.570  35.903   0.321
41121W        W12847   4.562  17.597  11.399
41122W        W12848  25.233  26.150   0.049
41123W        W12849   2.231  10.611  10.803
41124W        W12850  41.998  10.169  13.025
41125W        W12851  29.180  33.384   0.309
41126W        W12852  39.764  39.064   2.329
41127W        W12853  39.295  27.635  10.981
41128W        W12854   0.660   1.029   1.899
41129W        W12855   9.429  18.513  14.330
41130W        W12856   1.089  43.456   1.538
41131W        W12857  43.410   8.330   4.758
41132W        W12858   2.949   3.682  14.868
41133W        W12859  37.408  40.481   2.896
41134W        W12860  29.096  23.773  12.542
41135W        W12861  32.364  35.959  13.793
41136W        W12862  37.961  26.223   3.886
41137W        W12863  30.027  36.010  13.525
41138W        W12864   6.662  26.100   0.901
41139W        W12865  31.893  39.053   4.579
41140W        W12866  14.592   6.721  13.403
41141W        W12867  29.731  25.197  12.155
41142W        W12868  21.773  23.103   2.187
41143W        W12869   3.387  18.099  11.157
41144W        W12870  11.417   7.912   4.344
41145W        W12871  24.158   1.217   2.732
41146W        W12872   3.452   0.002  11.927
41147W        W12873  37.112   7.162  11.926
41148W        W12874  36.361   0.789  14.224
41149W        W12875   6.563  23.479   3.860
41150W        W12876  26.262   1.360   4.052
41151W        W12877   7.394  33.396   0.153
41152W        W12878  17.810   9.930  11.139
41153W        W12879  43.179   9.916  12.807
41154W        W12880  30.702  28.007   3.249
41155W        W12881   6.597  38.334  12.868
41156W        W12882  21.026   4.278   2.025
41157W        W12883  44.115  13.698   1.728
41158W        W12884  23.557  14.146  13.585
41159W        W12885  22.011   3.811  11.373
41160W        W12886  43.880  40.254  14.939
41161W        W12887  26.462  32.935   3.205
41162W        W12888  43.851  41.240  12.616
41163W        W12889  21.234  15.728  12.014
41164W        W12890   7.265  23.603  13.451
41165W        W12891  29.568  32.955  14.009
41166W        W12892  25.033  41.553  13.849
41167W        W12893  28.144  23.508   5.029
41168W        W12894  32.096   1.353   4.133
41169W        W12895   6.831  34.405   1.411
41170W        W12896  39.387  20.998   3.235
41171W        W12897  27.998  13.899  14.263
41172W        W12898   3.005   0.606  14.009
41173W        W12899  19.561  28.177   0.201
41174W        W12900  30.509  10.890   4.787
41175W        W12901  44.713  20.727   4.046
41176W        W12902  30.084  12.337   3.952
41177W        W12903   4.276  22.155  11.478
41178W        W12904  18.950  42.907   1.182
41179W        W12905  29.968  16.669  12.862
41180W        W12906  41.570  12.479  11.277
41181W        W12907   4.293   5.112   5.664
41182W        W12908  43.426  38.250  11.102
41183W        W12909  32.507  34.944   2.936
41184W        W12910  30.668  19.225   2.382
41185W        W12911  20.180  30.219   4.761
41186W        W12912  11.850  17.842   3.648
41187W        W12913   0.832   7.726   2.860
41188W        W12914  44.709  41.052  14.941
41189W        W12915  37.134   2.007  12.879
41190W        W12916  33.593  20.171  13.433
41191W        W12917  13.620  23.730  12.742
41192W        W12918  27.701  20.587   4.848
41193W        W12919  23.562  18.634   0.546
41194W        W12920  16.671  29.684   3.480
41195W        W12921  39.320  25.043   2.122
41196W        W12922  32.646  19.100  12.780
41197W        W12923  42.857  32.429   4.405
41198W        W12924   2.754   9.910   3.695
41199W        W12925  33.254  12.199   1.683
41200W        W12926  42.530  33.443   4.172
41201W        W12927   8.592  41.998   4.467
41202W        W12928  18.505  29.216   0.339
41203W        W12929   8.740  32.432   2.710
41204W        W12930  28.601  19.307   0.230
41205W        W12931  15.912  38.019   0.431
41206W        W12932   2.319  26.204   2.562
41207W        W12933  22.720   1.827  13.499
41208W        W12934  19.970  14.179  11.969
41209W        W12935  12.262   6.448   1.378
41210W        W12936  29.160  12.863   4.789
41211W        W12937  44.179  12.220  11.547
41212W        W12938  26.507   2.028   4.197
41213W        W12939  30.680  25.086   0.301
41214W        W12940  22.274   6.635   2.249
41215W        W12941  12.885   0.405   3.012
41216W        W12942  16.519  34.343  12.534
41217W        W12943  41.936  44.052  11.600
41218W        W12944   8.118   1.373  12.079
41219W        W12945  44.931  16.155   3.778
41220W        W12946  38.398  22.222   3.333
41221W        W12947  40.795   7.694  10.942
41222W        W12948  34.463  35.098  14.264
41223W        W12949  38.432  25.751   2.838
41224W        W12950  30.640  32.566   4.682
41225W        W12951  33.473  35.686  10.792
41226W        W12952   6.958  43.556   4.183
41227W        W12953   1.296  14.278   0.166
41228W        W12954  15.709  14.214  11.473
41229W        W12955  43.185  25.374  14.566
41230W        W12956  37.924  27.144  12.799
41231W        W12957  25.008  42.763  14.495
41232W        W12958  37.981   9.858  13.419
41233W        W12959  33.798   7.683   1.900
41234W        W12960  29.939  36.046   3.687
41235W        W12961  32.855   0.397   2.888
41236W        W12962  44.318  12.327   3.911
41237W        W12963  43.814   0.838   1.917
41238W        W12964  41.916  17.724  11.079
41239W        W12965  12.236   5.193  14.274
41240W        W12966  19.075  22.056   4.647
41241W        W12967  38.808  11.189  14.468
41242W        W12968  31.066  35.041  12.390
41243W        W12969  39.833  22.567  10.931
41244W        W12970  40.929  24.872  10.647
41245W        W12971   1.135  39.346  14.923
41246W        W12972  41.535  44.024  13.776
41247W        W12973  23.657  10.704  14.403
41248W        W12974  12.758  14.663   4.475
41249W        W12975  21.475  33.884   3.119
41250W        W12976  36.335  12.654  14.553
41251W        W12977  31.154   1.197   1.305
41252W        W12978  16.623  32.713  13.870
41253W        W12979  10.897  36.563   1.834
41254W        W12980  25.447  15.643  10.905
41255W        W12981  38.889   9.268  11.093
41256W        W12982  13.269  40.210  11.488
41257W        W12983  18.711  28.219   2.831
41258W        W12984   7.617  15.345   5.294
41259W        W12985  18.725  14.371   1.316
41260W        W12986  30.609  39.870  12.862
41261W        W12987   3.278  32.044  14.948
41262W        W12988   0.741  32.617   0.607
41263W        W12989  44.258   0.710  12.498
41264W        W12990   7.820  38.497  13.396
41265W        W12991  34.840   7.272   4.628
41266W        W12992   6.908  43.853  11.459
41267W        W12993  41.801  42.607   1.352
41268W        W12994   8.216  32.592   4.971
41269W        W12995  12.940  40.378  13.413
41270W        W12996  37.083  43.383   0.941
41271W        W12997   9.748  34.936  12.946
41272W        W12998  18.383  33.983  12.868
41273W        W12999  44.270   3.223  14.401
41274W        W13000   7.110  19.004   3.286
41275W        W13001   5.907  35.978  13.292
41276W        W13002  13.112   3.326   2.205
41277W        W13003  12.771   2.969  13.453
41278W        W13004  26.729  26.520  12.492
41279W        W13005   0.484  34.023   0.544
41280W        W13006  23.249  12.690   5.022
41281W        W13007  28.951  31.072  13.831
41282W        W13008  40.057  26.070  13.130
41283W        W13009   3.786   8.717   0.406
41284W        W13010  36.529   8.625  10.584
41285W        W13011  38.533  34.560  14.500
41286W        W13012  20.012   5.420  13.843
41287W        W13013  24.203  41.050   1.745
41288W        W13014  41.668  39.045  14.846
41289W        W13015  18.965  16.294   4.732
41290W        W13016   5.269   0.360  13.384
41291W        W13017   0.735  40.569   0.613
41292W        W13018  12.238   4.631   0.885
41293W        W13019  38.075  26.862   2.506
41294W        W13020  15.818   6.939   1.740
41295W        W13021  11.131  31.113   0.779
41296W        W13022  16.285  25.547   1.199
41297W        W13023  22.489  34.511  11.040
41298W        W13024   7.620   2.948  14.352
41299W        W13025   6.180  33.584  10.283
41300W        W13026  42.015  38.445   1.851
41301W        W13027  15.712  36.791  14.809
41302W        W13028  25.696   7.991  11.163
41303W        W13029  13.533   1.219  14.420
41304W        W13030   6.723   9.263  13.365
41305W        W13031  36.896   6.882   3.137
41306W        W13032   1.336  22.951  12.403
41307W        W13033  33.421  41.334   2.316
41308W        W13034  14.702  39.290  12.989
41309W        W13035  43.486   2.188  14.079
41310W        W13036  13.190   4.798  12.843
41311W        W13037  22.647  10.014   4.101
41312W        W13038  31.952  39.047   1.420
41313W        W13039  29.074  27.407  13.467
41314W        W13040  29.621  35.336  12.086
41315W        W13041  27.187   8.410  12.864
41316W        W13042  21.937  24.565  12.861
41317W        W13043  29.546  16.289   4.320
41318W        W13044   4.678  25.590  11.584
41319W        W13045  20.669   3.471  13.023
41320W        W13046  30.556  30.770  14.943
41321W        W13047  17.580  33.358   3.530
41322W        W13048  36.639  18.329   1.629
41323W        W13049  16.672  17.997  14.890
41324W        W13050  30.983  21.667   3.274
41325W        W13051  34.215  26.197   3.224
41326W        W13052   3.254   8.181   2.875
41327W        W13053  41.534  31.309   2.115
41328W        W13054  28.454   5.471   2.272
41329W        W13055  25.457  31.121   0.245
41330W        W13056  40.408   8.616   5.001
41331W        W13057  23.698  44.793  11.250
41332W        W13058  42.389  10.457  10.306
41333W        W13059  15.838  27.846   4.536
41334W        W13060  19.190  36.057   0.633
41335W        W13061  28.637  32.516  10.678
41336W        W13062  40.736  13.313  12.071
41337W        W13063  12.132  16.303  12.968
41338W        W13064  14.506   5.036   4.239
41339W        W13065  17.080  41.963   2.351
41340W        W13066  31.568  33.397  13.255
41341W        W13067  23.498   7.733  11.237
41342W        W13068  24.157  28.571  11.664
41343W        W13069  22.908  38.000  12.123
41344W        W13070  31.853  18.497  12.046
41345W        W13071  28.553  39.375  14.298
41346W        W13072   3.695  42.083  12.955
41347W        W13073  13.845   4.828  13.601
41348W        W13074   8.249  25.213   1.335
41349W        W13075  18.012  37.424   3.293
41350W        W13076  15.785  23.775   0.881
41351W        W13077  33.448  28.473  11.529
41352W        W13078   9.771  15.297   3.807
41353W        W13079  21.607  15.653  11.179
41354W        W13080  43.480   3.743   2.819
41355W        W13081  42.444   1.471   0.431
41356W        W13082  32.454   9.671  14.291
41357W        W13083  22.755   0.720   2.784
41358W        W13084  13.221  20.337   3.626
41359W        W13085  15.591  21.420  12.884
41360W        W13086  34.158  32.028   0.188
41361W        W13087  25.514   5.210   2.644
41362W        W13088  29.966  32.436  12.833
41363W        W13089  16.162  43.793  10.780
41364W        W13090  29.937  15.141   2.310
41365W        W13091  35.612  23.737  11.053
41366W        W13092  42.718  26.949   2.861
41367W        W13093  23.286   8.470   0.342
41368W        W13094  16.982   0.928  14.331
41369W        W13095  14.803  22.682   0.457
41370W        W13096  11.237  11.078   1.381
41371W        W13097   3.741  16.328   3.783
41372W        W13098  11.234  22.086  14.228
41373W        W13099  11.647  10.146   5.560
41374W        W13100   4.668  34.520  14.416
41375W        W13101  42.800  14.556  14.551
41376W        W13102  41.387  10.572  13.574
41377W        W13103  17.794  17.059   0.013
41378W        W13104  16.224  27.648  10.077
41379W        W13105  36.037  19.916  12.855
41380W        W13106   8.076   2.458   4.966
41381W        W13107  40.816  39.050   0.905
41382W        W13108   2.402  27.196  11.256
41383W        W13109  17.898  39.952   3.709
41384W        W13110  30.986   3.174   5.366
41385W        W13111  24.576  23.745   3.210
41386W        W13112  37.158  37.822  11.679
41387W        W13113  31.047  33.628   4.134
41388W        W13114  25.275   4.292   2.637
41389W        W13115  25.644  14.340  11.486
41390W        W13116  29.299  11.104  11.223
41391W        W13117  44.325   9.813  14.392
41392W        W13118  43.428  44.384  13.942
41393W        W13119  14.538  38.956   1.705
41394W        W13120  41.367  11.339   0.735
41395W        W13121  24.238  27.158   4.268
41396W        W13122  12.714  15.191  11.663
41397W        W13123  11.682  38.535   4.549
41398W        W13124  26.468  25.122  12.866
41399W        W13125  35.309  10.247   3.933
41400W        W13126  20.691  25.177   0.901
41401W        W13127  22.870  44.353  14.070
41402W        W13128   9.678   8.455  12.025
41403W        W13129   0.463  31.528  10.645
41404W        W13130   7.641  36.796   4.192
41405W        W13131  34.051  11.072  14.931
41406W        W13132  23.750   6.667   1.640
41407W        W13133  36.889  43.512  13.893
41408W        W13134   2.735  34.676  12.352
41409W        W13135  27.389  17.441  11.497
41410W        W13136  23.000  19.548   0.882
41411W        W13137  13.105  32.986  14.280
41412W        W13138  10.652  15.787   1.132
41413W        W13139  40.001  34.106   0.848
41414W        W13140  22.683  21.955   2.311
41415W        W13141  26.684  36.640   0.378
41416W        W13142  30.171  25.213   0.248
41417W        W13143  42.810  10.255  13.571
41418W        W13144   8.372  32.186  10.141
41419W        W13145  36.161  27.582  14.561
41420W        W13146  41.982   2.509  13.904
41421W        W13147  35.124  17.250  12.794
41422W        W13148  42.840  28.682   2.889
41423W        W13149  42.214  44.759  11.598
41424W        W13150  16.311  10.293   4.237
41425W        W13151  39.829  26.313   4.690
41426W        W13152  15.116  22.715  10.486
41427W        W13153  43.078  11.666  12.148
41428W        W13154  22.556  29.694   1.685
41429W        W13155  12.137  19.602   1.211
41430W        W13156  20.177   4.833   2.780
41431W        W13157  18.328  10.121   4.292
41432W        W13158  34.801   1.044   2.827
41433W        W13159  40.364   3.732   0.339
41434W        W13160   1.800  14.615   0.963
41435W        W13161   0.202  36.073   4.667
41436W        W13162  36.395  44.509   3.580
41437W        W13163  20.339   0.804   4.248
41438W        W13164  16.064  23.086   1.349
41439W        W13165  15.133  37.044   2.257
41440W        W13166  32.927   9.245   0.449
41441W        W13167  11.266   7.116   4.780
41442W        W13168   9.932  19.541   3.278
41443W        W13169  25.838   6.108  10.564
41444W        W13170  20.696  39.891  13.018
41445W        W13171   1.533  19.678  12.836
41446W        W13172  12.347  12.613   1.595
41447W        W13173  32.019   8.088  10.725
41448W        W13174   7.656  33.548   4.728
41449W        W13175   4.969  29.646  11.611
41450W        W13176   4.523   4.279   5.038
41451W        W13177  38.531  32.965   0.765
41452W        W13178   8.383  22.164  10.997
41453W        W13179  14.143  23.741  14.395
41454W        W13180  44.160  28.613   4.868
41455W        W13181  25.898  22.035  14.874
41456W        W13182  26.747  34.603  12.643
41457W        W13183   3.395  35.019   1.952
41458W        W13184  28.979  12.176   1.434
41459W        W13185  34.469  19.669   3.864
41460W        W13186  17.311  39.820   1.008
41461W        W13187  38.316  11.604   4.059
41462W        W13188   0.981   7.158  11.954
41463W        W13189   0.527  17.497  10.491
41464W        W13190  26.401   0.295  11.519
41465W        W13191  13.738  34.556  14.002
41466W        W13192  42.971  39.927   2.466
41467W        W13193  12.784  16.287   3.857
41468W        W13194  20.017  12.348  13.350
41469W        W13195  40.844  32.189   1.254
41470W        W13196  38.980  15.668  14.799
41471W        W13197   7.963  11.215   3.995
41472W        W13198  37.254  41.212   1.712
41473W        W13199   1.689  21.244  11.582
41474W        W13200  32.619   5.196  11.493
41475W        W13201  11.029  36.514   4.077
41476W        W13202  18.595  39.630  10.625
41477W        W13203   3.070  18.113   2.778
41478W        W13204  25.964  35.979  12.405
41479W        W13205  29.421  30.452   4.652
41480W        W13206  26.489   2.931  12.597
41481W        W13207   9.627  24.077   4.554
41482W        W13208  44.822   3.773   4.486
41483W        W13209  33.249   7.146  13.954
41484W        W13210  12.393  26.549   3.875
41485W        W13211  15.214  14.349   1.225
41486W        W13212  13.362  23.166  12.147
41487W        W13213   9.898  31.891  11.204
41488W        W13214  13.867  43.506  13.995
41489W        W13215  17.613   4.717   1.067
41490W        W13216   4.197  36.511  13.167
41491W        W13217   1.345  43.538  14.178
41492W        W13218   6.306  32.017   4.116
41493W        W13219  33.339  28.139  12.656
41494W        W13220  11.415  36.970  14.432
41495W        W13221  31.021  30.526   2.305
41496W        W13222  44.745   9.615  11.236
41497W        W13223  43.455   4.066   0.642
41498W        W13224  43.443  23.106   0.451
41499W        W13225   3.660  18.482   0.799
41500W        W13226  33.956   4.263   0.944
41501W        W13227  32.036  33.215   1.312
41502W        W13228  25.532  23.819  13.590
41503W        W13229  34.226  27.493  12.028
41504W        W13230  27.115  26.556  13.298
41505W        W13231  34.165   0.291   2.683
41506W        W13232  30.960  22.307   3.269
41507W        W13233  24.548  37.288  11.666
41508W        W13234  11.752   6.864  12.098
41509W        W13235   3.730  26.695  14.405
41510W        W13236  39.605  19.763  12.401
41511W        W13237  12.749  28.142   3.795
41512W        W13238  25.240  29.137  11.986
41513W        W13239   7.523  39.483  11.823
41514W        W13240  16.234  33.913  13.252
41515W        W13241  20.188  25.909  14.885
41516W        W13242  44.555  23.251  14.625
41517W        W13243   3.370  36.002   0.364
41518W        W13244  41.291  27.397  10.702
41519W        W13245  33.354  39.767  10.247
41520W        W13246  31.980  19.853   1.347
41521W        W13247  21.046  34.970   4.844
41522W        W13248   9.949  32.212   2.127
41523W        W13249  22.971   1.673   3.201
41524W        W13250  22.525  11.110  11.938
41525W        W13251  43.776   6.409   2.346
41526W        W13252  43.226  11.130  11.331
41527W        W13253  25.678   5.044  14.779
41528W        W13254  19.409  32.951   2.420
41529W        W13255  40.437  10.892   2.749
41530W        W13256  10.148  30.084   0.892
41531W        W13257  10.361   0.370  12.543
41532W        W13258  10.402  13.567  12.135
41533W        W13259  10.381   3.731  12.440
41534W        W13260  32.109  23.946  14.671
41535W        W13261  19.557   9.237   3.682
41536W        W13262  32.549  39.712   0.286
41537W        W13263  34.081  14.742   3.802
41538W        W13264  38.375  42.856   2.506
41539W        W13265   6.428  26.807   3.755
41540W        W13266  38.045  39.471  13.241
41541W        W13267  41.308  43.362   1.428
41542W        W13268  34.641  37.515  10.466
41543W        W13269  42.965   9.453  14.363
41544W        W13270   5.689  39.168  14.977
41545W        W13271   5.697  16.355   4.708
41546W        W13272  26.547  23.051  13.889
41547W        W13273  26.262  15.008  14.274
41548W        W13274  44.648  10.400  13.303
41549W        W13275   4.299  16.312   2.234
41550W        W13276   4.741  33.070   0.849
41551W        W13277  24.938  22.787  14.304
41552W        W13278  18.820  15.028   0.924
41553W        W13279  37.234   4.887   1.318
41554W        W13280   2.406  23.667  12.897
41555W        W13281  15.668  38.047  12.379
41556W        W13282  12.694  21.778   1.854
41557W        W13283  28.443   7.299  12.396
41558W        W13284  32.098  37.480  14.291
41559W        W13285  42.111  10.876  14.039
41560W        W13286  25.331  28.921  11.189
41561W        W13287  28.687  19.540   1.458
41562W        W13288  29.139   4.677   3.433
41563W        W13289  15.664   9.701   2.298
41564W        W13290  42.373  19.034   0.518
41565W        W13291  13.980  40.770  10.632
41566W        W13292  29.557  37.351   1.334
41567W        W13293  44.771  20.622   1.047
41568W        W13294  43.861  30.416  13.811
41569W        W13295  41.382  12.180   1.908
41570W        W13296   2.878  32.714  12.578
41571W        W13297  22.419  20.037   5.182
41572W        W13298  41.745  16.575   1.060
41573W        W13299  41.301  29.158  12.015
41574W        W13300  44.754   9.185  14.945
41575W        W13301   3.862  36.084   1.633
41576W        W13302  38.595  38.920   3.669
41577W        W13303   3.242  40.360  10.791
41578W        W13304  42.056  34.828   4.598
41579W        W13305  43.997   4.904  13.772
41580W        W13306  16.524  42.809  10.783
41581W        W13307  12.717  28.231  13.912
41582W        W13308  35.295  32.118  12.918
41583W        W13309  24.190   0.189   9.847
41584W        W13310  41.700  11.871   2.760
41585W        W13311  31.727  39.689  12.126
41586W        W13312  43.331  41.352   1.740
41587W        W13313   9.643  39.917  12.082
41588W        W13314  41.300   8.715   2.123
41589W        W13315   9.663  15.205  12.416
41590W        W13316  39.243  27.439   2.666
41591W        W13317  41.512  39.444   3.418
41592W        W13318  11.886  19.051  13.694
41593W        W13319  34.182  41.115  10.794
41594W        W13320  17.711  40.938  12.033
41595W        W13321  38.288  22.089  11.929
41596W        W13322  32.415  16.021  14.927
41597W        W13323  42.014  22.990  14.367
41598W        W13324  10.328   6.218   0.060
41599W        W13325  39.075   5.783   4.350
41600W        W13326   7.682  42.338   2.553
41601W        W13327  42.428  19.787   1.900
41602W        W13328   0.786   4.763  12.113
41603W        W13329  43.246  14.763   1.283
41604W        W13330  18.256  30.397   4.821
41605W        W13331  24.792  35.532   1.466
41606W        W13332  13.286  10.394  14.652
41607W        W13333  24.389  15.117  10.680
41608W        W13334  43.276  10.942  13.444
41609W        W13335  11.367  43.190   2.411
41610W        W13336  27.278  42.320   4.248
41611W        W13337  31.766  38.684  10.357
41612W        W13338  44.993   3.484  11.736
41613W        W13339  26.725  38.923  13.552
41614W        W13340  26.163  11.317  13.891
41615W        W13341  42.976   1.586  11.166
41616W        W13342  34.697  16.039  13.721
41617W        W13343  27.363  31.728   0.912
41618W        W13344  26.258   8.271  12.862
41619W        W13345  26.453  44.964  13.956
41620W        W13346  18.037  24.144   4.778
41621W        W13347  10.801   8.579   2.530
41622W        W13348  10.769   6.345  14.411
41623W        W13349  24.666  15.614   1.324
41624W        W13350  43.391   3.018  11.430
41625W        W13351  35.110  21.235  13.371
41626W        W13352  10.541  27.179  14.858
41627W        W13353  15.782  43.870   0.385
41628W        W13354  40.549  23.933   2.309
41629W        W13355   5.323  42.398  13.003
41630W        W13356  17.129   1.781  13.218
41631W        W13357   3.895   3.684  14.806
41632W        W13358  43.875  41.518   3.361
41633W        W13359  37.256  29.618   0.236
41634W        W13360  15.202   9.047   2.211
41635W        W13361  15.032  42.918   4.583
41636W        W13362  26.019  21.042  10.455
41637W        W13363  42.467  12.125   3.430
41638W        W13364  43.959  31.878   0.932
41639W        W13365  31.500   5.305   0.733
41640W        W13366  12.473  41.443   4.109
41641W        W13367  34.981  19.201  11.146
41642W        W13368  22.250  22.064   2.694
41643W        W13369  44.408  40.750   4.821
41644W        W13370  43.997  44.998   1.339
41645W        W13371  25.615  10.194   4.340
41646W        W13372  32.158  13.787   4.485
41647W        W13373  26.670  11.437   1.689
41648W        W13374  20.048  26.737  11.438
41649W        W13375  11.348  13.458   2.854
41650W        W13376  36.111  43.265  12.514
41651W        W13377  15.202  10.499   4.589
41652W        W13378  30.150  19.689  14.863
41653W        W13379  18.803   6.200   5.007
41654W        W13380   4.354  28.602  11.847
41655W        W13381  39.340   9.154   0.959
41656W        W13382  34.427  25.075   2.956
41657W        W13383   8.254  20.366  13.026
41658W        W13384  14.875  31.018  11.654
41659W        W13385  17.436  40.506  14.740
41660W        W13386  36.348   0.864  14.743
41661W        W13387  27.472   3.943  14.787
41662W        W13388   8.800  34.125  12.952
41663W        W13389  34.049  24.800  13.930
41664W        W13390  39.378  33.892   4.549
41665W        W13391  22.549  28.374  10.644
41666W        W13392   1.808  23.456   0.473
41667W        W13393  32.006  39.923  12.495
41668W        W13394  11.655   0.845   4.460
41669W        W13395  41.897   3.276  14.399
41670W        W13396  37.729  19.479  11.503
41671W        W13397  11.109  38.002   3.754
41672W        W13398  22.710  21.317   2.913
41673W        W13399  29.971  10.653   3.145
41674W        W13400  17.554  31.054   0.278
41675W        W13401   4.274  13.173   2.111
41676W        W13402   9.261  18.061  13.662
41677W        W13403  23.592  25.864  12.984
41678W        W13404   2.623  30.017   2.705
41679W        W13405  31.036  24.844   5.301
41680W        W13406  16.417  35.323  13.472
41681W        W13407   6.089  36.812   0.466
41682W        W13408  44.443  35.754   2.872
41683W        W13409  14.793  38.619  11.173
41684W        W13410  15.736  31.912  10.424
41685W        W13411  22.066  18.959   0.869
41686W        W13412  44.509  32.502   2.914
41687W        W13413   9.135  11.626   0.300
41688W        W13414  28.277  21.125   3.282
41689W        W13415  33.048  16.603  14.100
41690W        W13416  13.614  38.378  12.481
41691W        W13417   4.630  29.148  12.887
41692W        W13418  21.480   9.360  13.458
41693W        W13419  36.790  44.308   1.201
41694W        W13420   9.378  39.993   0.416
41695W        W13421  38.069  10.092  14.962
41696W        W13422  24.938  19.197  11.492
41697W        W13423   1.377   6.986   2.483
41698W        W13424   8.675   6.693   1.758
41699W        W13425  10.388  18.757   4.155
41700W        W13426   0.976  31.496   3.258
41701W        W13427  31.590  36.832  12.196
41702W        W13428  41.352  40.553   4.263
41703W        W13429  22.618  24.697  14.511
41704W        W13430  25.515  15.430   2.194
41705W        W13431  33.240  16.095   0.384
41706W        W13432  22.373  25.120   4.643
41707W        W13433  44.912  38.040   2.007
41708W        W13434  33.508  39.883   3.154
41709W        W13435   1.184  13.119  13.418
41710W        W13436  33.715  19.333  11.699
41711W        W13437  31.583   3.361   0.781
41712W        W13438  27.659  19.477  10.706
41713W        W13439  17.478  30.028  13.958
41714W        W13440  37.816  14.569   3.799
41715W        W13441  23.158  26.687  13.383
41716W        W13442  40.313  16.811   2.783
41717W        W13443  22.080  29.057   3.623
41718W        W13444   8.899  11.869  13.390
41719W        W13445  35.674  20.368  14.494
41720W        W13446   1.805  23.481   3.245
41721W        W13447   5.739  32.325  13.385
41722W        W13448  25.794  34.985  12.141
41723W        W13449  38.751  12.658  10.346
41724W        W13450  30.609  23.743   0.213
41725W        W13451  43.016  36.325   0.274
41726W        W13452  23.821  37.988  13.885
41727W        W13453  24.497  41.318   3.240
41728W        W13454  19.721  17.095   4.589
41729W        W13455  28.458  16.025   3.404
41730W        W13456  36.019  12.747  11.608
41731W        W13457  38.330  36.320  12.893
41732W        W13458   6.637  15.368  11.690
41733W        W13459  19.011  44.255  14.940
41734W        W13460  27.969   9.242   1.680
41735W        W13461   3.436  44.358   3.613
41736W        W13462  25.038  43.908  13.801
41737W        W13463  22.134   3.184   1.543
41738W        W13464  34.564  40.096   0.246
41739W        W13465   0.716  41.060   4.609
41740W        W13466  20.613  19.517  13.544
41741W        W13467  24.074  26.767   2.885
41742W        W13468  26.590  34.653   1.872
41743W        W13469  21.070  18.631   0.210
41744W        W13470  44.292   7.277   2.315
41745W        W13471  35.550  14.111  10.960
41746W        W13472   2.232   5.367   4.550
41747W        W13473   7.161  10.776  12.864
41748W        W13474  21.592  44.335  11.881
41749W        W13475  32.351  15.448  11.353
41750W        W13476   3.254  11.334   4.265
41751W        W13477  41.157  38.960   3.392
41752W        W13478   8.556  36.084  10.974
41753W        W13479  38.327  39.684  12.858
41754W        W13480   8.748  14.048   1.808
41755W        W13481  33.862  19.494   3.698
41756W        W13482  34.346  22.082   3.742
41757W        W13483  17.208  32.695  14.302
41758W        W13484  26.030  39.033   3.574
41759W        W13485  31.023  18.999   1.671
41760W        W13486  21.997   8.242   1.740
41761W        W13487   4.246  42.402   1.426
41762W        W13488  10.013  42.657   1.412
41763W        W13489  29.542  23.901   2.545
41764W        W13490   3.639  25.073   5.117
41765W        W13491  29.013  16.396  12.507
41766W        W13492  20.314  18.187  10.221
41767W        W13493  11.618   0.659   1.304
41768W        W13494  35.352  24.402   4.185
41769W        W13495  37.014  30.116  11.677
41770W        W13496   0.487   6.885   2.248
41771W        W13497  43.381  26.454  10.376
41772W        W13498  39.989  26.161  14.136
41773W        W13499  27.290   0.095  10.604
41774W        W13500  22.935  19.483  14.218
41775W        W13501  28.946  32.981  12.553
41776W        W13502   4.143  11.748  13.747
41777W        W13503   8.935  14.673   4.746
41778W        W13504  39.843  41.410   3.589
41779W        W13505  15.702  18.273  14.797
41780W        W13506  28.557  28.060  10.254
41781W        W13507  39.265  10.333  10.743
41782W        W13508   4.910  13.306  12.719
41783W        W13509  13.811  37.104   0.068
41784W        W13510  33.933   4.986   3.237
41785W        W13511  41.535  23.350  12.605
41786W        W13512  27.628  13.549  13.153
41787W        W13513   5.593  14.103  14.977
41788W        W13514  24.513  14.804   1.775
41789W        W13515  28.602  23.927  12.395
41790W        W13516  37.712  14.077  11.631
41791W        W13517  32.633   8.244  13.098
41792W        W13518   5.998  10.355   2.638
41793W        W13519   1.343  27.658   4.474
41794W        W13520  21.896  39.769  14.414
41795W        W13521  29.914  15.444   2.763
41796W        W13522   6.237   0.273  13.384
41797W        W13523  43.683   8.002  14.340
41798W        W13524  43.281   8.162  12.894
41799W        W13525   4.456   7.345   0.435
41800W        W13526   4.723  41.320  11.146
41801W        W13527  42.867  14.558   3.378
41802W        W13528  22.190   4.880   2.880
41803W        W13529  26.027   6.435  14.450
41804W        W13530  28.416  11.254  12.951
41805W        W13531  42.775  24.146   4.773
41806W        W13532  33.886  42.896  10.930
41807W        W13533  12.871  43.943  12.818
41808W        W13534   7.419  44.742  10.722
41809W        W13535   4.212   1.628   4.192
41810W        W13536  32.938  15.099  13.852
41811W        W13537  32.503  35.155  13.687
41812W        W13538   2.276  31.979  12.381
41813W        W13539  23.414   0.860  10.007
41814W        W13540  12.854  20.058   3.851
41815W        W13541  38.105  18.229  12.569
41816W        W13542  27.171  17.579   0.487
41817W        W13543  24.497  12.169  13.610
41818W        W13544  39.681  41.921   2.785
41819W        W13545   7.275  13.833   1.889
41820W        W13546  17.654   1.388   2.287
41821W        W13547  17.769  16.973   2.876
41822W        W13548  22.269  30.053  13.984
41823W        W13549  43.498  14.821   4.917
41824W        W13550  44.055  10.272   4.162
41825W        W13551  28.775  35.589  14.504
41826W        W13552  35.591  22.603   2.757
41827W        W13553  33.952   6.957   3.214
41828W        W13554  21.264  33.604  11.447
41829W        W13555  35.031  34.001  11.592
41830W        W13556  33.045  13.843   2.335
41831W        W13557  38.922  18.119  12.504
41832W        W13558   9.830  35.604   2.124
41833W        W13559  32.678  24.609   4.154
41834W        W13560   3.430  26.938   0.842
41835W        W13561  39.054  19.009   3.463
41836W        W13562  18.871  38.333  13.172
41837W        W13563  25.496  31.100   4.562
41838W        W13564   5.260  23.303   1.246
41839W        W13565   1.793   2.273  11.598
41840W        W13566  21.262  27.428   9.789
41841W        W13567  26.145  40.318   0.027
41842W        W13568  37.954  18.524   4.349
41843W        W13569  33.693   5.263  14.313
41844W        W13570  22.738  18.445   2.165
41845W        W13571   2.275   9.035  14.727
41846W        W13572  39.481   4.165   4.676
41847W        W13573  15.638  42.469   0.845
41848W        W13574  21.072  15.176  13.434
41849W        W13575  30.084   7.607  11.894
41850W        W13576   4.461  39.829   0.992
41851W        W13577  19.476   7.708  14.556
41852W        W13578   1.528  11.774   0.828
41853W        W13579  28.837  15.838   4.573
41854W        W13580  35.789  44.961  13.026
41855W        W13581  12.077  18.333  11.090
41856W        W13582   4.287  30.645   0.889
41857W        W13583  11.991  36.139  14.394
41858W        W13584  41.291  36.881   2.218
41859W        W13585  29.680   7.609   2.666
41860W        W13586  20.744  27.709  12.509
41861W        W13587  36.595  15.643  14.899
41862W        W13588  24.175  13.690  12.070
41863W        W13589  32.841   4.327   3.615
41864W        W13590  11.609   9.227  11.506
41865W        W13591  43.919  41.744  12.661
41866W        W13592  40.265   7.347  13.822
41867W        W13593   6.136   1.036   4.107
41868W        W13594  44.644  40.847  12.120
41869W        W13595  10.841  21.553  13.594
41870W        W13596   4.930  34.078  14.720
41871W        W13597  40.794  44.539   1.188
41872W        W13598  18.547   7.078  13.887
41873W        W13599  14.899  13.819   2.776
41874W        W13600  32.193   2.842   0.246
41875W        W13601  36.108   1.909   4.608
41876W        W13602   8.836  36.078   2.781
41877W        W13603  14.143  35.691   1.780
41878W        W13604   5.785  43.917   2.961
41879W        W13605  14.182  15.601  11.547
41880W        W13606  43.605  42.150   2.081
41881W        W13607  40.029  35.686   0.381
41882W        W13608  40.362  32.021  10.919
41883W        W13609  17.332  27.144  14.224
41884W        W13610   9.315   6.205   3.203
41885W        W13611  30.125  41.267  13.273
41886W        W13612  21.139  35.006  12.998
41887W        W13613  21.312  19.981  11.172
41888W        W13614  18.783  10.261   5.024
41889W        W13615  14.055   6.806  13.402
41890W        W13616  43.341   4.320  14.219
41891W        W13617  25.535  28.759   2.113
41892W        W13618  29.136   0.638  11.607
41893W        W13619  15.465  35.830  12.481
41894W        W13620   4.747   1.006  11.438
41895W        W13621  16.668   1.055   2.729
41896W        W13622  31.664  32.015  10.702
41897W        W13623  13.184  32.515   2.401
41898W        W13624   3.228  36.488   1.658
41899W        W13625  37.958  10.417   1.268
41900W        W13626   8.200  43.788   4.478
41901W        W13627   9.698  41.962   0.051
41902W        W13628  36.155  27.176   2.354
41903W        W13629  24.607  35.993   0.354
41904W        W13630  31.440  39.379   2.253
41905W        W13631  18.649  15.527   0.913
41906W        W13632  31.367   3.258   2.637
41907W        W13633  32.859  43.488  13.084
41908W        W13634  35.470  43.202  11.838
41909W        W13635  31.875   3.350  10.448
41910W        W13636  37.941  10.189   2.861
41911W        W13637   9.016  15.370   1.961
41912W        W13638  35.123  42.769   0.437
41913W        W13639  32.065   3.960  11.661
41914W        W13640  16.619   5.970   0.232
41915W        W13641  15.728  38.041  10.206
41916W        W13642  10.797  13.247  10.379
41917W        W13643  39.054  10.134   3.169
41918W        W13644   3.657   2.891   2.414
41919W        W13645  32.832  37.154  12.940
41920W        W13646  27.937  44.543  13.571
41921W        W13647  24.600  44.761  11.434
41922W        W13648  21.826  23.686  11.568
41923W        W13649  32.600   2.928   2.410
41924W        W13650  17.271  41.981  13.555
41925W        W13651  44.756  37.061   4.153
41926W        W13652   6.355  17.480   1.578
41927W        W13653  42.146  42.876   2.334
41928W        W13654  20.610  44.387  13.501
41929W        W13655  41.186  14.504  11.587
41930W        W13656   3.939   2.845   0.909
41931W        W13657  39.843  36.150   2.273
41932W        W13658  30.920   8.855   2.853
41933W        W13659   8.604  22.532  12.039
41934W        W13660  43.952  13.293   4.356
41935W        W13661   7.504  33.146   1.348
41936W        W13662  23.087  16.749  12.764
41937W        W13663  11.673  28.635   4.524
41938W        W13664  12.203   1.304   4.191
41939W        W13665  41.783  22.576  13.890
41940W        W13666   5.163  25.984   4.404
41941W        W13667  33.617  41.258  14.808
41942W        W13668  14.075  15.700  14.735
41943W        W13669  26.516   0.959   2.649
41944W        W13670  17.318  39.423   1.371
41945W        W13671  33.843  32.458   0.350
41946W        W13672  23.634  10.945   1.874
41947W        W13673  39.447  12.668   0.017
41948W        W13674   7.085   3.971  13.214
41949W        W13675  32.857  13.746   1.404
41950W        W13676  24.996   6.397   1.127
41951W        W13677  14.554  42.971  10.668
41952W        W13678  17.564  27.416  13.834
41953W        W13679  35.103  40.981  10.683
41954W        W13680  16.083   0.996   4.645
41955W        W13681  26.586   0.711   3.608
41956W        W13682  27.986  13.794  10.128
41957W        W13683   9.398  24.699  12.950
41958W        W13684  32.726  16.296  12.112
41959W        W13685  21.631  14.600   2.164
41960W        W13686   7.315   3.275   0.156
41961W        W13687  38.537  33.962  11.922
41962W        W13688   9.828   9.658  10.729
41963W        W13689   6.558   5.148  13.036
41964W        W13690  27.685  29.953  11.142
41965W        W13691  33.609  20.299  14.410
41966W        W13692   9.668  17.987   4.902
41967W        W13693   6.999  20.269  13.095
41968W        W13694   2.891  26.042   0.860
41969W        W13695   0.942  14.397  14.794
41970W        W13696   9.280  16.847   2.521
41971W        W13697  28.508  37.920  10.599
41972W        W13698   6.774  23.555   3.357
41973W        W13699  14.074  15.761   4.175
41974W        W13700  33.659   7.601  14.579
41975W        W13701  23.809  10.304  14.660
41976W        W13702  21.419  36.783   2.171
41977W        W13703  28.936   8.177  13.489
41978W        W13704  15.104  35.310  11.170
41979W        W13705   3.891  32.120  14.330
41980W        W13706  19.924   5.476  12.119
41981W        W13707  41.092   8.335   3.535
41982W        W13708  14.708  30.275  12.890
41983W        W13709  26.600  10.196   4.084
41984W        W13710  15.678  14.486   4.951
41985W        W13711  10.161  20.738   0.734
41986W        W13712  44.841  28.602  11.879
41987W        W13713  29.000  20.319   2.737
41988W        W13714  23.236  16.745  11.557
41989W        W13715  37.092  14.719   4.862
41990W        W13716  18.189  28.685   2.229
41991W        W13717  18.017  24.258   1.639
41992W        W13718   5.169   4.301  10.240
41993W        W13719  18.082  37.292  14.820
41994W        W13720  38.739  22.023   2.993
41995W        W13721  44.086  23.735  12.205
41996W        W13722  10.876   9.251   3.647
41997W        W13723  39.255  10.690   2.404
41998W        W13724  34.998  41.603  12.014
41999W        W13725  32.665  22.665  11.274
42000W        W13726  14.729   7.480  10.752
42001W        W13727   5.811  25.142   2.420
42002W        W13728  33.867  14.258  14.461
42003W        W13729   8.750  16.786   1.313
42004W        W13730  40.814  21.687  13.929
42005W        W13731  18.439   4.024  11.402
42006W        W13732  12.534  25.074   4.603
42007W        W13733   4.825   2.668  13.367
42008W        W13734  28.388  41.349   1.734
42009W        W13735  20.608  29.963  14.477
42010W        W13736  35.874  35.153  13.585
42011W        W13737  16.130   8.408  12.146
42012W        W13738  22.169  27.980  11.505
42013W        W13739  35.556  28.043   3.208
42014W        W13740  35.047   5.206   4.111
42015W        W13741  26.929  15.661  14.420
42016W        W13742   8.075  28.046  11.436
42017W        W13743  24.450  28.433  12.985
42018W        W13744  19.864   6.675  12.477
42019W        W13745  21.643  20.568   4.569
42020W        W13746   6.217   5.437   2.316
42021W        W13747  31.456   6.979   4.641
42022W        W13748  23.992  19.002  14.879
42023W        W13749   5.756   4.404  10.980
42024W        W13750  18.012   0.032   0.342
42025W        W13751  26.176  39.499  12.527
42026W        W13752  41.858  36.117  11.988
42027W        W13753  26.419  40.015  11.519
42028W        W13754   8.378  16.164   1.412
42029W        W13755  28.545  40.888  11.225
42030W        W13756  27.560  18.145   4.081
42031W        W13757  38.605   2.560   1.046
42032W        W13758  32.883  25.222   4.049
42033W        W13759  28.550  24.578  13.935
42034W        W13760  26.187  43.129  12.430
42035W        W13761  21.249  29.415  10.720
42036W        W13762  40.481  12.647  13.065
42037W        W13763  40.590  35.927   3.259
42038W        W13764  21.218  16.672   0.282
42039W        W13765  34.352  44.495   0.239
42040W        W13766  26.462  25.450   1.749
42041W        W13767  43.243  10.130  13.866
42042W        W13768  24.501  26.710   2.169
42043W        W13769  17.981  28.076   0.980
42044W        W13770   5.869  40.341  14.363
42045W        W13771  25.671   4.765   3.318
42046W        W13772  29.539   1.935  14.300
42047W        W13773  33.962   2.633  14.786
42048W        W13774  42.883  43.380  14.020
42049W        W13775  15.266  37.446  11.999
42050W        W13776  14.088  43.324   2.707
42051W        W13777  30.181   1.014  10.957
42052W        W13778  41.973  33.603   1.717
42053W        W13779  30.490  39.088   1.786
42054W        W13780  43.728  29.638   2.859
42055W        W13781   1.873   6.835   1.708
42056W        W13782   7.880  20.977   2.371
42057W        W13783   5.159   9.005  12.359
42058W        W13784   1.707   2.840  11.419
42059W        W13785  18.841  28.537  14.407
42060W        W13786  23.239  40.416  12.149
42061W        W13787  14.841  14.689  14.964
42062W        W13788   0.020  29.014  12.557
42063W        W13789   2.756  13.793  11.040
42064W        W13790   0.080  37.660  11.459
42065W        W13791  10.888  33.032   0.205
42066W        W13792  41.416   7.400   1.232
42067W        W13793  19.405  24.949   4.211
42068W        W13794   2.277  19.782  13.628
42069W        W13795  22.376  33.102   4.877
42070W        W13796  36.106   7.184   0.354
42071W        W13797  11.255  39.574   3.699
42072W        W13798   6.522  14.132  12.927
42073W        W13799  27.137  30.403  12.361
42074W        W13800  36.161  28.113  13.520
42075W        W13801   6.834  36.890   1.853
42076W        W13802  41.014  10.962  12.439
42077W        W13803  28.546  21.782  14.455
42078W        W13804   9.393  30.946   2.178
42079W        W13805  17.566  19.448   1.013
42080W        W13806  30.725  29.037  14.300
42081W        W13807   1.451  25.467   4.139
42082W        W13808  13.600  27.344   2.398
42083W        W13809  31.994  10.679   0.461
42084W        W13810   7.689   0.091   1.665
42085W        W13811  19.014  27.019   1.365
42086W        W13812  30.858   2.387  12.190
42087W        W13813  24.825  42.869  13.490
42088W        W13814  26.024  16.184  12.129
42089W        W13815  41.420   2.537  10.914
42090W        W13816  35.576  40.695  10.723
42091W        W13817  43.966  23.410   4.587
42092W        W13818  25.455  15.138  12.966
42093W        W13819   4.916  18.149  14.946
42094W        W13820  24.915  41.102  12.432
42095W        W13821  34.342   5.391  14.975
42096W        W13822  29.113  24.620   4.367
42097W        W13823  12.502  26.454   0.888
42098W        W13824  36.366   8.700  12.732
42099W        W13825  39.205  26.399  13.442
42100W        W13826  34.642   3.499  11.683
42101W        W13827  35.491  42.054   4.037
42102W        W13828  41.134  26.027   0.376
42103W        W13829   2.204   8.937  13.746
42104W        W13830  26.086  40.672   3.535
42105W        W13831   9.161  40.783  11.911
42106W        W13832  31.485  43.465  11.118
42107W        W13833  15.149   2.467  14.849
42108W        W13834  28.561  10.205   0.906
42109W        W13835  26.177   3.562  12.895
42110W        W13836  16.274  13.668  13.763
42111W        W13837  41.438  35.907  10.691
42112W        W13838  22.584  10.144   2.666
42113W        W13839   2.312  37.644  14.537
42114W        W13840  25.225   2.946   1.352
42115W        W13841  22.738  38.822   4.538
42116W        W13842  21.055   6.366   1.873
42117W        W13843   3.396   5.393   0.844
42118W        W13844  27.420  38.789  14.731
42119W        W13845   2.922  37.917  14.373
42120W        W13846   5.856  28.866  13.387
42121W        W13847  20.253  30.145  11.593
42122W        W13848  15.898  37.101   0.189
42123W        W13849   2.960   2.053   0.480
42124W        W13850   4.539  24.954   0.839
42125W        W13851   4.431  34.237   4.710
42126W        W13852  23.480  14.291   3.206
42127W        W13853  34.639  22.101  13.616
42128W        W13854  35.342  42.939  14.235
42129W        W13855  33.035  19.642  12.577
42130W        W13856   6.387  39.966   3.949
42131W        W13857  11.909   1.271   3.757
42132W        W13858  26.696  40.603  10.974
42133W        W13859   5.365  34.104   1.386
42134W        W13860  14.123  31.634  12.960
42135W        W13861  26.622  14.883   2.932
42136W        W13862  11.227  41.390  11.590
42137W        W13863  34.554   9.170   3.880
42138W        W13864  22.793  26.554  13.006
42139W        W13865   7.425  24.244   2.430
42140W        W13866   9.974  38.988  14.403
42141W        W13867  30.657  19.677   2.716
42142W        W13868  22.818  24.704  11.602
42143W        W13869  19.032  32.926  14.344
42144W        W13870   0.323  28.186  14.826
42145W        W13871   7.911  21.960   4.105
42146W        W13872  26.200  12.334   3.288
42147W        W13873  15.539  16.763   1.220
42148W        W13874  26.443  29.323   3.675
42149W        W13875   4.669   8.488   1.803
42150W        W13876  41.663  25.052   1.224
42151W        W13877  12.709  36.624  14.266
42152W        W13878  19.050  33.111  13.447
42153W        W13879  33.497   4.782   4.651
42154W        W13880   5.705  33.638  14.349
42155W        W13881  19.134  39.020   0.368
42156W        W13882   3.352   5.276   3.112
42157W        W13883  33.156  29.022  13.006
42158W        W13884   1.172  18.839  12.024
42159W        W13885  41.423  37.050   3.037
42160W        W13886  23.217  23.732  11.677
42161W        W13887  24.116  42.475  14.052
42162W        W13888  21.639  44.031   0.496
42163W        W13889  11.140  23.377  13.908
42164W        W13890  38.487  23.529   4.565
42165W        W13891   8.801   4.313   1.014
42166W        W13892  35.880   8.795  14.439
42167W        W13893  31.320  27.725  14.468
42168W        W13894  37.163  34.514   2.192
42169W        W13895   1.030  10.239  12.133
42170W        W13896  33.981  33.318   1.627
42171W        W13897  36.070  31.915   2.870
42172W        W13898   0.938  35.137   2.191
42173W        W13899  10.443   0.103   2.274
42174W        W13900  10.521   6.354   1.809
42175W        W13901  27.860  27.174  13.991
42176W        W13902  42.083  16.855   2.305
42177W        W13903   1.326   4.767   3.007
42178W        W13904  44.491  10.867  11.526
42179W        W13905  11.854  16.726   0.748
42180W        W13906  39.042   2.727  14.317
42181W        W13907  26.693  31.457   1.316
42182W        W13908  19.103   2.771  14.896
42183W        W13909  23.245  19.008  11.167
42184W        W13910  43.149   8.056  14.266
42185W        W13911  30.047  21.840  13.161
42186W        W13912  14.142  43.347   4.165
42187W        W13913  27.051   1.370  11.445
42188W        W13914  13.082   2.511  12.041
42189W        W13915  10.275   3.860   4.612
42190W        W13916  15.946   0.563   1.423
42191W        W13917  37.297  18.563   2.731
42192W        W13918   4.665   7.199  13.407
42193W        W13919  22.790   3.606   1.183
42194W        W13920   3.393  36.036   1.447
42195W        W13921  42.257  15.641   3.769
42196W        W13922  37.911  22.143  14.381
42197W        W13923  41.915  39.472   4.119
42198W        W13924   4.067  21.487  10.973
42199W        W13925   9.203  32.446  11.584
42200W        W13926  32.017  37.904  10.632
42201W        W13927  33.089   7.189  10.523
42202W        W13928  18.252  10.811  12.776
42203W        W13929  34.034  28.446   2.900
42204W        W13930  19.147  32.060   0.979
42205W        W13931  43.935  16.121   2.241
42206W        W13932  10.866  19.757  11.673
42207W        W13933  22.043  36.473   4.189
42208W        W13934   7.918  40.297  12.733
42209W        W13935  13.347  18.521  13.992
42210W        W13936  25.643   1.901   1.124
42211W        W13937  19.963   7.223  11.680
42212W        W13938  17.787  38.936   9.699
42213W        W13939  35.450  33.653   2.623
42214W        W13940  16.581  24.478   3.003
42215W        W13941  41.845   3.276  12.847
42216W        W13942  42.305  29.910   1.477
42217W        W13943   0.283  38.744   2.540
42218W        W13944  23.736  11.324   2.221
42219W        W13945  38.906   4.474   3.604
42220W        W13946  14.186  28.010  13.897
42221W        W13947  23.013  10.575   0.512
42222W        W13948  14.613  33.636   4.972
42223W        W13949  29.021  15.968  14.738
42224W        W13950  35.373   2.458  10.613
42225W        W13951  12.729   0.226  12.385
42226W        W13952  11.276  40.989   3.632
42227W        W13953   0.234  18.988   1.844
42228W        W13954  20.045  23.978  10.641
42229W        W13955  44.996  28.092  11.085
42230W        W13956   5.898  21.335   1.355
42231W        W13957   1.911  38.453   0.373
42232W        W13958  19.794   7.809   1.852
42233W        W13959  19.327   3.255  14.861
42234W        W13960  33.962  30.589   2.674
42235W        W13961  26.281  38.139   1.550
42236W        W13962   8.709  30.553   2.938
42237W        W13963  32.627  10.306  14.907
42238W        W13964  19.207  37.931   0.219
42239W        W13965  31.012  40.623   4.419
42240W        W13966  21.555  20.531   3.190
42241W        W13967  30.435  43.251   3.957
42242W        W13968   6.520  26.478   0.521
42243W        W13969  38.907  25.464  13.536
42244W        W13970  30.605  37.641  10.532
42245W        W13971  12.026   1.883   2.641
42246W        W13972  13.725   2.332  10.645
42247W        W13973  20.859  21.345   2.711
42248W        W13974  33.124   9.895  11.625
42249W        W13975  44.462  44.423   0.137
42250W        W13976   6.796   0.274   1.363
42251W        W13977  21.529   5.169   4.847
42252W        W13978  44.086  28.917  14.362
42253W        W13979  11.829  24.755   4.200
42254W        W13980  37.982  38.420   4.789
42255W        W13981  34.821   1.676   1.201
42256W        W13982  27.067  16.566   4.304
42257W        W13983  28.741  20.190  10.922
42258W        W13984  37.401  37.510   0.725
42259W        W13985  18.402  14.523   3.349
42260W        W13986   4.258  43.327   4.641
42261W        W13987  34.406  20.366   2.229
42262W        W13988  39.794  35.588  10.702
42263W        W13989  11.689  44.985  10.852
42264W        W13990   5.839  27.611   4.925
42265W        W13991  23.095   9.249   4.155
42266W        W13992  42.206   3.893   4.605
42267W        W13993   6.315  31.830   4.894
42268W        W13994   3.365   4.974  13.791
42269W        W13995   1.725   3.792  14.234
42270W        W13996  19.659   6.567   2.676
42271W        W13997  26.624  38.279  10.935
42272W        W13998   7.023  43.996  12.580
42273W        W13999  20.974  24.030   4.604
42274W        W14000   4.129  32.567  14.346
42275W        W14001  40.846  13.264  13.426
42276W        W14002  25.427  19.093   1.631
42277W        W14003  41.914  30.468  10.617
42278W        W14004   9.222  33.518   4.626
42279W        W14005  38.179  10.886   1.302
42280W        W14006  34.476  44.954   1.983
42281W        W14007  17.739  35.864   2.225
42282W        W14008  14.112   6.646   2.127
42283W        W14009   5.897   8.293  13.802
42284W        W14010  37.545  22.340  10.821
42285W        W14011  43.351   8.999  13.182
42286W        W14012   2.914   8.721   3.569
42287W        W14013  14.525  20.357  10.675
42288W        W14014  40.349  32.360   0.395
42289W        W14015  11.183  30.288  11.806
42290W        W14016  17.990  38.035  11.110
42291W        W14017  19.598  25.450   1.238
42292W        W14018  37.928   4.760  10.162
42293W        W14019  16.409  44.362  12.145
42294W        W14020  16.793  21.555  13.889
42295W        W14021  12.661  25.950  11.182
42296W        W14022  11.436  14.341   1.941
42297W        W14023   2.072  20.478  10.842
42298W        W14024   1.583  16.640  14.198
42299W        W14025  26.440  40.598   0.823
42300W        W14026  11.126  23.377   5.401
42301W        W14027  40.704   5.336   3.231
42302W        W14028   5.426  10.305   2.924
42303W        W14029  12.472  15.844  12.864
42304W        W14030   5.480  12.314   4.120
42305W        W14031  32.389   5.587   4.403
42306W        W14032  23.269  18.070  14.060
42307W        W14033   1.797  41.869  10.737
42308W        W14034  43.916  12.126   2.623
42309W        W14035  20.787  36.993  14.789
42310W        W14036  21.946   7.840  14.398
42311W        W14037  29.967  30.985   1.228
42312W        W14038  43.401   2.235  12.455
42313W        W14039  42.924  34.533   4.115
42314W        W14040  21.132   5.769  10.753
42315W        W14041  26.623  16.803  10.660
42316W        W14042   6.399  43.393  14.366
42317W        W14043   6.496   4.689  12.827
42318W        W14044  27.432  34.317   4.152
42319W        W14045  39.821  44.535   2.740
42320W        W14046  11.333  31.508  12.323
42321W        W14047  43.155  23.181   4.510
42322W        W14048  22.647   5.254  14.050
42323W        W14049  26.146  15.809  12.990
42324W        W14050   5.156  44.212  10.269
42325W        W14051  29.177   0.994   0.855
42326W        W14052  20.879   8.771   0.388
42327W        W14053  21.478  18.204   3.625
42328W        W14054   7.869  34.823  14.430
42329W        W14055  31.501  35.634   1.273
42330W        W14056   6.329  18.700   0.247
42331W        W14057  40.598  20.050   3.760
42332W        W14058  24.138   8.935   1.271
42333W        W14059  12.145  10.166  10.641
42334W        W14060  16.269   1.919  11.665
42335W        W14061  20.208  29.025  13.341
42336W        W14062   6.346   7.270  12.479
42337W        W14063   9.860  23.966   1.450
42338W        W14064  24.179  14.159  12.640
42339W        W14065  44.926  29.460  11.150
42340W        W14066  33.420  26.556   2.257
42341W        W14067   6.023  28.946   3.893
42342W        W14068  12.830  10.970   4.001
42343W        W14069  24.239  17.960  12.389
42344W        W14070  16.313  37.693   5.051
42345W        W14071  41.829   1.827  11.585
42346W        W14072  30.771  17.080   4.508
42347W        W14073  27.463  33.675  14.559
42348W        W14074  42.474  43.966   0.371
42349W        W14075  37.051  35.319   0.835
42350W        W14076  11.560   9.889  11.074
42351W        W14077  28.150  32.511   2.276
42352W        W14078  44.539  24.340  10.189
42353W        W14079  25.366  20.254  14.931
42354W        W14080   9.948  27.008  12.946
42355W        W14081  43.869  22.175  10.919
42356W        W14082  42.346  29.431  11.482
42357W        W14083  40.975  30.523   3.195
42358W        W14084  30.149  25.410  10.565
42359W        W14085  35.951  15.343  11.580
42360W        W14086   6.185  15.075   4.629
42361W        W14087  37.174  30.632   2.308
42362W        W14088   4.955  35.989   0.884
42363W        W14089  35.481  31.499  11.865
42364W        W14090  41.493  38.821  10.224
42365W        W14091  37.490  36.590   3.833
42366W        W14092  17.173  33.369   2.495
42367W        W14093  37.565  15.371  14.810
42368W        W14094  24.471  21.534  14.442
42369W        W14095   3.335  16.772   1.279
42370W        W14096   4.331  26.479   0.895
42371W        W14097  31.999   1.993  12.649
42372W        W14098  21.542  25.534  12.843
42373W        W14099  27.677  14.398  13.592
42374W        W14100  21.256  12.323   0.692
42375W        W14101  33.078  18.442  10.730
42376W        W14102  37.043  44.238  11.460
42377W        W14103  19.670  21.249   1.731
42378W        W14104  35.410  41.909  10.578
42379W        W14105  16.625   8.183  14.797
42380W        W14106  34.796  16.938  11.587
42381W        W14107  32.515   5.191   3.592
42382W        W14108   4.033  12.976   1.142
42383W        W14109   7.648  21.560   1.331
42384W        W14110  10.659  25.277   4.565
42385W        W14111  26.349  12.758   1.899
42386W        W14112  17.225   4.236   1.709
42387W        W14113   5.071  18.619  14.721
42388W        W14114   6.950  34.585   2.492
42389W        W14115  18.277  33.083   0.015
42390W        W14116  16.635  32.379  12.486
42391W        W14117   8.531  11.187   3.697
42392W        W14118  21.990  12.395   3.649
42393W        W14119  32.060  14.981  12.526
42394W        W14120  42.787  31.086   4.582
42395W        W14121  24.259  41.483   0.151
42396W        W14122   2.703  32.426   2.146
42397W        W14123  43.137  40.951  14.022
42398W        W14124  35.499   7.303   1.354
42399W        W14125  41.284  44.451  10.791
42400W        W14126   7.055  20.822  10.746
42401W        W14127   2.382   1.952   3.147
42402W        W14128  33.518  42.317  12.935
42403W        W14129  16.017  22.186   4.130
42404W        W14130  26.209  15.485  14.067
42405W        W14131  19.228  20.661   4.413
42406W        W14132  22.467  28.963  14.938
42407W        W14133  26.166  30.194   2.846
42408W        W14134  14.328  29.883  12.448
42409W        W14135  33.353  31.376   3.612
42410W        W14136  23.294  18.816  13.623
42411W        W14137  39.799  14.595  13.116
42412W        W14138  40.133  33.405  12.890
42413W        W14139  43.784   2.598  12.538
42414W        W14140  16.739   1.673   4.577
42415W        W14141  15.597  17.151  14.545
42416W        W14142   3.873  28.652  11.704
42417W        W14143  34.235  40.849  14.092
42418W        W14144   4.857  31.004   0.228
42419W        W14145  11.188  22.746  12.923
42420W        W14146  11.841   1.691   1.285
42421W        W14147  41.371  18.042  12.936
42422W        W14148  34.609  27.687   3.275
42423W        W14149  12.552   5.691   3.713
42424W        W14150  21.700  16.090   0.780
42425W        W14151  40.830   2.114  10.741
42426W        W14152  40.953  38.363  12.579
42427W        W14153  10.340  34.490  10.986
42428W        W14154  36.073  38.021   2.681
42429W        W14155   8.770  36.359   3.242
42430W        W14156   4.821  23.780   1.698
42431W        W14157  44.538  10.122  12.881
42432W        W14158  15.887  12.257   0.003
42433W        W14159   8.794  43.016   3.271
42434W        W14160   2.977  17.631  13.866
42435W        W14161  28.857  20.281   0.052
42436W        W14162  33.614   9.545  13.597
42437W        W14163  18.974  41.826  14.331
42438W        W14164  35.817  19.637   4.166
42439W        W14165  11.836  44.737   2.359
42440W        W14166   0.569  28.538  14.112
42441W        W14167  10.295  32.198   5.167
42442W        W14168  27.076  25.209  11.563
42443W        W14169  25.669  21.136  13.686
42444W        W14170   6.267  20.916  12.035
42445W        W14171   0.290   1.222  12.911
42446W        W14172  38.145   0.476  10.740
42447W        W14173  35.500  22.722  11.092
42448W        W14174   2.359   6.109   1.975
42449W        W14175  33.837  25.162  14.219
42450W        W14176  23.006  34.655  14.739
42451W        W14177  40.514  36.479   0.481
42452W        W14178  39.223  12.518   4.798
42453W        W14179  33.920  23.835  14.820
42454W        W14180  17.740   6.971   4.330
42455W        W14181  39.434  12.100   4.562
42456W        W14182  44.935  16.329   0.107
42457W        W14183  37.265   8.877  14.449
42458W        W14184  14.185  31.364  12.523
42459W        W14185   0.690   1.894   1.401
42460W        W14186  32.882  32.663  13.016
42461W        W14187  15.672   3.094  13.317
42462W        W14188  12.850   4.955  12.027
42463W        W14189  33.011  22.447   3.666
42464W        W14190  33.783  15.952  11.576
42465W        W14191   1.748  34.093   0.006
42466W        W14192   8.746  23.672   3.318
42467W        W14193  19.638   7.613   2.796
42468W        W14194  34.436  10.183  14.925
42469W        W14195  33.112  10.391   0.120
42470W        W14196   0.428   1.445  10.937
42471W        W14197  19.083  40.064   1.334
42472W        W14198   9.393  11.392   0.723
42473W        W14199  10.126  33.005   0.258
42474W        W14200  33.670  13.632  12.388
42475W        W14201  11.008  20.144   2.484
42476W        W14202  10.588  20.097  13.271
42477W        W14203  18.524   0.058  13.507
42478W        W14204  22.584   3.221   1.878
42479W        W14205  27.529  42.364  11.603
42480W        W14206  35.108  27.397  13.983
42481W        W14207   5.181   9.583   1.295
42482W        W14208   5.378  33.256  14.352
42483W        W14209  40.475  14.471  11.175
42484W        W14210   1.534   1.240   4.069
42485W        W14211  44.965  30.851  14.317
42486W        W14212   8.663  15.742   2.079
42487W        W14213   4.839  15.211   1.762
42488W        W14214  10.306  17.428  11.179
42489W        W14215  38.844   2.293  10.924
42490W        W14216  13.006   6.781   4.925
42491W        W14217  26.600   1.184   3.095
42492W        W14218   0.359  25.434  10.737
42493W        W14219  28.242   2.532   0.479
42494W        W14220  36.413  26.725  12.619
42495W        W14221  27.916  11.802   5.038
42496W        W14222   2.461  10.270   3.192
42497W        W14223   2.286   3.181   0.273
42498W        W14224   7.843  36.638   4.668
42499W        W14225  17.802  25.457   4.225
42500W        W14226  26.707   8.165   3.160
42501W        W14227   5.145  28.269  11.126
42502W        W14228   4.913   6.018   9.538
42503W        W14229  21.733   1.720   1.876
42504W        W14230   1.477  11.730  13.418
42505W        W14231   1.870  26.196  12.149
42506W        W14232  43.998  38.055  12.373
42507W        W14233  40.831  23.140   2.583
42508W        W14234  20.074  37.852   2.879
42509W        W14235  11.309   9.385   0.673
42510W        W14236  18.496  21.618   0.058
42511W        W14237  31.057   4.816  14.216
42512W        W14238   7.317  11.076   0.021
42513W        W14239  22.125  37.089   0.904
42514W        W14240  25.004   7.906  13.983
42515W        W14241  31.426  27.129  11.136
42516W        W14242  18.979   3.839   3.670
42517W        W14243  11.334  27.099   0.355
42518W        W14244  10.086   7.113  11.091
42519W        W14245  11.386  15.838   0.879
42520W        W14246  14.729   0.471   1.800
42521W        W14247   7.730  41.251  12.488
42522W        W14248  25.207  27.648  10.363
42523W        W14249  16.613  20.774   0.909
42524W        W14250  33.954   3.416   4.094
42525W        W14251  18.770  16.089   4.030
42526W        W14252  44.430  21.508  13.967
42527W        W14253   1.842  26.184   4.156
42528W        W14254   6.992  35.584   0.491
42529W        W14255   1.389   2.694   4.505
42530W        W14256  44.811  29.465  14.803
42531W        W14257  30.124   1.495  10.769
42532W        W14258  31.474  31.530   4.528
42533W        W14259  26.523  44.422  13.273
42534W        W14260  16.565  18.686   1.290
42535W        W14261  11.821  21.973   2.710
42536W        W14262  44.836  20.638  12.043
42537W        W14263  40.081   9.247  12.392
42538W        W14264  20.628  13.784   4.730
42539W        W14265   0.886   3.986  14.335
42540W        W14266   5.457  15.805  10.640
42541W        W14267  25.831   1.404   9.575
42542W        W14268   5.276  37.331   1.932
42543W        W14269   4.487  38.403  14.763
42544W        W14270  34.892   1.397   2.486
42545W        W14271   2.246  22.347   4.915
42546W        W14272  38.080  35.607  11.092
42547W        W14273  24.271   9.460   2.369
42548W        W14274  31.330   4.978   1.761
42549W        W14275  26.498  17.764  11.694
42550W        W14276  35.409  37.946  11.552
42551W        W14277  43.589  27.250  12.120
42552W        W14278  12.295  15.676   2.238
42553W        W14279  24.752  43.041  12.524
42554W        W14280  30.656  15.934   0.724
42555W        W14281  34.554  43.869   3.144
42556W        W14282  23.724  33.425  14.315
42557W        W14283  34.353   4.435  13.910
42558W        W14284  13.790   9.743  10.595
42559W        W14285  40.251  14.580   0.508
42560W        W14286  43.372  40.140  13.854
42561W        W14287  39.407   0.454  11.220
42562W        W14288   0.407  44.566  14.327
42563W        W14289  28.089  24.039  12.509
42564W        W14290   5.413  39.912   2.799
42565W        W14291  24.484   4.084  13.264
42566W        W14292   4.151  31.658  11.944
42567W        W14293  34.129  36.292   3.714
42568W        W14294   9.656  31.119  12.155
42569W        W14295   2.421  40.885   3.656
42570W        W14296  27.568   7.375   0.895
42571W        W14297  25.634   2.415   3.908
42572W        W14298  39.340  42.912  14.737
42573W        W14299  25.045  40.366   4.120
42574W        W14300  15.655   7.937  12.888
42575W        W14301  32.826  26.662   5.072
42576W        W14302  44.431   7.875   3.087
42577W        W14303  24.779  40.381  12.880
42578W        W14304  41.409  33.391  11.188
42579W        W14305  39.832   6.486   0.678
42580W        W14306   0.376   1.053   4.750
42581W        W14307  17.208  44.818   2.710
42582W        W14308   9.816  37.860   2.722
42583W        W14309  38.887  20.002   1.276
42584W        W14310  32.005  10.620   1.342
42585W        W14311   1.362   4.570  14.866
42586W        W14312  39.529  20.081  10.627
42587W        W14313  14.018  42.431   2.813
42588W        W14314  26.390  24.264  14.658
42589W        W14315  22.677  17.674   1.860
42590W        W14316  32.414   2.230   5.068
42591W        W14317  43.930  29.178   2.175
42592W        W14318  32.322  13.292   4.488
42593W        W14319  44.020  39.550  10.583
42594W        W14320  24.460  44.854  14.732
42595W        W14321   1.105   1.922   2.849
42596W        W14322  43.284  41.992  11.534
42597W        W14323  10.767  24.175   0.177
42598W        W14324  28.465  44.920   4.614
42599W        W14325  18.749  22.731   1.331
42600W        W14326   5.886   0.225  10.636
42601W        W14327  36.963   1.200  13.137
42602W        W14328  16.778   6.015  11.147
42603W        W14329  12.349  27.875  14.017
42604W        W14330  39.472   1.364  12.422
42605W        W14331  38.435  19.240  13.338
42606W        W14332  21.167  37.548  12.280
42607W        W14333  26.689   3.680  14.436
42608W        W14334  36.842  10.363   1.643
42609W        W14335  30.767  33.450   4.557
42610W        W14336  35.296  42.299  11.560
42611W        W14337  28.707   6.455  11.682
42612W        W14338  23.363  41.411  12.372
42613W        W14339  20.071   0.313   0.963
42614W        W14340  14.610  28.224  11.534
42615W        W14341  32.016  40.374   4.168
42616W        W14342  10.330  43.572  13.921
42617W        W14343   7.272  25.494   1.146
42618W        W14344  10.623  38.061  12.921
42619W        W14345  28.378   2.732  10.998
42620W        W14346  36.015  16.232   0.360
42621W        W14347   8.660   0.325   0.657
42622W        W14348  33.470  42.848  13.800
42623W        W14349  24.187   0.026  11.580
42624W        W14350  10.841  22.282  12.554
42625W        W14351  21.496   8.566   3.227
42626W        W14352  36.119  32.056   5.090
42627W        W14353  10.643   4.039  14.258
42628W        W14354  43.487  16.284   0.929
42629W        W14355  22.414  38.630   1.727
42630W        W14356  11.590  30.656  11.755
42631W        W14357  17.507  39.778  13.884
42632W        W14358  40.774  27.095   4.836
42633W        W14359   6.321  36.964   2.755
42634W        W14360   1.663  24.592  12.336
42635W        W14361  23.261  41.254   0.386
42636W        W14362  26.470  22.728  11.631
42637W        W14363  35.519  42.416   0.510
42638W        W14364   1.484  37.623  11.558
42639W        W14365  23.431  13.680   2.481
42640W        W14366  38.341   6.923  14.755
42641W        W14367   2.354  16.706  12.939
42642W        W14368  24.304   9.239   2.863
42643W        W14369  10.872  11.745   2.234
42644W        W14370  36.498  17.874  10.444
42645W        W14371  19.642  30.622  12.633
42646W        W14372   7.617  31.241  11.420
42647W        W14373  37.984   0.960   4.336
42648W        W14374  37.082  21.459   3.190
42649W        W14375  37.830  11.643   3.175
42650W        W14376  38.849  35.904   2.142
42651W        W14377  19.556  19.519  14.981
42652W        W14378  37.216  31.103  11.817
42653W        W14379  37.641   4.781   4.030
42654W        W14380   4.482   6.300  13.376
42655W        W14381   8.306   0.037   0.411
42656W        W14382  18.787   8.113   3.172
42657W        W14383  23.224  35.040  12.441
42658W        W14384  19.663  29.968   4.322
42659W        W14385   8.370  44.535   0.399
42660W        W14386   3.126  39.246  13.566
42661W        W14387   5.890  31.356   2.266
42662W        W14388  33.931   2.967   2.191
42663W        W14389   0.994   6.433   0.651
42664W        W14390  30.545   0.228   4.374
42665W        W14391  21.070   6.596  14.635
42666W        W14392  40.900   8.717   0.276
42667W        W14393  31.820  42.862   0.342
42668W        W14394  34.865  10.456   4.189
42669W        W14395  40.974  31.862   3.720
42670W        W14396  38.299  13.175  12.942
42671W        W14397  32.909   0.686  10.811
42672W        W14398  34.647   5.356  10.487
42673W        W14399  38.534  21.585   3.215
42674W        W14400   7.185  34.650  14.329
42675W        W14401  32.374  42.832   2.228
42676W        W14402  36.766  27.708   0.324
42677W        W14403  23.078  39.264   3.942
42678W        W14404  37.585   9.911   4.246
42679W        W14405  15.684  13.654   0.373
42680W        W14406  36.959   4.628   2.318
42681W        W14407  42.358  28.426  14.469
42682W        W14408   3.305  19.332  14.218
42683W        W14409  26.615  10.386  12.433
42684W        W14410  25.375   9.908  11.744
42685W        W14411   9.868  43.645  11.131
42686W        W14412  41.572  40.321  12.449
42687W        W14413  34.132   4.393   2.437
42688W        W14414  43.471  23.406  12.990
42689W        W14415  35.166  16.449   3.788
42690W        W14416  12.570  36.548  12.578
42691W        W14417  19.058  31.973  11.202
42692W        W14418  25.470   0.809   9.808
42693W        W14419   5.756   4.245   4.142
42694W        W14420  18.603  22.192   1.358
42695W        W14421   0.058  17.071   1.888
42696W        W14422  43.489  38.593   3.732
42697W        W14423  10.641  38.537  14.756
42698W        W14424  26.014  24.531   0.724
42699W        W14425   3.473  21.326  13.744
42700W        W14426   8.517  44.847   0.872
42701W        W14427   8.794  23.043   0.623
42702W        W14428  33.923  42.901   4.557
42703W        W14429  22.067  10.875  12.374
42704W        W14430  26.730  34.811   3.081
42705W        W14431   6.948  44.302  13.838
42706W        W14432  25.674  44.257  13.845
42707W        W14433  42.531  16.159   1.914
42708W        W14434  17.679  15.180  13.364
42709W        W14435  38.358  19.229  12.500
42710W        W14436  27.615   6.214  12.198
42711W        W14437   9.403  35.514   4.474
42712W        W14438  14.748   7.378   1.194
42713W        W14439  27.760  37.355   2.615
42714W        W14440   3.342  18.151   4.300
42715W        W14441  12.156  10.820   4.663
42716W        W14442   9.033  41.634  11.935
42717W        W14443  19.917  21.665  14.952
42718W        W14444   1.930   4.235  10.937
42719W        W14445  20.376  17.441  14.408
42720W        W14446  31.643  13.299   1.791
42721W        W14447  18.286   0.419  11.769
42722W        W14448  42.777  19.580  11.360
42723W        W14449   7.937  32.535  10.800
42724W        W14450  35.052  28.726  11.044
42725W        W14451  23.969  30.070   2.334
42726W        W14452   2.742  19.744  13.379
42727W        W14453  14.730   6.931  10.894
42728W        W14454   0.213  44.244   4.960
42729W        W14455  21.223  38.563  10.216
42730W        W14456  43.734  22.598   2.980
42731W        W14457  42.257  36.623  12.405
42732W        W14458  30.708   6.573   1.804
42733W        W14459   8.681  26.288   4.076
42734W        W14460  12.252  24.027   2.647
42735W        W14461   0.453  17.372   0.390
42736W        W14462  43.691  21.649  10.293
42737W        W14463  14.354  34.057  10.673
42738W        W14464  25.371  18.982  12.121
42739W        W14465  11.163  28.872   4.479
42740W        W14466  33.000   9.821  13.020
42741W        W14467  16.619  24.623  11.992
42742W        W14468  20.586  13.040   1.247
42743W        W14469  10.789  44.353   1.924
42744W        W14470  25.493  40.830   0.321
42745W        W14471  28.684   7.827  10.741
42746W        W14472  19.528  27.565   2.697
42747W        W14473  31.863  13.147   4.289
42748W        W14474  22.231  39.266  10.649
42749W        W14475  30.003  11.658   1.388
42750W        W14476  39.010  41.301   1.333
42751W        W14477  35.575  38.978  12.429
42752W        W14478  41.690  28.374  12.254
42753W        W14479  24.191  15.440  10.330
42754W        W14480  19.564  43.303   1.879
42755W        W14481  43.539  14.572  14.869
42756W        W14482  19.219  29.094   4.280
42757W        W14483  37.321  22.460  13.819
42758W        W14484   8.427  20.263  13.488
42759W        W14485  36.840  19.886   4.952
42760W        W14486   3.734  38.818   0.238
42761W        W14487   8.770  40.392   3.808
42762W        W14488   2.999  29.203   1.787
42763W        W14489  34.653  20.066   1.875
42764W        W14490   7.708  42.255   1.338
42765W        W14491   9.827  41.640  12.358
42766W        W14492  25.478  33.492   5.058
42767W        W14493  16.900   0.779  11.891
42768W        W14494   8.188  13.687   3.296
42769W        W14495   9.904  32.241   1.197
42770W        W14496  15.527  39.040  13.104
42771W        W14497  18.003  37.039   0.784
42772W        W14498  15.807   4.935   1.792
42773W        W14499   1.007  39.182   0.592
42774W        W14500  27.089  23.152  12.024
42775W        W14501  16.139  30.880  12.455
42776W        W14502  17.532  18.542  12.144
42777W        W14503  44.398  27.695   4.000
42778W        W14504  42.970   6.168   4.508
42779W        W14505  28.699  23.186  13.026
42780W        W14506  35.025  20.179   1.165
42781W        W14507  26.590  29.889   2.863
42782W        W14508  36.717  35.088  13.918
42783W        W14509  14.291  12.103  14.519
42784W        W14510   9.701  21.548  11.913
42785W        W14511  10.857  37.520  14.927
42786W        W14512  32.080  43.243   0.736
42787W        W14513  21.144  39.839   4.559
42788W        W14514  25.041   7.806  11.912
42789W        W14515   2.833   8.977  14.343
42790W        W14516  29.208  32.450  11.488
42791W        W14517   9.497  30.499  13.755
42792W        W14518  15.871   5.184  10.621
42793W        W14519  36.984  20.373   4.824
42794W        W14520  11.927  16.720  10.684
42795W        W14521  42.513  33.693   1.889
42796W        W14522   5.849  34.865  11.549
42797W        W14523  32.349  26.506   4.171
42798W        W14524   5.482  29.949   3.223
42799W        W14525  20.755  24.300  13.156
42800W        W14526  24.646  25.666  10.406
42801W        W14527  16.999  13.625   2.354
42802W        W14528   2.734  44.963   3.756
42803W        W14529  17.410   6.637  13.954
42804W        W14530  33.035  28.430   4.390
42805W        W14531  20.622   9.184  12.875
42806W        W14532  11.324  19.813   4.828
42807W        W14533  16.097  37.872  11.024
42808W        W14534  30.664  12.905  12.423
42809W        W14535   3.045  20.104  13.611
42810W        W14536   7.346  22.264  12.398
42811W        W14537  20.342   4.063  14.422
42812W        W14538   8.033  16.637   3.014
42813W        W14539  14.697  23.210   1.389
42814W        W14540  41.261  44.018  13.279
42815W        W14541  12.439  39.492  11.953
42816W        W14542  17.035  14.036   9.843
42817W        W14543  24.086  31.442  13.401
42818W        W14544  34.413  27.408   3.739
42819W        W14545  43.853  40.966  10.917
42820W        W14546  23.264  24.805  12.475
42821W        W14547  18.612  36.711  13.962
42822W        W14548  10.248  43.060   5.219
42823W        W14549  10.537  35.633   2.676
42824W        W14550  31.950  22.088  12.315
42825W        W14551  28.899  13.922   2.918
42826W        W14552  24.936  43.747   4.932
42827W        W14553  33.478   3.197  12.434
42828W        W14554  33.340  12.563   3.298
42829W        W14555  15.110  20.268  13.978
42830W        W14556  21.874   3.041  14.521
42831W        W14557  36.010  34.063  11.644
42832W        W14558  21.306  13.536   1.462
42833W        W14559  30.161  17.323  14.524
42834W        W14560  41.671  17.054  13.373
42835W        W14561  18.172  12.359  10.682
42836W        W14562  22.970  12.253   2.811
42837W        W14563  44.624  20.086  14.731
42838W        W14564  10.232  14.619   3.767
42839W        W14565  18.430  18.105  10.619
42840W        W14566  38.525   5.983   2.260
42841W        W14567  27.311  20.077   0.808
42842W        W14568  21.103  39.292  13.977
42843W        W14569  25.244  27.527   0.007
42844W        W14570  23.528  36.919   1.031
42845W        W14571   7.269  33.661   2.456
42846W        W14572  23.466  14.165   2.313
42847W        W14573  12.282  43.078  11.932
42848W        W14574   5.464  31.659   2.848
42849W        W14575  16.800   8.667  13.875
42850W        W14576  30.581  19.570  11.297
42851W        W14577  41.295  12.074   1.414
42852W        W14578  15.086   9.212  14.205
42853W        W14579   9.952   1.932   3.482
42854W        W14580  14.513  14.319   1.772
42855W        W14581  11.932  27.646   2.426
42856W        W14582   9.636   0.084  11.184
42857W        W14583   7.121   7.712   4.683
42858W        W14584  17.297   4.295  11.121
42859W        W14585   8.279  26.594  14.546
42860W        W14586  29.632  41.485   3.578
42861W        W14587  18.918  11.177  14.250
42862W        W14588  20.635  12.615   2.819
42863W        W14589   3.919  27.560  12.459
42864W        W14590  29.733  29.569   4.677
42865W        W14591   1.212  33.558  14.192
42866W        W14592  10.270  20.537   2.133
42867W        W14593  29.176   6.601  11.102
42868W        W14594  44.366  27.472   1.771
42869W        W14595  21.186  14.216   4.561
42870W        W14596   5.402   0.569   0.076
42871W        W14597  37.521  29.860  12.870
42872W        W14598  17.479  16.751  12.112
42873W        W14599  31.980   2.740   3.701
42874W        W14600  14.641  35.102  11.263
42875W        W14601  43.311  19.595   0.915
42876W        W14602  38.969  17.014   4.474
42877W        W14603   0.935  43.883  12.938
42878W        W14604   8.361  24.103  12.868
42879W        W14605   1.161  34.424  11.225
42880W        W14606   9.234   5.829   0.416
42881W        W14607  12.942  44.415  11.569
42882W        W14608  13.050  27.166  12.915
42883W        W14609  20.230  35.624  12.837
42884W        W14610  41.783  19.520   0.748
42885W        W14611   2.449   1.882  13.992
42886W        W14612  24.992  40.343   1.806
42887W        W14613  13.579  34.021   3.614
42888W        W14614  16.013  15.103   0.522
42889W        W14615   2.824  29.218  11.551
42890W        W14616  20.639  13.297   3.142
42891W        W14617   8.873  15.345   1.237
42892W        W14618  15.369  23.436   0.969
42893W        W14619   5.588   6.319  13.498
42894W        W14620  34.547  15.501  13.616
42895W        W14621  37.509   8.121   1.021
42896W        W14622  10.729  41.292  12.483
42897W        W14623  40.887   8.805   0.796
42898W        W14624  41.279   0.856  11.727
42899W        W14625  22.745  10.333  13.514
42900W        W14626  13.256   0.448  11.571
42901W        W14627  11.366  24.053   3.381
42902W        W14628  33.036   8.641   2.793
42903W        W14629  22.581  41.278   1.574
42904W        W14630  37.165   7.983   1.370
42905W        W14631   5.199  43.922   1.670
42906W        W14632   6.889  19.645  13.909
42907W        W14633  41.700   0.919  13.020
42908W        W14634  29.388   1.181  10.792
42909W        W14635  27.575  33.079   2.127
42910W        W14636  26.559  28.477  14.490
42911W        W14637   0.219  23.109   1.401
42912W        W14638  41.596  40.852  14.041
42913W        W14639  10.140   1.033   2.393
42914W        W14640   2.625  35.413  13.505
42915W        W14641  14.309  40.218   1.833
42916W        W14642   2.955  24.045   1.419
42917W        W14643  15.022  34.565   5.009
42918W        W14644  31.878  31.921   4.669
42919W        W14645  14.197  40.791  11.492
42920W        W14646  30.443  40.983  13.609
42921W        W14647   2.468   2.341  10.999
42922W        W14648  11.779  22.558  11.692
42923W        W14649  13.206  34.820  12.477
42924W        W14650  16.149   7.262   3.311
42925W        W14651  41.582  43.152   9.863
42926W        W14652  43.504  13.322  12.661
42927W        W14653   5.219  21.194  12.465
42928W        W14654  23.530  22.054  12.108
42929W        W14655  41.369  21.442   2.463
42930W        W14656   4.963  41.794   2.283
42931W        W14657  26.072  27.067   0.248
42932W        W14658  29.984   3.488   3.815
42933W        W14659  43.316   3.441  13.523
42934W        W14660  44.785  27.979  14.507
42935W        W14661  22.647   3.773  13.119
42936W        W14662  14.368   0.555   0.007
42937W        W14663  23.261  15.082  14.712
42938W        W14664   0.983  26.258   2.894
42939W        W14665  35.007  26.180  12.425
42940W        W14666  23.883  21.534   1.238
42941W        W14667  35.300  20.176   2.783
42942W        W14668  18.262  10.198   2.391
42943W        W14669  14.878  18.793   3.148
42944W        W14670  39.015  23.476  11.008
42945W        W14671  26.127  22.443  11.099
42946W        W14672  26.935   3.322  11.909
42947W        W14673  31.714  36.480  13.853
42948W        W14674   4.719   7.245   5.050
42949W        W14675  28.386   9.197   0.332
42950W        W14676  22.753   8.880   4.040
42951W        W14677  29.556  14.710  13.417
42952W        W14678   9.599  42.643  11.108
42953W        W14679   3.801  27.064  11.023
42954W        W14680  34.008  44.747   1.801
42955W        W14681  37.963  13.152  13.837
42956W        W14682   0.343  35.890  12.481
42957W        W14683  43.165  27.888  11.372
42958W        W14684  41.042  13.905  14.211
42959W        W14685  26.574  33.421  13.436
42960W        W14686  28.994  36.169   0.082
42961W        W14687   3.878  10.882  11.434
42962W        W14688  16.836   6.578  11.214
42963W        W14689   4.325  43.965  14.735
42964W        W14690  42.730  21.404   4.999
42965W        W14691  28.629   4.314  11.641
42966W        W14692   0.976   3.467  12.436
42967W        W14693   6.680  14.425  11.953
42968W        W14694  18.559   5.425   2.348
42969W        W14695  21.097   5.608  14.849
42970W        W14696  41.176  25.630   3.388
42971W        W14697  31.589  14.299   3.276
42972W        W14698   9.212  30.905   0.305
42973W        W14699  24.658  40.453   0.451
42974W        W14700  17.188  37.135  13.799
42975W        W14701  34.983  28.082   1.834
42976W        W14702   4.963  26.511   4.253
42977W        W14703  41.934  26.682   2.272
42978W        W14704  35.017   5.532  14.388
42979W        W14705   6.276  24.788   1.912
42980W        W14706   0.844  29.566  14.925
42981W        W14707  20.782  38.591  13.221
42982W        W14708  33.098  15.316   0.206
42983W        W14709   8.852  12.121   0.400
42984W        W14710   6.765  34.553   3.902
42985W        W14711  34.872  10.510  14.459
42986W        W14712   1.767   2.940   2.139
42987W        W14713  21.106  32.700  11.340
42988W        W14714  24.602  29.600  13.019
42989W        W14715  12.979  29.372  12.818
42990W        W14716  19.536   8.175  14.755
42991W        W14717  33.392  38.011   2.670
42992W        W14718  13.353  19.629  11.605
42993W        W14719  43.339   7.977  11.117
42994W        W14720  44.404   5.267   0.731
42995W        W14721  28.696   7.475  14.521
42996W        W14722  13.223   1.065   0.723
42997W        W14723  10.881  37.606  13.043
42998W        W14724  27.684  10.781  13.909
42999W        W14725  43.503  11.356  10.950
43000W        W14726  41.452  25.747   1.698
43001W        W14727  12.416  24.701  10.782
43002W        W14728  23.867   3.656  14.568
43003W        W14729   3.992  34.680   1.452
43004W        W14730  17.224   6.624  14.831
43005W        W14731  43.401   6.274  13.276
43006W        W14732  39.765  39.827   3.576
43007W        W14733  44.766  16.234   1.623
43008W        W14734  31.116   4.597  11.999
43009W        W14735  16.634   2.480   4.147
43010W        W14736   0.039   2.241   0.400
43011W        W14737   9.888  16.828  10.685
43012W        W14738   1.776   3.555   4.044
43013W        W14739   6.773  23.442  11.133
43014W        W14740  27.998   7.152  12.151
43015W        W14741  29.032   1.398  14.885
43016W        W14742  23.865  17.718  13.489
43017W        W14743  33.238   7.940  11.662
43018W        W14744   9.696  24.585   2.813
43019W        W14745  27.127  19.795   2.240
43020W        W14746  31.163  42.523   1.510
43021W        W14747  34.075  14.397   1.685
43022W        W14748   8.723  36.509   2.344
43023W        W14749   3.920  25.651   4.372
43024W        W14750   2.437  33.906  14.338
43025W        W14751  34.641  21.908   1.331
43026W        W14752  28.474  43.215  10.615
43027W        W14753  15.643  28.015   3.262
43028W        W14754  11.543  44.877   2.789
43029W        W14755  16.091   0.758  14.574
43030W        W14756  30.115  38.820   3.803
43031W        W14757  34.321  32.425  12.920
43032W        W14758  29.245  40.477   1.795
43033W        W14759  38.526  33.596   3.427
43034W        W14760  28.068  37.718   5.025
43035W        W14761  34.296  17.537  12.106
43036W        W14762  22.721  44.073   4.454
43037W        W14763  16.904  17.062  10.688
43038W        W14764  33.453  35.567  12.121
43039W        W14765  10.563  25.455   5.173
43040W        W14766  15.597   8.694   2.322
43041W        W14767  28.015  20.607   4.119
43042W        W14768  19.365  31.010   0.925
43043W        W14769   4.199   4.121  13.550
43044W        W14770  16.107  30.717   5.198
43045W        W14771  35.488  27.657   4.468
43046W        W14772  37.139  33.585   3.762
43047W        W14773  21.517   1.289   4.596
43048W        W14774  36.950  35.507  11.304
43049W        W14775  35.173  20.580  11.615
43050W        W14776  39.242  15.777  14.354
43051W        W14777  33.979  41.384   3.412
43052W        W14778  40.771  43.039  13.476
43053W        W14779  20.687   6.397   0.991
43054W        W14780  15.667   7.658  10.315
43055W        W14781  15.618  19.141   3.354
43056W        W14782  32.525  41.404  10.302
43057W        W14783  15.067  18.266  13.402
43058W        W14784  13.769  38.971   5.331
43059W        W14785  22.977  41.745   0.370
43060W        W14786  12.148  44.351   2.325
43061W        W14787  38.235   1.405   4.199
43062W        W14788  25.358  26.593  13.706
43063W        W14789   6.898  20.552  14.495
43064W        W14790   7.867  14.374   1.211
43065W        W14791  15.986  12.629  11.051
43066W        W14792  26.323  39.400  11.478
43067W        W14793   5.796  12.349  12.814
43068W        W14794  22.208  35.033  13.338
43069W        W14795  20.038  26.980  12.501
43070W        W14796  13.141   5.653  12.405
43071W        W14797  18.489   7.164  14.848
43072W        W14798   6.181  40.872  10.331
43073W        W14799  39.655  26.957   3.328
43074W        W14800  26.953  28.302   4.554
43075W        W14801  13.348  44.483   4.270
43076W        W14802   2.253  15.027   2.399
43077W        W14803  35.361  17.813   1.330
43078W        W14804  42.166  21.918  13.499
43079W        W14805  27.224  33.170   4.544
43080W        W14806  43.935  21.140   1.252
43081W        W14807  43.494   9.118   0.309
43082W        W14808  26.367  35.493  12.055
43083W        W14809  21.290  21.461  13.028
43084W        W14810  39.584   8.822   3.682
43085W        W14811  15.623   0.145   0.776
43086W        W14812  15.275   8.062   2.414
43087W        W14813  37.009  37.132   4.728
43088W        W14814   2.863  16.922   1.479
43089W        W14815  20.037  31.052   3.636
43090W        W14816  19.166  31.163   0.118
43091W        W14817  11.294  37.549   2.079
43092W        W14818   8.784  33.661  14.429
43093W        W14819  27.262  17.348   3.780
43094W        W14820  33.824  25.508  10.530
43095W        W14821  14.237  20.730  12.286
43096W        W14822  29.807  17.705  10.607
43097W        W14823  44.064   6.369   1.844
43098W        W14824  39.004  17.651  14.758
43099W        W14825  44.591   3.453  12.082
43100W        W14826  24.280  26.807  14.345
43101W        W14827  17.799   6.691  12.558
43102W        W14828  41.399  16.699   4.508
43103W        W14829  23.416  20.347  10.668
43104W        W14830  25.961  24.030   0.753
43105W        W14831  20.097  12.273   0.321
43106W        W14832  39.607  18.502   3.578
43107W        W14833  29.796  26.242   0.913
43108W        W14834  12.063   2.039  14.110
43109W        W14835  17.241   5.822  10.918
43110W        W14836  40.998   5.338  11.135
43111W        W14837  39.910  42.367  14.005
43112W        W14838  26.489  44.162   4.021
43113W        W14839  32.384  23.398   0.847
43114W        W14840  15.694  14.200  14.259
43115W        W14841  26.290  41.525   3.419
43116W        W14842  32.183   9.824  13.381
43117W        W14843  39.565  44.012   1.388
43118W        W14844  21.372  27.141   5.402
43119W        W14845  41.981  17.907  12.957
43120W        W14846  32.447  38.530   3.991
43121W        W14847  12.350   6.725   0.706
43122W        W14848  15.802  42.830   3.296
43123W        W14849  36.982  42.603  12.582
43124W        W14850  33.933  12.851   0.276
43125W        W14851   4.127   4.121   2.775
43126W        W14852  26.623  11.305   2.299
43127W        W14853   1.831   7.720   5.036
43128W        W14854  32.966   2.347   2.665
43129W        W14855  36.327  21.301   3.678
43130W        W14856  13.122   6.324   3.806
43131W        W14857  30.496  24.319  14.071
43132W        W14858  20.201  24.275   2.755
43133W        W14859  29.541   6.041  14.730
43134W        W14860  24.770   6.459  11.577
43135W        W14861  16.516  14.555  12.581
43136W        W14862  20.702   5.822  11.998
43137W        W14863  27.967   7.548  14.888
43138W        W14864   7.416  34.524   4.237
43139W        W14865  22.007  20.748  11.166
43140W        W14866  11.926  18.470   1.341
43141W        W14867  38.130  22.492   1.831
43142W        W14868  24.492  18.979   4.266
43143W        W14869  10.345  13.154   0.341
43144W        W14870  18.425  31.673   2.858
43145W        W14871   1.377  39.740  14.344
43146W        W14872  25.092  37.649  12.098
43147W        W14873  35.232  18.222   2.343
43148W        W14874  11.854   3.244   3.714
43149W        W14875   2.947  24.514  12.850
43150W        W14876  39.401  32.514  13.498
43151W        W14877   4.252   6.683   3.262
43152W        W14878  40.452  28.813  11.647
43153W        W14879   5.849  16.534   5.175
43154W        W14880   2.909   2.774  12.132
43155W        W14881  28.926   5.707  11.163
43156W        W14882  43.720  25.408  12.896
43157W        W14883  23.937  26.169   3.724
43158W        W14884   2.073  16.634  14.352
43159W        W14885  24.358  28.808   2.608
43160W        W14886  19.597  11.142   3.197
43161W        W14887  41.741  20.852   3.286
43162W        W14888  19.260   2.034   2.449
43163W        W14889  27.948  37.826  11.268
43164W        W14890  16.781   7.687  14.750
43165W        W14891  30.393   1.342   1.736
43166W        W14892   7.897  19.444   3.154
43167W        W14893  16.158  44.761  12.465
43168W        W14894  39.946  11.091   2.845
43169W        W14895  23.173  22.462  14.285
43170W        W14896   5.667  29.117   4.222
43171W        W14897   1.787  12.104  11.708
43172W        W14898  37.104  15.606  14.926
43173W        W14899   0.706  30.979   1.265
43174W        W14900   0.130   4.480  14.518
43175W        W14901  23.161   4.514   0.398
43176W        W14902  29.036  36.378  14.446
43177W        W14903  14.195   2.495  10.478
43178W        W14904  30.008  18.728  14.397
43179W        W14905   3.274  39.608   4.549
43180W        W14906  12.827  17.210  13.919
43181W        W14907   5.199   7.969   4.105
43182W        W14908   8.604  22.722   1.320
43183W        W14909  15.356  35.596  11.563
43184W        W14910  11.237  44.451  11.940
43185W        W14911   7.458  35.911   1.268
43186W        W14912  43.279  43.728   0.027
43187W        W14913  18.155   7.421  11.017
43188W        W14914  36.659  10.043  10.343
43189W        W14915  26.119  41.170   3.774
43190W        W14916  17.639  41.970  12.307
43191W        W14917  37.271  18.851  14.888
43192W        W14918   5.241  11.101  13.170
43193W        W14919   2.338  32.992   3.621
43194W        W14920  24.638   6.183  13.328
43195W        W14921  44.018  10.716  14.213
43196W        W14922  39.077  28.710  11.651
43197W        W14923  38.494  25.540  12.758
43198W        W14924  42.256  13.803   4.189
43199W        W14925  13.754  27.380  13.343
43200W        W14926   8.248   3.285   2.126
43201W        W14927  42.018  20.120  14.823
43202W        W14928  42.971  44.006   3.659
43203W        W14929  27.905  40.802  10.677
43204W        W14930  22.511  12.633   9.764
43205W        W14931  21.174  41.926  11.787
43206W        W14932  25.746  37.449   4.920
43207W        W14933  39.048  18.499   3.257
43208W        W14934  22.611  25.422   2.261
43209W        W14935  35.925  15.564  11.116
43210W        W14936   0.812  24.051   3.362
43211W        W14937  18.863  16.447   2.236
43212W        W14938  27.208   3.537  10.972
43213W        W14939  11.923  30.616  12.142
43214W        W14940  42.039  13.792   3.680
43215W        W14941  22.760   3.291  11.820
43216W        W14942  27.237  14.268  13.375
43217W        W14943  20.309  21.007  12.092
43218W        W14944   3.401  16.607  14.837
43219W        W14945   5.176  35.473   3.293
43220W        W14946  18.138  26.070   4.856
43221W        W14947   2.005  30.424  10.659
43222W        W14948  36.251  17.707   1.351
43223W        W14949   7.268  22.285   2.240
43224W        W14950   0.364  36.481  14.506
43225W        W14951  17.169  42.766   1.053
43226W        W14952   6.924  34.539   4.378
43227W        W14953  34.927   9.342   2.122
43228W        W14954   4.415  37.894   0.903
43229W        W14955  38.158   2.478   1.319
43230W        W14956  18.567  15.136  12.484
43231W        W14957  43.874  27.914  13.052
43232W        W14958  10.775  26.522   2.323
43233W        W14959  37.042  35.856  10.656
43234W        W14960   8.171   9.868   2.615
43235W        W14961  10.102  36.548  14.790
43236W        W14962  43.723  44.925   0.127
43237W        W14963  36.041  16.495  14.904
43238W        W14964  42.337  41.575  10.730
43239W        W14965   8.662   5.266  14.415
43240W        W14966  13.606  44.321   0.270
43241W        W14967  38.887  15.941   3.109
43242W        W14968   0.749  14.593   2.785
43243W        W14969  41.467   7.800   2.260
43244W        W14970  38.826  14.870  12.891
43245W        W14971  35.467  16.104   4.009
43246W        W14972   0.117   4.633   1.797
43247W        W14973   1.791  34.940   4.218
43248W        W14974  30.254   9.911  12.632
43249W        W14975  16.113  20.065   0.369
43250W        W14976  23.523  12.891   1.221
43251W        W14977   7.064  41.392   0.850
43252W        W14978  16.322  13.732  14.274
43253W        W14979  14.471  35.088  14.465
43254W        W14980  42.186  16.767   1.274
43255W        W14981  43.363  39.843   0.322
43256W        W14982  34.225   5.794   0.317
43257W        W14983  12.805  42.282  12.944
43258W        W14984  15.148  19.998  11.193
43259W        W14985  21.437  36.601   1.250
43260W        W14986  21.185  19.728   4.700
43261W        W14987   0.294  34.379  10.934
43262W        W14988  27.038  44.702   2.780
43263W        W14989  25.069  16.379  12.970
43264W        W14990  34.972  20.527   1.912
43265W        W14991  10.255  16.951   1.253
43266W        W14992  23.561  11.021   1.363
43267W        W14993  10.370  26.711  13.945
43268W        W14994  41.500  26.949   2.375
43269W        W14995  42.430  31.414   0.923
43270W        W14996  20.711  17.060   4.925
43271W        W14997  33.810  32.123  12.075
43272W        W14998  25.444  16.577   4.790
43273W        W14999  20.177  19.007   2.912
43274W        W15000  25.586  10.209   3.161
43275W        W15001  38.940  12.724   0.062
43276W        W15002  36.210  17.796  14.498
43277W        W15003  38.795  17.494   3.251
43278W        W15004  10.737  19.037   0.691
43279W        W15005  12.020  21.927  13.905
43280W        W15006  32.389   8.070  11.650
43281W        W15007   1.876  10.157  12.001
43282W        W15008  15.014  14.793   4.286
43283W        W15009  13.195  24.707  11.136
43284W        W15010  35.356  23.577  13.861
43285W        W15011   1.021  25.972   4.566
43286W        W15012  34.504   8.212  11.093
43287W        W15013  30.167  35.832  13.070
43288W        W15014  42.697  23.217   1.920
43289W        W15015   3.315  23.980   4.519
43290W        W15016   3.372  10.721   2.453
43291W        W15017  38.510   9.296   4.161
43292W        W15018   8.337   6.443   4.171
43293W        W15019  11.675  36.383   4.502
43294W        W15020   0.414  39.525   4.523
43295W        W15021  16.116  38.067  10.563
43296W        W15022  16.643  37.492  13.590
43297W        W15023  29.518  33.835  13.994
43298W        W15024   6.535  35.836   0.830
43299W        W15025  41.585  29.142  12.492
43300W        W15026  40.514  21.848  12.106
43301W        W15027  37.011  38.522   1.478
43302W        W15028  35.943   2.009  12.507
43303W        W15029   9.038   9.665   3.528
43304W        W15030   9.231  18.160  14.676
43305W        W15031   2.216  27.758   3.256
43306W        W15032   5.415  39.969   3.709
43307W        W15033   2.483  28.245   3.237
43308W        W15034  35.042  12.558   1.117
43309W        W15035   1.848  24.094   4.782
43310W        W15036  25.171  29.401  13.667
43311W        W15037  40.794  39.937  14.826
43312W        W15038  30.784   9.103   0.738
43313W        W15039  30.351  13.052  12.030
43314W        W15040  18.156   1.850   4.032
43315W        W15041  42.629   9.188   0.903
43316W        W15042  24.715  39.460  12.627
43317W        W15043  36.086  32.116  12.433
43318W        W15044   6.658  33.889  11.365
43319W        W15045   1.237  31.199   2.685
43320W        W15046  10.186  36.436  11.414
43321W        W15047  44.913  14.785   3.251
43322W        W15048  13.697  36.427  12.107
43323W        W15049  16.340   4.765  13.769
43324W        W15050  27.108   8.140  11.557
43325W        W15051  28.440  30.201  13.448
43326W        W15052  43.331   7.589  14.361
43327W        W15053   8.319  43.928   2.687
43328W        W15054  29.543  28.919   4.117
43329W        W15055  19.030  17.804  14.902
43330W        W15056  29.570  33.194   2.846
43331W        W15057  23.679  36.634   1.477
43332W        W15058   9.640  24.114   2.992
43333W        W15059  25.218   0.925   3.203
43334W        W15060  27.014  31.911   2.751
43335W        W15061   3.856  35.882   0.173
43336W        W15062   0.936  25.546  10.653
43337W        W15063  37.256   4.983  12.093
43338W        W15064  38.617   1.603  12.137
43339W        W15065  41.396  23.391   4.108
43340W        W15066  19.158  10.325  10.798
43341W        W15067  29.714  36.560   4.221
43342W        W15068   5.437  37.317   2.436
43343W        W15069  18.241  38.957  13.894
43344W        W15070  19.429  42.632   5.003
43345W        W15071  10.457  10.352   2.264
43346W        W15072   0.865  13.359   4.993
43347W        W15073  12.706   6.724  14.823
43348W        W15074  44.685  21.485  13.497
43349W        W15075  39.783  44.272   4.579
43350W        W15076   6.378  11.583   4.810
43351W        W15077   7.451  14.384  11.192
43352W        W15078  21.140  38.326   4.816
43353W        W15079  22.107  20.079   3.162
43354W        W15080  12.259  18.094  14.458
43355W        W15081  42.926   9.753  12.381
43356W        W15082  17.151  18.183   3.166
43357W        W15083  43.978  38.877  11.990
43358W        W15084  43.690  20.975   0.330
43359W        W15085   7.592  36.809   1.276
43360W        W15086  15.087   0.314   0.923
43361W        W15087  36.404  12.938   3.889
43362W        W15088  39.239  33.145   3.837
43363W        W15089   5.500  10.726  13.412
43364W        W15090  39.553   8.751  14.039
43365W        W15091   2.391  29.163  11.299
43366W        W15092  23.057   1.727  10.834
43367W        W15093   0.024  25.047   4.101
43368W        W15094   9.297  35.315   4.012
43369W        W15095   5.876  15.528   5.098
43370W        W15096  14.163  10.256   0.062
43371W        W15097  40.803  22.584   4.106
43372W        W15098  43.737  30.545   2.802
43373W        W15099  41.955  10.077   2.236
43374W        W15100   2.909  30.926  13.576
43375W        W15101  32.146   7.084   4.287
43376W        W15102  22.318  25.767   1.941
43377W        W15103  19.308  21.095   2.663
43378W        W15104  14.196   5.437  13.436
43379W        W15105   1.358  14.345   0.673
43380W        W15106   7.878  40.253  11.426
43381W        W15107  41.509  24.051  10.688
43382W        W15108   4.716  21.841   9.976
43383W        W15109  17.055  40.328  12.108
43384W        W15110  12.732  44.400   2.229
43385W        W15111  17.254   5.405   0.309
43386W        W15112  14.958  13.794  11.173
43387W        W15113   1.441  23.833  13.453
43388W        W15114  37.852  10.840   4.159
43389W        W15115  29.366  27.089   1.459
43390W        W15116   6.140   9.899   1.293
43391W        W15117   1.730  28.517   0.287
43392W        W15118  11.310   7.903  14.799
43393W        W15119  10.605  26.957  10.396
43394W        W15120  17.513  14.836   2.321
43395W        W15121  25.231  12.310   0.338
43396W        W15122   5.124   7.457  12.161
43397W        W15123  33.369   1.421   4.617
43398W        W15124   3.971  32.074  11.691
43399W        W15125  33.964   2.900   4.222
43400W        W15126  41.563  24.001  13.132
43401W        W15127  41.944  13.386  11.670
43402W        W15128  22.044  39.097  13.594
43403W        W15129  33.487  13.202   1.946
43404W        W15130   9.690  41.548  14.720
43405W        W15131  15.717  42.338   1.383
43406W        W15132  39.102  13.267  13.317
43407W        W15133  30.179  27.690  10.828
43408W        W15134  22.025  35.927   4.554
43409W        W15135  26.169  16.055   4.247
43410W        W15136   9.718  21.266   1.548
43411W        W15137  21.966  24.458  14.783
43412W        W15138  38.490  38.164   3.565
43413W        W15139  33.427  20.483  13.052
43414W        W15140   3.290  36.299   4.181
43415W        W15141   9.659  40.539   3.892
43416W        W15142  42.369  40.942  12.538
43417W        W15143  24.462   0.271  11.237
43418W        W15144   3.719  30.010  11.600
43419W        W15145  30.166  39.034   4.273
43420W        W15146   3.987  44.483  12.939
43421W        W15147   3.142  21.103  14.058
43422W        W15148  11.790  20.840   1.407
43423W        W15149   2.993  30.027   4.388
43424W        W15150   6.173  38.465   3.164
43425W        W15151  37.802   8.380  13.843
43426W        W15152  37.792  13.777  12.068
43427W        W15153  13.372   1.864   2.200
43428W        W15154   5.121  21.662   1.791
43429W        W15155  22.804  23.983  13.827
43430W        W15156  32.459  21.233   2.644
43431W        W15157  26.020   5.182   2.420
43432W        W15158  27.004  42.914  12.064
43433W        W15159  34.139  10.649  13.526
43434W        W15160  31.042  20.624   4.244
43435W        W15161   7.180  17.275   2.713
43436W        W15162   9.192  44.671   4.866
43437W        W15163   9.482  15.609   2.016
43438W        W15164  33.554  22.337   1.916
43439W        W15165  10.827  23.516  11.941
43440W        W15166  24.782  33.931   4.582
43441W        W15167   9.017   6.177  11.989
43442W        W15168   7.805  23.559  13.566
43443W        W15169  40.060  20.099   3.703
43444W        W15170  36.404  36.088   3.266
43445W        W15171  37.829  39.196   2.390
43446W        W15172  26.085   5.416   0.560
43447W        W15173   9.546  37.791  12.069
43448W        W15174  31.483  31.328   3.649
43449W        W15175  20.063  13.776   3.720
43450W        W15176  37.194  28.070  13.540
43451W        W15177  20.304  43.103   0.049
43452W        W15178  20.049  41.099  14.825
43453W        W15179  13.299  34.394  11.550
43454W        W15180   5.771  19.266   1.736
43455W        W15181   6.809   6.342  14.931
43456W        W15182  42.260  19.226  11.328
43457W        W15183  28.098   2.209  11.604
43458W        W15184  38.958  43.721  12.055
43459W        W15185  21.033  19.574   0.709
43460W        W15186  12.630  22.399  13.300
43461W        W15187  34.588   0.720   3.162
43462W        W15188  15.485  12.567  10.880
43463W        W15189  26.120   6.836   3.311
43464W        W15190  27.552  40.080  11.050
43465W        W15191  37.613   1.122   0.864
43466W        W15192  12.734  44.841  11.384
43467W        W15193  26.032   3.297  13.559
43468W        W15194  33.581  22.734   5.086
43469W        W15195  13.697   0.988   1.277
43470W        W15196  29.342   9.170   0.906
43471W        W15197  17.436  11.482  14.411
43472W        W15198  14.571   1.326   0.324
43473W        W15199  23.668  27.726  11.929
43474W        W15200  36.619  40.834   2.280
43475W        W15201   8.675  32.899   5.041
43476W        W15202  26.525  26.946  10.902
43477W        W15203  12.236   3.902  11.125
43478W        W15204  16.175   7.786  14.056
43479W        W15205  19.599  12.045  14.801
43480W        W15206  14.635  28.746  11.689
43481W        W15207  30.240  12.785  14.731
43482W        W15208  28.866  29.306   4.584
43483W        W15209  12.188  41.880  11.392
43484W        W15210  14.329   2.264   0.297
43485W        W15211   9.270  26.290   5.583
43486W        W15212  12.998  23.392  14.838
43487W        W15213  26.176  15.285   4.582
43488W        W15214   1.317  19.185  12.903
43489W        W15215  44.820  31.631   2.634
43490W        W15216   0.679  13.661   0.092
43491W        W15217  26.522  30.605  12.020
43492W        W15218   1.019  16.494  12.444
43493W        W15219  23.205  42.293  10.845
43494W        W15220  40.822  10.524   2.789
43495W        W15221  36.044   4.689  14.072
43496W        W15222  14.792  20.331   0.760
43497W        W15223   6.126  35.836  11.597
43498W        W15224  40.458  10.189  14.073
43499W        W15225  21.054   0.927  12.996
43500W        W15226  21.764  36.171  12.976
43501W        W15227  38.913  37.378  14.056
43502W        W15228   4.207  13.601   2.369
43503W        W15229  40.658  26.902   3.390
43504W        W15230  29.892  17.081   3.292
43505W        W15231   0.844  36.817  13.487
43506W        W15232  16.865  34.577  13.908
43507W        W15233  10.131  16.746  11.898
43508W        W15234  19.639  25.671   4.158
43509W        W15235   0.804  10.716   0.716
43510W        W15236  38.850   5.911  12.073
43511W        W15237  11.228  24.675   5.434
43512W        W15238  25.069  34.732   1.302
43513W        W15239  28.601  20.281  14.269
43514W        W15240  23.532  11.367  11.514
43515W        W15241   6.696  18.197  11.496
43516W        W15242  34.563   5.266   4.228
43517W        W15243   2.787  41.254  12.541
43518W        W15244  14.177  17.760   4.676
43519W        W15245   6.584  26.704  11.045
43520W        W15246  28.155  21.505   0.333
43521W        W15247   1.059   8.188   2.733
43522W        W15248  27.919  27.543   0.326
43523W        W15249  25.915  20.906   0.395
43524W        W15250  13.193  36.905   3.957
43525W        W15251  25.596  16.114   1.222
43526W        W15252  20.606  34.159   1.329
43527W        W15253  38.344  34.069   3.317
43528W        W15254  27.144  44.197   2.708
43529W        W15255  43.775   1.994   1.140
43530W        W15256  39.837  42.865   3.740
43531W        W15257  25.276  43.534  10.292
43532W        W15258   3.660  18.025   2.132
43533W        W15259  44.033  10.168  13.006
43534W        W15260  40.576  40.032   2.309
43535W        W15261   4.903  21.060   5.159
43536W        W15262   2.799   7.478  14.848
43537W        W15263  10.447   4.847   0.658
43538W        W15264  34.922  27.110   0.360
43539W        W15265  34.800   7.746   3.991
43540W        W15266   7.558   9.603   2.214
43541W        W15267   9.878   9.667   3.274
43542W        W15268  43.330   1.149   0.818
43543W        W15269  20.643  41.457   1.530
43544W        W15270   4.059   6.135  11.537
43545W        W15271  33.014  21.561   4.628
43546W        W15272  12.706  26.155   2.675
43547W        W15273  26.002  44.974   4.329
43548W        W15274  32.869  25.597   0.530
43549W        W15275  11.905   8.283   1.974
43550W        W15276   4.571  33.939  11.589
43551W        W15277   6.318  43.638  11.565
43552W        W15278  32.315   9.371   2.848
43553W        W15279  43.011  24.935  12.944
43554W        W15280  12.348  28.564  11.894
43555W        W15281  40.278   7.436   2.864
43556W        W15282  26.096  12.264   0.889
43557W        W15283  22.441   3.618  13.994
43558W        W15284  14.612   6.749  12.444
43559W        W15285  16.238  10.590  11.387
43560W        W15286  37.184  41.356  14.762
43561W        W15287  42.783  19.020   1.451
43562W        W15288  15.365  25.364   3.125
43563W        W15289  28.440   3.021   0.394
43564W        W15290  23.301  19.455   1.384
43565W        W15291   6.384  26.740  12.426
43566W        W15292   2.760  38.073   0.644
43567W        W15293   5.933  11.302   4.877
43568W        W15294  19.235  38.600  12.360
43569W        W15295  23.625  12.292  11.598
43570W        W15296  15.357  10.799   0.463
43571W        W15297   1.334  16.240   3.402
43572W        W15298   1.352   4.294   2.753
43573W        W15299  40.028  39.472  14.335
43574W        W15300  29.417  33.023  10.697
43575W        W15301  19.755  37.216  12.171
43576W        W15302  27.511  20.375  14.833
43577W        W15303  24.575   1.673   2.197
43578W        W15304  28.126  17.997   0.338
43579W        W15305  18.718  28.515   4.433
43580W        W15306   2.237   5.498   3.667
43581W        W15307  19.772  16.272   4.344
43582W        W15308  38.130  35.316  13.537
43583W        W15309  43.942  14.743   3.169
43584W        W15310   0.545  11.935   4.515
43585W        W15311  36.612   0.211   4.662
43586W        W15312  24.019   4.328   0.967
43587W        W15313  13.972  25.709  13.386
43588W        W15314   8.986   2.267  12.684
43589W        W15315  13.868  34.922  10.753
43590W        W15316  16.378  43.346   3.743
43591W        W15317  17.276  19.292   0.241
43592W        W15318  32.339  10.817  14.658
43593W        W15319  18.031   3.837   0.693
43594W        W15320   6.693  22.502  13.344
43595W        W15321  16.874  12.674  13.880
43596W        W15322  10.570  39.272   4.902
43597W        W15323  38.117  11.777   3.585
43598W        W15324  23.762  29.000  12.200
43599W        W15325  31.187  17.182  14.236
43600W        W15326  16.846  13.124   2.283
43601W        W15327  21.546  37.938  12.867
43602W        W15328  26.371  19.133  13.552
43603W        W15329  37.800  43.885  13.325
43604W        W15330  30.161  12.876  12.483
43605W        W15331  14.251  40.052   0.228
43606W        W15332  26.285  43.468   0.436
43607W        W15333   9.738  13.584   1.915
43608W        W15334  41.967  38.287   2.341
43609W        W15335   1.802  31.121   0.302
43610W        W15336  28.074  29.160  12.427
43611W        W15337  37.031  18.151   4.292
43612W        W15338  42.171  24.663  13.024
43613W        W15339  40.208  41.779   2.842
43614W        W15340  21.547  41.950  13.204
43615W        W15341  29.123  19.006  14.455
43616W        W15342   3.186  35.486  14.413
43617W        W15343  22.170  28.460  14.263
43618W        W15344  24.563  27.914   3.250
43619W        W15345  39.920  27.135   0.996
43620W        W15346  17.316  35.459   1.699
43621W        W15347  34.748  39.935  11.526
43622W        W15348   2.547  28.009  14.851
43623W        W15349  43.357   7.085  14.437
43624W        W15350  37.552  21.773   3.855
43625W        W15351   3.193   0.270   4.680
43626W        W15352  37.391  41.153   4.652
43627W        W15353  12.075  11.317   3.867
43628W        W15354  38.995  37.480  11.162
43629W        W15355  13.287  32.620  11.917
43630W        W15356  19.167  34.977  12.121
43631W        W15357  11.416   6.719   1.435
43632W        W15358  22.621  42.108  12.441
43633W        W15359  26.901   7.232   4.640
43634W        W15360   7.290  27.541  13.541
43635W        W15361  20.036  41.201   0.313
43636W        W15362   2.798  44.676  10.706
43637W        W15363  23.526  30.847   4.925
43638W        W15364  43.516   7.723   1.135
43639W        W15365  35.942  28.561   0.334
43640W        W15366  37.973   0.005  12.588
43641W        W15367  37.562  14.049  10.716
43642W        W15368  17.767  32.272   2.783
43643W        W15369  23.271  44.963  12.984
43644W        W15370   2.791  30.044  11.221
43645W        W15371  24.918   2.688   0.718
43646W        W15372  13.311   7.104   1.945
43647W        W15373  23.999  29.647  11.656
43648W        W15374   8.156  21.628  13.328
43649W        W15375  21.669  44.037   2.147
43650W        W15376  17.391  10.404  10.295
43651W        W15377   7.841  24.175  10.244
43652W        W15378  30.522  14.502   3.521
43653W        W15379   0.720  27.334   3.758
43654W        W15380  44.921  10.349   1.517
43655W        W15381  42.238   0.923  10.714
43656W        W15382  19.486  25.650  10.606
43657W        W15383  40.515  38.012  12.007
43658W        W15384   7.648  23.494   3.226
43659W        W15385  25.115  16.287   2.866
43660W        W15386  30.669  22.539  14.402
43661W        W15387   6.976  44.988  10.953
43662W        W15388   6.494  20.167  14.417
43663W        W15389   5.181   9.913  12.248
43664W        W15390  10.199  33.958   0.365
43665W        W15391   3.557  18.112   2.621
43666W        W15392   5.334  31.907   1.449
43667W        W15393   9.955   9.768  13.015
43668W        W15394  42.963   7.368  10.680
43669W        W15395  20.634  27.219   3.335
43670W        W15396   8.748   2.073   0.751
43671W        W15397  34.632   0.978   1.730
43672W        W15398   3.459  34.157  13.034
43673W        W15399  30.880  30.549  13.639
43674W        W15400  22.637   8.587  12.860
43675W        W15401   3.455  15.644   4.540
43676W        W15402  43.336   3.985  12.841
43677W        W15403  20.159  10.163  11.593
43678W        W15404  40.568  17.637   2.009
43679W        W15405  29.989  28.705   0.555
43680W        W15406  38.772  42.468   3.239
43681W        W15407   3.919   1.197   3.645
43682W        W15408  34.341   0.176   1.318
43683W        W15409  18.715  13.714   0.370
43684W        W15410  15.181  12.766   0.284
43685W        W15411   7.710  38.000  14.742
43686W        W15412  21.312  40.423   4.603
43687W        W15413  40.263  40.239  10.340
43688W        W15414  18.588  29.175   1.284
43689W        W15415  20.053  29.045  10.599
43690W        W15416  10.427  15.730  13.015
43691W        W15417  36.147  22.186   4.292
43692W        W15418  37.549  24.160   3.182
43693W        W15419  31.891  38.399  13.220
43694W        W15420   0.993   6.171   1.117
43695W        W15421  25.241   1.029  11.526
43696W        W15422  13.475   6.855   4.681
43697W        W15423  43.239  35.022   2.552
43698W        W15424  32.666   4.631   0.397
43699W        W15425  32.109   4.719   3.580
43700W        W15426  10.275  33.975  13.666
43701W        W15427  20.247   0.377   1.529
43702W        W15428  18.002  18.277  13.924
43703W        W15429  17.592  12.808  11.977
43704W        W15430   6.715  33.271   3.799
43705W        W15431  42.684  19.587  10.263
43706W        W15432   9.314  15.822  14.357
43707W        W15433  40.698   0.971  12.925
43708W        W15434  17.826  17.774  13.961
43709W        W15435   6.673  41.646  14.983
43710W        W15436  38.409  15.719   3.188
43711W        W15437  36.486   9.676   4.625
43712W        W15438  35.810  41.427  13.546
43713W        W15439  31.074   0.272   9.856
43714W        W15440  29.209   3.178   4.872
43715W        W15441   0.551  18.978   0.160
43716W        W15442  41.604   9.072  11.659
43717W        W15443   8.271  20.644   4.138
43718W        W15444   0.777  36.021  13.894
43719W        W15445   6.399   5.143  14.572
43720W        W15446  19.784   3.216   0.111
43721W        W15447  38.384  36.642   0.235
43722W        W15448  19.661  35.897  14.895
43723W        W15449   0.717  18.676   2.723
43724W        W15450   2.165  37.986   3.273
43725W        W15451   8.254  35.389   2.234
43726W        W15452  11.831  19.512  11.582
43727W        W15453   2.195  30.955  10.551
43728W        W15454   0.399  42.961  11.601
43729W        W15455  40.451  43.504  14.243
43730W        W15456  34.903  14.131   1.193
43731W        W15457   9.984  13.783  13.059
43732W        W15458  21.023  36.869   1.865
43733W        W15459  40.043  18.908  13.443
43734W        W15460  41.936  10.389  14.020
43735W        W15461  31.903   2.399  13.924
43736W        W15462  24.748  23.273   2.801
43737W        W15463  35.435  25.292  13.918
43738W        W15464  10.455  23.155  13.328
43739W        W15465  44.560  11.869  13.396
43740W        W15466  32.287   9.913  10.633
43741W        W15467  14.227  44.787   1.917
43742W        W15468  23.767  33.914   1.426
43743W        W15469  13.536  13.756   4.149
43744W        W15470  21.560  29.863  13.517
43745W        W15471  40.639  42.494   3.135
43746W        W15472  32.525  32.933  11.901
43747W        W15473  27.411   3.660  13.924
43748W        W15474  27.292   8.673  14.645
43749W        W15475  31.003   9.929   3.814
43750W        W15476  36.823   3.516   1.393
43751W        W15477  26.291  33.182   0.360
43752W        W15478  22.012  15.872   3.832
43753W        W15479  29.502  38.062  14.529
43754W        W15480  19.281  33.826  12.813
43755W        W15481  25.197   8.606   5.129
43756W        W15482  41.788  28.561  11.562
43757W        W15483  11.623  26.042  13.493
43758W        W15484   0.886   4.846   0.519
43759W        W15485   0.968  33.989  11.035
43760W        W15486   0.557   5.228  12.020
43761W        W15487   5.198   1.751   2.141
43762W        W15488   7.607  13.168   2.160
43763W        W15489  31.574  15.709  12.569
43764W        W15490  10.138  39.982  12.872
43765W        W15491  25.192  14.634  11.542
43766W        W15492  15.129  33.122   1.604
43767W        W15493  39.521  11.920  13.616
43768W        W15494  33.581  17.750  13.714
43769W        W15495  13.320  10.683   2.304
43770W        W15496   9.633  39.972   2.576
43771W        W15497  42.896   6.352   0.152
43772W        W15498  39.935  30.525   1.390
43773W        W15499  19.672   2.369  12.509
43774W        W15500  28.999  30.582  11.669
43775W        W15501  17.547  18.332   0.304
43776W        W15502  29.232  19.918   0.783
43777W        W15503  11.627  26.027  14.459
43778W        W15504   9.050  37.378  11.475
43779W        W15505  15.947  25.931   1.273
43780W        W15506  33.842  19.813   0.552
43781W        W15507   0.417  17.707   2.688
43782W        W15508   8.330  36.542  12.215
43783W        W15509  12.324  42.819  13.437
43784W        W15510  30.740  33.044   3.301
43785W        W15511  18.695   4.686   0.991
43786W        W15512  20.160  38.565   0.801
43787W        W15513  32.363  25.929   2.613
43788W        W15514  22.486  27.478  11.527
43789W        W15515  26.013   0.868  13.152
43790W        W15516  22.715  21.076   3.371
43791W        W15517   5.850  40.255   0.295
43792W        W15518  34.646  41.281  14.582
43793W        W15519   6.425  41.018  11.878
43794W        W15520  31.865  30.802   1.651
43795W        W15521  36.403  18.674  14.917
43796W        W15522  39.929  34.868   1.843
43797W        W15523  42.018   7.413   2.758
43798W        W15524  26.677  12.845  13.443
43799W        W15525  12.870  39.998  11.730
43800W        W15526  35.853   9.144   3.310
43801W        W15527  31.837  34.103  11.590
43802W        W15528   4.970   1.910   3.169
43803W        W15529  18.960  18.781  11.991
43804W        W15530  43.513  12.132   1.410
43805W        W15531  42.187   7.271   1.413
43806W        W15532  28.481  37.507  13.762
43807W        W15533  32.464  14.168   0.704
43808W        W15534  22.167   7.878   2.409
43809W        W15535  22.287  25.200  10.697
43810W        W15536   7.258  16.149  13.528
43811W        W15537  37.975  11.925  13.156
43812W        W15538  36.535  38.086   0.929
43813W        W15539  17.019  21.128   4.451
43814W        W15540  24.947  36.475  10.937
43815W        W15541  43.969   5.714  12.391
43816W        W15542  42.265   3.054  11.588
43817W        W15543  41.047  26.109   4.564
43818W        W15544  18.612  11.620  10.799
43819W        W15545   4.328   7.909  12.754
43820W        W15546  33.894  13.670  14.796
43821W        W15547  36.649   0.324  13.514
43822W        W15548  35.279  44.981  12.999
43823W        W15549  33.614  37.091   3.870
43824W        W15550  24.310  11.487   0.705
43825W        W15551  41.488  40.010  10.907
43826W        W15552   8.655   3.218  14.958
43827W        W15553  16.532   9.803   2.293
43828W        W15554  28.011  25.483   1.943
43829W        W15555  37.809  15.637   2.356
43830W        W15556  22.871  25.047   4.696
43831W        W15557  12.175  14.849  13.743
43832W        W15558  37.238  34.505  14.951
43833W        W15559  37.965  38.200   1.268
43834W        W15560  37.586   8.261  12.863
43835W        W15561  27.604  21.061   2.847
43836W        W15562  32.046   0.012   3.224
43837W        W15563  10.714  27.195  12.507
43838W        W15564  44.304   7.450   0.326
43839W        W15565  29.029  27.052   3.811
43840W        W15566  13.819  43.232  13.038
43841W        W15567  29.341   7.838  11.536
43842W        W15568   7.176   6.217   1.722
43843W        W15569  39.916  12.698   1.908
43844W        W15570  35.861   0.985   4.044
43845W        W15571  27.919  21.648   4.144
43846W        W15572  27.018  30.196  13.255
43847W        W15573  25.360  39.854   1.438
43848W        W15574  33.636  16.206  13.829
43849W        W15575  38.755   5.387   3.572
43850W        W15576  19.377  19.598   1.330
43851W        W15577   6.468  24.464  10.252
43852W        W15578  19.443  23.639  13.755
43853W        W15579   8.562  27.094  12.148
43854W        W15580  19.128  15.830  13.184
43855W        W15581  27.080  35.398   3.746
43856W        W15582  31.607  14.839  10.639
43857W        W15583  16.422  38.130   0.323
43858W        W15584  17.665   7.250   1.447
43859W        W15585  20.091   5.862   3.704
43860W        W15586  16.682  35.332   3.741
43861W        W15587  20.046  40.352   3.281
43862W        W15588   0.234  22.134   2.285
43863W        W15589  22.233  31.613  14.041
43864W        W15590  25.343  31.713   2.479
43865W        W15591  23.192  11.410   5.314
43866W        W15592  33.281   6.909   4.318
43867W        W15593  19.040  24.899  13.257
43868W        W15594   0.788  44.793  11.703
43869W        W15595  36.832  37.404   3.785
43870W        W15596  18.940  24.530  11.780
43871W        W15597  39.033  15.139   4.005
43872W        W15598   4.669  28.547   1.186
43873W        W15599   4.152   9.284  12.467
43874W        W15600  30.269  12.683  13.369
43875W        W15601  44.411   7.404  12.453
43876W        W15602  40.708  33.022  13.812
43877W        W15603  44.685   5.951  12.863
43878W        W15604  11.258  44.984  13.324
43879W        W15605  12.070  21.637   0.370
43880W        W15606  22.586   3.922  14.388
43881W        W15607  25.993  25.779  14.677
43882W        W15608   8.947  14.223  11.084
43883W        W15609  19.653   3.190   4.179
43884W        W15610  43.856  33.514  14.290
43885W        W15611   7.155  41.442   2.209
43886W        W15612   8.780  10.745  13.520
43887W        W15613   4.788  12.416  14.414
43888W        W15614  37.015   2.644   4.699
43889W        W15615  39.628  21.570  12.112
43890W        W15616  23.150   1.052   1.676
43891W        W15617  18.049  18.087  11.467
43892W        W15618  10.822  27.978   3.922
43893W        W15619  26.798  18.546   0.358
43894W        W15620   4.134   5.883   4.520
43895W        W15621  35.912  39.317  12.018
43896W        W15622  25.988  43.754   0.764
43897W        W15623  13.453  38.895  10.044
43898W        W15624   5.702  33.198   4.536
43899W        W15625  20.050  41.716  13.466
43900W        W15626  13.257   8.119   4.184
43901W        W15627  13.207  40.589   2.297
43902W        W15628  40.048  10.274  11.510
43903W        W15629  17.366  10.858  13.467
43904W        W15630  24.198  36.358   0.823
43905W        W15631  26.222   6.026  13.312
43906W        W15632   1.492  33.348   0.541
43907W        W15633  25.553  23.554  12.940
43908W        W15634   6.847  39.039  12.508
43909W        W15635  44.855  13.367  13.782
43910W        W15636  11.896  36.546  13.027
43911W        W15637  18.308  30.145   0.713
43912W        W15638  41.262  11.305  12.115
43913W        W15639  22.123  34.919   0.148
43914W        W15640   3.158  36.458   0.228
43915W        W15641  16.751   8.367  13.466
43916W        W15642  15.321  15.026   2.330
43917W        W15643  31.134  27.223   3.144
43918W        W15644  31.401  31.026   1.780
43919W        W15645  32.974  14.079   4.739
43920W        W15646  24.584  43.039   2.222
43921W        W15647   2.276   0.358   3.786
43922W        W15648   9.994  19.724  13.837
43923W        W15649  26.155  25.007   0.930
43924W        W15650  23.502  38.117   2.377
43925W        W15651   2.128  36.591  11.202
43926W        W15652  28.155  42.803  10.730
43927W        W15653  31.860   6.653   4.438
43928W        W15654  14.302  20.221   0.710
43929W        W15655   6.187   6.602   1.342
43930W        W15656  35.571  32.815   2.819
43931W        W15657  41.303  26.185   1.948
43932W        W15658   5.356   9.894   0.331
43933W        W15659  37.161  31.787  13.995
43934W        W15660  22.046  15.995   0.406
43935W        W15661  41.504  31.301   0.755
43936W        W15662  24.171   5.939  13.418
43937W        W15663   1.035  38.804  12.508
43938W        W15664   9.025  32.863   3.607
43939W        W15665  38.524  36.442  11.100
43940W        W15666  26.933  11.801   3.366
43941W        W15667  38.320  16.393   3.732
43942W        W15668  11.769  25.785   1.039
43943W        W15669  19.789  17.667  13.955
43944W        W15670  18.664  18.622  14.802
43945W        W15671  14.253  18.232   1.650
43946W        W15672  29.478  11.323  12.623
43947W        W15673  32.444  39.260  12.060
43948W        W15674  29.721  40.542  11.818
43949W        W15675   4.962   4.753   3.272
43950W        W15676  22.967  26.900   4.678
43951W        W15677  19.979  12.697  12.918
43952W        W15678   4.186  16.102   3.939
43953W        W15679  17.495  26.182  13.831
43954W        W15680  31.610  11.593  12.018
43955W        W15681  21.700  12.384   4.142
43956W        W15682  23.155  12.641   1.854
43957W        W15683  20.874  28.941   2.988
43958W        W15684  39.579  22.925   4.135
43959W        W15685  33.722  28.258  13.896
43960W        W15686   8.276  44.063  11.551
43961W        W15687   2.156  34.289   0.269
43962W        W15688  30.543  17.267  11.681
43963W        W15689  36.597   2.389   3.541
43964W        W15690   1.048   0.889   0.835
43965W        W15691   1.789  33.903   1.293
43966W        W15692  37.392  28.475   3.825
43967W        W15693  26.973   7.873   0.529
43968W        W15694  25.605   1.296   5.440
43969W        W15695  24.182  28.193   3.484
43970W        W15696  35.555  30.380   2.329
43971W        W15697  34.901   2.658   1.259
43972W        W15698   8.786  34.062   2.340
43973W        W15699  20.740   8.195   2.643
43974W        W15700  24.875  19.864  13.344
43975W        W15701   5.356  38.522  10.650
43976W        W15702  29.079  15.760  14.268
43977W        W15703  25.563  23.454   1.488
43978W        W15704   7.538  23.056  14.336
43979W        W15705  19.742  11.641   3.169
43980W        W15706   2.766  13.296  10.782
43981W        W15707  25.723   3.865   0.449
43982W        W15708  18.074   2.881   1.825
43983W        W15709  26.599  19.584   1.263
43984W        W15710  16.445  31.400   3.142
43985W        W15711  23.790  17.101  11.059
43986W        W15712  24.152  12.861   5.097
43987W        W15713  31.234  33.045  13.855
43988W        W15714  26.182  44.453   0.111
43989W        W15715   2.284  34.325  10.659
43990W        W15716   0.995  41.995   0.917
43991W        W15717  29.374  41.985  12.713
43992W        W15718  10.464  11.238  14.351
43993W        W15719  20.540  30.317  12.848
43994W        W15720  28.128  32.091   3.173
43995W        W15721  34.948  22.605  14.623
43996W        W15722  29.800  44.451  14.511
43997W        W15723  32.596  16.788   0.423
43998W        W15724   0.168  43.117  11.186
43999W        W15725  38.453   1.098   2.284
44000W        W15726  20.209  35.434  11.996
44001W        W15727   6.382   3.789  10.332
44002W        W15728  38.684  36.696   4.711
44003W        W15729  28.920  18.618  14.186
44004W        W15730   0.941  17.691   2.577
44005W        W15731   0.328  34.533   0.369
44006W        W15732  41.903  11.291  13.442
44007W        W15733  24.263   6.848   2.898
44008W        W15734   3.317  39.152   3.606
44009W        W15735  14.586  20.200  13.904
44010W        W15736  30.458   3.094  14.446
44011W        W15737  29.990   9.903   0.004
44012W        W15738  27.654  37.990  14.508
44013W        W15739  36.739   3.625  13.591
44014W        W15740  26.065  25.688   4.699
44015W        W15741   1.220  44.045   0.316
44016W        W15742  26.932  36.254  11.031
44017W        W15743   5.231   0.164   0.331
44018W        W15744  29.066   9.643   4.169
44019W        W15745  15.850  42.259   3.619
44020W        W15746   3.277   9.177  14.822
44021W        W15747   7.411  31.840   0.015
44022W        W15748  44.729  23.253   0.940
44023W        W15749  41.768  35.951  12.992
44024W        W15750  31.610   5.444   1.612
44025W        W15751  14.794   4.072  14.317
44026W        W15752  15.327  26.418  13.372
44027W        W15753  12.660  24.412  11.142
44028W        W15754  12.173   5.548  13.283
44029W        W15755  25.418  31.580   4.346
44030W        W15756  44.413  26.852   0.347
44031W        W15757  35.564  35.521   2.092
44032W        W15758  27.587  11.065   2.398
44033W        W15759  41.904  14.840  13.140
44034W        W15760  29.329  13.366   4.656
44035W        W15761  10.126  25.990  10.370
44036W        W15762  10.127   9.999  10.412
44037W        W15763  34.915  32.283  12.074
44038W        W15764  34.734  30.457  14.065
44039W        W15765  25.527  21.695   4.393
44040W        W15766  38.744   5.777  11.582
44041W        W15767  44.998  16.686   3.742
44042W        W15768  11.178  31.337   4.623
44043W        W15769  27.906  44.771  11.584
44044W        W15770  12.285  32.078   2.332
44045W        W15771   9.457  38.917  10.150
44046W        W15772  31.533  35.898  12.116
44047W        W15773   6.536  18.304   2.844
44048W        W15774  25.645   6.744  11.160
44049W        W15775  21.081  44.473  14.986
44050W        W15776   3.672  25.341  11.585
44051W        W15777  39.012  22.199  14.139
44052W        W15778  33.530  12.350  14.665
44053W        W15779  38.370  27.235  10.621
44054W        W15780  28.956  15.801  11.630
44055W        W15781  40.524   7.804   0.512
44056W        W15782  39.584  29.512  10.747
44057W        W15783  41.227  43.860   2.437
44058W        W15784  43.296  25.246  12.624
44059W        W15785  22.561   5.443  14.520
44060W        W15786  16.352   9.755   2.850
44061W        W15787   7.650  27.515   3.223
44062W        W15788  33.095  14.732   0.901
44063W        W15789  18.596  26.956   4.568
44064W        W15790  18.887  11.044   3.695
44065W        W15791  21.153  39.654   1.638
44066W        W15792  40.299  35.658   4.043
44067W        W15793   4.879   1.740  14.226
44068W        W15794  16.034  12.474  10.215
44069W        W15795   0.962   7.182  12.466
44070W        W15796  22.377  34.373  12.436
44071W        W15797   4.840  33.135  10.620
44072W        W15798   1.933  37.443  12.334
44073W        W15799  27.377  16.234  13.932
44074W        W15800  15.843  40.366  14.868
44075W        W15801  13.264  37.718   4.223
44076W        W15802  40.431  32.083  12.552
44077W        W15803  29.069  43.374  12.457
44078W        W15804  19.239  37.979  10.603
44079W        W15805  35.828  42.451  10.685
44080W        W15806  11.134  23.698   4.999
44081W        W15807   5.149  37.882   3.689
44082W        W15808  11.382  29.452   1.400
44083W        W15809  31.438   6.356   1.721
44084W        W15810  21.966  44.220   3.126
44085W        W15811  27.306  15.310  14.385
44086W        W15812   3.209  25.441  12.865
44087W        W15813   1.523  43.252  11.924
44088W        W15814  15.569   0.162  14.876
44089W        W15815  26.286  10.857   4.493
44090W        W15816   8.675  36.038  14.874
44091W        W15817  32.350  25.443  10.654
44092W        W15818  24.076  12.402  12.338
44093W        W15819   8.154  14.546  10.599
44094W        W15820   6.671   2.295   2.142
44095W        W15821  15.163  13.784   3.219
44096W        W15822  31.596  10.285   0.995
44097W        W15823  22.668  40.822   5.082
44098W        W15824  34.594  17.949   3.778
44099W        W15825  14.807  14.653   2.958
44100W        W15826  38.460  39.250  12.035
44101W        W15827  36.910   8.419   0.457
44102W        W15828  34.496  37.136  11.948
44103W        W15829  13.031   1.721   3.496
44104W        W15830  26.235   7.837   2.383
44105W        W15831  12.237  32.436  13.959
44106W        W15832   6.812  18.751   0.457
44107W        W15833  31.516  11.142   2.767
44108W        W15834  23.190  10.105   0.933
44109W        W15835   3.309   1.966  10.165
44110W        W15836  17.592  10.246   4.195
44111W        W15837  16.614  38.618   0.417
44112W        W15838  38.049  40.247  10.870
44113W        W15839  31.383  32.547   4.173
44114W        W15840  26.721  39.425  10.544
44115W        W15841  41.579  24.387   4.203
44116W        W15842   1.718  29.681   4.333
44117W        W15843   3.949  36.368   0.303
44118W        W15844   7.412  38.783  10.630
44119W        W15845   9.807  35.587   0.103
44120W        W15846  24.873  12.735   9.667
44121W        W15847  13.643   5.598  11.579
44122W        W15848  37.535  25.964  13.551
44123W        W15849   7.951  15.308   2.398
44124W        W15850  24.259   1.759  11.070
44125W        W15851  28.869  16.141   2.485
44126W        W15852   4.150   9.243   2.943
44127W        W15853  43.775  12.283  10.789
44128W        W15854   9.355  30.494  11.598
44129W        W15855  29.977  35.606   2.852
44130W        W15856   3.533  13.935   9.672
44131W        W15857  22.345  28.014   4.469
44132W        W15858   8.383  29.703   2.253
44133W        W15859  38.407  33.183  14.885
44134W        W15860  27.634  30.736  14.841
44135W        W15861  32.575  11.246   3.244
44136W        W15862  11.209   3.850  11.073
44137W        W15863  35.287  15.109   2.484
44138W        W15864  31.780  19.967   1.826
44139W        W15865   3.897  14.897   4.045
44140W        W15866  11.874  36.819   4.736
44141W        W15867   5.027  31.384  12.017
44142W        W15868  19.066  13.608  10.645
44143W        W15869  27.382  17.274  10.715
44144W        W15870  33.868  34.856  13.425
44145W        W15871  16.160  29.384  13.053
44146W        W15872   9.304  10.713   3.969
44147W        W15873  31.107  27.553   0.434
44148W        W15874   5.606  30.420   1.280
44149W        W15875  18.479   2.348  13.942
44150W        W15876  14.736  17.059   3.359
44151W        W15877  39.802   3.451  14.540
44152W        W15878  44.195  10.175   4.664
44153W        W15879  22.042  34.591   3.711
44154W        W15880  35.799  39.031   1.193
44155W        W15881  38.315  12.118  13.555
44156W        W15882  25.427   5.762  13.514
44157W        W15883   8.991   2.783   0.276
44158W        W15884   2.512  12.764   1.840
44159W        W15885  10.095   8.272   0.737
44160W        W15886  18.034  30.634  14.043
44161W        W15887  33.572   6.142   0.366
44162W        W15888  44.114  25.917  14.223
44163W        W15889   2.292  30.715  11.916
44164W        W15890  36.091   8.712  14.896
44165W        W15891  14.186  26.447  11.518
44166W        W15892  39.028  16.574  13.944
44167W        W15893  36.368  25.073   5.195
44168W        W15894   3.172  22.016  14.160
44169W        W15895  43.907   2.196  10.715
44170W        W15896   6.299  21.953  12.113
44171W        W15897  40.252  21.594  11.209
44172W        W15898   3.964  40.878   0.208
44173W        W15899  31.802   3.248   9.838
44174W        W15900  23.171  23.863   4.670
44175W        W15901  44.862   0.163  11.976
44176W        W15902  40.288  20.793   3.353
44177W        W15903   9.172  10.932   0.784
44178W        W15904  31.633  24.662  14.229
44179W        W15905   0.362  44.837   2.404
44180W        W15906  37.645  25.658   3.889
44181W        W15907  26.217  17.642   4.244
44182W        W15908  22.880   4.154   1.804
44183W        W15909  30.667  32.164  13.052
44184W        W15910   2.222  35.474  14.370
44185W        W15911  30.896  41.413   2.851
44186W        W15912  36.580  15.212   2.783
44187W        W15913   9.967  22.850   9.785
44188W        W15914  10.953   4.362  12.060
44189W        W15915  31.228  13.364   2.307
44190W        W15916   2.508  24.818   2.865
44191W        W15917  25.913  25.067   3.217
44192W        W15918  15.528  38.379  14.083
44193W        W15919  37.456  14.391   4.160
44194W        W15920  36.535  18.229  13.362
44195W        W15921  13.120  38.499   0.852
44196W        W15922  30.607   1.262  10.782
44197W        W15923  19.504   3.824   3.730
44198W        W15924  43.332  43.257   0.196
44199W        W15925  15.285  36.787  11.144
44200W        W15926  32.823   1.273   2.894
44201W        W15927  24.988  26.212   0.492
44202W        W15928  35.502  13.007  11.629
44203W        W15929   0.879  25.785  13.428
44204W        W15930  34.062  16.268  11.934
44205W        W15931  42.510   7.131  10.734
44206W        W15932  23.469   1.811   3.140
44207W        W15933  25.179  24.735   4.552
44208W        W15934  11.056  31.942  13.529
44209W        W15935  31.094  39.966   2.770
44210W        W15936  33.402  38.071  14.442
44211W        W15937  44.456  26.214   2.823
44212W        W15938  26.530  23.113  11.965
44213W        W15939   8.747   6.253  11.539
44214W        W15940  22.181  21.750  12.629
44215W        W15941  16.865  23.719  11.024
44216W        W15942   9.298   5.176  12.126
44217W        W15943  14.580  35.407   0.773
44218W        W15944  11.719  28.054   1.661
44219W        W15945   5.322  28.738   4.134
44220W        W15946  12.120  10.253   3.030
44221W        W15947  16.695  37.549   2.890
44222W        W15948  21.499   4.823   0.776
44223W        W15949  39.427   4.699  12.044
44224W        W15950  32.810  21.754  12.076
44225W        W15951  24.440  28.441  12.081
44226W        W15952   8.046  36.933   9.970
44227W        W15953  31.368  41.498  12.059
44228W        W15954   8.539  31.041   3.142
44229W        W15955   3.382   1.255   3.703
44230W        W15956  22.558  25.961  11.872
44231W        W15957  42.005  42.304  12.799
44232W        W15958  15.222  33.531  14.883
44233W        W15959  25.993  34.134  11.944
44234W        W15960  38.932  11.705   3.308
44235W        W15961  36.338  26.079  11.392
44236W        W15962  17.326   3.034   2.582
44237W        W15963   3.554  12.835  14.850
44238W        W15964  27.006  40.491   4.390
44239W        W15965  41.218  35.149  14.435
44240W        W15966  26.358  19.289   3.631
44241W        W15967  15.677   6.100  10.641
44242W        W15968  32.492  18.984   2.369
44243W        W15969  42.097  26.649   3.100
44244W        W15970  20.652  10.452  11.963
44245W        W15971   2.468  26.725  10.382
44246W        W15972  28.243  12.211   3.329
44247W        W15973  35.687  13.078   2.712
44248W        W15974  40.294  37.591  10.665
44249W        W15975   0.853  20.807   2.661
44250W        W15976  27.898   9.797  11.160
44251W        W15977  40.851  11.310  11.625
44252W        W15978  16.322   6.964  14.467
44253W        W15979  38.316  24.042  11.471
44254W        W15980  15.284  36.616   3.347
44255W        W15981  30.504   9.253   2.803
44256W        W15982   6.321   6.764   1.973
44257W        W15983   7.792  21.712   3.673
44258W        W15984   5.828  19.007  14.402
44259W        W15985  37.286  17.889   0.906
44260W        W15986  28.012   1.755   0.419
44261W        W15987  17.591   9.206  13.025
44262W        W15988   1.486  11.686  11.237
44263W        W15989   8.426  26.271   3.613
44264W        W15990  19.232   3.468   4.118
44265W        W15991  43.054  12.741   1.343
44266W        W15992  25.670  41.031  13.937
44267W        W15993   3.941  32.926   2.949
44268W        W15994  27.119   1.037   4.286
44269W        W15995  19.501  11.364  12.000
44270W        W15996  26.250  42.786   0.742
44271W        W15997  17.562  36.603   2.860
44272W        W15998   4.684  21.952   1.342
44273W        W15999   7.809  20.110  12.974
44274W        W16000  37.919  40.599   3.014
44275W        W16001  42.478  18.437   4.165
44276W        W16002  36.880  23.506   0.764
44277W        W16003   8.931  27.455   4.907
44278W        W16004  44.953  40.301   1.726
44279W        W16005  11.109  36.379   0.939
44280W        W16006  29.054   2.023   3.488
44281W        W16007  14.268  16.224   4.350
44282W        W16008  13.381  18.494  11.234
44283W        W16009  34.999  30.908   5.022
44284W        W16010  25.246  34.362   1.618
44285W        W16011  10.382  19.000   0.002
44286W        W16012  18.078  12.705  12.141
44287W        W16013   5.896  21.582  11.403
44288W        W16014  43.807  26.232   4.717
44289W        W16015  33.602  11.773   3.661
44290W        W16016   0.200  40.057   2.168
44291W        W16017  19.292   6.800   1.888
44292W        W16018  10.711  36.615  12.979
44293W        W16019  16.310  33.654   2.776
44294W        W16020  20.521  35.636   0.533
44295W        W16021  36.188   7.867   1.478
44296W        W16022  34.945  31.948  10.238
44297W        W16023  41.865  32.889  10.492
44298W        W16024  21.716  36.812  10.516
44299W        W16025  43.339  25.511  13.596
44300W        W16026  40.122   7.213   3.294
44301W        W16027  25.604   1.477  12.030
44302W        W16028  35.604  39.219  14.901
44303W        W16029   3.909  26.752   0.805
44304W        W16030  43.855  18.360   0.842
44305W        W16031  16.349  35.824  13.400
44306W        W16032  16.317  30.509   4.738
44307W        W16033  41.531  21.007   0.687
44308W        W16034   2.033  12.351  12.847
44309W        W16035  29.962   6.150   4.203
44310W        W16036  43.911  31.041   0.773
44311W        W16037  20.197  12.049  14.462
44312W        W16038  24.152  11.197  13.860
44313W        W16039  14.101   3.654   4.923
44314W        W16040  42.537  25.936   3.088
44315W        W16041   9.869  16.768   0.931
44316W        W16042   0.522   5.829   0.281
44317W        W16043  31.360   1.476   4.532
44318W        W16044  35.842  30.863   2.708
44319W        W16045  35.415  29.154  14.144
44320W        W16046   4.386  25.927   1.735
44321W        W16047  11.170   1.879  12.763
44322W        W16048   6.230  43.945  13.063
44323W        W16049  23.643  12.809   1.730
44324W        W16050  30.082   8.598   0.294
44325W        W16051  36.576   1.940  11.992
44326W        W16052  43.858  40.069   4.638
44327W        W16053  29.170  41.076  10.771
44328W        W16054   6.183   8.337  13.373
44329W        W16055   1.444  29.468   0.233
44330W        W16056  27.029  32.191  10.546
44331W        W16057  12.318  29.970  14.767
44332W        W16058   3.490  12.302  12.855
44333W        W16059  34.587   4.374  12.880
44334W        W16060  38.577  22.753  10.722
44335W        W16061  21.252  14.323   3.088
44336W        W16062   1.391  21.170  10.836
44337W        W16063  15.822  35.644   2.285
44338W        W16064  27.567  16.341   3.202
44339W        W16065  28.611  15.165  11.331
44340W        W16066  35.802  36.839  13.422
44341W        W16067  29.504  12.875   0.437
44342W        W16068   8.946   4.894  12.408
44343W        W16069  44.171   2.567   0.727
44344W        W16070   1.855  36.467   4.079
44345W        W16071  29.551  19.542   3.586
44346W        W16072  12.808   5.676   0.903
44347W        W16073  12.234  34.519   3.373
44348W        W16074  29.435  33.398   3.470
44349W        W16075   0.037   6.805  13.869
44350W        W16076  20.623  27.370   5.052
44351W        W16077  15.140   4.027  14.935
44352W        W16078  25.895  17.052   0.738
44353W        W16079  30.909  28.153   4.233
44354W        W16080  24.130  15.740   0.394
44355W        W16081  13.618  33.889  13.426
44356W        W16082  21.263  44.039  12.175
44357W        W16083  20.324  12.122   1.648
44358W        W16084   2.872  10.158   4.388
44359W        W16085  32.483  10.609   1.160
44360W        W16086  19.007  31.732   1.368
44361W        W16087  32.859  11.155   3.672
44362W        W16088  43.366  21.091  14.236
44363W        W16089  43.749  15.882  13.845
44364W        W16090  18.273  33.626   1.018
44365W        W16091  41.407  29.495   4.712
44366W        W16092  32.015  30.480  14.409
44367W        W16093  19.212  15.793  12.654
44368W        W16094  26.449  36.816   1.287
44369W        W16095   9.158  38.378  12.887
44370W        W16096  35.008  42.554   4.674
44371W        W16097  31.635  26.757   5.493
44372W        W16098  13.709  27.847   2.558
44373W        W16099   1.220   2.890  14.406
44374W        W16100  25.633  13.192  11.602
44375W        W16101  26.527   4.233  11.079
44376W        W16102   3.560  34.181  13.546
44377W        W16103  24.747  42.522  12.543
44378W        W16104  36.690  17.658   4.586
44379W        W16105  22.917  26.941  14.365
44380W        W16106  16.320   1.782  13.528
44381W        W16107  30.258   3.733  11.999
44382W        W16108  18.139  41.907   0.690
44383W        W16109   3.817  10.259   4.949
44384W        W16110  21.221   5.731   1.225
44385W        W16111  14.612  19.224  11.498
44386W        W16112  29.392   6.395  11.637
44387W        W16113   9.900  35.042   0.962
44388W        W16114  16.883  17.558   4.221
44389W        W16115  26.057  33.197  10.272
44390W        W16116  39.443  30.132  12.077
44391W        W16117  44.259  38.324  14.704
44392W        W16118  12.722  40.857  13.470
44393W        W16119  19.776  10.715   3.592
44394W        W16120  30.394  13.893   1.634
44395W        W16121  14.189   6.085   3.271
44396W        W16122  27.006  11.643  10.808
44397W        W16123   8.339  28.531  10.681
44398W        W16124  14.875  43.190  13.818
44399W        W16125  14.291  20.459  11.847
44400W        W16126  27.224  17.133  10.249
44401W        W16127  31.909  11.868  14.467
44402W        W16128  25.172   3.802   2.454
44403W        W16129  14.996  10.520  12.901
44404W        W16130  15.879  37.842   4.760
44405W        W16131   4.507  40.341  14.841
44406W        W16132  13.080   1.807   2.640
44407W        W16133  37.509  29.319  11.596
44408W        W16134  29.108  39.276  12.098
44409W        W16135  22.272  38.869   3.695
44410W        W16136  24.835  38.318   2.926
44411W        W16137  24.789  22.787   4.176
44412W        W16138  22.002  16.899  12.167
44413W        W16139  32.420  35.530   1.353
44414W        W16140  19.808   3.754   3.312
44415W        W16141  33.694  36.493   2.816
44416W        W16142  16.330  23.027   0.887
44417W        W16143  18.484  15.726   1.828
44418W        W16144  16.088  21.456  12.685
44419W        W16145   5.201  19.619   2.327
44420W        W16146  25.107  14.549   0.450
44421W        W16147  14.758  12.148   0.935
44422W        W16148  12.351  32.825   1.862
44423W        W16149  18.606  12.106  12.562
44424W        W16150  29.857   4.418   0.810
44425W        W16151  22.731  11.668   3.392
44426W        W16152  38.970  35.511   1.767
44427W        W16153  12.494  12.660   4.116
44428W        W16154  40.660   1.654  10.954
44429W        W16155   4.041  41.801  10.990
44430W        W16156  15.751  14.311  12.331
44431W        W16157  32.611  10.747   2.148
44432W        W16158   3.732  35.910   2.109
44433W        W16159  19.577  44.791   1.850
44434W        W16160  33.083  44.913  12.667
44435W        W16161   2.206  10.636   2.875
44436W        W16162  26.727  20.583  12.307
44437W        W16163  24.793  20.215  14.248
44438W        W16164  12.389  10.944   0.411
44439W        W16165  33.640  17.645   2.446
44440W        W16166  10.577  34.366   3.132
44441W        W16167  31.042   1.186  10.467
44442W        W16168  40.855  40.625  12.854
44443W        W16169  10.861  14.975   0.205
44444W        W16170  30.084  27.381   2.349
44445W        W16171  16.735  22.236  12.494
44446W        W16172  12.954   9.655   1.319
44447W        W16173   4.178  22.582  11.771
44448W        W16174  18.543   9.576   4.317
44449W        W16175   8.116  35.294  11.173
44450W        W16176  32.599  10.762  13.289
44451W        W16177  22.681  12.902   0.937
44452W        W16178   8.904  31.442   1.863
44453W        W16179  26.319  31.962  14.051
44454W        W16180  33.486  41.517   3.244
44455W        W16181  33.005   2.964  12.449
44456W        W16182   7.457  42.497   0.227
44457W        W16183   7.416  18.866  10.899
44458W        W16184   0.551  24.659  13.082
44459W        W16185   2.614  15.191  14.395
44460W        W16186  41.428  20.086   1.196
44461W        W16187   8.264  30.830   2.767
44462W        W16188   9.672  29.981   0.664
44463W        W16189   1.847  29.096   2.094
44464W        W16190   4.179  17.951  10.652
44465W        W16191  31.046   4.824  11.549
44466W        W16192   7.366  32.468  11.060
44467W        W16193   2.472  44.715  11.963
44468W        W16194  22.621  36.787  12.597
44469W        W16195  20.194  18.152   3.232
44470W        W16196  33.114  19.073  11.117
44471W        W16197   4.403  39.162  14.368
44472W        W16198  25.183  28.159  12.804
44473W        W16199   3.970  28.072   2.228
44474W        W16200  21.085  35.398  10.636
44475W        W16201  15.736  40.572   2.709
44476W        W16202   8.126  14.531   3.152
44477W        W16203  18.907  40.376  11.528
44478W        W16204  21.965  17.381   3.617
44479W        W16205  35.681  39.359  13.990
44480W        W16206  18.977  29.025   0.450
44481W        W16207  30.695  36.074   4.937
44482W        W16208  28.009  42.764   3.588
44483W        W16209  30.329  27.193  10.895
44484W        W16210  21.085  22.985  14.928
44485W        W16211  39.411   8.224  10.561
44486W        W16212  29.428  27.189  14.397
44487W        W16213  31.965   7.546   0.758
44488W        W16214  37.353  22.743  10.566
44489W        W16215   3.987  14.141  11.097
44490W        W16216  38.575   5.795   4.164
44491W        W16217  20.685   8.310   4.489
44492W        W16218  26.377  20.093  12.403
44493W        W16219  27.672  31.026   2.137
44494W        W16220   6.458   9.751  11.020
44495W        W16221  17.004  26.502  11.200
44496W        W16222  16.158  30.519  12.866
44497W        W16223   3.491  14.182  12.143
44498W        W16224  23.210  16.848  13.323
44499W        W16225  17.560  30.192  14.733
44500W        W16226  20.479  40.939  12.936
44501W        W16227  19.200  43.410   4.392
44502W        W16228  23.753  42.268  14.890
44503W        W16229   0.820   2.465   4.839
44504W        W16230  38.288  35.806  13.418
44505W        W16231  33.458  35.651   3.623
44506W        W16232  13.401  23.476   2.408
44507W        W16233  20.732  17.339   1.197
44508W        W16234   4.333  14.200  12.889
44509W        W16235   8.787  38.212   3.306
44510W        W16236   8.210  41.370  14.304
44511W        W16237   0.071   6.338   0.915
44512W        W16238  30.050  16.102  10.755
44513W        W16239  44.505   6.704   1.169
44514W        W16240  11.136  24.132  10.255
44515W        W16241  33.936  12.306   2.781
44516W        W16242  28.540   2.596  12.869
44517W        W16243  25.549  26.911  13.347
44518W        W16244  24.001   9.881   2.300
44519W        W16245  29.539   0.741   1.851
44520W        W16246  22.973  23.199   3.175
44521W        W16247   5.702  27.472   3.812
44522W        W16248  37.308  10.459  14.623
44523W        W16249  43.871  39.221  13.824
44524W        W16250  19.521  44.973   0.487
44525W        W16251  19.454  42.090  14.377
44526W        W16252  11.201  27.060  13.602
44527W        W16253   2.691   7.659   0.863
44528W        W16254  18.677   8.614   0.881
44529W        W16255  25.558  32.429   3.616
44530W        W16256  44.217  12.029  10.701
44531W        W16257  38.093  14.680   4.667
44532W        W16258  12.974  32.661  11.104
44533W        W16259  11.091  22.741   2.416
44534W        W16260   7.247   4.793   2.517
44535W        W16261  31.514  38.430  11.936
44536W        W16262  17.205   0.685   4.835
44537W        W16263  10.965  21.480  10.594
44538W        W16264  11.778  18.131   0.300
44539W        W16265  12.179  41.882  14.302
44540W        W16266  44.017  24.095   4.113
44541W        W16267  24.017  40.536  13.228
44542W        W16268   8.314  11.953   1.794
44543W        W16269  36.305  21.090   0.860
44544W        W16270  37.618  10.340   0.630
44545W        W16271  37.398  24.225  11.950
44546W        W16272  41.185   1.964   4.828
44547W        W16273  13.474  37.975   2.197
44548W        W16274  12.187  37.319   1.686
44549W        W16275  35.990   4.266  13.758
44550W        W16276  33.004  20.477  13.974
44551W        W16277  10.163  37.080   4.167
44552W        W16278  31.941  37.878   1.651
44553W        W16279  33.582  44.179   1.904
44554W        W16280   3.388  40.844  12.861
44555W        W16281  16.163  22.571   1.975
44556W        W16282  16.265  24.857   3.215
44557W        W16283  44.365  20.200  10.674
44558W        W16284   6.518  25.986  13.795
44559W        W16285  24.591  27.235   5.010
44560W        W16286  35.156  17.122  14.834
44561W        W16287  36.312  39.482  14.722
44562W        W16288  10.174  33.282  12.402
44563W        W16289   5.734  42.067  12.924
44564W        W16290  21.593  41.784  11.538
44565W        W16291  23.457  21.557  13.399
44566W        W16292   4.343   3.212  11.729
44567W        W16293  11.889  38.123   1.798
44568W        W16294  33.442  31.302  13.106
44569W        W16295  40.870   7.244  13.555
44570W        W16296  17.157  14.574  10.412
44571W        W16297  44.537   4.217  11.213
44572W        W16298  19.669  38.549   0.513
44573W        W16299  32.071  41.961  13.267
44574W        W16300  44.858  19.636  14.569
44575W        W16301  18.873   5.413  11.434
44576W        W16302  26.575  30.769  14.440
44577W        W16303  38.479  15.318   0.006
44578W        W16304  32.820   2.735  13.324
44579W        W16305   6.800  43.012  14.525
44580W        W16306  22.923   9.795  10.630
44581W        W16307  32.574  38.332  13.726
44582W        W16308  31.092  41.278  10.460
44583W        W16309  16.315  36.902  14.811
44584W        W16310   9.327  34.142   0.822
44585W        W16311  41.606  17.736   2.519
44586W        W16312  21.238  15.157   4.633
44587W        W16313  15.327  11.170  14.516
44588W        W16314   9.931  28.140  11.135
44589W        W16315  10.223   1.236   5.326
44590W        W16316  32.079  13.328  12.306
44591W        W16317  17.157  12.214  13.849
44592W        W16318   3.396  21.649  12.028
44593W        W16319  11.708  41.892  11.645
44594W        W16320  16.127  19.802   3.628
44595W        W16321   6.687  19.225   4.219
44596W        W16322  41.836  37.417  13.317
44597W        W16323  24.550   0.886  10.641
44598W        W16324  15.403  29.219   3.911
44599W        W16325  15.835  41.287  13.334
44600W        W16326  43.400   2.269  14.989
44601W        W16327  29.418  12.289   1.687
44602W        W16328  17.322  25.930   4.361
44603W        W16329   2.491  16.791   2.878
44604W        W16330  10.135  42.432   4.582
44605W        W16331  33.909  35.422   4.662
44606W        W16332  15.333  21.452   2.980
44607W        W16333  36.949   2.426  13.122
44608W        W16334  19.157  31.312   3.691
44609W        W16335   2.787  30.432  14.506
44610W        W16336   6.654  15.178  14.319
44611W        W16337   4.163   9.793  14.857
44612W        W16338  19.573  29.460  13.106
44613W        W16339  42.252  16.654   0.780
44614W        W16340   5.608  42.799  11.138
44615W        W16341  35.064   0.255  11.848
44616W        W16342  42.450   0.688   3.152
44617W        W16343  38.682  12.598   1.325
44618W        W16344  38.136  42.390  11.067
44619W        W16345  30.141  22.670   1.569
44620W        W16346   4.725   5.749  12.536
44621W        W16347  37.572  15.618   0.915
44622W        W16348  43.427  38.559   0.263
44623W        W16349  31.443  38.555   1.841
44624W        W16350  41.020  11.723   0.851
44625W        W16351  31.449  23.375  13.625
44626W        W16352   7.179  19.380  11.997
44627W        W16353   1.005  44.393  14.356
44628W        W16354  14.287   1.903   1.318
44629W        W16355  23.861  42.952   2.864
44630W        W16356  36.973  10.754  13.476
44631W        W16357  23.238   1.209   2.250
44632W        W16358   5.693  20.506   1.182
44633W        W16359   5.151  44.928   1.892
44634W        W16360   4.676  24.964   4.675
44635W        W16361  43.974  33.902  11.952
44636W        W16362  15.440   5.880  11.181
44637W        W16363  35.473  17.387   2.721
44638W        W16364  33.974  21.144   3.718
44639W        W16365   2.204  10.319   1.907
44640W        W16366  15.483   3.145  10.687
44641W        W16367  33.608  33.046   3.781
44642W        W16368  32.123  36.124   0.919
44643W        W16369  33.949  18.232   1.232
44644W        W16370  15.555   9.805  12.935
44645W        W16371  12.386  26.732   0.459
44646W        W16372  44.888  37.346  14.364
44647W        W16373  35.135  20.690  12.563
44648W        W16374  38.331  30.847  11.015
44649W        W16375  13.938  14.795  14.916
44650W        W16376   8.229  28.192  13.822
44651W        W16377  11.930  22.171  12.099
44652W        W16378   2.694  27.449   2.483
44653W        W16379  25.672   0.440  14.326
44654W        W16380  26.179  11.730  14.377
44655W        W16381   6.494   7.929  14.388
44656W        W16382   4.531   4.432   3.700
44657W        W16383  34.949   1.291   0.189
44658W        W16384  14.964  11.875   3.336
44659W        W16385  14.065  44.243  14.983
44660W        W16386  10.803  37.008   3.121
44661W        W16387  27.466  16.213   0.744
44662W        W16388  31.052  19.035  12.120
44663W        W16389  28.237  20.475  12.477
44664W        W16390  30.878  34.842   0.961
44665W        W16391   5.749  30.868  12.388
44666W        W16392  23.580  32.579   3.679
44667W        W16393  26.062  32.707   2.225
44668W        W16394  38.003   0.309   0.872
44669W        W16395  16.980  18.834   4.223
44670W        W16396  35.888   2.429  13.038
44671W        W16397  14.785  13.602   1.390
44672W        W16398  13.052  28.517  14.948
44673W        W16399   6.967  14.166   2.705
44674W        W16400  24.302  33.176   1.818
44675W        W16401  23.513  43.530   0.309
44676W        W16402  22.106  40.937   4.209
44677W        W16403  24.531  39.794   3.671
44678W        W16404  10.353  36.024  14.535
44679W        W16405  42.468  19.607   2.998
44680W        W16406  10.358  15.746   0.689
44681W        W16407   0.243  20.275  11.140
44682W        W16408  40.782  21.571  14.848
44683W        W16409   7.016  22.556   5.028
44684W        W16410  21.147  23.945  12.491
44685W        W16411  20.516  31.458   3.280
44686W        W16412  44.597  19.267   3.978
44687W        W16413   6.707  31.666   3.656
44688W        W16414   5.019  24.812   2.796
44689W        W16415  29.578  41.516  12.805
44690W        W16416   9.511  38.983  14.596
44691W        W16417  15.879   4.271   1.311
44692W        W16418   7.351  24.243   0.870
44693W        W16419  34.112  10.403  11.177
44694W        W16420  12.082  27.012  10.685
44695W        W16421  33.126   4.798  11.961
44696W        W16422  33.660   2.009  11.041
44697W        W16423  41.759  39.907  13.509
44698W        W16424  20.455  15.461   0.403
44699W        W16425  25.992   5.918   0.706
44700W        W16426  18.633  37.080   1.393
44701W        W16427  18.311  31.509  11.671
44702W        W16428   5.471   2.122  12.691
44703W        W16429  37.427  19.184   4.304
44704W        W16430  32.095   4.268  12.192
44705W        W16431  18.962  17.299   3.758
44706W        W16432  39.861   6.919  13.923
44707W        W16433   5.601  37.417   0.994
44708W        W16434  17.566  33.558  11.919
44709W        W16435  19.072  12.266  11.912
44710W        W16436   5.710  35.547  13.040
44711W        W16437   0.094  16.237   4.272
44712W        W16438   3.969  31.796   3.572
44713W        W16439  21.780  26.548  12.964
44714W        W16440  44.216  29.087   0.884
44715W        W16441  37.387   6.715   1.323
44716W        W16442  31.573  22.994   3.545
44717W        W16443  16.231  25.984   3.315
44718W        W16444  37.624  41.016   2.852
44719W        W16445  10.794  11.791   9.945
44720W        W16446   5.419  30.514   4.551
44721W        W16447  19.290  11.745   0.291
44722W        W16448   3.386  17.027   1.841
44723W        W16449  28.238  22.946   3.217
44724W        W16450  31.249  41.816  13.984
44725W        W16451  17.760  17.552  13.085
44726W        W16452  33.111  11.091  14.529
44727W        W16453  13.310  25.469  11.560
44728W        W16454  12.290   6.422  10.572
44729W        W16455  26.022   6.975  13.684
44730W        W16456  16.634   9.789   3.321
44731W        W16457  16.343  26.706   2.798
44732W        W16458  29.556  10.629   3.713
44733W        W16459  23.250   2.669   2.215
44734W        W16460  42.370  39.065  11.552
44735W        W16461  20.740  30.596  11.008
44736W        W16462  11.805  25.323   1.309
44737W        W16463  26.544   3.445  12.571
44738W        W16464  35.934   5.195  13.841
44739W        W16465  12.910  13.731   1.870
44740W        W16466   0.971  20.538   1.422
44741W        W16467  36.848  44.967   0.010
44742W        W16468  13.821  26.212  10.736
44743W        W16469  28.187  39.438  12.216
44744W        W16470  32.057  15.347   0.510
44745W        W16471  27.696  14.767  13.961
44746W        W16472  11.340  11.139   2.785
44747W        W16473  33.935   5.513  11.524
44748W        W16474  27.564  26.328  13.490
44749W        W16475  10.302  19.813   4.689
44750W        W16476  17.683   0.751   0.455
44751W        W16477  22.026  11.677  14.343
44752W        W16478  44.826  41.856  13.697
44753W        W16479  36.044  37.339   0.830
44754W        W16480  33.938  17.887  14.509
44755W        W16481  44.254  17.473   4.124
44756W        W16482  41.092  43.244  11.177
44757W        W16483  35.086   2.965  11.153
44758W        W16484  33.983  40.462   4.734
44759W        W16485  43.387  42.237  12.803
44760W        W16486  12.683  29.612  12.432
44761W        W16487   4.877  37.776  13.066
44762W        W16488  14.602  23.955   0.813
44763W        W16489  26.414  23.760   4.186
44764W        W16490  21.211  29.632  11.617
44765W        W16491   0.455  37.888  12.547
44766W        W16492  14.875  19.799  14.066
44767W        W16493  32.413  28.451  14.148
44768W        W16494  41.154   8.854   1.255
44769W        W16495   4.438   8.401   1.347
44770W        W16496   5.439  17.732   4.681
44771W        W16497   5.937  14.339   4.799
44772W        W16498  32.972  32.183  14.903
44773W        W16499  11.778  24.711   2.153
44774W        W16500  36.310  32.007   0.660
44775W        W16501  26.401  20.493   4.865
44776W        W16502  24.092  17.726   2.250
44777W        W16503  41.169  41.767  13.968
44778W        W16504  21.157   5.352  11.348
44779W        W16505  13.997   7.412   1.022
44780W        W16506  22.976  31.170  14.432
44781W        W16507  32.274   0.048  10.941
44782W        W16508  16.111   1.368   0.328
44783W        W16509   1.621  10.708   2.228
44784W        W16510  38.474  16.503  12.123
44785W        W16511  23.017   4.654   1.884
44786W        W16512  16.353  37.129  12.987
44787W        W16513   1.196  29.435  10.797
44788W        W16514   8.406  21.982   4.679
44789W        W16515  14.811  16.644  14.057
44790W        W16516   7.680  19.130   0.027
44791W        W16517   2.394  21.680  13.849
44792W        W16518   2.000  20.214  11.622
44793W        W16519  21.618  10.827  10.601
44794W        W16520  16.185  30.238   2.070
44795W        W16521  36.729  10.288   1.138
44796W        W16522  33.677  43.856  13.956
44797W        W16523  44.271   2.750  13.444
44798W        W16524  11.428  22.915   3.573
44799W        W16525  19.377  28.567  14.263
44800W        W16526  30.098   4.672  13.479
44801W        W16527  35.476  33.605   0.283
44802W        W16528  39.652   8.357  11.496
44803W        W16529  28.935  35.120  13.486
44804W        W16530  18.243  32.107   2.647
44805W        W16531  19.116  24.105  10.847
44806W        W16532  33.513  10.278  12.416
44807W        W16533  19.870  28.640  13.419
44808W        W16534   4.835  26.500   5.013
44809W        W16535  13.623  39.297   3.166
44810W        W16536  26.682   9.226  14.951
44811W        W16537  31.059   7.453  12.473
44812W        W16538  28.440  18.521  12.977
44813W        W16539  31.036  32.092   9.741
44814W        W16540   0.034  17.780  14.446
44815W        W16541  34.101  23.526  10.590
44816W        W16542  35.935  28.898  11.682
44817W        W16543  11.689   3.889   2.745
44818W        W16544  40.883  44.745  14.338
44819W        W16545  25.708  29.897  14.765
44820W        W16546  27.984  24.190   3.759
44821W        W16547  41.806  22.617  13.061
44822W        W16548  34.560  44.150   4.047
44823W        W16549  32.431   8.662   1.252
44824W        W16550  44.591  26.613  14.409
44825W        W16551  35.589   9.621   1.377
44826W        W16552  24.169  17.488  12.140
44827W        W16553   2.996  41.226   2.852
44828W        W16554  13.331  36.627  14.295
44829W        W16555  37.905  30.981  14.930
44830W        W16556  14.237   3.199  13.731
44831W        W16557  39.550   5.340  14.704
44832W        W16558  19.984  38.852  11.143
44833W        W16559  20.276  30.400  13.332
44834W        W16560  42.489  37.957   0.797
44835W        W16561  17.963  12.656   1.784
44836W        W16562  21.569  35.431   4.394
44837W        W16563  33.243   9.867  10.726
44838W        W16564   1.269  42.921  11.141
44839W        W16565  22.467  42.385  14.787
44840W        W16566   3.878   1.937  12.069
44841W        W16567   7.166  38.595  11.039
44842W        W16568  27.960  43.444  10.599
44843W        W16569  15.317  13.834  13.371
44844W        W16570  35.362  24.877   0.464
44845W        W16571  19.293  19.005   0.513
44846W        W16572  28.225  27.516  14.665
44847W        W16573  30.319  19.162  14.987
44848W        W16574   6.901  44.294  13.016
44849W        W16575  24.450   4.245  14.196
44850W        W16576   5.014  26.991   3.335
44851W        W16577  33.520  13.671   2.174
44852W        W16578   6.987  26.593   4.161
44853W        W16579  34.976   9.523   0.756
44854W        W16580  24.535  26.147  13.240
44855W        W16581   2.929  14.195   1.224
44856W        W16582  15.747  39.275   2.210
44857W        W16583  42.595  16.771   1.597
44858W        W16584   2.772  32.189  14.803
44859W        W16585   4.296   7.911  12.254
44860W        W16586  15.663  11.746   0.712
44861W        W16587  26.703  36.082   0.025
44862W        W16588   7.405  25.324   5.012
44863W        W16589   7.467  43.267  11.173
44864W        W16590   0.329  42.993   2.424
44865W        W16591   1.517  17.293  12.159
44866W        W16592  24.427  12.051   0.981
44867W        W16593  26.961  18.625   4.897
44868W        W16594  40.040  35.972  14.360
44869W        W16595  18.255  37.971  11.595
44870W        W16596  33.858  38.290   2.778
44871W        W16597   9.310   1.867   4.766
44872W        W16598  10.763  34.882   0.369
44873W        W16599  23.083  13.806  11.069
44874W        W16600  34.673   1.060  14.436
44875W        W16601  26.611   9.110  11.902
44876W        W16602  22.118  17.600  13.279
44877W        W16603  12.170  19.266  14.493
44878W        W16604  24.207  31.398   4.546
44879W        W16605  22.301  19.267   4.627
44880W        W16606  39.909  42.793  13.350
44881W        W16607  40.967  24.199   2.188
44882W        W16608  32.477  44.794   4.168
44883W        W16609   2.817  12.382   0.472
44884W        W16610  23.453  10.910   2.346
44885W        W16611  32.488  41.261   1.409
44886W        W16612  25.767  28.028  11.161
44887W        W16613  39.886  36.980   1.911
44888W        W16614  27.146  35.545   0.835
44889W        W16615  21.051  19.069   1.452
44890W        W16616   8.181  13.863  13.998
44891W        W16617  14.615  30.109   3.077
44892W        W16618  15.581  12.664  11.391
44893W        W16619   7.295  29.253   0.434
44894W        W16620  32.409   3.985   1.429
44895W        W16621  39.052  26.728  12.585
44896W        W16622   9.724   1.994  10.639
44897W        W16623  43.991  20.612   4.948
44898W        W16624  11.821  30.801   4.406
44899W        W16625   2.692  26.217  14.052
44900W        W16626  11.715   8.401  12.819
44901W        W16627  13.872  16.207   2.562
44902W        W16628   0.872  36.757   4.739
44903W        W16629  38.540  44.275  10.735
44904W        W16630  20.153  13.318  10.914
44905W        W16631  26.715  31.484  14.891
44906W        W16632  17.211  13.320  14.424
44907W        W16633   0.984   2.349   0.337
44908W        W16634  42.544  14.736  14.962
44909W        W16635  19.672  10.217  14.848
44910W        W16636  39.244  23.620  13.988
44911W        W16637   5.740  17.645   4.246
44912W        W16638  20.658  16.074   2.230
44913W        W16639   1.965  32.149  10.973
44914W        W16640   7.891  11.834   3.887
44915W        W16641   1.867  40.418   3.549
44916W        W16642  44.491  43.707   0.195
44917W        W16643  17.823  26.679   2.775
44918W        W16644   1.700   5.130  14.358
44919W        W16645  23.349  38.391  12.767
44920W        W16646  19.690   7.091   2.804
44921W        W16647  19.735  37.916   4.811
44922W        W16648  36.827  31.912   0.446
44923W        W16649  26.757   4.884   0.039
44924W        W16650  33.148   1.879   3.643
44925W        W16651  21.202   7.633   3.892
44926W        W16652   6.824  31.909  13.789
44927W        W16653  24.425   1.017  12.852
44928W        W16654  29.341  32.601   1.386
44929W        W16655  36.855  22.526  14.039
44930W        W16656  43.977  38.750   3.132
44931W        W16657  16.692   5.521  11.254
44932W        W16658   5.238   4.175   4.508
44933W        W16659   6.548  30.386  10.362
44934W        W16660  21.781  25.063  10.662
44935W        W16661  42.758  21.929   2.741
44936W        W16662  19.596  14.934   4.111
44937W        W16663  28.620  15.799  13.001
44938W        W16664  39.926  11.358   0.986
44939W        W16665  44.887  21.482   1.287
44940W        W16666  27.636   7.715  14.356
44941W        W16667  31.427  39.254   4.688
44942W        W16668  26.285  22.303  14.498
44943W        W16669  37.573  22.881   0.645
44944W        W16670  42.719  40.574   4.127
44945W        W16671  41.253  10.796   2.098
44946W        W16672  38.895   5.171   4.591
44947W        W16673  24.101   2.081  10.689
44948W        W16674  13.854  11.901   2.102
44949W        W16675  25.856  23.153  11.149
44950W        W16676  43.327  26.630   0.252
44951W        W16677  18.647  34.087   1.755
44952W        W16678  42.490  25.074  12.912
44953W        W16679  10.631  36.396  11.152
44954W        W16680  18.324  37.719  12.043
44955W        W16681  20.060  26.485  14.868
44956W        W16682  20.544  30.125   3.793
44957W        W16683  34.744   9.951  12.524
44958W        W16684  38.815   1.110  11.741
44959W        W16685  39.264  19.637  14.586
44960W        W16686  37.318  21.330   3.734
44961W        W16687  24.242  21.007  13.291
44962W        W16688  42.419   9.378   4.894
44963W        W16689  35.988  43.782   0.497
44964W        W16690  40.738  44.959  12.938
44965W        W16691  16.165  35.412   0.000
44966W        W16692  17.501   6.764   2.064
44967W        W16693  17.563  23.653  11.538
44968W        W16694  26.712   6.773  13.918
44969W        W16695  24.295  41.227   1.246
44970W        W16696   2.500  35.986  12.039
44971W        W16697  22.979  12.023  11.040
44972W        W16698  25.268  24.111   1.272
44973W        W16699  11.193  39.897   2.216
44974W        W16700  28.383  11.143  14.683
44975W        W16701   7.155  34.980  14.787
44976W        W16702   2.356  15.850   2.789
44977W        W16703  31.462  40.819   0.398
44978W        W16704  25.338   9.432  12.884
44979W        W16705  12.273  15.696   0.714
44980W        W16706  25.572  13.673   4.640
44981W        W16707   3.209  34.795   0.453
44982W        W16708  32.502  28.387   3.837
44983W        W16709  39.100  11.251  13.942
44984W        W16710   7.384  40.760  12.081
44985W        W16711  22.119  38.533   1.257
44986W        W16712  25.042  41.293   2.911
44987W        W16713  21.296  23.121   0.399
44988W        W16714  14.348  44.799   2.789
44989W        W16715  26.744   5.638  14.999
44990W        W16716  22.245  27.494   4.671
44991W        W16717   8.284  30.002  12.391
44992W        W16718  31.846  33.251   3.932
44993W        W16719  38.602   7.731   3.741
44994W        W16720   8.537   6.384  12.052
44995W        W16721  27.193  44.332  11.065
44996W        W16722  42.850  41.573   3.733
44997W        W16723  41.682  33.050   4.171
44998W        W16724  15.739   9.759   0.794
44999W        W16725  23.042  20.020   1.678
45000W        W16726  26.122  39.948  12.804
45001W        W16727  33.157  33.509  14.296
45002W        W16728   4.914  24.518   1.271
45003W        W16729  33.622  36.655   4.604
45004W        W16730  25.065   3.324   2.284
45005W        W16731  31.499  18.356   4.621
45006W        W16732  21.660  14.033  14.952
45007W        W16733  11.364  44.717  12.899
45008W        W16734  34.655  14.215  14.754
45009W        W16735  27.136   6.466   4.187
45010W        W16736  12.779  26.186  10.744
45011W        W16737   1.837  40.009   0.850
45012W        W16738  26.322  17.802   4.713
45013W        W16739  39.893  28.131  10.713
45014W        W16740  36.802  36.363   1.453
45015W        W16741  35.517  37.513  11.041
45016W        W16742  29.041   0.984  11.994
45017W        W16743  18.061  25.470  11.009
45018W        W16744   6.848  37.768   3.899
45019W        W16745  36.853   1.167   2.217
45020W        W16746  14.356  37.807  11.021
45021W        W16747  20.797  31.799   1.336
45022W        W16748  18.745  25.417  11.144
45023W        W16749   2.266  37.345  11.921
45024W        W16750  21.928  37.166  13.273
45025W        W16751  25.956  42.420  11.900
45026W        W16752  33.129  23.036  11.925
45027W        W16753  12.779  13.367  11.195
45028W        W16754  28.545  24.162  11.539
45029W        W16755  39.721  14.379   3.638
45030W        W16756  17.321  37.328   1.852
45031W        W16757   2.756   9.078  14.887
45032W        W16758   8.830   0.743   1.935
45033W        W16759  18.567  20.587   0.935
45034W        W16760   1.957  30.903  11.184
45035W        W16761   5.849  25.896   2.883
45036W        W16762  29.742   5.390   1.671
45037W        W16763   9.751  43.079  14.445
45038W        W16764   0.183  18.349   0.306
45039W        W16765   3.717  22.466   4.724
45040W        W16766  35.352  19.547  11.269
45041W        W16767  43.757  19.302  14.536
45042W        W16768  20.762  29.025   1.688
45043W        W16769  21.625  16.551  12.119
45044W        W16770  11.481  10.387   2.135
45045W        W16771  11.420  25.467   0.803
45046W        W16772  26.948  17.739   0.001
45047W        W16773  11.091  33.542  10.320
45048W        W16774   6.179  22.282  14.346
45049W        W16775   4.886  27.428   4.129
45050W        W16776  25.252   7.382  11.704
45051W        W16777  26.581   9.783   1.207
45052W        W16778  28.064  21.505  13.300
45053W        W16779  12.708  19.170   4.749
45054W        W16780  31.496  32.564  13.075
45055W        W16781  18.174  20.827  14.721
45056W        W16782  24.634   9.509  11.654
45057W        W16783  12.638   9.726   2.810
45058W        W16784   7.377  31.898  13.419
45059W        W16785  30.530  25.973   3.282
45060W        W16786  44.320  28.598   0.706
45061W        W16787   7.763  25.410   1.392
45062W        W16788   1.907  25.930   2.791
45063W        W16789  28.505  30.016   2.821
45064W        W16790  42.927  34.495  13.812
45065W        W16791  24.261   3.473   5.099
45066W        W16792   2.388  12.370  10.902
45067W        W16793  14.751  21.577   3.618
45068W        W16794  41.788  44.342   4.188
45069W        W16795  35.389  39.398  14.434
45070W        W16796  38.466   3.719  10.372
45071W        W16797  34.583   1.383  13.990
45072W        W16798  33.309  33.759   2.630
45073W        W16799  30.180  42.252   1.326
45074W        W16800  35.416  19.943  14.681
45075W        W16801  16.738  19.049   2.353
45076W        W16802  17.082  38.889  14.733
45077W        W16803  35.524  12.801   1.235
45078W        W16804   2.842  34.202  11.934
45079W        W16805   2.887  14.232  10.421
45080W        W16806  32.354  22.186   0.288
45081W        W16807  33.899   3.987  12.620
45082W        W16808   3.618   2.474   4.127
45083W        W16809  18.735  14.295   4.539
45084W        W16810   9.816  40.753  12.591
45085W        W16811  17.183  41.896  12.054
45086W        W16812  11.700  17.567   0.265
45087W        W16813   8.328  44.721   4.328
45088W        W16814  37.080   0.029  12.527
45089W        W16815  31.027  23.102   9.674
45090W        W16816  17.583  24.225   0.386
45091W        W16817  14.544  16.113   0.258
45092W        W16818  44.397  22.778  14.499
45093W        W16819   2.508  17.198   1.754
45094W        W16820  36.135   8.203   3.261
45095W        W16821  28.868  34.727  10.446
45096W        W16822  41.986   9.764  10.730
45097W        W16823   1.814  35.069   3.215
45098W        W16824  41.757   3.829   1.765
45099W        W16825  30.354  33.967   2.263
45100W        W16826  43.845  24.314   0.816
45101W        W16827  28.244   0.436  14.377
45102W        W16828   7.698  28.458   0.393
45103W        W16829  43.348  42.431   2.490
45104W        W16830  21.551  21.039  13.999
45105W        W16831   9.352  14.163   3.781
45106W        W16832  37.994  25.601   1.048
45107W        W16833   3.339  26.506   0.056
45108W        W16834  16.268  13.314  14.563
45109W        W16835  35.852   7.604  12.707
45110W        W16836  23.094  12.117  13.014
45111W        W16837  15.003   0.316   3.089
45112W        W16838   8.714  33.490   3.628
45113W        W16839   9.124  23.274  10.263
45114W        W16840  12.839  31.934   4.768
45115W        W16841   6.575  16.468   3.359
45116W        W16842  10.997  32.540   3.982
45117W        W16843  40.299  10.527   0.033
45118W        W16844  37.922  10.333  13.224
45119W        W16845  42.900  16.820   3.378
45120W        W16846  15.590  20.773  11.383
45121W        W16847  28.479  18.531  11.067
45122W        W16848  31.044  19.546  12.061
45123W        W16849  37.070  41.062  14.352
45124W        W16850  15.613  30.278  11.258
45125W        W16851  21.202  12.444  10.582
45126W        W16852  39.382  38.405  11.575
45127W        W16853  42.536  21.799  12.131
45128W        W16854  20.548  39.063  14.463
45129W        W16855  27.972  41.333  13.562
45130W        W16856  43.175  44.845   3.951
45131W        W16857  38.087   2.785  14.320
45132W        W16858   4.277  21.101   4.467
45133W        W16859  23.067  13.687  11.574
45134W        W16860   0.867  20.022   2.277
45135W        W16861   6.198  32.624  13.403
45136W        W16862  13.592  32.353   4.579
45137W        W16863  37.410  28.974  10.661
45138W        W16864  33.056  42.479   4.451
45139W        W16865  29.647  44.392  10.077
45140W        W16866   5.778  14.168  12.517
45141W        W16867  28.194  40.377   2.013
45142W        W16868  41.774  26.231   1.681
45143W        W16869  43.728  17.793  14.780
45144W        W16870  30.942  24.602   0.423
45145W        W16871   8.920  35.147  12.958
45146W        W16872  42.433   6.541  14.272
45147W        W16873  42.770   9.096   1.816
45148W        W16874   2.720  31.946   1.944
45149W        W16875  21.614  31.108   0.663
45150W        W16876   8.588   9.822  13.924
45151W        W16877  15.745   7.472  12.061
45152W        W16878  44.504  20.983  12.281
45153W        W16879  11.629  16.536  14.300
45154W        W16880  17.386  38.797   5.098
45155W        W16881  23.167  31.123  12.475
45156W        W16882  38.742  31.729  12.453
45157W        W16883  25.069  15.585   0.437
45158W        W16884   9.833  17.252   1.147
45159W        W16885  21.829  12.353  11.999
45160W        W16886  10.710   0.270   2.717
45161W        W16887  28.348  16.051   2.381
45162W        W16888  26.506  28.597  12.989
45163W        W16889   7.797  42.285   3.570
45164W        W16890  19.765  42.842   1.665
45165W        W16891  20.514  13.774  14.030
45166W        W16892   1.994  34.340   3.657
45167W        W16893  13.817  28.031   3.561
45168W        W16894   3.945  26.604   2.655
45169W        W16895  19.035  36.432  14.388
45170W        W16896   2.166  19.367  12.131
45171W        W16897  22.049  34.435  13.847
45172W        W16898  22.282  31.573  11.236
45173W        W16899   5.889   6.633   3.821
45174W        W16900   4.924  41.913  11.087
45175W        W16901  42.305  27.653   1.845
45176W        W16902  13.710  37.317   2.901
45177W        W16903  26.167  26.694  11.649
45178W        W16904  24.761  32.293   1.711
45179W        W16905  36.935   3.525  14.038
45180W        W16906  34.110  40.665  13.074
45181W        W16907  10.735  39.232  13.783
45182W        W16908   1.354   9.254  11.487
45183W        W16909  25.243  26.181   3.157
45184W        W16910   9.194  41.408  11.227
45185W        W16911  30.501  44.680   0.699
45186W        W16912  32.249  24.005   0.220
45187W        W16913  23.137  21.257   2.233
45188W        W16914  35.574  34.382  10.959
45189W        W16915  11.593  18.077  12.698
45190W        W16916   5.199  32.505   2.251
45191W        W16917  28.000  11.626  11.086
45192W        W16918  12.904  30.992  11.883
45193W        W16919   8.693  40.809  11.542
45194W        W16920  30.174   3.973   3.631
45195W        W16921  27.058   4.245  11.525
45196W        W16922  43.483  36.040  12.991
45197W        W16923   6.001  21.036  10.353
45198W        W16924  34.932  21.672  13.601
45199W        W16925  16.027  34.093   2.748
45200W        W16926  33.454   6.861   2.374
45201W        W16927   3.271  14.332  13.963
45202W        W16928  37.978   0.494  12.407
45203W        W16929  26.988  30.667   0.367
45204W        W16930  44.790  12.792   4.697
45205W        W16931   7.081  42.816   3.599
45206W        W16932   9.343  33.762  13.511
45207W        W16933  40.275  35.472   0.790
45208W        W16934  34.606  30.961   1.375
45209W        W16935  18.579  23.258   2.263
45210W        W16936  39.329  35.066  13.254
45211W        W16937   3.330  19.415   3.151
45212W        W16938  42.381  13.568  13.981
45213W        W16939  35.838  42.337   1.469
45214W        W16940   1.015  32.255   2.902
45215W        W16941  37.018  15.546   3.697
45216W        W16942  42.546   3.876  13.371
45217W        W16943  26.782  44.974  10.635
45218W        W16944   3.951   4.837   3.220
45219W        W16945  30.141   0.865   1.247
45220W        W16946   9.205  31.432   3.745
45221W        W16947  30.086   3.926   2.607
45222W        W16948  25.589  18.382  14.236
45223W        W16949  14.859  13.003   2.284
45224W        W16950  39.031  28.030  11.189
45225W        W16951  34.849  41.399   2.843
45226W        W16952   3.455  36.206   2.428
45227W        W16953   0.700  35.484  10.607
45228W        W16954  37.944  15.340  10.430
45229W        W16955  20.591   5.412   3.260
45230W        W16956  12.135   7.842  11.665
45231W        W16957  41.895  20.513   4.534
45232W        W16958  35.789  43.289   0.493
45233W        W16959  39.706  24.556  11.102
45234W        W16960  31.105  20.993   1.801
45235W        W16961  38.071  38.886   0.483
45236W        W16962  19.457  20.532   1.409
45237W        W16963  20.081  22.976   4.633
45238W        W16964  24.225   4.958  14.760
45239W        W16965   3.542   2.359  12.033
45240W        W16966   9.337  27.880   3.799
45241W        W16967   5.611  38.486   4.140
45242W        W16968  13.363  13.263   4.127
45243W        W16969   0.223  26.651   3.037
45244W        W16970  21.628  40.620   0.788
45245W        W16971   3.230  12.100  10.944
45246W        W16972  26.126  30.182   3.694
45247W        W16973   6.511  43.942   0.444
45248W        W16974  36.627  41.400  14.295
45249W        W16975   8.597   6.190   0.976
45250W        W16976  21.465  25.117  11.499
45251W        W16977  26.210  33.107  14.039
45252W        W16978  27.985  15.969  12.555
45253W        W16979  25.357  10.168   2.709
45254W        W16980  18.547  10.301  13.131
45255W        W16981  26.462  38.586   4.163
45256W        W16982  41.233  39.094  11.923
45257W        W16983   7.258   2.930   0.540
45258W        W16984  27.967   0.234  12.587
45259W        W16985  32.675   1.371  14.079
45260W        W16986  36.089  32.870   2.767
45261W        W16987   5.467   8.380   2.202
45262W        W16988   2.665  39.983  13.853
45263W        W16989   8.574   6.367  13.375
45264W        W16990  28.511   3.468   2.257
45265W        W16991  26.662  36.866   4.932
45266W        W16992  28.418   3.447   0.021
45267W        W16993  25.655   1.847  12.692
45268W        W16994  16.275  17.289   1.185
45269W        W16995  20.134  41.570  11.164
45270W        W16996  33.239  26.459   1.368
45271W        W16997  35.453   5.044   2.499
45272W        W16998  22.623   2.940   3.081
45273W        W16999  33.654  27.673  12.995
45274W        W17000  16.798  25.573  13.941
45275W        W17001  38.475  43.180  10.030
45276W        W17002   1.732  16.086   3.719
45277W        W17003  17.777  18.985   1.002
45278W        W17004  18.032  25.213   2.635
45279W        W17005  20.586  37.479  13.513
45280W        W17006  22.652  40.837  11.101
45281W        W17007  18.149   0.330  14.194
45282W        W17008  15.738  14.786   2.530
45283W        W17009   2.537  11.822  12.016
45284W        W17010  24.655  38.668   1.973
45285W        W17011  44.925  15.921  10.593
45286W        W17012  20.845   8.645   1.891
45287W        W17013  18.221  21.753  11.599
45288W        W17014  25.170  29.544   0.462
45289W        W17015  24.103  11.149   3.016
45290W        W17016  38.349   0.173  14.430
45291W        W17017  41.930  31.990   4.602
45292W        W17018  10.936  10.812   0.059
45293W        W17019  13.609   8.679   3.754
45294W        W17020   7.641  34.289  13.498
45295W        W17021  34.896  28.611   3.754
45296W        W17022  42.130   5.463   3.689
45297W        W17023  20.765  31.177  11.856
45298W        W17024   8.542   1.972  10.312
45299W        W17025  17.240  36.011  10.711
45300W        W17026  43.783  15.581  12.927
45301W        W17027  40.362   7.232   1.549
45302W        W17028  19.807  14.632  12.148
45303W        W17029   8.952  33.644   3.198
45304W        W17030  29.689  32.321  10.633
45305W        W17031  25.916  35.896   3.370
45306W        W17032  18.290  25.060  10.748
45307W        W17033  13.606  34.495  10.997
45308W        W17034  25.522  21.253   2.388
45309W        W17035   7.941  12.556  12.410
45310W        W17036  38.030  16.672  11.907
45311W        W17037  11.104   9.106   1.061
45312W        W17038  22.464  15.930  12.584
45313W        W17039  38.483  17.875  12.610
45314W        W17040   9.315   3.733  11.909
45315W        W17041  44.518  38.467  14.273
45316W        W17042  35.367  31.979  13.447
45317W        W17043  20.166   8.372  12.466
45318W        W17044   5.740  34.400  13.295
45319W        W17045   5.178  10.106   1.488
45320W        W17046  25.578  22.084  13.648
45321W        W17047  34.642  29.426  13.906
45322W        W17048  12.862  22.031   0.468
45323W        W17049  12.307  37.675  14.506
45324W        W17050  39.726  32.045  14.279
45325W        W17051  41.719  25.378   2.763
45326W        W17052  18.705  22.989  12.647
45327W        W17053  25.184  21.421  13.092
45328W        W17054  19.582  33.939   1.446
45329W        W17055  33.825  41.069   4.662
45330W        W17056  33.342   7.615  13.463
45331W        W17057  16.517  34.378  13.064
45332W        W17058  16.098  31.057  10.621
45333W        W17059  10.999  39.986   1.328
45334W        W17060  20.990   6.169  11.099
45335W        W17061  43.051  22.960   4.070
45336W        W17062  13.968  21.551  12.043
45337W        W17063  14.387  26.928  14.265
45338W        W17064   8.778   9.268  13.784
45339W        W17065  26.915  11.724  10.270
45340W        W17066  20.241  35.054  14.622
45341W        W17067   3.168   9.592   3.808
45342W        W17068  25.544  30.242   1.058
45343W        W17069  40.520  39.926  12.416
45344W        W17070  15.806  38.923   0.366
45345W        W17071  31.542   7.896   2.286
45346W        W17072  33.335  30.399  10.860
45347W        W17073   3.492  21.284   3.607
45348W        W17074  24.259  36.834   0.638
45349W        W17075  44.709  22.720  12.932
45350W        W17076  12.076  11.060  10.675
45351W        W17077  11.779   2.687   2.252
45352W        W17078  35.766  23.963   2.638
45353W        W17079  40.963  11.063  11.188
45354W        W17080  24.025  44.790   1.250
45355W        W17081  15.330  24.711   4.279
45356W        W17082  25.144  34.414  12.077
45357W        W17083  42.756  13.140   2.222
45358W        W17084  26.060  18.836  14.395
45359W        W17085  33.436  18.241   1.634
45360W        W17086  17.628  23.798   3.206
45361W        W17087  44.891  30.631  12.938
45362W        W17088  33.834  23.548   1.821
45363W        W17089  18.856  16.277  11.972
45364W        W17090  38.907   0.330   3.602
45365W        W17091  22.676  39.000  10.557
45366W        W17092  27.046  32.794   4.213
45367W        W17093  16.215   2.696  11.565
45368W        W17094  24.330   0.929  10.184
45369W        W17095  36.050  44.338   4.137
45370W        W17096  20.810   1.362  14.447
45371W        W17097  32.805  36.450  11.147
45372W        W17098   9.726  24.567  11.323
45373W        W17099  30.695  10.132   2.237
45374W        W17100  35.348  35.400   4.681
45375W        W17101  40.508  12.450  12.117
45376W        W17102  21.163  44.015   1.227
45377W        W17103   9.148  33.836   1.216
45378W        W17104  38.443  10.717  13.782
45379W        W17105   7.244  23.585   0.803
45380W        W17106  21.980  35.946   3.623
45381W        W17107  33.409  22.537  13.052
45382W        W17108  39.508  25.473  11.119
45383W        W17109  18.484  23.882   0.499
45384W        W17110  19.894  44.028  11.955
45385W        W17111  14.810   3.919   4.275
45386W        W17112   7.884  10.465   2.087
45387W        W17113  19.479  26.783   1.304
45388W        W17114  43.043  28.418  12.033
45389W        W17115  29.136  41.330   3.525
45390W        W17116  38.470  24.540  11.566
45391W        W17117  30.205  13.721  14.843
45392W        W17118  32.392   5.883   1.789
45393W        W17119  27.514  23.754  14.342
45394W        W17120  29.112  16.757  13.820
45395W        W17121   6.275  10.356   1.502
45396W        W17122   2.730  20.643   3.858
45397W        W17123  36.382   6.680  13.754
45398W        W17124   2.688  10.781   2.934
45399W        W17125  30.387  22.153  10.647
45400W        W17126  41.313  41.181   2.952
45401W        W17127  37.097  17.283  12.511
45402W        W17128  15.806  24.723   1.421
45403W        W17129  16.780  15.640  11.880
45404W        W17130  33.103   1.257   4.174
45405W        W17131  10.682  41.486  10.756
45406W        W17132  24.107   0.083   3.304
45407W        W17133  11.176  17.215  11.714
45408W        W17134  44.902  38.806  14.345
45409W        W17135  12.835  33.525   4.623
45410W        W17136  40.612  29.974  10.806
45411W        W17137  13.228   5.639   3.201
45412W        W17138  35.831  42.363  11.482
45413W        W17139  11.914  43.284  14.259
45414W        W17140   6.660  17.812  12.295
45415W        W17141  26.392  17.190   4.029
45416W        W17142  29.638  32.354   0.976
45417W        W17143  13.736   3.259  11.924
45418W        W17144  30.884   5.118   3.272
45419W        W17145  21.263  20.781  12.465
45420W        W17146  22.868   1.707  11.566
45421W        W17147   8.099  26.550   4.207
45422W        W17148  21.513  29.549  12.539
45423W        W17149  23.004  12.906  14.243
45424W        W17150  22.511  19.335   0.935
45425W        W17151  34.446  25.166  13.053
45426W        W17152  31.845  38.238   2.001
45427W        W17153  20.709  11.884   3.333
45428W        W17154  24.956  36.696  13.307
45429W        W17155  38.835   0.419   2.557
45430W        W17156  28.326  20.982  11.681
45431W        W17157  40.511  27.990   3.102
45432W        W17158  15.661  24.218   0.631
45433W        W17159  36.334  15.023  10.470
45434W        W17160  18.117  14.124   3.170
45435W        W17161  16.302  14.156  13.520
45436W        W17162  39.273  25.713   4.188
45437W        W17163  23.206  15.450   4.520
45438W        W17164  44.734  33.817   3.900
45439W        W17165  28.749   2.912   0.792
45440W        W17166  13.938  24.088   3.439
45441W        W17167  30.861   1.964   1.431
45442W        W17168  27.483  35.309   1.261
45443W        W17169  44.920  28.095   2.803
45444W        W17170  21.567  11.934  14.414
45445W        W17171  15.756   3.619   5.119
45446W        W17172  27.458  44.872   4.661
45447W        W17173   7.221  44.515  13.370
45448W        W17174  38.501  42.886   0.896
45449W        W17175   6.764  42.427   3.668
45450W        W17176  37.477   1.537  14.544
45451W        W17177   8.951   1.209  13.913
45452W        W17178  22.612  14.849  13.007
45453W        W17179  28.493   2.525  14.055
45454W        W17180  32.707  25.424  12.481
45455W        W17181   3.503  37.460   3.625
45456W        W17182   9.890  41.506  11.511
45457W        W17183  19.174  40.311  10.711
45458W        W17184   7.152   2.734  11.040
45459W        W17185   0.429   7.267   0.781
45460W        W17186  19.129   8.786   3.870
45461W        W17187  13.640  29.874   1.041
45462W        W17188  19.977  31.254  12.051
45463W        W17189  18.773  12.347   3.158
45464W        W17190  36.989   1.203  11.309
45465W        W17191  44.319  10.422   0.502
45466W        W17192  24.474   6.646   3.354
45467W        W17193   7.414  22.144   0.198
45468W        W17194  39.284  19.146  13.760
45469W        W17195  18.492   7.353   1.437
45470W        W17196  39.996  11.705  12.612
45471W        W17197  38.787   2.316   0.156
45472W        W17198  38.399  21.776  13.026
45473W        W17199   0.369  29.438  13.132
45474W        W17200  43.128   7.281   0.912
45475W        W17201  44.907  27.207   0.491
45476W        W17202  21.766  13.052   0.881
45477W        W17203  26.278  39.928   4.510
45478W        W17204  14.590   1.357   4.876
45479W        W17205   4.666  10.255  13.538
45480W        W17206  15.717   9.135   1.371
45481W        W17207  40.985  19.348   1.224
45482W        W17208  27.153  31.108   3.605
45483W        W17209  16.086   3.504  12.080
45484W        W17210  42.855  43.060   2.721
45485W        W17211  32.520  37.834   0.842
45486W        W17212   1.965  37.466   2.251
45487W        W17213  36.434   0.555  11.974
45488W        W17214  31.975   2.955  13.613
45489W        W17215   2.940  35.956   3.070
45490W        W17216  30.365  37.888   5.010
45491W        W17217  35.504   0.912  11.289
45492W        W17218  38.918  44.526   1.775
45493W        W17219  34.951  21.666  13.075
45494W        W17220   3.864  13.923  13.239
45495W        W17221  42.979   3.385   3.685
45496W        W17222   3.734  37.562  13.998
45497W        W17223   6.714   2.168  11.385
45498W        W17224  15.235  30.539  13.949
45499W        W17225   0.299  16.200   0.922
45500W        W17226  17.433   7.855   0.925
45501W        W17227  22.645   5.003   1.739
45502W        W17228  39.973   9.195   1.370
45503W        W17229  39.944   6.423  14.827
45504W        W17230  11.300   7.625   4.760
45505W        W17231   6.634  26.934   0.275
45506W        W17232  25.564  11.702   0.509
45507W        W17233  23.633  17.966   2.353
45508W        W17234  30.942  21.989   2.859
45509W        W17235  32.484   2.193  11.479
45510W        W17236   7.314   0.979   3.591
45511W        W17237  19.525  44.049  12.352
45512W        W17238  22.680  14.825   1.459
45513W        W17239   3.920  27.052  14.067
45514W        W17240  20.275  13.579   2.913
45515W        W17241  14.280   3.481  14.677
45516W        W17242   4.233  19.103  13.828
45517W        W17243  17.296  15.309   2.306
45518W        W17244  13.994  39.348   0.999
45519W        W17245   4.806   0.038  13.473
45520W        W17246  36.061  42.306   3.399
45521W        W17247  12.694  36.149  11.520
45522W        W17248   8.428  38.593  13.340
45523W        W17249   8.723   2.252  13.433
45524W        W17250  17.820  10.557  13.581
45525W        W17251  29.884  26.898  11.124
45526W        W17252   5.467  15.213   5.085
45527W        W17253  23.185  33.796   0.707
45528W        W17254  34.592   1.367  12.623
45529W        W17255  35.075  26.432   5.059
45530W        W17256  27.327  27.130  13.897
45531W        W17257  41.931  29.490  13.183
45532W        W17258  43.950  33.167  10.736
45533W        W17259  41.480  44.401   3.783
45534W        W17260  11.697   1.169   2.172
45535W        W17261  26.621  38.119   2.342
45536W        W17262  15.764  25.520   1.880
45537W        W17263  16.014  23.020  14.353
45538W        W17264  24.451  35.907   0.871
45539W        W17265  28.920  32.688   4.215
45540W        W17266  12.574  19.054  11.634
45541W        W17267  29.673  38.534  12.555
45542W        W17268  38.084  37.022  13.982
45543W        W17269   0.477  14.602   4.078
45544W        W17270  10.286  11.637   4.593
45545W        W17271  31.943   0.503  11.904
45546W        W17272   3.346  37.362   0.809
45547W        W17273  19.227  27.734  13.111
45548W        W17274  39.997   5.459  14.999
45549W        W17275  40.430  34.653   4.208
45550W        W17276  31.082  38.963  10.744
45551W        W17277  19.940   3.263   0.932
45552W        W17278  36.545   3.873   2.266
45553W        W17279  40.032  39.751   4.078
45554W        W17280  36.403  43.205   2.306
45555W        W17281   0.648  36.058  12.908
45556W        W17282  16.064   0.481  11.598
45557W        W17283   8.481  41.981  12.584
45558W        W17284   4.886  31.622  13.850
45559W        W17285  43.875  18.728   4.302
45560W        W17286   5.353  19.282   4.370
45561W        W17287   3.866  39.767   3.520
45562W        W17288  36.570  29.917  10.958
45563W        W17289  19.890  27.042   4.036
45564W        W17290  34.548  42.731   3.761
45565W        W17291  22.310  15.743  13.038
45566W        W17292   7.570   7.292   4.166
45567W        W17293  22.382  36.710  14.967
45568W        W17294  25.947  14.046  13.390
45569W        W17295  16.176  42.464   2.333
45570W        W17296  41.962  20.784  11.771
45571W        W17297  16.023  32.953   3.240
45572W        W17298  33.703   7.315  13.741
45573W        W17299  38.717   8.191   2.318
45574W        W17300  30.657  13.546   0.777
45575W        W17301  27.531  38.312   0.870
45576W        W17302  22.331  10.756   3.803
45577W        W17303  29.898  36.441   3.143
45578W        W17304  31.852   2.307   3.454
45579W        W17305  25.333  25.296   4.141
45580W        W17306  10.649   2.893   1.015
45581W        W17307   4.697  41.202  12.034
45582W        W17308  24.380   5.268  12.600
45583W        W17309   3.237  12.999  11.535
45584W        W17310  36.076  33.957  13.072
45585W        W17311  44.852  42.571   3.373
45586W        W17312   1.309  11.407  12.155
45587W        W17313   4.287  37.305  13.355
45588W        W17314  36.820  19.776  14.252
45589W        W17315   5.788  42.516   0.859
45590W        W17316  43.302  32.458  12.086
45591W        W17317  36.545  26.389   9.913
45592W        W17318  10.589  40.293   3.370
45593W        W17319  20.585  12.466   0.389
45594W        W17320  22.736  16.175  11.227
45595W        W17321  19.209  17.991   3.281
45596W        W17322  22.250  22.560  12.920
45597W        W17323  36.777  41.358  13.798
45598W        W17324  21.655   0.596   4.391
45599W        W17325  16.124  31.408  13.855
45600W        W17326   6.167   4.887  13.603
45601W        W17327  15.299  30.473  11.633
45602W        W17328  13.928  31.729  11.222
45603W        W17329  31.121  42.119   0.352
45604W        W17330  41.403  35.721   3.255
45605W        W17331  18.087  19.237   2.345
45606W        W17332   7.248   3.505  13.349
45607W        W17333  28.413  44.397   1.159
45608W        W17334   2.258   3.709   0.266
45609W        W17335  42.491  20.308  14.940
45610W        W17336  28.968  20.211   4.646
45611W        W17337  17.742  32.550   1.755
45612W        W17338  39.898  37.889   0.017
45613W        W17339  13.711  23.208  12.972
45614W        W17340   8.167  23.918  11.542
45615W        W17341  33.127  17.860  13.471
45616W        W17342  19.806   2.052  11.277
45617W        W17343  35.348  22.169   0.382
45618W        W17344  35.530  24.042  10.635
45619W        W17345  30.323  19.122   3.738
45620W        W17346  25.508  12.652  11.653
45621W        W17347   8.905  44.244   2.488
45622W        W17348  23.595  39.628   3.754
45623W        W17349  26.114  16.604   2.709
45624W        W17350   8.021   4.458  10.380
45625W        W17351  39.425  41.953   0.270
45626W        W17352  31.130  19.752   3.585
45627W        W17353  44.737  10.068   2.986
45628W        W17354   7.470  40.378   1.794
45629W        W17355   8.914  28.553  12.926
45630W        W17356  28.154  43.858   0.230
45631W        W17357   2.825  19.105   2.483
45632W        W17358  34.641  30.654   4.011
45633W        W17359  17.373   1.829  14.717
45634W        W17360  33.330   1.245  12.325
45635W        W17361   9.890   9.334   3.757
45636W        W17362  43.196  13.759   2.845
45637W        W17363  32.574  18.306   4.492
45638W        W17364  25.809  26.599  13.002
45639W        W17365  27.438  34.271  13.012
45640W        W17366  39.380  16.950  13.893
45641W        W17367   8.047  29.140   3.970
45642W        W17368  15.793  39.594   2.606
45643W        W17369  11.189  33.606   2.329
45644W        W17370  42.413  18.609  14.710
45645W        W17371  22.282   0.809   0.525
45646W        W17372  19.075   4.764   3.666
45647W        W17373  25.996  31.114  14.029
45648W        W17374  41.431  13.669  14.508
45649W        W17375  43.855   7.279  13.576
45650W        W17376  14.866  16.056   3.117
45651W        W17377   8.581  13.352  12.278
45652W        W17378  17.653  31.432   2.398
45653W        W17379  26.509  13.771   1.566
45654W        W17380  29.465  38.276  13.468
45655W        W17381  30.422  25.994  14.926
45656W        W17382  23.981  23.597  13.763
45657W        W17383   0.466   5.126  11.134
45658W        W17384  37.203   5.365  11.183
45659W        W17385  43.487  44.925   1.313
45660W        W17386  43.688   1.024   0.471
45661W        W17387  39.924  17.964  12.068
45662W        W17388  39.647  15.087  13.026
45663W        W17389  23.438   8.178   2.529
45664W        W17390  17.361   8.347  11.631
45665W        W17391  41.048   9.908  14.304
45666W        W17392  44.913  42.760   0.837
45667W        W17393  40.346   7.007   1.080
45668W        W17394   9.060  15.878  10.845
45669W        W17395  36.672  39.301  12.434
45670W        W17396  18.810  38.251  13.962
45671W        W17397   5.945  10.729   1.439
45672W        W17398  40.484   2.697  12.445
45673W        W17399  26.961   1.774  12.080
45674W        W17400  24.739  14.585   1.354
45675W        W17401  12.821   8.160  12.539
45676W        W17402  18.830  28.549  13.368
45677W        W17403  38.636  31.426   0.949
45678W        W17404  15.748  37.342   3.188
45679W        W17405  38.957  31.686  13.520
45680W        W17406  27.052  27.435  12.126
45681W        W17407  24.690  28.263  13.441
45682W        W17408  20.023  33.711  13.438
45683W        W17409  27.122  39.100   4.557
45684W        W17410  14.787  40.542  11.520
45685W        W17411  26.536  37.622   2.326
45686W        W17412  13.942   7.874   2.747
45687W        W17413   7.240  31.711   4.889
45688W        W17414  13.217  39.916   0.735
45689W        W17415   5.228  42.781   4.453
45690W        W17416  10.300   1.671   4.864
45691W        W17417  30.931  10.098   0.805
45692W        W17418  19.309  13.149   0.816
45693W        W17419   1.712   7.331   3.492
45694W        W17420  10.593  14.814   0.639
45695W        W17421  26.225  13.334  11.111
45696W        W17422  36.414  32.014   4.672
45697W        W17423  23.926  39.928  12.105
45698W        W17424  12.255  36.863   3.581
45699W        W17425   3.491  25.516   0.867
45700W        W17426  41.591   4.404   1.824
45701W        W17427  20.286  37.324  14.333
45702W        W17428   6.209  26.200   5.123
45703W        W17429  27.046  19.335  12.395
45704W        W17430  35.961  43.006  14.803
45705W        W17431   3.946  24.663  14.274
45706W        W17432  16.111  24.648   2.764
45707W        W17433   0.774  19.270  11.058
45708W        W17434  40.111  11.193   3.326
45709W        W17435  29.416  30.409   2.142
45710W        W17436  15.180   7.427  13.965
45711W        W17437  20.817  43.023  14.310
45712W        W17438   0.026   6.080  10.007
45713W        W17439   4.917  22.683   2.599
45714W        W17440  29.305  25.667   4.620
45715W        W17441  25.428  13.427   4.192
45716W        W17442  42.909  15.515   4.348
45717W        W17443  13.211   3.242  10.777
45718W        W17444  17.843  14.717  14.965
45719W        W17445  20.774  21.209  14.960
45720W        W17446  21.745  41.894   0.929
45721W        W17447   4.654  42.575   1.898
45722W        W17448  16.602  38.285  14.308
45723W        W17449  43.973  13.874  14.080
45724W        W17450  13.361  22.175   2.221
45725W        W17451  42.475  36.470   4.887
45726W        W17452   0.358  14.102   1.896
45727W        W17453   5.096  23.584   0.588
45728W        W17454  33.069  24.075   1.234
45729W        W17455  30.701  34.654  14.036
45730W        W17456  22.092   0.497   1.362
45731W        W17457   5.675   7.731  11.017
45732W        W17458  16.776  42.873  12.034
45733W        W17459  30.445  44.537   0.046
45734W        W17460  28.078   5.541  11.278
45735W        W17461   3.359   7.754  13.928
45736W        W17462  37.106   5.105  11.626
45737W        W17463  36.776   3.675   0.019
45738W        W17464  34.873   3.381   0.454
45739W        W17465  27.471  30.097   0.959
45740W        W17466  10.651  36.204   3.059
45741W        W17467  24.592  10.925  11.410
45742W        W17468  14.723  33.959  11.485
45743W        W17469  37.840  12.720   0.785
45744W        W17470  19.358  16.012   1.741
45745W        W17471   8.357  36.050   0.792
45746W        W17472   9.900   2.262   0.305
45747W        W17473   3.233   9.899  14.899
45748W        W17474   1.492  39.031  12.435
45749W        W17475  12.098  33.360  14.549
45750W        W17476  19.341  38.794   3.527
45751W        W17477  43.326  33.696  14.300
45752W        W17478  14.393  29.375  10.636
45753W        W17479  40.723  32.382  10.780
45754W        W17480  35.355  24.647   3.718
45755W        W17481  42.904  27.630  12.720
45756W        W17482  24.127   9.414  11.475
45757W        W17483  16.840  22.651  14.714
45758W        W17484   0.538  43.033   4.613
45759W        W17485  28.001  22.259   1.445
45760W        W17486  34.133  40.325   1.690
45761W        W17487  30.732  11.831   1.858
45762W        W17488  41.351  22.068   0.998
45763W        W17489  28.410   8.193  13.448
45764W        W17490  24.548  37.823   4.598
45765W        W17491   2.545  19.684   4.643
45766W        W17492  16.142  41.028   0.400
45767W        W17493   7.645   0.178  10.983
45768W        W17494   3.291   8.379   2.410
45769W        W17495  16.982   0.428  11.513
45770W        W17496  41.959   9.497  11.644
45771W        W17497   6.478  34.962   0.827
45772W        W17498  27.517  20.126   3.139
45773W        W17499  14.209  44.756   1.097
45774W        W17500   1.914  10.576  14.545
45775W        W17501  28.161  39.866   2.440
45776W        W17502  42.025   7.822  14.011
45777W        W17503   5.829  15.661   2.927
45778W        W17504  32.416   5.474  13.765
45779W        W17505  36.344   7.958   0.833
45780W        W17506   3.903  10.845  13.334
45781W        W17507  25.933  26.936   2.054
45782W        W17508  36.845   0.677   1.660
45783W        W17509   1.863  19.314  13.017
45784W        W17510  10.382   6.415   0.872
45785W        W17511  16.113  36.872  13.392
45786W        W17512  13.673  24.108  14.084
45787W        W17513  35.662  42.838  12.673
45788W        W17514  13.623  10.840  11.601
45789W        W17515  36.170  24.509  12.486
45790W        W17516  30.879  16.676   0.230
45791W        W17517   9.841   4.362   1.309
45792W        W17518  10.188  41.554  13.451
45793W        W17519  36.572   7.798  14.932
45794W        W17520  22.942   7.496   2.850
45795W        W17521  17.114  15.754  13.792
45796W        W17522  15.519  15.360   1.925
45797W        W17523   1.875  16.381  13.327
45798W        W17524   2.552   9.644   2.692
45799W        W17525   0.653  22.298  13.044
45800W        W17526  25.540   8.075   2.021
45801W        W17527   3.110  25.962  14.369
45802W        W17528  32.487   7.165   1.213
45803W        W17529  11.314  28.676  11.518
45804W        W17530   6.161  26.673  10.717
45805W        W17531  23.618  24.374  13.381
45806W        W17532   6.489  38.090   4.212
45807W        W17533   4.687   1.870  13.700
45808W        W17534  36.469  17.336  14.520
45809W        W17535  18.527  15.710  14.061
45810W        W17536  30.584   9.366   0.340
45811W        W17537  39.854  12.860  10.729
45812W        W17538  35.366  26.238  13.099
45813W        W17539  30.145  29.485  14.793
45814W        W17540   6.839  13.425   4.629
45815W        W17541  38.825   6.382   3.694
45816W        W17542  20.154   5.402  12.987
45817W        W17543   9.595  25.805  13.716
45818W        W17544  22.573  23.579   2.234
45819W        W17545  22.649   1.334  12.424
45820W        W17546  23.539  15.599  13.279
45821W        W17547  20.316   3.193  10.730
45822W        W17548  10.779  20.624  11.947
45823W        W17549  38.503  42.069  13.571
45824W        W17550  34.854  15.545  11.564
45825W        W17551  24.613  38.590  12.028
45826W        W17552  28.193  19.056  12.180
45827W        W17553  42.250   5.152   0.314
45828W        W17554  22.643   6.312  12.821
45829W        W17555  15.118  36.047  10.672
45830W        W17556  43.985  30.698  14.500
45831W        W17557   9.165  11.642  10.641
45832W        W17558   2.793  11.275  13.881
45833W        W17559  18.992  42.955  10.814
45834W        W17560   4.855  29.976   1.258
45835W        W17561  40.859  34.676   3.431
45836W        W17562  25.209  20.409   1.404
45837W        W17563  44.398  32.922  11.431
45838W        W17564  12.124  33.500  11.898
45839W        W17565  41.993  18.200   0.274
45840W        W17566  38.741  11.245  10.614
45841W        W17567   3.922  41.916  11.464
45842W        W17568  30.195   3.348  13.109
45843W        W17569   4.292   6.282   2.083
45844W        W17570  25.712  22.298  10.843
45845W        W17571   5.772   1.935   1.369
45846W        W17572  41.897  19.025  11.654
45847W        W17573  37.551  11.795   1.839
45848W        W17574   5.379  34.945   3.229
45849W        W17575  36.969  13.648   0.699
45850W        W17576   8.135  37.132   1.762
45851W        W17577  43.187  16.477   4.423
45852W        W17578  27.579  22.484   2.755
45853W        W17579   5.207  13.814   3.798
45854W        W17580  23.545  39.590   3.204
45855W        W17581   2.199  42.308  11.563
45856W        W17582   1.769  35.057   0.504
45857W        W17583   0.904  40.100  14.130
45858W        W17584  29.002  22.947  14.368
45859W        W17585  16.771  38.605  12.035
45860W        W17586  15.711   0.313  13.948
45861W        W17587  22.601  36.882  10.935
45862W        W17588  29.160   2.916  11.980
45863W        W17589   3.007   7.499  12.016
45864W        W17590  33.434   7.448  10.841
45865W        W17591  29.901   1.326   0.374
45866W        W17592  32.297  15.709   2.083
45867W        W17593  15.768   3.904   1.694
45868W        W17594  32.568  32.081   3.180
45869W        W17595  21.495   9.061  11.790
45870W        W17596  11.928  15.575   3.110
45871W        W17597  13.594  15.129   4.610
45872W        W17598  25.531  37.756   1.381
45873W        W17599  11.863  29.945   0.864
45874W        W17600  14.300  22.259  10.605
45875W        W17601   4.946  41.297  12.924
45876W        W17602   6.227  13.376  12.496
45877W        W17603  31.838  17.316   0.495
45878W        W17604  23.207  32.657   1.860
45879W        W17605  24.134  25.145   3.663
45880W        W17606  32.334  42.525   3.125
45881W        W17607   4.238   3.302   1.906
45882W        W17608   2.498  30.455   2.945
45883W        W17609  20.551  18.703   0.353
45884W        W17610  44.282   1.501  14.042
45885W        W17611  28.905  27.944   2.682
45886W        W17612  14.286  23.243  12.581
45887W        W17613  18.207  22.972  13.326
45888W        W17614  37.033  29.559  11.593
45889W        W17615  31.428  16.751  14.405
45890W        W17616   4.492  32.903  10.932
45891W        W17617   5.920  39.341   2.720
45892W        W17618  15.725  34.706  10.634
45893W        W17619  35.591  16.263   1.942
45894W        W17620  29.670   9.299  13.839
45895W        W17621  25.647  36.862  12.581
45896W        W17622  33.040  14.169   4.219
45897W        W17623  36.019  36.496   3.895
45898W        W17624  21.193   8.437   2.814
45899W        W17625   0.442  36.249   0.500
45900W        W17626  15.482  38.597   2.895
45901W        W17627  39.961  33.167  11.725
45902W        W17628  15.547  39.885  10.662
45903W        W17629  23.151  40.797  14.394
45904W        W17630  32.085   0.552  13.766
45905W        W17631  37.360  31.606  12.578
45906W        W17632  43.563   7.731  12.940
45907W        W17633  34.569  38.560  11.597
45908W        W17634  18.166  34.218  11.352
45909W        W17635  28.587  10.345  12.316
45910W        W17636  16.044  15.197  11.536
45911W        W17637  29.846  18.875  14.886
45912W        W17638   4.675  27.126  14.392
45913W        W17639  37.637  30.371  13.907
45914W        W17640  33.448  33.401   1.392
45915W        W17641  32.793  27.457  11.954
45916W        W17642  27.464  42.027   2.419
45917W        W17643  25.982   2.265   1.304
45918W        W17644  20.453  41.376  14.949
45919W        W17645  42.443  30.188   2.783
45920W        W17646   1.687   6.770   1.218
45921W        W17647   9.887  36.186  12.948
45922W        W17648  41.403  25.044   1.730
45923W        W17649  44.947  44.797  12.371
45924W        W17650  16.674  36.327  14.050
45925W        W17651   6.151  16.872  13.937
45926W        W17652  43.563  28.331  13.067
45927W        W17653  21.712   4.226   0.069
45928W        W17654  21.744  14.083  12.366
45929W        W17655   0.891   9.458   0.897
45930W        W17656  42.987  28.168   2.164
45931W        W17657   8.252  34.388   4.567
45932W        W17658  31.091  12.656   1.948
45933W        W17659  11.663  33.153  12.524
45934W        W17660  23.164  35.553  14.709
45935W        W17661  27.652  26.111  10.334
45936W        W17662  40.711  31.173  13.810
45937W        W17663  14.617   5.504   2.512
45938W        W17664   4.692  38.298   2.642
45939W        W17665  30.569   8.575   4.511
45940W        W17666  22.175  34.889   4.910
45941W        W17667  15.961  19.490  13.185
45942W        W17668   9.039  31.419  14.918
45943W        W17669  12.542  27.913  12.924
45944W        W17670  12.295  37.981   0.517
45945W        W17671  14.850  32.600  12.607
45946W        W17672   8.270   1.910  14.909
45947W        W17673  23.038  20.441  14.349
45948W        W17674  29.034   3.127   0.368
45949W        W17675  37.666   1.483   0.487
45950W        W17676  33.682  23.352  14.601
45951W        W17677  11.668  17.953  12.190
45952W        W17678  31.673  10.736   2.377
45953W        W17679  44.996  23.981   2.075
45954W        W17680  21.745  32.906  12.492
45955W        W17681  31.907  19.508  11.267
45956W        W17682  32.535  34.673  10.468
45957W        W17683  34.522   5.889  14.895
45958W        W17684   2.505  19.166  10.989
45959W        W17685  18.703  32.352   0.942
45960W        W17686  25.945  31.632  14.006
45961W        W17687  26.018  13.117  14.743
45962W        W17688   3.890  24.245  13.770
45963W        W17689   2.630  10.880   3.847
45964W        W17690  20.391   2.755   2.817
45965W        W17691   5.660  10.327  12.458
45966W        W17692  17.628  39.986  14.723
45967W        W17693   8.668  25.619   5.094
45968W        W17694   4.776   3.540  10.507
45969W        W17695  17.334  43.353  14.262
45970W        W17696  19.565  30.826  13.836
45971W        W17697  17.065  20.524   0.904
45972W        W17698  21.607  34.873   3.557
45973W        W17699  36.787   7.076  14.077
45974W        W17700   5.684  39.486  11.330
45975W        W17701  39.206  17.882   4.113
45976W        W17702   3.697  17.100  14.533
45977W        W17703  41.469  43.070   1.807
45978W        W17704  37.560  35.821   4.521
45979W        W17705  14.669  18.576   3.619
45980W        W17706  10.148  31.040  14.221
45981W        W17707  19.315  12.444  13.788
45982W        W17708  16.107  27.960  13.912
45983W        W17709  36.394  37.449   2.807
45984W        W17710  31.429  16.794   1.263
45985W        W17711   2.248  39.794  12.005
45986W        W17712  33.990  11.475   1.210
45987W        W17713  38.493  37.585  11.221
45988W        W17714  14.218  40.443  10.075
45989W        W17715   0.481   6.988  12.573
45990W        W17716  16.685   9.198   0.052
45991W        W17717  29.377  18.163  11.268
45992W        W17718  21.508  24.599  14.515
45993W        W17719  17.585  19.721   0.330
45994W        W17720   6.214  10.946   0.034
45995W        W17721  34.373  13.182   1.852
45996W        W17722  22.721  11.799  13.733
45997W        W17723   5.950   2.746  11.553
45998W        W17724  37.383  27.051  12.659
45999W        W17725  10.610  34.413  11.400
46000W        W17726  26.551  28.983  14.387
46001W        W17727   2.286  17.679  12.436
46002W        W17728   9.597   2.465  12.001
46003W        W17729  35.654   1.949  14.687
46004W        W17730  43.089   8.814   1.524
46005W        W17731   7.631   2.854  10.920
46006W        W17732  17.461  11.256   4.084
46007W        W17733  29.693  20.760  12.109
46008W        W17734   2.078  21.628   1.213
46009W        W17735  37.451   4.607  14.432
46010W        W17736   4.912   2.165   2.737
46011W        W17737  24.537  24.666  14.170
46012W        W17738  37.331  15.610  11.133
46013W        W17739  38.908  11.369   3.707
46014W        W17740   8.159   5.027  11.926
46015W        W17741  19.177  11.346  13.777
46016W        W17742   3.951  24.208   0.196
46017W        W17743  11.442  37.364  11.661
46018W        W17744  33.849  21.982   2.667
46019W        W17745  38.951  44.363  11.477
46020W        W17746   9.237   6.865   1.906
46021W        W17747  33.892  13.627  11.377
46022W        W17748   4.786   4.650  10.201
46023W        W17749  43.001   2.048  13.880
46024W        W17750  14.983  13.112   1.436
46025W        W17751  18.049  38.952  14.897
46026W        W17752  13.773  17.818  10.632
46027W        W17753  42.792  24.214  11.055
46028W        W17754  32.969  25.433  11.132
46029W        W17755  44.778  35.856  10.767
46030W        W17756   3.164  39.537   0.332
46031W        W17757  21.427  34.444   0.656
46032W        W17758  34.617  33.152   0.009
46033W        W17759  34.796  16.777   1.940
46034W        W17760  17.813  29.188   0.017
46035W        W17761  39.314   7.692   4.180
46036W        W17762  44.494   2.434   2.110
46037W        W17763  11.179  42.842   1.713
46038W        W17764  30.479   3.266  12.109
46039W        W17765   5.200   3.831  10.446
46040W        W17766  40.370  30.946  12.886
46041W        W17767  34.931  43.464   3.774
46042W        W17768  21.212  25.217  10.737
46043W        W17769  14.295  21.576  13.796
46044W        W17770  27.054  43.698   2.655
46045W        W17771  19.093  13.048  12.909
46046W        W17772  15.722   7.586   2.567
46047W        W17773  29.482  14.726   0.719
46048W        W17774  10.164  19.967  10.868
46049W        W17775  22.352  23.526   4.210
46050W        W17776  11.840  13.040   3.794
46051W        W17777  26.004  34.362  10.752
46052W        W17778  14.378   8.737  12.133
46053W        W17779  10.641  38.791  13.372
46054W        W17780  44.953  37.900   4.821
46055W        W17781  33.211  24.294  11.146
46056W        W17782   7.589  23.111   4.533
46057W        W17783   7.253  44.769   2.756
46058W        W17784  10.595  24.072  13.785
46059W        W17785  40.303  16.464  12.468
46060W        W17786  39.907  40.448  13.288
46061W        W17787  12.091   4.167  13.353
46062W        W17788   0.030  35.384  12.502
46063W        W17789  12.309  36.242  12.921
46064W        W17790  30.010   9.855   2.761
46065W        W17791  28.554  38.166   3.678
46066W        W17792  15.145   7.178   4.448
46067W        W17793  30.140  27.197  13.823
46068W        W17794  21.629  35.096  12.815
46069W        W17795   9.162  38.259  11.417
46070W        W17796  19.241  33.039  11.722
46071W        W17797  40.972   1.308   1.628
46072W        W17798  32.046  12.381   2.507
46073W        W17799  12.650   4.351  11.697
46074W        W17800  37.157  12.268  12.983
46075W        W17801   6.616  24.687  12.202
46076W        W17802  19.992  18.975   4.315
46077W        W17803  37.073   9.447   0.470
46078W        W17804   0.223  41.282   1.788
46079W        W17805  18.315  13.163   2.318
46080W        W17806  11.656   7.557   3.204
46081W        W17807   2.751  34.455   1.838
46082W        W17808   0.887  22.211  12.582
46083W        W17809   9.213  18.465   0.998
46084W        W17810  26.978  22.777  11.008
46085W        W17811   6.182  34.592  11.928
46086W        W17812  32.376  19.517   3.750
46087W        W17813  22.589  26.599   1.230
46088W        W17814  23.992  27.519   5.056
46089W        W17815  11.311  15.409  11.533
46090W        W17816  27.155  28.490   2.590
46091W        W17817  23.128   2.384   1.796
46092W        W17818  17.069   2.797  12.095
46093W        W17819  38.907  32.428   4.143
46094W        W17820  27.057  44.446   0.038
46095W        W17821  26.509   1.304  14.539
46096W        W17822  10.853  14.069   0.324
46097W        W17823  14.801  16.899  11.672
46098W        W17824  43.307  22.158   0.869
46099W        W17825  24.516   8.796  12.114
46100W        W17826  27.458  21.901  12.583
46101W        W17827   6.002  39.558  12.799
46102W        W17828  23.870  25.052  11.885
46103W        W17829  28.101  44.390   0.075
46104W        W17830  28.073  42.056   0.835
46105W        W17831  36.306  32.077  11.942
46106W        W17832  11.340  26.064  13.061
46107W        W17833  40.353  26.439   1.402
46108W        W17834  17.857  14.664  11.185
46109W        W17835  42.834  22.542  13.924
46110W        W17836   1.217  14.206  12.046
46111W        W17837  23.029  24.650   4.406
46112W        W17838  36.406  15.051   4.641
46113W        W17839  27.921  33.010  11.109
46114W        W17840  15.351   8.760  13.469
46115W        W17841   5.493  39.895   4.208
46116W        W17842   6.492  15.594  13.993
46117W        W17843  32.249   8.865   3.025
46118W        W17844  40.977  30.039   3.407
46119W        W17845  27.377  11.812  10.480
46120W        W17846  40.103  25.535   3.828
46121W        W17847   5.439  36.951   3.744
46122W        W17848  35.258   1.091  13.017
46123W        W17849  42.937   1.462  10.651
46124W        W17850  35.443  27.149  12.923
46125W        W17851   5.766  43.947   2.453
46126W        W17852  25.618  34.944  14.390
46127W        W17853  40.523  41.288   1.879
46128W        W17854  35.885   5.674   3.176
46129W        W17855  11.613  42.496  13.858
46130W        W17856   3.445  30.164   1.783
46131W        W17857  28.044   5.702   4.580
46132W        W17858  12.528  23.208   1.611
46133W        W17859  20.304  38.393  12.522
46134W        W17860  14.270  10.608   1.378
46135W        W17861  29.914  11.169   4.232
46136W        W17862  26.465  17.795   0.826
46137W        W17863  32.766   6.201   1.540
46138W        W17864  38.446  41.127  13.601
46139W        W17865  31.017  23.701  13.383
46140W        W17866  21.694  36.075   3.178
46141W        W17867  41.354  12.166   0.882
46142W        W17868  44.554  10.132  11.990
46143W        W17869  37.333  37.448   2.830
46144W        W17870  29.432  40.991  12.027
46145W        W17871  20.055  36.317  13.872
46146W        W17872  15.022   2.536  13.441
46147W        W17873  21.505  32.546   4.170
46148W        W17874  10.214   2.841   0.733
46149W        W17875   7.583  29.261   3.766
46150W        W17876   8.208  41.304   2.065
46151W        W17877  36.366  23.569   4.305
46152W        W17878  12.147  42.908  12.903
46153W        W17879  31.209  23.165   1.874
46154W        W17880  12.581  31.517   2.138
46155W        W17881  11.675  14.232  14.730
46156W        W17882  42.094  28.575   2.133
46157W        W17883  15.054  10.293  11.722
46158W        W17884  32.223  10.208   2.728
46159W        W17885   0.872  43.963  12.044
46160W        W17886  30.848  30.790  12.023
46161W        W17887  16.744  28.160  13.132
46162W        W17888  24.598   2.667  14.181
46163W        W17889   3.262  32.575   2.268
46164W        W17890   4.293  16.711   0.388
46165W        W17891   9.951  42.331   3.261
46166W        W17892  38.297   7.721   0.472
46167W        W17893  20.086  32.912   0.510
46168W        W17894  44.238  26.884  11.678
46169W        W17895   3.753   3.301  13.435
46170W        W17896  28.618  33.540   3.361
46171W        W17897   4.542  29.974   3.264
46172W        W17898   2.328  30.989   1.802
46173W        W17899  31.198  13.322   1.319
46174W        W17900  24.632  20.643   4.631
46175W        W17901  43.847   6.914  10.363
46176W        W17902   0.291  43.410  10.460
46177W        W17903   5.722  31.867   0.863
46178W        W17904  11.396  40.406   2.316
46179W        W17905  28.217   0.086   5.033
46180W        W17906  35.903  35.375   1.331
46181W        W17907   2.362   4.829   5.105
46182W        W17908  29.642   9.626   3.719
46183W        W17909  24.469  39.905  11.108
46184W        W17910   0.233  35.001   0.582
46185W        W17911  10.445  29.399  14.921
46186W        W17912  36.554  23.987   4.584
46187W        W17913   2.235   4.529  12.486
46188W        W17914  18.847  16.748  13.450
46189W        W17915  29.538  10.571   0.817
46190W        W17916  19.113  40.309  14.441
46191W        W17917  25.010  13.325   3.910
46192W        W17918  29.884  32.123  13.784
46193W        W17919  37.936   7.333   4.046
46194W        W17920  20.452   7.974  14.418
46195W        W17921  24.704   7.910  12.276
46196W        W17922  42.172  27.681   2.386
46197W        W17923  19.988  18.767  13.814
46198W        W17924  19.977  20.816  14.838
46199W        W17925  23.772  27.875  13.272
46200W        W17926  30.384  40.566   2.830
46201W        W17927  37.426  20.113   2.272
46202W        W17928  28.325  30.401   3.622
46203W        W17929  27.171   2.743   3.851
46204W        W17930  28.858  40.344  13.899
46205W        W17931  18.340  27.367   0.704
46206W        W17932  40.496  32.607  14.336
46207W        W17933  29.871  27.512  12.877
46208W        W17934  20.067  24.904  14.931
46209W        W17935  27.466  21.716   2.248
46210W        W17936   7.889  41.496   4.580
46211W        W17937   4.817  41.757   0.495
46212W        W17938  23.788  23.883   0.375
46213W        W17939  32.920  35.361   2.198
46214W        W17940  13.544  41.566  10.558
46215W        W17941  41.829  10.615   1.306
46216W        W17942  44.689  34.501   1.208
46217W        W17943  31.970  20.395   2.682
46218W        W17944  29.133  16.054   1.391
46219W        W17945  15.334  44.147   0.399
46220W        W17946  26.884   7.279   3.652
46221W        W17947  43.843  33.473   1.733
46222W        W17948  19.085  24.251  14.903
46223W        W17949   1.668  24.800  13.257
46224W        W17950   6.703  13.592   9.812
46225W        W17951  37.843   8.959   3.385
46226W        W17952  39.168   0.560   0.888
46227W        W17953  10.087  38.361  12.570
46228W        W17954   9.215  21.443  14.392
46229W        W17955  41.391  30.781   0.340
46230W        W17956  31.649  21.108   3.723
46231W        W17957  44.539  14.514  11.668
46232W        W17958  14.757  11.719   0.226
46233W        W17959  18.623  35.565  14.492
46234W        W17960  21.358  23.467   4.335
46235W        W17961  42.361  27.578   4.014
46236W        W17962  25.260   7.665  11.008
46237W        W17963  14.692   2.258  13.000
46238W        W17964  25.725   3.791  11.096
46239W        W17965  38.932   8.955   1.718
46240W        W17966   2.351  31.024  13.788
46241W        W17967  29.346  30.129   1.048
46242W        W17968  38.514  31.657   3.174
46243W        W17969   0.440  35.130  13.862
46244W        W17970  39.963  19.148  13.996
46245W        W17971  43.443  30.912  13.023
46246W        W17972  21.090  24.294   1.736
46247W        W17973   1.572  15.021  13.049
46248W        W17974  27.411   1.419  10.480
46249W        W17975  14.885  21.524  11.592
46250W        W17976  14.670  33.055   1.365
46251W        W17977  35.496   3.064   1.742
46252W        W17978  34.143   9.351  14.468
46253W        W17979  25.021   7.426   0.929
46254W        W17980  21.605  43.088   0.442
46255W        W17981  21.722  24.228   2.745
46256W        W17982   6.242  38.145   4.687
46257W        W17983  40.950  18.110   2.880
46258W        W17984  17.760  22.999  13.045
46259W        W17985  37.382  26.968   2.769
46260W        W17986   0.629  37.199  12.011
46261W        W17987   3.774  40.959  13.428
46262W        W17988  16.540  15.660  13.040
46263W        W17989   0.903  10.132   5.021
46264W        W17990  28.067  36.398   3.163
46265W        W17991   8.850   6.640   4.833
46266W        W17992   1.423  29.517   3.588
46267W        W17993  22.594  35.104  12.044
46268W        W17994  13.171  10.887   1.797
46269W        W17995  18.044  30.345   2.748
46270W        W17996   8.355  16.294   3.743
46271W        W17997  30.471   5.708   3.428
46272W        W17998  44.714  33.851  11.597
46273W        W17999  29.046  23.721   0.325
46274W        W18000  32.921  37.948   2.889
46275W        W18001  34.984  20.504   0.464
46276W        W18002   5.298  40.372  13.735
46277W        W18003  31.111  43.909  11.965
46278W        W18004  12.466   3.252  12.270
46279W        W18005  37.914  29.948   4.563
46280W        W18006  29.996   2.350   4.607
46281W        W18007  42.763  29.992   2.257
46282W        W18008  43.328  43.445   1.665
46283W        W18009  40.335  17.693  10.718
46284W        W18010   5.366  18.549   3.281
46285W        W18011   9.077   2.809  11.388
46286W        W18012  28.727  26.150   4.278
46287W        W18013  17.136  43.879  13.973
46288W        W18014  15.228  20.631  10.633
46289W        W18015  35.114  19.662   1.018
46290W        W18016  42.536  20.067   0.467
46291W        W18017   7.678   4.510   2.494
46292W        W18018  32.444  14.122  14.362
46293W        W18019  36.890   5.402  13.409
46294W        W18020  29.145   9.576  11.979
46295W        W18021  16.194  17.494   1.659
46296W        W18022   8.046   3.195   3.545
46297W        W18023  37.799  40.606  12.851
46298W        W18024  39.904  24.046  11.159
46299W        W18025  28.410  35.727  12.395
46300W        W18026  33.421  13.771  11.227
46301W        W18027  35.182  36.244  11.167
46302W        W18028  40.055  21.304  14.496
46303W        W18029  22.844  27.412   4.605
46304W        W18030  35.970  11.629  13.025
46305W        W18031   8.900   3.232   4.038
46306W        W18032  41.619  30.061  10.870
46307W        W18033  24.515  13.107  13.523
46308W        W18034  31.459  16.838   4.558
46309W        W18035  44.737  15.005  11.972
46310W        W18036  24.263  11.238   2.047
46311W        W18037  29.222  44.944   4.079
46312W        W18038  11.084  28.888  13.256
46313W        W18039  35.352  30.209   3.675
46314W        W18040  13.123  35.080  12.030
46315W        W18041  21.421  18.115   1.998
46316W        W18042  32.455  12.396  11.942
46317W        W18043  10.167   8.568   1.746
46318W        W18044   4.824   3.546   0.625
46319W        W18045  31.136  41.325  14.911
46320W        W18046   1.408  30.672   4.117
46321W        W18047  34.557  27.171   3.292
46322W        W18048  11.076  23.000  11.228
46323W        W18049   1.915  41.552  14.797
46324W        W18050  17.534  18.938   4.579
46325W        W18051  27.381  10.861   3.169
46326W        W18052  31.141  22.648   0.318
46327W        W18053  28.992  20.546  11.186
46328W        W18054  30.948  43.833   0.277
46329W        W18055  41.814  35.945   4.224
46330W        W18056   8.816  20.085  10.732
46331W        W18057  29.713  30.700   0.329
46332W        W18058   5.620  38.496   3.199
46333W        W18059   8.280  24.435   5.407
46334W        W18060  40.914  40.606  10.578
46335W        W18061  38.882  26.408  12.222
46336W        W18062  24.566   7.720  13.426
46337W        W18063   4.891   6.302   9.985
46338W        W18064   1.365  15.381  13.358
46339W        W18065  24.952  16.702  13.334
46340W        W18066   7.336   1.918  12.030
46341W        W18067  39.892   0.432   1.274
46342W        W18068  36.760  18.724  13.412
46343W        W18069  24.740  14.176  11.373
46344W        W18070  10.272  42.338   3.664
46345W        W18071  32.158   5.914   4.052
46346W        W18072   1.914   2.520  14.759
46347W        W18073  12.519  41.790  12.071
46348W        W18074   4.861  33.331  12.385
46349W        W18075  34.006  36.524   1.041
46350W        W18076  44.923  39.855  13.152
46351W        W18077  38.093  14.609   2.224
46352W        W18078   6.409  15.408  10.484
46353W        W18079  12.822  23.094   2.350
46354W        W18080  38.597  21.740   4.082
46355W        W18081  42.952   3.626   1.420
46356W        W18082  30.326  11.023   3.186
46357W        W18083  32.217  19.030   0.647
46358W        W18084  31.049  15.645   1.866
46359W        W18085   9.435  11.146  10.812
46360W        W18086  18.684  12.328   1.395
46361W        W18087  34.172  42.689   1.727
46362W        W18088  27.618  23.249  14.310
46363W        W18089   7.013  33.151  13.836
46364W        W18090  39.849   2.918  12.007
46365W        W18091  34.607   2.916   3.765
46366W        W18092  19.115   7.060  10.621
46367W        W18093   9.374   4.837  11.594
46368W        W18094   4.187  16.599  12.834
46369W        W18095  28.889   0.209  12.373
46370W        W18096  29.781  27.037   3.304
46371W        W18097  21.255   4.665   2.289
46372W        W18098  40.249   9.651   0.460
46373W        W18099   6.418  38.599  10.251
46374W        W18100  31.868  34.425   1.694
46375W        W18101  11.678  43.317  13.360
46376W        W18102   7.214  35.496  11.457
46377W        W18103  32.699   7.858  11.249
46378W        W18104   8.813  29.437   1.296
46379W        W18105  34.437  32.359   1.710
46380W        W18106   0.869  28.903   2.302
46381W        W18107  43.075   9.749  11.880
46382W        W18108  11.262  34.393   1.875
46383W        W18109  37.884   9.375  12.950
46384W        W18110  11.183   4.162  11.513
46385W        W18111  26.816  20.166   4.120
46386W        W18112  21.005  34.104   3.129
46387W        W18113   8.137  39.443  10.415
46388W        W18114  16.196  39.266  11.610
46389W        W18115  22.257   1.084   0.960
46390W        W18116  33.964   0.819   4.290
46391W        W18117  18.349  18.214  13.317
46392W        W18118  18.293  15.332  13.807
46393W        W18119  42.918   7.725  12.060
46394W        W18120  11.331  34.491  12.926
46395W        W18121  32.848  32.515   3.271
46396W        W18122  31.642  10.772   0.835
46397W        W18123  24.783  17.055   3.214
46398W        W18124   2.408  40.313   2.279
46399W        W18125  34.587   4.637   3.723
46400W        W18126  21.414  37.039  12.333
46401W        W18127  37.405  41.481  13.456
46402W        W18128  35.843  41.820   2.574
46403W        W18129  19.643   4.339   0.056
46404W        W18130   3.215  12.748  12.957
46405W        W18131  15.550  16.039  10.400
46406W        W18132  29.071   9.180  10.690
46407W        W18133  15.652  25.099   4.248
46408W        W18134  35.038   9.232   1.189
46409W        W18135  20.230  38.006   4.904
46410W        W18136  33.361   8.856   3.811
46411W        W18137  42.871  38.963   3.278
46412W        W18138  29.469  40.239  13.707
46413W        W18139  30.897  21.190   4.153
46414W        W18140  35.418  22.253   1.896
46415W        W18141  14.190   2.299   2.463
46416W        W18142  43.286  28.116  10.340
46417W        W18143  38.961  11.359  14.955
46418W        W18144  29.821  22.137  14.311
46419W        W18145   1.943  22.482  13.167
46420W        W18146  35.431  44.910  11.888
46421W        W18147  33.928  30.526   2.150
46422W        W18148   9.180  37.641  13.533
46423W        W18149   1.304   1.254  11.799
46424W        W18150  39.873  41.765  10.758
46425W        W18151   7.113   3.735   0.371
46426W        W18152  39.750   8.958  10.896
46427W        W18153  21.101  34.063  12.029
46428W        W18154   0.720  31.214  14.586
46429W        W18155  44.171  39.954   3.254
46430W        W18156  12.374  10.334   4.582
46431W        W18157  40.257  41.921  14.785
46432W        W18158  15.191   3.765  14.471
46433W        W18159   5.873  39.376   1.499
46434W        W18160  11.049   1.926  11.264
46435W        W18161   3.920  28.592  12.577
46436W        W18162   9.701  15.810  13.492
46437W        W18163  29.008  41.303   1.196
46438W        W18164  17.818   8.627  11.595
46439W        W18165  28.786  41.946   2.458
46440W        W18166  37.684  30.138  13.297
46441W        W18167  31.078  37.143  11.084
46442W        W18168   0.217  15.723  12.046
46443W        W18169  34.384   4.017   0.788
46444W        W18170  41.246  16.140  12.050
46445W        W18171   3.351   7.475   5.065
46446W        W18172  43.773  35.067   3.613
46447W        W18173  39.687  29.076   1.852
46448W        W18174  36.377  13.643  10.695
46449W        W18175  32.042  19.118   2.136
46450W        W18176  29.716   9.631  11.146
46451W        W18177   5.302  15.829  14.267
46452W        W18178  28.647  22.800  13.394
46453W        W18179  16.320  30.361  11.578
46454W        W18180  26.044  40.391  12.445
46455W        W18181   4.505  43.088  14.723
46456W        W18182  22.921  35.827   2.510
46457W        W18183   8.857   5.636  10.927
46458W        W18184  32.095  11.421   0.746
46459W        W18185  28.679  39.366   2.925
46460W        W18186  27.093  27.807   0.286
46461W        W18187  39.648  24.223   0.723
46462W        W18188  35.989  12.684   4.126
46463W        W18189  38.128  33.986   2.848
46464W        W18190  10.374   7.810  12.902
46465W        W18191  21.197  19.486   1.754
46466W        W18192  13.341  37.182  14.269
46467W        W18193  11.378  34.441  14.932
46468W        W18194  42.473   3.832   2.661
46469W        W18195  23.461  26.848   4.556
46470W        W18196   1.775  18.031   1.128
46471W        W18197  40.162   2.304  14.852
46472W        W18198  27.912  33.832   1.649
46473W        W18199  15.997  21.116   1.698
46474W        W18200  17.578  21.989   4.632
46475W        W18201  20.452  36.975  13.390
46476W        W18202  43.958  38.850   3.629
46477W        W18203   9.754  17.118   4.727
46478W        W18204  30.404   4.514  12.435
46479W        W18205   7.332  36.107   4.949
46480W        W18206   0.794  43.468   3.438
46481W        W18207  35.413   1.943   1.678
46482W        W18208  21.257  10.720  14.284
46483W        W18209   4.894   9.403   0.884
46484W        W18210   7.418  32.855   3.140
46485W        W18211  34.930  15.839   5.032
46486W        W18212   6.067  30.518  10.647
46487W        W18213   0.010  29.995  12.623
46488W        W18214   1.393  16.240  13.929
46489W        W18215  43.269  42.580   2.007
46490W        W18216  26.529  40.103   0.924
46491W        W18217  16.500  17.370  13.023
46492W        W18218  28.105   9.799   1.284
46493W        W18219  33.839  31.192  10.566
46494W        W18220  32.719  39.515   4.190
46495W        W18221   4.198  19.174  12.919
46496W        W18222  15.207  16.757  12.365
46497W        W18223   0.278  27.698  12.118
46498W        W18224  21.714   6.254  14.791
46499W        W18225  42.814  20.257  10.733
46500W        W18226   1.240  29.057   3.840
46501W        W18227  12.590  12.176  14.499
46502W        W18228  16.656   7.246   1.698
46503W        W18229   4.905  28.156  11.560
46504W        W18230   7.232   4.009  11.463
46505W        W18231  37.862  37.395   3.697
46506W        W18232  22.983  24.788  14.869
46507W        W18233  14.113  20.414  14.464
46508W        W18234  42.045  33.818   2.265
46509W        W18235  19.319  24.211  11.308
46510W        W18236  21.125   6.349   1.360
46511W        W18237  30.960  14.690   2.169
46512W        W18238   2.920  38.353   0.025
46513W        W18239  24.484  42.557   1.945
46514W        W18240  42.838  17.488  12.982
46515W        W18241  13.086  30.581  12.577
46516W        W18242  32.621  16.148   2.186
46517W        W18243  33.500  34.648   4.502
46518W        W18244   5.912  27.625  12.720
46519W        W18245  18.660   6.416   2.230
46520W        W18246  11.650  14.302   1.444
46521W        W18247   5.928  33.042   0.294
46522W        W18248  28.446   0.014   2.292
46523W        W18249  39.568  20.979   2.223
46524W        W18250   1.362  21.420  12.527
46525W        W18251   3.419  17.253   4.326
46526W        W18252  14.504   8.542  14.477
46527W        W18253  15.589  26.921   3.731
46528W        W18254  41.305  39.884  12.615
46529W        W18255   7.217  35.955   4.357
46530W        W18256  13.175  20.837  12.877
46531W        W18257  41.527  18.705   2.267
46532W        W18258  42.875  43.790  12.616
46533W        W18259  21.601  30.156   1.728
46534W        W18260  10.771  15.165  13.806
46535W        W18261  24.470  24.293  12.003
46536W        W18262  26.074  21.040  11.897
46537W        W18263   3.055  31.878  14.512
46538W        W18264  23.524  26.087  14.492
46539W        W18265  34.021   7.491   3.185
46540W        W18266  41.361  21.134   4.128
46541W        W18267  40.275   7.941   0.960
46542W        W18268  36.614   0.740   4.585
46543W        W18269   3.783  41.089   3.376
46544W        W18270  37.558  25.593  13.186
46545W        W18271  31.155  41.970   5.067
46546W        W18272  43.471  14.162  10.783
46547W        W18273  17.235  31.403  11.549
46548W        W18274  31.301  11.148   3.596
46549W        W18275   9.945  17.203   0.642
46550W        W18276  25.205  21.082   5.004
46551W        W18277  33.938  10.459   2.185
46552W        W18278  17.926   1.205  14.545
46553W        W18279  22.182  26.300   2.736
46554W        W18280  38.402  12.706  11.188
46555W        W18281   1.767  44.237   4.556
46556W        W18282  14.301  27.664   1.742
46557W        W18283  30.042   6.490  14.270
46558W        W18284  33.192   2.855   3.657
46559W        W18285  10.320  44.686  13.095
46560W        W18286  15.792  29.291   1.322
46561W        W18287   2.507  27.617  11.583
46562W        W18288  13.553  38.930  11.398
46563W        W18289  14.267  41.470  13.222
46564W        W18290  29.908  40.039   4.167
46565W        W18291  30.457  24.279   0.394
46566W        W18292   9.778  40.583  10.409
46567W        W18293  16.706  17.818  13.182
46568W        W18294  37.457  32.853   0.675
46569W        W18295  34.406  13.606  14.799
46570W        W18296  28.360  19.642   0.523
46571W        W18297   1.455   7.196  14.895
46572W        W18298   9.991  30.120  10.475
46573W        W18299   8.270  43.277  14.123
46574W        W18300  36.893  14.458   2.310
46575W        W18301  28.385  33.913  12.881
46576W        W18302   2.810  37.569  14.757
46577W        W18303  11.521  19.023  13.329
46578W        W18304  37.511   8.862  10.430
46579W        W18305   8.021  26.136   4.772
46580W        W18306  10.426  18.673  12.110
46581W        W18307  27.458  41.958   3.918
46582W        W18308  39.064   3.892   1.414
46583W        W18309  19.741  10.624  12.940
46584W        W18310   7.850   6.766  12.438
46585W        W18311  10.562  32.968  10.364
46586W        W18312  16.491  13.293   0.471
46587W        W18313  19.214   9.236  13.117
46588W        W18314  16.048  18.096   3.594
46589W        W18315  30.309  22.109  13.535
46590W        W18316   0.919  30.642   0.225
46591W        W18317  21.242   7.638  14.933
46592W        W18318  31.524   2.340   3.071
46593W        W18319  12.115  41.535   3.430
46594W        W18320   4.245  12.655  13.166
46595W        W18321  35.957  12.829   4.667
46596W        W18322   5.672  28.798   3.125
46597W        W18323  44.391  16.929   0.411
46598W        W18324  13.654  43.925   0.993
46599W        W18325  40.728  43.261  13.006
46600W        W18326  19.694   8.794  10.679
46601W        W18327   0.018  22.020  10.585
46602W        W18328  26.623  24.943   2.726
46603W        W18329  32.332   4.223   0.303
46604W        W18330  17.774   7.653   0.110
46605W        W18331   9.546  36.203  10.699
46606W        W18332  29.633   4.613  14.430
46607W        W18333  10.894  35.288  10.456
46608W        W18334   7.959   9.795  12.455
46609W        W18335  21.071  30.714  11.774
46610W        W18336  14.989   8.766  14.461
46611W        W18337  36.293  23.637  14.013
46612W        W18338  30.026  13.753   2.320
46613W        W18339  30.322  33.540   1.698
46614W        W18340  10.700   7.594   2.639
46615W        W18341  17.168  21.042   1.916
46616W        W18342  10.904  19.116   1.408
46617W        W18343  41.015   9.626  12.064
46618W        W18344  25.421  33.190  13.005
46619W        W18345  29.196  12.809   2.549
46620W        W18346  38.252   3.986  11.852
46621W        W18347  16.798  10.232   3.123
46622W        W18348  34.484  37.787   0.283
46623W        W18349  27.733   8.824   2.801
46624W        W18350   5.900   2.596  11.027
46625W        W18351  24.220  40.528  13.706
46626W        W18352  12.756  11.386  11.532
46627W        W18353   2.854  24.046  12.018
46628W        W18354  28.188   6.973  12.913
46629W        W18355  18.854   5.277  14.757
46630W        W18356  31.900  34.501  11.257
46631W        W18357   1.242   5.284   0.232
46632W        W18358   7.094  31.149   1.906
46633W        W18359  22.255  24.020  12.918
46634W        W18360   2.789   5.198   2.829
46635W        W18361   2.769  43.584  13.898
46636W        W18362  19.328  43.246  10.547
46637W        W18363   7.687  29.897  13.939
46638W        W18364  13.449  28.602   4.045
46639W        W18365  39.812  21.238   2.865
46640W        W18366  26.660  13.068  12.967
46641W        W18367  12.185  19.019  12.400
46642W        W18368  31.549  38.767  14.397
46643W        W18369  35.097   3.855   4.303
46644W        W18370  31.901  13.338  10.938
46645W        W18371  15.689  30.021  12.246
46646W        W18372  22.533   4.718  13.989
46647W        W18373   3.296  26.052   2.298
46648W        W18374  21.780  20.711  11.622
46649W        W18375  29.590  27.070  14.896
46650W        W18376   3.764  32.531  10.910
46651W        W18377  40.112  40.930   0.416
46652W        W18378  28.162  24.488   4.591
46653W        W18379   3.394  32.929  12.436
46654W        W18380  27.680  23.621   0.171
46655W        W18381  34.818  37.826   3.307
46656W        W18382  33.621   6.419  14.913
46657W        W18383  37.009   4.739  14.722
46658W        W18384  43.306  36.801  10.804
46659W        W18385  24.634  28.710   0.871
46660W        W18386  16.822  26.477   2.680
46661W        W18387  36.873  28.806  14.015
46662W        W18388   5.130  30.675   3.818
46663W        W18389  39.064  16.757  10.613
46664W        W18390  13.291  27.782   1.224
46665W        W18391   4.663  13.439  14.334
46666W        W18392  40.843  33.412  10.611
46667W        W18393  39.830   8.866   4.145
46668W        W18394   2.447  13.094   1.359
46669W        W18395  26.957  13.048   0.933
46670W        W18396  27.455   2.629   4.277
46671W        W18397  30.549   6.391  10.523
46672W        W18398  30.687  31.631   1.964
46673W        W18399   6.859  41.942   0.397
46674W        W18400  19.225  18.201  11.182
46675W        W18401  32.517  27.035  10.643
46676W        W18402   3.713  25.070  14.033
46677W        W18403   4.838  17.589  13.372
46678W        W18404  12.723  24.926  11.126
46679W        W18405   7.369  15.111  11.949
46680W        W18406  22.446  26.709   1.741
46681W        W18407   1.783  22.171  11.590
46682W        W18408  39.024  43.977  10.715
46683W        W18409  17.692  15.798   1.924
46684W        W18410  17.858  15.226   2.312
46685W        W18411  14.190   7.125   4.103
46686W        W18412   2.142  26.643   3.293
46687W        W18413   5.754  26.753  13.914
46688W        W18414  33.758   9.262   2.571
46689W        W18415  38.502  17.692  14.564
46690W        W18416  35.973  10.622   2.909
46691W        W18417  44.018  35.915  13.561
46692W        W18418  25.610  33.387   1.709
46693W        W18419  33.805  21.964  14.369
46694W        W18420   0.925  12.836   0.459
46695W        W18421   1.208   5.152  13.384
46696W        W18422  16.654  16.166   3.361
46697W        W18423  25.905  19.051   3.718
46698W        W18424  40.388   4.964   0.859
46699W        W18425  43.127  29.421   1.642
46700W        W18426  27.938  10.278   4.127
46701W        W18427  11.554  29.972   4.207
46702W        W18428  41.418  31.653   3.558
46703W        W18429  32.163  34.052   3.691
46704W        W18430  41.879  25.065  12.034
46705W        W18431  44.353  40.599  13.692
46706W        W18432  29.585   0.497   0.293
46707W        W18433  16.722  32.408   0.165
46708W        W18434  30.587  18.423   0.241
46709W        W18435   1.486   1.498   1.203
46710W        W18436  15.521  32.486  11.104
46711W        W18437  22.196  39.480  13.217
46712W        W18438  30.004  43.001  14.596
46713W        W18439  40.831  24.014  14.760
46714W        W18440  20.301  21.442   4.938
46715W        W18441  39.320  36.327  11.950
46716W        W18442  39.075  44.682   4.976
46717W        W18443  16.227  31.531   4.662
46718W        W18444  35.528  18.584   3.374
46719W        W18445  17.743   6.247   0.860
46720W        W18446  38.403  28.922   0.190
46721W        W18447  42.412  31.038  11.679
46722W        W18448   2.178  23.681   4.175
46723W        W18449  16.302  11.168   0.773
46724W        W18450  22.962  33.640   1.671
46725W        W18451  15.755  39.076  12.091
46726W        W18452  17.432   2.401  10.702
46727W        W18453  33.641  27.054  13.348
46728W        W18454  27.719   8.186   4.462
46729W        W18455  16.867   9.597  11.487
46730W        W18456  12.140  33.281  12.894
46731W        W18457  29.534  14.822  14.374
46732W        W18458   7.357  25.698  14.467
46733W        W18459   3.859   0.844   0.821
46734W        W18460  18.652   9.432   1.375
46735W        W18461  40.014   5.302  10.723
46736W        W18462   3.840  44.299  12.489
46737W        W18463  44.023   5.625  14.253
46738W        W18464  35.113  24.616   0.034
46739W        W18465   0.941  26.597  12.083
46740W        W18466  13.130  20.210   1.259
46741W        W18467  32.576  32.475   0.038
46742W        W18468   5.866   6.745   2.205
46743W        W18469  41.813  17.589  11.965
46744W        W18470  30.081  42.289  11.629
46745W        W18471  19.853  12.210   0.792
46746W        W18472  42.104  40.202   2.202
46747W        W18473  18.705  19.340  14.573
46748W        W18474  44.059  27.243   0.426
46749W        W18475   3.440  21.766   0.448
46750W        W18476  19.443   3.691   4.576
46751W        W18477  28.612  24.450  11.125
46752W        W18478  19.320  21.597   4.750
46753W        W18479  36.195  44.251   0.485
46754W        W18480  27.054  23.207   4.291
46755W        W18481  37.616  26.658   1.725
46756W        W18482  16.023  13.431  11.562
46757W        W18483  14.264   4.918  11.951
46758W        W18484   1.509  26.039  11.185
46759W        W18485  38.894  30.588   1.372
46760W        W18486  42.359  20.018  10.636
46761W        W18487  20.496  30.939   1.426
46762W        W18488  27.190   8.693  13.329
46763W        W18489  30.445  28.121  12.967
46764W        W18490  32.828  35.877   4.433
46765W        W18491  33.794  36.173   0.360
46766W        W18492  38.659   2.655   4.268
46767W        W18493  41.804  14.309  12.015
46768W        W18494  43.575  20.013   0.799
46769W        W18495  31.847  17.689   0.860
46770W        W18496  11.159  36.320   1.446
46771W        W18497  44.826   7.815   1.828
46772W        W18498  39.048   8.774   1.244
46773W        W18499  29.416  12.364  12.529
46774W        W18500  19.284  30.333   1.827
46775W        W18501   9.156  44.697   3.128
46776W        W18502  28.682  42.783  11.943
46777W        W18503  17.052  26.181   4.778
46778W        W18504  26.310  28.027   3.820
46779W        W18505  40.978  33.963  10.580
46780W        W18506  22.117  27.092   2.202
46781W        W18507  44.102   8.777  12.969
46782W        W18508  25.654  40.508   3.767
46783W        W18509  42.839  29.086  12.326
46784W        W18510   7.237  23.415  14.705
46785W        W18511   1.753  13.204   3.199
46786W        W18512  23.123  21.322  14.915
46787W        W18513  44.684  16.634  11.619
46788W        W18514  42.029   0.926   0.942
46789W        W18515  12.687  10.352   0.848
46790W        W18516  13.103  19.626   4.605
46791W        W18517  37.895   3.140   3.214
46792W        W18518  34.656  30.474  10.532
46793W        W18519   4.282  10.784  14.963
46794W        W18520  28.230  11.322  14.060
46795W        W18521  12.806  13.661   0.851
46796W        W18522  28.053  21.222  10.802
46797W        W18523   3.458   3.155   1.202
46798W        W18524  17.511  42.926   2.703
46799W        W18525  28.921  25.038   4.074
46800W        W18526   3.363  41.797   0.776
46801W        W18527  27.394  33.585   2.925
46802W        W18528  38.647  44.324   1.053
46803W        W18529  22.720  22.272   4.085
46804W        W18530  36.182  41.964  11.516
46805W        W18531  34.979  22.268  11.824
46806W        W18532  15.010  37.096   0.925
46807W        W18533  41.861  34.697  11.124
46808W        W18534  26.845  34.629  14.014
46809W        W18535  29.047  43.039   1.452
46810W        W18536  20.620  43.021  10.753
46811W        W18537  12.605   4.721   2.317
46812W        W18538   0.502  33.361  11.577
46813W        W18539  20.510  30.896  14.029
46814W        W18540  40.357  24.103  14.574
46815W        W18541  17.349  14.658  12.935
46816W        W18542  38.461  36.050  13.856
46817W        W18543  21.237  30.623  11.301
46818W        W18544  34.980   8.282  13.506
46819W        W18545  37.244  26.586  12.862
46820W        W18546  32.067  32.157   0.914
46821W        W18547   7.681   3.792  11.552
46822W        W18548  44.875  27.440  13.875
46823W        W18549   7.284  17.481  12.037
46824W        W18550  20.420   0.480   2.900
46825W        W18551  44.842  38.055  11.202
46826W        W18552  29.091   2.512   0.870
46827W        W18553  26.688   9.344   1.450
46828W        W18554   0.837  41.526   3.185
46829W        W18555  26.024  25.750  10.682
46830W        W18556  32.669   0.475   1.912
46831W        W18557  24.534  44.407   1.862
46832W        W18558  19.659  23.146   4.389
46833W        W18559  19.421  37.429  11.067
46834W        W18560  27.734  33.664   4.822
46835W        W18561   9.412  42.998   4.342
46836W        W18562  10.848  13.170   0.445
46837W        W18563  35.368  16.402  12.038
46838W        W18564  26.987  33.347   2.711
46839W        W18565   8.690  28.402   3.178
46840W        W18566  41.963  19.794   0.277
46841W        W18567  15.702   1.717  14.876
46842W        W18568   1.127  16.664  13.770
46843W        W18569  38.833  29.645   1.461
46844W        W18570  27.603   4.870  11.626
46845W        W18571  35.947  28.973  10.758
46846W        W18572   9.242  12.127  11.791
46847W        W18573  19.946  36.599   4.316
46848W        W18574  14.701  10.834  13.620
46849W        W18575  22.249  25.898  13.066
46850W        W18576  15.223  21.966  14.064
46851W        W18577  19.040  12.681   0.861
46852W        W18578  40.899  44.228  14.470
46853W        W18579  23.989   6.856  14.562
46854W        W18580  30.939  39.287   3.672
46855W        W18581   8.123  29.001  12.592
46856W        W18582  38.814   6.785  11.473
46857W        W18583  27.166  17.817   4.029
46858W        W18584   0.995  21.690   3.216
46859W        W18585  36.441  42.941  11.225
46860W        W18586  41.750   0.748  10.782
46861W        W18587  31.665   4.680  12.043
46862W        W18588  12.268  11.307   2.841
46863W        W18589  41.432   2.172   3.599
46864W        W18590  17.101  44.574   3.148
46865W        W18591  41.966   1.499   3.193
46866W        W18592  13.073   9.959   0.882
46867W        W18593  38.464  25.558  13.266
46868W        W18594  21.234  36.099  10.344
46869W        W18595  20.334  12.862   3.190
46870W        W18596  19.047   7.230   4.540
46871W        W18597  22.664   9.132   3.199
46872W        W18598   9.427  38.238  11.847
46873W        W18599  39.499   3.804   2.614
46874W        W18600  33.030  41.074  13.433
46875W        W18601  14.817  36.087  13.916
46876W        W18602   7.133  12.451   4.933
46877W        W18603  33.952  11.053  10.647
46878W        W18604  33.820  33.031  10.620
46879W        W18605  17.946  16.092  14.822
46880W        W18606   0.369  15.651  10.793
46881W        W18607  44.814   8.804   0.369
46882W        W18608  20.289  42.502   2.663
46883W        W18609  13.041  18.908  11.404
46884W        W18610   8.836  42.508  11.957
46885W        W18611  20.761  36.865  14.282
46886W        W18612   1.267  43.443   4.730
46887W        W18613  27.670  44.922  12.888
46888W        W18614  28.132  16.020  11.681
46889W        W18615  43.812  18.259   4.501
46890W        W18616  25.139  38.849   3.659
46891W        W18617  34.315   2.908  13.460
46892W        W18618  11.237   1.024   1.237
46893W        W18619  23.270  14.581  13.648
46894W        W18620  11.806  24.859  11.183
46895W        W18621   8.379  17.843   4.694
46896W        W18622  36.826  23.156  12.675
46897W        W18623  16.868  34.686  11.884
46898W        W18624  15.218  30.314  12.509
46899W        W18625  25.843  30.815   4.262
46900W        W18626  33.933   6.393   4.243
46901W        W18627   2.020  18.144  12.424
46902W        W18628   2.336  33.924  12.988
46903W        W18629  38.117  27.966  13.612
46904W        W18630  15.363  11.465   0.006
46905W        W18631   5.146  16.314   3.616
46906W        W18632  39.186  19.741   1.635
46907W        W18633   3.183   2.401   3.202
46908W        W18634  14.480  37.631   5.014
46909W        W18635  36.952  31.774   4.037
46910W        W18636  10.042  15.588  11.221
46911W        W18637  31.565   0.720  13.461
46912W        W18638  31.153  30.271  11.693
46913W        W18639  23.837  12.590  11.197
46914W        W18640  25.929  41.577   0.238
46915W        W18641  28.099  11.037  10.688
46916W        W18642  10.086  40.824  11.961
46917W        W18643  32.110  28.703   0.745
46918W        W18644  25.099   1.570   4.695
46919W        W18645  43.045  20.110  12.054
46920W        W18646  25.536   6.837  13.598
46921W        W18647  12.510  16.134  14.678
46922W        W18648  18.842   6.703  12.489
46923W        W18649   8.374   0.752   0.833
46924W        W18650   5.134  18.980  12.009
46925W        W18651  30.592  11.699  12.885
46926W        W18652  33.146  39.341  13.463
46927W        W18653  42.483   4.270  11.953
46928W        W18654  11.836  21.672  13.496
46929W        W18655  18.698  18.409   2.247
46930W        W18656   0.184  11.462   2.162
46931W        W18657  19.089   2.258   4.326
46932W        W18658  37.609  12.678   2.793
46933W        W18659  10.449  28.871  10.615
46934W        W18660   8.349  42.937  12.850
46935W        W18661  26.414  40.886  12.165
46936W        W18662  23.929  34.180  13.023
46937W        W18663  34.099  26.921  13.077
46938W        W18664  41.390  19.160   3.206
46939W        W18665  40.944  22.127  12.163
46940W        W18666  31.114  20.815  10.860
46941W        W18667  22.972   8.351   0.915
46942W        W18668   2.908  42.186  11.132
46943W        W18669  27.923  10.594  11.972
46944W        W18670  43.908  22.533  13.285
46945W        W18671  38.028  15.850   2.819
46946W        W18672  21.012  38.946   2.268
46947W        W18673  41.604  11.633  11.900
46948W        W18674  14.743  18.735  14.869
46949W        W18675  14.588  16.176   3.537
46950W        W18676   5.761   9.849  13.115
46951W        W18677  22.940  15.075   3.170
46952W        W18678  13.132  39.933   2.686
46953W        W18679  20.472  12.515  12.117
46954W        W18680   5.311   2.344  11.566
46955W        W18681  17.070  13.408  10.770
46956W        W18682  32.857  18.729   4.748
46957W        W18683  23.575  29.597   0.476
46958W        W18684  18.034   7.494   2.249
46959W        W18685  25.912   5.553  13.211
46960W        W18686  22.661  28.842  13.599
46961W        W18687  31.400  30.171   4.313
46962W        W18688  22.396   6.731  12.687
46963W        W18689  37.045  39.237  12.073
46964W        W18690  12.301  15.550  11.630
46965W        W18691  25.976  23.556   3.368
46966W        W18692  25.853  14.110  13.900
46967W        W18693   2.235   5.360  13.502
46968W        W18694  35.970  31.994   4.278
46969W        W18695  43.585   1.980   4.278
46970W        W18696  23.462  44.352   3.260
46971W        W18697   7.879   2.890  13.875
46972W        W18698  34.856  35.926   2.485
46973W        W18699  12.821  37.247  14.943
46974W        W18700  11.236  32.868   1.793
46975W        W18701   7.368  22.494   3.684
46976W        W18702   4.428  41.247  12.955
46977W        W18703   8.747   3.470  10.353
46978W        W18704  21.410  30.868  13.848
46979W        W18705  43.045  12.922   0.475
46980W        W18706  29.046  41.479   0.312
46981W        W18707  10.903  22.480  10.668
46982W        W18708  41.490   6.524  10.642
46983W        W18709  11.139  26.152   3.640
46984W        W18710  16.489  21.112   4.516
46985W        W18711  34.784  18.323  13.385
46986W        W18712  30.294  36.883   1.782
46987W        W18713  39.879   0.041   0.915
46988W        W18714  25.009  29.208   3.689
46989W        W18715   1.016  17.369  12.045
46990W        W18716  20.058  31.978  10.811
46991W        W18717  21.482  21.600   0.706
46992W        W18718   3.912  32.918  14.040
46993W        W18719  18.223   9.280   2.818
46994W        W18720   8.598  41.412   0.528
46995W        W18721  33.106   1.208   3.321
46996W        W18722  22.344  31.041  13.451
46997W        W18723  42.732  23.658   2.184
46998W        W18724   2.005  36.605  12.507
46999W        W18725  42.052  39.095   3.776
47000W        W18726  14.229   4.913  11.437
47001W        W18727  42.673   7.831  10.594
47002W        W18728  35.635  11.746   4.574
47003W        W18729  27.999  10.729  12.466
47004W        W18730  38.353  10.757  14.300
47005W        W18731  30.469   0.370   3.851
47006W        W18732  44.983  21.277  11.074
47007W        W18733   3.692  23.744  13.985
47008W        W18734  25.237  19.201  14.340
47009W        W18735  28.457   8.379  12.189
47010W        W18736   6.034  35.474   4.850
47011W        W18737  12.140   3.645   1.264
47012W        W18738  11.795  39.056   3.301
47013W        W18739  22.177   9.378   4.518
47014W        W18740  37.167  34.047  14.465
47015W        W18741  25.178  24.450  12.984
47016W        W18742  20.756  37.858  14.958
47017W        W18743  13.942  25.714  10.820
47018W        W18744  36.813  13.213   0.935
47019W        W18745  25.975  18.509  11.474
47020W        W18746  32.654  16.744  11.881
47021W        W18747  11.271   7.755  13.316
47022W        W18748  39.104  21.176   2.382
47023W        W18749  39.401  41.505   2.490
47024W        W18750  40.291  40.259  14.059
47025W        W18751  38.591   1.632   3.418
47026W        W18752  31.543  10.938  14.235
47027W        W18753  27.617  28.653  10.624
47028W        W18754   8.690  15.679   3.563
47029W        W18755  36.046  22.686  12.544
47030W        W18756  11.264  14.067   1.107
47031W        W18757   0.042  17.760  13.328
47032W        W18758  27.043  13.858   0.347
47033W        W18759  30.682  23.091  11.586
47034W        W18760  17.788  33.459  11.476
47035W        W18761   0.980   7.179   2.179
47036W        W18762  32.565  12.625   4.524
47037W        W18763  26.900   8.091   2.656
47038W        W18764   0.174  41.830   2.956
47039W        W18765  16.481  23.704   1.159
47040W        W18766  30.548   5.967  13.995
47041W        W18767  29.464  10.753   3.170
47042W        W18768  27.584  40.992   3.106
47043W        W18769  17.371  34.899   1.371
47044W        W18770  14.555   4.339  10.391
47045W        W18771  42.546   5.632   1.899
47046W        W18772  31.608  37.562   3.714
47047W        W18773  41.082  24.695  11.243
47048W        W18774   1.266  11.131   3.845
47049W        W18775  27.367  33.332  10.963
47050W        W18776  18.114   7.293   3.625
47051W        W18777  32.064  25.451  14.453
47052W        W18778  14.637  22.507  11.230
47053W        W18779   1.699  28.137   3.684
47054W        W18780  31.901  12.828  10.948
47055W        W18781  11.030  39.027  11.086
47056W        W18782  18.228   9.677  13.371
47057W        W18783   9.573  26.019  11.519
47058W        W18784  30.132  20.111   0.705
47059W        W18785  11.561  23.384  11.969
47060W        W18786  19.603  34.382  12.432
47061W        W18787  26.028  14.592   0.020
47062W        W18788  19.152   0.108  11.674
47063W        W18789   1.905  30.326   4.844
47064W        W18790  31.604  35.898   0.056
47065W        W18791  26.919  42.104   5.037
47066W        W18792  44.924   2.356   1.823
47067W        W18793   1.872   8.317  13.535
47068W        W18794  42.496  35.456   0.180
47069W        W18795  13.864  19.295  14.876
47070W        W18796  42.543  12.732   1.289
47071W        W18797  40.038  25.075   1.011
47072W        W18798  37.451   2.448  12.915
47073W        W18799  35.936  26.511  11.508
47074W        W18800  22.922  28.216   5.573
47075W        W18801  35.049   7.926  12.128
47076W        W18802  11.520   2.021   2.604
47077W        W18803  43.529   9.401   2.769
47078W        W18804  13.331  12.788   1.905
47079W        W18805  27.045  10.212   3.796
47080W        W18806   2.156  33.150  13.924
47081W        W18807   5.154  33.160   3.770
47082W        W18808  22.166  20.135   4.241
47083W        W18809  43.294  30.058  14.279
47084W        W18810  44.325   3.948  11.631
47085W        W18811  39.233  20.327  11.916
47086W        W18812  29.063  25.030   3.547
47087W        W18813  31.988   0.312   1.220
47088W        W18814  37.775  16.235   3.087
47089W        W18815  31.542  32.025  12.940
47090W        W18816  21.646  36.260  10.661
47091W        W18817   7.903  34.568   3.114
47092W        W18818  23.589   0.777   5.045
47093W        W18819   8.425   9.445   0.786
47094W        W18820  27.974  37.826   2.675
47095W        W18821  30.103  39.161   0.775
47096W        W18822  39.895  31.572  12.098
47097W        W18823  15.321  39.316  11.449
47098W        W18824  33.185  29.436   3.244
47099W        W18825   7.388  30.748   2.216
47100W        W18826  21.517  11.349  10.613
47101W        W18827  32.500  28.071  13.348
47102W        W18828   4.452  17.235  13.375
47103W        W18829  30.511  23.283  14.899
47104W        W18830  43.952  10.242  10.398
47105W        W18831   3.358  16.770  14.325
47106W        W18832  22.827  18.584  13.509
47107W        W18833  18.234   3.720  12.315
47108W        W18834  42.134  23.557   3.652
47109W        W18835  16.630  29.182   1.291
47110W        W18836  17.063  39.032  10.448
47111W        W18837  27.536  28.008   1.594
47112W        W18838   5.296   3.307   4.539
47113W        W18839  35.566  18.269   3.799
47114W        W18840  42.973  19.089   3.926
47115W        W18841  10.775   4.832   2.444
47116W        W18842  19.667  23.513  11.461
47117W        W18843  23.006  31.981   4.105
47118W        W18844  25.379  29.947   3.265
47119W        W18845  23.042   1.778  14.314
47120W        W18846  25.316  25.560  14.408
47121W        W18847  42.598  40.436  12.483
47122W        W18848   1.783   0.578   4.452
47123W        W18849   2.238  34.437   1.811
47124W        W18850   1.719  19.516  12.376
47125W        W18851  40.298  15.087   0.706
47126W        W18852   6.217  29.499   1.883
47127W        W18853  33.441  11.364  13.967
47128W        W18854  38.643  37.286   2.365
47129W        W18855  35.509  38.567  13.491
47130W        W18856  19.219  40.261  13.397
47131W        W18857  14.228   7.414   3.680
47132W        W18858   0.409  11.754  12.923
47133W        W18859  34.046  38.315  12.426
47134W        W18860  25.698  39.705   2.653
47135W        W18861  43.312  30.252   4.230
47136W        W18862  13.415  31.076  14.933
47137W        W18863   1.750  16.378   2.700
47138W        W18864  14.866  21.704  10.663
47139W        W18865  37.982  37.049  11.920
47140W        W18866   2.653  39.195  13.313
47141W        W18867  39.577  24.177   2.331
47142W        W18868  29.566   2.449  14.351
47143W        W18869  35.532  27.720  14.044
47144W        W18870  17.830   0.278  11.555
47145W        W18871   4.165  25.170   3.818
47146W        W18872  23.303  10.085   0.404
47147W        W18873   4.884  30.877  11.953
47148W        W18874  31.504   8.146  13.680
47149W        W18875  19.218   5.787  13.881
47150W        W18876   1.291  28.559   4.909
47151W        W18877  36.405  16.347   3.661
47152W        W18878   5.992  25.706   0.411
47153W        W18879   6.794  38.826  14.405
47154W        W18880  38.832   2.841   2.860
47155W        W18881   1.025  35.905  11.991
47156W        W18882  24.155  25.552   4.580
47157W        W18883  35.611  43.842  13.000
47158W        W18884  36.423   0.048  12.120
47159W        W18885  20.529  39.544  12.442
47160W        W18886   9.463  30.006  11.591
47161W        W18887   6.322  18.159   2.388
47162W        W18888   8.834  26.451   0.821
47163W        W18889   6.822  35.092  11.030
47164W        W18890   9.404  20.971  14.289
47165W        W18891  12.327   7.406   2.983
47166W        W18892   0.212  39.848   0.293
47167W        W18893   8.728  14.798   3.717
47168W        W18894   4.980   0.815  12.809
47169W        W18895  27.986  39.115  12.962
47170W        W18896   5.444  43.685   3.319
47171W        W18897  20.644  15.990  14.526
47172W        W18898   3.423   4.783  13.305
47173W        W18899  27.307   1.888  10.692
47174W        W18900   7.243  10.698   3.516
47175W        W18901  40.015  14.189  12.831
47176W        W18902   1.448   2.139   0.454
47177W        W18903  14.463  25.421  13.470
47178W        W18904  43.488  44.390   4.695
47179W        W18905   9.760  27.655   3.125
47180W        W18906  41.392  26.937   3.272
47181W        W18907  41.509  14.417  10.625
47182W        W18908   7.506  23.757  10.004
47183W        W18909  21.270  20.598  13.388
47184W        W18910  10.866  19.526   0.820
47185W        W18911  35.251  31.056  14.067
47186W        W18912   8.393   8.669  14.900
47187W        W18913   8.139  19.508   4.997
47188W        W18914   5.455  44.293  14.011
47189W        W18915   0.863  25.862  12.552
47190W        W18916  43.823  32.379  12.095
47191W        W18917  21.880  13.449   0.540
47192W        W18918  33.971  23.801  13.888
47193W        W18919  44.486  17.230  12.476
47194W        W18920  36.921   5.825  10.695
47195W        W18921  35.963  31.636  11.600
47196W        W18922  23.005  33.933  10.394
47197W        W18923  31.162  31.906  10.639
47198W        W18924   3.432  25.628   0.362
47199W        W18925  35.409  18.983  11.271
47200W        W18926  37.793  12.134  13.595
47201W        W18927  20.916  41.447  10.073
47202W        W18928  22.221   0.049   4.680
47203W        W18929  24.639  43.904   0.409
47204W        W18930  38.325  43.879  11.051
47205W        W18931  15.317  16.487  13.200
47206W        W18932   8.647  25.199  10.574
47207W        W18933  39.418  43.794   1.860
47208W        W18934   3.346   0.763   4.643
47209W        W18935  10.070  10.891   1.559
47210W        W18936  41.659  34.855  12.984
47211W        W18937  22.477  32.251  13.230
47212W        W18938  10.591  16.057   2.393
47213W        W18939  33.898  16.330  10.914
47214W        W18940  18.826   3.331   1.815
47215W        W18941   8.568  14.754   2.337
47216W        W18942   9.287  21.106   9.973
47217W        W18943  13.387  11.422  14.916
47218W        W18944  35.527  27.878  12.020
47219W        W18945  42.235  29.098  11.103
47220W        W18946  38.778  39.848   3.793
47221W        W18947  41.423  15.314  10.995
47222W        W18948  35.610   6.011  13.815
47223W        W18949  38.315  10.317  12.378
47224W        W18950  19.633  22.672   4.610
47225W        W18951  16.021  28.943   9.938
47226W        W18952   6.631  14.474   0.013
47227W        W18953  43.917   4.769  14.840
47228W        W18954  24.294   5.819   0.449
47229W        W18955  15.578  23.281   4.986
47230W        W18956  43.405   2.234  11.917
47231W        W18957   2.979  40.537  13.033
47232W        W18958  31.136  21.732   4.174
47233W        W18959  31.153   6.662  10.912
47234W        W18960  36.358  44.278   1.480
47235W        W18961   6.347  10.929   4.045
47236W        W18962   4.606   6.859   4.601
47237W        W18963  42.062   6.488   2.868
47238W        W18964   7.198  17.286   0.497
47239W        W18965  22.517   5.679  14.982
47240W        W18966   5.366  31.170  14.549
47241W        W18967  13.357  29.086  14.005
47242W        W18968  39.542   7.381  14.828
47243W        W18969  28.020  26.919  10.715
47244W        W18970  17.869   0.507  11.085
47245W        W18971  38.955  25.430  12.518
47246W        W18972  39.859  38.822   1.850
47247W        W18973  15.468  15.661  11.201
47248W        W18974  18.279  29.819   4.136
47249W        W18975  40.521  34.592   0.462
47250W        W18976  35.464  36.739  12.894
47251W        W18977  22.596  13.860   1.469
47252W        W18978  38.455  12.876  13.842
47253W        W18979  30.992   8.830  12.427
47254W        W18980   9.293   0.230  11.741
47255W        W18981  25.005  23.635  14.390
47256W        W18982  21.471  17.514  11.052
47257W        W18983  29.616  26.718   3.701
47258W        W18984  11.636   4.883  13.060
47259W        W18985  18.600   2.918   2.147
47260W        W18986   2.226  41.525   0.242
47261W        W18987  25.621  16.243  11.549
47262W        W18988  19.246  43.825  12.770
47263W        W18989  24.014  41.281  14.742
47264W        W18990  43.045   3.365  11.672
47265W        W18991  37.379  26.454   2.764
47266W        W18992  37.789  35.804   1.205
47267W        W18993  22.104   2.732  12.152
47268W        W18994  25.268  31.434  13.989
47269W        W18995  43.017  16.301   1.795
47270W        W18996  41.380  27.370  11.602
47271W        W18997   0.323  41.624  13.711
47272W        W18998  24.204  18.052   3.587
47273W        W18999  14.318  19.033  14.888
47274W        W19000  24.449  43.852   3.589
47275W        W19001  33.450  26.488   0.408
47276W        W19002  16.394  21.594   3.099
47277W        W19003  29.481  17.183   1.765
47278W        W19004  27.764   0.779  11.668
47279W        W19005  17.408  10.623   2.823
47280W        W19006  16.610  20.897   3.650
47281W        W19007  17.010   4.255  11.557
47282W        W19008  22.990  37.971   2.366
47283W        W19009  29.416  40.609   3.078
47284W        W19010  35.140   3.741  12.238
47285W        W19011  15.326  23.766   2.921
47286W        W19012   0.702  33.987   3.676
47287W        W19013  30.618  40.310  12.484
47288W        W19014  25.526  19.173  10.700
47289W        W19015  30.533   6.317  11.035
47290W        W19016   3.455  19.321   0.434
47291W        W19017  13.535  20.013   0.268
47292W        W19018  34.493  34.987   1.713
47293W        W19019  44.480   4.893   2.353
47294W        W19020  37.337  28.069   4.563
47295W        W19021  18.478  14.289  12.260
47296W        W19022  21.123  15.386  14.110
47297W        W19023  18.054  23.150   0.216
47298W        W19024  31.087  26.271  14.611
47299W        W19025  44.735  11.425   4.612
47300W        W19026  20.122  33.955  12.969
47301W        W19027   0.568  16.055  13.366
47302W        W19028  39.324  15.339  13.528
47303W        W19029   3.830  28.151   2.724
47304W        W19030  14.746  13.286   0.974
47305W        W19031  35.641  24.923   0.952
47306W        W19032  16.096  29.676  11.053
47307W        W19033  42.810  44.793   3.131
47308W        W19034  42.337   4.409  10.421
47309W        W19035  37.477  25.456  14.272
47310W        W19036   4.880  23.300   2.898
47311W        W19037  25.881  36.890   4.179
47312W        W19038   7.688   0.822  14.456
47313W        W19039  42.841  37.359  13.317
47314W        W19040  35.235  40.421   3.698
47315W        W19041  11.096   8.806   1.919
47316W        W19042  37.013  13.135   1.908
47317W        W19043  19.788  12.594  10.763
47318W        W19044  28.389  44.786  14.204
47319W        W19045  32.368  43.113   1.400
47320W        W19046  11.723  28.188   2.703
47321W        W19047  32.679   5.205  12.442
47322W        W19048   1.335  12.762  14.868
47323W        W19049   0.530   7.751   0.010
47324W        W19050  35.432  13.181   3.710
47325W        W19051  28.939  41.374  14.372
47326W        W19052  43.478   8.436  12.504
47327W        W19053  22.565   3.185   3.521
47328W        W19054  18.847   6.826   3.708
47329W        W19055  41.065  22.686  14.321
47330W        W19056  43.964  25.128  11.995
47331W        W19057  22.705  26.344   2.607
47332W        W19058  33.194  40.585  13.358
47333W        W19059  16.898  27.220  12.113
47334W        W19060  44.737   5.661   9.904
47335W        W19061  25.797  35.244   1.834
47336W        W19062   5.603  35.795  11.404
47337W        W19063  43.298  13.730   4.081
47338W        W19064   5.785   2.582   4.877
47339W        W19065   5.019  40.808  11.977
47340W        W19066  26.601  44.453  14.808
47341W        W19067  10.819  38.954  10.557
47342W        W19068   7.968  35.995  12.817
47343W        W19069  33.790  20.782  14.437
47344W        W19070  27.054   5.391   4.856
47345W        W19071  31.071  40.036  12.440
47346W        W19072  28.730  29.146  12.806
47347W        W19073  39.842  30.163  13.346
47348W        W19074  35.203  23.291  10.292
47349W        W19075  43.267  30.874  10.295
47350W        W19076  36.074  11.536   1.777
47351W        W19077  20.488   0.350   3.947
47352W        W19078   9.251   9.083   1.847
47353W        W19079  17.811  25.505  13.940
47354W        W19080  22.712  11.701  14.942
47355W        W19081  22.969   1.156   3.138
47356W        W19082  16.059  20.244  13.521
47357W        W19083  39.006  32.078   4.518
47358W        W19084   8.099  38.788   5.080
47359W        W19085  37.361  28.618   2.795
47360W        W19086  42.356  28.732  10.724
47361W        W19087  15.832   6.515   2.686
47362W        W19088   2.541  31.658  13.907
47363W        W19089  34.573  38.862  12.852
47364W        W19090  41.069  23.450  11.103
47365W        W19091  27.237   5.181   2.698
47366W        W19092  23.031  39.855   0.452
47367W        W19093  31.443  27.976  14.901
47368W        W19094   8.957  35.630   4.214
47369W        W19095  11.879   9.805   4.148
47370W        W19096  10.972  17.654  10.670
47371W        W19097  35.920  25.629   3.080
47372W        W19098  26.908  18.576   2.000
47373W        W19099  33.507  11.798   0.508
47374W        W19100  41.023  15.290  14.334
47375W        W19101  36.483  12.418   0.142
47376W        W19102  25.552   4.755   4.868
47377W        W19103  42.466   8.326  10.653
47378W        W19104   5.253   3.063   2.746
47379W        W19105   0.684  21.183  11.999
47380W        W19106  29.885  16.253   2.262
47381W        W19107  22.376  29.019  13.998
47382W        W19108  39.167  17.431  13.954
47383W        W19109  29.472  35.860   0.138
47384W        W19110  20.085  42.649  14.952
47385W        W19111  13.204  40.369  13.869
47386W        W19112  14.976  17.228   0.205
47387W        W19113   1.799  28.365  11.183
47388W        W19114   8.689  19.588   1.406
47389W        W19115   1.973  16.575   4.666
47390W        W19116  42.408  14.864   1.508
47391W        W19117  18.981  30.205  13.641
47392W        W19118  22.042  16.122  12.783
47393W        W19119   7.702  26.986   4.387
47394W        W19120  15.102  20.288  12.475
47395W        W19121  44.336  21.378   3.671
47396W        W19122  21.561  19.357   3.953
47397W        W19123  29.955  26.323   3.561
47398W        W19124  10.698   3.867  11.195
47399W        W19125  10.702  29.690   4.538
47400W        W19126  44.924  21.738  12.484
47401W        W19127  42.914  20.177   2.526
47402W        W19128  34.774   4.753   4.202
47403W        W19129  42.929   3.476  13.984
47404W        W19130  30.024   5.703  12.948
47405W        W19131  25.424   0.886  12.507
47406W        W19132   5.845  36.453   2.204
47407W        W19133  24.869  19.065  12.065
47408W        W19134  14.371  21.250   3.720
47409W        W19135   2.160  24.457   3.013
47410W        W19136  20.441  21.638  14.900
47411W        W19137  36.105  40.918   0.279
47412W        W19138  39.821  11.848  14.027
47413W        W19139   7.776  18.628  14.968
47414W        W19140   7.428  29.540  10.846
47415W        W19141  33.474  25.453   1.373
47416W        W19142   8.297   8.495  13.639
47417W        W19143  33.652  35.376  13.997
47418W        W19144  43.791  39.053  10.733
47419W        W19145  26.160   5.374   3.885
47420W        W19146  37.999  17.965  11.669
47421W        W19147   1.399  33.795   0.272
47422W        W19148  17.257  25.076  10.736
47423W        W19149  39.289  10.301   1.637
47424W        W19150  21.635  33.107  14.953
47425W        W19151  10.320  20.493   4.083
47426W        W19152  15.490  20.998   4.624
47427W        W19153   4.404   7.915   4.456
47428W        W19154  28.579  21.117  10.775
47429W        W19155  27.940  16.310  13.387
47430W        W19156  16.392  28.202   2.739
47431W        W19157  17.894  25.035  11.484
47432W        W19158  34.488  21.143  14.561
47433W        W19159  44.425   1.470  13.015
47434W        W19160  15.495  24.190  10.490
47435W        W19161   1.940  24.549   0.376
47436W        W19162  21.228  10.209   0.574
47437W        W19163  14.029  24.252  14.449
47438W        W19164  40.537  26.542   4.162
47439W        W19165  16.126  14.118  13.990
47440W        W19166  42.631   4.819  13.349
47441W        W19167  17.353  28.179   0.964
47442W        W19168   3.497  35.496   0.268
47443W        W19169   3.692  34.052   0.349
47444W        W19170  28.009   1.429   4.972
47445W        W19171  12.528   9.754  14.639
47446W        W19172   8.649  21.274   0.695
47447W        W19173  15.775  11.869  13.881
47448W        W19174  10.433  30.138   2.246
47449W        W19175   7.758   2.356  11.620
47450W        W19176  12.493  35.253  12.901
47451W        W19177   4.642   4.898  12.627
47452W        W19178  21.693  26.407  11.978
47453W        W19179   4.658  28.220  13.039
47454W        W19180  26.693   8.651  13.775
47455W        W19181  21.155  13.154  14.525
47456W        W19182  29.945  31.134  11.555
47457W        W19183  44.479  14.001  11.677
47458W        W19184  12.701  43.483   1.545
47459W        W19185  19.673  10.794  11.055
47460W        W19186  27.442  17.191   1.980
47461W        W19187  38.482  40.418  13.312
47462W        W19188  39.051  14.217   5.053
47463W        W19189  36.708  33.577   4.905
47464W        W19190  16.332  43.458   4.595
47465W        W19191  35.579  10.151   2.140
47466W        W19192   6.130   2.233   2.204
47467W        W19193  26.607  35.937   4.622
47468W        W19194  10.138  24.179  14.700
47469W        W19195  27.066  11.549   0.000
47470W        W19196  15.354   5.094  11.438
47471W        W19197  19.855  31.638  11.687
47472W        W19198   3.445   6.638   4.506
47473W        W19199  28.424   7.209  14.845
47474W        W19200  14.737  22.424  11.757
47475W        W19201  13.323  29.679   3.146
47476W        W19202  12.659  30.485  13.862
47477W        W19203  37.882  34.291  12.316
47478W        W19204  13.668  23.184   3.872
47479W        W19205  43.757   9.265   4.145
47480W        W19206  10.370  40.944  13.844
47481W        W19207  25.241  37.378  14.829
47482W        W19208  29.427   8.659   0.934
47483W        W19209  32.036  15.287   2.977
47484W        W19210  18.521  17.102  14.997
47485W        W19211  31.008  22.669  12.551
47486W        W19212  26.233  21.576  11.154
47487W        W19213  38.024  32.591  13.407
47488W        W19214   7.608   7.783   1.695
47489W        W19215   6.114  41.316   0.966
47490W        W19216  19.064  10.352   0.191
47491W        W19217  38.812  38.397  12.971
47492W        W19218  16.160  25.196   2.759
47493W        W19219   6.411  20.469   1.731
47494W        W19220  11.527  29.988  10.420
47495W        W19221  29.195  17.911   2.486
47496W        W19222  22.309  26.343   2.212
47497W        W19223   9.282  44.557   0.439
47498W        W19224   1.934   2.377   2.694
47499W        W19225  42.388  42.231  11.564
47500W        W19226   9.907  26.611  11.166
47501W        W19227  35.440  11.641  12.877
47502W        W19228  22.220   3.580   1.869
47503W        W19229  21.543   9.628  12.539
47504W        W19230  35.396  21.065   0.747
47505W        W19231  28.505  42.822   3.727
47506W        W19232  23.514   2.411  14.725
47507W        W19233  24.675  30.467   2.881
47508W        W19234  16.323   0.916  13.812
47509W        W19235  11.455   4.302  13.870
47510W        W19236  10.000  18.605  10.797
47511W        W19237  25.755  36.377  12.651
47512W        W19238  23.379  24.909   4.669
47513W        W19239   0.858  19.033   0.595
47514W        W19240   0.700  13.108   2.727
47515W        W19241  23.954   8.395  13.023
47516W        W19242  22.520  15.800  12.077
47517W        W19243  21.778  35.889  11.547
47518W        W19244  43.906   6.596  12.836
47519W        W19245   8.657  32.450   0.867
47520W        W19246  31.543  33.041  12.871
47521W        W19247  11.244  19.896  13.610
47522W        W19248  29.085  39.547   1.659
47523W        W19249  18.672  25.942  12.002
47524W        W19250  34.479  42.485   1.365
47525W        W19251  30.055  13.118  13.462
47526W        W19252   9.834  15.671  14.460
47527W        W19253   3.429  29.039  14.123
47528W        W19254  16.293   4.753   3.352
47529W        W19255  16.553  31.696   1.762
47530W        W19256   6.394  28.991  11.258
47531W        W19257  40.077  17.975   0.752
47532W        W19258  22.985  21.122  13.000
47533W        W19259  11.257   7.055   3.857
47534W        W19260  31.642   1.029   0.377
47535W        W19261   7.982  26.396  10.274
47536W        W19262  42.538  39.977   2.745
47537W        W19263  43.223   7.480   4.695
47538W        W19264  27.773  17.265  12.728
47539W        W19265   3.185  30.689   0.867
47540W        W19266  30.075   9.248   1.316
47541W        W19267  37.785  43.406  13.929
47542W        W19268  25.271  38.148   0.226
47543W        W19269  13.335  38.011  13.909
47544W        W19270  42.079  16.789  10.563
47545W        W19271  25.497  31.080  12.816
47546W        W19272  11.057  43.773  14.330
47547W        W19273   6.467  17.180  10.258
47548W        W19274  20.209  11.180  14.986
47549W        W19275   3.482   5.197  11.987
47550W        W19276  23.958  37.449   3.669
47551W        W19277  42.433  41.240  13.583
47552W        W19278  22.318  27.965   1.681
47553W        W19279  21.612  17.699   1.680
47554W        W19280  41.075  30.899  10.764
47555W        W19281  24.898  27.568   4.732
47556W        W19282   0.924   5.730  11.606
47557W        W19283  25.446  15.135  10.746
47558W        W19284  29.089   9.622  12.896
47559W        W19285  16.028  42.870  10.751
47560W        W19286  13.081  17.099   9.907
47561W        W19287  10.182  20.732  13.340
47562W        W19288  18.825  33.830  13.077
47563W        W19289  24.775  20.500  11.344
47564W        W19290   1.331  33.097   1.383
47565W        W19291  11.163  27.784   3.355
47566W        W19292  11.654  36.813  13.415
47567W        W19293   6.368   7.964  11.545
47568W        W19294  22.523  42.568   4.155
47569W        W19295  37.370  13.417   0.936
47570W        W19296  20.675  12.531  10.490
47571W        W19297  35.239   4.560  11.956
47572W        W19298  31.103  25.282   4.652
47573W        W19299  36.674  22.125  11.458
47574W        W19300  36.373  39.518  12.063
47575W        W19301  20.598   4.206  14.982
47576W        W19302   4.674  12.801  13.432
47577W        W19303   5.441   1.602  12.707
47578W        W19304   2.272  31.337   0.250
47579W        W19305  22.922   4.006   4.449
47580W        W19306  22.270  22.571  14.313
47581W        W19307   2.034   2.261  12.046
47582W        W19308  14.102  34.907   1.388
47583W        W19309  23.583  20.823   3.911
47584W        W19310  20.108  22.453   4.694
47585W        W19311  40.407  23.638  14.895
47586W        W19312   5.880  33.163   1.244
47587W        W19313  25.185  16.670  12.557
47588W        W19314  21.513  16.144  14.867
47589W        W19315  30.259   3.835  13.337
47590W        W19316   7.979  33.861  11.670
47591W        W19317  21.787  23.548  14.595
47592W        W19318  35.591  29.755  11.661
47593W        W19319  22.670   5.780   2.334
47594W        W19320  30.487  27.312   2.669
47595W        W19321   4.830  32.033  10.284
47596W        W19322  27.565   0.483  12.084
47597W        W19323   6.681  39.474   0.847
47598W        W19324  16.363  39.514  10.706
47599W        W19325   7.768   2.860   0.368
47600W        W19326  26.526  22.276   1.307
47601W        W19327  29.936   1.225   4.793
47602W        W19328  22.182  20.550   2.948
47603W        W19329  23.256  24.218   4.230
47604W        W19330  20.968  19.300   3.329
47605W        W19331   4.348   4.307   4.161
47606W        W19332  33.649   5.981   3.191
47607W        W19333  15.987  36.123   1.752
47608W        W19334  27.330  16.085   2.399
47609W        W19335  30.206  11.251   0.319
47610W        W19336  12.158  38.409   0.776
47611W        W19337  26.699  30.171   2.470
47612W        W19338  16.182  13.533   1.696
47613W        W19339  23.187  32.104  10.387
47614W        W19340  36.537  38.559  12.107
47615W        W19341  22.490  20.632   1.384
47616W        W19342  34.363  21.209   1.767
47617W        W19343  20.098  11.855  13.181
47618W        W19344   9.537  38.433  12.533
47619W        W19345  34.760   8.792  11.915
47620W        W19346  27.907  22.148  12.519
47621W        W19347  27.482  15.986  12.535
47622W        W19348  44.383   4.221   3.868
47623W        W19349  32.122  11.006   2.338
47624W        W19350  25.131  12.344   4.899
47625W        W19351  13.785   9.600   0.728
47626W        W19352   2.233  18.679   1.961
47627W        W19353   5.441  41.774  11.267
47628W        W19354  14.716  36.282   1.171
47629W        W19355   7.219  19.959   3.485
47630W        W19356   1.953   1.807  14.159
47631W        W19357  42.739  16.198  14.856
47632W        W19358  42.347  28.604   1.688
47633W        W19359  16.584  24.544   1.981
47634W        W19360  19.025  27.874   2.283
47635W        W19361  22.055  40.354  10.629
47636W        W19362  31.964  20.665  13.071
47637W        W19363  42.397  14.248  12.540
47638W        W19364  30.973  30.357   4.076
47639W        W19365  15.368  34.859  12.772
47640W        W19366  25.173  30.579   2.923
47641W        W19367  39.242   0.715  11.640
47642W        W19368  13.189  41.530   2.748
47643W        W19369  40.490  36.126   1.813
47644W        W19370  36.074  23.709   2.965
47645W        W19371  24.160  30.188  10.290
47646W        W19372  40.034   0.203  11.735
47647W        W19373   2.904  31.534  13.059
47648W        W19374  31.629   3.707   4.533
47649W        W19375  15.180  16.391   1.227
47650W        W19376  37.842  31.960   0.914
47651W        W19377  11.322  40.411   0.072
47652W        W19378  41.921  23.594  11.556
47653W        W19379  39.469   0.371  14.812
47654W        W19380  41.282  17.672   3.206
47655W        W19381   9.266   1.438   1.767
47656W        W19382  40.816  27.680   0.468
47657W        W19383  14.380  14.747   3.241
47658W        W19384  40.768   4.256   3.512
47659W        W19385  26.236  31.551   4.531
47660W        W19386  27.431  15.786   1.210
47661W        W19387   6.346  15.652  10.046
47662W        W19388  23.118   3.780   0.849
47663W        W19389   7.331  13.512  11.185
47664W        W19390  31.133  35.934   0.236
47665W        W19391  29.962   6.358   3.711
47666W        W19392  19.173  23.747  14.982
47667W        W19393  44.045  21.259  12.358
47668W        W19394  40.964  19.723   3.051
47669W        W19395  20.280  29.920  13.088
47670W        W19396  40.558  26.342   3.270
47671W        W19397  21.143  19.082   2.763
47672W        W19398   0.931  30.296  14.084
47673W        W19399  26.129   1.965   0.906
47674W        W19400  36.459  25.475   4.668
47675W        W19401  17.447  10.596   3.577
47676W        W19402  30.149  41.999  12.078
47677W        W19403  22.968   1.649   2.315
47678W        W19404  35.880  10.626  14.360
47679W        W19405  43.972  22.447   0.253
47680W        W19406  25.131  38.722  12.678
47681W        W19407  17.136  43.258   2.834
47682W        W19408  11.281  44.051  11.026
47683W        W19409   3.368  11.373   2.682
47684W        W19410  21.790  16.111   3.409
47685W        W19411  26.032   7.788   2.880
47686W        W19412  25.468  36.043  14.362
47687W        W19413  15.822  40.994   1.758
47688W        W19414  22.548   3.940  11.668
47689W        W19415  31.606  15.727   4.563
47690W        W19416  38.566  22.726   3.660
47691W        W19417  36.285   4.873   3.130
47692W        W19418  37.128  23.153  10.802
47693W        W19419  11.864  19.412  13.307
47694W        W19420  30.673  23.987  13.651
47695W        W19421  22.726  12.340   4.131
47696W        W19422  22.029   7.420   1.508
47697W        W19423  27.476  11.576   1.267
47698W        W19424  19.479  39.704  11.113
47699W        W19425  31.145  19.745  10.690
47700W        W19426  44.003  28.721  11.886
47701W        W19427   1.338   8.434   4.225
47702W        W19428  41.778   5.712  12.014
47703W        W19429  13.734  30.946   1.850
47704W        W19430  29.462  43.674   2.199
47705W        W19431   7.779  35.357  13.481
47706W        W19432  24.085  30.912  11.023
47707W        W19433  34.188  19.084   4.600
47708W        W19434  15.713  13.372  11.983
47709W        W19435  34.140   5.158  12.910
47710W        W19436  14.829  23.582   1.812
47711W        W19437  20.282  12.120  13.950
47712W        W19438   6.652  32.313  14.172
47713W        W19439  14.714   7.332  11.221
47714W        W19440   1.268  20.522  13.980
47715W        W19441  20.747  21.301  13.998
47716W        W19442  10.517  11.211  11.533
47717W        W19443  44.942  41.762  11.154
47718W        W19444   6.622  39.468   4.118
47719W        W19445  25.117  29.902   4.882
47720W        W19446   1.768  26.132  14.960
47721W        W19447  42.905  16.059   2.262
47722W        W19448  25.230  10.023   1.874
47723W        W19449  34.736  44.937   1.544
47724W        W19450  37.540   7.415  10.738
47725W        W19451  15.769   3.309   0.924
47726W        W19452  17.358  35.891   0.952
47727W        W19453   5.776   6.352  10.906
47728W        W19454  24.490  35.533  13.020
47729W        W19455  30.219  34.564  10.967
47730W        W19456  39.933  41.084   1.362
47731W        W19457  26.728   7.512  10.995
47732W        W19458  39.404  18.682  13.054
47733W        W19459  23.526  31.990  12.378
47734W        W19460   9.749  40.960  11.603
47735W        W19461   4.982  26.603  12.456
47736W        W19462  43.723  20.959  12.068
47737W        W19463  19.021   3.357  14.427
47738W        W19464   3.380   4.792  10.583
47739W        W19465  19.646  34.644   2.010
47740W        W19466  36.078  44.383  14.347
47741W        W19467   1.888  33.157   2.784
47742W        W19468  16.171  29.622   3.638
47743W        W19469  42.388  41.492  12.172
47744W        W19470  31.596  20.292   4.271
47745W        W19471   7.424  16.225   2.348
47746W        W19472  37.197  24.083  13.946
47747W        W19473  31.923  14.955   2.329
47748W        W19474   1.307  18.854   2.308
47749W        W19475   5.435   2.367  12.170
47750W        W19476  41.496   3.017  11.126
47751W        W19477  38.485  11.377   1.706
47752W        W19478  33.986  42.710  13.584
47753W        W19479   2.213   3.254   1.239
47754W        W19480  43.445   9.797  14.696
47755W        W19481  31.057   5.217  10.660
47756W        W19482  16.062   1.223  14.361
47757W        W19483  26.596  40.846   2.168
47758W        W19484  29.039  21.017  14.554
47759W        W19485  11.651  43.197   3.621
47760W        W19486  20.487  37.349  12.989
47761W        W19487  44.470  20.940   2.706
47762W        W19488  25.681  20.767  11.531
47763W        W19489  39.526  15.421  12.639
47764W        W19490   7.303  38.439  14.294
47765W        W19491  38.850   6.266   0.868
47766W        W19492   8.526   6.164  12.900
47767W        W19493   3.784  38.565  13.898
47768W        W19494   3.167   9.191  11.660
47769W        W19495  41.878  34.983  14.305
47770W        W19496  24.003  16.083   4.616
47771W        W19497  18.642  21.312  14.401
47772W        W19498   4.876  18.691  12.786
47773W        W19499   8.326   5.381   1.121
47774W        W19500  27.161   3.409   4.597
47775W        W19501  12.760  12.382  10.821
47776W        W19502  10.777  38.887   3.094
47777W        W19503  38.773  36.886   3.712
47778W        W19504  19.100  42.994  11.333
47779W        W19505  31.903  21.111   3.254
47780W        W19506  40.246  35.935  11.416
47781W        W19507  32.409  34.013   1.201
47782W        W19508  43.901  13.306  10.711
47783W        W19509  25.748  10.513  12.446
47784W        W19510  27.200  23.994   3.339
47785W        W19511  39.922   9.622  12.071
47786W        W19512  24.632  26.881   9.839
47787W        W19513  44.221  26.937  14.227
47788W        W19514  37.888   7.338  13.051
47789W        W19515  11.243   3.918  11.964
47790W        W19516   4.706  29.741   4.592
47791W        W19517  14.072  43.030   3.748
47792W        W19518  30.531  40.106   1.896
47793W        W19519  35.152  30.413  12.370
47794W        W19520  13.784  34.971   0.525
47795W        W19521  23.507   8.353   0.787
47796W        W19522  17.601  21.648   1.588
47797W        W19523  29.459  37.294   0.276
47798W        W19524   6.435   4.395  13.372
47799W        W19525  23.205  38.893  11.506
47800W        W19526  17.135  20.134   3.786
47801W        W19527  16.217  30.393  13.885
47802W        W19528   6.312  39.869   2.023
47803W        W19529  25.782  27.236   0.942
47804W        W19530  25.198   3.873  14.145
47805W        W19531  29.166  24.628  13.539
47806W        W19532  16.904  39.704   3.151
47807W        W19533  27.364  39.342   0.944
47808W        W19534  25.640  11.830  13.504
47809W        W19535  15.010   6.945   3.087
47810W        W19536   5.464  23.604   0.228
47811W        W19537  16.121  21.048  14.339
47812W        W19538  34.935  26.443   3.269
47813W        W19539   7.300  24.018  14.349
47814W        W19540   4.439  21.344   4.038
47815W        W19541  31.648  13.879   2.288
47816W        W19542  30.190   5.369   4.623
47817W        W19543   9.601  39.470   2.753
47818W        W19544   4.436  28.927   9.943
47819W        W19545  18.552  16.158  10.619
47820W        W19546   6.942  22.690  10.656
47821W        W19547  11.214  42.138  12.393
47822W        W19548  41.305  34.779   3.689
47823W        W19549  40.277  13.123   4.859
47824W        W19550  32.543   4.655   0.927
47825W        W19551  17.326  29.216  11.070
47826W        W19552  17.429   3.348  10.729
47827W        W19553   0.345  39.921  13.438
47828W        W19554   0.809   9.027   2.854
47829W        W19555  18.347  21.195  12.915
47830W        W19556  26.013  34.440   1.028
47831W        W19557  32.127  17.599  10.567
47832W        W19558  25.044  10.055  11.072
47833W        W19559  17.177  37.102   1.399
47834W        W19560   6.634   3.023   1.876
47835W        W19561  29.851  39.794  10.740
47836W        W19562   3.861   3.864  12.728
47837W        W19563  37.776   2.326   4.295
47838W        W19564  37.791  42.819  13.044
47839W        W19565  33.917  26.585   2.344
47840W        W19566  38.768  13.836   0.884
47841W        W19567  19.116  21.286   0.847
47842W        W19568  26.977  36.536   4.665
47843W        W19569  28.117   7.594   1.890
47844W        W19570  10.659  25.029   4.088
47845W        W19571   6.460   8.725   1.379
47846W        W19572  43.001  16.274  11.905
47847W        W19573  40.938  42.963   4.411
47848W        W19574  25.676  29.752   0.647
47849W        W19575   1.924  20.877   4.608
47850W        W19576  29.371  11.859   2.862
47851W        W19577   4.030  16.192  13.148
47852W        W19578   6.284  35.922  12.092
47853W        W19579  28.732  19.620  14.830
47854W        W19580  21.574  32.605  14.015
47855W        W19581  26.723  19.128  14.380
47856W        W19582  28.628  13.070  13.281
47857W        W19583  21.947  20.467  14.809
47858W        W19584  26.586  10.523   1.893
47859W        W19585  34.237  39.396   4.377
47860W        W19586  39.882   4.770   0.804
47861W        W19587  17.174   7.139  11.280
47862W        W19588  23.028   8.914   0.328
47863W        W19589  15.308  22.582   0.322
47864W        W19590  36.106  16.757   3.682
47865W        W19591  29.356  14.644  12.053
47866W        W19592  28.123  25.436   3.298
47867W        W19593  26.578   9.645  11.925
47868W        W19594  30.138  37.010  13.308
47869W        W19595  17.127  13.846  10.499
47870W        W19596   1.450  27.171   4.237
47871W        W19597  36.048   2.248  11.170
47872W        W19598  39.536   3.741  12.553
47873W        W19599   6.249  18.468  11.510
47874W        W19600   8.454  31.413  11.089
47875W        W19601  31.318  26.414  12.502
47876W        W19602  19.534  23.735   3.139
47877W        W19603  31.314  23.706   4.652
47878W        W19604  33.169  14.178   1.423
47879W        W19605  43.732  39.428   0.315
47880W        W19606  34.099  16.365  12.905
47881W        W19607   3.595  14.688   2.088
47882W        W19608  40.367  35.377   2.231
47883W        W19609  19.210  30.557  11.879
47884W        W19610   8.260  35.279  12.435
47885W        W19611   1.955  40.821   1.886
47886W        W19612  15.086  30.239  11.175
47887W        W19613  44.749   3.154  12.616
47888W        W19614  26.315  37.939  13.913
47889W        W19615  31.924   9.323   0.938
47890W        W19616  17.181  20.685  13.936
47891W        W19617   6.223  18.886   0.770
47892W        W19618   1.435   7.133  13.516
47893W        W19619   0.457  17.292   2.142
47894W        W19620  12.075  32.242  14.429
47895W        W19621   8.816   1.005   0.915
47896W        W19622   6.463  10.167   0.840
47897W        W19623  38.523  21.169   4.566
47898W        W19624  31.314   4.285  14.763
47899W        W19625  38.200  27.482   0.887
47900W        W19626  32.938  43.961  14.332
47901W        W19627  30.441  41.075  11.879
47902W        W19628  11.785  25.241  12.460
47903W        W19629   5.121  26.717  13.004
47904W        W19630  22.953   6.605  13.549
47905W        W19631  21.305   1.933  11.148
47906W        W19632   4.717   0.309   0.255
47907W        W19633  44.554  16.157   4.165
47908W        W19634  29.047  18.536   3.711
47909W        W19635  31.407  33.349  14.643
47910W        W19636   7.342  11.846   0.380
47911W        W19637  16.480  12.759  11.129
47912W        W19638  34.218  35.100   3.397
47913W        W19639  43.588  23.522   1.287
47914W        W19640  39.655  37.991  13.418
47915W        W19641  16.081   3.487  14.835
47916W        W19642  27.863  28.806  10.176
47917W        W19643  44.739  39.359   3.581
47918W        W19644   8.793  13.603  11.240
47919W        W19645  26.261  40.834  11.116
47920W        W19646  25.024  44.213   1.751
47921W        W19647  15.342  31.147   2.250
47922W        W19648  34.463  15.214   4.935
47923W        W19649  34.920  31.635   2.727
47924W        W19650  12.024  14.737   4.119
47925W        W19651  22.026  35.547   4.158
47926W        W19652  28.268  20.984  10.382
47927W        W19653  38.838  40.558   0.856
47928W        W19654  26.655   2.560  13.100
47929W        W19655  19.437  43.791  11.896
47930W        W19656  35.393   6.828   0.655
47931W        W19657  40.103  42.513   4.656
47932W        W19658   1.903  31.235   5.074
47933W        W19659   0.789  34.938   4.538
47934W        W19660  36.324  44.544  12.081
47935W        W19661  42.522  35.534  13.913
47936W        W19662   2.018   9.724  13.721
47937W        W19663   8.781  34.567  10.250
47938W        W19664  28.885  32.969  10.776
47939W        W19665   1.235   0.847  14.850
47940W        W19666   7.598  42.814   1.319
47941W        W19667  33.958  29.574  12.956
47942W        W19668   1.463   2.543   0.135
47943W        W19669  10.121  19.307   4.729
47944W        W19670   2.015  20.740  11.721
47945W        W19671  31.120  25.548  13.858
47946W        W19672  31.155  44.217   4.560
47947W        W19673  39.492  25.538   4.633
47948W        W19674   3.899  17.595   2.295
47949W        W19675  30.175  44.800  11.471
47950W        W19676  36.323  41.960   2.422
47951W        W19677  36.060  11.818   0.767
47952W        W19678   6.978  24.511   0.230
47953W        W19679  26.734  14.342   0.663
47954W        W19680  11.796  29.193   3.763
47955W        W19681  29.617  25.230   5.733
47956W        W19682   1.195   5.187   1.227
47957W        W19683  23.518  13.729  13.877
47958W        W19684   7.083  26.956   0.547
47959W        W19685  42.544  34.397  11.469
47960W        W19686   5.535  29.153  14.854
47961W        W19687   9.698  31.567  11.571
47962W        W19688   8.979  41.615  14.080
47963W        W19689  29.100  16.656   3.604
47964W        W19690  11.272  29.692  11.113
47965W        W19691  13.335  17.301  14.464
47966W        W19692   3.455   0.882  14.013
47967W        W19693  42.673   8.461   0.024
47968W        W19694  30.465  39.193   3.837
47969W        W19695  34.130  39.612   2.240
47970W        W19696  21.990  35.434   2.464
47971W        W19697  40.880  41.358   3.233
47972W        W19698   7.217  30.917  11.482
47973W        W19699  40.493  41.239   2.905
47974W        W19700  22.548  25.110   9.929
47975W        W19701  38.184  16.329   1.754
47976W        W19702  34.460  24.299  11.231
47977W        W19703  40.723  10.154   2.001
47978W        W19704   8.297  40.581   3.975
47979W        W19705   1.854  25.060  12.719
47980W        W19706  21.285  39.335   4.547
47981W        W19707   0.996   8.430  11.750
47982W        W19708   6.757  38.998  11.489
47983W        W19709  35.367  24.547  10.838
47984W        W19710   8.395  31.029   1.241
47985W        W19711  12.791  36.483  12.074
47986W        W19712   5.744   5.220  12.770
47987W        W19713  10.425   6.854  10.792
47988W        W19714  21.622  17.162   2.255
47989W        W19715  32.576  40.882   3.728
47990W        W19716   1.398  25.174   3.699
47991W        W19717  14.313  11.596  14.272
47992W        W19718  20.160  32.032  10.282
47993W        W19719  38.548  25.086  13.525
47994W        W19720   8.983  23.072  11.220
47995W        W19721   8.369  24.651   0.600
47996W        W19722  18.588  29.004   4.572
47997W        W19723   9.102  39.004  11.130
47998W        W19724  21.567  44.805   2.662
47999W        W19725   8.889  23.486  12.071
48000W        W19726  34.573  38.655   4.515
48001W        W19727  10.662  17.806  12.434
48002W        W19728  14.955  32.416  13.507
48003W        W19729  20.578  37.061   3.624
48004W        W19730  44.798   5.324  14.904
48005W        W19731  41.236  27.229  12.799
48006W        W19732  23.904   1.602  10.709
48007W        W19733  40.223  17.014  12.416
48008W        W19734  16.349  32.583  13.459
48009W        W19735  25.571  16.231   3.816
48010W        W19736  23.197  36.659  11.653
48011W        W19737  41.034  33.371   2.649
48012W        W19738  17.928  27.612  14.195
48013W        W19739  13.560  33.390   0.541
48014W        W19740  39.359   5.623   3.062
48015W        W19741  40.897   0.251  13.337
48016W        W19742  22.643  39.580  10.634
48017W        W19743  44.198  11.332  11.617
48018W        W19744   0.721  23.516  10.606
48019W        W19745  10.751  23.290  14.788
48020W        W19746   8.858  31.945   9.992
48021W        W19747  37.796  39.898   2.429
48022W        W19748   7.257  44.410   4.479
48023W        W19749  22.010  39.101   2.332
48024W        W19750  36.854  44.707   0.889
48025W        W19751  15.860   3.942   3.664
48026W        W19752  44.783   9.632   3.815
48027W        W19753  39.093  32.425  14.907
48028W        W19754   3.422   0.311  12.328
48029W        W19755  39.506   0.215  11.658
48030W        W19756   7.539  13.955  11.465
48031W        W19757  14.763  25.747  11.246
48032W        W19758  26.192   1.785   1.821
48033W        W19759   6.214  11.673   1.381
48034W        W19760  37.553  28.989  14.085
48035W        W19761  43.476  34.514  13.780
48036W        W19762  35.634  16.836  12.890
48037W        W19763  18.334  11.289   1.933
48038W        W19764  20.795  14.718  13.584
48039W        W19765  25.359  43.956  11.114
48040W        W19766   8.451  17.206  14.429
48041W        W19767  37.563   2.727   3.654
48042W        W19768  43.316   1.659   3.397
48043W        W19769  10.056  23.067   3.758
48044W        W19770  44.947  37.879   2.870
48045W        W19771  32.972  30.999  11.653
48046W        W19772  34.502  19.120   0.656
48047W        W19773  42.409  22.152  10.632
48048W        W19774  37.961  35.391   0.819
48049W        W19775   8.666  39.305  12.484
48050W        W19776   7.175  43.062   2.677
48051W        W19777  23.586  38.251   3.229
48052W        W19778  15.162  22.135   3.739
48053W        W19779  42.327  15.710  14.363
48054W        W19780   1.694  20.636  13.622
48055W        W19781   0.402   2.319  10.448
48056W        W19782   6.735  27.698  12.977
48057W        W19783   3.905  21.178  11.552
48058W        W19784  15.361  28.134  11.121
48059W        W19785  14.162  12.295  12.480
48060W        W19786  22.728  12.179   5.474
48061W        W19787  30.264  44.203   3.191
48062W        W19788  11.022  39.916   2.707
48063W        W19789  41.878  39.782  10.669
48064W        W19790  14.262  43.037  11.097
48065W        W19791  29.531  23.438  10.324
48066W        W19792   2.737  16.458   3.181
48067W        W19793   5.760  27.970   4.205
48068W        W19794  28.385  24.684  11.525
48069W        W19795  21.896   0.929   2.335
48070W        W19796   0.541  14.536  11.548
48071W        W19797  43.384   8.502  14.314
48072W        W19798  37.305  39.409  13.028
48073W        W19799  33.561  28.511  12.364
48074W        W19800  15.180  13.325  13.539
48075W        W19801  43.230  15.692  10.880
48076W        W19802  15.693   2.828  11.041
48077W        W19803   1.636   8.184   3.771
48078W        W19804   8.231  20.113   4.132
48079W        W19805  10.149  43.524  12.467
48080W        W19806  18.480   4.957   4.382
48081W        W19807  36.665  26.976  11.463
48082W        W19808   3.978   8.227  11.643
48083W        W19809   1.421  33.792   0.837
48084W        W19810  27.388  14.824   3.319
48085W        W19811  16.165  44.818   0.029
48086W        W19812  22.042  27.607  13.310
48087W        W19813   2.495  34.598  10.230
48088W        W19814  37.099   5.155   0.029
48089W        W19815  31.549  22.918  11.421
48090W        W19816  31.181   1.248   0.446
48091W        W19817   5.359  34.041  14.400
48092W        W19818  38.151  37.493   3.256
48093W        W19819   7.664  41.346   2.093
48094W        W19820  25.547  13.818  14.851
48095W        W19821  12.738  12.938  14.163
48096W        W19822  35.111  33.009   1.985
48097W        W19823  23.279   3.166   2.045
48098W        W19824  16.016   0.983  11.603
48099W        W19825  20.081   4.165   4.236
48100W        W19826   7.511  26.586   4.119
48101W        W19827   6.227  10.351  12.445
48102W        W19828  33.825  18.323  11.112
48103W        W19829  32.367  37.500  12.545
48104W        W19830  13.317  22.751  11.230
48105W        W19831   0.042  42.810   1.892
48106W        W19832  39.877  15.076  12.457
48107W        W19833   5.444  19.766   2.768
48108W        W19834  13.153  21.091   1.205
48109W        W19835  29.429   9.746  13.778
48110W        W19836  25.904   1.385   3.602
48111W        W19837  23.455  26.253   1.251
48112W        W19838   5.646   5.432   1.410
48113W        W19839   0.492  12.320   4.142
48114W        W19840  20.467  39.509   1.205
48115W        W19841  42.789  40.759   0.781
48116W        W19842  31.906   9.939  14.997
48117W        W19843  39.429  29.981   0.275
48118W        W19844  11.246  10.508  10.399
48119W        W19845  33.499  14.128  12.177
48120W        W19846  12.359  26.080   3.654
48121W        W19847  38.857  33.501  10.060
48122W        W19848   8.250  12.977  12.381
48123W        W19849  44.453  36.395  14.732
48124W        W19850  17.787  44.405   0.526
48125W        W19851  17.145  19.044   1.846
48126W        W19852  34.924  27.224   4.569
48127W        W19853  32.338  26.024  10.457
48128W        W19854  17.753  15.281   4.633
48129W        W19855  40.599  16.706  12.871
48130W        W19856  36.871   0.857  14.805
48131W        W19857   3.207   3.472   9.924
48132W        W19858  34.993  32.584  13.888
48133W        W19859   1.284  40.737  14.955
48134W        W19860  13.564  34.989   3.641
48135W        W19861  43.826   0.931   4.576
48136W        W19862   5.956  23.773   0.207
48137W        W19863  29.388   7.259   1.797
48138W        W19864  23.723   7.146  12.062
48139W        W19865   9.334  22.989  12.200
48140W        W19866  40.419  43.557  14.765
48141W        W19867  37.397  14.854   3.800
48142W        W19868  18.727  26.248  11.578
48143W        W19869   6.800  22.547   2.282
48144W        W19870  29.464  21.485  11.654
48145W        W19871  44.480   9.934   3.531
48146W        W19872  39.038  38.984  10.568
48147W        W19873  26.735  20.036  10.180
48148W        W19874   5.145  29.182  11.856
48149W        W19875  30.130  39.479  14.396
48150W        W19876   3.754  20.985   0.916
48151W        W19877  30.324  26.471   2.252
48152W        W19878  31.924  29.763  14.622
48153W        W19879  41.135  17.912  11.525
48154W        W19880  31.962  12.658   3.832
48155W        W19881   5.220   3.829  12.529
48156W        W19882  24.692  20.359   1.463
48157W        W19883   8.698  38.982   3.746
48158W        W19884  27.688  16.240  14.399
48159W        W19885   8.291  19.718  14.589
48160W        W19886  26.357  32.435   3.207
48161W        W19887  23.862  11.178   4.223
48162W        W19888  31.918  33.923  10.621
48163W        W19889  27.154  42.859  12.644
48164W        W19890  35.985  21.691   3.024
48165W        W19891  31.930  12.245   1.658
48166W        W19892  40.401  19.382   0.827
48167W        W19893  36.644   4.482   3.020
48168W        W19894  17.514  24.981  14.869
48169W        W19895  25.705  42.509   1.669
48170W        W19896   5.908  19.536   2.712
48171W        W19897  16.835  41.631   5.242
48172W        W19898   3.356  25.073   0.160
48173W        W19899  15.647  38.872  10.594
48174W        W19900  44.384  19.969  11.133
48175W        W19901  10.515  43.497   3.655
48176W        W19902  34.968  37.146   2.011
48177W        W19903  36.414  30.659   0.307
48178W        W19904  22.374  17.521  10.634
48179W        W19905  25.280   9.270   3.288
48180W        W19906   9.509  22.617   9.739
48181W        W19907  31.400  11.695  12.491
48182W        W19908  31.388  37.917  10.981
48183W        W19909  41.000   7.658   1.345
48184W        W19910   9.781  44.855   1.409
48185W        W19911   9.603  19.106   2.115
48186W        W19912  13.376  27.585  13.015
48187W        W19913  11.830  30.419  11.192
48188W        W19914  28.366  23.153  13.991
48189W        W19915  23.588  30.461  10.593
48190W        W19916  33.191  43.409  13.491
48191W        W19917  28.459   8.830  14.046
48192W        W19918  16.561  12.880   2.802
48193W        W19919  43.461  21.352  13.351
48194W        W19920   9.663   7.319   4.185
48195W        W19921  10.236   3.081   4.232
48196W        W19922   6.761   3.933   4.051
48197W        W19923  12.091  18.276  13.987
48198W        W19924  17.007  13.349  13.381
48199W        W19925  22.377  29.683   4.210
48200W        W19926   4.664  21.005  13.484
48201W        W19927  20.078   2.069   1.375
48202W        W19928   6.744   1.444  12.926
48203W        W19929  41.465  10.207  13.197
48204W        W19930  19.625  39.281  13.944
48205W        W19931  36.341  17.116   2.174
48206W        W19932  43.398   9.807   1.779
48207W        W19933  28.725  15.156   3.717
48208W        W19934  23.696   4.872  14.627
48209W        W19935  17.370  33.177  11.628
48210W        W19936   8.405  27.651  11.619
48211W        W19937  32.926  26.663  10.634
48212W        W19938  25.697  20.466  11.115
48213W        W19939  26.973   3.687  12.449
48214W        W19940  21.979  16.158  12.279
48215W        W19941  38.880  14.625   4.129
48216W        W19942  10.174  13.230  13.854
48217W        W19943  40.105  39.289  13.338
48218W        W19944  26.789  37.017   0.045
48219W        W19945  36.905  32.482  14.501
48220W        W19946   9.364  44.163   2.248
48221W        W19947  41.439   3.700   1.352
48222W        W19948   2.931   6.272   1.409
48223W        W19949  21.297  35.581  14.777
48224W        W19950   6.835  14.871   1.669
48225W        W19951  30.626   4.740   0.085
48226W        W19952  43.778  30.385   4.460
48227W        W19953  24.660   1.759   5.180
48228W        W19954  41.347  43.136  12.925
48229W        W19955  30.719  11.472   1.492
48230W        W19956   1.702  18.394   0.642
48231W        W19957  17.013  10.037   3.613
48232W        W19958  13.575   9.167   3.885
48233W        W19959   9.386  16.688   4.088
48234W        W19960  32.434   4.440  12.841
48235W        W19961  27.475   2.674  11.251
48236W        W19962   9.131  34.821   1.792
48237W        W19963  14.305   1.913  11.134
48238W        W19964  13.344  15.470  11.079
48239W        W19965  27.014  16.224   2.010
48240W        W19966  22.974  44.913   0.686
48241W        W19967   7.905  28.265  10.614
48242W        W19968  34.882  31.013  14.423
48243W        W19969   3.422  32.791   3.019
48244W        W19970  32.960  13.162   4.481
48245W        W19971  30.854  39.950  13.313
48246W        W19972  43.927  26.486  11.568
48247W        W19973  23.731   9.423  12.148
48248W        W19974  12.529  36.617  11.613
48249W        W19975  32.585   2.747  11.544
48250W        W19976   4.988   9.279   2.499
48251W        W19977  26.006  28.079  11.597
48252W        W19978  39.844   7.439  12.904
48253W        W19979   9.333  18.681   1.967
48254W        W19980  41.621  19.786  14.881
48255W        W19981  17.661  10.175   2.801
48256W        W19982  26.913   4.744   0.922
48257W        W19983   0.488  22.478  11.171
48258W        W19984  24.558   0.822  11.548
48259W        W19985  32.509  23.751  12.172
48260W        W19986  30.300  35.975   1.921
48261W        W19987   1.406  20.540   4.543
48262W        W19988  34.966  12.808   0.673
48263W        W19989   7.478   4.987   1.247
48264W        W19990  20.441  44.417  11.787
48265W        W19991  21.587  13.583  12.032
48266W        W19992   8.377  16.751   2.169
48267W        W19993  25.134  18.691   0.813
48268W        W19994  10.119  33.757   5.286
48269W        W19995  11.108   6.664   0.524
48270W        W19996  32.004  37.844   0.834
48271W        W19997   1.332  44.261  12.089
48272W        W19998   8.387  43.403  14.996
48273W        W19999  17.238  32.214  11.336
48274W        W20000  44.804  19.213  14.886
48275W        W20001  27.704  24.225  14.254
48276W        W20002  22.461  38.805   3.225
48277W        W20003  29.725  12.217  10.821
48278W        W20004  35.038  24.959  13.804
48279W        W20005  30.515  14.536  14.880
48280W        W20006   6.258  25.533   3.187
48281W        W20007  43.402  33.432   0.917
48282W        W20008   7.265  15.618   5.595
48283W        W20009   5.405  25.474  12.478
48284W        W20010   3.210  37.354   4.058
48285W        W20011  19.424  43.321  14.988
48286W        W20012  34.317  11.781   4.112
48287W        W20013  12.683   5.360   2.934
48288W        W20014  11.185  34.899   1.240
48289W        W20015  25.269  23.001   4.034
48290W        W20016  22.232  24.412   0.375
48291W        W20017  26.800   3.807  11.179
48292W        W20018  42.249  33.450   3.210
48293W        W20019  23.181  11.734  13.407
48294W        W20020  11.418  17.184  13.717
48295W        W20021  14.073   6.478   0.922
48296W        W20022  21.543  30.479  12.465
48297W        W20023  24.694   0.398   0.414
48298W        W20024   0.365   0.540  12.392
48299W        W20025  20.152  40.303  11.190
48300W        W20026  26.639  33.902   4.726
48301W        W20027  42.366  26.964   2.174
48302W        W20028  40.454  18.211   3.167
48303W        W20029   4.133  12.762   0.667
48304W        W20030  26.169  17.262   3.014
48305W        W20031  14.665  34.480   2.365
48306W        W20032  18.828  17.565   1.726
48307W        W20033  32.901  18.643   2.402
48308W        W20034  41.791  30.085   0.221
48309W        W20035  42.876   4.237  11.137
48310W        W20036  28.889   9.259   4.482
48311W        W20037  43.446  25.216   4.083
48312W        W20038   4.761  13.349   0.446
48313W        W20039  24.478  25.508   2.687
48314W        W20040  19.335  12.222   0.835
48315W        W20041  41.834  31.382   4.215
48316W        W20042   1.362  27.492   2.110
48317W        W20043  34.226  41.394   3.864
48318W        W20044   3.508  26.058   3.162
48319W        W20045  39.747  24.687   1.268
48320W        W20046   0.015  22.746   0.770
48321W        W20047  38.048   5.355  14.076
48322W        W20048  42.026   4.340  11.739
48323W        W20049  14.369  23.235   3.605
48324W        W20050  22.963  10.146  11.854
48325W        W20051   0.695  31.881   3.087
48326W        W20052  25.733  26.116  13.254
48327W        W20053   1.000  25.299   4.414
48328W        W20054  12.785   1.955   3.084
48329W        W20055   7.664  11.913  11.462
48330W        W20056  37.331   9.954  14.550
48331W        W20057  18.791  19.535  11.499
48332W        W20058   8.868  11.705   4.721
48333W        W20059   0.760  18.092   4.372
48334W        W20060  23.958   0.625   4.218
48335W        W20061  31.540  19.350  10.959
48336W        W20062  28.155  15.359  11.992
48337W        W20063  22.625  30.380  11.609
48338W        W20064   2.861   6.054   3.051
48339W        W20065  38.996  22.448   4.555
48340W        W20066  10.731   5.239   2.729
48341W        W20067  23.763  37.891  10.506
48342W        W20068  40.908  17.528   3.552
48343W        W20069  27.086  10.096  11.140
48344W        W20070   2.947   0.390  12.535
48345W        W20071  31.954  43.977  13.766
48346W        W20072  23.906   3.399   0.856
48347W        W20073  17.203   1.840  14.231
48348W        W20074  42.412  30.658  13.317
48349W        W20075  15.335   7.976   1.200
48350W        W20076  31.334  44.054  11.519
48351W        W20077  24.512   1.536   1.408
48352W        W20078  28.884   0.905  14.981
48353W        W20079  35.422  33.395  13.953
48354W        W20080   6.907  40.475   0.654
48355W        W20081   4.865  23.751  13.054
48356W        W20082   4.343  18.980   4.333
48357W        W20083   7.465   9.323  14.025
48358W        W20084   1.984  10.832   0.896
48359W        W20085  21.254  42.754   4.613
48360W        W20086  37.059  24.819  11.496
48361W        W20087   1.562  40.428   2.672
48362W        W20088  16.299   4.186   1.645
48363W        W20089  16.066  20.140   2.149
48364W        W20090  38.744  12.337   4.660
48365W        W20091   1.879  33.379   1.404
48366W        W20092  35.787   2.412  11.585
48367W        W20093  36.189   7.326  11.477
48368W        W20094  13.265  11.634  11.579
48369W        W20095   0.752  40.594  14.259
48370W        W20096   2.978  30.275   3.649
48371W        W20097  16.773  32.529   0.699
48372W        W20098  19.656  17.519  12.089
48373W        W20099  26.159   5.420  12.204
48374W        W20100  36.505   2.738   4.689
48375W        W20101   2.709  41.582   2.588
48376W        W20102   9.235  30.104   5.016
48377W        W20103  24.206  13.312  11.616
48378W        W20104  12.428  23.774   0.435
48379W        W20105  22.047  26.498  12.451
48380W        W20106  43.886  42.556   3.500
48381W        W20107  31.771  14.695   4.593
48382W        W20108   8.745  40.788   2.479
48383W        W20109  43.965  23.643   0.946
48384W        W20110  24.955   1.520  10.692
48385W        W20111  40.107   5.621   4.582
48386W        W20112  31.195  16.587  12.077
48387W        W20113   3.991  30.485   3.711
48388W        W20114  43.747  22.665  12.435
48389W        W20115  41.478  15.874   1.689
48390W        W20116  26.453  28.940   0.081
48391W        W20117   1.250  10.207   1.191
48392W        W20118  11.319   9.260   4.631
48393W        W20119  23.360  34.735   4.520
48394W        W20120  14.121   8.389   2.809
48395W        W20121  34.180  26.138   2.336
48396W        W20122  24.569   7.289   0.677
48397W        W20123  24.600  44.082  10.679
48398W        W20124  31.052  42.496  10.424
48399W        W20125  26.181  39.438   1.339
48400W        W20126  25.688  37.428   3.299
48401W        W20127  13.484   6.816   1.544
48402W        W20128   6.695  41.932   4.074
48403W        W20129  16.754  35.804  14.318
48404W        W20130  40.010   6.953   0.707
48405W        W20131  44.935  14.026   1.194
48406W        W20132  38.393  41.491   2.684
48407W        W20133  44.233  23.248   0.739
48408W        W20134  41.395   4.094  13.295
48409W        W20135  23.053  36.355  13.805
48410W        W20136  43.335  34.886   0.074
48411W        W20137  43.284  42.419   1.303
48412W        W20138  25.144  34.294  13.080
48413W        W20139  21.129  17.308  13.346
48414W        W20140  30.519  29.463  12.627
48415W        W20141  30.625  44.792   2.755
48416W        W20142  22.669  16.227   1.418
48417W        W20143  38.084  10.349   3.344
48418W        W20144  32.633  36.103   1.913
48419W        W20145  24.701  35.428  13.479
48420W        W20146  43.994  26.333   1.327
48421W        W20147   4.741  39.089   4.861
48422W        W20148  17.145  16.238   3.161
48423W        W20149  21.630  31.079  12.926
48424W        W20150  23.696  12.191   3.358
48425W        W20151  27.223  27.747  14.551
48426W        W20152  44.458  31.371  10.718
48427W        W20153  25.215  19.427  11.876
48428W        W20154  21.167  18.549  14.713
48429W        W20155  32.474  33.227  10.910
48430W        W20156  21.546   7.862  10.729
48431W        W20157  28.314  15.840  10.310
48432W        W20158  18.192  42.706  11.029
48433W        W20159  36.966  41.478  10.642
48434W        W20160  15.471  10.301   0.367
48435W        W20161  23.955  13.737   1.817
48436W        W20162  42.676  32.623  10.697
48437W        W20163  12.608  30.097   3.643
48438W        W20164  26.132  32.186   2.345
48439W        W20165  24.112  27.990  12.035
48440W        W20166   3.160   8.701  13.946
48441W        W20167  20.791  21.347   4.142
48442W        W20168  30.964   8.121  12.007
48443W        W20169  44.295  35.048  14.871
48444W        W20170  19.674  30.142  10.414
48445W        W20171   5.986  33.418  11.569
48446W        W20172  12.118   8.987  11.268
48447W        W20173   3.604  18.524  10.908
48448W        W20174  26.142   0.465   3.616
48449W        W20175  27.275  15.471   1.632
48450W        W20176  43.877  37.332   3.278
48451W        W20177  30.089  12.724   1.701
48452W        W20178  38.280  12.084  11.499
48453W        W20179  21.811  38.326  11.393
48454W        W20180   4.878  44.917  12.113
48455W        W20181  39.727  29.661   1.287
48456W        W20182  29.119  29.461  10.721
48457W        W20183  23.660  34.125  12.544
48458W        W20184  36.498   6.207   2.595
48459W        W20185   7.240  36.911  14.779
48460W        W20186   6.443  20.294  11.464
48461W        W20187  11.440  34.898  13.671
48462W        W20188   2.289   2.886   2.217
48463W        W20189  17.771  15.638   0.051
48464W        W20190  23.806   7.879  12.928
48465W        W20191  31.608   0.382  13.882
48466W        W20192  11.714  17.308  11.541
48467W        W20193  15.261  35.268  13.101
48468W        W20194  27.761  10.104  12.625
48469W        W20195  15.052   9.703  13.899
48470W        W20196  29.382  16.057  13.422
48471W        W20197   7.669   4.795  10.198
48472W        W20198   9.752  12.168   1.395
48473W        W20199  26.012  36.084  14.500
48474W        W20200  41.487  27.485   2.375
48475W        W20201  39.451  28.231   2.203
48476W        W20202  17.674  24.225  14.528
48477W        W20203  18.044  30.074  14.929
48478W        W20204  17.023  37.589   1.445
48479W        W20205  26.049  38.170  13.549
48480W        W20206   5.194  30.456  11.937
48481W        W20207   1.734  18.223   4.041
48482W        W20208   2.564  14.658  11.985
48483W        W20209  29.691  38.825  10.580
48484W        W20210  21.115   9.037   1.189
48485W        W20211  42.790  15.317   2.705
48486W        W20212  15.652  16.223   1.359
48487W        W20213  14.739  10.207   4.560
48488W        W20214  43.965  41.483   0.391
48489W        W20215  24.504  38.771   4.738
48490W        W20216   1.925  28.667   0.814
48491W        W20217  42.313   6.418   1.555
48492W        W20218   2.262  11.335   1.817
48493W        W20219  11.208   8.101   3.881
48494W        W20220   4.948  42.928  14.984
48495W        W20221  22.492  14.153  14.365
48496W        W20222   3.686   5.142   3.585
48497W        W20223  17.199   6.169  13.901
48498W        W20224  42.906  30.862   0.453
48499W        W20225  13.326  31.675   4.097
48500W        W20226   3.715  35.828  11.041
48501W        W20227   6.755  43.050   0.470
48502W        W20228   3.832  13.871   3.983
48503W        W20229  33.871  14.778   2.407
48504W        W20230   6.260  43.465   4.468
48505W        W20231   5.535   6.864  14.772
48506W        W20232  35.653   7.602  14.395
48507W        W20233  34.239   2.501   2.311
48508W        W20234  17.415  17.554  11.099
48509W        W20235  20.600  25.229   5.093
48510W        W20236  28.212  23.748  11.572
48511W        W20237  22.672   9.678  14.695
48512W        W20238   7.038   3.195  12.568
48513W        W20239  18.443  18.572  14.125
48514W        W20240  39.602  42.263  12.046
48515W        W20241  35.007  19.182  10.642
48516W        W20242   5.198   8.559   0.017
48517W        W20243  36.519  38.953   2.716
48518W        W20244  42.803  12.671   4.831
48519W        W20245  39.830  40.907  11.407
48520W        W20246  14.090   4.300   0.377
48521W        W20247  41.424  44.462  14.041
48522W        W20248   8.638  10.451  11.999
48523W        W20249   2.263  10.182  11.517
48524W        W20250  35.120  32.256  14.258
48525W        W20251  25.092   9.742  13.200
48526W        W20252   1.253  16.968   2.793
48527W        W20253  32.561  18.833   3.257
48528W        W20254  34.076  23.034  14.446
48529W        W20255   6.305  35.390  10.402
48530W        W20256  39.048  41.125  12.009
48531W        W20257  37.099  18.525  11.653
48532W        W20258  20.089  25.231   5.059
48533W        W20259   2.515  35.670   4.308
48534W        W20260   6.215  36.362  14.043
48535W        W20261   6.199   4.281  12.922
48536W        W20262  20.326  35.448  13.588
48537W        W20263  24.559  26.692  13.290
48538W        W20264  10.585  21.500  13.152
48539W        W20265   5.702  10.999  10.728
48540W        W20266   8.834   7.072  12.798
48541W        W20267  22.261  36.410   3.720
48542W        W20268  25.912  11.801  13.947
48543W        W20269   3.313  22.321   5.054
48544W        W20270  43.211   3.203   4.114
48545W        W20271   7.716  22.770  13.940
48546W        W20272   8.860  42.813  14.523
48547W        W20273  40.855  21.581  13.427
48548W        W20274  40.223   1.763   4.659
48549W        W20275  12.447   3.419   2.797
48550W        W20276  29.522  37.218   1.986
48551W        W20277   6.627  17.650   3.126
48552W        W20278   2.075   3.515  10.996
48553W        W20279  41.304  41.406  12.995
48554W        W20280  43.235  30.615   2.851
48555W        W20281  25.635  16.201   0.663
48556W        W20282  32.097  38.534  13.664
48557W        W20283   4.812  14.610  10.963
48558W        W20284  32.938   5.958  11.706
48559W        W20285  17.115   8.904   3.049
48560W        W20286  37.823  20.131  13.503
48561W        W20287  26.310  10.836  11.775
48562W        W20288  15.589  39.416   3.067
48563W        W20289  20.655  32.955  12.383
48564W        W20290  35.180  34.074  13.044
48565W        W20291  38.432   5.262  12.590
48566W        W20292  32.279   9.245   4.694
48567W        W20293  21.079  30.988  14.266
48568W        W20294  26.393   1.408  13.986
48569W        W20295  42.701  14.062  11.271
48570W        W20296   8.237  29.331   2.577
48571W        W20297  24.565  28.919   0.406
48572W        W20298  23.927  42.809   0.332
48573W        W20299   4.364  22.190   1.773
48574W        W20300  33.067  12.566   3.778
48575W        W20301   4.502  19.953   4.506
48576W        W20302  28.926  39.679   3.994
48577W        W20303  32.074  32.711   1.233
48578W        W20304  31.495   6.663  12.564
48579W        W20305  43.464  29.449   4.089
48580W        W20306  40.964  24.709  11.737
48581W        W20307  26.473  27.317  13.408
48582W        W20308  11.375   8.421   4.309
48583W        W20309  44.488   7.912  12.630
48584W        W20310  25.327  20.688   3.573
48585W        W20311  14.847  19.766   4.183
48586W        W20312  27.571   6.224   4.087
48587W        W20313  41.301  21.232   9.813
48588W        W20314   5.338   6.208   9.758
48589W        W20315  15.798   2.038   1.798
48590W        W20316   2.037  20.339   1.726
48591W        W20317   7.230  39.936   1.459
48592W        W20318  32.868  34.840  10.855
48593W        W20319  19.595   9.566  14.405
48594W        W20320  14.581  38.031   0.513
48595W        W20321   6.828   3.481  14.504
48596W        W20322  17.207   9.249   4.044
48597W        W20323  24.796  33.078  11.458
48598W        W20324  35.841  34.904   1.972
48599W        W20325  42.836  31.454  14.537
48600W        W20326  23.787  40.925   2.369
48601W        W20327  27.556  31.228   1.645
48602W        W20328   5.031  21.969   4.883
48603W        W20329  37.500   2.460   1.925
48604W        W20330  37.715  43.239  14.430
48605W        W20331  18.677  30.533   1.564
48606W        W20332  23.047  13.258   4.257
48607W        W20333   2.785  20.544  12.211
48608W        W20334  32.937  43.488   4.287
48609W        W20335  24.188  15.798   1.419
48610W        W20336  38.805  38.881   2.408
48611W        W20337   4.876  16.416  11.045
48612W        W20338  13.156  14.840  11.540
48613W        W20339  28.148  33.960   1.175
48614W        W20340  10.302  10.768   0.573
48615W        W20341   5.661  16.347  10.757
48616W        W20342  14.021  22.597   1.812
48617W        W20343   0.241  28.072   1.952
48618W        W20344  22.984  23.967  10.740
48619W        W20345   9.631  44.547  11.155
48620W        W20346  30.484  35.735  12.391
48621W        W20347   0.416  34.519  10.455
48622W        W20348   4.478  39.045  12.041
48623W        W20349   3.395   4.457  13.823
48624W        W20350  31.622  28.447   2.708
48625W        W20351  15.819  16.873   4.264
48626W        W20352  10.676  21.506  11.025
48627W        W20353  31.006  30.543   4.552
48628W        W20354  15.769  16.823  13.597
48629W        W20355  26.928   3.155  12.389
48630W        W20356   7.820   4.381  10.843
48631W        W20357   6.382   2.353   4.298
48632W        W20358  41.835  15.802   0.115
48633W        W20359  24.145  38.394  12.116
48634W        W20360  44.382  13.045  12.896
48635W        W20361  17.360  10.359   1.920
48636W        W20362  31.040  40.346   0.863
48637W        W20363  36.618  44.725  12.506
48638W        W20364  16.251  24.493  10.982
48639W        W20365  40.274  16.637  14.325
48640W        W20366  36.019  38.886   2.804
48641W        W20367  43.991  15.993   3.277
48642W        W20368  21.723  20.842  13.535
48643W        W20369  25.645  40.380   0.128
48644W        W20370  19.189  31.579   1.828
48645W        W20371   7.768  39.118   2.305
48646W        W20372  27.624  22.020  10.808
48647W        W20373  22.309   6.328   4.531
48648W        W20374  39.853  34.035  14.796
48649W        W20375  30.167   5.770  11.691
48650W        W20376  38.021  43.033   0.760
48651W        W20377  36.591  25.627  13.446
48652W        W20378  27.533  36.334   1.940
48653W        W20379  12.911  18.061  11.650
48654W        W20380  38.484  13.440  12.484
48655W        W20381  27.515  36.494  11.849
48656W        W20382  36.332  40.435  11.100
48657W        W20383  12.625  38.877   1.829
48658W        W20384  31.136  17.884   0.277
48659W        W20385   6.389  35.444  12.441
48660W        W20386  16.121  40.406   2.232
48661W        W20387  36.897  35.381   2.376
48662W        W20388  21.003   0.388   0.905
48663W        W20389  21.840  37.725   3.958
48664W        W20390  34.872   2.915   4.249
48665W        W20391  21.500  43.050  12.232
48666W        W20392  15.129  28.888  12.895
48667W        W20393  11.337   8.785  12.776
48668W        W20394  36.031  39.512   2.475
48669W        W20395   0.248  21.551   1.858
48670W        W20396  32.372  16.277  11.214
48671W        W20397  11.545  34.410  13.437
48672W        W20398   6.699   5.260   2.275
48673W        W20399  42.271  27.649   0.921
48674W        W20400  40.951  18.502   4.767
48675W        W20401  36.173  13.697   3.076
48676W        W20402  23.235   3.201   2.559
48677W        W20403  43.736  34.543  14.395
48678W        W20404  32.176  13.758   0.465
48679W        W20405   9.921  29.907  11.397
48680W        W20406  31.208  18.281  11.547
48681W        W20407  40.776  35.220  13.020
48682W        W20408  25.143  32.981   2.587
48683W        W20409  36.641  16.822   3.646
48684W        W20410  14.361  44.543   5.018
48685W        W20411  22.560  40.586   0.646
48686W        W20412  16.387   3.262   1.825
48687W        W20413  16.356  12.222  10.961
48688W        W20414  38.353  39.491  10.546
48689W        W20415   4.394  39.816  10.936
48690W        W20416   6.694  37.998  14.737
48691W        W20417  39.321  29.649  12.973
48692W        W20418  32.644  29.275   1.928
48693W        W20419  35.440  29.656   0.812
48694W        W20420  14.308  28.771   2.451
48695W        W20421   2.974  33.357  11.605
48696W        W20422   8.438   3.391   1.659
48697W        W20423  39.246  32.554  12.698
48698W        W20424  17.310   2.399   2.146
48699W        W20425  41.307   6.872   4.908
48700W        W20426   2.311  25.264   4.255
48701W        W20427  42.988   0.277  11.621
48702W        W20428  24.123   6.380  12.604
48703W        W20429   5.118   0.868   1.955
48704W        W20430  27.182  42.987  13.980
48705W        W20431   5.270  33.407   1.754
48706W        W20432  32.440  35.076  14.532
48707W        W20433  16.032  15.118   2.790
48708W        W20434  17.205  20.949  10.244
48709W        W20435  17.006  41.945   3.403
48710W        W20436  40.451   8.856   1.792
48711W        W20437  20.742  44.272  11.403
48712W        W20438  42.558  16.119  12.992
48713W        W20439  17.387  31.210  13.551
48714W        W20440  40.054  37.387  12.800
48715W        W20441  11.411   1.500   5.082
48716W        W20442  10.794   9.238   0.645
48717W        W20443  28.456  30.425  12.253
48718W        W20444  28.114  25.106  11.689
48719W        W20445  39.256  16.054   3.454
48720W        W20446  13.632  20.873  12.516
48721W        W20447   9.781  24.865   0.173
48722W        W20448  24.516  34.379  14.886
48723W        W20449   1.864  24.012   0.442
48724W        W20450   3.350  31.726  13.649
48725W        W20451  15.328  32.977  13.605
48726W        W20452  42.999  44.016   0.372
48727W        W20453  31.118  30.251   2.742
48728W        W20454  21.588  37.393  11.447
48729W        W20455   4.297  10.649  11.625
48730W        W20456   7.392  34.619  10.561
48731W        W20457   2.456  36.562   3.296
48732W        W20458  33.456  26.258   1.839
48733W        W20459  30.130  40.765  11.557
48734W        W20460  43.744  17.857   2.123
48735W        W20461   2.334  44.851  10.651
48736W        W20462  29.468  22.092   1.902
48737W        W20463  13.632  33.046  12.514
48738W        W20464  31.584  29.979  11.487
48739W        W20465  23.558  21.239  13.821
48740W        W20466  31.063  19.503  11.138
48741W        W20467  12.647   8.336  12.997
48742W        W20468   0.290  19.229   2.307
48743W        W20469  22.243  19.653  12.162
48744W        W20470  34.757  13.979  12.424
48745W        W20471   7.552  38.037  11.969
48746W        W20472   2.186  37.869   0.033
48747W        W20473   7.262  44.722   4.069
48748W        W20474  33.026  17.802  14.944
48749W        W20475   3.088  40.355  12.072
48750W        W20476  26.258  31.086  12.070
48751W        W20477   9.834  38.915   0.472
48752W        W20478  23.605  43.324  10.434
48753W        W20479   6.637  15.277   1.920
48754W        W20480  20.031  31.381   4.059
48755W        W20481   3.591   8.221   0.494
48756W        W20482  13.219  34.396   2.620
48757W        W20483  33.111  33.448   3.141
48758W        W20484   3.927  14.040  12.617
48759W        W20485  13.282  13.842   0.906
48760W        W20486  32.189  38.994   2.174
48761W        W20487  28.947  13.776  13.287
48762W        W20488   9.078  39.851   0.010
48763W        W20489  36.090   3.465   1.879
48764W        W20490   5.016  29.535  13.516
48765W        W20491  12.883  22.106  12.957
48766W        W20492  37.909  38.100  13.413
48767W        W20493  26.224  15.601   1.833
48768W        W20494  39.684  32.706  13.073
48769W        W20495  16.662  24.746  13.505
48770W        W20496  38.787  30.228   3.388
48771W        W20497  19.138  26.753   4.176
48772W        W20498  26.118  33.293  14.887
48773W        W20499  24.451   9.705  10.751
48774W        W20500  40.859  38.306   2.761
48775W        W20501  15.221  11.034   3.725
48776W        W20502  11.897   0.716  13.640
48777W        W20503   5.347   9.947   4.647
48778W        W20504  18.395  24.628   0.543
48779W        W20505  16.268  29.963  12.606
48780W        W20506  25.600  44.847   1.376
48781W        W20507  22.733  44.919  12.973
48782W        W20508  18.051  25.660  14.766
48783W        W20509  11.690  22.424   4.998
48784W        W20510  26.491   5.253   0.298
48785W        W20511  35.731  31.863  11.104
48786W        W20512  25.780  38.129   1.666
48787W        W20513  43.114  24.208   2.692
48788W        W20514  40.989  40.996  10.914
48789W        W20515   9.477  37.877   0.960
48790W        W20516  34.354  23.828  12.628
48791W        W20517  34.220  12.148  13.429
48792W        W20518  10.681  26.078   3.850
48793W        W20519  18.996   2.001  13.124
48794W        W20520   9.608  12.544   1.728
48795W        W20521  44.752  13.481   2.773
48796W        W20522  10.672  23.707   2.288
48797W        W20523  12.038  12.997  12.596
48798W        W20524  17.535  41.359  12.948
48799W        W20525   2.227  42.721  11.100
48800W        W20526  23.799  10.800  13.900
48801W        W20527  24.087   2.703  11.107
48802W        W20528   8.912  36.946   0.900
48803W        W20529  28.357  21.223  11.228
48804W        W20530  28.590  43.373   0.905
48805W        W20531  21.235  26.361  13.627
48806W        W20532  20.619  36.337  10.893
48807W        W20533   0.338   3.870   1.261
48808W        W20534  30.895  13.578  13.544
48809W        W20535  18.392  29.965   2.683
48810W        W20536  40.365  14.861   4.099
48811W        W20537  26.532  11.650  10.609
48812W        W20538  17.773  18.045   1.202
48813W        W20539   1.453  30.886   0.889
48814W        W20540   6.360   0.024   1.263
48815W        W20541  36.485  10.136   1.936
48816W        W20542  33.315  42.339  13.878
48817W        W20543   9.840  10.508   4.116
48818W        W20544  24.021  26.471  13.982
48819W        W20545  44.821  40.784  13.571
48820W        W20546   2.432  24.571  12.841
48821W        W20547  10.731   5.838  11.054
48822W        W20548   8.201   5.969  10.620
48823W        W20549  33.016   4.318  12.132
48824W        W20550  36.576   1.188  10.687
48825W        W20551  32.146  41.389   1.773
48826W        W20552  35.054   5.211  13.973
48827W        W20553  12.977   8.761   3.365
48828W        W20554  27.214   7.503   4.075
48829W        W20555  21.310   1.804  12.512
48830W        W20556  11.811  32.155   3.367
48831W        W20557  37.019   1.876   0.193
48832W        W20558  13.351  18.032  12.914
48833W        W20559  32.659  38.853   3.105
48834W        W20560   6.348   1.014  13.555
48835W        W20561  12.254   6.307   3.954
48836W        W20562   3.746  28.796  14.519
48837W        W20563   0.413  39.382  10.574
48838W        W20564   5.961  25.205  14.474
48839W        W20565  19.954  31.681  14.481
48840W        W20566   5.313   4.644   5.442
48841W        W20567   9.001  31.542   4.556
48842W        W20568   0.857  19.299   3.099
48843W        W20569  28.875  29.840   4.633
48844W        W20570   1.939   0.817  12.378
48845W        W20571  16.523   1.212   4.467
48846W        W20572  38.074  39.400   0.328
48847W        W20573  19.990   3.371  13.786
48848W        W20574  34.571  10.736  11.453
48849W        W20575  31.539  11.238   4.115
48850W        W20576  21.249  16.439  13.352
48851W        W20577  39.574  42.470  13.539
48852W        W20578  43.003   8.410   2.252
48853W        W20579   8.154  17.121  13.494
48854W        W20580  35.047  43.995   3.713
48855W        W20581  22.122  19.607  10.691
48856W        W20582  36.421  16.008  13.989
48857W        W20583  30.977   8.219   4.654
48858W        W20584   4.460   7.346   4.624
48859W        W20585  13.285  14.116   1.903
48860W        W20586   2.080  16.310  11.282
48861W        W20587  20.689  32.378  11.530
48862W        W20588  44.801  26.391   3.824
48863W        W20589  21.164   2.894   3.518
48864W        W20590   9.914  30.193  14.554
48865W        W20591  36.926  29.609  14.447
48866W        W20592  31.369   0.893  13.936
48867W        W20593  38.369  36.551   3.796
48868W        W20594  32.584  15.732  10.519
48869W        W20595  19.718  44.989  14.582
48870W        W20596   0.745   9.516   2.683
48871W        W20597  41.569  20.238   2.252
48872W        W20598  12.843  37.445   4.579
48873W        W20599   2.418  17.779   2.249
48874W        W20600  43.349   0.814   1.222
48875W        W20601  37.944  41.493   2.953
48876W        W20602  23.049  37.049   0.864
48877W        W20603  44.456   0.498  11.815
48878W        W20604  42.609  40.263   2.307
48879W        W20605  35.456   9.372  13.895
48880W        W20606  11.478  19.019  10.650
48881W        W20607   6.420  37.578   3.648
48882W        W20608  24.699  10.861  13.107
48883W        W20609  41.298  28.719  12.390
48884W        W20610  42.777  16.808   4.354
48885W        W20611  22.481  10.847  11.465
48886W        W20612  12.555  25.148  11.554
48887W        W20613  10.255  13.388   1.922
48888W        W20614   5.860  41.905  11.531
48889W        W20615  29.328  10.478   5.050
48890W        W20616  28.532  29.641   1.273
48891W        W20617  43.210   4.802   0.964
48892W        W20618  25.552   2.949  13.962
48893W        W20619  41.761   7.197   2.337
48894W        W20620   7.838   5.681  12.415
48895W        W20621  38.499  20.094   2.162
48896W        W20622  12.789  28.072  12.489
48897W        W20623   7.344  12.583   3.384
48898W        W20624  22.113  30.120  11.684
48899W        W20625  19.711  40.442  13.464
48900W        W20626  21.042   1.420   0.238
48901W        W20627   0.458  16.129  13.888
48902W        W20628   1.429  18.625   3.386
48903W        W20629  23.755  12.805  12.303
48904W        W20630  36.353  13.129  13.927
48905W        W20631  19.999  33.830   0.214
48906W        W20632  37.010  32.028  12.695
48907W        W20633   8.200  15.763   3.728
48908W        W20634  20.639  29.666   0.912
48909W        W20635  36.529  27.743  11.320
48910W        W20636  43.329  39.750  14.416
48911W        W20637   7.829   6.811  14.902
48912W        W20638  13.226  10.619  12.881
48913W        W20639  22.431   7.638   1.238
48914W        W20640  44.309  11.140   4.706
48915W        W20641  31.986  25.530   1.687
48916W        W20642  32.114  36.307  11.640
48917W        W20643   3.873  30.522  10.731
48918W        W20644   2.712  18.070  14.448
48919W        W20645  17.017  44.191  12.544
48920W        W20646  38.349  33.452   2.486
48921W        W20647  21.219  31.121  11.493
48922W        W20648  37.082  24.098   2.270
48923W        W20649  38.100  39.085   1.939
48924W        W20650  16.483  41.742   2.850
48925W        W20651  31.592  36.516   4.015
48926W        W20652  13.582  20.781  11.526
48927W        W20653  35.864  36.981   4.081
48928W        W20654  39.631  12.222  14.809
48929W        W20655   3.879   2.201   3.727
48930W        W20656  37.683  34.463   4.237
48931W        W20657  22.665  34.651   9.911
48932W        W20658   1.393  18.762   0.926
48933W        W20659  10.162   4.376   4.592
48934W        W20660  18.965  31.079   0.591
48935W        W20661  19.148  22.793  10.498
48936W        W20662   3.710  26.893  10.536
48937W        W20663  21.076  38.799   3.253
48938W        W20664  27.387  11.234  13.050
48939W        W20665  19.291  14.064   0.820
48940W        W20666  33.479   6.890  13.526
48941W        W20667  14.873  15.164  12.813
48942W        W20668  39.402  25.380  12.843
48943W        W20669  24.233  38.549   2.279
48944W        W20670  20.223  39.066   0.696
48945W        W20671  27.649  11.748  11.476
48946W        W20672  12.286  44.231  14.441
48947W        W20673  32.164  22.556  13.486
48948W        W20674  36.405  40.279   3.142
48949W        W20675  16.155  27.046   1.769
48950W        W20676  31.935  35.194   3.717
48951W        W20677  43.842   5.244   0.041
48952W        W20678  20.731   6.691   3.790
48953W        W20679  32.947  15.671   0.982
48954W        W20680   9.737  22.855   5.333
48955W        W20681  18.714  10.112   3.138
48956W        W20682   9.041  30.956   3.080
48957W        W20683  28.024  26.025  11.224
48958W        W20684   8.654  14.198   4.734
48959W        W20685   2.476  42.838  14.947
48960W        W20686  32.067   5.765  14.574
48961W        W20687  11.800  24.005  11.406
48962W        W20688  27.626  11.388  12.547
48963W        W20689  22.577  10.308   3.654
48964W        W20690  15.538  26.022  12.505
48965W        W20691  40.072  31.765   2.583
48966W        W20692  36.763  35.320   3.602
48967W        W20693   1.859  17.903  13.170
48968W        W20694  44.824  38.944  11.179
48969W        W20695  26.674  15.790  14.834
48970W        W20696  15.312  43.697   2.947
48971W        W20697   4.483  41.936   2.172
48972W        W20698  20.969  22.069   3.647
48973W        W20699   4.555  17.527   1.466
48974W        W20700  17.729   1.783   4.337
48975W        W20701  13.767   1.236   3.917
48976W        W20702   7.328  11.061   3.158
48977W        W20703  35.295  25.862  11.627
48978W        W20704  27.464  42.877  11.088
48979W        W20705  17.614  15.337  10.642
48980W        W20706  27.698  24.039  12.130
48981W        W20707  15.884  43.721  13.458
48982W        W20708  38.584  24.234   3.249
48983W        W20709  29.788  32.602   5.051
48984W        W20710  43.992  34.017  14.436
48985W        W20711  26.101  36.438   1.238
48986W        W20712  32.330  26.984  11.445
48987W        W20713  11.188  32.000   1.295
48988W        W20714  16.046  28.472  13.840
48989W        W20715  40.381  43.134   2.625
48990W        W20716   3.428  38.527   2.240
48991W        W20717  12.848  13.135   4.144
48992W        W20718  33.099  34.067   3.723
48993W        W20719  43.234   6.907  11.864
48994W        W20720  44.082  24.165   2.229
48995W        W20721  20.932  15.371   2.679
48996W        W20722  41.545  17.328   2.849
48997W        W20723  10.543  41.232   2.724
48998W        W20724  44.438  18.144   2.827
48999W        W20725   0.666  24.992  12.359
49000W        W20726  43.570  15.643  10.475
49001W        W20727  30.845  36.885  14.372
49002W        W20728  44.782  24.237   0.006
49003W        W20729  25.040  30.925   0.495
49004W        W20730  21.569   6.180   1.139
49005W        W20731  23.659  13.085   5.009
49006W        W20732  26.472  41.775   2.379
49007W        W20733  33.837  43.083   0.361
49008W        W20734  12.618  14.092   4.674
49009W        W20735  19.782  18.504   4.568
49010W        W20736  18.180   3.538  12.775
49011W        W20737  35.510  38.429  14.397
49012W        W20738   5.446   3.636   3.617
49013W        W20739   5.714  42.853   4.212
49014W        W20740  30.552  29.098   3.186
49015W        W20741  40.437  22.224   1.847
49016W        W20742  14.692  39.811   2.260
49017W        W20743  11.052  30.313   1.157
49018W        W20744  28.172  23.090  12.155
49019W        W20745   7.395  20.651  14.365
49020W        W20746  33.064  34.902   1.290
49021W        W20747  28.151   3.281   3.748
49022W        W20748  40.756  24.193  13.769
49023W        W20749  15.849  33.159   3.673
49024W        W20750  22.620   6.993   0.324
49025W        W20751  29.802  26.508   4.156
49026W        W20752  40.035  37.849  13.076
49027W        W20753   6.576  43.050   1.283
49028W        W20754  20.616  14.632   0.124
49029W        W20755  28.119  21.692  13.891
49030W        W20756  25.993   8.677   3.346
49031W        W20757  26.543  27.652  10.181
49032W        W20758  16.702  30.431   1.919
49033W        W20759  36.668   5.959   3.472
49034W        W20760  16.321  21.677  11.724
49035W        W20761   2.828  40.786  13.513
49036W        W20762   3.441  41.959   3.197
49037W        W20763  32.867  23.756   9.782
49038W        W20764  18.482  19.358  10.255
49039W        W20765  20.238  13.878   0.475
49040W        W20766  15.810   1.410  10.786
49041W        W20767  26.593  13.908   3.295
49042W        W20768  10.374  29.195  12.858
49043W        W20769  17.048  40.829  13.442
49044W        W20770  40.022   5.618  12.439
49045W        W20771  35.622  34.397   3.716
49046W        W20772  23.155  17.748  10.675
49047W        W20773  37.059  29.655  13.050
49048W        W20774   4.239  43.007   0.169
49049W        W20775   2.268   9.089  12.548
49050W        W20776  28.190  42.315   3.732
49051W        W20777  18.303  18.268   2.720
49052W        W20778  33.778   8.654  10.063
49053W        W20779   5.944  10.679  11.571
49054W        W20780  29.678  12.240   3.633
49055W        W20781   8.939  34.354   5.044
49056W        W20782   6.119   9.222  10.393
49057W        W20783  30.867  25.078   2.925
49058W        W20784  15.057  36.744  13.489
49059W        W20785  21.291   3.801  12.536
49060W        W20786   4.194  17.127   4.754
49061W        W20787   5.992   9.220   0.845
49062W        W20788  15.383   0.360   1.718
49063W        W20789   7.570  23.301  13.193
49064W        W20790  15.265  28.006  12.018
49065W        W20791   4.800  38.502   3.121
49066W        W20792  37.544  17.247   4.531
49067W        W20793  34.792   4.956  10.804
49068W        W20794  41.043  13.313  12.504
49069W        W20795  11.941  27.122   4.768
49070W        W20796   8.708  42.486  10.636
49071W        W20797  11.222  20.791  11.017
49072W        W20798  41.601   8.777  11.153
49073W        W20799  35.523   1.871   0.208
49074W        W20800   9.709  16.651  12.841
49075W        W20801  17.041  10.097  11.552
49076W        W20802   9.295   2.285  11.625
49077W        W20803  32.138   3.861  14.816
49078W        W20804  18.981  25.732  10.473
49079W        W20805  23.751  28.491   4.966
49080W        W20806  13.279   2.768  14.688
49081W        W20807   1.729  15.028  12.039
49082W        W20808  23.699  38.718   3.640
49083W        W20809   2.638  33.750  13.845
49084W        W20810  25.898  43.347  10.612
49085W        W20811  15.216  18.285  14.347
49086W        W20812  41.529  37.686   3.774
49087W        W20813  23.457  40.435   3.160
49088W        W20814   6.566   7.678  14.909
49089W        W20815  19.181   9.245  13.622
49090W        W20816  20.819   3.338   3.548
49091W        W20817  32.336   1.005   3.831
49092W        W20818  42.378   1.317  13.490
49093W        W20819  29.414  20.949   4.504
49094W        W20820   4.717  11.040  14.769
49095W        W20821  39.545  25.249   3.103
49096W        W20822   0.914   6.743   4.354
49097W        W20823  39.017   9.325   1.340
49098W        W20824  32.434  12.142  13.649
49099W        W20825  24.952  30.711   4.156
49100W        W20826  28.403  22.669  14.774
49101W        W20827  43.267  26.210   0.743
49102W        W20828  10.529  15.234  12.300
49103W        W20829  23.398  21.387   4.942
49104W        W20830   8.853  30.566   1.497
49105W        W20831  43.300  37.297   0.616
49106W        W20832  33.994  29.957  14.034
49107W        W20833  26.955  10.460  13.175
49108W        W20834  35.142  23.703  11.408
49109W        W20835  13.468  27.968   4.315
49110W        W20836  28.469   9.146  13.529
49111W        W20837  40.046  17.490  11.179
49112W        W20838  33.849  44.482   0.495
49113W        W20839   7.377  37.881  12.967
49114W        W20840   1.213  40.097   0.436
49115W        W20841   4.476  17.472  14.191
49116W        W20842  24.550   8.242  13.441
49117W        W20843  10.980  25.629   5.635
49118W        W20844  37.473  27.502  10.689
49119W        W20845   8.114   0.387   1.763
49120W        W20846  17.546  42.445  13.466
49121W        W20847  11.629  29.149  12.063
49122W        W20848  10.659   6.430   0.414
49123W        W20849  30.922  34.589   4.190
49124W        W20850  23.341  14.114  12.667
49125W        W20851   1.754   8.128   4.267
49126W        W20852  33.865  19.557  12.151
49127W        W20853  35.524   2.313  11.117
49128W        W20854  36.657   7.098  10.212
49129W        W20855  10.921   5.968  13.327
49130W        W20856  12.811  40.822  14.927
49131W        W20857  23.144  34.154  14.223
49132W        W20858   2.228  30.470  12.434
49133W        W20859  19.171  12.447   1.293
49134W        W20860  16.701  29.445   1.896
49135W        W20861   0.412  11.415   2.627
49136W        W20862  12.129  25.666   2.187
49137W        W20863  27.221  23.486   3.471
49138W        W20864   1.739  29.080   3.600
49139W        W20865   5.680   7.715  11.876
49140W        W20866  16.736  15.349  10.712
49141W        W20867  17.187  33.661   3.394
49142W        W20868  27.404   7.939  12.054
49143W        W20869  22.959  40.267  11.731
49144W        W20870  14.847  16.388  11.546
49145W        W20871  40.660   0.489   1.067
49146W        W20872  25.084  28.945  13.370
49147W        W20873  40.322  38.479  11.074
49148W        W20874  21.975  26.660   1.941
49149W        W20875  11.949   3.348   0.853
49150W        W20876  30.578   5.873   0.972
49151W        W20877  30.128   2.724  13.353
49152W        W20878   2.812  15.577   4.741
49153W        W20879  10.321  37.385   0.836
49154W        W20880  10.283  39.556  13.589
49155W        W20881  27.249  34.110  12.562
49156W        W20882  41.598  30.318  13.054
49157W        W20883  39.601  26.054   2.809
49158W        W20884   4.388  19.707   2.823
49159W        W20885   8.398  41.731   4.942
49160W        W20886  27.327  22.996  11.451
49161W        W20887   9.164   7.264  12.440
49162W        W20888  15.357  13.129   2.407
49163W        W20889  15.713  15.777   2.191
49164W        W20890  18.011   3.747   0.182
49165W        W20891   6.841  24.411   3.708
49166W        W20892  26.294  16.232   3.134
49167W        W20893  10.212  33.672  10.371
49168W        W20894  34.452  19.070   1.648
49169W        W20895  40.452  42.260   4.347
49170W        W20896  33.591  36.603  12.027
49171W        W20897  34.475  21.672  13.865
49172W        W20898  40.948  22.116   0.646
49173W        W20899   8.443  37.258  11.557
49174W        W20900  34.943  27.009   1.868
49175W        W20901  25.910  36.072  11.562
49176W        W20902   2.500   2.611   2.614
49177W        W20903  39.286  30.451  12.493
49178W        W20904   8.726  22.183  12.404
49179W        W20905  14.723   5.287   3.519
49180W        W20906   4.234  44.983  12.865
49181W        W20907  38.636   1.640  14.294
49182W        W20908  38.493  37.990  10.427
49183W        W20909  27.947   9.187   0.639
49184W        W20910  38.118  12.081   3.100
49185W        W20911  18.586  23.691  13.896
49186W        W20912  37.608  20.423   1.322
49187W        W20913  20.792  27.012   2.873
49188W        W20914  18.691  38.077  11.887
49189W        W20915   6.853  37.389  10.613
49190W        W20916   8.217  23.715  12.026
49191W        W20917  10.761   8.484   3.058
49192W        W20918   4.977  13.827  12.405
49193W        W20919   2.046   0.231   1.254
49194W        W20920  37.361  25.519   3.443
49195W        W20921  18.541  26.149   2.829
49196W        W20922  33.192  25.996   0.242
49197W        W20923   4.368  19.554  11.058
49198W        W20924  27.956  15.290  14.075
49199W        W20925  42.366  15.812   2.289
49200W        W20926  43.829  17.458   2.483
49201W        W20927   5.250  44.855  11.111
49202W        W20928  38.239  18.153   2.746
49203W        W20929   0.884  20.609  11.659
49204W        W20930  11.385  20.736   0.322
49205W        W20931   9.322  29.556   2.824
49206W        W20932  16.112  39.318   4.819
49207W        W20933  33.493  27.953  11.649
49208W        W20934  38.887  16.496   4.162
49209W        W20935  18.521   8.245  14.951
49210W        W20936  15.837  26.362   3.661
49211W        W20937  11.953  35.875   5.023
49212W        W20938   5.263  31.364   4.732
49213W        W20939  32.943   0.328   1.441
49214W        W20940   4.948  41.859   1.387
49215W        W20941   7.249  13.766   0.984
49216W        W20942  41.976  28.430  14.820
49217W        W20943  43.823  41.538  12.189
49218W        W20944   2.168  30.007   1.276
49219W        W20945   8.353  22.965   0.917
49220W        W20946  39.517  40.048  14.491
49221W        W20947   5.638   0.988   4.197
49222W        W20948  23.603  41.942   2.127
49223W        W20949   3.953  35.100  14.414
49224W        W20950   2.314  23.512  13.391
49225W        W20951   4.426   1.284  14.900
49226W        W20952  15.739  18.684   3.098
49227W        W20953   3.729  28.764  10.729
49228W        W20954  18.706   0.870   3.606
49229W        W20955  14.196  11.725  10.716
49230W        W20956  17.729  10.073  13.775
49231W        W20957  32.982  15.354  13.400
49232W        W20958  27.596  42.567  12.492
49233W        W20959  22.065   4.163   0.796
49234W        W20960  38.428  27.973  12.674
49235W        W20961  30.165  38.273  13.031
49236W        W20962  34.945  41.743   0.508
49237W        W20963  40.785  15.824  13.490
49238W        W20964   0.075  30.881   0.237
49239W        W20965  42.260  44.291   1.358
49240W        W20966  44.858  41.336   1.209
49241W        W20967   0.453  25.172   1.746
49242W        W20968  36.850   3.398   3.591
49243W        W20969  16.251  19.843   1.181
49244W        W20970  25.151  40.527  13.825
49245W        W20971   1.295  34.439  10.746
49246W        W20972  36.122   7.245   3.302
49247W        W20973  33.548  44.795  13.628
49248W        W20974  12.585  30.477   2.692
49249W        W20975  40.898  16.107  11.665
49250W        W20976  16.280   3.743  11.653
49251W        W20977  39.596  44.367   2.297
49252W        W20978  22.571  31.664   4.043
49253W        W20979  43.901  22.156  10.340
49254W        W20980  41.979  28.150   0.256
49255W        W20981  11.833  20.723   2.327
49256W        W20982  20.526  20.068  13.619
49257W        W20983  14.490  10.171   4.105
49258W        W20984  22.730  13.298  11.602
49259W        W20985  24.553   2.490  12.274
49260W        W20986  38.826  15.627  13.454
49261W        W20987  15.209  28.995  12.372
49262W        W20988  23.067  15.708  11.548
49263W        W20989  43.785  41.039   2.580
49264W        W20990  23.163  23.622  11.153
49265W        W20991  34.373  22.465   4.462
49266W        W20992  13.766   0.908   0.758
49267W        W20993  39.983  11.908   0.216
49268W        W20994  20.075  34.419  12.687
49269W        W20995  40.939  37.032   3.234
49270W        W20996  28.013  41.936   4.041
49271W        W20997  17.035  15.163   2.744
49272W        W20998  21.135  13.856   3.297
49273W        W20999  38.818  34.512   3.582
49274W        W21000  23.047  17.376   0.868
49275W        W21001  23.144  31.035   4.169
49276W        W21002  41.786  29.908   2.352
49277W        W21003   3.463  34.057  14.816
49278W        W21004  39.309   4.698   3.297
49279W        W21005   7.330  31.478   0.413
49280W        W21006  27.043  22.764  14.969
49281W        W21007  12.750  36.495   4.584
49282W        W21008  11.404  33.925  12.106
49283W        W21009  16.015   0.760   0.498
49284W        W21010  44.854   0.723   0.263
49285W        W21011  15.359  19.530   1.990
49286W        W21012   5.542  33.923  13.826
49287W        W21013   7.796  36.941  13.443
49288W        W21014   0.748  35.198   1.393
49289W        W21015   4.681   7.125   2.479
49290W        W21016  31.044  36.632   2.687
49291W        W21017  43.209  38.348  12.902
49292W        W21018   2.409  43.230  14.039
49293W        W21019  33.919  31.147  12.959
49294W        W21020  27.113  43.696  11.606
49295W        W21021  16.298  43.024  11.194
49296W        W21022  41.868  27.978   2.763
49297W        W21023   4.814  41.947  12.457
49298W        W21024  44.281  29.813   3.724
49299W        W21025  19.089  41.635  14.847
49300W        W21026   6.184   4.572   4.075
49301W        W21027  23.261  24.141  13.084
49302W        W21028  21.792  18.061   4.574
49303W        W21029   9.201  35.538  11.405
49304W        W21030   5.948  13.426  14.003
49305W        W21031  37.461  29.424  13.803
49306W        W21032  22.557  37.788  11.098
49307W        W21033  19.227  30.566   2.928
49308W        W21034  17.895   7.804  10.580
49309W        W21035  32.755  38.913  10.002
49310W        W21036  35.998  41.460   1.746
49311W        W21037  26.615  18.814   1.664
49312W        W21038   3.769  15.746  10.971
49313W        W21039   7.890  33.652  11.115
49314W        W21040  26.689  13.038   4.651
49315W        W21041  19.626   8.701   2.731
49316W        W21042   0.740  28.680  11.833
49317W        W21043  36.189  23.552  12.730
49318W        W21044  42.866  36.469  13.115
49319W        W21045   0.518  17.526  12.153
49320W        W21046  24.724  34.516  12.849
49321W        W21047  23.634  38.326   4.537
49322W        W21048  18.722  21.614   0.915
49323W        W21049  28.808   2.161   0.016
49324W        W21050   7.739   4.133  13.549
49325W        W21051  18.010  13.257  11.277
49326W        W21052  14.267  34.378  14.009
49327W        W21053  42.959  42.072  14.440
49328W        W21054  20.616  27.677   3.110
49329W        W21055  27.507  25.546   2.748
49330W        W21056  20.053   1.994   3.257
49331W        W21057  42.559  30.654  13.836
49332W        W21058  21.186  33.248   0.242
49333W        W21059  43.989  25.566  11.077
49334W        W21060  21.138  15.665  11.493
49335W        W21061  35.549  37.909   1.868
49336W        W21062  39.565  15.614   2.661
49337W        W21063  30.585  40.712   3.596
49338W        W21064  13.152   2.674   1.631
49339W        W21065  31.040  24.537  14.768
49340W        W21066  26.723   9.655   0.738
49341W        W21067  40.579  23.686  14.399
49342W        W21068  21.302   8.784  13.021
49343W        W21069  16.065  29.281  14.311
49344W        W21070  34.125  42.248   0.409
49345W        W21071  15.594  34.232  10.747
49346W        W21072   1.893  23.252   1.801
49347W        W21073  24.192  27.694  14.119
49348W        W21074  24.578   8.773   3.842
49349W        W21075  40.436  38.506  12.026
49350W        W21076  25.678  44.398  14.351
49351W        W21077  36.690  33.977  14.316
49352W        W21078  15.848   1.029   1.698
49353W        W21079  21.699  32.056   4.947
49354W        W21080   1.049  17.961  14.503
49355W        W21081  23.029  26.700   0.929
49356W        W21082   0.043  22.793  11.038
49357W        W21083  42.423  26.370  12.861
49358W        W21084  32.875   2.352  10.727
49359W        W21085  29.471  24.171  14.237
49360W        W21086   1.746  13.088   0.793
49361W        W21087  34.940  37.104  14.294
49362W        W21088   2.324  22.159   1.619
49363W        W21089  21.765   8.114  12.591
49364W        W21090  35.851  17.245  11.233
49365W        W21091  18.409  40.587  14.337
49366W        W21092  17.012   2.310   0.798
49367W        W21093  39.501  32.994  10.853
49368W        W21094   1.899  25.357   2.829
49369W        W21095  19.144  12.332   4.293
49370W        W21096  17.604  19.853   2.875
49371W        W21097  15.720  44.923   0.319
49372W        W21098  43.346  15.068   2.492
49373W        W21099  39.309   6.220  14.245
49374W        W21100  15.888   5.022  11.474
49375W        W21101  21.409  11.600  10.128
49376W        W21102  15.335  10.365  12.205
49377W        W21103  30.206  31.583  13.324
49378W        W21104  21.104  44.403   2.694
49379W        W21105  27.524  30.129   2.518
49380W        W21106  12.227   4.446   2.030
49381W        W21107  43.263   1.621   2.357
49382W        W21108  34.096   4.299   0.452
49383W        W21109  11.776  16.976  13.390
49384W        W21110  33.298  28.028   4.189
49385W        W21111   4.840   6.745   2.879
49386W        W21112  39.581  36.250  12.554
49387W        W21113  44.446  40.498   2.899
49388W        W21114  10.912   3.429   3.650
49389W        W21115  29.126  35.380  14.819
49390W        W21116  41.838  11.700   0.217
49391W        W21117  25.956  34.259   2.410
49392W        W21118  39.073  36.931   0.793
49393W        W21119  28.628  22.274  13.409
49394W        W21120   5.639  27.868  12.341
49395W        W21121  40.401  12.872  14.852
49396W        W21122   7.963  16.247  11.895
49397W        W21123  18.817  11.305  14.761
49398W        W21124  36.373  23.067  11.110
49399W        W21125  39.101  33.183  11.145
49400W        W21126   1.531  39.404   2.839
49401W        W21127  19.848  34.348   3.726
49402W        W21128  33.758  25.556  11.551
49403W        W21129  22.786  44.954   4.692
49404W        W21130  31.083   9.258   1.428
49405W        W21131   5.910   3.654   5.104
49406W        W21132  22.583  34.165  13.477
49407W        W21133  39.845   6.422   2.266
49408W        W21134  33.525  17.659  11.109
49409W        W21135  37.199   8.821  13.859
49410W        W21136  27.036  30.485   4.155
49411W        W21137  10.165  35.781  12.768
49412W        W21138  32.895  39.232  11.210
49413W        W21139  39.362   3.741  10.639
49414W        W21140  43.277  15.150   4.575
49415W        W21141  43.345  36.682   3.671
49416W        W21142  13.638  35.074   2.172
49417W        W21143  25.174   3.461  10.639
49418W        W21144  34.957  24.499  12.509
49419W        W21145   8.813  24.706   4.240
49420W        W21146  43.775   8.166   3.008
49421W        W21147  32.898  28.092   1.794
49422W        W21148  22.675  41.221  13.469
49423W        W21149  44.283  32.448  11.257
49424W        W21150  30.006  17.572  12.860
49425W        W21151  32.495  39.454   0.760
49426W        W21152  41.737  11.749  13.192
49427W        W21153  40.326  13.346   3.871
49428W        W21154  18.209  25.939   0.710
49429W        W21155  27.165  20.268  12.076
49430W        W21156  32.921  22.484   2.715
49431W        W21157  27.324   0.955   5.436
49432W        W21158  25.733  44.239  10.682
49433W        W21159  10.804  36.776   4.568
49434W        W21160  35.317  42.472  14.505
49435W        W21161  13.955  28.566   1.151
49436W        W21162   6.615  23.850  12.991
49437W        W21163  29.563   7.493  13.441
49438W        W21164  40.989  41.844  11.212
49439W        W21165   4.790  32.510   3.245
49440W        W21166  31.050  14.830  11.202
49441W        W21167  34.637  18.580  14.794
49442W        W21168  44.945  14.163  11.527
49443W        W21169  34.954   9.767   0.268
49444W        W21170  15.732  39.473  12.867
49445W        W21171  12.562  15.200   1.593
49446W        W21172  32.006  27.611   2.809
49447W        W21173  16.296   2.778   1.738
49448W        W21174  33.131  22.136   0.912
49449W        W21175   8.480  40.375  13.301
49450W        W21176  31.946  43.487  12.877
49451W        W21177  10.240  30.737  11.608
49452W        W21178  24.157  11.258   4.680
49453W        W21179  39.503  31.920   3.623
49454W        W21180   7.916  33.254  10.141
49455W        W21181  19.360  18.051  13.536
49456W        W21182  36.427  15.590   2.427
49457W        W21183  44.506  40.986   2.176
49458W        W21184  23.554  14.070   4.570
49459W        W21185   1.270  11.284  13.535
49460W        W21186  11.834  23.528  10.160
49461W        W21187  32.454   3.924  12.848
49462W        W21188  10.901   1.445  11.113
49463W        W21189   5.251  26.487   0.930
49464W        W21190  15.880  11.916  12.987
49465W        W21191   5.199   5.503   2.370
49466W        W21192  17.717  16.772  10.735
49467W        W21193  32.620  10.165   0.944
49468W        W21194   9.257   4.235  14.391
49469W        W21195  19.214  43.469   1.262
49470W        W21196  35.767   1.908  11.596
49471W        W21197  35.410  27.918  11.525
49472W        W21198   9.817  28.658  12.696
49473W        W21199  32.131   0.195  13.402
49474W        W21200  41.852  11.226   4.162
49475W        W21201  34.612  32.865  12.958
49476W        W21202   1.252  23.355  13.352
49477W        W21203  39.752  10.202  12.467
49478W        W21204  13.660  29.586   4.325
49479W        W21205  21.509  37.779   0.746
49480W        W21206   9.262  22.262  14.069
49481W        W21207  44.498  14.951  11.401
49482W        W21208  31.012  26.010  12.346
49483W        W21209  42.561  28.424   2.380
49484W        W21210  35.475  21.954  12.109
49485W        W21211   8.158   5.318   0.120
49486W        W21212  16.177   3.899   4.977
49487W        W21213  23.458  28.928  11.653
49488W        W21214   2.238  17.570   4.437
49489W        W21215  34.115  31.673  11.992
49490W        W21216  19.556  13.008   2.724
49491W        W21217  19.298  19.825   0.856
49492W        W21218  13.440  33.566  12.370
49493W        W21219  38.533   7.821   5.072
49494W        W21220  35.048  13.645  13.513
49495W        W21221   0.301  32.959  10.656
49496W        W21222  42.035   4.326   4.858
49497W        W21223  32.004  16.026  12.615
49498W        W21224  37.925  16.680   0.958
49499W        W21225  11.873  32.494  11.918
49500W        W21226  32.108  18.082  13.339
49501W        W21227   0.262   2.077   4.534
49502W        W21228  42.898  14.193  12.688
49503W        W21229   5.442  17.872  12.209
49504W        W21230  13.503  36.061  14.425
49505W        W21231  36.906  42.011  10.656
49506W        W21232  28.172   5.108   0.980
49507W        W21233  21.259  23.200  11.725
49508W        W21234  23.067  35.380  13.756
49509W        W21235  27.551  38.383  12.381
49510W        W21236  36.945  18.769   1.759
49511W        W21237  37.631  42.890  10.017
49512W        W21238  16.017  40.557   4.987
49513W        W21239  20.508  25.998  14.041
49514W        W21240  15.690  15.542  13.075
49515W        W21241  29.125  38.111   0.369
49516W        W21242  39.304  12.345  13.452
49517W        W21243  35.108  44.901   4.158
49518W        W21244  20.926  23.457  14.810
49519W        W21245  30.945  16.587  11.620
49520W        W21246  43.999   0.872  11.044
49521W        W21247  30.052  11.414  12.769
49522W        W21248  17.537  18.039   3.476
49523W        W21249  26.096  34.583  12.212
49524W        W21250  23.446  30.986  13.925
49525W        W21251  35.079   0.885  11.008
49526W        W21252  29.442  23.151   0.927
49527W        W21253  25.676  22.581  13.783
49528W        W21254  19.674  37.531  13.506
49529W        W21255   4.340  10.596   3.827
49530W        W21256  29.336   0.759   1.385
49531W        W21257  25.705  34.290   1.848
49532W        W21258   2.456  24.010  13.386
49533W        W21259  43.335  11.146   1.402
49534W        W21260   9.131  21.718   5.298
49535W        W21261  23.955  10.179   2.786
49536W        W21262  28.058  32.245  13.052
49537W        W21263  25.019  11.081   3.597
49538W        W21264  35.471  14.694   4.112
49539W        W21265  37.893  11.148   1.841
49540W        W21266  29.287  36.926   1.621
49541W        W21267  36.308  36.859  11.612
49542W        W21268  31.973  21.121  13.325
49543W        W21269  35.789  22.666   4.226
49544W        W21270  40.762  36.801   1.281
49545W        W21271  31.894   0.470  11.139
49546W        W21272  14.659  20.783   1.821
49547W        W21273  17.774  18.625  14.923
49548W        W21274  32.139   1.913  13.916
49549W        W21275   9.399   7.734  12.503
49550W        W21276   0.921  11.680   5.049
49551W        W21277  20.733   9.050  11.909
49552W        W21278  30.907   6.611  14.917
49553W        W21279  20.688  36.461  12.862
49554W        W21280   7.904   7.356   1.764
49555W        W21281  30.432  11.130   4.322
49556W        W21282  27.168  16.678  12.475
49557W        W21283  18.834  30.918   3.841
49558W        W21284  40.103  24.348   1.032
49559W        W21285  28.236  10.544  10.741
49560W        W21286  32.135   1.466   3.229
49561W        W21287  24.613  15.217  12.093
49562W        W21288  30.098  38.385   2.130
49563W        W21289  21.584  13.567   0.951
49564W        W21290  43.947  38.943   0.275
49565W        W21291  15.186  17.731  12.322
49566W        W21292  33.162   8.388   4.112
49567W        W21293   6.422  25.271   0.849
49568W        W21294   6.681   4.125   4.555
49569W        W21295  26.892  30.515   0.851
49570W        W21296   7.283  13.339   1.779
49571W        W21297  30.000   8.107   0.406
49572W        W21298   9.113   0.477   1.302
49573W        W21299  36.498  29.338  11.583
49574W        W21300   9.582  31.476  13.871
49575W        W21301  20.396  29.052  10.990
49576W        W21302   6.209  35.845   4.161
49577W        W21303  22.733  31.614  14.241
49578W        W21304  22.007  40.950  12.308
49579W        W21305  18.278  16.167   2.710
49580W        W21306  23.290  32.057  13.006
49581W        W21307   7.274  40.819   3.232
49582W        W21308  34.896  44.318  10.751
49583W        W21309  43.300  19.116   0.688
49584W        W21310  32.827  42.038   9.832
49585W        W21311  18.711   4.164  11.871
49586W        W21312   7.932  13.703  13.564
49587W        W21313  33.124   8.354  12.922
49588W        W21314  22.171  33.583  11.365
49589W        W21315  41.108   5.703   3.668
49590W        W21316  44.922   3.794  13.912
49591W        W21317  33.366  38.541   2.731
49592W        W21318   8.179  11.049   4.431
49593W        W21319   4.255  11.129  10.710
49594W        W21320   5.438  13.876  13.799
49595W        W21321  42.231  17.674  10.665
49596W        W21322  44.535  10.456  11.208
49597W        W21323  22.760  17.738  10.313
49598W        W21324  17.134   5.727  11.413
49599W        W21325  29.771   0.344   4.818
49600W        W21326   1.900  16.596   1.363
49601W        W21327  30.277  19.240   2.703
49602W        W21328  34.895  15.764  14.957
49603W        W21329  19.100  19.957  12.984
49604W        W21330   2.752  39.117   0.920
49605W        W21331  39.499  14.239  11.503
49606W        W21332  30.132  24.617  11.186
49607W        W21333  10.856  24.693   0.847
49608W        W21334   1.005  36.997  13.945
49609W        W21335  27.447  12.776  10.908
49610W        W21336   8.129   3.810   0.294
49611W        W21337  21.275  13.343   1.943
49612W        W21338  12.150   4.873   3.870
49613W        W21339  31.174  38.427   3.203
49614W        W21340  40.592  20.619  14.954
49615W        W21341  33.060  21.261   0.033
49616W        W21342  15.828  37.309   3.688
49617W        W21343  35.383  21.718   0.102
49618W        W21344   2.487  34.194   0.630
49619W        W21345   6.003   6.286   0.344
49620W        W21346   7.763  41.183   5.004
49621W        W21347  40.817  43.115  14.089
49622W        W21348  19.763   4.935  11.443
49623W        W21349   2.451   3.744  12.067
49624W        W21350   8.146  25.348  11.385
49625W        W21351  11.141  22.650   4.242
49626W        W21352  17.121   3.329   5.274
49627W        W21353  23.986  14.838  11.033
49628W        W21354   6.670  30.116  14.838
49629W        W21355  26.244  14.380   0.441
49630W        W21356  42.929  44.593  12.097
49631W        W21357  42.318   0.433  10.971
49632W        W21358  26.497  20.887  12.650
49633W        W21359  24.629  36.901  14.892
49634W        W21360  19.811   5.807  11.157
49635W        W21361   1.448  32.451   1.726
49636W        W21362  18.258  25.013  12.219
49637W        W21363  15.546   8.282   2.002
49638W        W21364  16.811  41.516   2.452
49639W        W21365  33.891  21.464   2.749
49640W        W21366  30.615  33.889   3.703
49641W        W21367  19.193  15.974  14.739
49642W        W21368  21.579  35.782   1.013
49643W        W21369  30.997  12.694  12.096
49644W        W21370  40.281  27.390   3.651
49645W        W21371  14.757  36.451  14.294
49646W        W21372  33.390  28.013  12.170
49647W        W21373  16.916  36.618   2.268
49648W        W21374  22.982  43.453   0.286
49649W        W21375  37.100   5.282  10.683
49650W        W21376  24.388  13.225   3.197
49651W        W21377  15.618  18.154  11.523
49652W        W21378   8.836  36.242   1.277
49653W        W21379  14.671  30.375  14.709
49654W        W21380   1.628  20.649   5.004
49655W        W21381  33.910  20.059  12.298
49656W        W21382  16.773  44.119  14.445
49657W        W21383  24.189  28.364   1.770
49658W        W21384  44.332  19.781   3.239
49659W        W21385  40.703  37.882   0.656
49660W        W21386  16.566  29.434   4.379
49661W        W21387   6.635  20.839   0.802
49662W        W21388  37.312  21.632   2.348
49663W        W21389  25.755   8.712   3.791
49664W        W21390  36.839  32.790  12.044
49665W        W21391  31.540  11.131  11.344
49666W        W21392   0.272  26.976  13.934
49667W        W21393  25.854  44.269   1.889
49668W        W21394  11.236  34.611  14.437
49669W        W21395  30.353  35.127   2.135
49670W        W21396  33.895  44.871  14.033
49671W        W21397  20.242   6.860  11.399
49672W        W21398   7.780  22.039  11.661
49673W        W21399  27.565  42.152   0.898
49674W        W21400  14.391  43.157   1.748
49675W        W21401   6.685  27.187  14.802
49676W        W21402  35.345   2.938   2.823
49677W        W21403  14.274  30.933  10.774
49678W        W21404   1.969  33.409  10.607
49679W        W21405  14.715  37.517   2.664
49680W        W21406   4.245  34.818   3.899
49681W        W21407  41.779  36.877  12.912
49682W        W21408  33.475  40.422  12.881
49683W        W21409  26.572  28.585   3.236
49684W        W21410  28.384  39.382   2.497
49685W        W21411   4.544  26.062  11.387
49686W        W21412   1.653  23.107   4.091
49687W        W21413   2.212  28.195   1.746
49688W        W21414  37.785   2.345   0.618
49689W        W21415  25.092  11.150   4.113
49690W        W21416  41.400  15.943  14.735
49691W        W21417  33.470  11.134  12.109
49692W        W21418  34.376  39.048   0.991
49693W        W21419  32.904  41.471   2.339
49694W        W21420  20.063  30.133   1.200
49695W        W21421  30.424  35.328   2.724
49696W        W21422  37.014  34.697  13.003
49697W        W21423   7.675  25.637  14.870
49698W        W21424  33.546   2.955  12.895
49699W        W21425  12.790   2.467  13.352
49700W        W21426  15.266  25.124  13.781
49701W        W21427  29.188  15.647   3.770
49702W        W21428   8.420   6.660  11.625
49703W        W21429  25.117  23.087   4.519
49704W        W21430   9.275   4.955   2.976
49705W        W21431  23.987   5.469   2.750
49706W        W21432   2.962  33.239   4.910
49707W        W21433  19.310   5.516  14.793
49708W        W21434   8.771  26.914  11.717
49709W        W21435  38.018   7.606   2.296
49710W        W21436  25.709   4.314  10.439
49711W        W21437  25.462  12.920   0.936
49712W        W21438  17.213   3.869   4.883
49713W        W21439  31.537   1.875  11.686
49714W        W21440  44.911  20.703  14.086
49715W        W21441  44.230  30.438   1.864
49716W        W21442  41.057  41.650  14.863
49717W        W21443  30.647  27.493  12.255
49718W        W21444  11.228  32.656  14.426
49719W        W21445  34.561  14.891   3.203
49720W        W21446  16.645  25.430  10.710
49721W        W21447   6.203  20.649   3.724
49722W        W21448  26.719   3.336   4.362
49723W        W21449  13.356   7.675  11.702
49724W        W21450  36.083  10.298  11.186
49725W        W21451   6.217  21.832   4.468
49726W        W21452  30.951  41.081   4.633
49727W        W21453  14.310  26.138  12.149
49728W        W21454  40.410  20.830   4.168
49729W        W21455  11.827   7.220   2.820
49730W        W21456  35.045   4.704   1.331
49731W        W21457  37.527  19.365  14.023
49732W        W21458  42.793  24.565   1.948
49733W        W21459  12.662  33.152   0.937
49734W        W21460  23.299  39.520  11.102
49735W        W21461  28.026  14.848   0.514
49736W        W21462  30.672   3.859   3.672
49737W        W21463  29.936   3.398  14.597
49738W        W21464   0.305  42.532  13.785
49739W        W21465  43.708  16.527  11.469
49740W        W21466  14.227  36.575   2.872
49741W        W21467  36.142   7.748   3.734
49742W        W21468  36.653   2.753  10.420
49743W        W21469  39.417  41.504  14.490
49744W        W21470  31.282  33.316  11.506
49745W        W21471  27.624  41.523   3.667
49746W        W21472   3.377  34.976  14.375
49747W        W21473  36.937  34.458  10.009
49748W        W21474  31.854  33.039  10.779
49749W        W21475  38.027  43.985  10.631
49750W        W21476   7.294   2.308  13.579
49751W        W21477  34.510   1.573   0.323
49752W        W21478  26.164   1.184  11.898
49753W        W21479  13.176  17.767  14.307
49754W        W21480  29.010  25.752  12.672
49755W        W21481  17.016   2.070   4.781
49756W        W21482   8.401  13.736   4.679
49757W        W21483  41.758  10.862  11.522
49758W        W21484  24.999  43.296   1.465
49759W        W21485   0.805  38.630  12.081
49760W        W21486  28.576  27.994  12.180
49761W        W21487  26.232   1.037   3.407
49762W        W21488   0.476  14.152   4.368
49763W        W21489  21.835  35.263  11.159
49764W        W21490  30.464  35.112  13.985
49765W        W21491   9.650  20.414   1.829
49766W        W21492  10.707   9.917   2.010
49767W        W21493  41.415  32.618  13.544
49768W        W21494   1.928  26.525   4.642
49769W        W21495   7.123  17.120  14.992
49770W        W21496   8.859   8.402  14.954
49771W        W21497  32.966  17.609  11.700
49772W        W21498  22.718   9.013  13.833
49773W        W21499  19.405  35.695   0.297
49774W        W21500  30.376   5.218   3.260
49775W        W21501  28.018  12.687   1.691
49776W        W21502  44.303  36.888   1.723
49777W        W21503   0.862  10.757   1.235
49778W        W21504   8.407  32.482  14.843
49779W        W21505  14.347  22.695  14.363
49780W        W21506  44.071  40.254   3.705
49781W        W21507  17.212  21.613   4.620
49782W        W21508  43.793  27.217  13.965
49783W        W21509  21.122  28.423  12.125
49784W        W21510  37.951  43.969  12.433
49785W        W21511   4.992  21.494  11.853
49786W        W21512   9.339  17.278  14.180
49787W        W21513   9.611   6.494   1.929
49788W        W21514  31.566  25.629   4.217
49789W        W21515  12.833  29.645   3.838
49790W        W21516   6.176  41.522   2.538
49791W        W21517  26.154  37.948   2.511
49792W        W21518  35.437   0.916   1.307
49793W        W21519  19.786  38.381  11.074
49794W        W21520  29.142  22.307   0.791
49795W        W21521   8.296   6.372   2.298
49796W        W21522  35.710  26.452  14.359
49797W        W21523  14.735  31.549   3.784
49798W        W21524  37.583   0.876   3.365
49799W        W21525   7.862  18.585   4.716
49800W        W21526  14.194  30.129  11.994
49801W        W21527  41.590  23.609   3.673
49802W        W21528  15.684  32.151   4.510
49803W        W21529  38.627  34.949   3.805
49804W        W21530   1.961  39.926  12.428
49805W        W21531   2.439  11.707  11.526
49806W        W21532  15.872   5.149   2.281
49807W        W21533  41.546  25.553  11.680
49808W        W21534  23.350  38.240   0.726
49809W        W21535  40.941   0.956  12.457
49810W        W21536   3.871  22.959  10.978
49811W        W21537  27.925  18.680  10.437
49812W        W21538  21.911  17.561  13.758
49813W        W21539  16.261  22.631   9.992
49814W        W21540  30.021  21.743   1.216
49815W        W21541   0.426   4.134  11.113
49816W        W21542  34.930  12.280  12.924
49817W        W21543  36.461   9.308  11.659
49818W        W21544  42.921  14.153   4.669
49819W        W21545  20.566  16.347   1.396
49820W        W21546   8.832  29.055   3.717
49821W        W21547  39.410   1.041   1.962
49822W        W21548   6.739  44.526  10.690
49823W        W21549  44.734   4.438  13.881
49824W        W21550  30.021  42.559  10.271
49825W        W21551  18.321  42.012  13.501
49826W        W21552   6.896  32.218   2.846
49827W        W21553  36.962  19.850   2.842
49828W        W21554  36.604  29.682   3.354
49829W        W21555  21.090   9.999   1.827
49830W        W21556  33.560  38.379   3.215
49831W        W21557  44.963  29.156  14.310
49832W        W21558   7.307  25.338  11.505
49833W        W21559  36.907  35.790   0.031
49834W        W21560   8.799  10.432   3.385
49835W        W21561  19.051  21.148   4.587
49836W        W21562  34.924  29.987   3.898
49837W        W21563   1.211  30.338  12.838
49838W        W21564  19.044  20.771   0.756
49839W        W21565  20.297  12.312  10.755
49840W        W21566  40.809  20.739   2.309
49841W        W21567  25.057  27.492   1.064
49842W        W21568  42.554  33.723   2.398
49843W        W21569   9.920  43.885  10.688
49844W        W21570   0.898   0.784   1.341
49845W        W21571  42.773  15.060  11.172
49846W        W21572  43.379   7.495  13.450
49847W        W21573  28.652  30.497   1.324
49848W        W21574  20.648  44.428  10.922
49849W        W21575  35.143  40.612   2.276
49850W        W21576  11.139  31.048  13.370
49851W        W21577  41.491   4.549   4.088
49852W        W21578  42.013  18.907  12.506
49853W        W21579  27.479  38.290   3.821
49854W        W21580   3.741   1.392  12.947
49855W        W21581  13.519  32.442   1.332
49856W        W21582  27.101  37.055   4.690
49857W        W21583  12.397  37.510   0.690
49858W        W21584  41.578  27.620   1.083
49859W        W21585  11.834  26.944  11.637
49860W        W21586   9.620  35.480   1.040
49861W        W21587  33.631  18.704   1.627
49862W        W21588  18.909   5.324   2.759
49863W        W21589   7.105  33.599   4.730
49864W        W21590  32.011  40.806  14.795
49865W        W21591  17.104   7.430  13.588
49866W        W21592  42.858  16.577   3.824
49867W        W21593  39.940  23.112  11.146
49868W        W21594  44.371  13.091   3.032
49869W        W21595  13.705   2.306  11.549
49870W        W21596  23.246  17.052   3.357
49871W        W21597   3.030  33.432   2.684
49872W        W21598  26.037  18.456  10.473
49873W        W21599  12.886  39.881   1.932
49874W        W21600  13.738  43.551  10.760
49875W        W21601  23.652   3.465  10.845
49876W        W21602  11.841  26.546  10.734
49877W        W21603   9.140  19.579   1.069
49878W        W21604  43.377  19.048  14.224
49879W        W21605  44.347  41.212  12.848
49880W        W21606  12.646  19.596   3.961
49881W        W21607  17.854   8.210  12.568
49882W        W21608   4.687  30.512  13.059
49883W        W21609   1.807   5.856   1.340
49884W        W21610   5.927  17.019  11.491
49885W        W21611  18.474   2.730  13.477
49886W        W21612  37.647   0.330  13.494
49887W        W21613  11.403  25.215  14.571
49888W        W21614  37.608  22.072   1.210
49889W        W21615  34.856  28.219   4.201
49890W        W21616  32.602  37.875  11.762
49891W        W21617  35.857  31.794   3.808
49892W        W21618  21.937   1.953   1.248
49893W        W21619  25.079   2.482   4.616
49894W        W21620  28.350  26.524  11.915
49895W        W21621  39.367  23.700  10.716
49896W        W21622  10.172  43.920   2.794
49897W        W21623   6.156   9.290   3.289
49898W        W21624   3.200  39.486  11.992
49899W        W21625  13.337  36.328  13.861
49900W        W21626  10.102  22.803  12.010
49901W        W21627   1.008  16.166  10.470
49902W        W21628  12.209  31.588  10.788
49903W        W21629  27.674  15.644   2.311
49904W        W21630  43.378   1.694   0.876
49905W        W21631   3.928  15.180  10.281
49906W        W21632  39.426   3.544   1.237
49907W        W21633  32.046  22.454   3.747
49908W        W21634   8.163  32.452  14.360
49909W        W21635  34.317  22.678   3.197
49910W        W21636   9.004  20.678  12.371
49911W        W21637  14.151  20.705  10.656
49912W        W21638  17.659  17.887   4.733
49913W        W21639  11.064  35.205   2.182
49914W        W21640  44.287   8.289  13.987
49915W        W21641  14.868   3.455   4.612
49916W        W21642  20.491  36.565  11.876
49917W        W21643  15.989  15.132  12.543
49918W        W21644  39.618  10.720  12.516
49919W        W21645  20.523  37.937   3.840
49920W        W21646  21.698  29.003   2.643
49921W        W21647  16.704  28.452   0.475
49922W        W21648  41.712   6.646   0.872
49923W        W21649   6.054   2.222  13.891
49924W        W21650  15.841  43.480   0.719
49925W        W21651  31.373  33.068  10.610
49926W        W21652   9.825  15.367   2.326
49927W        W21653  19.975  26.612   3.110
49928W        W21654  21.604  32.116  12.424
49929W        W21655   4.855  10.838   0.846
49930W        W21656  14.557  13.850  14.536
49931W        W21657  17.384   6.385  10.183
49932W        W21658  13.086  41.931   1.188
49933W        W21659   7.124  21.706  13.274
49934W        W21660  40.605  42.235  12.035
49935W        W21661  20.146  25.998   3.743
49936W        W21662  39.354  37.973   3.726
49937W        W21663  29.118  32.630   0.917
49938W        W21664  16.246  31.659   0.863
49939W        W21665   0.435  36.190  11.487
49940W        W21666   6.767  15.735  10.721
49941W        W21667  24.248  38.963   3.377
49942W        W21668  19.077  25.230  12.294
49943W        W21669  26.889  11.203   2.865
49944W        W21670  15.199   0.318  12.514
49945W        W21671  23.525  15.508  14.851
49946W        W21672  26.951  31.705  10.755
49947W        W21673  13.585  43.887  12.094
49948W        W21674  41.843  19.790  12.154
49949W        W21675  29.099  28.418  11.639
49950W        W21676  31.824  42.499   1.594
49951W        W21677  34.486  21.520  12.298
49952W        W21678  30.624  13.565  11.178
49953W        W21679  32.382  28.905  14.941
49954W        W21680   3.863  14.746   0.723
49955W        W21681  20.398  44.637   3.634
49956W        W21682  13.010  27.125   3.338
49957W        W21683  18.628  20.003  11.651
49958W        W21684  28.646   7.675   4.360
49959W        W21685  44.685  26.700  12.384
49960W        W21686  43.035  40.479   4.544
49961W        W21687  14.389  11.920   3.116
49962W        W21688  29.115   0.505  12.945
49963W        W21689  24.469  32.089  14.725
49964W        W21690  41.039  14.314   4.518
49965W        W21691   2.846  39.463  11.589
49966W        W21692  31.462  26.718  12.090
49967W        W21693  29.487  22.263  12.055
49968W        W21694   5.864   8.560   9.960
49969W        W21695  40.724   1.773   2.918
49970W        W21696  34.585   9.068   2.381
49971W        W21697  22.293  35.520  11.159
49972W        W21698  33.192  35.058   4.746
49973W        W21699  32.549  14.843  14.488
49974W        W21700   0.889  27.399  12.446
49975W        W21701  24.267  43.515  14.095
49976W        W21702  16.768  15.334   2.296
49977W        W21703   0.806   8.188  14.062
49978W        W21704   5.743  17.399  12.904
49979W        W21705   0.344  30.437  13.116
49980W        W21706  35.065  27.645  12.094
49981W        W21707   8.392  39.539  12.844
49982W        W21708  15.349  44.249  10.834
49983W        W21709  36.949  33.871   0.822
49984W        W21710  10.737  39.749  12.446
49985W        W21711   9.346  26.523   0.914
49986W        W21712  18.554  12.260  13.057
49987W        W21713  40.443   5.827   3.326
49988W        W21714  35.910  30.437  13.518
49989W        W21715  28.447  12.704  14.164
49990W        W21716  21.323  28.196  14.464
49991W        W21717  31.442  40.343   1.229
49992W        W21718  30.216   7.370  14.965
49993W        W21719   4.954  35.830   4.644
49994W        W21720  30.755  25.483  12.548
49995W        W21721  29.451  22.542   2.166
49996W        W21722  16.229  19.707  10.548
49997W        W21723  22.454  26.606  14.837
49998W        W21724   0.628  37.638   0.384
49999W        W21725   4.388  14.620   0.282
50000W        W21726  26.539  33.956   3.803
50001W        W21727  41.894   9.992  14.885
50002W        W21728  34.468  18.620  12.157
50003W        W21729  27.445  20.147  12.525
50004W        W21730   3.748   9.683   4.366
50005W        W21731  23.200   0.189  10.638
50006W        W21732  17.708  10.763  14.046
50007W        W21733  33.111  32.139  10.703
50008W        W21734  26.985  19.672  13.692
50009W        W21735  32.447  42.123   4.984
50010W        W21736  41.889  27.664  10.996
50011W        W21737  23.747  23.712  11.684
50012W        W21738  33.075  10.131  11.147
50013W        W21739  37.101   1.138   0.800
50014W        W21740  36.413   3.797   1.247
50015W        W21741  32.382  29.661   2.172
50016W        W21742  35.436   4.523   3.593
50017W        W21743  11.980  19.153  10.691
50018W        W21744  22.200  32.074   0.890
50019W        W21745  33.351   0.655  11.616
50020W        W21746  24.112  18.771   2.194
50021W        W21747  38.923  22.464  11.004
50022W        W21748  26.517  28.833   3.704
50023W        W21749  19.506  39.933   2.627
50024W        W21750  25.247  16.720   1.869
50025W        W21751  24.471  43.167   9.922
50026W        W21752  12.791  15.808   2.944
50027W        W21753   9.592  13.889  11.560
50028W        W21754  22.548  10.718   0.175
50029W        W21755  30.127  25.768   4.991
50030W        W21756  14.081  28.130   1.816
50031W        W21757  43.914  10.722  14.738
50032W        W21758   9.864  24.603  10.337
50033W        W21759   0.622  31.978   4.102
50034W        W21760  35.890  32.845   0.202
50035W        W21761  33.385  34.568   2.165
50036W        W21762  25.264  31.108  11.895
50037W        W21763  41.509   9.745  12.355
50038W        W21764  18.471  10.795   1.262
50039W        W21765  32.610   4.471  11.001
50040W        W21766  15.055  24.275   4.192
50041W        W21767  22.374  35.074   2.398
50042W        W21768  12.696  10.157   2.268
50043W        W21769   7.108  17.376  12.954
50044W        W21770  10.738  11.063   0.952
50045W        W21771  44.862  42.440  13.016
50046W        W21772  33.127  27.041  12.018
50047W        W21773  14.648  20.461   4.812
50048W        W21774   0.072  41.804   2.450
50049W        W21775   0.482  37.625  14.843
50050W        W21776  30.901  28.018   3.738
50051W        W21777  15.154  17.108  11.152
50052W        W21778  10.804   2.998  11.967
50053W        W21779   0.032   8.952   4.183
50054W        W21780  23.837   4.260  13.841
50055W        W21781  24.155  13.636   3.424
50056W        W21782   0.424  12.622   3.643
50057W        W21783  44.760   3.661   0.328
50058W        W21784  26.043  21.174  11.408
50059W        W21785  35.261  14.850  10.918
50060W        W21786   7.443   8.688   1.246
50061W        W21787  42.306  35.462  11.050
50062W        W21788  38.540   8.866  14.817
50063W        W21789  29.951  24.024   0.391
50064W        W21790  11.550   8.301  10.675
50065W        W21791  25.088  42.269  14.393
50066W        W21792  30.544  41.730   3.630
50067W        W21793  40.378  15.653   1.283
50068W        W21794  21.880   8.962  11.457
50069W        W21795   0.934  16.298   4.099
50070W        W21796  10.537   6.695  14.893
50071W        W21797  22.409   3.096  13.914
50072W        W21798  41.971  37.438  11.587
50073W        W21799  24.934  16.314  12.097
50074W        W21800  11.326  39.968   1.728
50075W        W21801  43.839  24.203  12.085
50076W        W21802  39.929  43.776  14.804
50077W        W21803  34.544  26.095   1.017
50078W        W21804  27.509  16.356  12.156
50079W        W21805  43.133  24.851   9.994
50080W        W21806  24.439   0.467   3.297
50081W        W21807   5.226  13.813   0.252
50082W        W21808  23.683  19.018   3.287
50083W        W21809   1.817   4.677  12.162
50084W        W21810  37.508  38.426   4.537
50085W        W21811  41.337  21.026   0.225
50086W        W21812   3.754  44.936  13.108
50087W        W21813  11.595  17.247  14.857
50088W        W21814  38.906  12.862  14.574
50089W        W21815  34.581  44.017   1.494
50090W        W21816  12.285  28.602   3.158
50091W        W21817  22.178  17.889  14.131
50092W        W21818  41.809  40.100  11.561
50093W        W21819  33.228  15.332  14.204
50094W        W21820   2.215  15.180  11.933
50095W        W21821  10.061  39.292   2.640
50096W        W21822  17.379  44.236  12.929
50097W        W21823  30.424   1.474   3.602
50098W        W21824  10.105  22.721  12.912
50099W        W21825  40.428  13.609   2.360
50100W        W21826  15.494  21.567  13.865
50101W        W21827   8.697   2.353   0.295
50102W        W21828  22.239  21.683  12.113
50103W        W21829  37.266   0.294   1.622
50104W        W21830  37.453   1.803   4.069
50105W        W21831  34.856   9.312   3.295
50106W        W21832  14.346  15.363   0.430
50107W        W21833  20.920  24.960   1.315
50108W        W21834   3.193  31.763   1.775
50109W        W21835  12.671   9.919   3.738
50110W        W21836  16.455  29.535  11.425
50111W        W21837  33.139  11.784  13.974
50112W        W21838  12.322  30.707   0.732
50113W        W21839  13.212  11.110  12.054
50114W        W21840  31.170  39.881  12.912
50115W        W21841  33.447   6.447   3.128
50116W        W21842  10.654  21.733   1.674
50117W        W21843  12.667  39.806   4.180
50118W        W21844   8.673  16.227  10.741
50119W        W21845  34.874  31.158   1.781
50120W        W21846  35.225  27.858  11.043
50121W        W21847  29.920  31.230   4.218
50122W        W21848  27.442  26.613   0.967
50123W        W21849  42.519  29.749  13.999
50124W        W21850  25.504  19.764  12.139
50125W        W21851  40.150  11.062  12.091
50126W        W21852  41.807  38.967   4.215
50127W        W21853  11.210  42.416   3.649
50128W        W21854  19.703  27.001   4.520
50129W        W21855  17.063  23.634  11.483
50130W        W21856  37.080  21.153   2.361
50131W        W21857  43.308  44.037  11.453
50132W        W21858  19.678  42.630  10.107
50133W        W21859  29.389  32.975   2.396
50134W        W21860  28.924  31.058   4.176
50135W        W21861   5.219  32.339  10.470
50136W        W21862   7.439   6.990   3.707
50137W        W21863  11.625  24.145  10.405
50138W        W21864  44.845  32.590   1.494
50139W        W21865  10.867  35.215   3.346
50140W        W21866  20.094   4.191   0.264
50141W        W21867  21.518   5.813  11.721
50142W        W21868  41.168   3.507   2.862
50143W        W21869   0.826  36.603  10.801
50144W        W21870   7.852  10.261   0.680
50145W        W21871   5.636  30.500   4.055
50146W        W21872  42.030   6.453  12.305
50147W        W21873  11.443  26.484  14.752
50148W        W21874   2.006  18.180  11.465
50149W        W21875   8.207  43.525  11.571
50150W        W21876  14.139  15.528   2.832
50151W        W21877  25.725  25.605   2.411
50152W        W21878  14.277   9.985  11.710
50153W        W21879  36.352  22.124   1.905
50154W        W21880  34.678   1.276   4.190
50155W        W21881  15.860  41.859   4.708
50156W        W21882  39.632  43.782   2.875
50157W        W21883  10.344  14.060   0.383
50158W        W21884  35.843  11.761   3.227
50159W        W21885   4.831   1.342   1.355
50160W        W21886  34.311  36.392  14.774
50161W        W21887   5.688   9.182  11.568
50162W        W21888  14.864  13.629  13.790
50163W        W21889  33.382  38.377  14.873
50164W        W21890  16.533   8.127  13.859
50165W        W21891  32.938  35.575  12.010
50166W        W21892  34.795   8.457  13.997
50167W        W21893   9.784  18.462  11.537
50168W        W21894  42.916  30.035   0.766
50169W        W21895  38.885  12.815   4.522
50170W        W21896   4.396   9.807   0.391
50171W        W21897  26.636  11.745  11.633
50172W        W21898  30.576  25.292   1.889
50173W        W21899  21.702  12.283  12.585
50174W        W21900   8.031   0.471   3.641
50175W        W21901  32.655  35.517  13.013
50176W        W21902  25.960  29.788  12.157
50177W        W21903  16.728   0.520   1.770
50178W        W21904  34.902  13.103   1.110
50179W        W21905  36.937  19.987   4.442
50180W        W21906  37.554  24.192   1.360
50181W        W21907  25.392  40.111   3.525
50182W        W21908  21.409  21.913  13.743
50183W        W21909  24.957   6.253   4.562
50184W        W21910  42.304  38.454   3.601
50185W        W21911  32.440  32.146  13.313
50186W        W21912  24.261  21.537  12.057
50187W        W21913  16.651   9.894   0.207
50188W        W21914  38.569   6.497   2.268
50189W        W21915  25.299  17.070   3.170
50190W        W21916  25.067  17.427  14.151
50191W        W21917   3.133  25.108   0.650
50192W        W21918  33.638  31.618   0.864
50193W        W21919  23.978  28.010   3.914
50194W        W21920  24.191  35.865  10.124
50195W        W21921  35.077  41.404   3.811
50196W        W21922  37.778  22.424  13.551
50197W        W21923  40.469   3.000   4.165
50198W        W21924  28.998   8.202   2.744
50199W        W21925  41.244   0.870  13.906
50200W        W21926  43.074  19.620  13.411
50201W        W21927  13.936  12.833  11.539
50202W        W21928  26.209  29.355  12.139
50203W        W21929  32.031  19.742  13.082
50204W        W21930  29.516  27.486   0.249
50205W        W21931  34.438  36.484  13.913
50206W        W21932  43.991  41.946  11.887
50207W        W21933  18.993  21.659  11.091
50208W        W21934  36.613  19.066  11.174
50209W        W21935  35.133  25.897  13.391
50210W        W21936   0.772  32.477   4.243
50211W        W21937  18.351   3.589   3.250
50212W        W21938  31.513  36.869  11.155
50213W        W21939  32.667   2.178  14.386
50214W        W21940  40.569  35.048   3.189
50215W        W21941  22.305  44.452   0.391
50216W        W21942  19.140  24.464   4.222
50217W        W21943  18.866  23.150   0.711
50218W        W21944  23.574  31.404   3.720
50219W        W21945  44.022   4.220   4.523
50220W        W21946   2.889  12.850   4.966
50221W        W21947   4.273  11.560   1.981
50222W        W21948  37.620   8.239   2.771
50223W        W21949  16.244  39.931   0.221
50224W        W21950  14.779  42.813   1.655
50225W        W21951  24.413   3.265   2.691
50226W        W21952  35.224  29.089  12.856
50227W        W21953  13.346  38.981   4.697
50228W        W21954  11.778  11.450  14.321
50229W        W21955  43.272  19.515   0.388
50230W        W21956  12.371   4.757  10.853
50231W        W21957  31.110  30.187   1.682
50232W        W21958   7.106  19.911  11.988
50233W        W21959  41.996  35.857  14.417
50234W        W21960  16.352  34.904  11.092
50235W        W21961  28.777  42.412  13.336
50236W        W21962  29.437   8.799  10.055
50237W        W21963  33.891   3.005  11.107
50238W        W21964   0.733  40.280   1.407
50239W        W21965  21.592  42.547  12.409
50240W        W21966   4.264  14.070  11.982
50241W        W21967  14.046  21.029   4.717
50242W        W21968  28.392  11.063   1.344
50243W        W21969   6.887   2.762   2.250
50244W        W21970  11.279  17.000   1.636
50245W        W21971   4.118  28.479  14.323
50246W        W21972  26.517  10.185  14.004
50247W        W21973  41.003  20.734   4.198
50248W        W21974  16.780  19.267   0.457
50249W        W21975   7.676   7.152  13.392
50250W        W21976  19.715  20.794   0.531
50251W        W21977   6.458  22.217  12.534
50252W        W21978   3.993   5.804  13.091
50253W        W21979  33.469  36.103  12.113
50254W        W21980  15.566  28.459  14.465
50255W        W21981  31.483  12.563  12.077
50256W        W21982  20.953  39.863  11.054
50257W        W21983  11.101  18.166  14.793
50258W        W21984   2.507  35.952  12.900
50259W        W21985  16.159  37.081   3.351
50260W        W21986  26.009   3.294   2.435
50261W        W21987  33.647  20.697  13.504
50262W        W21988  26.931  37.291   0.483
50263W        W21989  38.107  19.410  12.923
50264W        W21990  38.287  10.219   3.802
50265W        W21991  22.430  34.957   1.428
50266W        W21992  32.984  21.312  14.528
50267W        W21993  40.728  26.571  14.491
50268W        W21994   7.665   7.421  12.524
50269W        W21995  41.870  27.373   0.728
50270W        W21996  19.194  44.936   3.271
50271W        W21997  30.609  28.191   0.424
50272W        W21998   5.418   6.300  12.941
50273W        W21999  26.338  18.763   3.690
50274W        W22000  14.159   5.786   0.879
50275W        W22001   4.824  28.192   2.058
50276W        W22002  16.154  39.056   0.765
50277W        W22003  20.576  13.512   4.086
50278W        W22004  35.183   4.324   4.054
50279W        W22005  25.124  25.000  12.020
50280W        W22006  24.886  26.087   4.302
50281W        W22007  35.817   9.845  10.769
50282W        W22008  43.704  41.509   1.200
50283W        W22009   4.428   1.259   2.822
50284W        W22010   4.687  42.504  13.499
50285W        W22011   2.258  36.030   1.949
50286W        W22012  36.656  23.531   1.237
50287W        W22013   0.957  13.330   2.337
50288W        W22014  42.715  14.796  10.712
50289W        W22015   0.793   1.243  14.023
50290W        W22016  42.441   0.753  12.586
50291W        W22017  39.337  44.762   2.034
50292W        W22018   7.429  38.319   4.637
50293W        W22019  27.627   6.727   4.126
50294W        W22020  22.609  32.144  12.326
50295W        W22021  21.414  42.763   0.006
50296W        W22022   3.776  10.632  14.763
50297W        W22023  18.152  31.857   3.262
50298W        W22024   1.299  41.240  13.501
50299W        W22025  31.897  34.581   4.586
50300W        W22026  12.300   9.822  11.569
50301W        W22027  22.624  35.395  10.723
50302W        W22028  15.258   7.410   0.479
50303W        W22029  34.679  29.946   2.368
50304W        W22030   5.291  19.736   4.117
50305W        W22031   5.262  33.412  10.589
50306W        W22032  29.054  28.544   1.942
50307W        W22033  28.244  26.974   2.195
50308W        W22034  32.490  13.379   1.241
50309W        W22035  35.230   1.328   1.043
50310W        W22036   3.358  44.031  10.490
50311W        W22037  13.197  38.874   1.227
50312W        W22038  15.627  21.266  12.083
50313W        W22039  24.634  38.934  11.456
50314W        W22040  22.173  15.402  12.155
50315W        W22041  27.040   9.176  12.471
50316W        W22042  44.359  29.907  10.482
50317W        W22043  14.778   9.430   2.283
50318W        W22044  42.717  36.418  11.225
50319W        W22045  42.019  17.728  14.356
50320W        W22046  31.888  10.103  14.421
50321W        W22047  24.548  11.391   2.935
50322W        W22048   8.906   5.730   4.491
50323W        W22049  44.224  18.021  14.689
50324W        W22050  21.523  39.386   1.327
50325W        W22051  12.706  31.975  11.967
50326W        W22052   0.063  30.934  13.353
50327W        W22053  28.642   0.796   0.762
50328W        W22054   7.282   0.853   0.731
50329W        W22055  42.586  17.276  12.390
50330W        W22056  42.100  13.325   4.065
50331W        W22057  17.832  33.053   0.307
50332W        W22058  43.061  30.301   1.428
50333W        W22059  43.294  32.094   2.943
50334W        W22060  36.851  12.678   4.105
50335W        W22061  38.825  13.864  12.726
50336W        W22062   9.237  43.113   3.866
50337W        W22063  40.865  35.123   4.894
50338W        W22064   2.694  27.957   1.591
50339W        W22065  39.802  17.141  12.709
50340W        W22066  31.565  30.056  11.986
50341W        W22067  28.857   3.367  11.866
50342W        W22068  19.763   3.712   4.988
50343W        W22069  11.789  23.704  12.374
50344W        W22070  28.743  13.330  14.108
50345W        W22071  33.427  35.895   1.289
50346W        W22072  36.382  21.190  11.173
50347W        W22073  40.087  28.643   4.710
50348W        W22074  27.231  25.905   1.795
50349W        W22075  21.066  18.756  12.622
50350W        W22076  35.586   6.343  10.646
50351W        W22077  15.805  26.987  12.633
50352W        W22078  44.597  43.232  12.017
50353W        W22079  42.134  22.215  13.948
50354W        W22080  43.000  15.009  13.027
50355W        W22081  38.494  27.929   0.302
50356W        W22082  13.442  31.932  11.405
50357W        W22083  16.362  32.675  11.646
50358W        W22084  30.955  20.723   1.352
50359W        W22085  19.170   0.742   2.741
50360W        W22086  42.938  18.570   4.683
50361W        W22087   6.301  28.965   1.893
50362W        W22088  13.897  28.992   0.827
50363W        W22089  21.631  42.325  10.947
50364W        W22090  43.019  32.025   1.841
50365W        W22091  24.475  12.141  10.756
50366W        W22092  44.679  16.737  13.927
50367W        W22093   7.835   4.289  14.933
50368W        W22094  29.153  32.508   2.232
50369W        W22095  37.386  26.499  10.865
50370W        W22096   8.734  14.664   4.263
50371W        W22097  31.671  22.997  11.951
50372W        W22098   9.735  36.124   3.151
50373W        W22099  26.966  13.767   1.313
50374W        W22100  37.515  39.096  14.955
50375W        W22101  15.081  27.520  12.074
50376W        W22102  16.573   1.955  10.535
50377W        W22103  39.009  36.936   3.251
50378W        W22104  40.358   9.295  12.975
50379W        W22105  12.156  11.459  12.009
50380W        W22106  20.235  15.759   2.275
50381W        W22107   0.208  10.480   2.653
50382W        W22108   9.393  37.417   0.347
50383W        W22109  31.300  13.331  13.969
50384W        W22110  41.945  32.902   4.588
50385W        W22111  21.166  33.723   0.525
50386W        W22112  14.399  30.585   3.200
50387W        W22113  11.152  15.121   1.610
50388W        W22114  34.690  23.030   3.061
50389W        W22115  30.376   6.642  14.792
50390W        W22116  38.790  22.570  14.400
50391W        W22117   8.426   6.595   2.762
50392W        W22118   1.506  34.054  11.059
50393W        W22119  44.861   0.369  13.536
50394W        W22120  15.388   8.916  10.681
50395W        W22121  17.301   1.785   2.272
50396W        W22122  37.785  39.981   1.800
50397W        W22123   9.111  22.558  11.963
50398W        W22124  22.273   6.239  11.563
50399W        W22125  20.027  20.590  12.152
50400W        W22126  16.771  36.447  11.505
50401W        W22127  38.938   4.360   1.200
50402W        W22128  10.752  22.299  14.719
50403W        W22129  15.203  34.128   1.812
50404W        W22130  42.951  31.379   2.139
50405W        W22131  15.705  21.898   4.472
50406W        W22132  17.652  35.238   4.604
50407W        W22133  44.265  12.205   4.417
50408W        W22134  29.069  28.387   2.871
50409W        W22135  30.102  22.304   2.819
50410W        W22136  24.510   2.839   3.942
50411W        W22137   9.710  20.607  13.006
50412W        W22138  34.422  42.414  13.490
50413W        W22139  42.811  20.915   3.636
50414W        W22140  20.521  39.032  12.561
50415W        W22141   7.685  38.733   4.452
50416W        W22142  36.137   4.449   2.814
50417W        W22143  39.366  18.202  12.825
50418W        W22144  28.133   1.536   2.342
50419W        W22145   3.010  11.744   2.688
50420W        W22146  17.485  18.690   4.127
50421W        W22147  20.177  30.683  14.448
50422W        W22148  28.708  31.703  12.213
50423W        W22149  33.713  17.611   3.713
50424W        W22150   6.431  31.161   3.628
50425W        W22151  26.105  32.618  13.390
50426W        W22152   2.873  31.968  13.623
50427W        W22153  17.236  12.769  11.577
50428W        W22154  33.364  10.794   3.087
50429W        W22155  25.063   1.496  14.899
50430W        W22156  30.972  44.709   4.709
50431W        W22157   6.816  12.867  14.177
50432W        W22158  30.393  17.840  13.548
50433W        W22159  38.943  18.567  10.983
50434W        W22160  38.394  21.245   2.862
50435W        W22161   3.965  15.633   4.629
50436W        W22162  41.034  13.651   0.190
50437W        W22163  21.799  12.849  11.635
50438W        W22164  14.113   0.342  12.901
50439W        W22165  38.951  40.561  12.884
50440W        W22166   9.823  26.184  13.970
50441W        W22167  33.948  36.950   4.352
50442W        W22168  12.572  18.328   1.351
50443W        W22169  33.406  42.850   4.507
50444W        W22170  10.015   4.066   4.218
50445W        W22171  28.018  21.458   0.823
50446W        W22172  28.660  24.042  13.925
50447W        W22173  33.721  13.270  14.094
50448W        W22174  21.225   0.064  11.050
50449W        W22175  26.018  32.469  11.468
50450W        W22176  36.904  36.328  11.925
50451W        W22177  16.988  37.353  10.650
50452W        W22178  30.060  22.569   4.081
50453W        W22179  36.530  17.621  14.957
50454W        W22180   8.880  37.602   0.384
50455W        W22181  16.407  27.985   0.359
50456W        W22182  38.374  38.072   1.783
50457W        W22183  32.564  33.871  14.404
50458W        W22184   6.640  14.190  12.424
50459W        W22185   9.171  37.098  12.623
50460W        W22186   5.390  14.300   3.591
50461W        W22187  41.197  20.421   3.534
50462W        W22188  33.742  26.346   1.433
50463W        W22189  12.361  40.566  14.977
50464W        W22190  10.395  10.369  14.277
50465W        W22191  16.358  12.762  13.913
50466W        W22192  35.280  25.152   4.519
50467W        W22193   1.740  12.216   0.712
50468W        W22194  14.867  43.934   2.013
50469W        W22195  44.198  40.889  11.750
50470W        W22196  13.182  25.896  12.464
50471W        W22197   4.125  26.934   1.639
50472W        W22198  23.605  24.777  14.331
50473W        W22199  43.488   9.778   3.558
50474W        W22200  35.043   1.264   1.531
50475W        W22201  26.701   4.410  13.846
50476W        W22202  18.578  32.398  11.947
50477W        W22203   8.476  30.178  14.237
50478W        W22204  12.323   6.269  12.594
50479W        W22205   2.417   8.317  12.975
50480W        W22206  21.758   2.547  14.317
50481W        W22207  18.678   1.912   0.724
50482W        W22208  13.705  19.000   0.286
50483W        W22209  23.605  25.829   3.496
50484W        W22210   1.089  13.809   0.492
50485W        W22211  23.431  39.020  11.071
50486W        W22212  19.575  22.779   3.030
50487W        W22213   6.337  31.194  12.116
50488W        W22214  10.953   0.814  14.270
50489W        W22215   0.023  35.917  11.634
50490W        W22216  18.592  42.786   4.097
50491W        W22217  33.156  37.914  14.959
50492W        W22218  25.446  41.080  12.495
50493W        W22219  13.292   0.763  12.838
50494W        W22220  14.548  33.053  12.996
50495W        W22221  18.140   9.274   1.228
50496W        W22222  38.645  39.093   1.121
50497W        W22223  17.599  28.104   2.375
50498W        W22224  10.877  35.947   4.593
50499W        W22225  40.952  24.242  11.959
50500W        W22226   0.756  13.331   1.441
50501W        W22227  42.056  38.260   0.860
50502W        W22228  38.794  15.252  12.518
50503W        W22229  30.886  39.793   4.264
50504W        W22230  18.066  42.512  13.077
50505W        W22231  37.387  36.902  13.474
50506W        W22232  36.750  14.154   1.502
50507W        W22233  42.005  11.770   1.330
50508W        W22234  18.048  23.568  11.653
50509W        W22235  35.633  36.270   3.653
50510W        W22236  32.433  20.355  13.908
50511W        W22237  34.660  32.511  14.286
50512W        W22238  31.968   8.707   4.038
50513W        W22239  27.678  19.498  13.137
50514W        W22240  20.461   5.799   1.639
50515W        W22241  43.011   6.831  12.871
50516W        W22242  13.055   4.346   0.600
50517W        W22243  21.737  20.397   4.078
50518W        W22244  26.237  28.434   4.979
50519W        W22245  18.834  41.944   2.033
50520W        W22246   3.660  26.576   1.681
50521W        W22247  11.658  28.893  11.225
50522W        W22248  20.438  25.775   2.165
50523W        W22249  10.296  31.656   3.283
50524W        W22250  34.399   4.456   4.451
50525W        W22251  42.314  23.957   2.299
50526W        W22252  26.168  43.296   5.394
50527W        W22253  17.124  26.050  13.481
50528W        W22254   1.165  16.630   4.433
50529W        W22255   2.254  32.505  12.528
50530W        W22256  18.795   0.422   0.417
50531W        W22257  17.061  42.411  12.148
50532W        W22258  44.764  20.649   1.564
50533W        W22259  25.614  23.762   1.072
50534W        W22260  10.075   2.357   0.766
50535W        W22261  42.194  35.401  13.512
50536W        W22262  20.648  42.884   2.182
50537W        W22263  41.274  11.875   3.067
50538W        W22264   3.678  37.239   0.391
50539W        W22265  39.817   4.476   0.323
50540W        W22266  12.723  34.550   3.152
50541W        W22267  33.438  38.544  13.981
50542W        W22268  23.090   9.770   3.996
50543W        W22269  16.007  11.411  13.733
50544W        W22270  16.057  17.422  11.905
50545W        W22271  34.554  38.403  10.682
50546W        W22272  26.995   2.654  14.957
50547W        W22273  22.695  34.876  10.666
50548W        W22274   4.686  16.620   3.379
50549W        W22275  33.436   5.477   4.118
50550W        W22276  30.066  41.289  10.660
50551W        W22277  17.621  27.111  13.411
50552W        W22278   9.080  29.914  14.911
50553W        W22279  40.379  29.485  10.773
50554W        W22280  32.853  42.976  12.985
50555W        W22281   7.855  10.749   0.959
50556W        W22282  42.854   1.261   0.210
50557W        W22283  41.997   3.074  11.135
50558W        W22284  40.333   9.352   3.856
50559W        W22285   4.716  23.491  10.658
50560W        W22286  40.973  12.818   3.446
50561W        W22287  13.046  44.556   1.043
50562W        W22288  30.528  42.531   3.275
50563W        W22289  22.186  14.108  11.525
50564W        W22290  39.114   5.439   0.556
50565W        W22291   2.207  29.101   1.201
50566W        W22292   8.751  33.613  12.899
50567W        W22293  41.451  39.535  14.769
50568W        W22294  14.613  31.066   3.094
50569W        W22295  22.692  14.730  12.512
50570W        W22296  19.200   6.047  10.690
50571W        W22297  29.320  22.040   2.408
50572W        W22298  16.074  20.665  12.711
50573W        W22299  35.418  21.306  14.727
50574W        W22300  40.131  30.066   4.442
50575W        W22301   0.872  41.869   4.117
50576W        W22302  41.538  20.115   3.783
50577W        W22303   5.370  21.223  13.990
50578W        W22304  20.167  37.354   0.211
50579W        W22305  40.081  16.737  12.859
50580W        W22306  21.172   5.232   0.971
50581W        W22307  34.081  19.796  14.095
50582W        W22308  38.014   6.582  14.965
50583W        W22309  17.735   3.850  14.533
50584W        W22310   4.846   7.877  13.938
50585W        W22311   2.658  10.448  13.458
50586W        W22312  35.438  15.731  14.908
50587W        W22313  20.668  36.659   2.971
50588W        W22314   7.171  15.244   1.942
50589W        W22315  21.563  21.826  13.268
50590W        W22316  15.129  34.680   3.121
50591W        W22317  30.577  16.583   3.645
50592W        W22318  16.126   9.699   3.330
50593W        W22319  35.207  26.861   2.306
50594W        W22320  26.538  18.473   3.313
50595W        W22321  42.231  36.607  11.182
50596W        W22322  12.164  24.598  14.832
50597W        W22323  42.938  23.726   3.058
50598W        W22324   4.499  13.846  10.576
50599W        W22325  39.996   8.667  14.317
50600W        W22326  24.847  13.145   0.337
50601W        W22327  28.868  41.378   3.094
50602W        W22328   5.783   2.973   2.354
50603W        W22329  35.447  12.560   3.004
50604W        W22330  42.424  43.242  14.190
50605W        W22331  26.498  35.030  14.145
50606W        W22332  30.075   4.969  14.397
50607W        W22333  36.959   8.323  13.096
50608W        W22334  38.776  38.476   1.078
50609W        W22335  34.136  38.728  11.211
50610W        W22336  33.068  27.633  11.515
50611W        W22337  40.714  17.661   4.013
50612W        W22338   1.726  36.784   3.213
50613W        W22339  35.371  20.396  12.946
50614W        W22340   7.703  44.290  10.723
50615W        W22341   6.320  21.110   1.093
50616W        W22342  31.188   3.247   0.037
50617W        W22343  24.627  15.336   1.840
50618W        W22344   8.550  13.120  14.925
50619W        W22345  35.900  40.749  11.116
50620W        W22346   9.840  39.683  12.481
50621W        W22347  44.171  39.394   2.205
50622W        W22348  10.160  29.482   1.370
50623W        W22349   5.755  16.038   5.176
50624W        W22350  35.850  35.864  11.584
50625W        W22351   4.027  10.139  14.308
50626W        W22352  25.723   2.263  10.724
50627W        W22353  26.187  39.042   1.709
50628W        W22354  11.691  42.973  10.283
50629W        W22355   4.641  31.785   2.757
50630W        W22356  16.740   3.983   0.446
50631W        W22357   3.730  33.092   0.975
50632W        W22358  14.046  12.172   0.492
50633W        W22359  12.874   6.209  14.870
50634W        W22360  41.418  17.848  11.056
50635W        W22361  36.966  33.513  14.476
50636W        W22362  42.580  12.076  13.045
50637W        W22363  37.140   3.690  13.260
50638W        W22364  31.922  18.262  13.822
50639W        W22365   4.253  13.562  12.025
50640W        W22366  28.562  40.434   4.476
50641W        W22367  36.619   8.484   4.674
50642W        W22368   9.802  43.145  11.120
50643W        W22369  43.414  29.339  13.992
50644W        W22370  17.604  31.917  12.435
50645W        W22371  43.988  28.059  11.124
50646W        W22372  29.659  17.204   2.807
50647W        W22373  20.077  37.987  11.245
50648W        W22374  21.272  21.741   2.797
50649W        W22375  26.262  13.740  10.788
50650W        W22376  24.761   3.704   3.371
50651W        W22377  35.104  41.871   0.031
50652W        W22378   6.822   6.116  12.507
50653W        W22379  27.581  30.189   1.992
50654W        W22380   5.336   8.125  10.981
50655W        W22381  39.888  34.795   2.766
50656W        W22382   0.233  39.605  14.484
50657W        W22383  24.073   7.139   0.346
50658W        W22384  35.994   7.147  12.888
50659W        W22385  17.513  44.330  12.448
50660W        W22386  25.131   8.313   3.280
50661W        W22387  17.600  22.113  12.385
50662W        W22388   7.321  16.786   1.269
50663W        W22389  16.737   3.922   3.624
50664W        W22390  18.352  21.087  11.079
50665W        W22391  37.003   0.023  14.021
50666W        W22392  40.456  35.615   1.768
50667W        W22393  17.215  13.444  13.866
50668W        W22394  39.405   6.436  11.209
50669W        W22395  27.703  31.033  11.635
50670W        W22396  15.919  42.791   0.190
50671W        W22397   9.201  38.118   2.601
50672W        W22398  41.048  32.515   3.808
50673W        W22399  32.522  19.262  11.036
50674W        W22400  26.701  14.591  13.020
50675W        W22401   2.043  13.763   3.691
50676W        W22402   7.303  35.581   2.505
50677W        W22403  10.803  12.988   1.201
50678W        W22404  43.018  24.339  14.942
50679W        W22405  35.005  37.280  12.480
50680W        W22406  14.826  36.544   4.497
50681W        W22407  43.747  26.756  10.628
50682W        W22408  39.828  24.576  12.161
50683W        W22409  24.512   3.705   1.405
50684W        W22410  32.130   6.780   2.458
50685W        W22411  33.537  41.802   0.857
50686W        W22412   7.325  43.715  14.425
50687W        W22413  12.809  37.900  12.407
50688W        W22414  30.491   8.318   0.469
50689W        W22415  14.266  21.230  10.609
50690W        W22416   1.005  17.589   4.575
50691W        W22417  17.200  35.560  14.232
50692W        W22418  26.055   4.720  12.512
50693W        W22419   7.474  10.138   2.250
50694W        W22420  19.444  40.356  11.575
50695W        W22421  13.221   4.319  13.364
50696W        W22422  25.359  33.371   4.565
50697W        W22423  42.048  34.448  11.566
50698W        W22424  39.358   7.771   0.990
50699W        W22425  11.388  31.109  10.722
50700W        W22426   8.827   7.309   2.314
50701W        W22427  37.445  39.308   1.807
50702W        W22428  38.858   0.929   2.627
50703W        W22429  26.657  37.874  14.533
50704W        W22430   4.234  33.265  11.975
50705W        W22431  31.039  43.415  12.081
50706W        W22432   8.841  43.524   3.201
50707W        W22433   2.522  25.425   1.186
50708W        W22434  18.653  12.899  14.927
50709W        W22435  34.116   3.438   2.333
50710W        W22436  43.188  11.764   2.828
50711W        W22437  14.903  13.542  14.293
50712W        W22438  32.849  35.130  10.434
50713W        W22439  13.737  28.483  14.565
50714W        W22440  19.863  11.785  11.242
50715W        W22441  24.541  15.860   2.287
50716W        W22442  32.094  15.075   4.488
50717W        W22443   4.687   5.221   3.240
50718W        W22444  27.088  23.042   3.778
50719W        W22445  29.833  29.966  14.870
50720W        W22446  26.162  24.579   1.220
50721W        W22447  34.842  25.043  14.730
50722W        W22448  39.852  27.049  14.997
50723W        W22449  16.194  35.975  11.726
50724W        W22450  15.785  33.584  12.773
50725W        W22451  38.842  28.606  12.576
50726W        W22452  32.089  28.729  11.137
50727W        W22453   1.527  11.160  11.245
50728W        W22454  21.714  33.471   3.339
50729W        W22455  27.611   5.933  11.393
50730W        W22456  13.752  40.905  13.783
50731W        W22457  15.392  28.934   1.962
50732W        W22458  43.513  43.979  14.240
50733W        W22459  21.076  32.177  10.680
50734W        W22460  35.752   4.264   3.155
50735W        W22461  39.970  38.889   1.343
50736W        W22462  11.686  16.923   1.277
50737W        W22463  30.524  39.342   0.255
50738W        W22464  31.198  37.805  13.305
50739W        W22465   1.856  12.847  12.942
50740W        W22466  35.350  27.708   1.263
50741W        W22467  20.799  25.961   5.448
50742W        W22468  43.344  30.305  13.674
50743W        W22469  23.252  26.570   0.380
50744W        W22470  10.278  11.287   0.692
50745W        W22471  14.530  16.195  13.344
50746W        W22472  37.415  35.033   1.447
50747W        W22473  18.723  13.845   1.288
50748W        W22474   7.954  16.659   2.488
50749W        W22475  15.433   7.682   0.091
50750W        W22476  21.087  26.971   2.019
50751W        W22477  34.686  37.073  14.744
50752W        W22478  37.690  41.377  14.874
50753W        W22479  38.094  29.189   0.812
50754W        W22480  13.312  39.552  13.428
50755W        W22481  32.780  38.399   1.848
50756W        W22482   2.392  43.001   1.746
50757W        W22483  26.918   8.913  10.034
50758W        W22484  27.137  32.022  13.007
50759W        W22485  41.834  35.350  12.870
50760W        W22486  40.444  44.840  10.955
50761W        W22487  19.525  42.243  11.390
50762W        W22488  37.513  32.088  10.265
50763W        W22489  41.313  42.898  14.770
50764W        W22490  11.569  40.500   4.590
50765W        W22491   6.601  23.562   1.472
50766W        W22492  29.656  17.253  13.061
50767W        W22493  22.436  35.981   4.938
50768W        W22494  32.978  16.672   2.581
50769W        W22495  37.134  38.886   1.853
50770W        W22496  14.668  25.081   2.663
50771W        W22497  43.832  32.072   2.792
50772W        W22498  32.585  31.056  14.823
50773W        W22499  21.523  40.960   3.437
50774W        W22500  16.303  42.012  13.932
50775W        W22501  23.673  19.173  13.492
50776W        W22502   0.297   0.097  14.319
50777W        W22503   6.332  39.233  13.941
50778W        W22504  43.384  18.116   0.029
50779W        W22505  26.059  44.311  13.008
50780W        W22506   6.962   3.706   4.495
50781W        W22507  20.294  35.344   4.097
50782W        W22508  20.041  28.693  11.179
50783W        W22509  39.240  25.665  10.697
50784W        W22510   2.288  11.251   4.102
50785W        W22511  43.039  31.554  12.529
50786W        W22512  29.667  31.422   1.418
50787W        W22513  41.809  23.785  12.390
50788W        W22514  23.733  43.409   3.102
50789W        W22515  13.762  20.673  14.082
50790W        W22516  19.713  34.004  11.125
50791W        W22517   5.945  23.693  10.734
50792W        W22518  41.971  32.486   3.239
50793W        W22519   1.758  29.425  14.439
50794W        W22520  10.825  30.194   3.104
50795W        W22521   4.232  37.807   1.779
50796W        W22522   7.368  34.497   1.257
50797W        W22523  17.390  34.134  13.133
50798W        W22524  25.173  23.506  13.320
50799W        W22525   2.741  12.124  11.641
50800W        W22526  20.289  32.570   3.352
50801W        W22527   7.134  22.013  14.239
50802W        W22528  31.449  12.609   0.419
50803W        W22529  41.528  43.314  14.479
50804W        W22530  24.612   5.864  14.062
50805W        W22531   1.376  14.987   2.886
50806W        W22532  19.599  22.545   1.687
50807W        W22533  22.689   4.007   3.137
50808W        W22534  33.031  17.606  14.427
50809W        W22535  40.271   3.903  13.081
50810W        W22536  15.904  30.521   3.336
50811W        W22537  38.373  34.854  12.338
50812W        W22538  21.950   5.350   2.832
50813W        W22539  34.955  12.540  14.863
50814W        W22540  27.922  25.637   4.891
50815W        W22541  42.958  17.753  13.405
50816W        W22542  23.702   3.305   2.376
50817W        W22543  17.638  39.284  12.808
50818W        W22544  17.310  38.856  11.917
50819W        W22545  11.623  20.629   3.748
50820W        W22546  11.146  44.216   3.269
50821W        W22547   1.498  36.871   1.006
50822W        W22548   1.086   1.887   1.012
50823W        W22549  12.397  27.417  12.854
50824W        W22550  27.078  23.761  11.158
50825W        W22551  29.485  10.143  10.342
50826W        W22552  26.011  35.422   1.120
50827W        W22553   6.845  10.174   2.616
50828W        W22554  27.162  44.209  11.621
50829W        W22555   8.282  10.147  14.881
50830W        W22556  36.881  26.523  10.733
50831W        W22557   9.648  32.444   4.807
50832W        W22558  32.286  31.411   0.413
50833W        W22559  31.615   9.830  11.105
50834W        W22560  20.380  18.695  14.193
50835W        W22561  34.514  14.322  11.862
50836W        W22562  17.538  36.173   2.586
50837W        W22563  27.599  32.555   3.794
50838W        W22564  23.643   7.892   3.699
50839W        W22565  35.120  20.175  11.930
50840W        W22566  22.795  28.943   0.344
50841W        W22567  26.460  28.023  12.498
50842W        W22568  39.854  40.422  12.772
50843W        W22569  17.816  34.621   1.838
50844W        W22570   2.283   4.560   1.922
50845W        W22571  43.048  15.479   0.787
50846W        W22572   9.856   3.151  13.925
50847W        W22573  11.824  35.489   2.302
50848W        W22574   8.842   4.235   0.501
50849W        W22575  24.503  42.038  11.604
50850W        W22576   8.031  41.968  11.670
50851W        W22577  44.085  42.001  13.115
50852W        W22578  21.200  29.879   1.924
50853W        W22579  25.643  20.828  10.766
50854W        W22580   0.021  31.485   1.135
50855W        W22581  28.926  30.220  14.926
50856W        W22582   0.224  13.351   0.796
50857W        W22583   8.943  39.102   4.209
50858W        W22584   5.955  29.486  10.642
50859W        W22585  27.891  25.237   4.087
50860W        W22586  38.253  43.938   3.899
50861W        W22587  18.002  16.710   0.843
50862W        W22588  20.202  29.086  12.813
50863W        W22589  40.317  27.753   0.228
50864W        W22590  11.775  41.853   0.135
50865W        W22591  23.844  29.010  12.717
50866W        W22592  37.375  31.671   4.317
50867W        W22593  21.549   2.757   0.713
50868W        W22594  31.942   8.304  11.177
50869W        W22595  39.639  20.498   0.863
50870W        W22596  44.700  21.221   2.310
50871W        W22597  29.639  13.710   0.788
50872W        W22598  29.445  17.210  11.234
50873W        W22599  34.881  30.358   2.158
50874W        W22600  38.578  15.182   4.336
50875W        W22601   7.290  31.447   2.850
50876W        W22602  29.983  20.637   0.374
50877W        W22603   1.969  32.926  12.286
50878W        W22604  13.519  11.936   1.348
50879W        W22605  17.978  18.607   0.414
50880W        W22606  15.582  24.102  14.383
50881W        W22607  38.338  44.509  12.166
50882W        W22608  25.542   2.849  14.498
50883W        W22609   2.450   5.807  13.640
50884W        W22610  38.432  32.224  13.202
50885W        W22611  37.388  12.822   4.681
50886W        W22612  43.314  31.301  13.356
50887W        W22613  20.298  14.826  13.515
50888W        W22614  30.209  36.847   3.202
50889W        W22615  13.338  16.821   3.198
50890W        W22616   4.258  24.516  13.384
50891W        W22617  30.158  16.177   3.109
50892W        W22618  17.601  28.350  14.766
50893W        W22619  39.351  42.089   3.200
50894W        W22620  14.782  38.878   0.358
50895W        W22621  32.614  22.244  11.600
50896W        W22622  42.329  16.706  13.814
50897W        W22623  11.538  42.144   2.755
50898W        W22624  44.835  37.471   0.331
50899W        W22625  14.392  17.518  14.917
50900W        W22626   9.338  30.395  10.767
50901W        W22627  37.324  33.317   0.465
50902W        W22628   7.149  11.191   3.683
50903W        W22629   0.370  28.595  12.603
50904W        W22630   2.990  32.758   1.865
50905W        W22631   1.247  15.303   1.437
50906W        W22632  43.883   2.461  13.814
50907W        W22633   6.700   0.866  10.827
50908W        W22634  21.528  37.836   2.808
50909W        W22635  36.890  28.423   4.885
50910W        W22636   6.659  37.313  11.922
50911W        W22637  37.445   1.038  14.450
50912W        W22638   6.892  20.481  12.648
50913W        W22639  16.579  15.083  14.457
50914W        W22640  24.685  23.087   1.896
50915W        W22641  41.738   4.824  10.920
50916W        W22642   3.255  13.827  13.870
50917W        W22643  37.581   9.214  12.315
50918W        W22644  17.326   4.742   3.318
50919W        W22645  16.783  20.185  12.411
50920W        W22646  16.641  35.765   0.380
50921W        W22647   2.927  33.991   2.690
50922W        W22648  42.848  24.056  13.152
50923W        W22649   3.028  42.451  10.708
50924W        W22650  35.977  43.213  13.511
50925W        W22651  32.420   1.528  14.961
50926W        W22652  43.580  43.299  11.103
50927W        W22653  41.246   3.817  14.318
50928W        W22654   5.804  41.407   4.045
50929W        W22655  38.442  39.853  10.895
50930W        W22656  27.991   2.669  10.664
50931W        W22657  35.564  35.444  12.442
50932W        W22658  43.661  26.095   1.745
50933W        W22659  41.497  42.923  11.141
50934W        W22660   3.656  19.133  14.992
50935W        W22661   7.746  18.652  10.524
50936W        W22662  42.609   0.902  12.099
50937W        W22663  44.283   8.469   3.944
50938W        W22664  31.918  29.223  11.133
50939W        W22665  18.767  39.098   1.319
50940W        W22666  39.471  34.942   0.254
50941W        W22667  19.551  43.811  13.515
50942W        W22668  24.931  43.251  10.575
50943W        W22669  40.969  17.606  11.150
50944W        W22670  22.282  13.116   0.653
50945W        W22671  14.710  21.634   0.397
50946W        W22672   0.801  27.568  14.554
50947W        W22673  21.712  11.617   2.576
50948W        W22674  28.160  41.803  11.449
50949W        W22675  36.496  30.761  12.330
50950W        W22676   5.871   0.891  12.922
50951W        W22677  19.972  35.005  11.089
50952W        W22678  11.719  26.187  12.750
50953W        W22679  23.658  16.746   4.513
50954W        W22680  27.626  39.633   4.028
50955W        W22681   3.189  41.448   2.447
50956W        W22682  35.505  24.148   2.241
50957W        W22683   3.216  31.997   2.350
50958W        W22684  23.228  17.662  11.695
50959W        W22685  15.270  27.565   2.398
50960W        W22686  23.213   6.568   2.664
50961W        W22687  40.848  37.953  12.896
50962W        W22688  28.565   0.254  10.969
50963W        W22689  38.036   1.841   0.454
50964W        W22690   2.798   6.514   3.886
50965W        W22691  16.260  30.734   1.938
50966W        W22692  10.197  38.001   3.845
50967W        W22693  32.024  25.716   5.479
50968W        W22694  37.029  23.708  13.560
50969W        W22695   5.820  13.449   9.779
50970W        W22696  29.462  29.150   1.340
50971W        W22697  44.989  41.895  14.783
50972W        W22698   4.218   6.491  14.902
50973W        W22699  12.199  29.854  11.878
50974W        W22700  38.533   5.980  14.517
50975W        W22701  35.074  15.521  13.464
50976W        W22702  35.881   3.160   0.180
50977W        W22703   9.796  22.022   0.096
50978W        W22704  20.946  32.494   0.847
50979W        W22705  40.790   0.976   4.642
50980W        W22706  13.280  42.695  10.358
50981W        W22707  38.960   1.835   1.328
50982W        W22708  16.782  31.481   3.862
50983W        W22709  27.613  30.683   1.681
50984W        W22710  41.927  22.936   2.859
50985W        W22711   0.966   0.061   3.183
50986W        W22712   1.480  17.302  12.659
50987W        W22713  26.998  37.840  14.913
50988W        W22714  40.514  43.906   3.005
50989W        W22715  29.699   2.684   1.660
50990W        W22716  11.378  12.217  12.661
50991W        W22717   0.494   4.908   2.033
50992W        W22718   8.908  20.020   1.214
50993W        W22719  36.626  23.146  10.675
50994W        W22720  24.550   1.743  14.014
50995W        W22721   3.684   2.710   3.685
50996W        W22722  40.508  17.102   3.193
50997W        W22723  40.829  32.107   0.285
50998W        W22724  41.353  16.720   0.198
50999W        W22725  16.105  14.250   0.446
51000W        W22726  14.391   9.113   2.342
51001W        W22727  13.082  40.400  11.957
51002W        W22728   1.108   6.134  11.956
51003W        W22729  12.072  22.316   3.012
51004W        W22730  19.129  25.511   2.501
51005W        W22731   6.316  23.273  13.386
51006W        W22732   3.311  33.196  11.986
51007W        W22733  11.803  30.406   4.084
51008W        W22734  17.176  27.884   1.397
51009W        W22735   3.410  37.637  10.466
51010W        W22736  28.400  22.640   1.426
51011W        W22737  23.332  38.394  11.618
51012W        W22738  31.606   0.250   3.462
51013W        W22739  44.562  27.080  14.665
51014W        W22740   8.871   6.230   3.503
51015W        W22741  40.409  24.672   3.896
51016W        W22742  13.174   1.253  10.718
51017W        W22743   9.663  28.594  14.499
51018W        W22744  21.225  14.399  13.029
51019W        W22745  24.809  39.528  11.155
51020W        W22746  30.079  37.762  12.985
51021W        W22747  34.559  35.303  12.502
51022W        W22748  10.436  18.279   5.112
51023W        W22749  36.699  15.215  12.895
51024W        W22750  32.627   3.238   0.931
51025W        W22751  25.475  23.173   3.321
51026W        W22752   8.777  28.354   4.588
51027W        W22753  41.528  22.646  11.681
51028W        W22754  14.847   0.031   4.581
51029W        W22755  17.565  15.287   1.852
51030W        W22756  43.012  28.989   4.235
51031W        W22757  39.926  41.793  11.477
51032W        W22758  17.364  12.306   3.190
51033W        W22759  22.061   2.409   1.511
51034W        W22760  38.546  40.481  12.573
51035W        W22761  14.579  15.794   4.274
51036W        W22762  10.356   8.705   2.757
51037W        W22763  27.510  33.302  13.352
51038W        W22764   0.996  37.520  14.009
51039W        W22765  13.876  23.110   1.771
51040W        W22766  44.784  13.341  10.998
51041W        W22767  19.507  11.621  13.455
51042W        W22768   3.556  12.643  10.750
51043W        W22769  33.855  44.754  11.527
51044W        W22770  29.330   5.830  11.523
51045W        W22771  38.030   1.453   3.711
51046W        W22772  34.897  41.305  10.226
51047W        W22773  20.291  28.652   0.186
51048W        W22774  14.315  16.024   2.767
51049W        W22775   6.798  25.733   3.158
51050W        W22776  12.382  10.758  12.809
51051W        W22777   3.320   6.630  12.012
51052W        W22778   5.683  37.606  11.903
51053W        W22779  17.864  40.515  14.291
51054W        W22780  32.635  10.042  12.374
51055W        W22781  39.757   6.754  11.393
51056W        W22782   2.362  29.903   0.703
51057W        W22783   3.385  44.836   1.945
51058W        W22784  38.779  11.762  12.944
51059W        W22785  29.290  15.905  11.026
51060W        W22786  20.252  19.797   4.630
51061W        W22787   7.950  32.497  10.284
51062W        W22788   9.278  13.780  11.167
51063W        W22789  38.233  12.526   3.403
51064W        W22790  30.505  10.126  13.981
51065W        W22791  19.029  32.420  14.333
51066W        W22792   6.120  36.315   1.749
51067W        W22793  14.271   6.159   2.357
51068W        W22794  22.213  20.995   2.664
51069W        W22795   6.487  26.625   4.228
51070W        W22796  23.972   0.673  12.790
51071W        W22797  10.939  38.444   2.164
51072W        W22798   3.668  44.546   3.191
51073W        W22799  39.387  41.040  14.777
51074W        W22800  42.881  42.343  12.989
51075W        W22801   8.344  43.553   1.419
51076W        W22802   9.923   8.859  11.131
51077W        W22803   7.099  22.233   4.197
51078W        W22804  43.582   6.373   3.671
51079W        W22805  30.776   4.730   4.734
51080W        W22806  10.415  20.087   1.295
51081W        W22807  18.837   8.625  12.865
51082W        W22808   7.433  31.928  14.343
51083W        W22809  18.082  15.893  13.141
51084W        W22810  29.741  14.624  12.404
51085W        W22811  35.419  33.906  13.790
51086W        W22812  17.589  27.084   4.704
51087W        W22813  43.206   0.738  14.857
51088W        W22814   1.282  31.417  11.977
51089W        W22815  16.715  31.321  10.751
51090W        W22816  44.367  23.116  11.138
51091W        W22817  31.531  34.334   2.772
51092W        W22818   7.184  26.135   0.977
51093W        W22819  18.092  40.548   0.479
51094W        W22820  36.118   2.768   3.732
51095W        W22821   3.220   6.849  12.501
51096W        W22822  24.968   2.822  12.335
51097W        W22823  11.247  26.163  11.184
51098W        W22824  27.421  38.867  12.496
51099W        W22825   5.215  26.034  13.796
51100W        W22826  41.365  11.775  13.980
51101W        W22827  12.682  10.874   2.001
51102W        W22828  20.153   1.234  14.034
51103W        W22829  26.259  20.388  13.547
51104W        W22830  29.618  41.028   2.844
51105W        W22831   2.390  38.969  14.584
51106W        W22832  33.875  35.821  11.920
51107W        W22833  27.443  27.802  12.482
51108W        W22834  25.691  18.849   0.792
51109W        W22835  36.288  19.673  14.969
51110W        W22836   7.296  13.901   0.487
51111W        W22837  28.180  10.890  11.624
51112W        W22838  20.176  27.598   0.357
51113W        W22839   1.015  13.580   3.757
51114W        W22840  32.947  41.112  11.004
51115W        W22841  22.641   1.425  14.363
51116W        W22842  35.804  24.777  11.019
51117W        W22843   1.887  36.320   4.566
51118W        W22844  25.772  42.885   4.685
51119W        W22845  18.060  14.514   1.355
51120W        W22846  18.206  38.530  10.978
51121W        W22847  38.205  19.596  11.550
51122W        W22848  35.413   6.378  14.700
51123W        W22849  39.374  16.513   3.706
51124W        W22850  34.522  44.490  12.841
51125W        W22851  26.957  43.923   5.575
51126W        W22852   4.015  20.486  13.933
51127W        W22853  22.468  26.606  11.546
51128W        W22854  17.460  34.730   3.207
51129W        W22855  22.572   4.952  10.611
51130W        W22856  42.017   7.190   3.272
51131W        W22857  24.583   2.459   0.361
51132W        W22858  10.727  42.320   0.934
51133W        W22859  36.055   3.669  13.913
51134W        W22860  39.722  17.139   0.040
51135W        W22861   3.740  25.263   3.491
51136W        W22862  13.050  29.875   2.227
51137W        W22863  29.939   3.926   1.237
51138W        W22864  21.288  31.512  11.117
51139W        W22865  24.134   5.889  14.377
51140W        W22866  28.547  21.762   1.498
51141W        W22867  19.304  40.846   1.959
51142W        W22868  44.255  25.318   1.573
51143W        W22869  10.621   5.366   4.630
51144W        W22870  34.514  40.383  12.401
51145W        W22871  15.105   1.215   4.171
51146W        W22872  17.439  15.325   1.332
51147W        W22873  10.364  35.840   4.799
51148W        W22874  30.352  43.529   3.027
51149W        W22875  29.321  13.643   4.225
51150W        W22876  35.766  28.560  11.186
51151W        W22877  10.951  12.838   3.693
51152W        W22878  42.310  34.984  11.253
51153W        W22879  14.376  24.138  12.026
51154W        W22880   1.691  36.906  14.483
51155W        W22881   9.097  20.921   2.925
51156W        W22882  44.978  14.647  10.767
51157W        W22883  39.213  43.503   2.664
51158W        W22884   3.151   1.278   4.619
51159W        W22885   6.731  37.162  11.078
51160W        W22886   3.288  36.490  10.792
51161W        W22887  41.028   1.494  12.841
51162W        W22888   5.510  19.097   2.142
51163W        W22889   9.251  43.935   4.459
51164W        W22890   8.437  30.357   3.693
51165W        W22891  43.271  25.659  13.108
51166W        W22892  28.566  32.044  13.006
51167W        W22893  38.617  17.245  14.322
51168W        W22894  37.045   0.902   0.307
51169W        W22895   2.006  23.163  11.977
51170W        W22896  25.224   1.823  11.960
51171W        W22897  14.694  40.709  10.180
51172W        W22898  25.378  11.415  14.567
51173W        W22899  35.427  28.517   4.731
51174W        W22900  13.291  22.608  10.727
51175W        W22901  31.592  27.057   2.979
51176W        W22902  33.557  43.951  10.050
51177W        W22903  28.615  19.552   4.973
51178W        W22904  34.140  20.161   4.459
51179W        W22905  14.735   3.224  14.744
51180W        W22906  41.358  35.865  13.864
51181W        W22907  17.708  14.560  12.532
51182W        W22908  12.751  33.332  10.675
51183W        W22909  18.526  28.773  11.062
51184W        W22910  43.799  12.622   2.750
51185W        W22911  29.606  33.071   0.442
51186W        W22912  17.252   9.447  10.714
51187W        W22913  25.461   0.260  11.764
51188W        W22914   9.395  32.528   1.459
51189W        W22915  39.273  19.731   0.148
51190W        W22916  12.919   3.459  14.500
51191W        W22917   2.469  19.222   3.689
51192W        W22918  17.089  38.383  13.521
51193W        W22919  38.848  12.123  12.338
51194W        W22920  11.762  30.571   3.077
51195W        W22921  23.619  33.544  11.203
51196W        W22922  13.969   7.933   0.916
51197W        W22923   4.375  13.772   5.020
51198W        W22924  28.516  35.090  10.726
51199W        W22925  43.228  24.800  12.352
51200W        W22926  11.704  41.298  12.620
51201W        W22927  37.587   1.983  12.181
51202W        W22928   9.659  30.939   1.722
51203W        W22929  38.399  40.028   4.070
51204W        W22930  32.831  11.376   2.764
51205W        W22931  25.076  28.523   4.348
51206W        W22932  27.713  22.818   3.154
51207W        W22933  29.290  26.560   2.685
51208W        W22934  24.452   0.215   0.900
51209W        W22935  41.283  19.697   0.844
51210W        W22936  33.795  19.590   1.415
51211W        W22937  40.583   9.880  14.535
51212W        W22938  23.482  13.292  13.571
51213W        W22939  37.979  38.366  10.927
51214W        W22940  37.514  22.989   4.485
51215W        W22941  41.930  21.596  14.398
51216W        W22942   2.128   6.980  13.027
51217W        W22943   1.658  16.858   4.390
51218W        W22944  29.174  34.574  12.509
51219W        W22945  24.528   4.963  12.993
51220W        W22946  13.781  24.127   3.915
51221W        W22947   6.512  33.875  12.895
51222W        W22948  41.403  12.111  11.674
51223W        W22949  41.281   0.500  10.907
51224W        W22950  41.816  20.815  12.658
51225W        W22951  30.356   7.847   0.140
51226W        W22952   9.411  42.173   2.415
51227W        W22953  29.070  27.921   4.039
51228W        W22954   7.008  40.301  14.723
51229W        W22955  33.946  42.780   9.911
51230W        W22956  43.244   3.566   3.269
51231W        W22957  28.057   4.777  10.620
51232W        W22958  24.720  20.541  14.941
51233W        W22959   5.934  25.487  12.519
51234W        W22960  38.545  26.252   2.164
51235W        W22961  15.181  24.624  13.564
51236W        W22962   8.966   4.754   2.187
51237W        W22963  21.434  23.597   3.319
51238W        W22964  15.836  40.935  11.196
51239W        W22965  13.117   5.693  11.605
51240W        W22966  30.930  26.210  14.100
51241W        W22967  40.107   0.705   3.270
51242W        W22968  27.939  34.301   4.326
51243W        W22969  16.611  21.993  12.033
51244W        W22970  32.254  17.672   1.871
51245W        W22971  24.466   8.821  13.925
51246W        W22972   8.196   6.402  13.752
51247W        W22973  36.404  33.765   4.198
51248W        W22974  34.952   0.814   1.179
51249W        W22975  37.964  28.648  12.384
51250W        W22976  35.354   1.634  11.710
51251W        W22977   7.186   2.916   2.694
51252W        W22978  19.518  31.204  11.402
51253W        W22979  25.791  41.881   0.951
51254W        W22980  29.167  32.408  14.366
51255W        W22981  17.083  31.411  12.053
51256W        W22982  36.572   1.312   1.463
51257W        W22983  20.504  22.303  10.288
51258W        W22984  20.623  11.122   1.709
51259W        W22985   9.940  11.185  12.934
51260W        W22986  16.134  20.043   2.661
51261W        W22987  20.166  32.373   4.187
51262W        W22988  10.815  25.860   0.313
51263W        W22989  27.180   4.555  14.059
51264W        W22990   4.228   7.631   0.825
51265W        W22991  18.940  42.366   4.174
51266W        W22992   7.254  42.262  11.908
51267W        W22993  23.862  43.430   0.841
51268W        W22994  15.215  15.862   0.365
51269W        W22995  20.167  19.700   0.758
51270W        W22996  16.021  10.765  13.994
51271W        W22997  38.908  21.226   3.322
51272W        W22998  41.559  39.973   0.545
51273W        W22999  35.104  25.173  14.305
51274W        W23000  40.244  27.782  13.025
51275W        W23001  15.533  34.089  12.113
51276W        W23002   5.817  37.277   3.267
51277W        W23003  36.112   7.245   4.196
51278W        W23004  10.675  17.761   4.185
51279W        W23005   2.929   5.533  10.839
51280W        W23006  11.199  39.381  13.241
51281W        W23007  21.679   2.694   3.219
51282W        W23008   4.189  12.266   1.267
51283W        W23009  41.769   2.451   3.342
51284W        W23010   5.595  15.692   9.578
51285W        W23011   0.982   3.366   2.284
51286W        W23012   0.852  11.417  13.931
51287W        W23013  11.872  16.115  11.095
51288W        W23014  36.823  13.328  14.798
51289W        W23015  25.055  13.743   4.711
51290W        W23016  15.903  25.082   0.970
51291W        W23017  23.083   3.320  14.874
51292W        W23018  37.346  40.003   2.660
51293W        W23019  25.576   8.487   4.793
51294W        W23020  39.387  10.726  11.930
51295W        W23021  31.004  29.319   1.185
51296W        W23022  32.878  42.906  11.948
51297W        W23023  12.052  42.750  13.942
51298W        W23024  11.142   2.818   0.902
51299W        W23025  14.891  26.484   0.739
51300W        W23026  34.899  24.870   3.083
51301W        W23027  11.253  36.932   1.732
51302W        W23028  17.803  39.977   0.949
51303W        W23029  11.132  33.214  13.588
51304W        W23030   8.665   0.273   1.156
51305W        W23031  22.905  35.867  13.798
51306W        W23032  42.461  19.758  14.025
51307W        W23033   1.960  28.231   1.096
51308W        W23034  19.693  10.345  11.453
51309W        W23035  15.203   9.224   1.227
51310W        W23036  14.598  15.922  11.486
51311W        W23037  42.802  18.946  14.846
51312W        W23038   6.908  28.178   2.568
51313W        W23039  25.788  13.826   4.197
51314W        W23040   4.769   8.681  12.144
51315W        W23041  36.637  37.906  11.530
51316W        W23042  40.993  12.104   4.638
51317W        W23043  16.940   0.928   0.218
51318W        W23044  22.706  37.616  13.253
51319W        W23045  25.219  14.206   3.852
51320W        W23046  39.579  25.280   4.159
51321W        W23047  19.848  42.418   0.795
51322W        W23048   4.226  28.545  13.783
51323W        W23049  16.744  26.555  14.705
51324W        W23050  39.280   5.806  14.898
51325W        W23051  33.371  43.705  11.415
51326W        W23052  21.067  11.331  13.024
51327W        W23053   4.685  17.280   0.686
51328W        W23054   9.817  11.009   4.147
51329W        W23055   6.317  24.544  10.740
51330W        W23056  44.378  19.529  13.974
51331W        W23057  16.789  37.264   3.877
51332W        W23058  39.465  23.239  10.944
51333W        W23059  12.030  43.361  10.256
51334W        W23060  25.190  33.088   4.167
51335W        W23061  20.129  19.739  13.512
51336W        W23062  13.799  38.901  10.446
51337W        W23063  27.734  39.071   4.085
51338W        W23064   1.462  29.553  12.092
51339W        W23065   3.212  24.472  12.414
51340W        W23066   6.854  26.774   2.807
51341W        W23067   2.181  42.259   3.780
51342W        W23068  34.573  18.641   1.889
51343W        W23069  43.839  30.122   3.641
51344W        W23070  35.534  37.924   3.698
51345W        W23071   5.879  18.825  11.580
51346W        W23072   8.425  14.132   1.001
51347W        W23073  34.023  29.582  11.984
51348W        W23074   4.293   7.011   4.180
51349W        W23075  44.492  17.106  12.988
51350W        W23076  32.060  21.663  10.692
51351W        W23077  28.620  17.397   1.035
51352W        W23078  16.521  37.771   1.917
51353W        W23079  20.963  39.203  12.358
51354W        W23080   1.396  15.400   1.930
51355W        W23081  34.899  33.934  13.464
51356W        W23082  33.475  26.546  13.418
51357W        W23083  30.716  15.104  10.526
51358W        W23084  23.142  23.572   2.866
51359W        W23085  36.502  14.293  12.102
51360W        W23086   6.266  43.255  12.464
51361W        W23087  15.647  37.792  14.970
51362W        W23088  19.109   1.217   1.321
51363W        W23089  42.903  23.293  11.063
51364W        W23090  18.281   7.657   0.679
51365W        W23091  11.193   1.031  11.174
51366W        W23092  16.707  22.096  14.544
51367W        W23093  29.705  18.640   3.307
51368W        W23094  30.133  40.791   1.404
51369W        W23095   7.548  22.255  13.919
51370W        W23096   6.361   4.403   9.734
51371W        W23097  38.514  15.741  13.873
51372W        W23098  16.297  31.870   3.325
51373W        W23099  37.090  19.982  12.962
51374W        W23100  15.146  34.912   4.531
51375W        W23101   7.038  21.272   1.925
51376W        W23102  33.423  25.691   4.054
51377W        W23103   5.767   8.843  10.393
51378W        W23104  21.812  14.006   4.146
51379W        W23105  26.434  14.730  13.427
51380W        W23106  21.055  41.012  13.294
51381W        W23107   9.612   4.748  12.066
51382W        W23108   1.488   8.184  10.807
51383W        W23109   1.996  38.510   4.486
51384W        W23110  22.092  10.406   3.515
51385W        W23111  38.034  21.800   4.068
51386W        W23112  34.830  42.731  13.326
51387W        W23113  33.823  13.297   2.940
51388W        W23114  28.627   2.787  13.533
51389W        W23115  33.640  26.774  14.936
51390W        W23116  37.589  12.753  11.249
51391W        W23117  20.784  21.714  12.483
51392W        W23118  34.002  33.074   2.311
51393W        W23119  39.117   4.935  10.167
51394W        W23120   7.668  13.471  11.587
51395W        W23121  20.090  22.704  11.873
51396W        W23122  39.977  32.131   3.744
51397W        W23123  17.948   1.294  12.637
51398W        W23124  28.054  21.781   1.254
51399W        W23125   8.749  16.267   2.798
51400W        W23126  34.464  15.321   0.405
51401W        W23127   8.266  17.257   0.436
51402W        W23128  30.833  17.253   1.840
51403W        W23129  33.408  29.647   5.046
51404W        W23130  35.294  43.060  11.318
51405W        W23131   9.122  35.637  10.484
51406W        W23132  30.440  34.768   4.053
51407W        W23133   9.143   4.365  11.491
51408W        W23134  17.599  23.555   0.812
51409W        W23135  12.502   0.311  11.144
51410W        W23136   6.338  39.940   0.473
51411W        W23137  38.355   3.767   4.536
51412W        W23138  40.883  14.166  11.218
51413W        W23139  30.505  31.257  14.721
51414W        W23140  31.303  39.356   3.289
51415W        W23141  38.425   2.588   2.366
51416W        W23142  13.288  36.970  12.936
51417W        W23143  24.667  38.070  10.994
51418W        W23144  11.879  39.620  12.544
51419W        W23145  15.611  35.127  11.591
51420W        W23146  34.962  28.340   5.103
51421W        W23147  12.443   4.364  14.432
51422W        W23148  15.337  41.087   2.179
51423W        W23149  39.596  42.246  14.861
51424W        W23150  17.254  33.421   0.916
51425W        W23151  28.173  30.916   2.303
51426W        W23152  33.135   9.905  12.520
51427W        W23153  31.560  17.359  13.511
51428W        W23154  35.368   3.207   0.438
51429W        W23155   5.056  26.671   2.758
51430W        W23156  21.365  43.742  11.433
51431W        W23157  33.335  44.960   1.279
51432W        W23158   9.917  25.632   3.548
51433W        W23159   2.940   2.196   2.524
51434W        W23160   3.613  23.980   3.120
51435W        W23161   6.741  40.054   2.211
51436W        W23162  12.299   3.491  14.812
51437W        W23163  30.206  42.724  13.109
51438W        W23164  39.608  14.001  11.070
51439W        W23165   7.287  28.433   0.064
51440W        W23166  40.380   5.684   0.322
51441W        W23167  28.013  20.691  13.812
51442W        W23168   4.785  11.300   0.232
51443W        W23169  14.224  22.926  14.793
51444W        W23170  35.968  15.500  14.260
51445W        W23171  28.676  18.958  12.374
51446W        W23172  27.616  19.094   3.222
51447W        W23173  20.768  38.572  12.424
51448W        W23174  22.118  27.224   3.199
51449W        W23175  11.947  35.877   2.613
51450W        W23176  22.732  37.056  14.797
51451W        W23177  38.400  42.733  14.367
51452W        W23178  28.938  17.044   1.268
51453W        W23179  12.443   4.247  10.798
51454W        W23180  17.239  38.037   0.606
51455W        W23181   8.352  15.791  14.008
51456W        W23182  38.513  41.290   5.088
51457W        W23183  20.554  15.589   3.692
51458W        W23184  21.988  41.006  11.081
51459W        W23185  34.309   7.621   1.934
51460W        W23186   7.277  36.855  11.087
51461W        W23187  21.614  37.258   0.778
51462W        W23188  30.546   6.170   1.474
51463W        W23189   0.702   8.827  11.958
51464W        W23190   4.861  25.026   1.246
51465W        W23191   2.361  22.010   0.074
51466W        W23192  30.299   4.904   3.724
51467W        W23193  17.386  34.038  14.956
51468W        W23194  20.177  27.606  11.247
51469W        W23195  17.172  25.539  10.932
51470W        W23196  34.506  21.591  13.340
51471W        W23197  21.664  27.463  14.393
51472W        W23198  26.445   3.990  11.521
51473W        W23199  16.369  21.529   2.261
51474W        W23200  15.322   0.706  11.049
51475W        W23201  31.436  27.329   1.682
51476W        W23202  34.638  15.809   0.392
51477W        W23203  10.585  15.268   4.845
51478W        W23204  28.610  12.646   3.767
51479W        W23205  26.930  16.176  13.594
51480W        W23206  40.297  17.827   2.792
51481W        W23207  24.398  34.399  14.276
51482W        W23208  41.298  33.047   2.324
51483W        W23209  34.659  33.912  12.960
51484W        W23210  27.013  41.402   4.320
51485W        W23211  11.611  12.288  12.158
51486W        W23212  26.640  11.800  13.419
51487W        W23213   9.464  33.949  14.922
51488W        W23214  16.077  42.903  13.352
51489W        W23215  30.966   2.793   0.206
51490W        W23216  26.598   4.476  11.562
51491W        W23217  13.722  13.173   3.759
51492W        W23218   3.953  44.075  13.306
51493W        W23219  16.828   9.852  13.519
51494W        W23220  18.681   9.941  13.463
51495W        W23221  23.513  13.863  11.399
51496W        W23222  44.798   5.282   4.737
51497W        W23223  18.939  18.588  13.881
51498W        W23224  29.942   0.730   5.159
51499W        W23225  30.652  35.330  11.046
51500W        W23226  19.591  15.569  13.362
51501W        W23227  44.048  15.740  10.180
51502W        W23228   3.858  32.610  12.373
51503W        W23229  22.296   4.229  13.133
51504W        W23230  11.141  26.529   1.941
51505W        W23231  27.643  32.165   3.417
51506W        W23232  21.219  24.639   3.358
51507W        W23233  10.129  35.514   0.961
51508W        W23234  22.856  16.570   4.128
51509W        W23235  21.522  36.466   4.219
51510W        W23236   8.977   4.772  10.628
51511W        W23237   6.213  34.619  13.388
51512W        W23238  13.131  32.901   3.201
51513W        W23239  11.854   3.739  10.820
51514W        W23240  34.578   4.619   2.688
51515W        W23241   5.751  43.116   1.592
51516W        W23242  25.455  10.442  11.125
51517W        W23243  10.608   6.256  10.705
51518W        W23244  16.775   1.815  11.599
51519W        W23245  36.057  44.780   4.400
51520W        W23246   0.302  30.462  12.592
51521W        W23247  12.333  22.126  12.946
51522W        W23248   8.099  41.838   3.679
51523W        W23249  22.920  38.210  10.876
51524W        W23250  37.303  30.204  10.019
51525W        W23251  38.831  29.016  13.855
51526W        W23252  24.547   9.177   1.071
51527W        W23253  18.838  28.506   4.953
51528W        W23254  15.626  16.242   1.883
51529W        W23255   5.847  10.810   0.904
51530W        W23256  27.905  26.695  13.838
51531W        W23257  12.372  42.367   4.706
51532W        W23258   0.128  30.381  14.442
51533W        W23259  11.227  28.831  12.768
51534W        W23260   5.916  28.973   0.278
51535W        W23261  31.196  23.496   4.204
51536W        W23262  13.250  44.228  13.906
51537W        W23263  43.359   9.721  14.166
51538W        W23264  44.149  36.846  11.109
51539W        W23265   6.789  23.974   4.668
51540W        W23266   3.437  33.021   4.791
51541W        W23267  20.971   0.115   4.940
51542W        W23268  10.249  12.153   1.274
51543W        W23269  39.487  27.952  13.392
51544W        W23270  20.293  17.977  12.608
51545W        W23271  41.489   3.777  12.417
51546W        W23272  33.003  25.061  10.172
51547W        W23273   2.678  43.730  12.010
51548W        W23274  27.642  23.794   0.682
51549W        W23275  36.919  25.686  12.065
51550W        W23276  31.083  19.128   0.403
51551W        W23277   1.984  25.270  14.506
51552W        W23278   1.606   0.274  14.356
51553W        W23279  23.640  10.544   2.637
51554W        W23280  20.765  44.764   1.509
51555W        W23281  10.732  41.873  14.038
51556W        W23282  14.187  13.831   0.501
51557W        W23283  16.812  41.774  14.873
51558W        W23284  17.561  28.945   1.365
51559W        W23285  42.847  12.330  11.492
51560W        W23286  42.727   5.890  14.841
51561W        W23287  41.846   5.457   0.298
51562W        W23288  35.249   6.122  12.443
51563W        W23289  26.108  10.819  13.129
51564W        W23290  29.936  42.896  13.546
51565W        W23291  29.052  42.817   2.433
51566W        W23292  14.202  34.086  14.498
51567W        W23293  19.225  22.237  12.933
51568W        W23294  31.693  35.589  13.372
51569W        W23295  44.353  37.486  13.460
51570W        W23296   0.920  19.815   3.092
51571W        W23297  17.586  22.560  10.749
51572W        W23298   5.210  40.868  13.483
51573W        W23299  32.862   2.319   1.846
51574W        W23300  26.191  19.500   4.080
51575W        W23301  21.497  30.160  11.171
51576W        W23302  43.528  21.180   4.176
51577W        W23303  22.192   1.328   2.234
51578W        W23304   0.690   4.219  13.886
51579W        W23305  14.403   6.914  10.501
51580W        W23306  38.277  28.685  11.459
51581W        W23307   5.491  25.990   4.812
51582W        W23308  26.308  14.223  13.704
51583W        W23309  36.546  26.118  10.887
51584W        W23310  28.640   3.731  14.590
51585W        W23311  26.534  21.763   1.199
51586W        W23312  32.114  32.632   0.722
51587W        W23313  11.105  12.830   4.195
51588W        W23314  36.890  20.968  13.014
51589W        W23315  18.714  33.562   3.618
51590W        W23316  42.719  31.692  13.023
51591W        W23317   1.111  37.983  11.497
51592W        W23318  18.078  27.761   4.115
51593W        W23319   1.937  25.278   0.021
51594W        W23320  24.624  24.577  12.416
51595W        W23321  11.088  42.248  11.910
51596W        W23322  39.358  31.072  11.922
51597W        W23323  24.709  27.419  12.363
51598W        W23324  30.439  44.779  13.524
51599W        W23325  41.859  30.056   1.266
51600W        W23326  16.980   8.675  13.134
51601W        W23327  12.620  41.904  11.095
51602W        W23328  32.356  38.789  12.295
51603W        W23329  33.460  15.786  10.746
51604W        W23330  24.661  38.516  12.541
51605W        W23331  23.397   0.665  12.778
51606W        W23332  23.188  17.104   1.299
51607W        W23333  14.725  33.981  14.325
51608W        W23334   0.975  22.945  12.029
51609W        W23335  40.748  30.433   3.703
51610W        W23336  42.073   5.614   2.111
51611W        W23337   3.249  15.096   3.644
51612W        W23338   3.938   7.196  12.813
51613W        W23339  31.345  26.054  10.291
51614W        W23340  15.250   9.202  13.202
51615W        W23341  25.854  34.451  13.824
51616W        W23342   5.343  17.911   0.878
51617W        W23343  23.220  13.309   1.453
51618W        W23344  37.810  17.031  14.571
51619W        W23345  17.884  34.529  10.463
51620W        W23346  20.493  27.234  12.554
51621W        W23347  43.616  29.469  13.480
51622W        W23348  12.743  24.776  14.830
51623W        W23349  26.934  28.931   2.410
51624W        W23350  34.875  12.785  11.938
51625W        W23351   0.378  20.831  13.368
51626W        W23352  19.993  30.576   3.363
51627W        W23353  26.369  30.978   1.166
51628W        W23354  37.772   4.939  12.106
51629W        W23355  17.750  44.554   1.027
51630W        W23356  15.650  26.194   2.671
51631W        W23357  34.833   3.768   0.843
51632W        W23358  31.651  13.851   4.608
51633W        W23359  22.639  39.886   1.775
51634W        W23360  20.977  12.638   1.360
51635W        W23361   1.553   3.504  13.807
51636W        W23362  44.763  33.449   0.457
51637W        W23363  14.089  10.399   3.882
51638W        W23364   2.353  17.173  11.645
51639W        W23365  34.573  21.083  11.073
51640W        W23366  20.773   3.271  11.054
51641W        W23367  29.549  43.957  11.951
51642W        W23368  20.644  43.545  12.091
51643W        W23369   5.477  39.496  12.849
51644W        W23370  14.748  14.602  10.942
51645W        W23371  38.591  27.053  11.055
51646W        W23372  18.098  18.509   0.921
51647W        W23373  30.634  42.045   1.095
51648W        W23374  39.504   0.805   4.052
51649W        W23375  40.604  39.389  13.264
51650W        W23376  37.900   9.258  11.920
51651W        W23377   7.504  42.447  12.365
51652W        W23378  22.718  35.154  10.078
51653W        W23379  38.966  38.282   0.213
51654W        W23380   8.872  19.406  14.776
51655W        W23381  23.947   9.788   1.418
51656W        W23382  31.517  35.643   4.570
51657W        W23383  21.497  22.222   2.705
51658W        W23384  40.379  18.261  12.913
51659W        W23385  42.530  22.745  11.405
51660W        W23386   8.755  10.729   3.798
51661W        W23387  31.868  14.152  12.013
51662W        W23388  13.004  35.598   2.090
51663W        W23389  39.802  37.508  10.516
51664W        W23390  31.033  43.221  11.167
51665W        W23391  21.818  22.068   1.370
51666W        W23392  40.568   8.387   0.956
51667W        W23393   0.328  29.994  11.528
51668W        W23394  31.143  34.129   0.287
51669W        W23395  18.660  14.363  11.789
51670W        W23396   1.303  12.821   1.794
51671W        W23397  43.282  39.659  13.504
51672W        W23398  29.587  31.593   0.334
51673W        W23399  24.559   0.755   0.790
51674W        W23400  14.239  41.984   0.519
51675W        W23401  38.348   7.244  13.712
51676W        W23402  39.299  20.934   0.072
51677W        W23403  32.942  22.988   2.805
51678W        W23404  13.333  40.294   0.399
51679W        W23405  27.689   5.508   3.332
51680W        W23406  27.909  17.529  11.533
51681W        W23407   1.289   0.277  12.099
51682W        W23408  38.826  40.776   3.776
51683W        W23409  37.869  18.235   1.457
51684W        W23410  11.134   4.733  13.037
51685W        W23411  32.321  39.412   1.817
51686W        W23412  35.074  11.909   1.735
51687W        W23413  41.923   3.248   3.076
51688W        W23414   5.584  37.812   2.458
51689W        W23415  10.351  35.933  11.243
51690W        W23416  28.545   9.194  10.678
51691W        W23417  33.515  29.046   3.249
51692W        W23418  19.637   5.473  12.943
51693W        W23419   1.656  37.283   3.268
51694W        W23420  24.017  11.211   3.524
51695W        W23421  39.107   9.389   2.646
51696W        W23422  28.514  31.110   2.701
51697W        W23423  17.699  37.499   3.899
51698W        W23424   4.837   4.062  12.237
51699W        W23425  21.201  19.816  14.324
51700W        W23426   3.914   0.227  12.489
51701W        W23427  29.807  36.898   3.778
51702W        W23428  10.621   0.220  14.444
51703W        W23429  35.964  22.004   4.777
51704W        W23430  32.859  29.848  12.646
51705W        W23431  15.088  23.984   3.317
51706W        W23432  16.511  31.662   4.243
51707W        W23433  33.476  12.240  10.379
51708W        W23434  38.840   1.841   4.769
51709W        W23435  42.239  37.014  11.652
51710W        W23436   0.734  17.860  11.209
51711W        W23437   4.805  17.791   4.419
51712W        W23438  23.662  33.127   2.659
51713W        W23439  42.385  43.861  13.370
51714W        W23440  13.079  15.345   0.021
51715W        W23441  23.775  23.252   1.792
51716W        W23442   1.796  34.615  11.878
51717W        W23443  43.752  12.704  14.791
51718W        W23444  30.020  26.037   3.136
51719W        W23445  26.382  12.399   1.506
51720W        W23446  39.281  21.743  11.105
51721W        W23447  34.173  33.389   4.197
51722W        W23448  30.242   4.031   0.836
51723W        W23449  24.521  37.784  11.924
51724W        W23450  28.603  31.971  11.145
51725W        W23451  28.718  28.172  13.067
51726W        W23452  14.749  24.096  13.104
51727W        W23453   5.434  12.804   0.379
51728W        W23454  11.382  13.635   0.861
51729W        W23455  12.649   8.243   3.703
51730W        W23456  20.801   1.019  11.190
51731W        W23457  42.774  11.320   2.305
51732W        W23458  27.580  19.160  12.442
51733W        W23459   9.743  39.756   0.777
51734W        W23460  14.836  41.371   5.329
51735W        W23461  41.846  27.606  11.509
51736W        W23462  33.965  31.871  12.487
51737W        W23463  31.607  14.688  12.523
51738W        W23464  13.085  40.503   3.561
51739W        W23465  36.144   1.570  11.608
51740W        W23466  32.142   2.889  14.077
51741W        W23467  16.674  22.291   0.066
51742W        W23468  36.541  27.426   3.612
51743W        W23469  17.213  10.557   2.366
51744W        W23470  22.050  37.870   0.478
51745W        W23471   3.341  41.364   0.456
51746W        W23472  10.088  25.217   5.224
51747W        W23473  16.697  41.402  14.534
51748W        W23474  35.627  39.865  13.851
51749W        W23475  29.515   6.294   2.237
51750W        W23476  18.650  12.342   2.292
51751W        W23477  31.452  36.295   4.852
51752W        W23478  37.866  39.472   3.764
51753W        W23479  31.827  33.371   2.794
51754W        W23480  32.740  40.804   5.171
51755W        W23481  34.136  24.379  13.074
51756W        W23482  22.328  29.980  10.888
51757W        W23483  40.604  42.922  12.593
51758W        W23484  40.303  13.786   4.177
51759W        W23485   7.271  30.420   2.585
51760W        W23486  41.518   9.710   1.026
51761W        W23487  12.670  43.035   1.263
51762W        W23488  18.528  33.412  13.035
51763W        W23489   9.756   3.107   0.843
51764W        W23490  14.336  42.103   3.767
51765W        W23491   5.880   6.450  12.732
51766W        W23492  20.478  22.688   3.104
51767W        W23493  27.060  43.210  11.084
51768W        W23494  34.625  15.616  12.042
51769W        W23495  28.493  26.370  12.399
51770W        W23496  30.944   0.464   0.800
51771W        W23497  10.135  21.754  13.139
51772W        W23498  33.906  19.107   1.485
51773W        W23499   7.992   4.266   3.868
51774W        W23500  17.726  39.059  14.479
51775W        W23501   6.457  38.072  10.749
51776W        W23502   7.272  37.569  14.274
51777W        W23503  39.756  34.507   0.022
51778W        W23504   5.323  16.369  13.320
51779W        W23505  13.896   4.304  14.445
51780W        W23506  42.037   1.439   0.737
51781W        W23507   3.938  42.491  11.701
51782W        W23508  29.515  44.086  14.881
51783W        W23509  22.512  27.950   5.361
51784W        W23510  20.833  10.183   5.085
51785W        W23511   8.393  19.621   3.316
51786W        W23512   1.356   0.528  13.899
51787W        W23513  29.668   1.679   1.211
51788W        W23514  17.792  36.085  13.546
51789W        W23515   7.446  39.433  11.035
51790W        W23516  38.096   7.871  10.782
51791W        W23517  42.581  24.679  11.147
51792W        W23518  36.089  37.110  12.626
51793W        W23519   3.615  22.222   3.689
51794W        W23520  31.444  29.940  13.843
51795W        W23521   9.088  21.681  10.906
51796W        W23522  21.503  33.353  12.599
51797W        W23523  40.999  40.929   4.205
51798W        W23524  19.055  21.652  13.161
51799W        W23525   5.136   9.681  14.871
51800W        W23526  12.403  29.631  12.845
51801W        W23527   9.174   1.724   2.327
51802W        W23528  11.828  34.087   4.077
51803W        W23529  11.861  34.468  12.903
51804W        W23530   2.349  27.400   2.876
51805W        W23531  37.421  33.425   1.962
51806W        W23532  15.712  40.980   5.072
51807W        W23533  42.399  28.711  14.914
51808W        W23534   6.875   3.991   2.674
51809W        W23535  43.958  44.430  14.866
51810W        W23536  34.347  39.892  11.219
51811W        W23537  33.094  18.233  12.971
51812W        W23538  20.941  31.675  12.807
51813W        W23539   7.709  25.588   0.882
51814W        W23540  15.039  11.278   3.293
51815W        W23541  13.311  38.609   3.789
51816W        W23542  11.715  35.664   1.845
51817W        W23543  23.718  36.441   0.991
51818W        W23544  31.045  28.672   4.093
51819W        W23545  23.036  37.074  13.347
51820W        W23546  41.069  26.712   0.596
51821W        W23547   5.765   7.862   1.973
51822W        W23548   8.653   7.958   3.462
51823W        W23549   9.902  33.526  12.899
51824W        W23550   7.410  44.818  11.229
51825W        W23551  12.537  18.474  14.702
51826W        W23552  34.060  30.413  14.726
51827W        W23553   1.461  31.605   3.279
51828W        W23554   1.751  14.941   5.013
51829W        W23555   7.124   2.299   1.341
51830W        W23556  13.384  40.088  13.398
51831W        W23557  28.131   8.230   4.799
51832W        W23558  40.782  19.731   0.918
51833W        W23559  33.965  35.811  11.003
51834W        W23560   3.525  16.117  11.545
51835W        W23561  27.242  37.011   4.182
51836W        W23562   4.904  29.475   2.714
51837W        W23563  35.327  16.708   4.621
51838W        W23564  37.868  12.439   1.245
51839W        W23565  42.435  10.868  12.486
51840W        W23566  31.258   4.238   0.920
51841W        W23567  12.423  20.412   0.268
51842W        W23568  27.186  22.786   2.846
51843W        W23569  22.691  25.282  11.043
51844W        W23570  17.709  44.894   4.389
51845W        W23571  31.136   6.133   3.660
51846W        W23572  11.537   7.234  14.247
51847W        W23573  30.396  36.594  14.424
51848W        W23574  10.126   7.278  12.417
51849W        W23575  15.841  19.598   3.217
51850W        W23576   8.578  13.339   5.002
51851W        W23577  10.139  27.661  12.007
51852W        W23578  16.608  26.000   2.754
51853W        W23579  23.610  12.136   1.064
51854W        W23580  35.573  19.749   1.963
51855W        W23581   2.795  22.221  11.055
51856W        W23582  21.428  16.474  11.609
51857W        W23583  36.401  13.621   2.366
51858W        W23584   5.389  17.202   3.263
51859W        W23585   6.215  25.459   4.735
51860W        W23586  31.522   9.391   0.630
51861W        W23587   5.925  15.606  10.531
51862W        W23588  26.879   7.394   2.826
51863W        W23589  30.842  14.359   3.913
51864W        W23590  34.550   5.317  12.551
51865W        W23591  43.879  38.339  13.411
51866W        W23592  28.114  20.128  13.699
51867W        W23593   2.503   1.755   5.134
51868W        W23594  10.318  28.425   0.282
51869W        W23595  37.116  33.729  14.034
51870W        W23596  20.230   1.824   2.812
51871W        W23597  40.048   8.109   4.537
51872W        W23598  39.994  23.614  13.391
51873W        W23599  31.203  11.385   1.301
51874W        W23600  18.021  34.876  13.936
51875W        W23601   6.258  17.386  14.040
51876W        W23602  34.495  39.077  12.358
51877W        W23603  41.404   6.797   3.878
51878W        W23604  15.557   4.394  10.277
51879W        W23605  23.590  22.003   2.434
51880W        W23606  26.742  12.354   4.170
51881W        W23607  27.691  25.815  11.614
51882W        W23608  15.758  29.509   3.337
51883W        W23609  25.563  42.843   2.843
51884W        W23610  19.709  20.653   4.666
51885W        W23611   1.111   9.908   0.775
51886W        W23612  14.113  39.136  10.768
51887W        W23613  30.646  40.506  13.385
51888W        W23614  24.291  36.655  12.796
51889W        W23615  24.526  35.182  11.159
51890W        W23616  41.883   2.459  12.538
51891W        W23617  25.559  17.292   3.730
51892W        W23618  30.579   7.407  12.614
51893W        W23619   9.696  20.098   2.233
51894W        W23620   4.341  23.641  13.353
51895W        W23621  32.479   3.296  14.026
51896W        W23622  25.139   6.709   4.373
51897W        W23623  14.611  28.922  10.479
51898W        W23624  26.478  35.767   3.306
51899W        W23625  34.932   9.560  11.715
51900W        W23626  19.518  28.745  11.140
51901W        W23627   4.377   2.821   1.647
51902W        W23628  17.594  20.192   4.095
51903W        W23629  36.106  18.492  11.606
51904W        W23630   9.234  13.403   1.815
51905W        W23631  31.049  14.231  13.879
51906W        W23632  18.033  23.551   2.245
51907W        W23633  41.481   1.445   4.301
51908W        W23634   7.709  39.253   3.693
51909W        W23635   2.740  28.381  11.727
51910W        W23636  24.999  35.601   4.447
51911W        W23637  20.547  44.440  14.934
51912W        W23638  19.121  20.178   2.610
51913W        W23639  40.143  17.118  13.682
51914W        W23640  28.535   5.680   3.461
51915W        W23641  11.353  23.166   2.224
51916W        W23642  37.862  15.648   4.318
51917W        W23643   0.371  37.819   2.079
51918W        W23644   5.998   3.905   4.627
51919W        W23645  31.526  35.828   0.571
51920W        W23646  25.320   1.383  13.436
51921W        W23647  40.324  32.896   1.289
51922W        W23648  37.372  10.142   3.799
51923W        W23649   0.477  44.387  10.921
51924W        W23650  26.394  43.432  13.184
51925W        W23651   2.625  15.386  12.157
51926W        W23652  13.376  34.496   1.644
51927W        W23653  38.737  32.713  13.361
51928W        W23654   2.240  26.162   3.144
51929W        W23655  28.579  12.262   4.356
51930W        W23656   2.779   8.215   3.596
51931W        W23657  38.991  30.076  11.261
51932W        W23658  43.946  37.027   2.271
51933W        W23659  23.056   4.692  12.441
51934W        W23660   9.081  28.029  13.474
51935W        W23661  42.795   1.543  11.828
51936W        W23662  36.622  13.768   2.833
51937W        W23663   5.697   5.932  10.567
51938W        W23664  12.876   0.772   0.475
51939W        W23665  31.043  42.857  14.317
51940W        W23666   8.851   2.864   3.003
51941W        W23667  32.591  24.156  12.701
51942W        W23668  22.973  15.878  12.496
51943W        W23669  37.858  42.394  12.345
51944W        W23670   9.784   3.336   1.337
51945W        W23671  31.651  33.223   3.435
51946W        W23672  15.830  27.526  11.477
51947W        W23673  13.598  21.663  11.712
51948W        W23674  22.652  18.444  10.744
51949W        W23675  40.311  44.230  12.858
51950W        W23676  15.761  35.697   5.105
51951W        W23677  10.073  14.139  14.026
51952W        W23678  29.741  25.241  10.216
51953W        W23679  37.582  25.898   1.940
51954W        W23680  25.673  28.454  12.385
51955W        W23681  15.208  32.752  12.076
51956W        W23682  44.849  42.402  12.475
51957W        W23683   4.691  22.596  11.901
51958W        W23684   1.371  24.801   3.208
51959W        W23685  22.467  40.897  13.820
51960W        W23686  28.317  41.924  10.534
51961W        W23687  29.936  15.371   4.120
51962W        W23688  29.788  21.231  12.878
51963W        W23689   1.328  44.025   2.987
51964W        W23690   8.346   3.312  11.165
51965W        W23691  34.507  31.908   4.617
51966W        W23692  14.175   2.534  14.887
51967W        W23693   7.177  42.451  10.421
51968W        W23694  40.015  25.129   1.937
51969W        W23695   7.772  15.719   5.659
51970W        W23696   5.772  40.494  11.584
51971W        W23697  12.866  37.637   3.183
51972W        W23698  41.549  23.962  11.563
51973W        W23699  37.995  27.939  14.479
51974W        W23700   1.867  18.813   1.635
51975W        W23701  17.243   0.426  14.301
51976W        W23702  23.261  23.642   3.359
51977W        W23703  31.375   2.186  12.767
51978W        W23704   1.631   9.245  13.073
51979W        W23705  17.088  21.063   0.986
51980W        W23706   6.147  32.595  11.151
51981W        W23707  10.275   4.956   2.647
51982W        W23708  38.003  16.063  14.711
51983W        W23709  18.475  11.523   2.822
51984W        W23710   7.862  35.290   3.597
51985W        W23711  30.082  14.424   0.498
51986W        W23712  40.028  41.282  13.456
51987W        W23713  25.546  21.064  14.658
51988W        W23714  32.479  26.057  11.720
51989W        W23715   8.890  40.965   4.455
51990W        W23716  44.044  24.584   3.596
51991W        W23717  39.485   0.255   2.329
51992W        W23718  21.670  30.491   3.233
51993W        W23719  19.512   1.560  13.519
51994W        W23720   8.222  44.492  10.729
51995W        W23721  38.317   9.674   3.549
51996W        W23722  35.615  38.124   0.777
51997W        W23723  18.513  27.216  11.756
51998W        W23724  44.749   8.617  12.141
51999W        W23725   2.766  17.221  11.331
52000W        W23726  14.342  44.465  12.514
52001W        W23727  17.805  32.762  14.886
52002W        W23728  13.287   9.316   4.770
52003W        W23729  21.541  23.931   4.122
52004W        W23730  33.878  42.449  12.571
52005W        W23731   7.103   3.906   1.802
52006W        W23732  25.219   6.465   0.678
52007W        W23733  44.055  33.688  11.497
52008W        W23734  21.518  10.808   1.303
52009W        W23735  25.758  15.799   3.335
52010W        W23736  16.763  14.802  11.763
52011W        W23737   9.100   2.383  12.114
52012W        W23738  13.781  13.152  11.175
52013W        W23739  25.682  15.883   4.202
52014W        W23740  12.927   4.922   4.717
52015W        W23741  31.491  20.853   0.455
52016W        W23742   5.315  34.439  10.660
52017W        W23743  25.644  37.948   3.329
52018W        W23744  19.045  30.731  13.909
52019W        W23745  26.770  23.703   3.316
52020W        W23746  24.150  30.556   2.304
52021W        W23747  44.467  23.887   2.834
52022W        W23748  14.212  44.969  11.619
52023W        W23749  15.865  40.332  12.399
52024W        W23750  28.821  12.521   0.209
52025W        W23751   4.918  12.021   1.577
52026W        W23752  44.004   4.856  10.739
52027W        W23753  17.250  31.105  14.863
52028W        W23754  34.458   6.784   1.105
52029W        W23755  25.990  36.359   4.676
52030W        W23756  37.238   7.720   0.824
52031W        W23757  17.048  41.514  12.876
52032W        W23758  21.598  15.412  14.337
52033W        W23759  38.159   1.524   3.162
52034W        W23760  19.691   2.303   2.174
52035W        W23761  41.045  35.861   2.888
52036W        W23762  29.716  25.582   1.454
52037W        W23763  17.698  10.651  14.564
52038W        W23764  18.073  13.698  14.037
52039W        W23765  37.017  11.680   0.876
52040W        W23766  27.287  15.890  12.086
52041W        W23767  43.515  31.368   3.214
52042W        W23768   0.844  19.596   5.117
52043W        W23769  29.513  20.946  14.299
52044W        W23770  10.786  18.177   0.373
52045W        W23771  29.869   2.069   1.548
52046W        W23772  37.037   3.388   2.760
52047W        W23773   0.715  44.895   2.774
52048W        W23774  32.143   4.763   2.594
52049W        W23775  41.466  41.546   4.324
52050W        W23776   1.886   9.883   1.943
52051W        W23777  14.832  30.847   1.694
52052W        W23778  35.364  42.003   2.692
52053W        W23779  21.829   3.947   1.759
52054W        W23780  26.125  21.191  12.460
52055W        W23781   6.497  34.849  14.307
52056W        W23782  11.194  21.220   0.338
52057W        W23783  32.459  25.625   4.303
52058W        W23784  29.999  12.800   0.657
52059W        W23785   0.272  25.268  12.127
52060W        W23786  38.522  31.361   3.687
52061W        W23787  26.927  38.443  14.382
52062W        W23788  41.127  43.596  12.836
52063W        W23789   6.001  24.965  12.586
52064W        W23790  24.714  15.825  13.024
52065W        W23791  18.686  16.556  14.217
52066W        W23792  22.267   7.242  11.143
52067W        W23793  28.579   9.179  12.661
52068W        W23794  10.627  19.601   2.184
52069W        W23795  44.194   4.766  12.031
52070W        W23796   0.327  14.235   0.516
52071W        W23797   7.247   5.095   0.050
52072W        W23798   6.486   4.793   4.627
52073W        W23799  20.952  13.949   3.769
52074W        W23800   3.313  18.835  14.082
52075W        W23801  27.098  42.604  14.315
52076W        W23802  32.452  10.165   1.440
52077W        W23803   7.229   0.906   1.659
52078W        W23804  33.514  42.976  14.840
52079W        W23805  42.639  39.218   5.047
52080W        W23806  13.121  13.662   2.359
52081W        W23807  32.115  30.647   4.194
52082W        W23808   6.766  42.453  11.820
52083W        W23809  19.030  18.031   1.990
52084W        W23810  32.976  20.118   4.338
52085W        W23811  12.892   0.756   1.778
52086W        W23812  13.184  21.174  13.278
52087W        W23813   1.339   7.491  13.114
52088W        W23814  42.271  31.972  13.295
52089W        W23815  38.411   0.210   4.332
52090W        W23816  23.218  33.579  14.785
52091W        W23817  42.463  23.579  11.603
52092W        W23818  34.564  22.562   3.648
52093W        W23819   4.555  11.213   2.338
52094W        W23820  21.696   8.872   5.208
52095W        W23821  18.316   3.379  14.969
52096W        W23822  29.192  14.378  14.456
52097W        W23823   6.213   5.430   3.243
52098W        W23824  29.960  12.795   3.298
52099W        W23825  39.280  13.912   0.909
52100W        W23826  11.641   2.189   1.340
52101W        W23827  24.214  38.738  10.360
52102W        W23828  29.355  20.183  14.947
52103W        W23829  34.929  37.697  11.341
52104W        W23830  11.549  39.535   0.118
52105W        W23831  18.602  21.123  14.891
52106W        W23832  40.276  29.525  12.921
52107W        W23833  16.844  29.988   0.950
52108W        W23834   2.248  29.082   2.827
52109W        W23835  15.015   1.318   3.107
52110W        W23836   7.402  15.851   4.726
52111W        W23837  39.538  32.405   3.461
52112W        W23838  20.707  17.308   2.959
52113W        W23839  16.866  39.111  12.049
52114W        W23840  44.374  33.373   1.740
52115W        W23841  43.837  43.628  14.047
52116W        W23842   2.357  30.696  10.949
52117W        W23843  26.543  20.291  11.451
52118W        W23844  31.564  21.029  13.020
52119W        W23845  43.058  16.553  10.934
52120W        W23846   0.480  14.677   0.294
52121W        W23847  36.603  30.015  14.495
52122W        W23848   5.938   4.454  13.366
52123W        W23849  43.563  12.640   1.372
52124W        W23850  37.602   9.454   0.494
52125W        W23851  25.694  32.164   0.954
52126W        W23852   5.827  40.569   3.227
52127W        W23853  43.369  24.659   2.729
52128W        W23854   9.841  30.530  10.755
52129W        W23855  44.248   1.363   3.544
52130W        W23856  14.586   7.418  14.076
52131W        W23857   8.562  11.021  10.336
52132W        W23858  24.911  31.044   1.025
52133W        W23859  32.604  32.478  11.519
52134W        W23860   9.793   3.198  14.887
52135W        W23861  17.048   1.866  10.320
52136W        W23862  21.553   5.222  14.898
52137W        W23863  29.295  40.807   3.803
52138W        W23864  26.642  16.389   1.692
52139W        W23865   2.366  37.353   0.966
52140W        W23866  12.963  35.707  11.598
52141W        W23867  30.659  19.239  13.518
52142W        W23868   2.845   3.321   1.990
52143W        W23869  39.545  33.659   0.332
52144W        W23870  22.821  21.923   1.333
52145W        W23871  37.854  14.870  10.636
52146W        W23872  28.014  23.138  10.244
52147W        W23873  15.295  29.985  13.980
52148W        W23874  33.789  11.558  14.853
52149W        W23875  13.866  12.772  14.948
52150W        W23876  22.094  17.113  10.481
52151W        W23877  30.210  24.185  13.638
52152W        W23878  20.218  31.604   4.519
52153W        W23879   7.841  42.731   3.187
52154W        W23880  36.845  15.025   3.692
52155W        W23881  14.186   6.695   4.357
52156W        W23882   8.256   7.319  14.519
52157W        W23883  14.914  12.349  13.031
52158W        W23884  14.648  23.904   4.170
52159W        W23885   0.880   6.237   0.186
52160W        W23886  14.150  37.666   4.251
52161W        W23887   0.542  41.004   2.107
52162W        W23888  34.039  31.430  14.989
52163W        W23889  18.678  34.647   1.801
52164W        W23890   2.301  11.112   2.690
52165W        W23891  13.620  33.631  10.863
52166W        W23892  23.432   0.748  14.328
52167W        W23893   1.288  33.452   1.948
52168W        W23894  28.642   5.763  14.891
52169W        W23895  11.350   5.258   0.790
52170W        W23896  27.676  37.260   0.975
52171W        W23897  38.397  44.467  14.050
52172W        W23898   0.436   0.872  13.734
52173W        W23899  28.471  33.020  13.438
52174W        W23900  25.140  40.523   2.298
52175W        W23901  19.548  42.489   1.953
52176W        W23902   6.847  25.494  14.383
52177W        W23903  38.067  38.028  11.710
52178W        W23904  38.286  15.822   2.356
52179W        W23905  34.871  29.590   2.724
52180W        W23906  31.165   7.313  10.611
52181W        W23907   1.860  15.688   0.513
52182W        W23908  25.104  13.254   1.210
52183W        W23909   7.649  25.562  12.143
52184W        W23910  21.151   3.713  12.067
52185W        W23911  27.827  30.062  12.025
52186W        W23912  31.840  43.985   2.179
52187W        W23913  36.569  26.518  11.186
52188W        W23914   4.867  20.294   4.658
52189W        W23915  26.839  43.897  12.042
52190W        W23916  43.871  17.738   3.904
52191W        W23917  30.698  33.055  13.964
52192W        W23918  38.006  31.502   3.660
52193W        W23919  18.599   0.535   0.926
52194W        W23920  15.660  28.395   0.294
52195W        W23921  34.068  43.632   3.734
52196W        W23922   9.333  20.694   2.126
52197W        W23923  31.847  43.739  10.695
52198W        W23924   4.398  10.266  11.026
52199W        W23925   9.773  40.122   2.096
52200W        W23926   7.875  26.221   1.656
52201W        W23927  12.448  16.247   4.647
52202W        W23928  24.388  10.099  12.153
52203W        W23929  43.595   5.391   4.677
52204W        W23930  31.062   7.626   2.223
52205W        W23931   7.130  38.181  12.224
52206W        W23932  11.166  28.021   2.609
52207W        W23933   2.047   3.695  13.821
52208W        W23934  43.845  13.022   3.846
52209W        W23935   3.299  18.170   3.801
52210W        W23936  21.077  20.996  12.916
52211W        W23937  24.379  11.767   4.952
52212W        W23938  37.536  39.392   0.418
52213W        W23939  43.221  16.861   4.070
52214W        W23940  10.834  34.150   1.748
52215W        W23941  10.289  43.685   1.811
52216W        W23942  36.897  37.346   1.031
52217W        W23943  14.265  37.332  11.504
52218W        W23944  21.893  14.986  14.455
52219W        W23945  37.922  20.740   2.376
52220W        W23946  31.923  11.762  12.433
52221W        W23947  20.238  38.930   2.858
52222W        W23948   2.726   6.908   4.229
52223W        W23949  22.483  22.432   0.393
52224W        W23950   2.642   7.260   4.932
52225W        W23951  16.554  27.226  10.639
52226W        W23952  28.579   2.969  14.904
52227W        W23953  31.893  32.041   2.404
52228W        W23954  43.697   9.839  13.776
52229W        W23955  36.277   3.786  14.813
52230W        W23956  26.884   3.879   0.851
52231W        W23957   9.653   4.424   1.800
52232W        W23958  35.029  21.726  14.651
52233W        W23959  14.395   2.383  10.941
52234W        W23960   4.014  37.752  11.076
52235W        W23961  21.435  13.830   1.850
52236W        W23962  24.189  25.982  13.775
52237W        W23963  34.861  30.417  12.778
52238W        W23964  34.339  10.299   1.338
52239W        W23965   7.799   6.904  10.490
52240W        W23966  40.939  17.607   1.232
52241W        W23967  21.404   4.459  10.949
52242W        W23968  35.029   1.000   0.686
52243W        W23969  44.011  40.780   2.187
52244W        W23970  37.542  44.867   1.434
52245W        W23971  18.689  10.499   4.552
52246W        W23972  12.699   3.348  13.805
52247W        W23973  22.527  28.476   0.502
52248W        W23974  33.759  37.411   4.540
52249W        W23975  32.623  15.211  10.459
52250W        W23976  31.636  12.297  14.773
52251W        W23977   0.245  12.237  11.597
52252W        W23978  37.475  15.653  14.019
52253W        W23979  24.725  39.527  14.428
52254W        W23980  28.546  24.186  12.968
52255W        W23981  23.591   8.683  13.380
52256W        W23982  13.961  38.878  11.696
52257W        W23983  39.326  38.466   3.996
52258W        W23984  11.213  24.203  10.743
52259W        W23985  43.810  16.289  13.517
52260W        W23986  24.402  40.203  13.333
52261W        W23987  18.641  17.229  13.561
52262W        W23988  13.073   1.555   0.722
52263W        W23989  38.893  12.387  11.342
52264W        W23990  16.092  39.445   0.389
52265W        W23991   6.094   9.482   4.113
52266W        W23992  14.549  34.473   0.711
52267W        W23993   2.809  43.909   0.014
52268W        W23994  24.132   7.208  10.337
52269W        W23995  33.348   6.463   2.055
52270W        W23996  29.306  44.812   1.277
52271W        W23997  24.234   0.808  11.990
52272W        W23998   9.376  21.926  14.432
52273W        W23999   5.335   6.199  10.275
52274W        W24000  10.790  33.958   4.079
52275W        W24001  44.350  34.546  10.727
52276W        W24002  21.739  33.905  14.552
52277W        W24003  24.389  11.353  14.311
52278W        W24004  37.799   6.661   2.234
52279W        W24005  31.070  44.315   1.199
52280W        W24006   6.149  37.335  11.995
52281W        W24007  27.564  11.829   0.748
52282W        W24008  10.932   6.159   2.695
52283W        W24009   7.343  28.601  14.596
52284W        W24010  16.828   6.024   4.496
52285W        W24011  41.992  42.732  11.042
52286W        W24012   5.169   0.715   2.862
52287W        W24013  21.300   9.934  14.312
52288W        W24014  10.456  35.837   4.308
52289W        W24015   5.842  35.925   2.476
52290W        W24016  11.174  42.104  14.273
52291W        W24017  26.570  20.661   3.378
52292W        W24018   4.996   2.125  11.079
52293W        W24019  21.496  41.431   1.156
52294W        W24020  36.820   5.456   3.567
52295W        W24021  19.069  29.438  14.430
52296W        W24022  41.685  10.692  13.164
52297W        W24023  30.502  16.297  11.669
52298W        W24024  25.037  20.567   4.279
52299W        W24025  40.308  27.400   4.610
52300W        W24026  17.563   9.899   0.413
52301W        W24027  29.430  29.032  14.909
52302W        W24028  24.171  32.916   2.260
52303W        W24029  15.103  11.054  12.965
52304W        W24030  35.486  21.687   2.806
52305W        W24031  39.743  21.610  14.895
52306W        W24032   2.433   4.783   2.374
52307W        W24033  10.910  39.348   1.645
52308W        W24034  44.849  20.453   2.828
52309W        W24035   6.716  12.628  11.944
52310W        W24036  41.725  24.154   0.298
52311W        W24037   1.573  21.154   3.721
52312W        W24038   7.318   5.950  11.299
52313W        W24039  21.357  43.126   4.987
52314W        W24040  25.024  31.725  14.326
52315W        W24041  36.346  15.097   3.293
52316W        W24042   9.597  44.018  12.438
52317W        W24043   5.660  31.070   1.871
52318W        W24044  41.434  23.772  13.561
52319W        W24045  33.168  15.259   2.149
52320W        W24046  29.124  18.306  12.497
52321W        W24047  37.588   5.299   1.358
52322W        W24048  15.415  27.304  13.136
52323W        W24049  18.589  38.315   0.617
52324W        W24050  24.173   2.746  14.471
52325W        W24051  28.626  11.702  14.911
52326W        W24052  14.892  35.621  12.536
52327W        W24053   9.169  44.206  12.979
52328W        W24054   4.275   6.848  13.429
52329W        W24055  42.340   8.358  14.624
52330W        W24056  25.608  14.569  13.811
52331W        W24057   5.489  29.650  13.684
52332W        W24058  35.773  14.307   3.562
52333W        W24059   4.291  39.395  11.244
52334W        W24060  14.936  28.691   1.425
52335W        W24061  43.550  31.575  14.731
52336W        W24062  29.194  44.611   0.340
52337W        W24063  25.541   1.690   5.093
52338W        W24064  23.457   6.779   3.152
52339W        W24065  19.538  16.235   2.156
52340W        W24066  10.272  18.313  13.202
52341W        W24067   4.686   2.959  11.247
52342W        W24068  30.507  11.112   2.490
52343W        W24069   1.967  34.168   4.141
52344W        W24070  29.629   6.149  14.220
52345W        W24071  20.948  22.764   0.537
52346W        W24072  36.689   2.816  10.926
52347W        W24073   7.236  24.320  11.668
52348W        W24074  38.866   0.339   3.076
52349W        W24075   6.702  28.211  14.943
52350W        W24076  43.239   8.380   3.785
52351W        W24077  29.923  14.400  13.700
52352W        W24078  34.055  43.882   3.269
52353W        W24079  17.343  26.552   2.651
52354W        W24080  14.020  38.076   2.891
52355W        W24081  39.107   5.456  10.087
52356W        W24082  28.189   1.673  11.568
52357W        W24083  16.323  18.728   2.230
52358W        W24084  27.664  31.509   4.084
52359W        W24085  37.979  27.205   2.902
52360W        W24086  38.311  29.640   4.681
52361W        W24087  43.688   4.909  12.061
52362W        W24088  31.903  39.469   3.800
52363W        W24089   5.733  24.172   4.555
52364W        W24090  35.955  43.460   2.355
52365W        W24091   8.362  44.894  12.988
52366W        W24092  10.320  23.973   5.070
52367W        W24093   5.817  17.670  14.786
52368W        W24094  28.914   7.070  14.894
52369W        W24095   4.202   2.806  11.239
52370W        W24096  25.481  43.973   1.666
52371W        W24097  22.136   5.971  14.658
52372W        W24098  10.745   3.888  12.091
52373W        W24099  37.039  26.324   3.850
52374W        W24100  34.324  11.442   3.675
52375W        W24101   8.189   0.452  12.947
52376W        W24102  38.014   8.039  13.507
52377W        W24103  42.531  32.987  13.300
52378W        W24104  39.020  22.604  10.491
52379W        W24105  25.120   9.665   1.433
52380W        W24106  20.158  34.939   4.965
52381W        W24107   1.478  13.099  11.618
52382W        W24108  38.312  44.817  11.713
52383W        W24109   7.571   3.373   3.617
52384W        W24110  26.533   5.916  10.559
52385W        W24111   3.458  30.683  11.177
52386W        W24112  28.445  16.701   4.149
52387W        W24113   5.973  23.001  12.469
52388W        W24114  21.751  41.461   2.169
52389W        W24115  36.127  30.581  12.645
52390W        W24116  38.096   6.768   2.644
52391W        W24117  15.842  35.527  10.711
52392W        W24118  35.097  43.986  13.904
52393W        W24119  31.177   9.621  13.310
52394W        W24120  34.536  28.552   2.369
52395W        W24121  25.198  44.789  11.877
52396W        W24122  25.365  12.381   2.648
52397W        W24123  27.016  34.384  10.740
52398W        W24124   6.376  28.908   2.742
52399W        W24125  14.710  17.098  14.279
52400W        W24126  27.531  11.022   1.169
52401W        W24127  13.885   1.924   2.254
52402W        W24128   2.724  28.341  12.247
52403W        W24129   3.859  14.376  13.005
52404W        W24130  40.127  40.202   1.399
52405W        W24131  35.063   6.329  10.606
52406W        W24132  39.599  15.544   1.769
52407W        W24133  31.052   9.151   3.268
52408W        W24134  38.815  27.225  11.500
52409W        W24135  21.638  42.026  12.494
52410W        W24136   8.259   8.826   3.571
52411W        W24137  18.523  33.563   1.613
52412W        W24138  25.095   3.270   3.302
52413W        W24139  41.027  19.388   4.331
52414W        W24140  33.106  41.272   5.016
52415W        W24141  25.732  37.624   1.821
52416W        W24142   2.124  13.220   4.980
52417W        W24143  27.680   7.190  14.445
52418W        W24144  37.583  23.686   0.278
52419W        W24145   6.194  24.231   0.182
52420W        W24146  42.302   5.941  12.061
52421W        W24147  25.455  40.487   2.726
52422W        W24148  20.252  28.932   4.132
52423W        W24149   0.470  33.049  11.153
52424W        W24150  43.520   1.768  12.731
52425W        W24151  28.018   1.776  12.534
52426W        W24152  28.964  10.120  12.778
52427W        W24153  27.038  23.691  12.033
52428W        W24154  19.297   4.707   1.429
52429W        W24155  18.880  20.674  12.415
52430W        W24156   9.813  19.575  14.727
52431W        W24157  29.545   3.491  11.048
52432W        W24158  16.823   4.362  12.984
52433W        W24159  25.416  30.383  13.925
52434W        W24160   0.737  15.295  14.630
52435W        W24161  10.774  25.499  14.203
52436W        W24162   8.485  38.359   4.409
52437W        W24163  20.685   2.972   0.299
52438W        W24164  33.266   3.574   2.857
52439W        W24165  15.824  34.685  13.719
52440W        W24166  19.526   0.689   3.190
52441W        W24167  18.357   7.894  13.836
52442W        W24168   6.463  25.275  11.178
52443W        W24169  40.916  44.391  13.966
52444W        W24170  42.283  24.163  11.094
52445W        W24171  43.959  16.251  14.158
52446W        W24172  22.195   2.113   3.843
52447W        W24173  15.833  33.368   1.350
52448W        W24174   1.885   8.613   1.282
52449W        W24175  38.445  18.486  11.140
52450W        W24176  12.828  26.234  11.563
52451W        W24177   8.420   6.908  12.061
52452W        W24178  14.258  36.397  14.105
52453W        W24179  26.620  30.330   3.771
52454W        W24180  38.809   0.849  10.134
52455W        W24181  34.598  20.542  13.383
52456W        W24182  29.518  20.978  12.531
52457W        W24183  36.335  20.580   0.830
52458W        W24184  14.899  19.728   2.172
52459W        W24185  15.786  24.291   1.116
52460W        W24186  32.664  22.747  12.093
52461W        W24187  39.850  19.022  11.143
52462W        W24188  15.626  12.277   1.901
52463W        W24189  37.172  36.018   2.776
52464W        W24190  42.722   3.809   4.736
52465W        W24191  10.355  17.360  12.909
52466W        W24192  24.639   7.208  13.431
52467W        W24193  30.612  39.259  14.217
52468W        W24194  20.165   4.264  13.265
52469W        W24195   0.238  11.428  14.760
52470W        W24196  14.286  14.311   0.254
52471W        W24197  41.871  21.473  13.437
52472W        W24198  14.599  24.633  13.776
52473W        W24199   3.179  34.845  14.929
52474W        W24200   0.984   9.198  11.126
52475W        W24201  26.897   5.637   1.012
52476W        W24202  15.127  23.784  14.038
52477W        W24203  30.955   0.705  10.660
52478W        W24204   3.890  26.060   3.522
52479W        W24205  11.908  12.394  10.652
52480W        W24206  28.906  18.221  14.980
52481W        W24207  39.708  21.507   3.971
52482W        W24208  29.898  27.919   2.809
52483W        W24209  24.387  11.810  14.011
52484W        W24210  38.828  21.771   0.668
52485W        W24211   3.900  17.774   4.673
52486W        W24212  21.023   5.387  13.960
52487W        W24213  34.395  30.959  12.912
52488W        W24214  23.106  42.749   2.198
52489W        W24215  41.029  44.794   3.111
52490W        W24216  13.561  38.439  11.574
52491W        W24217  23.104   5.158   2.005
52492W        W24218  21.977  28.440   2.378
52493W        W24219   3.838  33.701   1.201
52494W        W24220   7.512  19.737  12.259
52495W        W24221   5.089   3.974   3.461
52496W        W24222   9.243   0.064   4.508
52497W        W24223   9.189  11.844   4.197
52498W        W24224  39.832   4.551  13.965
52499W        W24225  19.220  31.450   4.630
52500W        W24226  27.631  29.505   4.256
52501W        W24227  15.336   5.258  13.156
52502W        W24228  24.177  43.050   4.483
52503W        W24229  40.290  35.125   2.731
52504W        W24230  24.692   0.846   4.109
52505W        W24231  27.161  15.723   2.829
52506W        W24232   0.751   9.091   3.739
52507W        W24233  35.028   0.384   3.857
52508W        W24234   6.438   2.521  13.592
52509W        W24235  22.019  34.301  14.785
52510W        W24236   6.221  13.160  10.307
52511W        W24237  13.356  32.591  14.990
52512W        W24238   5.598   4.801  13.053
52513W        W24239  21.495  43.260  11.211
52514W        W24240  44.732   3.924   3.588
52515W        W24241  17.257  30.869   3.429
52516W        W24242  22.223   9.291  11.646
52517W        W24243  25.891  31.654   0.903
52518W        W24244  39.042  44.270   0.235
52519W        W24245  33.951   4.339  12.234
52520W        W24246  13.858   1.034  14.768
52521W        W24247  23.071   3.483   0.402
52522W        W24248  39.851  39.307  12.057
52523W        W24249  10.435  42.317   1.390
52524W        W24250  39.952  28.475   0.589
52525W        W24251  20.247   6.953   0.235
52526W        W24252   0.499   8.744   4.234
52527W        W24253  27.490   0.002  11.906
52528W        W24254  21.070  14.829   0.850
52529W        W24255  43.816  29.799  11.639
52530W        W24256  37.132  36.354  10.616
52531W        W24257  10.321  41.814  13.018
52532W        W24258  18.791  11.114  10.762
52533W        W24259  12.671  34.275   2.568
52534W        W24260  15.186  28.612  11.273
52535W        W24261   6.819  29.540  12.599
52536W        W24262  34.112  33.910  13.054
52537W        W24263  33.933  30.995  11.544
52538W        W24264   1.456  37.220  10.288
52539W        W24265  44.774  16.285   1.115
52540W        W24266  44.301  20.367   3.602
52541W        W24267  37.114   1.674  13.276
52542W        W24268  17.092  30.534  11.831
52543W        W24269   0.027  40.913  14.047
52544W        W24270  26.961  41.903   4.161
52545W        W24271   8.950   3.270  14.504
52546W        W24272  24.779   3.443   0.199
52547W        W24273  22.127   5.725   2.169
52548W        W24274   0.316  37.423  12.381
52549W        W24275   6.735   1.302   4.612
52550W        W24276  25.456  40.913  11.570
52551W        W24277  19.529  24.590   5.072
52552W        W24278  32.471  41.035  11.218
52553W        W24279   7.936  30.190  12.976
52554W        W24280  11.635  41.867   5.097
52555W        W24281   1.768   3.847   0.147
52556W        W24282   5.796  11.409  11.995
52557W        W24283  10.955  22.766   3.747
52558W        W24284  11.256  17.971   3.368
52559W        W24285  34.016  37.100  13.096
52560W        W24286   1.186  12.258  12.631
52561W        W24287  29.489   3.553  12.400
52562W        W24288  43.528   4.201   4.743
52563W        W24289  32.138  27.567  12.916
52564W        W24290  30.570  16.258   0.290
52565W        W24291  14.627  30.222  10.242
52566W        W24292  28.675  10.355   3.229
52567W        W24293   0.653  21.525  13.535
52568W        W24294  17.623  35.475   4.115
52569W        W24295  38.543   6.583   4.362
52570W        W24296  26.227  41.341  12.413
52571W        W24297  16.788  36.879  14.513
52572W        W24298  18.134  15.420   4.088
52573W        W24299   2.729  11.786  13.825
52574W        W24300   6.310  43.854   3.608
52575W        W24301  27.227   4.676   1.300
52576W        W24302   6.828   7.948   5.073
52577W        W24303  32.962  28.374   1.325
52578W        W24304  41.224  43.363   4.618
52579W        W24305   2.984  33.431  13.504
52580W        W24306  41.457  38.610   4.136
52581W        W24307  14.261  24.274  14.934
52582W        W24308  31.898  12.689  12.969
52583W        W24309  19.685  15.040   1.967
52584W        W24310  17.129  24.940  10.256
52585W        W24311  16.409  30.186   0.659
52586W        W24312  10.632  43.946   3.106
52587W        W24313  31.955  11.003  12.994
52588W        W24314  31.620  34.555   3.282
52589W        W24315  44.325   2.705  12.622
52590W        W24316  33.460  38.054  10.676
52591W        W24317  39.017   8.124  12.171
52592W        W24318   0.942  14.196  13.327
52593W        W24319  42.601   9.481  13.393
52594W        W24320   5.897  35.361  12.600
52595W        W24321   9.266  10.343   1.668
52596W        W24322  11.831  36.332   2.796
52597W        W24323  18.478  41.947   3.751
52598W        W24324   3.007  17.890   1.861
52599W        W24325   1.202   1.475  10.405
52600W        W24326  15.161  15.745  10.224
52601W        W24327  29.726  10.873  11.639
52602W        W24328   6.248  42.962   4.288
52603W        W24329  19.071  39.506  11.318
52604W        W24330  37.998  14.354  13.260
52605W        W24331  16.066  32.160  11.681
52606W        W24332  11.141  34.174   2.329
52607W        W24333  40.052  36.422   1.877
52608W        W24334  41.832  42.972  14.199
52609W        W24335  13.759  18.657  12.410
52610W        W24336  32.660   6.979   1.729
52611W        W24337  29.529  21.261   4.099
52612W        W24338   4.606   6.503  14.551
52613W        W24339  24.609   9.825  11.234
52614W        W24340   4.304  40.476  10.767
52615W        W24341  10.381  44.292  11.986
52616W        W24342  27.434   1.665  11.204
52617W        W24343  35.891   8.125  11.085
52618W        W24344  40.569  10.276  13.141
52619W        W24345   4.987  28.269   0.889
52620W        W24346  18.668  11.704   1.170
52621W        W24347   1.952   1.806  11.464
52622W        W24348  32.018  12.749  13.757
52623W        W24349  31.617  41.082  14.974
52624W        W24350   6.182   9.217  14.320
52625W        W24351  33.929  34.381  13.193
52626W        W24352  34.216  20.554   1.262
52627W        W24353  31.156  24.589  10.523
52628W        W24354  30.977   0.757   3.045
52629W        W24355  18.156  31.431  14.429
52630W        W24356  30.620  14.429  12.382
52631W        W24357  17.582  37.895  12.659
52632W        W24358  43.846   4.152  14.846
52633W        W24359   7.244  25.178   3.651
52634W        W24360  24.124  20.021   2.889
52635W        W24361   6.413  19.711  14.166
52636W        W24362   1.688  20.038  12.482
52637W        W24363  16.125   2.596  10.934
52638W        W24364   0.989  23.915   4.814
52639W        W24365  39.785   5.931  14.953
52640W        W24366  32.088  18.071   3.218
52641W        W24367  34.955   8.264   1.328
52642W        W24368  30.121  17.811   3.664
52643W        W24369  15.226   7.522   2.399
52644W        W24370  31.694  16.425  12.406
52645W        W24371  22.076  33.341  13.819
52646W        W24372  38.421   6.929   4.765
52647W        W24373   1.999   5.828  11.113
52648W        W24374  38.265  29.457  14.413
52649W        W24375   7.270  40.050   2.769
52650W        W24376  29.615   1.965  13.744
52651W        W24377  32.377  35.894   4.810
52652W        W24378  16.557  20.660  12.449
52653W        W24379   2.929  40.572   0.888
52654W        W24380  34.067   0.925   1.072
52655W        W24381  29.544  41.285   0.306
52656W        W24382  21.249   9.691  12.992
52657W        W24383   7.608  29.685   1.718
52658W        W24384   7.645   8.083  11.156
52659W        W24385  11.284   4.195  12.400
52660W        W24386  35.877  14.273   2.265
52661W        W24387  44.199  38.332  13.849
52662W        W24388  16.844  37.827   0.356
52663W        W24389  24.679  18.611   3.259
52664W        W24390  19.144  24.662  13.998
52665W        W24391  44.321  37.560   0.410
52666W        W24392   8.154  13.189   4.065
52667W        W24393   7.165  32.974   1.707
52668W        W24394  14.551   8.304   3.732
52669W        W24395   8.437   8.734  11.467
52670W        W24396  17.355  37.175  12.957
52671W        W24397  44.868   8.636   2.935
52672W        W24398  39.252   8.919  11.040
52673W        W24399  16.192  35.647  13.874
52674W        W24400   4.429  31.110   4.214
52675W        W24401   4.977  18.180   1.795
52676W        W24402   0.646  43.650  13.951
52677W        W24403  25.662  41.596  11.113
52678W        W24404  34.355  13.284   1.320
52679W        W24405  31.748  28.935  11.539
52680W        W24406  21.181   0.487  12.025
52681W        W24407  19.122  24.997   1.711
52682W        W24408   9.790  25.248   2.371
52683W        W24409   9.763  44.524   4.324
52684W        W24410  32.042  18.157   1.915
52685W        W24411   4.733  23.132   2.394
52686W        W24412  38.838  21.683   3.637
52687W        W24413  12.645  44.479  14.726
52688W        W24414  15.368  15.310   3.323
52689W        W24415   4.471   5.426  13.348
52690W        W24416  42.614  18.171  11.379
52691W        W24417  34.636  23.503   3.246
52692W        W24418  26.531  14.717   0.192
52693W        W24419  27.458  21.636   4.466
52694W        W24420   0.686  20.537   4.208
52695W        W24421  18.176  37.406   4.649
52696W        W24422   2.431  43.127   4.078
52697W        W24423  43.528  26.657   0.782
52698W        W24424   0.462  41.932  11.021
52699W        W24425  18.669  34.643  12.015
52700W        W24426  17.604  24.741  12.584
52701W        W24427  24.574  42.515  14.412
52702W        W24428   1.995  19.780   3.142
52703W        W24429  29.106   0.452   1.900
52704W        W24430  18.260  20.811   4.184
52705W        W24431  36.545   3.751   1.761
52706W        W24432  13.168  44.257   0.010
52707W        W24433  33.658  31.342   4.006
52708W        W24434  39.226  17.823   1.296
52709W        W24435   9.043   8.307   3.386
52710W        W24436  17.672   2.881  10.812
52711W        W24437  40.083  20.580  12.874
52712W        W24438  16.575  10.860   4.652
52713W        W24439   1.484  23.890   1.245
52714W        W24440   5.940  17.343   2.455
52715W        W24441  24.193  35.824   2.789
52716W        W24442  23.957  24.832   4.119
52717W        W24443  40.324   6.463  12.177
52718W        W24444  31.196  44.331   1.698
52719W        W24445  22.467  38.055  13.568
52720W        W24446  11.566  41.774   0.604
52721W        W24447  41.584   9.872   3.484
52722W        W24448  44.824  33.631   2.765
52723W        W24449  12.978  22.938   0.138
52724W        W24450  15.432  11.612   3.282
52725W        W24451  33.566  41.202   3.687
52726W        W24452  37.047   1.761  14.707
52727W        W24453  35.416  27.483  10.732
52728W        W24454  25.197   5.904   2.270
52729W        W24455   0.384  13.686  13.199
52730W        W24456  27.993  41.291   3.400
52731W        W24457  33.925  35.795  13.814
52732W        W24458  19.577   3.264   1.314
52733W        W24459  11.609  29.163   4.608
52734W        W24460  21.194  28.490  13.846
52735W        W24461  27.030  25.503   4.887
52736W        W24462  19.526  31.825   0.710
52737W        W24463   2.837  33.072   0.421
52738W        W24464   6.712  21.550   1.509
52739W        W24465  10.945  15.573  12.948
52740W        W24466  39.139  43.596  11.070
52741W        W24467  20.388  28.007  12.815
52742W        W24468  31.136  10.846   2.612
52743W        W24469  20.283   4.676  12.350
52744W        W24470  31.699  43.676   3.343
52745W        W24471   7.291   0.278   1.973
52746W        W24472   5.916   7.971  10.105
52747W        W24473  21.871  12.718  10.735
52748W        W24474  39.523  19.824  13.313
52749W        W24475  42.051  43.416   0.995
52750W        W24476   6.942  27.049  10.809
52751W        W24477  28.712   8.621  13.409
52752W        W24478   7.718  14.560  14.101
52753W        W24479  35.228  33.203   2.813
52754W        W24480  43.782   1.814  14.305
52755W        W24481   5.777  44.082  13.267
52756W        W24482  32.637   8.863  12.425
52757W        W24483  20.566  38.281  12.019
52758W        W24484   4.366  42.569  14.862
52759W        W24485  21.192  15.856  14.343
52760W        W24486  20.689   2.945  13.780
52761W        W24487   8.912  22.046  13.743
52762W        W24488  35.819   0.833   2.763
52763W        W24489  27.015  14.820   0.347
52764W        W24490  24.566  14.065   4.495
52765W        W24491   5.666  25.624   0.027
52766W        W24492  17.089  13.914   1.931
52767W        W24493  23.333  25.755  10.240
52768W        W24494  40.664   4.859   5.093
52769W        W24495  38.767   2.519   1.524
52770W        W24496  36.433  36.130  11.881
52771W        W24497  15.366  40.357   4.353
52772W        W24498   9.395  30.063  12.457
52773W        W24499  11.121  34.007   1.338
52774W        W24500   3.567  31.778  14.552
52775W        W24501   9.740  23.912  14.086
52776W        W24502  31.824  19.088  10.590
52777W        W24503   8.158   3.845   0.946
52778W        W24504  15.205  13.691  10.726
52779W        W24505  42.510  13.060   3.818
52780W        W24506  25.512   7.300  11.260
52781W        W24507   9.590   5.303  11.627
52782W        W24508  12.658  32.353   0.486
52783W        W24509   9.686  31.716  12.446
52784W        W24510  22.429   8.927   3.613
52785W        W24511  17.389  16.732   2.421
52786W        W24512  15.454   3.345   1.885
52787W        W24513  11.819  11.884  10.679
52788W        W24514  32.017  36.755  11.411
52789W        W24515  37.929  35.955   3.250
52790W        W24516  37.953  16.141   0.217
52791W        W24517  40.788   4.911  10.907
52792W        W24518   2.397  13.507  14.463
52793W        W24519  14.871  24.074  12.125
52794W        W24520  10.811  16.230   1.302
52795W        W24521  38.304  14.822   0.291
52796W        W24522  28.627  12.944  14.993
52797W        W24523   8.766  43.699   9.763
52798W        W24524  37.221  28.560  12.535
52799W        W24525   6.738  36.210  14.250
52800W        W24526  36.256  34.885   2.301
52801W        W24527  34.126  27.045  12.267
52802W        W24528  24.477  13.282  12.094
52803W        W24529   9.327   2.887  10.377
52804W        W24530   6.031   7.808  13.770
52805W        W24531   3.664  31.367   0.411
52806W        W24532   8.665   4.663   0.251
52807W        W24533  18.581  43.860  11.663
52808W        W24534  30.460  23.226  12.048
52809W        W24535   5.367  28.186  13.845
52810W        W24536  37.633  22.260   1.685
52811W        W24537  23.366  43.657   2.829
52812W        W24538  37.990  32.462   2.646
52813W        W24539  17.921  11.622  14.495
52814W        W24540  43.355  19.702   5.052
52815W        W24541  42.370  20.585  14.384
52816W        W24542  33.215  34.493  14.502
52817W        W24543  43.063  17.776   4.096
52818W        W24544  11.747   9.227  12.390
52819W        W24545  12.606   9.257   2.113
52820W        W24546   0.292   6.161   2.876
52821W        W24547  27.672  10.218   1.857
52822W        W24548  20.287  32.191  12.149
52823W        W24549   2.677  35.904  13.699
52824W        W24550   4.692  10.647   2.840
52825W        W24551   3.450  39.473  11.033
52826W        W24552   3.895  18.121  11.041
52827W        W24553   3.907  16.177   2.579
52828W        W24554  15.633  40.021   4.104
52829W        W24555  37.013   4.106  11.469
52830W        W24556  23.966  25.252  13.469
52831W        W24557  10.361  21.730  13.610
52832W        W24558   3.177  25.943  12.915
52833W        W24559  21.226   0.080   1.304
52834W        W24560  19.730  24.597   2.211
52835W        W24561   5.956  17.141  10.193
52836W        W24562   3.432   7.661   1.270
52837W        W24563  18.612   7.520   4.694
52838W        W24564  23.485  24.708  11.991
52839W        W24565  24.505  10.937  11.914
52840W        W24566  19.762  33.904  12.548
52841W        W24567  34.974  26.608  12.085
52842W        W24568  32.892  36.999   3.737
52843W        W24569  23.189   6.692   2.144
52844W        W24570  31.500   8.639   3.669
52845W        W24571  12.657  32.511  13.520
52846W        W24572   0.263  29.589   0.087
52847W        W24573  30.930  15.275  11.434
52848W        W24574  28.995   4.940  10.169
52849W        W24575  24.578  21.963   4.528
52850W        W24576  32.556  25.740  11.007
52851W        W24577   5.007  14.630  13.398
52852W        W24578   5.463  12.647   3.722
52853W        W24579   4.870   3.487  14.781
52854W        W24580  36.426   3.006  14.395
52855W        W24581  24.033  31.552  10.542
52856W        W24582  29.949  35.359   2.402
52857W        W24583  43.253  17.615   0.791
52858W        W24584  15.465  34.802   5.094
52859W        W24585  16.142  11.199   0.264
52860W        W24586  28.322   8.945   2.331
52861W        W24587  18.778  43.304   1.466
52862W        W24588   7.109  31.537   0.892
52863W        W24589  29.008  34.374  11.647
52864W        W24590  24.674  41.174  14.017
52865W        W24591  34.054  32.596  13.864
52866W        W24592   0.762  13.055  14.955
52867W        W24593  29.583  41.453  10.558
52868W        W24594  36.973   3.915   0.455
52869W        W24595  23.241  36.826  13.802
52870W        W24596  38.240  40.058   2.658
52871W        W24597  15.117  36.560  10.706
52872W        W24598  25.992  11.834   0.223
52873W        W24599  27.722  26.117  12.143
52874W        W24600  30.028   3.737   2.115
52875W        W24601  21.630  20.021   2.280
52876W        W24602  27.121  19.756  12.694
52877W        W24603  36.592  43.845   1.358
52878W        W24604  19.098  13.214   3.060
52879W        W24605   8.710  40.183   0.159
52880W        W24606  28.519   7.614   1.554
52881W        W24607  23.200  38.497   0.276
52882W        W24608  33.818  23.806  13.275
52883W        W24609   4.275  13.568  10.223
52884W        W24610   7.708   2.894   3.814
52885W        W24611  12.652  17.615  13.382
52886W        W24612  19.637   4.430  10.661
52887W        W24613  19.625  34.128   4.142
52888W        W24614  10.636  31.167  14.928
52889W        W24615  35.538   4.869   4.663
52890W        W24616   3.549  23.732   1.861
52891W        W24617  38.956   1.963  11.897
52892W        W24618   3.038  40.126   3.660
52893W        W24619   4.875   9.792   1.765
52894W        W24620  28.796  12.735   2.214
52895W        W24621  41.924  14.854  14.596
52896W        W24622  42.937  38.796  13.491
52897W        W24623  36.734   5.119  12.119
52898W        W24624  10.696  20.844  14.569
52899W        W24625  42.066   1.452  11.020
52900W        W24626  40.960  15.695   3.269
52901W        W24627  15.658  38.352  10.635
52902W        W24628  14.085   0.102   1.477
52903W        W24629  28.952  32.865  13.522
52904W        W24630  36.514  11.873  13.362
52905W        W24631  30.876  44.009  10.730
52906W        W24632   6.524   6.424  14.508
52907W        W24633  26.636  36.351   1.981
52908W        W24634  35.539  42.485  13.430
52909W        W24635   8.748  20.497   5.040
52910W        W24636  30.943  20.492   1.822
52911W        W24637  14.345  30.997   0.973
52912W        W24638  41.335  31.616   3.054
52913W        W24639  35.027  13.292  11.957
52914W        W24640  42.947  37.450   4.363
52915W        W24641   8.390  40.146  12.498
52916W        W24642  18.291   4.467   3.329
52917W        W24643  31.163  43.837   1.350
52918W        W24644  43.944  27.975   3.674
52919W        W24645  18.587  35.986  14.851
52920W        W24646  11.544  24.380   9.539
52921W        W24647  16.850  24.492   4.205
52922W        W24648  44.464  36.970  13.944
52923W        W24649  27.299   0.918   0.287
52924W        W24650  16.301  21.075  10.527
52925W        W24651  32.599  31.138   2.129
52926W        W24652   0.040  14.681  11.683
52927W        W24653  15.596  18.822  11.011
52928W        W24654  27.624  12.560  14.423
52929W        W24655  17.628  36.345  13.984
52930W        W24656  42.081  42.075  13.906
52931W        W24657  36.530  13.680   0.974
52932W        W24658  34.395  18.097  11.254
52933W        W24659  30.467  12.516  13.808
52934W        W24660   9.239  25.004  13.571
52935W        W24661  21.172   3.335   1.901
52936W        W24662  15.259  37.303  11.075
52937W        W24663  19.289  15.860  13.695
52938W        W24664   4.754  23.551   3.784
52939W        W24665   4.062  33.048  14.521
52940W        W24666  28.770  43.293  11.038
52941W        W24667   3.456   3.974  12.986
52942W        W24668  12.259  17.856  12.050
52943W        W24669   1.483  29.919  12.485
52944W        W24670  20.132   5.152   3.292
52945W        W24671  20.103  41.076  11.002
52946W        W24672   4.889  18.308  13.121
52947W        W24673  26.723  44.521   0.853
52948W        W24674  27.865   3.100   5.059
52949W        W24675  32.489  41.905  10.211
52950W        W24676  39.868   1.792   4.262
52951W        W24677  37.296  21.622  12.417
52952W        W24678  32.127  41.377  11.433
52953W        W24679  36.805  33.399   1.354
52954W        W24680  35.807  12.256  14.194
52955W        W24681  18.986  15.178  14.385
52956W        W24682  15.818  40.455   1.813
52957W        W24683  29.147  25.663  10.540
52958W        W24684  22.708   4.454   3.403
52959W        W24685  32.506  10.683   3.620
52960W        W24686  41.779   8.401   0.440
52961W        W24687  17.498  22.993  13.917
52962W        W24688  19.625  41.481  10.360
52963W        W24689   4.421   0.153  14.252
52964W        W24690   9.306  21.700  11.378
52965W        W24691  28.167   1.275  14.710
52966W        W24692  34.453  39.607  14.901
52967W        W24693   6.995  15.956  11.991
52968W        W24694  42.749  37.905  11.658
52969W        W24695   8.252  18.554   0.670
52970W        W24696  24.019  18.211  13.329
52971W        W24697  36.698  32.207   9.853
52972W        W24698  31.689  28.969   3.379
52973W        W24699  11.690   8.903  11.027
52974W        W24700  38.870  25.505   3.183
52975W        W24701   9.385  42.996   2.828
52976W        W24702   7.857  41.350  13.872
52977W        W24703  30.719  44.255   4.818
52978W        W24704  32.122  38.050  14.968
52979W        W24705   4.215  13.160   1.606
52980W        W24706  18.580  28.569   1.867
52981W        W24707  20.220  32.230  13.471
52982W        W24708   2.076   0.024  14.579
52983W        W24709  32.183  38.079   1.255
52984W        W24710  23.010  10.201  11.351
52985W        W24711  29.087  20.344   1.698
52986W        W24712  11.869  30.435   0.062
52987W        W24713  31.923  41.495  13.070
52988W        W24714  10.050   6.219   2.046
52989W        W24715   7.261   4.891   4.024
52990W        W24716  11.298  17.436  10.319
52991W        W24717   9.777   8.278  12.498
52992W        W24718  39.426  43.041  13.408
52993W        W24719  38.000  31.609  11.728
52994W        W24720  19.108  12.803   4.455
52995W        W24721   3.652  28.538   3.796
52996W        W24722  37.415   7.896   1.870
52997W        W24723  39.370  31.681   2.187
52998W        W24724   1.211  16.057   0.489
52999W        W24725  31.377  31.494  11.528
53000W        W24726  12.018  23.496  10.673
53001W        W24727  10.376  35.050   2.732
53002W        W24728  33.793  10.789  11.056
53003W        W24729  34.616   9.333  13.521
53004W        W24730   5.855  14.936   1.702
53005W        W24731  37.126  26.934  11.795
53006W        W24732  12.079  42.211   2.857
53007W        W24733   3.426  43.934  13.932
53008W        W24734  33.031  11.469   2.283
53009W        W24735   5.945  38.803   0.316
53010W        W24736   1.851  16.149  14.215
53011W        W24737  24.902  12.437  10.916
53012W        W24738  36.639  15.180   4.192
53013W        W24739  29.130  15.778   1.828
53014W        W24740  28.617   2.453  10.616
53015W        W24741  10.413  38.525  12.977
53016W        W24742  25.809  15.612  14.920
53017W        W24743  35.325   6.656  12.442
53018W        W24744  36.280  28.506  14.010
53019W        W24745  18.968   2.317  11.884
53020W        W24746   7.393   7.818   4.150
53021W        W24747  41.433  39.806  11.395
53022W        W24748  40.548   2.380   0.996
53023W        W24749  15.025  26.535  12.790
53024W        W24750  42.187  29.752  14.951
53025W        W24751  33.598  27.600   4.132
53026W        W24752  20.191   9.822  14.885
53027W        W24753  12.215  27.239  11.118
53028W        W24754  39.142  43.020   4.255
53029W        W24755  20.730  30.974  10.615
53030W        W24756  43.317  26.840  11.649
53031W        W24757  24.100  38.019  12.958
53032W        W24758  17.506  24.313   3.246
53033W        W24759  44.040  15.117  11.491
53034W        W24760  37.070  41.061  11.643
53035W        W24761  23.040   4.369  13.505
53036W        W24762  30.642  27.117   4.149
53037W        W24763  32.535  13.461   3.073
53038W        W24764  10.988  25.033  14.821
53039W        W24765  33.694   0.849  14.467
53040W        W24766  21.327  30.072   3.320
53041W        W24767  37.460  36.141   0.961
53042W        W24768   9.186  33.380   3.783
53043W        W24769  25.863  41.044   1.753
53044W        W24770  37.595  20.117   3.176
53045W        W24771   1.240   6.175  10.691
53046W        W24772  17.993   4.861   4.209
53047W        W24773  37.742  24.033   4.534
53048W        W24774  10.133  43.536   4.103
53049W        W24775  23.505  14.610  11.023
53050W        W24776  26.602   9.705   4.303
53051W        W24777  15.757  33.624   2.732
53052W        W24778   4.670  18.283  14.491
53053W        W24779  18.659   6.620  14.072
53054W        W24780  18.222  23.907   2.595
53055W        W24781  38.074  17.705  11.204
53056W        W24782  24.450  26.960   1.712
53057W        W24783  21.054  37.393   4.296
53058W        W24784  37.026  13.646   1.763
53059W        W24785  40.861  28.424  12.110
53060W        W24786  22.622  19.194  11.371
53061W        W24787  27.461   1.826  12.888
53062W        W24788  32.301  32.252   0.426
53063W        W24789  13.307  31.900   4.544
53064W        W24790  15.100  43.101   2.347
53065W        W24791  36.812  42.795   5.127
53066W        W24792   2.923  17.229  12.910
53067W        W24793   9.337  24.045   1.762
53068W        W24794   7.795  31.666  12.328
53069W        W24795   7.287  25.223  14.315
53070W        W24796  38.470  24.087  13.621
53071W        W24797  25.711  10.145  12.090
53072W        W24798   4.642   4.106   4.575
53073W        W24799  31.010  26.452  12.073
53074W        W24800  10.775  44.992  13.128
53075W        W24801  14.266  26.610   0.453
53076W        W24802  30.410  29.493   2.343
53077W        W24803  22.367  41.232   4.979
53078W        W24804  22.731   9.684  11.936
53079W        W24805   4.402  16.373  11.684
53080W        W24806  26.089  10.621   3.526
53081W        W24807  24.023  20.080  12.927
53082W        W24808  36.456   4.415  14.303
53083W        W24809  27.611   8.841   1.796
53084W        W24810   7.139  16.322   1.006
53085W        W24811   5.198  21.512   3.140
53086W        W24812  30.441  43.061   3.253
53087W        W24813  10.565  19.609   3.559
53088W        W24814  17.289   4.781  10.938
53089W        W24815  43.003  32.782  14.465
53090W        W24816   1.328   0.469   1.815
53091W        W24817  13.670  14.664   0.333
53092W        W24818  13.396  13.163   3.193
53093W        W24819  11.300  13.196   3.877
53094W        W24820  11.421   1.718   0.446
53095W        W24821   8.345  10.684   1.318
53096W        W24822  28.148   4.213  10.430
53097W        W24823  13.114   6.264  10.857
53098W        W24824  21.114  43.956   0.173
53099W        W24825  29.039  39.504  13.711
53100W        W24826  25.770  40.368  12.962
53101W        W24827   7.765  13.155   1.684
53102W        W24828  26.177   6.285  12.005
53103W        W24829  18.138   4.721   4.673
53104W        W24830  43.894  25.215  13.992
53105W        W24831  23.486   5.364   2.582
53106W        W24832  26.494  15.983  14.379
53107W        W24833   7.394  10.454   1.826
53108W        W24834  33.690  44.924  12.894
53109W        W24835  17.946  44.457   4.134
53110W        W24836  41.582  27.313   4.215
53111W        W24837  11.908  38.722   1.102
53112W        W24838   5.435  13.840   9.810
53113W        W24839   1.720   1.529  11.097
53114W        W24840   1.709  31.521  13.632
53115W        W24841   8.701  11.658   0.572
53116W        W24842  29.076  29.055   2.171
53117W        W24843  26.129  44.895  12.250
53118W        W24844  29.909  41.488   2.748
53119W        W24845  14.503  43.907  11.888
53120W        W24846  36.376  29.297   1.258
53121W        W24847  25.615  32.150  11.156
53122W        W24848   8.728  38.260   1.188
53123W        W24849  36.464   7.184  13.077
53124W        W24850  32.022  29.037   0.337
53125W        W24851   1.582  28.653   3.242
53126W        W24852  33.456  28.239   4.640
53127W        W24853  15.538  19.203   4.735
53128W        W24854  39.809  27.534  12.827
53129W        W24855  14.589  43.715   3.427
53130W        W24856   0.250  33.606   4.115
53131W        W24857  31.003   6.129  12.916
53132W        W24858   6.982  44.641  14.300
53133W        W24859   7.854   8.596   3.754
53134W        W24860  40.731   4.539  13.780
53135W        W24861  39.345  26.418   4.905
53136W        W24862  43.888  11.050  10.724
53137W        W24863  36.505   7.116   2.441
53138W        W24864   5.300   2.428  13.107
53139W        W24865  38.504  28.267   1.293
53140W        W24866   2.057  16.776   2.486
53141W        W24867   5.763  20.736  14.830
53142W        W24868   4.436  39.548   2.696
53143W        W24869  35.855  31.104   3.204
53144W        W24870  44.786  25.514  13.320
53145W        W24871  40.282  32.489  11.153
53146W        W24872  41.954   3.964  12.525
53147W        W24873  34.650   9.479  14.402
53148W        W24874  34.127  42.727   0.631
53149W        W24875  23.444  20.381   1.325
53150W        W24876  20.574   6.770   4.694
53151W        W24877  29.327  24.300   2.860
53152W        W24878  25.043   3.636  12.860
53153W        W24879  15.679   4.288  14.791
53154W        W24880  37.608   8.455  14.517
53155W        W24881  41.919  44.871   4.177
53156W        W24882  26.677  44.341  11.797
53157W        W24883  36.026   6.450  10.903
53158W        W24884  37.572  12.498  13.961
53159W        W24885  40.781  19.579   3.860
53160W        W24886   2.396   5.807   4.785
53161W        W24887  30.944  40.355  14.903
53162W        W24888  23.960   0.375  11.957
53163W        W24889  34.397  18.783   3.418
53164W        W24890   3.446  24.638  11.980
53165W        W24891  39.542   8.924   0.526
53166W        W24892  44.549  39.218   9.917
53167W        W24893  33.736  15.099   5.030
53168W        W24894   8.931  26.946   0.690
53169W        W24895   6.293   8.239   4.738
53170W        W24896   7.114  14.188  11.703
53171W        W24897   3.399  21.850  13.727
53172W        W24898  39.428  31.453  13.430
53173W        W24899   3.607  29.611   3.865
53174W        W24900  40.376  12.058  10.674
53175W        W24901  28.215  26.430   3.454
53176W        W24902  22.239  24.754  12.421
53177W        W24903  22.626  12.377   0.990
53178W        W24904  22.265  36.944  12.954
53179W        W24905  34.049  37.174  12.580
53180W        W24906   4.668  12.292  11.084
53181W        W24907  39.175  42.711  12.052
53182W        W24908  43.831  25.108  12.491
53183W        W24909  30.383  32.070  13.894
53184W        W24910  21.968  41.891  12.900
53185W        W24911  17.275  18.394  11.047
53186W        W24912  31.555  23.203   1.460
53187W        W24913  19.229  29.958  12.625
53188W        W24914  39.053   4.883   1.741
53189W        W24915   4.840  24.793  12.043
53190W        W24916  37.986   3.538   2.308
53191W        W24917  34.433   3.004  11.741
53192W        W24918  11.894   9.441  14.331
53193W        W24919  28.840  20.104  12.910
53194W        W24920  18.176  10.784  14.289
53195W        W24921  19.278   9.380   3.240
53196W        W24922  39.565  31.396   0.656
53197W        W24923  18.124   9.685   3.575
53198W        W24924  14.655  18.280  13.829
53199W        W24925  10.807  27.001   0.270
53200W        W24926  21.348   5.907  10.293
53201W        W24927   6.270  10.076   1.920
53202W        W24928  31.772  12.001  12.887
53203W        W24929  26.449  11.381   4.190
53204W        W24930  43.794  39.775   2.197
53205W        W24931  39.729  32.488  10.527
53206W        W24932   8.778  25.756  12.510
53207W        W24933   6.871   7.350   1.627
53208W        W24934  19.137   3.933  11.027
53209W        W24935   6.599  18.117  13.558
53210W        W24936  21.673  12.550   5.505
53211W        W24937  33.122  37.440  11.103
53212W        W24938  22.259  28.408  10.176
53213W        W24939  36.948   4.070  12.938
53214W        W24940  12.718  36.688   0.850
53215W        W24941  21.278   9.203  14.037
53216W        W24942  30.040  32.106   1.254
53217W        W24943  37.451  22.969  14.726
53218W        W24944  19.932   7.948  14.500
53219W        W24945   0.197  11.208  14.289
53220W        W24946   2.204  12.684   4.990
53221W        W24947  19.987   8.378  11.958
53222W        W24948  27.500  42.514  10.702
53223W        W24949  33.836  29.251  11.136
53224W        W24950   5.713  29.272   4.715
53225W        W24951  16.688  35.308  11.070
53226W        W24952  17.042  28.523   4.864
53227W        W24953  35.695  26.423   1.869
53228W        W24954   6.429  21.056   3.345
53229W        W24955   6.238   4.735   3.585
53230W        W24956  17.095  30.728   2.618
53231W        W24957  27.107  38.333  11.142
53232W        W24958  17.670  43.389  10.404
53233W        W24959  25.084  29.952   4.367
53234W        W24960  23.801  43.393   4.606
53235W        W24961  23.469   3.448   1.166
53236W        W24962  10.207   9.672   0.224
53237W        W24963  36.564   6.323   3.087
53238W        W24964  22.720  16.806   1.835
53239W        W24965   9.236  34.624  11.392
53240W        W24966  36.067  27.512  12.384
53241W        W24967  30.480  21.135   2.891
53242W        W24968  40.954  29.210  11.604
53243W        W24969  28.147  21.480  14.393
53244W        W24970  31.901  11.201  11.684
53245W        W24971  13.900   8.500   4.578
53246W        W24972  37.142  14.915  10.954
53247W        W24973  37.977  44.800   1.141
53248W        W24974  44.463   3.425  11.597
53249W        W24975  34.562   6.265  10.757
53250W        W24976  38.989  32.575   4.644
53251W        W24977  32.589   7.132   3.672
53252W        W24978  15.668  20.769  11.902
53253W        W24979  23.110  32.637   4.692
53254W        W24980   4.466  37.618   2.443
53255W        W24981   0.580  44.280  10.427
53256W        W24982  11.300  42.456   3.115
53257W        W24983  14.235  31.648   0.214
53258W        W24984  22.839  24.971  12.055
53259W        W24985   8.810  31.900   4.067
53260W        W24986  44.813  40.545   2.148
53261W        W24987  11.738  17.667   4.121
53262W        W24988  32.105  24.436  12.877
53263W        W24989  18.311   9.595  14.472
53264W        W24990  19.747  12.159   3.031
53265W        W24991  31.380  42.656  13.370
53266W        W24992  40.819  23.008  11.129
53267W        W24993  30.229   5.966  12.529
53268W        W24994  14.607  13.772  10.800
53269W        W24995  29.937   0.532  10.755
53270W        W24996  13.414   6.575  11.167
53271W        W24997   0.615  18.790  12.167
53272W        W24998  30.639  16.373  14.415
53273W        W24999   4.841  10.224  10.186
53274W        W25000   9.745   5.643   3.617
53275W        W25001  12.322   9.500   0.721
53276W        W25002   4.765   0.567  13.458
53277W        W25003  43.470  27.163  10.805
53278W        W25004  28.672  21.598   2.863
53279W        W25005  26.728  10.588   4.690
53280W        W25006  27.733   1.023   0.555
53281W        W25007   6.954  31.575  12.144
53282W        W25008   0.926   4.609   2.720
53283W        W25009  32.529  32.106   4.212
53284W        W25010  26.534  38.056   0.008
53285W        W25011   3.714  28.015   3.715
53286W        W25012  44.712  35.962  14.895
53287W        W25013  33.430  18.665  11.159
53288W        W25014  33.653  15.521   3.242
53289W        W25015  18.279  31.655  10.802
53290W        W25016   9.059  33.367  13.306
53291W        W25017  29.076  12.379   3.755
53292W        W25018   9.813  12.165   3.369
53293W        W25019   4.411   1.842  11.513
53294W        W25020  27.470  24.638  12.113
53295W        W25021  17.601  24.328  12.021
53296W        W25022   4.409  31.006  14.902
53297W        W25023  42.411  37.834   2.788
53298W        W25024  31.397  32.606  13.598
53299W        W25025  20.327   6.647   1.264
53300W        W25026  28.155  44.138  13.328
53301W        W25027  19.273  24.083   0.916
53302W        W25028   6.578  30.424  13.529
53303W        W25029  36.344  31.581  13.560
53304W        W25030   1.261  29.336  14.311
53305W        W25031  12.899  35.251   1.273
53306W        W25032   4.274  28.092  10.935
53307W        W25033  10.404  17.661   2.565
53308W        W25034  12.343  44.287  10.281
53309W        W25035  30.612  36.112   1.259
53310W        W25036  31.169  38.426  10.749
53311W        W25037  18.287  15.646  14.924
53312W        W25038  26.194  26.639   3.707
53313W        W25039   6.460  39.443  13.027
53314W        W25040   3.332  13.054   2.430
53315W        W25041  33.338  35.566  14.810
53316W        W25042  21.700  39.883  13.952
53317W        W25043  39.360  29.124  12.010
53318W        W25044  43.742  18.223   1.709
53319W        W25045  33.613  31.049   0.082
53320W        W25046  15.205  34.644  10.526
53321W        W25047  34.848  40.833   4.511
53322W        W25048  31.147  29.933   0.341
53323W        W25049  35.676  39.403   2.893
53324W        W25050  33.869  13.583  11.911
53325W        W25051  14.354  24.169  12.555
53326W        W25052   7.073  13.986  11.242
53327W        W25053   2.749  33.806  11.427
53328W        W25054  12.203  31.486  12.454
53329W        W25055  24.035  15.345   5.331
53330W        W25056  10.625  27.477   0.393
53331W        W25057  32.106  26.144   2.221
53332W        W25058   9.437  11.133  13.068
53333W        W25059  39.940   4.732  12.126
53334W        W25060  33.815  29.228  11.652
53335W        W25061  27.616  18.288   3.586
53336W        W25062  36.855   3.767   0.946
53337W        W25063  19.148  12.511   2.232
53338W        W25064   8.430  17.346  13.075
53339W        W25065   5.690  39.689  10.843
53340W        W25066   0.481  36.010   2.892
53341W        W25067  39.871  19.835  14.457
53342W        W25068  21.495   4.463  13.587
53343W        W25069  23.046  10.154   4.395
53344W        W25070   4.491  39.008  10.266
53345W        W25071  30.121  13.644  11.613
53346W        W25072  41.386  24.732  14.399
53347W        W25073  40.033  44.663  12.024
53348W        W25074  10.392  10.843  14.034
53349W        W25075   9.624  30.310  11.183
53350W        W25076  17.574  19.512  11.983
53351W        W25077   4.222  36.351   1.310
53352W        W25078   9.600  12.328  13.831
53353W        W25079  35.170   0.537  13.766
53354W        W25080  15.096  31.210   0.441
53355W        W25081  40.142  34.538  13.515
53356W        W25082  38.303  16.378  10.811
53357W        W25083  18.856  23.921  14.587
53358W        W25084  44.798  32.975   0.253
53359W        W25085  32.888  18.551   2.922
53360W        W25086  20.540  25.522  11.186
53361W        W25087   9.374  37.870   4.183
53362W        W25088   3.229  25.050   1.558
53363W        W25089  31.179  15.317   2.818
53364W        W25090  37.701  42.039   3.707
53365W        W25091  33.885  25.513   0.544
53366W        W25092  34.460  11.638  13.329
53367W        W25093   9.327  44.775  11.512
53368W        W25094  25.495  42.363  10.683
53369W        W25095  14.320  29.206  13.361
53370W        W25096   1.209  19.566   0.347
53371W        W25097  11.544  11.768   0.971
53372W        W25098  31.213   5.824   2.383
53373W        W25099  23.653   0.307  14.085
53374W        W25100  12.816   8.362   1.619
53375W        W25101  27.452  13.206   0.119
53376W        W25102   3.496  22.008   4.633
53377W        W25103  11.639  17.217  12.932
53378W        W25104   9.058   8.712   3.078
53379W        W25105  29.969  41.270   3.223
53380W        W25106  33.993  14.035  12.484
53381W        W25107  16.085  29.904  11.505
53382W        W25108   8.596  27.085   4.775
53383W        W25109  12.397  23.205   0.688
53384W        W25110  29.595   5.718  13.918
53385W        W25111  15.220  27.888  13.917
53386W        W25112   1.938  35.449  11.489
53387W        W25113  17.903  43.689   1.633
53388W        W25114  44.115  19.273   0.371
53389W        W25115   0.280  37.359   2.310
53390W        W25116  37.968  42.831   4.243
53391W        W25117  25.294  33.592  12.199
53392W        W25118  27.999   4.990  12.074
53393W        W25119   3.875   7.156  11.813
53394W        W25120  40.686  14.077  13.852
53395W        W25121   6.812  41.068   4.650
53396W        W25122   8.624  30.134  11.187
53397W        W25123   3.299  23.456   2.219
53398W        W25124  14.297  40.435   1.363
53399W        W25125  34.934  14.645  13.953
53400W        W25126  27.425   5.841   1.852
53401W        W25127  12.622  27.496   2.574
53402W        W25128  30.470  40.744   0.322
53403W        W25129   0.411  40.946  14.424
53404W        W25130  17.939  14.601   3.171
53405W        W25131  26.594  14.842   0.688
53406W        W25132  34.627  13.992  11.504
53407W        W25133  34.894  15.581  14.003
53408W        W25134  24.707  27.983  12.895
53409W        W25135  17.205  33.041  11.144
53410W        W25136   3.881  37.878  11.547
53411W        W25137  38.626  27.553  14.794
53412W        W25138  26.605   9.425  11.465
53413W        W25139  40.438   0.232  11.363
53414W        W25140   0.925  32.940  12.399
53415W        W25141  33.635   2.955   3.345
53416W        W25142   4.598   9.767  13.905
53417W        W25143  33.586  20.326   3.935
53418W        W25144  27.858  25.417  12.898
53419W        W25145  11.389  23.262   4.972
53420W        W25146  31.231   0.695  11.147
53421W        W25147  23.256  23.451   0.015
53422W        W25148  20.945  31.625  12.036
53423W        W25149   2.479   4.169   3.867
53424W        W25150   4.321  37.074  14.633
53425W        W25151  23.571  20.079  13.857
53426W        W25152  24.072   3.877   1.206
53427W        W25153  28.280  20.029   3.703
53428W        W25154   3.160  21.231   1.831
53429W        W25155  38.171  39.296   1.248
53430W        W25156  37.683  41.446   4.998
53431W        W25157  39.560  32.885  11.852
53432W        W25158  23.445   8.850  11.532
53433W        W25159  21.025   0.276  10.611
53434W        W25160  40.135  37.370  10.113
53435W        W25161   7.132  40.714   2.025
53436W        W25162  34.966  15.838   0.779
53437W        W25163   9.236   5.673  13.895
53438W        W25164  23.902  34.423   1.318
53439W        W25165  21.107  15.683   1.874
53440W        W25166  44.907  39.916  12.632
53441W        W25167   3.458  30.051   4.153
53442W        W25168  26.090  17.790  12.605
53443W        W25169  30.753  19.192   2.916
53444W        W25170  38.532  42.403  10.741
53445W        W25171   0.219  21.069  11.561
53446W        W25172  13.117  23.911  14.879
53447W        W25173  31.699  21.649   1.230
53448W        W25174   4.807   4.015  10.748
53449W        W25175  27.182  42.411   2.215
53450W        W25176  11.706   5.900   3.246
53451W        W25177  18.403  31.918   1.379
53452W        W25178   2.084  38.264  11.662
53453W        W25179  37.495   6.486   4.856
53454W        W25180   3.931  37.530  14.990
53455W        W25181  15.065  34.088   0.391
53456W        W25182  15.152  16.765   0.862
53457W        W25183  20.176  34.602   3.418
53458W        W25184  27.582  14.059   0.463
53459W        W25185   6.932  35.204   2.714
53460W        W25186  17.265  30.350  14.302
53461W        W25187   1.566  34.869  13.957
53462W        W25188  21.251  22.147   3.172
53463W        W25189  27.216   4.734   2.988
53464W        W25190   2.793  36.686  10.744
53465W        W25191   5.925  37.155   3.758
53466W        W25192  15.757  22.568  14.351
53467W        W25193  18.194  40.342   4.796
53468W        W25194  16.626  36.068   2.789
53469W        W25195  15.664   2.234  14.892
53470W        W25196  15.706   3.115   4.898
53471W        W25197   5.311  18.277   4.649
53472W        W25198   9.363   2.694   2.115
53473W        W25199  18.765  11.818   3.177
53474W        W25200   1.191  15.329  13.911
53475W        W25201  16.907  38.186   5.033
53476W        W25202  40.220  32.430  10.646
53477W        W25203   6.027  12.936   3.273
53478W        W25204   0.996   3.588  12.973
53479W        W25205  23.417   3.006  12.446
53480W        W25206  13.630   5.805   2.335
53481W        W25207  31.621  18.141  13.155
53482W        W25208  39.370   7.188   4.273
53483W        W25209  40.239  35.389  11.224
53484W        W25210  37.940   3.186   4.898
53485W        W25211  27.495  31.601  13.351
53486W        W25212  18.877   2.336  13.616
53487W        W25213  19.848  34.993  14.276
53488W        W25214  20.169  23.145   2.215
53489W        W25215  31.437  15.614   0.303
53490W        W25216   5.917  19.175  12.390
53491W        W25217  35.550  43.935   3.555
53492W        W25218  24.146   0.209  12.966
53493W        W25219  18.356  35.833  12.640
53494W        W25220  41.804  33.017  11.700
53495W        W25221  42.507  43.287   1.187
53496W        W25222  21.799  22.912   1.293
53497W        W25223  30.101  20.541   4.049
53498W        W25224  25.424  32.409  13.858
53499W        W25225  31.481  38.412   2.334
53500W        W25226  36.398  38.326  11.672
53501W        W25227   1.977  27.831   1.420
53502W        W25228  18.946   9.751   4.069
53503W        W25229  27.501  24.782   0.774
53504W        W25230  13.610   7.201   0.739
53505W        W25231  27.304  14.182  12.827
53506W        W25232  43.405  43.792  13.759
53507W        W25233   8.038  29.510   1.934
53508W        W25234  37.553  40.298  12.461
53509W        W25235  14.107  30.483  13.962
53510W        W25236  14.259   7.421  10.543
53511W        W25237  16.681  18.331   4.523
53512W        W25238   8.020   2.374  12.491
53513W        W25239  37.320   0.040   3.741
53514W        W25240  34.433  28.861   3.772
53515W        W25241  20.248   8.895   2.631
53516W        W25242  35.043  38.404   0.723
53517W        W25243  42.353  20.000   1.390
53518W        W25244  26.682   2.280   4.667
53519W        W25245  13.068  42.341  13.398
53520W        W25246  40.376   1.210   2.193
53521W        W25247   2.017   9.275  13.418
53522W        W25248  12.475  11.461  11.111
53523W        W25249  36.067  29.033  12.572
53524W        W25250   7.745   7.124   0.344
53525W        W25251  40.824  43.306   1.893
53526W        W25252  30.957   3.698  12.893
53527W        W25253  30.002   2.902  12.512
53528W        W25254   7.744  10.246   0.178
53529W        W25255  34.240   9.214  14.967
53530W        W25256  20.567   9.379   2.397
53531W        W25257  30.434  25.075  14.797
53532W        W25258  23.198  23.660  12.555
53533W        W25259  21.971  25.799  14.036
53534W        W25260  14.672  41.307   2.286
53535W        W25261  24.129  14.214   1.925
53536W        W25262  31.029  44.836   1.615
53537W        W25263  10.352  16.299  12.934
53538W        W25264  24.039   5.378   0.348
53539W        W25265   9.274  25.571   2.275
53540W        W25266   0.945  21.838  10.940
53541W        W25267  15.333  34.070   0.838
53542W        W25268  25.235  10.276  12.482
53543W        W25269  37.091  17.154  11.541
53544W        W25270  30.849  34.864   3.737
53545W        W25271  14.689   8.646   4.574
53546W        W25272  15.712  38.660  11.068
53547W        W25273  25.171  38.075  14.398
53548W        W25274   8.317  20.549   1.890
53549W        W25275   5.782   2.501  12.911
53550W        W25276  31.303  21.500  12.289
53551W        W25277  30.069  36.671   2.693
53552W        W25278   1.169   7.424   3.300
53553W        W25279  40.802   2.383   2.339
53554W        W25280  11.963  35.260  12.970
53555W        W25281  24.246  35.522  10.927
53556W        W25282   1.947  44.929   0.124
53557W        W25283   3.693   6.525  14.974
53558W        W25284   4.307  15.369  11.529
53559W        W25285  32.681  41.879  12.426
53560W        W25286  32.661  19.996  12.435
53561W        W25287  14.350  23.748  14.884
53562W        W25288   4.660  35.953   1.343
53563W        W25289  26.439  15.765  12.535
53564W        W25290   6.709  34.542   2.004
53565W        W25291  19.758  37.333  11.686
53566W        W25292  33.039  40.964   2.276
53567W        W25293   5.140  25.423   2.284
53568W        W25294  32.169  16.699  12.104
53569W        W25295  11.891  40.286   4.990
53570W        W25296  22.254  37.345   2.353
53571W        W25297  17.361  23.998   2.669
53572W        W25298  44.804  30.434   4.700
53573W        W25299  25.264  19.104   4.372
53574W        W25300  37.389   8.692   2.660
53575W        W25301  34.580  21.066  12.083
53576W        W25302  25.046  29.484  11.660
53577W        W25303  32.415  13.594  12.591
53578W        W25304  39.570   0.893   1.086
53579W        W25305  32.561  33.147  11.428
53580W        W25306  18.552  36.189   4.699
53581W        W25307  23.986   8.759  13.768
53582W        W25308  37.464  12.069   2.305
53583W        W25309  44.791  38.949  10.660
53584W        W25310  24.716  32.323   2.753
53585W        W25311  37.546  22.791  12.877
53586W        W25312  22.660  32.953   3.636
53587W        W25313  13.613  26.102  14.549
53588W        W25314  15.318  38.083  12.923
53589W        W25315   6.925  29.153   3.543
53590W        W25316  34.994  39.452  11.648
53591W        W25317  22.982  39.755  12.622
53592W        W25318  39.111  43.872  11.573
53593W        W25319  42.276  10.914   4.594
53594W        W25320  29.485   5.786  10.501
53595W        W25321  34.473  22.137  12.602
53596W        W25322  19.865  20.769   1.666
53597W        W25323  39.125  26.981   4.276
53598W        W25324  15.094  23.231   2.118
53599W        W25325  22.067   5.870   0.174
53600W        W25326  20.164   5.684   3.220
53601W        W25327   6.768   3.101  11.040
53602W        W25328  25.591   0.173   2.906
53603W        W25329  35.461  21.689  14.357
53604W        W25330  25.783  30.305   0.609
53605W        W25331  10.743  44.929  10.963
53606W        W25332  15.568  24.134   3.199
53607W        W25333  10.960  15.068  13.050
53608W        W25334  27.663   6.429  10.451
53609W        W25335  13.600  22.664   2.126
53610W        W25336  34.994  25.146   0.731
53611W        W25337  35.449  35.283  11.060
53612W        W25338  35.894   9.176   2.372
53613W        W25339  32.426  43.615   2.443
53614W        W25340  12.303  19.828  12.018
53615W        W25341  10.394  13.301   2.412
53616W        W25342  40.086  37.441   1.699
53617W        W25343  34.525  28.560  13.948
53618W        W25344  16.327  31.449  11.501
53619W        W25345  24.697   4.932   4.257
53620W        W25346  35.139  32.781  12.067
53621W        W25347   0.463  22.048  10.854
53622W        W25348  43.821  33.354   1.234
53623W        W25349   2.491  30.477  10.500
53624W        W25350  37.013   1.669  11.569
53625W        W25351  39.759  25.561  12.473
53626W        W25352  28.569  14.141   4.700
53627W        W25353  39.649  37.600   2.457
53628W        W25354  35.422   3.753  12.669
53629W        W25355  35.520  15.420  13.986
53630W        W25356  36.871  26.485   3.400
53631W        W25357  22.601  25.734   2.823
53632W        W25358  30.061  22.728   4.609
53633W        W25359  29.067  36.237   3.818
53634W        W25360  33.401  12.684   1.874
53635W        W25361  36.840  19.262  13.403
53636W        W25362  24.834   3.354   4.192
53637W        W25363  17.287   3.197  14.762
53638W        W25364  23.466  37.419   0.744
53639W        W25365  24.622  29.617   3.854
53640W        W25366  36.264  30.561   2.631
53641W        W25367  27.680  26.275   1.896
53642W        W25368   9.058  25.834   1.393
53643W        W25369  24.020  34.991   1.912
53644W        W25370  38.842  28.033  14.058
53645W        W25371   2.312   5.430  11.580
53646W        W25372   1.376   8.315  12.719
53647W        W25373  34.994  23.998  12.931
53648W        W25374  38.973  36.011  13.970
53649W        W25375   0.381  33.804   2.376
53650W        W25376  37.936   7.246  12.047
53651W        W25377   6.694  38.126   0.467
53652W        W25378  14.242   7.158   2.342
53653W        W25379  38.065   5.412  11.407
53654W        W25380   3.782  13.170   2.823
53655W        W25381  24.544  17.243  14.871
53656W        W25382  15.227  24.121  11.719
53657W        W25383  22.140  43.348   4.413
53658W        W25384   3.850   0.271   1.182
53659W        W25385  14.678  12.914   1.805
53660W        W25386  27.713  30.632   3.791
53661W        W25387   8.290   7.626  11.495
53662W        W25388  32.375   8.713  13.052
53663W        W25389  14.472  32.662  13.572
53664W        W25390  21.005   4.813  12.990
53665W        W25391   3.501  11.686   0.487
53666W        W25392  32.492   9.748  12.936
53667W        W25393   1.898   8.696   0.440
53668W        W25394   9.690  39.017  13.050
53669W        W25395   9.835   2.085  11.745
53670W        W25396  29.723  43.914  11.444
53671W        W25397  27.373   1.947   0.406
53672W        W25398  43.379  38.112   3.481
53673W        W25399  22.140  31.157  11.526
53674W        W25400  26.638   2.678  14.556
53675W        W25401  21.393  14.629   4.198
53676W        W25402   2.191  21.254  10.212
53677W        W25403  33.309  21.229   0.493
53678W        W25404  35.488   6.796  14.252
53679W        W25405  44.032  12.698   4.189
53680W        W25406  21.442  33.580  14.931
53681W        W25407  29.122  29.534   4.985
53682W        W25408  17.995  18.845  11.047
53683W        W25409  21.156  43.810   4.814
53684W        W25410  23.100  41.815   2.188
53685W        W25411   4.676  12.654   5.052
53686W        W25412  14.829  17.512  12.623
53687W        W25413   8.260   1.266   4.645
53688W        W25414  38.978  30.555   2.432
53689W        W25415  32.912   1.272  10.986
53690W        W25416  24.649   3.501  10.709
53691W        W25417  44.513  31.388  12.543
53692W        W25418  12.729  22.710  11.772
53693W        W25419  35.154   2.058  13.774
53694W        W25420  21.117   9.523   0.975
53695W        W25421  35.509   0.770  14.143
53696W        W25422  19.815  25.585   4.780
53697W        W25423  33.945   2.836  11.956
53698W        W25424  26.377  14.571   3.909
53699W        W25425  20.641  13.129  13.287
53700W        W25426  43.252  23.256  11.816
53701W        W25427   6.697   2.516  10.997
53702W        W25428  41.620   2.965  14.781
53703W        W25429  17.739  44.791  12.420
53704W        W25430   4.317  23.844  12.327
53705W        W25431  33.805  11.805  10.326
53706W        W25432  37.906  15.189   0.304
53707W        W25433  15.698  35.059  14.552
53708W        W25434  37.843  26.575  11.147
53709W        W25435  36.110   3.213   0.648
53710W        W25436  22.059   8.010  11.878
53711W        W25437   2.462  26.195  10.378
53712W        W25438  42.034  25.616   3.143
53713W        W25439  37.464  11.403  11.430
53714W        W25440  23.936  39.973   2.897
53715W        W25441  19.218  44.265  13.046
53716W        W25442   4.497   3.387   3.724
53717W        W25443  24.160  21.025   0.214
53718W        W25444  22.770   9.075  13.030
53719W        W25445  26.184  19.889  13.337
53720W        W25446  16.056  22.983  13.495
53721W        W25447  40.993  15.188   1.342
53722W        W25448  11.664  29.696   4.628
53723W        W25449  26.402   4.489   0.200
53724W        W25450  32.652  20.444  13.415
53725W        W25451  25.165  22.479  13.848
53726W        W25452  19.804  16.309  12.807
53727W        W25453  25.053  32.967  11.992
53728W        W25454  31.637  21.159  12.500
53729W        W25455  29.496  43.033  11.424
53730W        W25456  13.670  25.072   0.886
53731W        W25457   8.444  18.076  13.505
53732W        W25458  26.417   6.478   4.628
53733W        W25459  14.893  34.950  12.886
53734W        W25460   1.713  13.308  13.116
53735W        W25461   8.347  12.112   1.290
53736W        W25462   2.007  22.737   4.188
53737W        W25463   6.601  27.683   4.225
53738W        W25464  11.140  38.971  14.029
53739W        W25465  27.045  18.337  14.851
53740W        W25466   3.785  42.830   4.092
53741W        W25467  33.500  18.457   4.134
53742W        W25468  35.195   1.290   4.193
53743W        W25469  41.789  15.184  12.020
53744W        W25470  43.339  22.359   1.703
53745W        W25471  31.245  33.655   0.039
53746W        W25472  31.039  31.021   1.387
53747W        W25473  36.525  12.865   2.864
53748W        W25474  36.454  30.087  13.787
53749W        W25475  12.361  12.710  10.704
53750W        W25476  26.707  20.691  13.901
53751W        W25477  15.803   3.527   0.390
53752W        W25478  32.734  18.938  11.966
53753W        W25479   6.523   6.291   0.367
53754W        W25480  33.966  12.764   4.786
53755W        W25481   1.571  31.974  10.679
53756W        W25482  22.032   6.299   1.816
53757W        W25483   4.026  42.875   0.639
53758W        W25484  28.427  16.722   2.846
53759W        W25485  17.771   1.746  12.433
53760W        W25486   9.076  23.890   3.756
53761W        W25487  40.837   7.236  14.551
53762W        W25488  11.302  11.504   3.206
53763W        W25489  36.759  17.721   0.817
53764W        W25490  41.737  18.513   2.763
53765W        W25491  20.260   1.666   3.644
53766W        W25492  31.441  38.041   1.687
53767W        W25493   5.809  36.398   4.798
53768W        W25494   7.439   6.512   3.876
53769W        W25495  19.779  20.037   0.779
53770W        W25496  37.115  25.217   1.308
53771W        W25497  42.992  30.616  12.836
53772W        W25498   3.331  41.897   2.202
53773W        W25499  34.891  29.098   3.981
53774W        W25500  19.312  43.412  14.032
53775W        W25501  30.901  20.696   2.322
53776W        W25502  14.126  42.622  11.389
53777W        W25503  42.238  18.727  13.860
53778W        W25504  11.406  31.636   4.224
53779W        W25505  38.512  27.636  11.527
53780W        W25506  25.232  37.476   4.131
53781W        W25507  41.327  29.377  12.892
53782W        W25508  25.280  27.170   3.437
53783W        W25509  26.239  20.058  13.941
53784W        W25510   5.913  20.284  13.352
53785W        W25511  37.720   3.342  12.416
53786W        W25512  10.618  34.177   4.510
53787W        W25513  26.857   1.435   0.897
53788W        W25514  10.490   9.646  13.073
53789W        W25515  42.908   6.277   3.197
53790W        W25516  15.620   3.736  12.024
53791W        W25517  26.189  13.128   1.004
53792W        W25518  26.270  39.293  12.047
53793W        W25519  32.042  44.510   0.997
53794W        W25520  10.784  32.910   2.074
53795W        W25521  34.300  10.353   2.933
53796W        W25522  38.769   9.671   0.349
53797W        W25523  21.326  22.116  14.210
53798W        W25524  44.434  18.189   3.836
53799W        W25525  23.729  30.376   0.888
53800W        W25526  15.273  11.268   1.379
53801W        W25527   9.310  21.787  13.072
53802W        W25528  20.557   8.867  14.404
53803W        W25529  17.666  42.500  13.956
53804W        W25530  24.408   0.682  12.479
53805W        W25531  27.884  15.159   2.166
53806W        W25532  43.930  30.931  12.835
53807W        W25533  15.795  31.610  12.561
53808W        W25534  15.782  15.047  13.065
53809W        W25535  39.875  27.652  14.391
53810W        W25536  12.851  20.494   4.116
53811W        W25537  32.650  38.366  12.528
53812W        W25538   3.377  42.951  12.866
53813W        W25539  37.026  21.462  13.078
53814W        W25540  12.606  32.022   9.867
53815W        W25541  19.140  16.307  13.424
53816W        W25542  27.017  35.870  10.666
53817W        W25543  31.657  41.065  12.117
53818W        W25544  33.463  13.405  11.621
53819W        W25545   5.217  29.799   3.656
53820W        W25546  16.648  40.623  12.215
53821W        W25547  18.143  44.282   5.046
53822W        W25548   0.858   1.333  11.175
53823W        W25549  40.975  15.497  13.108
53824W        W25550  13.768  39.979   3.687
53825W        W25551  17.656  44.197  11.541
53826W        W25552  33.607  31.219   0.555
53827W        W25553  41.344  34.654  14.573
53828W        W25554  20.142   8.674   3.626
53829W        W25555   6.424  39.818   4.448
53830W        W25556   9.631  37.547   2.364
53831W        W25557   5.171   8.612   0.922
53832W        W25558  25.646  10.865   0.919
53833W        W25559  35.593   8.634   0.195
53834W        W25560  25.484   5.786   2.697
53835W        W25561   4.365  12.125  10.646
53836W        W25562  24.543   3.288  13.812
53837W        W25563  23.035   2.952  12.090
53838W        W25564   0.860  30.383  13.326
53839W        W25565  19.260  11.576  14.235
53840W        W25566   0.995   7.186   4.613
53841W        W25567  35.990  30.435  14.030
53842W        W25568  35.398  43.805  13.519
53843W        W25569  40.300  34.133  11.750
53844W        W25570  22.649  34.453   2.108
53845W        W25571  39.228   1.198   2.870
53846W        W25572  35.682  10.929  12.096
53847W        W25573   7.853  11.653  11.049
53848W        W25574   7.743   9.537  12.944
53849W        W25575  13.784  44.122  11.666
53850W        W25576   1.317  12.540  11.251
53851W        W25577  38.516  33.660   2.920
53852W        W25578  34.713  26.735  13.531
53853W        W25579  36.984  11.250   2.164
53854W        W25580  23.626  22.132  11.191
53855W        W25581   6.090   6.645  11.880
53856W        W25582  16.723  26.433  10.748
53857W        W25583   4.958  29.211  14.884
53858W        W25584  23.146  10.142  10.321
53859W        W25585  23.365  38.719   3.246
53860W        W25586  26.726   0.757   4.514
53861W        W25587  22.202  27.377  12.012
53862W        W25588  25.977   7.571  11.148
53863W        W25589  36.591  36.571   3.268
53864W        W25590   4.993  10.096  13.978
53865W        W25591   6.393  36.092   4.596
53866W        W25592  36.845  16.045   1.293
53867W        W25593  27.014  33.977  14.417
53868W        W25594  44.477   0.452   4.248
53869W        W25595  34.440  25.530   3.249
53870W        W25596  40.124   3.253   2.519
53871W        W25597  22.539  25.618   9.794
53872W        W25598   4.971  39.355   1.777
53873W        W25599  18.660  16.634   1.786
53874W        W25600  41.604  38.492  11.116
53875W        W25601  22.509   8.694   4.461
53876W        W25602  42.531  38.022  13.509
53877W        W25603  26.351  42.704  13.583
53878W        W25604   4.817  36.908   2.738
53879W        W25605  25.233  35.372  11.642
53880W        W25606  39.743  14.509  10.432
53881W        W25607  22.364  43.484  13.352
53882W        W25608  34.973  15.158  14.375
53883W        W25609  16.120  25.530   0.667
53884W        W25610  12.554  35.950  13.428
53885W        W25611  22.713   5.914   0.428
53886W        W25612  18.645  37.584   1.381
53887W        W25613  42.406  24.592  14.088
53888W        W25614  26.591  23.957   3.744
53889W        W25615  42.827   5.305  11.257
53890W        W25616  21.221  21.547   4.372
53891W        W25617  27.739  25.554   0.446
53892W        W25618  15.225  43.565  13.889
53893W        W25619   1.228  24.259  14.419
53894W        W25620   5.197  10.545   1.788
53895W        W25621  23.517  28.213   4.046
53896W        W25622  33.858  23.038   1.929
53897W        W25623  35.998  26.715   2.567
53898W        W25624  11.547  22.999  11.424
53899W        W25625  31.124  33.429   3.302
53900W        W25626   5.359  43.406  12.869
53901W        W25627   4.744  40.828  13.023
53902W        W25628  40.583  18.725  12.436
53903W        W25629  16.921  21.706   3.126
53904W        W25630  13.433  18.846  13.580
53905W        W25631  16.650   3.765  14.991
53906W        W25632  37.464  20.511   0.324
53907W        W25633  10.151   9.868  11.078
53908W        W25634  36.287  13.269  14.832
53909W        W25635  26.588  19.717  10.587
53910W        W25636  22.670  17.732  14.135
53911W        W25637  17.565  43.456   4.811
53912W        W25638  20.321  13.956   4.253
53913W        W25639  18.161  38.937  11.543
53914W        W25640  39.612   8.263  14.735
53915W        W25641  20.170  31.812  13.107
53916W        W25642   7.666  26.680  13.992
53917W        W25643  43.365  22.124   4.858
53918W        W25644  34.667   7.730  11.240
53919W        W25645  29.038  23.339   1.718
53920W        W25646  25.591  14.322   4.209
53921W        W25647  13.144   5.401   4.487
53922W        W25648   4.354  26.473   4.120
53923W        W25649  10.659  38.464   1.715
53924W        W25650  12.756  35.617  12.535
53925W        W25651  26.395   7.903  11.093
53926W        W25652  10.919  20.669   3.304
53927W        W25653  44.851  15.725  11.061
53928W        W25654   1.960   4.531   4.423
53929W        W25655   2.374  36.761  13.532
53930W        W25656  41.017  17.095  11.190
53931W        W25657  32.807  24.776  12.434
53932W        W25658  23.592   7.885   4.622
53933W        W25659  20.001   1.142   5.047
53934W        W25660  23.627  36.820   4.745
53935W        W25661  13.077  23.871  12.780
53936W        W25662  24.232   6.179  13.904
53937W        W25663  36.659  11.469  13.695
53938W        W25664  17.513  31.688  13.002
53939W        W25665  15.286  23.983  11.226
53940W        W25666   7.705  43.038   1.824
53941W        W25667  25.433  41.693  13.062
53942W        W25668  26.143   0.372   2.163
53943W        W25669  33.459   8.194  12.548
53944W        W25670  33.763  43.253   2.357
53945W        W25671  24.632  35.904   4.200
53946W        W25672  41.435  39.229   4.680
53947W        W25673  19.987  35.979  11.935
53948W        W25674  26.786  21.037   4.728
53949W        W25675  40.419  33.181  11.957
53950W        W25676  33.908  27.435   0.313
53951W        W25677  38.092  35.686  13.903
53952W        W25678   5.680  27.362   2.332
53953W        W25679  16.981  15.012   3.624
53954W        W25680  21.646   4.850   3.651
53955W        W25681  33.472  42.441   1.686
53956W        W25682  33.051  25.352  12.887
53957W        W25683  36.995  26.754   1.113
53958W        W25684  29.663  41.598  14.831
53959W        W25685  39.812  24.644   1.883
53960W        W25686  35.805  12.713  11.069
53961W        W25687  44.153  35.317   2.738
53962W        W25688  26.048  42.478  10.876
53963W        W25689  12.774   9.704   0.533
53964W        W25690   4.473  30.571  11.559
53965W        W25691  15.166  15.383  14.514
53966W        W25692  43.994  34.147  12.925
53967W        W25693  37.319   9.368   0.928
53968W        W25694  37.375  22.087  13.359
53969W        W25695  27.872   2.589   0.007
53970W        W25696  15.347  40.445  14.962
53971W        W25697   2.465  38.435  13.787
53972W        W25698  22.950  38.235   1.765
53973W        W25699   6.411   0.468  11.501
53974W        W25700   7.282   4.753   9.879
53975W        W25701  39.825  21.939   3.620
53976W        W25702  37.432  31.542   2.430
53977W        W25703  37.603  26.046   3.546
53978W        W25704   1.483  22.933   3.635
53979W        W25705  33.341  25.224   4.297
53980W        W25706  16.043  20.110  10.215
53981W        W25707  17.061  20.755  12.495
53982W        W25708  34.536  16.083  13.064
53983W        W25709  44.273  36.351  12.705
53984W        W25710  22.238   3.341  10.599
53985W        W25711  21.771  38.931   1.356
53986W        W25712  24.516  38.372  13.549
53987W        W25713  12.772  38.106   3.416
53988W        W25714   5.804  44.626  11.811
53989W        W25715   4.388  36.883   3.689
53990W        W25716   5.265  29.040   4.551
53991W        W25717   6.201  33.069  12.444
53992W        W25718  40.139   4.233  12.114
53993W        W25719  34.973  18.554   4.614
53994W        W25720  17.502   1.438  13.312
53995W        W25721  11.933  10.381  14.285
53996W        W25722   5.622   9.617   4.324
53997W        W25723  32.177  25.105   1.430
53998W        W25724  36.933  31.969   4.572
53999W        W25725  44.780  10.347  10.763
54000W        W25726  12.742   4.877   3.226
54001W        W25727  36.595  16.676  12.921
54002W        W25728  22.276  40.362   0.277
54003W        W25729  11.862  44.011   3.836
54004W        W25730   5.278  15.584   4.743
54005W        W25731  35.750  11.754  14.757
54006W        W25732   2.130  12.362   2.708
54007W        W25733  36.527  41.233  10.747
54008W        W25734   5.708   3.152  14.744
54009W        W25735  34.674  31.740   2.292
54010W        W25736   5.675  41.293   0.122
54011W        W25737   4.986  15.067  11.174
54012W        W25738   7.496  40.241  14.721
54013W        W25739  43.535  39.540  11.540
54014W        W25740   1.934   3.494  12.813
54015W        W25741  12.179   1.658  13.518
54016W        W25742  41.280  24.962   2.216
54017W        W25743   1.809  39.976   4.978
54018W        W25744  36.470  25.426  14.117
54019W        W25745  38.479  24.664   4.241
54020W        W25746  30.872  19.984  11.135
54021W        W25747  34.206   4.796   0.388
54022W        W25748  25.210  12.284   2.162
54023W        W25749  15.638  26.731   0.136
54024W        W25750  26.028  17.941  10.331
54025W        W25751  10.176  24.222  12.908
54026W        W25752  15.150   1.983  13.895
54027W        W25753  44.560  23.407   2.609
54028W        W25754  39.267   7.732   2.411
54029W        W25755   9.665   5.526  14.194
54030W        W25756  32.580  15.544  10.017
54031W        W25757  20.794  16.392   4.359
54032W        W25758  35.605  40.046  12.527
54033W        W25759  16.349  21.499  14.452
54034W        W25760  31.005  34.338  13.215
54035W        W25761  37.656   2.723   5.078
54036W        W25762  16.647  37.584  13.016
54037W        W25763   6.930  44.701   0.173
54038W        W25764  20.474  40.481  11.542
54039W        W25765   8.645  40.448  11.963
54040W        W25766   9.185  42.126  11.904
54041W        W25767  27.360  42.563   0.644
54042W        W25768  28.963  44.410   1.932
54043W        W25769  42.752  16.651  14.565
54044W        W25770  35.565   3.185   4.590
54045W        W25771  28.379   9.597  10.405
54046W        W25772   1.769   6.790   0.331
54047W        W25773  24.163  15.470   3.889
54048W        W25774  39.951  39.569   3.099
54049W        W25775  40.810   8.318   2.706
54050W        W25776  16.701  13.513   0.058
54051W        W25777   1.518  35.559   4.217
54052W        W25778  34.853  28.532   0.163
54053W        W25779  42.418  26.031   0.997
54054W        W25780  12.644  29.171   3.387
54055W        W25781   7.629  37.337   4.135
54056W        W25782  42.344  12.875  13.421
54057W        W25783   8.761  23.183   2.140
54058W        W25784  26.512  21.556   3.825
54059W        W25785  25.108  25.962  14.106
54060W        W25786  16.711   9.350  13.479
54061W        W25787  29.984   6.921  14.568
54062W        W25788  25.243  23.834  11.009
54063W        W25789  42.337  37.456   0.673
54064W        W25790  41.007  40.962   1.279
54065W        W25791   6.335   6.208   4.095
54066W        W25792  22.179  25.659   4.496
54067W        W25793  17.256   8.881   4.472
54068W        W25794  15.717  38.046   1.899
54069W        W25795  20.445  33.741  14.974
54070W        W25796  37.515  13.357  11.997
54071W        W25797  23.070  21.268   4.091
54072W        W25798  12.681  32.403   2.327
54073W        W25799  30.680  27.147  10.524
54074W        W25800  26.060  32.146   2.895
54075W        W25801   6.730  18.163   0.813
54076W        W25802   1.757  31.291   2.694
54077W        W25803   4.921  19.744   2.788
54078W        W25804  13.339   8.840  12.030
54079W        W25805  23.712   7.927   2.167
54080W        W25806  15.147   3.523  11.991
54081W        W25807  16.444   0.485   1.317
54082W        W25808  25.308  21.632   1.225
54083W        W25809  35.590  44.287  14.222
54084W        W25810  18.508   8.206  11.990
54085W        W25811  43.709  38.488  12.909
54086W        W25812  10.632  15.942   4.089
54087W        W25813  13.680  35.862   1.590
54088W        W25814  38.742  16.736  14.323
54089W        W25815   6.336  12.061  11.575
54090W        W25816  41.327  14.398  11.101
54091W        W25817  32.127  26.561   3.687
54092W        W25818  24.935  44.737   1.786
54093W        W25819  27.327   9.262  14.339
54094W        W25820  38.379  23.915   1.897
54095W        W25821  10.632  19.090  11.069
54096W        W25822   8.240   2.953  14.819
54097W        W25823  17.611  30.986   4.573
54098W        W25824  19.586  42.866   0.740
54099W        W25825   7.488   8.112   0.066
54100W        W25826  29.744  43.291  14.251
54101W        W25827  18.514  22.163  13.771
54102W        W25828  28.247   7.168   1.599
54103W        W25829  10.407  18.722  14.535
54104W        W25830  20.119  11.248  10.401
54105W        W25831  27.195  27.980  10.887
54106W        W25832  44.207   1.925  10.380
54107W        W25833  38.619  39.681   2.832
54108W        W25834  42.004   2.001  11.145
54109W        W25835  40.436  16.396  10.771
54110W        W25836   6.691   7.114  13.900
54111W        W25837  27.208  40.451  11.775
54112W        W25838   1.420  11.910   4.210
54113W        W25839   9.314  26.206   9.771
54114W        W25840  29.817  38.298  14.885
54115W        W25841   0.961  11.675   1.695
54116W        W25842  14.886  40.417   4.224
54117W        W25843   8.631  30.346   2.474
54118W        W25844   2.646  36.386  11.157
54119W        W25845   0.981  43.836   4.172
54120W        W25846  19.557   0.491   4.604
54121W        W25847  26.626   1.468  12.635
54122W        W25848   3.523  34.490   0.125
54123W        W25849  32.996   9.831   3.742
54124W        W25850  10.999  25.265  11.551
54125W        W25851  32.344  37.947  14.493
54126W        W25852   5.113  29.509  14.030
54127W        W25853  39.447  15.854  12.374
54128W        W25854  18.566   6.798  12.077
54129W        W25855  29.380  24.972  14.815
54130W        W25856  25.004   1.318   1.383
54131W        W25857  42.408  20.075   2.799
54132W        W25858  27.639  15.811  13.762
54133W        W25859  44.792  26.529  11.415
54134W        W25860   9.136   9.968  11.185
54135W        W25861  23.739   8.253  14.292
54136W        W25862  16.078   5.632   2.197
54137W        W25863  27.629  42.768   0.255
54138W        W25864  26.080  16.804   0.332
54139W        W25865  43.304  39.213  12.591
54140W        W25866  22.166  16.318   0.818
54141W        W25867   4.167  35.762  13.726
54142W        W25868  15.632  21.919  12.899
54143W        W25869  30.711  21.134  11.637
54144W        W25870  12.716  20.669   0.613
54145W        W25871  38.394  26.400   3.216
54146W        W25872  22.337  15.647   4.649
54147W        W25873  43.706  28.117  10.685
54148W        W25874   7.195  39.866   4.841
54149W        W25875  31.049  12.868  10.438
54150W        W25876   4.823  36.789  12.946
54151W        W25877   1.414  23.018  14.156
54152W        W25878  30.809  23.055   2.187
54153W        W25879  40.223   8.204   0.406
54154W        W25880   2.964  43.439   2.724
54155W        W25881  26.277  21.876   1.629
54156W        W25882  17.962  13.139   0.380
54157W        W25883  38.022  19.952  12.887
54158W        W25884  38.265   8.387   2.159
54159W        W25885  25.493  42.692  13.342
54160W        W25886  17.449   0.560  11.389
54161W        W25887  25.178  19.881   1.427
54162W        W25888  12.530   4.011   1.302
54163W        W25889  11.177  39.050   3.708
54164W        W25890  11.063  13.367  11.669
54165W        W25891  19.294  13.124  11.413
54166W        W25892  38.954  34.966  13.612
54167W        W25893   1.942  25.364  11.316
54168W        W25894  21.523  31.551  14.889
54169W        W25895  10.780  27.108   4.951
54170W        W25896  27.766  17.167   3.792
54171W        W25897  26.422  14.009   4.620
54172W        W25898  23.183  15.939  11.110
54173W        W25899   7.712  18.231   3.658
54174W        W25900  26.172  10.574   0.096
54175W        W25901  19.168  43.176   2.200
54176W        W25902  23.923  44.928  13.837
54177W        W25903  19.690  33.587   1.826
54178W        W25904  40.687  25.477   3.440
54179W        W25905  32.606  22.467   2.157
54180W        W25906  16.728  35.866   3.757
54181W        W25907  41.483  26.890  11.048
54182W        W25908  37.298  22.066  12.146
54183W        W25909  40.954  44.735  11.085
54184W        W25910   2.916  13.854   0.454
54185W        W25911  23.220  18.166   3.988
54186W        W25912  13.371   1.740  14.352
54187W        W25913   5.178   4.917  13.322
54188W        W25914   7.987  15.104  13.510
54189W        W25915  32.011  41.828   5.018
54190W        W25916   3.947  16.610   4.656
54191W        W25917  40.169   1.448   4.038
54192W        W25918  34.473  25.684  12.989
54193W        W25919  13.681  33.892   4.124
54194W        W25920  38.324  29.954   2.489
54195W        W25921   8.633  37.337  12.579
54196W        W25922  38.400  11.626   3.163
54197W        W25923   4.899   1.162   0.062
54198W        W25924  43.256  15.215   2.980
54199W        W25925   5.698   7.094   4.131
54200W        W25926  35.135  41.907   3.700
54201W        W25927  10.140  14.222   2.627
54202W        W25928  27.079   8.920  14.012
54203W        W25929  10.371  12.372  13.602
54204W        W25930  15.840  18.841  12.891
54205W        W25931  33.853  26.613   3.348
54206W        W25932   2.791  18.645  10.652
54207W        W25933  28.409  28.644  11.892
54208W        W25934  34.785  15.717   4.111
54209W        W25935  40.898   3.161   0.523
54210W        W25936  43.553  15.085   1.620
54211W        W25937  10.829   0.405  10.721
54212W        W25938  21.205  17.243   4.820
54213W        W25939  13.005  26.149   0.420
54214W        W25940  41.807  24.430  13.294
54215W        W25941   5.826  10.388   4.695
54216W        W25942   8.016  18.169   0.054
54217W        W25943  13.652   5.331  12.398
54218W        W25944  10.619  31.523   4.610
54219W        W25945  36.468   7.629   4.149
54220W        W25946  27.841   6.429  14.910
54221W        W25947   8.631  41.880   2.806
54222W        W25948  18.107   3.845  13.187
54223W        W25949  31.939  31.690   0.718
54224W        W25950  36.068  22.606  13.057
54225W        W25951  22.778  31.363   1.217
54226W        W25952  35.955  15.408   3.415
54227W        W25953   6.748  20.246  14.892
54228W        W25954  13.717  24.959  12.462
54229W        W25955   9.115  16.302  14.453
54230W        W25956  11.101  14.779   4.552
54231W        W25957  38.974   6.800   0.867
54232W        W25958  28.564  17.454   2.351
54233W        W25959   9.762  10.645  13.530
54234W        W25960  37.483  15.660   1.437
54235W        W25961  37.372  19.566  11.854
54236W        W25962  19.825  43.376  13.511
54237W        W25963  33.934  24.113  12.272
54238W        W25964  30.658  13.044  11.196
54239W        W25965  35.518  44.366   3.851
54240W        W25966  31.599  15.622   2.801
54241W        W25967   9.273  18.749   0.475
54242W        W25968  26.599  15.326   4.271
54243W        W25969   1.678   4.334   0.383
54244W        W25970   4.594  41.962  13.590
54245W        W25971  16.691  21.753  14.935
54246W        W25972  23.194   6.504   0.273
54247W        W25973  38.576   4.275  11.579
54248W        W25974   3.150  13.799  14.961
54249W        W25975  41.047   0.264   3.339
54250W        W25976  21.032   5.781  11.606
54251W        W25977   3.469   4.677   9.870
54252W        W25978   5.350   7.901   2.323
54253W        W25979   1.479   9.020   3.194
54254W        W25980  44.796  21.822  11.979
54255W        W25981  23.210  10.600   1.898
54256W        W25982  23.005  14.150  13.516
54257W        W25983  15.780  30.115  10.794
54258W        W25984  42.898   1.367   2.097
54259W        W25985  22.686  11.337   2.140
54260W        W25986   1.703   5.721  10.708
54261W        W25987   3.812  19.181   3.197
54262W        W25988  23.999   4.785   1.605
54263W        W25989  28.998  11.117  12.498
54264W        W25990  36.000  11.306   2.319
54265W        W25991   9.899  29.925  12.383
54266W        W25992   4.997  37.604   1.518
54267W        W25993  24.477  33.344   2.287
54268W        W25994  11.754  22.042  14.371
54269W        W25995  43.598  40.060   0.780
54270W        W25996  20.118  37.497  13.821
54271W        W25997  33.199  37.419   3.690
54272W        W25998   4.248  34.382   1.792
54273W        W25999  20.927  29.157  11.022
54274W        W26000  41.547  18.815   4.133
54275W        W26001  15.401   8.744   1.256
54276W        W26002  27.547  18.781   1.336
54277W        W26003   8.209   4.776   5.536
54278W        W26004  26.965  39.594   4.388
54279W        W26005   6.715  16.576   0.790
54280W        W26006  33.070  36.890   2.235
54281W        W26007  36.937  42.085   3.298
54282W        W26008  28.626  18.762   2.879
54283W        W26009   2.799   2.897   0.419
54284W        W26010  30.447   8.722   2.745
54285W        W26011  29.488  27.724  11.252
54286W        W26012  40.475  41.698   1.475
54287W        W26013  16.813  27.609  10.859
54288W        W26014  24.718   2.931   0.195
54289W        W26015  13.750  19.151  12.606
54290W        W26016  27.642  15.036  12.399
54291W        W26017  36.780  31.142   0.971
54292W        W26018   0.480  29.953  12.423
54293W        W26019  31.515  36.586  10.575
54294W        W26020  14.585  44.191  14.887
54295W        W26021  20.125  24.189   4.501
54296W        W26022   7.234  41.924  13.031
54297W        W26023  19.009  33.063   1.205
54298W        W26024  20.664  31.932   4.263
54299W        W26025  27.435  33.441   1.366
54300W        W26026   2.532  33.650   2.634
54301W        W26027  34.582   2.662  12.545
54302W        W26028  10.027  35.094  14.251
54303W        W26029  38.488  21.259  12.992
54304W        W26030  12.406  10.669  10.681
54305W        W26031   3.955  40.459  10.360
54306W        W26032  14.293  38.752   3.078
54307W        W26033  35.099  11.741   3.690
54308W        W26034  15.408  12.597  12.638
54309W        W26035  25.072   2.199  11.027
54310W        W26036  30.365  22.233  13.040
54311W        W26037  14.279  37.326   1.233
54312W        W26038  19.195  35.410   1.373
54313W        W26039   4.368  31.967   1.368
54314W        W26040  35.105   0.407   4.363
54315W        W26041  15.844  37.386   1.385
54316W        W26042  20.258  15.536  13.943
54317W        W26043  21.227  11.459  11.546
54318W        W26044   3.298  42.961   3.836
54319W        W26045  35.951  26.816   2.048
54320W        W26046   9.914   6.202   1.035
54321W        W26047  41.771  17.668  13.787
54322W        W26048  38.982  39.340   0.393
54323W        W26049   4.669  20.769   4.524
54324W        W26050  21.063  15.779  12.512
54325W        W26051  44.261  34.149  11.612
54326W        W26052  40.498  25.459  10.878
54327W        W26053   7.646  22.825  13.029
54328W        W26054  23.146  19.294   0.189
54329W        W26055  11.244  12.918   2.904
54330W        W26056  39.932  35.102   2.326
54331W        W26057  19.047   0.869   0.284
54332W        W26058  42.428   8.411  12.180
54333W        W26059  37.803  43.611  11.537
54334W        W26060  12.210  32.890   0.997
54335W        W26061  43.907   9.413   3.176
54336W        W26062   1.556   2.006   2.575
54337W        W26063  20.999  27.689   2.732
54338W        W26064  20.277  14.363   1.403
54339W        W26065  14.620   5.925  11.735
54340W        W26066  39.887  12.235  14.366
54341W        W26067   9.879  15.082  10.731
54342W        W26068  26.666  17.130  11.072
54343W        W26069  15.678   5.341   4.229
54344W        W26070  21.851  11.476   4.703
54345W        W26071  28.410  38.040   2.895
54346W        W26072  11.381  30.903   2.951
54347W        W26073  12.092  41.974  12.851
54348W        W26074   7.947   1.983  12.900
54349W        W26075   7.768   0.362  14.202
54350W        W26076  38.029  12.280  12.804
54351W        W26077  14.342  18.563   2.362
54352W        W26078  40.578   9.773   3.643
54353W        W26079  15.761  43.011  12.591
54354W        W26080  32.838  25.715   1.903
54355W        W26081   9.831  35.835   4.490
54356W        W26082   8.753  34.273   4.580
54357W        W26083   1.372  20.497  11.448
54358W        W26084  41.823  40.527  14.745
54359W        W26085  30.830  10.291  11.983
54360W        W26086   5.422   8.148   3.253
54361W        W26087  39.359  13.330  12.016
54362W        W26088   5.651  42.839   2.776
54363W        W26089  41.314  38.960   0.902
54364W        W26090  29.395   2.433  13.859
54365W        W26091  19.553  25.963  13.966
54366W        W26092  37.917   8.185   3.540
54367W        W26093   6.968  35.107   0.700
54368W        W26094  10.167  12.934   1.683
54369W        W26095  17.734   4.303  14.802
54370W        W26096   5.666  25.014  14.868
54371W        W26097  29.783   3.069   2.918
54372W        W26098  13.088  18.272   2.370
54373W        W26099   8.138  28.292  14.629
54374W        W26100  44.753  18.071   0.083
54375W        W26101  13.353  31.091  14.271
54376W        W26102  34.516  27.088   0.808
54377W        W26103  28.476   4.954   2.232
54378W        W26104  32.086  28.044  10.706
54379W        W26105  30.862  14.637   3.142
54380W        W26106  33.562  34.765   3.980
54381W        W26107   1.359  39.999   4.721
54382W        W26108  39.630   0.916  11.315
54383W        W26109  22.406  34.311   4.276
54384W        W26110  22.773  33.450   2.238
54385W        W26111   1.120  32.057   4.211
54386W        W26112  44.015  40.962   0.383
54387W        W26113  35.228  14.842  14.707
54388W        W26114  30.363   2.328  10.920
54389W        W26115  17.381  36.561  12.318
54390W        W26116  21.509  28.100  13.960
54391W        W26117   6.139   6.889   3.457
54392W        W26118   6.124   4.218  10.177
54393W        W26119  33.487   3.731  12.411
54394W        W26120  28.953   5.464   2.252
54395W        W26121  23.489  20.298   1.838
54396W        W26122  10.343  22.296  10.430
54397W        W26123  29.052   3.313  11.031
54398W        W26124  13.879   1.545  14.699
54399W        W26125  31.591  32.920   2.612
54400W        W26126  22.674  36.786   4.609
54401W        W26127  32.417  43.739  13.004
54402W        W26128  18.063  36.047  13.987
54403W        W26129  27.191  32.881  14.953
54404W        W26130   6.651   7.629   2.005
54405W        W26131   1.472   8.832  11.235
54406W        W26132  23.559  42.281   3.300
54407W        W26133   8.861  13.590  13.879
54408W        W26134  18.537   8.894   1.317
54409W        W26135  32.481  33.692  12.463
54410W        W26136  14.593  44.369   1.223
54411W        W26137  22.170  34.116  10.664
54412W        W26138  43.516   3.113  12.635
54413W        W26139  43.834  36.144  11.706
54414W        W26140   5.810  31.368   4.062
54415W        W26141  11.797  32.472   0.258
54416W        W26142  22.497  27.480   4.227
54417W        W26143  16.319  19.726   2.311
54418W        W26144   0.709  38.894   1.817
54419W        W26145  32.834  31.119   4.315
54420W        W26146  38.360  30.444  13.397
54421W        W26147  38.362  14.536   2.669
54422W        W26148  43.182  35.959   3.291
54423W        W26149  11.202  18.649  11.613
54424W        W26150   1.880   4.868   0.272
54425W        W26151  13.562   2.528  12.732
54426W        W26152  13.922  15.685   3.271
54427W        W26153   0.191  14.569   4.520
54428W        W26154  37.897  13.876  13.106
54429W        W26155   8.570  31.955  12.149
54430W        W26156   8.082  17.291  12.150
54431W        W26157  11.840   2.021   0.419
54432W        W26158   1.863   7.980  12.001
54433W        W26159   1.239  36.399  12.102
54434W        W26160  23.277  28.111   1.327
54435W        W26161  24.982   6.710   0.288
54436W        W26162  30.556  36.994  11.791
54437W        W26163  23.879   7.636   0.270
54438W        W26164   1.827  11.754   4.657
54439W        W26165  23.448  31.978   1.387
54440W        W26166  29.554  17.511  12.600
54441W        W26167   6.831   0.604   1.821
54442W        W26168   4.743   1.919   2.317
54443W        W26169  22.973  42.837  13.942
54444W        W26170  31.092  36.860   1.379
54445W        W26171  15.346  13.864   4.255
54446W        W26172   7.350   2.776  12.656
54447W        W26173  40.040  24.070  12.180
54448W        W26174  16.135  23.474   2.099
54449W        W26175   1.746   8.831  13.480
54450W        W26176  10.228  42.980   0.203
54451W        W26177  10.758  41.960   1.561
54452W        W26178  28.056  26.088  10.700
54453W        W26179  19.762  16.070   2.644
54454W        W26180   3.379  17.044   3.309
54455W        W26181  30.916  39.152  13.767
54456W        W26182   1.397   1.795  10.780
54457W        W26183  41.916  43.402  14.953
54458W        W26184  16.274  18.048  12.951
54459W        W26185  28.902   0.907   3.211
54460W        W26186  28.017   5.932   4.093
54461W        W26187  24.757  35.012  10.736
54462W        W26188   9.620  35.757  10.448
54463W        W26189  17.588  31.449  11.192
54464W        W26190  44.726  28.297   1.900
54465W        W26191  34.328  19.225   3.670
54466W        W26192   3.318  22.237   0.651
54467W        W26193  13.845  12.591   0.794
54468W        W26194  12.226  34.856  11.055
54469W        W26195  13.151  33.144   0.268
54470W        W26196  44.376  25.065   0.247
54471W        W26197  15.351  37.818  13.404
54472W        W26198  44.328  32.627   1.522
54473W        W26199  39.671  21.539  13.535
54474W        W26200  32.625   0.265   4.152
54475W        W26201  26.762  24.260   1.125
54476W        W26202   1.498  26.911   0.811
54477W        W26203  31.700  26.459  11.634
54478W        W26204  21.342  23.012  12.658
54479W        W26205  12.791  44.001  10.331
54480W        W26206   4.444  32.513  12.444
54481W        W26207  26.564   3.970  12.614
54482W        W26208  34.558   2.944   4.654
54483W        W26209  42.399   4.430  13.119
54484W        W26210  27.342  17.866   2.463
54485W        W26211   7.896  24.162   3.300
54486W        W26212  38.939  34.422   4.075
54487W        W26213   5.207  33.518  13.918
54488W        W26214  39.031  38.049   4.146
54489W        W26215  13.406  38.048  11.157
54490W        W26216  25.418  44.676  10.604
54491W        W26217  10.154   5.813   4.135
54492W        W26218  37.814  16.655   1.840
54493W        W26219  38.548  14.061   5.045
54494W        W26220  35.071   9.253   0.301
54495W        W26221  22.948  32.455   3.234
54496W        W26222  35.364  17.567   1.811
54497W        W26223   6.646   9.633  12.071
54498W        W26224  42.007  29.080   2.840
54499W        W26225   9.051  35.370   1.845
54500W        W26226  35.362  38.917   2.275
54501W        W26227  34.573   2.287  11.048
54502W        W26228  21.269   7.186   3.294
54503W        W26229  39.992   9.124  11.324
54504W        W26230  35.384   3.853  14.823
54505W        W26231  16.648  19.239   4.293
54506W        W26232   6.827  17.705   2.636
54507W        W26233  36.602  43.885   4.657
54508W        W26234   7.945  16.688   3.692
54509W        W26235  14.541  15.123   2.910
54510W        W26236  24.459  15.143  11.605
54511W        W26237  32.121  28.629   2.624
54512W        W26238  24.994  33.929  14.998
54513W        W26239  42.972  35.030   4.512
54514W        W26240  15.777   0.496   2.822
54515W        W26241   7.742  11.182   0.410
54516W        W26242  35.101   0.335   2.711
54517W        W26243  24.586  14.577   4.528
54518W        W26244  12.704   6.488   1.141
54519W        W26245   7.709   5.559  14.290
54520W        W26246  23.125   8.747  13.942
54521W        W26247  23.488  12.688  11.898
54522W        W26248   8.592  35.850   4.529
54523W        W26249  27.490  35.920  14.564
54524W        W26250   1.095  27.876  12.482
54525W        W26251   6.744  44.443   1.098
54526W        W26252  33.088  10.391  14.609
54527W        W26253  10.490  19.572  13.901
54528W        W26254  34.640  43.312  14.395
54529W        W26255  31.207   7.951  12.428
54530W        W26256  39.274  21.254   1.785
54531W        W26257  33.153  36.055   1.971
54532W        W26258  39.545  33.554   3.938
54533W        W26259  27.746  12.198   3.169
54534W        W26260  30.914  23.734   3.261
54535W        W26261   0.339  23.715  14.859
54536W        W26262  35.588  44.919   3.188
54537W        W26263   5.920  39.320  14.314
54538W        W26264  41.875  14.063  12.450
54539W        W26265   0.486  11.508  13.370
54540W        W26266  35.286  15.887  13.897
54541W        W26267   9.889  24.279   4.140
54542W        W26268  30.403  16.865  14.402
54543W        W26269   5.914  42.043   2.319
54544W        W26270  24.581  38.881  13.345
54545W        W26271  30.897  19.298   1.260
54546W        W26272   4.409   8.936   1.329
54547W        W26273  40.375   6.762   3.352
54548W        W26274  19.273  16.777  10.618
54549W        W26275  42.579  15.320  11.570
54550W        W26276   9.130  34.665   3.748
54551W        W26277  10.774   2.756   3.884
54552W        W26278   0.953  22.732   0.784
54553W        W26279  20.765   2.911  14.306
54554W        W26280   5.888  41.824  11.026
54555W        W26281  17.822  10.349   0.479
54556W        W26282  43.439  30.793  13.530
54557W        W26283  12.589   2.451  11.910
54558W        W26284   4.941  31.907  14.291
54559W        W26285  20.085   0.995   1.302
54560W        W26286  30.016  39.770   1.379
54561W        W26287  43.164  32.286  14.423
54562W        W26288  23.527   6.871  11.645
54563W        W26289  33.984   5.890  13.495
54564W        W26290   7.219  10.740   0.827
54565W        W26291   1.499   5.764   3.171
54566W        W26292   0.090  37.538  12.880
54567W        W26293  35.456   7.697  11.907
54568W        W26294  12.819  23.642  14.032
54569W        W26295  39.292  37.430  11.728
54570W        W26296  17.723  30.728   1.479
54571W        W26297  29.694   8.339  12.385
54572W        W26298  29.458   3.367  14.290
54573W        W26299   0.897  25.730   1.433
54574W        W26300  31.983  10.795   1.867
54575W        W26301  12.452  31.195  12.807
54576W        W26302  19.638  28.169  13.491
54577W        W26303  44.220  44.352   4.834
54578W        W26304  13.281  26.001  10.694
54579W        W26305  34.377  44.034  12.556
54580W        W26306  15.209  21.722  12.683
54581W        W26307  31.402  28.310   4.122
54582W        W26308  34.574  23.763  10.639
54583W        W26309  25.005   9.775  14.511
54584W        W26310  12.746  13.700  13.546
54585W        W26311   0.978  37.497   0.002
54586W        W26312  26.995  26.882   0.005
54587W        W26313  13.117  17.579   1.213
54588W        W26314  32.027  17.170  10.855
54589W        W26315  40.919  27.055  10.733
54590W        W26316   9.275  26.542  12.980
54591W        W26317  40.944  14.471  12.944
54592W        W26318  18.290  27.834  13.449
54593W        W26319  17.969   5.779   0.842
54594W        W26320  40.401  31.827   0.269
54595W        W26321  26.882  40.000   1.286
54596W        W26322  36.344  24.511  10.674
54597W        W26323   0.990  28.920  14.486
54598W        W26324  20.760  41.601   0.273
54599W        W26325  16.260   6.842   4.509
54600W        W26326  23.527  29.575  14.099
54601W        W26327   7.681  25.125   4.561
54602W        W26328  18.577   0.266   2.159
54603W        W26329  14.814   3.774  12.978
54604W        W26330  35.950   2.759  14.371
54605W        W26331  32.531  15.180  11.752
54606W        W26332  37.337  42.893  14.475
54607W        W26333  11.152  43.179  12.442
54608W        W26334  43.943  28.692   3.057
54609W        W26335  27.324  29.914  12.013
54610W        W26336  43.360  44.332  11.971
54611W        W26337  18.103  19.506   3.712
54612W        W26338  28.054  29.902   4.887
54613W        W26339  11.647  24.800  14.800
54614W        W26340  14.014  24.055  11.179
54615W        W26341  18.799   8.075   2.650
54616W        W26342  20.657  10.585   1.657
54617W        W26343   3.902  28.125  11.824
54618W        W26344  26.129   4.293  14.823
54619W        W26345  32.658   3.755   1.009
54620W        W26346  22.953  44.386   1.880
54621W        W26347   8.131  20.272  12.118
54622W        W26348  36.586  25.294  12.119
54623W        W26349  15.310  36.475   0.430
54624W        W26350  36.034  14.084  11.180
54625W        W26351  36.325   8.794   9.778
54626W        W26352  11.363  11.088  12.526
54627W        W26353  11.630  15.404   0.871
54628W        W26354  16.308   5.295   4.542
54629W        W26355  21.860   0.745   0.961
54630W        W26356  29.902  10.360   2.678
54631W        W26357   3.216   5.891  12.489
54632W        W26358  42.833  10.043   4.635
54633W        W26359  34.538  26.158   3.921
54634W        W26360  10.437  28.173  11.213
54635W        W26361   7.074   0.024  14.754
54636W        W26362  30.680  31.188  11.011
54637W        W26363  13.223  15.404  12.913
54638W        W26364   9.063  32.578  13.288
54639W        W26365   9.316  44.023   2.784
54640W        W26366  25.916  28.094  14.991
54641W        W26367  16.098  14.620  11.021
54642W        W26368  22.249  13.728  13.313
54643W        W26369  23.760   1.254  14.718
54644W        W26370   2.293  44.057  13.081
54645W        W26371  16.571  23.475   3.332
54646W        W26372  32.127   3.425   0.944
54647W        W26373  26.995  23.684  14.443
54648W        W26374  11.371  34.715   0.383
54649W        W26375  16.094  42.471  12.039
54650W        W26376  37.948  42.305   0.290
54651W        W26377  22.548   9.623   3.099
54652W        W26378  19.615  16.143   1.281
54653W        W26379  39.863  29.169   0.356
54654W        W26380   2.308  40.747   3.161
54655W        W26381  16.544  10.181  11.557
54656W        W26382  13.815  12.836  13.604
54657W        W26383  43.088  19.828  10.997
54658W        W26384   9.907   3.271   3.760
54659W        W26385  44.914  15.399  14.034
54660W        W26386  29.670  29.387  11.987
54661W        W26387   8.231  29.532   4.315
54662W        W26388  26.480  27.736  13.103
54663W        W26389  16.094  12.623   4.537
54664W        W26390  36.549  10.097  11.222
54665W        W26391   1.412  44.889   0.243
54666W        W26392   9.580  32.428  11.223
54667W        W26393   3.364  23.639  12.239
54668W        W26394  21.088   5.696   3.863
54669W        W26395  22.672  18.306  14.794
54670W        W26396  17.645   0.644   1.810
54671W        W26397   0.204  17.095  12.198
54672W        W26398  42.547   4.288   4.873
54673W        W26399   1.167  42.912  14.938
54674W        W26400  34.292  44.518  12.393
54675W        W26401   6.703  11.311  10.628
54676W        W26402  24.714   3.161  11.670
54677W        W26403  32.203   7.994   0.792
54678W        W26404   8.614  32.030  12.669
54679W        W26405  44.507  27.380   0.209
54680W        W26406  15.531  10.323   1.676
54681W        W26407   8.211  24.954  10.652
54682W        W26408  23.050   8.838   3.344
54683W        W26409   4.276  15.844  12.842
54684W        W26410  26.155  25.715   2.735
54685W        W26411   7.816  15.268  13.063
54686W        W26412  36.664  35.971   2.822
54687W        W26413  21.545  34.871  14.462
54688W        W26414  41.702  30.035  10.369
54689W        W26415  11.985  42.309   0.424
54690W        W26416  37.799  30.740  11.465
54691W        W26417  19.976  37.630   5.174
54692W        W26418  31.698  22.200   2.355
54693W        W26419   1.858   4.688  11.639
54694W        W26420  24.993  22.948   3.124
54695W        W26421   1.842  20.635  13.131
54696W        W26422  19.541  16.108  12.410
54697W        W26423  22.956   7.031   1.721
54698W        W26424  31.092  24.659  14.253
54699W        W26425  43.864  40.281   2.265
54700W        W26426  32.868  33.415  12.678
54701W        W26427  19.286   4.739  11.423
54702W        W26428   6.298  11.161   4.504
54703W        W26429  16.091  39.013   3.592
54704W        W26430  32.567  31.597   2.943
54705W        W26431   7.959  41.855  13.521
54706W        W26432  23.135  39.947   3.161
54707W        W26433  36.829  31.756   3.076
54708W        W26434   2.263  26.783  14.283
54709W        W26435  38.924  34.719  13.131
54710W        W26436   9.183  29.203  14.748
54711W        W26437  25.542  44.841   4.503
54712W        W26438  31.240  10.191   2.468
54713W        W26439  15.154  22.030   1.038
54714W        W26440  30.696  12.046  12.045
54715W        W26441  43.430   5.783  11.549
54716W        W26442  32.873  13.848  13.428
54717W        W26443  10.828  35.327   9.439
54718W        W26444  44.441  23.118  14.110
54719W        W26445  37.894  20.135   4.771
54720W        W26446  44.734  22.599   2.742
54721W        W26447   4.804   3.834   1.494
54722W        W26448  34.514  14.934   0.772
54723W        W26449  24.355  27.205  10.773
54724W        W26450  28.204  27.976   3.176
54725W        W26451  10.797   3.778   4.587
54726W        W26452   0.339   8.882  14.481
54727W        W26453  15.680  14.115   1.368
54728W        W26454  38.765  15.634   2.286
54729W        W26455  16.662  28.611  14.437
54730W        W26456  14.638  40.062  14.401
54731W        W26457   1.444  44.748   2.269
54732W        W26458  42.198  30.423  11.043
54733W        W26459  34.066  37.515  10.630
54734W        W26460  10.865  34.132   0.892
54735W        W26461   3.427  29.109   0.016
54736W        W26462  40.672   2.012   4.597
54737W        W26463  18.290  35.983  10.784
54738W        W26464  40.229  17.549   3.242
54739W        W26465  21.590  28.581  11.913
54740W        W26466   2.351  25.164   2.004
54741W        W26467   8.811  23.723  10.262
54742W        W26468  11.235  10.891   0.895
54743W        W26469  41.065  34.552   1.405
54744W        W26470   3.757  28.695   0.110
54745W        W26471  36.088  21.768   3.897
54746W        W26472  42.809  38.450   2.471
54747W        W26473  33.862  29.895   1.415
54748W        W26474  29.762  42.995  10.406
54749W        W26475  23.073  16.179   4.863
54750W        W26476  35.651  24.071   4.594
54751W        W26477  20.107   4.207  11.572
54752W        W26478  27.730  11.316  13.963
54753W        W26479  43.969  18.435  12.690
54754W        W26480  41.759  17.415  14.901
54755W        W26481  43.270  31.317   1.352
54756W        W26482  14.282  20.490  11.106
54757W        W26483  17.456  33.124  12.508
54758W        W26484  30.572  36.835   2.836
54759W        W26485  11.130  14.514   0.335
54760W        W26486  11.871  33.915  11.663
54761W        W26487  44.765  24.297  14.504
54762W        W26488   4.668  23.114   3.343
54763W        W26489   5.495  44.357  11.097
54764W        W26490  38.116  21.232  14.306
54765W        W26491  20.700  32.705  14.097
54766W        W26492  27.611  40.225  11.549
54767W        W26493  35.029  20.782  13.087
54768W        W26494  12.237  40.247  10.662
54769W        W26495  12.202  18.079   3.286
54770W        W26496  24.738  11.436   3.829
54771W        W26497  15.785  44.401   0.493
54772W        W26498  28.612  20.248   1.907
54773W        W26499  12.215  34.158   0.337
54774W        W26500  32.450  38.378   2.259
54775W        W26501  24.135   8.034  12.545
54776W        W26502  32.507  12.778   3.682
54777W        W26503  30.096  23.901   4.576
54778W        W26504   1.681  25.962   1.832
54779W        W26505  30.132  14.228   2.216
54780W        W26506  13.746   0.485  11.673
54781W        W26507  42.341   8.116  12.599
54782W        W26508  39.452  35.820   3.109
54783W        W26509  22.811  21.024   1.320
54784W        W26510  24.818  43.995   2.750
54785W        W26511  26.489  37.772   4.596
54786W        W26512   6.100  32.923   4.092
54787W        W26513  27.174  13.245   4.631
54788W        W26514  39.950   0.563  14.737
54789W        W26515  40.210  15.023   0.205
54790W        W26516  25.277  44.246  14.651
54791W        W26517  43.406   5.729   2.766
54792W        W26518  18.859  24.562  12.915
54793W        W26519  34.821  44.970   3.674
54794W        W26520  13.434  21.281  12.834
54795W        W26521  14.936  43.521   3.786
54796W        W26522   2.181  44.006   4.107
54797W        W26523  26.674  43.812   3.340
54798W        W26524  33.625   2.324  13.448
54799W        W26525  36.423  18.671  12.048
54800W        W26526  12.678  17.148   3.782
54801W        W26527  42.903  14.049  14.639
54802W        W26528   0.361   4.159   1.754
54803W        W26529  35.421  36.344   4.244
54804W        W26530  42.468  12.140   2.907
54805W        W26531   9.837  16.822   3.845
54806W        W26532  21.630  34.967  14.979
54807W        W26533  13.323  14.330   9.980
54808W        W26534  44.249  39.604   1.311
54809W        W26535  22.079  39.350  14.679
54810W        W26536  14.459  10.447   0.488
54811W        W26537  41.520  18.746   1.171
54812W        W26538  39.379   2.432  13.334
54813W        W26539  37.279   1.671  12.450
54814W        W26540  43.988  27.176   4.568
54815W        W26541  30.441   6.808   4.349
54816W        W26542  14.227  32.631  11.933
54817W        W26543  36.439  31.367  14.447
54818W        W26544  14.598  39.774  14.841
54819W        W26545  30.546  17.108  14.872
54820W        W26546   6.867  20.094  10.626
54821W        W26547  25.176   0.206  14.265
54822W        W26548   0.729   1.314   3.798
54823W        W26549  19.258  33.174   2.873
54824W        W26550  16.595   0.726  10.637
54825W        W26551  27.026   9.414  13.017
54826W        W26552  41.094  36.636  13.227
54827W        W26553  43.314  33.141   0.289
54828W        W26554   9.111   4.469   4.313
54829W        W26555  27.610  22.982   4.057
54830W        W26556   6.443  22.876   4.554
54831W        W26557  16.800  42.952  12.945
54832W        W26558  12.117  20.068   1.436
54833W        W26559  42.025  20.561  13.066
54834W        W26560   1.852  23.674  12.356
54835W        W26561  33.949  38.052  10.488
54836W        W26562  33.666  37.480  13.101
54837W        W26563  12.711   8.909   1.722
54838W        W26564  23.903  15.745   0.918
54839W        W26565  19.778  15.818   3.111
54840W        W26566  44.682  41.765   2.779
54841W        W26567  27.582  10.540  14.366
54842W        W26568  32.821  40.024   1.731
54843W        W26569  39.532   9.302   4.264
54844W        W26570   7.120  42.232  14.268
54845W        W26571   5.782  33.981   4.597
54846W        W26572  22.137  40.897  14.516
54847W        W26573  20.943  28.568   1.496
54848W        W26574  12.182   1.428   2.860
54849W        W26575  15.634  31.853   1.732
54850W        W26576  41.974  43.948  12.101
54851W        W26577  29.111  15.609  13.209
54852W        W26578  44.485  42.578  14.852
54853W        W26579  20.606  33.326  14.233
54854W        W26580  36.470  18.139  14.811
54855W        W26581  16.748  34.457  10.622
54856W        W26582  16.173  10.018   3.796
54857W        W26583  14.704  23.076  14.416
54858W        W26584  18.824   3.460  14.913
54859W        W26585   1.552  31.110  14.835
54860W        W26586  30.996   0.749   0.375
54861W        W26587  28.517  34.061  10.641
54862W        W26588  43.832  18.108  14.368
54863W        W26589  14.926   8.676  12.106
54864W        W26590  25.591  41.899   2.906
54865W        W26591  31.023  36.429   1.679
54866W        W26592  33.648  18.831  11.623
54867W        W26593  32.709   0.874  11.274
54868W        W26594  34.434   5.644   1.994
54869W        W26595  39.291  22.911   4.588
54870W        W26596  36.753  31.221  10.542
54871W        W26597   5.853   0.935   2.160
54872W        W26598  11.664  32.855   2.328
54873W        W26599  32.424  23.577   0.012
54874W        W26600  26.216  19.218  11.076
54875W        W26601  42.093   3.006   0.050
54876W        W26602  29.187  31.664   4.210
54877W        W26603  34.194  24.193   0.408
54878W        W26604   0.570  23.589  14.018
54879W        W26605  24.214  20.562  12.991
54880W        W26606  25.007  11.252  13.438
54881W        W26607  25.506   2.530  11.103
54882W        W26608   4.019  25.760  12.439
54883W        W26609   9.321  22.504   2.667
54884W        W26610  14.107  42.798  13.003
54885W        W26611   7.584   7.616   0.258
54886W        W26612  36.099  16.680  10.457
54887W        W26613  28.942   6.146  12.358
54888W        W26614  14.186  39.172   5.106
54889W        W26615  18.219  11.202   2.428
54890W        W26616   2.166  17.533   1.314
54891W        W26617  31.377   2.650  13.027
54892W        W26618  36.566  35.001   0.259
54893W        W26619  29.117  11.836   4.681
54894W        W26620  25.748  24.050  14.454
54895W        W26621   0.441  13.594  14.264
54896W        W26622  41.054   3.697  13.338
54897W        W26623   3.690  35.063   3.276
54898W        W26624  36.924   5.331  12.541
54899W        W26625  36.813  24.960  11.055
54900W        W26626   5.400   0.842   2.419
54901W        W26627  38.077   1.348   0.760
54902W        W26628  20.058  21.074   2.108
54903W        W26629  27.555  37.817   4.393
54904W        W26630  15.523  25.625   1.423
54905W        W26631  21.182  15.756  10.423
54906W        W26632  10.721  33.021  11.359
54907W        W26633  34.108  30.112  12.137
54908W        W26634  13.080   3.874  14.183
54909W        W26635  29.249   9.358  14.877
54910W        W26636  13.605  11.157   1.655
54911W        W26637  41.872  26.157   2.266
54912W        W26638  16.544   5.222  14.486
54913W        W26639  32.106  42.852  12.385
54914W        W26640   5.220  29.728  11.170
54915W        W26641   4.734   2.429   2.320
54916W        W26642  15.959  38.638  13.827
54917W        W26643  25.758  44.118   5.232
54918W        W26644   7.095  16.446  12.081
54919W        W26645  29.066  41.775   0.874
54920W        W26646  20.483   4.182  12.387
54921W        W26647  28.061  23.732   2.891
54922W        W26648  29.938  21.306   2.350
54923W        W26649  29.420  20.643   1.335
54924W        W26650  30.920   4.679   1.885
54925W        W26651  12.128  29.125  11.248
54926W        W26652  44.666  28.920  14.833
54927W        W26653  10.608  36.429   3.806
54928W        W26654  10.334   9.236   0.947
54929W        W26655   6.010  36.513  13.514
54930W        W26656  33.375   2.974  11.130
54931W        W26657  20.841  28.514  11.646
54932W        W26658  25.620   1.910   4.103
54933W        W26659  20.503   8.408   2.227
54934W        W26660   8.151  14.282  14.984
54935W        W26661  34.506  23.971  11.601
54936W        W26662  36.419  33.116   0.793
54937W        W26663  31.433  18.285   1.406
54938W        W26664  24.455  14.829   4.093
54939W        W26665  17.312  18.133   2.308
54940W        W26666  15.602  19.446  11.769
54941W        W26667   9.870  37.805  11.634
54942W        W26668  12.710  25.981   0.814
54943W        W26669  28.266  37.545   4.183
54944W        W26670  41.760  43.473   4.125
54945W        W26671   0.741  21.186   3.376
54946W        W26672  27.382  36.922   2.183
54947W        W26673   8.435   5.588  14.032
54948W        W26674   5.343  16.928   1.795
54949W        W26675  39.050  19.949  12.633
54950W        W26676  36.597  22.672   0.354
54951W        W26677  17.509  19.096   3.345
54952W        W26678  18.435  41.578   1.464
54953W        W26679  29.642   5.948   0.676
54954W        W26680  33.664  12.641   4.193
54955W        W26681  35.521  40.553  12.451
54956W        W26682  27.960  17.714  12.405
54957W        W26683  33.166  21.631  13.439
54958W        W26684  32.192   0.897  11.213
54959W        W26685   9.644  14.624   1.802
54960W        W26686  18.430  19.595  12.621
54961W        W26687  21.101  13.728   0.837
54962W        W26688  11.381  13.970   2.699
54963W        W26689  24.966  21.950   3.246
54964W        W26690  11.204  32.866  13.144
54965W        W26691  21.436  26.643  10.197
54966W        W26692  23.230  41.185  11.535
54967W        W26693  35.464  32.591   0.346
54968W        W26694  39.470  13.892  13.699
54969W        W26695  26.194  31.003   3.358
54970W        W26696  15.127  41.027  13.787
54971W        W26697   6.304  36.593   4.559
54972W        W26698  14.579  19.092   3.784
54973W        W26699   7.924   0.414   4.133
54974W        W26700  44.061   0.008  11.041
54975W        W26701  33.207   0.899  11.170
54976W        W26702  15.238  27.815  13.022
54977W        W26703   8.995   0.851  12.978
54978W        W26704  27.871   4.890   4.154
54979W        W26705   1.658  13.199  13.642
54980W        W26706  35.082  41.561   2.408
54981W        W26707  19.122  25.709  10.977
54982W        W26708  28.441  10.833   3.210
54983W        W26709  41.256  18.465  12.012
54984W        W26710  34.550  40.730   3.558
54985W        W26711  32.590  14.547  12.476
54986W        W26712  40.435  30.376   1.423
54987W        W26713  32.204   0.037  13.902
54988W        W26714  34.149   1.755   1.939
54989W        W26715  28.662   2.110   1.242
54990W        W26716  15.752  16.629   3.318
54991W        W26717  32.102  42.909  14.832
54992W        W26718   6.172   4.718  10.087
54993W        W26719  25.934  18.050   3.638
54994W        W26720  10.883  42.695   4.654
54995W        W26721  12.348   3.243  13.414
54996W        W26722   0.359  43.977  12.317
54997W        W26723  10.776   2.132  12.129
54998W        W26724   3.478  11.258  11.069
54999W        W26725  10.003  29.661   3.417
55000W        W26726  37.387  29.954  10.495
55001W        W26727  25.326   3.272   4.295
55002W        W26728   2.103   0.329  12.436
55003W        W26729   4.779   3.220  13.378
55004W        W26730  22.963   9.232  14.786
55005W        W26731   9.239  44.492  11.979
55006W        W26732  38.045  29.705   3.777
55007W        W26733  43.711  19.761   3.693
55008W        W26734   5.435  26.921   3.058
55009W        W26735  23.636  28.096   2.598
55010W        W26736  22.886   4.008   3.623
55011W        W26737  38.519   3.882  12.605
55012W        W26738  38.338  15.090  10.668
55013W        W26739  38.890  20.778  13.037
55014W        W26740  13.247  23.907   2.655
55015W        W26741  16.275  29.569   3.137
55016W        W26742  15.486  17.288   0.091
55017W        W26743  22.494   1.217  12.900
55018W        W26744  39.040  33.708   1.212
55019W        W26745  36.146   6.095   3.260
55020W        W26746  43.832  12.670  12.514
55021W        W26747  38.935  28.055   1.512
55022W        W26748  44.169  16.382  14.593
55023W        W26749   0.588  17.731   0.030
55024W        W26750   9.435  35.759  14.267
55025W        W26751  39.375  12.661   4.323
55026W        W26752  39.863   5.575  14.094
55027W        W26753  32.552  39.451  14.775
55028W        W26754  20.148  35.885   2.832
55029W        W26755  11.937  34.932  13.815
55030W        W26756  10.120  26.927   1.165
55031W        W26757  29.198   2.261   4.865
55032W        W26758   7.635  30.594  14.351
55033W        W26759  11.262  20.118   1.067
55034W        W26760  31.933   9.586   1.375
55035W        W26761  31.723  17.241   1.382
55036W        W26762  28.154   2.702   1.798
55037W        W26763   9.865  33.371   4.536
55038W        W26764   8.799  33.037  10.235
55039W        W26765  17.097  30.720  10.973
55040W        W26766  17.734  33.213   4.950
55041W        W26767  40.207  13.344  14.901
55042W        W26768  16.773   0.037  14.892
55043W        W26769  29.737  28.182   4.597
55044W        W26770   2.628  40.996  14.862
55045W        W26771  25.942  42.212   4.772
55046W        W26772  27.631  37.356   4.160
55047W        W26773  29.088  36.564   4.825
55048W        W26774  11.934  26.621  13.997
55049W        W26775  25.729  23.577   1.961
55050W        W26776  18.514  21.997  12.425
55051W        W26777  32.921   0.213   0.519
55052W        W26778  12.328   2.199   2.907
55053W        W26779  40.886   1.675   3.389
55054W        W26780   6.286  30.604  13.058
55055W        W26781  11.434  20.541  10.607
55056W        W26782  30.013  42.863  14.061
55057W        W26783   8.620  17.843  13.067
55058W        W26784  10.591  36.627  14.626
55059W        W26785  16.300   5.189   3.659
55060W        W26786   2.821  38.848  13.676
55061W        W26787   4.253  39.625   2.198
55062W        W26788  14.119   3.745   2.453
55063W        W26789  29.392   7.127  11.222
55064W        W26790  14.886  14.175  10.695
55065W        W26791  15.201  39.032   3.096
55066W        W26792  27.228  15.916  12.982
55067W        W26793  30.885   5.298   2.387
55068W        W26794  10.457  22.669  13.474
55069W        W26795  20.712  15.696  14.102
55070W        W26796   0.432  22.446  12.578
55071W        W26797  12.744  21.867   4.343
55072W        W26798  36.513   5.806   2.958
55073W        W26799  15.581   6.879  11.379
55074W        W26800  20.343  42.678  13.513
55075W        W26801  38.868  33.995   3.381
55076W        W26802   9.260  21.940   1.204
55077W        W26803   2.348   6.369  14.295
55078W        W26804  42.049  37.744   1.006
55079W        W26805  28.446   1.817   1.666
55080W        W26806  39.511  29.130   3.690
55081W        W26807  24.089  31.450  12.891
55082W        W26808  15.158   6.697  11.661
55083W        W26809  35.047   3.800   3.805
55084W        W26810  39.544  44.485  12.101
55085W        W26811  36.421  20.756   1.702
55086W        W26812  43.087  38.663  12.037
55087W        W26813  24.718   4.620   1.009
55088W        W26814  28.449  43.342   0.352
55089W        W26815  18.446  25.141   4.932
55090W        W26816   8.993   1.710   4.118
55091W        W26817  35.273   1.860  13.308
55092W        W26818  27.439  29.605   1.315
55093W        W26819   7.167  13.524  14.160
55094W        W26820  30.132  33.422  11.138
55095W        W26821  23.421  41.780   2.603
55096W        W26822  28.638  19.272  13.390
55097W        W26823  37.484   0.249   4.174
55098W        W26824  44.289  35.365  12.855
55099W        W26825  26.563  20.587  10.990
55100W        W26826  13.200  17.804  12.453
55101W        W26827  37.042  37.401  14.918
55102W        W26828  44.675  16.750  14.912
55103W        W26829   1.794  10.966  11.659
55104W        W26830  29.506   6.809   4.378
55105W        W26831  12.396   5.194  12.015
55106W        W26832  35.096   0.982  14.786
55107W        W26833  26.629  20.046   3.235
55108W        W26834  21.207  16.233  12.260
55109W        W26835  10.876  31.674  10.657
55110W        W26836   8.960   1.906  13.105
55111W        W26837  29.521  27.697  12.569
55112W        W26838  22.281  39.042   4.477
55113W        W26839  10.751  27.741   1.786
55114W        W26840   3.863  26.794   2.097
55115W        W26841  15.569  42.730   2.350
55116W        W26842  24.728  22.747  12.130
55117W        W26843  26.657  35.510  11.514
55118W        W26844  24.707  35.905   4.757
55119W        W26845  12.154  25.299  12.047
55120W        W26846  43.751  16.470   2.562
55121W        W26847  39.104  38.863   3.681
55122W        W26848   7.665  21.174   0.376
55123W        W26849  28.122  37.512   2.275
55124W        W26850   5.511  35.086   2.729
55125W        W26851  21.430  26.417   2.573
55126W        W26852  34.986   3.809  11.209
55127W        W26853  27.366  30.649  11.516
55128W        W26854  30.993  22.305   1.435
55129W        W26855   7.779  42.289  13.324
55130W        W26856  32.630  42.144   4.484
55131W        W26857   3.503  39.834   1.732
55132W        W26858   3.723   5.422  14.500
55133W        W26859  19.830  13.733  10.890
55134W        W26860  25.407  43.275  10.726
55135W        W26861  40.402   8.433  12.345
55136W        W26862  17.031  18.601  12.046
55137W        W26863  24.598  43.971   4.553
55138W        W26864  39.310  29.459   2.778
55139W        W26865  23.106  31.663  14.800
55140W        W26866  36.895  35.038  11.557
55141W        W26867   6.691  39.499  11.575
55142W        W26868  14.257  30.946   1.853
55143W        W26869  24.787  12.234   2.466
55144W        W26870  41.913  12.714  14.725
55145W        W26871  11.417  29.282  14.228
55146W        W26872  18.908  43.904   3.220
55147W        W26873  11.424   5.183   3.063
55148W        W26874  21.715   4.767   4.572
55149W        W26875   2.945   1.956   2.031
55150W        W26876  37.552  20.541  12.365
55151W        W26877   9.065  26.337   5.099
55152W        W26878   1.361  30.546   1.434
55153W        W26879  41.543  22.609   2.672
55154W        W26880  16.544  19.731   4.472
55155W        W26881  14.261  28.204  13.431
55156W        W26882  12.679   5.664  10.757
55157W        W26883  28.211  40.979  12.573
55158W        W26884  24.428  24.185   0.931
55159W        W26885  24.444  19.644   0.410
55160W        W26886  36.491   5.974  14.183
55161W        W26887  22.096  26.706   4.356
55162W        W26888  22.126  17.276   4.164
55163W        W26889  23.281  31.442   1.312
55164W        W26890   5.790  15.179   2.149
55165W        W26891  23.597   1.291   4.636
55166W        W26892  29.637   6.627  12.840
55167W        W26893  21.493  16.398  14.418
55168W        W26894   4.188  10.604  10.685
55169W        W26895  33.454  42.009  13.463
55170W        W26896  40.037  20.091   4.248
55171W        W26897  21.437   5.747  13.076
55172W        W26898  38.887  29.174   0.373
55173W        W26899  17.232  44.734  14.861
55174W        W26900  33.670  16.059  12.909
55175W        W26901  28.037  38.326  13.469
55176W        W26902  11.940  37.060  14.415
55177W        W26903  44.319  44.126   4.032
55178W        W26904  18.581  41.181   0.480
55179W        W26905   1.189  23.223  11.563
55180W        W26906  24.487  26.185   5.027
55181W        W26907   7.402   4.849   4.924
55182W        W26908   7.235  27.195  13.918
55183W        W26909  30.216  31.414   1.454
55184W        W26910   3.838  22.083   0.358
55185W        W26911  10.657  38.007   4.092
55186W        W26912  21.761  28.517   2.844
55187W        W26913  32.465  40.900  10.194
55188W        W26914  35.162   7.305   0.697
55189W        W26915   9.889  12.235  10.755
55190W        W26916  22.666  24.539   3.488
55191W        W26917  22.148  23.282  11.714
55192W        W26918   2.377  10.325  11.985
55193W        W26919  14.605  32.471   0.742
55194W        W26920  13.152  31.517  11.544
55195W        W26921  17.374  40.279  14.283
55196W        W26922   8.032   1.879  10.438
55197W        W26923  40.055  39.091  11.643
55198W        W26924  10.040  10.547   1.943
55199W        W26925  18.237  36.830   3.911
55200W        W26926  42.557  15.670   4.708
55201W        W26927  36.794  21.087   3.802
55202W        W26928   7.690  32.506   4.852
55203W        W26929  23.774   5.861   0.408
55204W        W26930  29.184  22.023  12.854
55205W        W26931   8.291  15.839  14.937
55206W        W26932  29.169  24.217   3.629
55207W        W26933  27.051  22.730   1.492
55208W        W26934  10.172  22.717  11.117
55209W        W26935  21.662  15.365   1.269
55210W        W26936   1.779   3.795   2.189
55211W        W26937   6.447  10.835   2.375
55212W        W26938   0.184  18.114  14.828
55213W        W26939  15.411   8.889  12.040
55214W        W26940   8.801  44.543  14.089
55215W        W26941   3.454   3.433  14.855
55216W        W26942  28.885  23.778   4.505
55217W        W26943  40.951  29.695   0.804
55218W        W26944  37.849  19.429   2.733
55219W        W26945  43.600  29.112   3.717
55220W        W26946  14.165  13.620  13.343
55221W        W26947  36.423  19.105   3.190
55222W        W26948   2.251  22.469  14.793
55223W        W26949  15.327  24.483   1.322
55224W        W26950  28.893  25.108   2.608
55225W        W26951  22.696  36.642  13.093
55226W        W26952  28.888  13.612   3.377
55227W        W26953  44.255  27.120  12.464
55228W        W26954  42.204  21.357   1.764
55229W        W26955  23.302  15.501   3.719
55230W        W26956  27.277  18.764   2.922
55231W        W26957  17.728  27.915  13.825
55232W        W26958  20.643   5.908  13.763
55233W        W26959  16.991   5.441   0.792
55234W        W26960  30.889  36.609  14.796
55235W        W26961  23.125  28.558   5.245
55236W        W26962   5.059  24.265   4.042
55237W        W26963  30.894  28.513   3.227
55238W        W26964  31.790  32.945  10.286
55239W        W26965   9.230   7.623   1.146
55240W        W26966  16.869  39.875   4.377
55241W        W26967  42.304   8.558   5.052
55242W        W26968  33.011  39.568   1.408
55243W        W26969  13.167  10.496  13.385
55244W        W26970  43.844  27.066   3.681
55245W        W26971   2.568  24.685  14.068
55246W        W26972  18.979   5.752   1.792
55247W        W26973  36.980   1.937   0.701
55248W        W26974  35.539  30.513   1.408
55249W        W26975  11.332  14.717  12.991
55250W        W26976  25.947  12.635  13.928
55251W        W26977  38.100  15.818  10.583
55252W        W26978  42.719  34.118   3.877
55253W        W26979  25.281  32.913  10.586
55254W        W26980   3.906   8.330   1.367
55255W        W26981  30.415   4.682  11.100
55256W        W26982  33.799  38.535  12.908
55257W        W26983  25.489  19.677   0.435
55258W        W26984  32.945  16.695   4.551
55259W        W26985  22.768  25.244  14.716
55260W        W26986  15.077  13.157   4.538
55261W        W26987   9.700  43.862  14.950
55262W        W26988  24.093   6.625   0.596
55263W        W26989  15.871  39.519  10.820
55264W        W26990  19.501   7.301  14.851
55265W        W26991  25.538  35.138  11.182
55266W        W26992  24.403  30.410   3.310
55267W        W26993  30.956  18.073   3.412
55268W        W26994  30.612  44.910  11.094
55269W        W26995  33.615  19.536   9.960
55270W        W26996   0.258  19.522   1.885
55271W        W26997  19.720   2.490   0.774
55272W        W26998  20.558   4.360  13.594
55273W        W26999   4.200  37.222   2.209
55274W        W27000  15.469  26.139   1.235
55275W        W27001  39.430   3.723   0.522
55276W        W27002  27.650  29.558  12.780
55277W        W27003  11.315  11.257  11.016
55278W        W27004   7.238  13.886  14.560
55279W        W27005  22.842  22.811   1.716
55280W        W27006  21.684  19.262   2.747
55281W        W27007  30.686  43.914   3.246
55282W        W27008  31.982  36.613   2.307
55283W        W27009  34.094  11.617  11.607
55284W        W27010  25.734   9.269   2.332
55285W        W27011   6.940   0.485  14.951
55286W        W27012  21.089   8.381  13.293
55287W        W27013  17.567  34.097  14.417
55288W        W27014  39.857  36.413   4.140
55289W        W27015  39.074  41.556  12.464
55290W        W27016  36.247  14.450  12.523
55291W        W27017  27.471  28.116  14.845
55292W        W27018  13.988  21.765   2.349
55293W        W27019   9.285  27.596   1.837
55294W        W27020  20.421  24.952  12.927
55295W        W27021  28.983  18.492  11.151
55296W        W27022  40.380  18.692   0.873
55297W        W27023  10.347   8.401   3.675
55298W        W27024  30.885   8.302  14.407
55299W        W27025  14.774  35.433  13.002
55300W        W27026  38.848  28.318   3.531
55301W        W27027  25.962  44.797  11.759
55302W        W27028  38.482  39.011   1.595
55303W        W27029  11.327  29.218   0.947
55304W        W27030  26.684  40.832   4.593
55305W        W27031  13.377   9.592  11.394
55306W        W27032   3.638  22.240  13.986
55307W        W27033  40.544  25.062  13.415
55308W        W27034   5.737  32.871  13.462
55309W        W27035  43.054   6.594   2.734
55310W        W27036  36.753  29.532   2.851
55311W        W27037   4.464  12.362  14.853
55312W        W27038  42.053  35.522   1.412
55313W        W27039  11.831   5.701   4.115
55314W        W27040  25.639  34.251   4.663
55315W        W27041  40.516   9.937   2.681
55316W        W27042  16.115  24.764  14.790
55317W        W27043  11.628  21.074  11.073
55318W        W27044  39.880  32.615  11.542
55319W        W27045  15.758  16.532   4.682
55320W        W27046   4.869  43.789  14.042
55321W        W27047  17.808  37.283  11.477
55322W        W27048  16.802  14.228   5.031
55323W        W27049  27.615  23.716  13.441
55324W        W27050  26.016   9.270   2.781
55325W        W27051  10.933  36.569  12.121
55326W        W27052   6.378  29.709   4.982
55327W        W27053  34.656  24.124   3.732
55328W        W27054  33.502  16.654   4.957
55329W        W27055  13.690  10.762  13.974
55330W        W27056   9.863  18.082   3.890
55331W        W27057  19.394  44.453   3.908
55332W        W27058  12.358  19.214  14.001
55333W        W27059  34.231  34.419  12.352
55334W        W27060  33.692  21.287   1.344
55335W        W27061   7.325  33.099  14.275
55336W        W27062  17.270  28.963   4.608
55337W        W27063  40.845   0.240  11.029
55338W        W27064  22.611  16.218  11.743
55339W        W27065   6.370  43.977   4.600
55340W        W27066  12.619   4.862  14.401
55341W        W27067  39.890  40.428  14.370
55342W        W27068  19.007  30.217   1.262
55343W        W27069   3.498  13.817   1.725
55344W        W27070  38.524   2.502   3.272
55345W        W27071  17.633  25.458   0.038
55346W        W27072  38.728   9.154  13.508
55347W        W27073  30.370  28.526   3.259
55348W        W27074   1.745  20.246  11.160
55349W        W27075  37.954  43.779   2.640
55350W        W27076  10.415  20.261  11.236
55351W        W27077  25.234  42.735   1.685
55352W        W27078   6.109  44.449   5.233
55353W        W27079  22.715   2.312  13.263
55354W        W27080   5.847  18.332  14.749
55355W        W27081  40.713   6.312   3.341
55356W        W27082  15.961  19.045  11.784
55357W        W27083  37.638  22.751  11.991
55358W        W27084  23.425  33.322  13.863
55359W        W27085  32.934  43.776  10.804
55360W        W27086   1.448  26.983  14.493
55361W        W27087  38.768  21.910  11.076
55362W        W27088  20.596   0.450  10.326
55363W        W27089   0.795  30.446  12.445
55364W        W27090  21.262  25.466   4.918
55365W        W27091  32.675  19.381   3.341
55366W        W27092   6.504   0.211  14.846
55367W        W27093   4.127   8.744   4.263
55368W        W27094  21.196   3.639  11.100
55369W        W27095  28.209   3.853  10.966
55370W        W27096  28.219   8.109  10.883
55371W        W27097  34.943  11.877  12.598
55372W        W27098  28.614  25.137   0.301
55373W        W27099   4.739  37.521  13.482
55374W        W27100  36.654  18.763  10.759
55375W        W27101  38.617  14.811   4.714
55376W        W27102  42.644  11.574  12.827
55377W        W27103  42.386  26.393   2.244
55378W        W27104  29.617   6.609  10.316
55379W        W27105  24.561  24.260   4.909
55380W        W27106  38.076  42.430  12.793
55381W        W27107  43.990  14.765   1.762
55382W        W27108  40.041  10.353  13.823
55383W        W27109  26.255  41.943   1.162
55384W        W27110   4.328  36.910   5.066
55385W        W27111   5.880  42.886  11.575
55386W        W27112   9.236  20.162   0.832
55387W        W27113   6.954  28.573  13.971
55388W        W27114   8.391  33.686  11.400
55389W        W27115  14.611  43.159   4.015
55390W        W27116  41.418  41.284  12.513
55391W        W27117  41.490  39.891   2.594
55392W        W27118   7.576   0.535  11.993
55393W        W27119  18.443  27.663  14.336
55394W        W27120   1.799  20.508   2.175
55395W        W27121  18.648  10.454  14.871
55396W        W27122   6.331   5.157   0.090
55397W        W27123  19.527  34.014  14.154
55398W        W27124  44.921  16.740   0.435
55399W        W27125  29.567   3.467   4.141
55400W        W27126   4.594  16.232  10.673
55401W        W27127   5.172  11.363   1.367
55402W        W27128  30.577  18.563   4.657
55403W        W27129   5.425   6.354   2.910
55404W        W27130  33.979  37.994   0.262
55405W        W27131  13.593  12.641  14.544
55406W        W27132  36.392  20.069  13.572
55407W        W27133  17.267  38.851  13.712
55408W        W27134   4.930  26.687   3.749
55409W        W27135  40.800  13.787  13.405
55410W        W27136  19.216  26.078  12.700
55411W        W27137  22.224  12.357   4.177
55412W        W27138  37.509   7.413   4.350
55413W        W27139  15.051  30.404   0.898
55414W        W27140  26.586   8.872   1.255
55415W        W27141  19.658  23.614   4.168
55416W        W27142  15.867   0.316   1.855
55417W        W27143  13.126  23.212  14.296
55418W        W27144  40.359  12.706  13.955
55419W        W27145   7.679   1.352   3.645
55420W        W27146  28.156  33.771   5.227
55421W        W27147  19.664  13.329  11.687
55422W        W27148  20.518   5.364   0.859
55423W        W27149  24.224  22.922   4.220
55424W        W27150  13.567  27.186  13.777
55425W        W27151   9.276   1.443  14.847
55426W        W27152  19.107  12.114  14.972
55427W        W27153  22.594  12.693  14.972
55428W        W27154  42.608  21.363  14.903
55429W        W27155  32.275  17.964   2.331
55430W        W27156  24.937  22.507   4.575
55431W        W27157  27.804  25.949  13.020
55432W        W27158   2.428  31.442  12.384
55433W        W27159  42.832  31.651   1.137
55434W        W27160   1.679   2.624   0.628
55435W        W27161  32.576   3.831  13.879
55436W        W27162  21.548  38.641   3.395
55437W        W27163  31.503  12.106   1.382
55438W        W27164  10.391  30.658   2.122
55439W        W27165  30.221   8.917  14.899
55440W        W27166  31.913  43.823  12.452
55441W        W27167  24.614  10.111  14.373
55442W        W27168  22.359  35.825   2.400
55443W        W27169  37.049   4.621   4.712
55444W        W27170  42.994  40.459   3.319
55445W        W27171  21.571  17.644   4.797
55446W        W27172  30.527  13.905  12.613
55447W        W27173  11.175  41.776  13.343
55448W        W27174  17.025   7.868  12.519
55449W        W27175  14.315   0.714  14.506
55450W        W27176  31.982   8.694   4.563
55451W        W27177  11.415  16.922  11.379
55452W        W27178  40.364  31.921  13.026
55453W        W27179  31.706  37.845  13.452
55454W        W27180  19.331   2.177  11.106
55455W        W27181  38.032   3.748  12.492
55456W        W27182  25.206  24.213   2.642
55457W        W27183  40.482  25.224   4.055
55458W        W27184   0.364   8.253   2.366
55459W        W27185  39.361  39.426  10.772
55460W        W27186   8.668  38.808   1.377
55461W        W27187  31.640  40.593   0.833
55462W        W27188  14.908  16.091  14.898
55463W        W27189  19.865  44.592   3.717
55464W        W27190  32.720  30.317  12.841
55465W        W27191   0.226  14.642  13.502
55466W        W27192  19.015  23.945  13.590
55467W        W27193  37.484   8.924  11.910
55468W        W27194  12.744   4.373   3.314
55469W        W27195  10.250  19.507  10.509
55470W        W27196  39.807   6.385   3.603
55471W        W27197   6.416  26.279   3.766
55472W        W27198  19.545   2.909  13.404
55473W        W27199  27.638  30.912  12.134
55474W        W27200   3.443  40.192  13.327
55475W        W27201  18.351  40.282   0.094
55476W        W27202  23.517  43.509   2.082
55477W        W27203  39.894  43.252  13.607
55478W        W27204  41.207  20.673  11.128
55479W        W27205   9.943  31.526  12.029
55480W        W27206  30.984  36.495   2.184
55481W        W27207  43.228  41.888   3.869
55482W        W27208  12.765   2.265   4.096
55483W        W27209  37.895   0.346   2.247
55484W        W27210  10.562  40.993  12.052
55485W        W27211  19.183  22.299  10.729
55486W        W27212   4.286  17.089  12.896
55487W        W27213  26.681  39.506   1.147
55488W        W27214  34.889  30.501   0.086
55489W        W27215  17.627  39.421   9.846
55490W        W27216  10.865  30.986  13.817
55491W        W27217  20.421  32.910  14.495
55492W        W27218  10.923  16.808  12.453
55493W        W27219  34.024  25.644   2.353
55494W        W27220   9.532  36.489  10.227
55495W        W27221  23.752  28.793   0.937
55496W        W27222  16.715  39.863  13.335
55497W        W27223  11.824  43.843   0.517
55498W        W27224  24.329  20.000  13.380
55499W        W27225  14.058  25.572   0.042
55500W        W27226  40.445  17.329   3.686
55501W        W27227   3.922  29.540  11.518
55502W        W27228  26.586  21.053   1.455
55503W        W27229  31.629  30.958  10.629
55504W        W27230   4.404  18.081  11.166
55505W        W27231  38.808  29.487   2.820
55506W        W27232  34.498   6.936  14.614
55507W        W27233  35.245  29.640   0.306
55508W        W27234  14.544  20.568  13.028
55509W        W27235   6.703  17.633  12.770
55510W        W27236  41.370  17.498  14.590
55511W        W27237  34.796  31.968   5.067
55512W        W27238  43.824  24.395   0.263
55513W        W27239  24.257   9.748   1.862
55514W        W27240   1.382  32.418  11.586
55515W        W27241  34.114  41.868  13.934
55516W        W27242  18.708   2.644  12.204
55517W        W27243  19.055  33.444  14.378
55518W        W27244   3.435  35.512   4.567
55519W        W27245  35.028  11.539  14.462
55520W        W27246  24.666  12.466   5.595
55521W        W27247  13.130  13.401  13.370
55522W        W27248  26.683   6.948   1.262
55523W        W27249  13.794  42.751   2.304
55524W        W27250  23.932   7.283   2.836
55525W        W27251   2.001  33.325   0.405
55526W        W27252  24.096  24.740   1.944
55527W        W27253   6.607  15.185   2.811
55528W        W27254  44.743  11.383  10.788
55529W        W27255  33.381  43.087   1.201
55530W        W27256  13.127   3.845   4.581
55531W        W27257  22.578   2.613  11.956
55532W        W27258  38.053  11.647   1.829
55533W        W27259  16.688  33.498   4.716
55534W        W27260  43.273  27.512  15.000
55535W        W27261  10.655  41.784  13.533
55536W        W27262  33.587  32.485  14.878
55537W        W27263  26.920  41.418   0.025
55538W        W27264  34.824  14.111  13.404
55539W        W27265   2.003  24.614  14.254
55540W        W27266  13.241  37.616  13.569
55541W        W27267  15.521  36.353  11.001
55542W        W27268  32.382  41.600  14.491
55543W        W27269  44.378   2.317   4.672
55544W        W27270  38.294  22.456  14.514
55545W        W27271  29.473  32.877  13.504
55546W        W27272  12.170  14.234   4.289
55547W        W27273  24.239  36.160  12.880
55548W        W27274  43.244  36.968  12.934
55549W        W27275  40.019  25.061   3.187
55550W        W27276  28.626   5.325   9.997
55551W        W27277  25.057  37.339   3.654
55552W        W27278  44.228   7.134   1.318
55553W        W27279   0.708  24.496   0.304
55554W        W27280  41.921  26.733  10.650
55555W        W27281   5.276   5.301  11.907
55556W        W27282   4.234  31.173  14.426
55557W        W27283  11.710  16.466  13.593
55558W        W27284  35.204  35.176  14.093
55559W        W27285  20.580   8.964  11.407
55560W        W27286  13.715   3.433   2.612
55561W        W27287  26.136  34.021   4.602
55562W        W27288  23.503  22.141  13.041
55563W        W27289  43.065  29.847  11.163
55564W        W27290  10.090   6.231   1.513
55565W        W27291  40.465  42.716   1.329
55566W        W27292  15.481  12.143   3.201
55567W        W27293  24.018  21.677  12.479
55568W        W27294  44.029  13.187   1.749
55569W        W27295  16.157   4.778  12.778
55570W        W27296  12.212   8.588  12.933
55571W        W27297   5.881  28.247   2.218
55572W        W27298  24.675   0.410  13.997
55573W        W27299   1.950  19.994   4.419
55574W        W27300   6.961  39.996   3.863
55575W        W27301   6.184  14.209  11.198
55576W        W27302  23.620   2.275   2.313
55577W        W27303   8.355  12.914   3.640
55578W        W27304  31.069  42.979   0.816
55579W        W27305  32.110  42.937  10.956
55580W        W27306  16.984  34.436  13.379
55581W        W27307  14.092  13.832  14.266
55582W        W27308  14.843   0.937   3.658
55583W        W27309  16.759  38.215   0.705
55584W        W27310  14.810  43.805   2.959
55585W        W27311  15.971  13.174   1.341
55586W        W27312  23.710  24.388   0.324
55587W        W27313   2.266  18.752   3.668
55588W        W27314   0.890  43.391   0.871
55589W        W27315  29.103  34.544  14.722
55590W        W27316  44.210  32.020   4.255
55591W        W27317  41.656  34.425  13.514
55592W        W27318  12.269  33.859  14.910
55593W        W27319  14.249  40.711   3.128
55594W        W27320  44.237  16.095  13.760
55595W        W27321  29.739  30.138   3.767
55596W        W27322  27.486  36.584   4.818
55597W        W27323  41.335   6.038  14.945
55598W        W27324   4.161   3.706   2.250
55599W        W27325  34.818   3.822  13.494
55600W        W27326  35.600  13.721   0.992
55601W        W27327  37.434  24.486   4.536
55602W        W27328   1.989  30.926   2.275
55603W        W27329   8.309  22.245  12.945
55604W        W27330   0.848  42.277  11.084
55605W        W27331   3.037  26.560   0.938
55606W        W27332  42.402  14.206   4.805
55607W        W27333  24.133  10.943  11.136
55608W        W27334   2.816  37.558  13.967
55609W        W27335   1.742  35.748  11.098
55610W        W27336   7.788  12.136   2.117
55611W        W27337  19.616  19.032  14.822
55612W        W27338   4.372  43.854  14.219
55613W        W27339  16.971  43.747  14.836
55614W        W27340  26.246  18.074  10.788
55615W        W27341   5.216  30.979  10.691
55616W        W27342  29.021  34.618   3.800
55617W        W27343  14.200  42.781   1.344
55618W        W27344  43.473  30.747   4.208
55619W        W27345   7.627   6.489   5.062
55620W        W27346   1.498   9.401   4.091
55621W        W27347  17.350  33.928   0.949
55622W        W27348  38.023  19.265   0.513
55623W        W27349  42.383  17.842   3.475
55624W        W27350  37.555  31.416  14.004
55625W        W27351  19.153   7.566  10.714
55626W        W27352   5.008  23.606   4.601
55627W        W27353  33.107  14.420  13.361
55628W        W27354  16.699  24.280  14.310
55629W        W27355  33.441  32.737  11.734
55630W        W27356  29.904   2.337  13.977
55631W        W27357  41.877   4.802  11.928
55632W        W27358  11.744  20.506   2.806
55633W        W27359  17.659  37.007  11.052
55634W        W27360  36.282  24.981   4.653
55635W        W27361  23.520  38.717   1.371
55636W        W27362  14.095  17.841  11.970
55637W        W27363  35.092  18.927   4.201
55638W        W27364  38.931  35.504  10.681
55639W        W27365  39.935   7.499   2.478
55640W        W27366  29.560  24.176  12.169
55641W        W27367  23.033  17.111   4.335
55642W        W27368  27.618  25.294  12.468
55643W        W27369  15.839   2.796  10.534
55644W        W27370   6.369   9.258   2.739
55645W        W27371  42.867  36.401   2.485
55646W        W27372  13.828  26.689  12.246
55647W        W27373  17.109  32.127   2.215
55648W        W27374  37.626  22.676   0.125
55649W        W27375  17.279  43.794   0.800
55650W        W27376  23.146  20.973   3.656
55651W        W27377  12.145   4.004  14.725
55652W        W27378  13.099  39.313   3.195
55653W        W27379  21.488   4.719  13.127
55654W        W27380   2.717  21.255  10.656
55655W        W27381  31.458  12.016   2.371
55656W        W27382  35.835  34.335   1.460
55657W        W27383  14.110  32.925  12.360
55658W        W27384  20.430  33.482   0.876
55659W        W27385  22.860   3.789  14.817
55660W        W27386  18.774  37.287   1.870
55661W        W27387  39.494  33.197   0.066
55662W        W27388  42.077  36.316  11.564
55663W        W27389  40.605   3.023  11.469
55664W        W27390  18.839   7.873   3.762
55665W        W27391  36.226   0.935  12.879
55666W        W27392  36.879  15.017   0.507
55667W        W27393  39.426  41.879   1.295
55668W        W27394  36.961  11.947  11.230
55669W        W27395  17.772  44.302   1.485
55670W        W27396  42.871  42.046   0.384
55671W        W27397  15.403  10.237   4.193
55672W        W27398   8.243  17.397  11.281
55673W        W27399  37.963  23.168   2.784
55674W        W27400  14.769  12.620  11.348
55675W        W27401  40.054  29.561  14.071
55676W        W27402   5.923  30.443   4.529
55677W        W27403  14.219  31.364   2.921
55678W        W27404   9.260  22.113  10.718
55679W        W27405  24.213  22.966  12.022
55680W        W27406   3.905   3.765   0.318
55681W        W27407   1.474  21.507   3.233
55682W        W27408  21.861  32.734   2.872
55683W        W27409  12.859  40.471  12.396
55684W        W27410  19.286  14.694  12.106
55685W        W27411  38.899  41.843  11.661
55686W        W27412   1.041   3.901   3.924
55687W        W27413  16.195  14.612   2.665
55688W        W27414  20.748  34.007  14.658
55689W        W27415  35.692  36.287  12.943
55690W        W27416  20.908   0.990   2.161
55691W        W27417  15.745  17.319  13.478
55692W        W27418   1.876   8.269   3.320
55693W        W27419  25.902   6.775   1.695
55694W        W27420  43.941   7.648  11.163
55695W        W27421  34.183  15.653   2.706
55696W        W27422   8.837  28.370   2.193
55697W        W27423   5.439  34.386  14.042
55698W        W27424  33.491  16.994  12.117
55699W        W27425  31.005   2.247   0.264
55700W        W27426  23.734   5.760   4.169
55701W        W27427  38.436  32.432  13.687
55702W        W27428  16.217   6.136   1.524
55703W        W27429  37.560  11.753  14.510
55704W        W27430  21.258  29.118  12.542
55705W        W27431  41.474  16.985  14.765
55706W        W27432   6.741  34.375   0.898
55707W        W27433  31.645  24.565  10.669
55708W        W27434  16.092   4.152  10.822
55709W        W27435  24.879  20.734   3.812
55710W        W27436  16.331  39.018   0.274
55711W        W27437  12.293  10.628   2.736
55712W        W27438   4.419  33.796  13.227
55713W        W27439  21.213  22.974   2.241
55714W        W27440  36.979  13.945  12.417
55715W        W27441   4.187  14.811   1.256
55716W        W27442   0.752  18.631   4.132
55717W        W27443  22.107  33.529   4.687
55718W        W27444   9.696   5.728   4.420
55719W        W27445  41.570   1.674  11.142
55720W        W27446  18.529  23.717  11.577
55721W        W27447  18.312  21.559   3.624
55722W        W27448  37.197  31.981  13.513
55723W        W27449  40.588  37.368   3.722
55724W        W27450   7.334  31.811  11.217
55725W        W27451  12.815  13.836   3.644
55726W        W27452  36.673  20.592  10.374
55727W        W27453  22.943  40.891   4.611
55728W        W27454  12.153  10.742  14.982
55729W        W27455   9.242   4.359  13.482
55730W        W27456  44.537  25.955   3.726
55731W        W27457  34.780  36.829   2.376
55732W        W27458  16.736   3.460   0.462
55733W        W27459  26.002  23.047   3.523
55734W        W27460  27.877  38.058   4.696
55735W        W27461   3.570  22.593  12.549
55736W        W27462  36.268  31.874  14.291
55737W        W27463  25.646  19.806   4.559
55738W        W27464  10.613   9.685  11.311
55739W        W27465  39.455   9.835   1.813
55740W        W27466  41.295  13.204   4.882
55741W        W27467  44.950  13.305   1.905
55742W        W27468  28.587  31.186  13.440
55743W        W27469  23.994   0.464  14.486
55744W        W27470  26.357   2.187   3.174
55745W        W27471  11.159  22.481   0.018
55746W        W27472  39.255  34.517  13.936
55747W        W27473  12.651   7.507   2.245
55748W        W27474   4.227  39.510   1.348
55749W        W27475  39.321  24.517   1.970
55750W        W27476  36.585  40.807   0.939
55751W        W27477  33.789   2.239   0.710
55752W        W27478  22.617  26.212   1.782
55753W        W27479  44.051  44.441  11.661
55754W        W27480  27.463  43.012   1.234
55755W        W27481  31.323  42.397   2.893
55756W        W27482  20.206  41.237   1.676
55757W        W27483  43.354  31.594   1.845
55758W        W27484  18.113  42.850   3.900
55759W        W27485  23.657  26.285  11.074
55760W        W27486   4.199   4.364  14.753
55761W        W27487   9.719  25.169   3.827
55762W        W27488  15.298   9.664  14.358
55763W        W27489  37.365  37.930   1.624
55764W        W27490  34.033  10.803  11.500
55765W        W27491   5.689  19.038  11.043
55766W        W27492   9.364  40.331   2.829
55767W        W27493  30.044  11.182   4.716
55768W        W27494  10.821   8.165  11.654
55769W        W27495  18.322   3.405  11.926
55770W        W27496  44.330   8.021  14.460
55771W        W27497  33.089  19.655   4.143
55772W        W27498  19.875  38.971   3.295
55773W        W27499  39.516  30.451   1.685
55774W        W27500  30.496  12.139  14.704
55775W        W27501  27.024   5.201   3.191
55776W        W27502  24.464  12.393  11.714
55777W        W27503  41.453   7.891  14.354
55778W        W27504  11.892  23.288   5.186
55779W        W27505  11.356  21.304   1.636
55780W        W27506  16.325  12.097  10.448
55781W        W27507  28.476  11.337  11.581
55782W        W27508  18.826   6.210   0.015
55783W        W27509   0.925  32.534  13.322
55784W        W27510   0.454  28.983  14.371
55785W        W27511   6.764  30.368   2.480
55786W        W27512   1.431  42.902   3.912
55787W        W27513  32.598  40.349   4.302
55788W        W27514   6.969  36.471   4.925
55789W        W27515  14.327   4.275   4.979
55790W        W27516   2.824  11.831  11.203
55791W        W27517  34.271  20.091   2.648
55792W        W27518  13.827  40.042   1.957
55793W        W27519  43.884  34.130   2.138
55794W        W27520  14.017  31.982  13.308
55795W        W27521  37.553   4.692   2.751
55796W        W27522  29.964  27.540  13.406
55797W        W27523  38.969  35.567  11.189
55798W        W27524  11.019   2.863  12.937
55799W        W27525  39.541  30.128  14.732
55800W        W27526  33.949  21.159  14.802
55801W        W27527   3.425  31.736   3.130
55802W        W27528  18.571  14.321  13.054
55803W        W27529   9.423  39.060   1.190
55804W        W27530  31.021  39.348  11.117
55805W        W27531  28.784  30.046  13.094
55806W        W27532  12.810   0.384  14.752
55807W        W27533  43.519  41.410  13.326
55808W        W27534  35.480  24.991  13.490
55809W        W27535   8.635  22.276  11.537
55810W        W27536  19.265  13.090  14.955
55811W        W27537  12.961  17.622  14.774
55812W        W27538  23.840  38.362  11.715
55813W        W27539  30.188  10.002  13.371
55814W        W27540  21.086   0.733  11.579
55815W        W27541  13.777  28.065  11.666
55816W        W27542  17.212  36.376   1.674
55817W        W27543   9.796  24.172  11.665
55818W        W27544  21.251  19.514  13.891
55819W        W27545  37.233   4.725   0.806
55820W        W27546  38.398   7.682   0.987
55821W        W27547   7.669  17.264  10.017
55822W        W27548  42.759  10.454   3.246
55823W        W27549  13.679  21.381   1.050
55824W        W27550   7.750  19.093  12.988
55825W        W27551  44.485   1.455  14.927
55826W        W27552   2.799   6.387   4.904
55827W        W27553  12.880   3.741  10.484
55828W        W27554  10.326  10.275   4.107
55829W        W27555  27.623  21.541   2.708
55830W        W27556  25.165  34.057   3.652
55831W        W27557  35.109   6.194   0.535
55832W        W27558  17.168  27.065   2.041
55833W        W27559  34.012  13.225  13.504
55834W        W27560  35.868  31.647  10.648
55835W        W27561  27.001  24.475  11.678
55836W        W27562  33.348  35.353   3.213
55837W        W27563  18.781  22.414  12.677
55838W        W27564  41.986  26.577   5.209
55839W        W27565  24.119  16.851  13.603
55840W        W27566  23.716  29.127  13.195
55841W        W27567   4.747   0.364   3.740
55842W        W27568  16.653  30.147   0.184
55843W        W27569  15.255   7.013   2.343
55844W        W27570   2.659  13.111   4.164
55845W        W27571  43.394  16.591  11.914
55846W        W27572  18.497  32.147  14.410
55847W        W27573   8.493  32.053  14.248
55848W        W27574   5.271  25.065  12.071
55849W        W27575  16.746  21.313   1.979
55850W        W27576   7.683  35.639  14.795
55851W        W27577  24.200  10.405  11.185
55852W        W27578  16.862  28.997  14.744
55853W        W27579   7.330  16.174   4.008
55854W        W27580   4.980  30.619  11.498
55855W        W27581  21.249  17.860   0.725
55856W        W27582  36.095  43.458   0.069
55857W        W27583  14.725  42.879   9.924
55858W        W27584  17.230  27.765  10.216
55859W        W27585   5.776   1.738   3.661
55860W        W27586  35.793  14.585   0.236
55861W        W27587  39.065  16.072   3.922
55862W        W27588  43.423  25.372   4.603
55863W        W27589  10.341  13.360  12.778
55864W        W27590  11.356  13.034   3.400
55865W        W27591  42.899   6.394  14.069
55866W        W27592  39.937   6.853  12.359
55867W        W27593   1.239   7.529   1.786
55868W        W27594  37.578  15.854  14.982
55869W        W27595   8.837  21.636  14.047
55870W        W27596  30.405  28.834  13.908
55871W        W27597  13.432  39.479   2.717
55872W        W27598  25.723   0.080  12.582
55873W        W27599   8.531  12.443   1.700
55874W        W27600   1.387  26.738  10.422
55875W        W27601  38.535   6.542  14.447
55876W        W27602  29.706   8.235  12.908
55877W        W27603  34.830  10.281   0.392
55878W        W27604   9.842  10.987   2.862
55879W        W27605  35.084  42.318   3.380
55880W        W27606   4.227   3.280  12.487
55881W        W27607  38.399  23.720  14.950
55882W        W27608   6.216  14.811   0.074
55883W        W27609  10.593  11.384   2.483
55884W        W27610  38.506  21.848  10.626
55885W        W27611  34.865   6.359   3.248
55886W        W27612  22.320  22.926   0.278
55887W        W27613  22.412  24.590  14.056
55888W        W27614  19.302  39.218   1.262
55889W        W27615   3.117   5.692   4.814
55890W        W27616  27.083  10.348   3.287
55891W        W27617  15.376  32.847   0.385
55892W        W27618   1.334  21.114   1.966
55893W        W27619  29.521  23.172  13.132
55894W        W27620  13.113  38.984  13.758
55895W        W27621  16.023   9.801  11.195
55896W        W27622  24.993  26.579  12.300
55897W        W27623   0.176  28.579   1.885
55898W        W27624   7.746  43.243   4.853
55899W        W27625  38.903  12.602  12.577
55900W        W27626  37.641  12.547  12.139
55901W        W27627  10.684  16.573   2.347
55902W        W27628  25.335  26.075  13.621
55903W        W27629  36.045  41.813   0.353
55904W        W27630  10.311  13.270  10.591
55905W        W27631  15.831  35.113   2.303
55906W        W27632  12.201  34.909   3.726
55907W        W27633  22.716  40.098   0.806
55908W        W27634   5.958   9.294   4.596
55909W        W27635  26.006  36.832   3.662
55910W        W27636   0.640  33.651   0.957
55911W        W27637  22.576  20.204  14.321
55912W        W27638  31.112  36.891  12.385
55913W        W27639  23.617  26.060   2.671
55914W        W27640  27.470  14.067   1.799
55915W        W27641  29.486  16.111  14.981
55916W        W27642  15.535  28.124   0.731
55917W        W27643  26.527   0.566   4.959
55918W        W27644  43.580  42.386   0.822
55919W        W27645  37.512  18.140  11.664
55920W        W27646  40.250  38.109  10.712
55921W        W27647   2.141   9.708  14.496
55922W        W27648  22.732  15.632   2.646
55923W        W27649   5.239  21.679  13.753
55924W        W27650  35.128  44.733  10.560
55925W        W27651  17.357  14.234  10.752
55926W        W27652   9.882  43.985   1.009
55927W        W27653  44.294   5.335  12.547
55928W        W27654   2.424  28.975   4.313
55929W        W27655  16.689   4.902  10.282
55930W        W27656  19.505   1.442   2.746
55931W        W27657   0.408  12.983   3.201
55932W        W27658  13.783  41.521  13.384
55933W        W27659  14.323  15.212   0.936
55934W        W27660   5.495  37.551   1.493
55935W        W27661  18.646  10.725  14.067
55936W        W27662  42.334  26.113  13.886
55937W        W27663   3.193  40.733  11.186
55938W        W27664   7.467  18.057   3.126
55939W        W27665  32.922  39.929   2.759
55940W        W27666   6.841   8.909  13.012
55941W        W27667   7.037  18.766  11.943
55942W        W27668  17.344  13.596   3.640
55943W        W27669   9.359  37.363   4.986
55944W        W27670  17.140  40.934   2.662
55945W        W27671  43.513  32.004   0.703
55946W        W27672  17.166  37.392   2.717
55947W        W27673  36.802  24.573   3.226
55948W        W27674  33.903  38.311  14.865
55949W        W27675  30.177  19.753  10.665
55950W        W27676   8.875  24.002  12.099
55951W        W27677  31.081  41.828  14.866
55952W        W27678  41.253   4.793  13.168
55953W        W27679  43.500  17.525  11.496
55954W        W27680  42.321   9.264  10.929
55955W        W27681   0.559  33.320   2.414
55956W        W27682   4.843  23.035  14.758
55957W        W27683  28.103   8.291   1.197
55958W        W27684  39.383  43.897  14.838
55959W        W27685  38.033  29.541   3.271
55960W        W27686  36.056  34.391   2.329
55961W        W27687   3.495  14.225  11.030
55962W        W27688   2.372  11.233  12.758
55963W        W27689  14.218  17.017  12.902
55964W        W27690  34.165   3.859   0.212
55965W        W27691  32.838  23.472  10.203
55966W        W27692  34.322   2.784   1.868
55967W        W27693  31.134   7.340   0.285
55968W        W27694  27.949   5.384   1.381
55969W        W27695   3.934   5.568   0.835
55970W        W27696   1.740  10.818   3.125
55971W        W27697  33.291   0.307  10.747
55972W        W27698  10.924   6.117  12.469
55973W        W27699   2.259  34.155  13.931
55974W        W27700  29.118   6.630  12.007
55975W        W27701   3.265  41.949  12.643
55976W        W27702   6.728  36.805  14.128
55977W        W27703  21.475  14.114  11.941
55978W        W27704  39.610  21.153   1.374
55979W        W27705  17.341  19.092  14.746
55980W        W27706  13.972   2.018   4.510
55981W        W27707   2.323  38.769   0.375
55982W        W27708   0.010  44.467  11.141
55983W        W27709  29.587  24.460   4.186
55984W        W27710  21.298   2.239  14.244
55985W        W27711  23.146  37.888   1.445
55986W        W27712  12.297  29.416   2.568
55987W        W27713   6.390  10.506   3.761
55988W        W27714   0.867  38.971   0.151
55989W        W27715  36.986  29.337  14.888
55990W        W27716  17.013   5.199   1.260
55991W        W27717  25.161   0.555  13.890
55992W        W27718   0.861   0.113  10.276
55993W        W27719   7.452  12.260   2.502
55994W        W27720  20.597  38.567  14.393
55995W        W27721  13.205  26.257   3.668
55996W        W27722   3.292  25.527   1.346
55997W        W27723  31.142  15.228  14.052
55998W        W27724  36.610  21.707  12.835
55999W        W27725  29.006  40.244   2.311
56000W        W27726   0.281  10.286   3.587
56001W        W27727  13.699   3.993   1.751
56002W        W27728  41.677  33.019   1.312
56003W        W27729  19.550  29.538  12.603
56004W        W27730  35.155  13.818  14.897
56005W        W27731  42.766   3.453  14.528
56006W        W27732  37.009  42.455   0.363
56007W        W27733  17.857   4.099  12.235
56008W        W27734  37.984  13.775   3.415
56009W        W27735  22.495  18.681   3.656
56010W        W27736  38.099  33.101  11.011
56011W        W27737  18.198   1.735   0.854
56012W        W27738  42.300  20.244  11.574
56013W        W27739  10.620   8.257   0.715
56014W        W27740   0.297  29.540   1.465
56015W        W27741  40.466  44.540  10.389
56016W        W27742  18.432  16.626  13.755
56017W        W27743  10.615  26.000  14.296
56018W        W27744  23.178   7.198   3.286
56019W        W27745  17.979   2.097  12.965
56020W        W27746  44.720  34.821   3.856
56021W        W27747   8.347   8.840  11.962
56022W        W27748  40.429  17.611  11.672
56023W        W27749   7.796  24.927   2.822
56024W        W27750   1.966   3.588  12.095
56025W        W27751  31.992  41.094   1.261
56026W        W27752  43.217  14.789  11.451
56027W        W27753  28.172  10.844   4.770
56028W        W27754  13.664  36.491  10.464
56029W        W27755  31.233  17.323   4.596
56030W        W27756   3.228  24.705  10.603
56031W        W27757  16.249   3.781   2.913
56032W        W27758  44.526  41.877   4.062
56033W        W27759  30.666   2.643  11.204
56034W        W27760  15.887   6.816  13.972
56035W        W27761   8.807  30.989  13.832
56036W        W27762  40.250   1.412   0.541
56037W        W27763  26.945   6.993  13.489
56038W        W27764   3.179  41.901  14.933
56039W        W27765  31.463  35.024   3.624
56040W        W27766  36.087  31.491   4.150
56041W        W27767   9.159  18.476   2.839
56042W        W27768  42.114   4.850  10.564
56043W        W27769   1.416  36.379   0.816
56044W        W27770   4.366  27.130   2.121
56045W        W27771  12.588   1.986   3.557
56046W        W27772  41.007  22.046   4.565
56047W        W27773   4.909  13.326   3.683
56048W        W27774  15.216  41.412  12.420
56049W        W27775   7.800  13.085  14.221
56050W        W27776  44.830   7.701   3.390
56051W        W27777  36.987  10.078   2.186
56052W        W27778  31.083   4.125   3.129
56053W        W27779  43.993  43.084  14.550
56054W        W27780  14.832  22.031  11.403
56055W        W27781  23.051  33.615   3.946
56056W        W27782  26.049   8.309   2.279
56057W        W27783  35.022  30.504   3.147
56058W        W27784   3.402  15.007   4.117
56059W        W27785  33.878  35.324   2.275
56060W        W27786  27.319  34.056   0.399
56061W        W27787  23.350   4.420  13.898
56062W        W27788  16.674   6.217   0.712
56063W        W27789  42.778  29.397  11.189
56064W        W27790  25.997  23.744   1.410
56065W        W27791  37.313  18.725   3.581
56066W        W27792  12.801   0.573  12.749
56067W        W27793  10.819  19.218   0.184
56068W        W27794  37.087  38.406   3.188
56069W        W27795  15.276  10.636  10.575
56070W        W27796   6.256  22.765  13.423
56071W        W27797  12.703  11.925   0.287
56072W        W27798  43.483   2.890   1.667
56073W        W27799  39.366  32.341  11.243
56074W        W27800  11.065   8.824   3.381
56075W        W27801  32.645  31.594   2.415
56076W        W27802  22.766  35.441   1.721
56077W        W27803  32.943   3.258   0.479
56078W        W27804   2.991  43.859   4.278
56079W        W27805   5.925  12.447   4.911
56080W        W27806  10.857  30.530  10.707
56081W        W27807  35.646   2.870  14.761
56082W        W27808   1.221  15.287  14.861
56083W        W27809  37.538   4.601   4.892
56084W        W27810  11.410  17.751  13.947
56085W        W27811  11.069  23.243   1.792
56086W        W27812  43.292  16.703   2.711
56087W        W27813   0.991  21.246   2.919
56088W        W27814   5.445  26.525  12.627
56089W        W27815   8.866   8.934  14.850
56090W        W27816  31.443   4.744  14.950
56091W        W27817  39.805   6.917   4.178
56092W        W27818   1.998  20.638   1.284
56093W        W27819  24.085  43.780   2.220
56094W        W27820  27.417  42.337  13.348
56095W        W27821  10.382   5.287  12.028
56096W        W27822  30.405  10.825  11.034
56097W        W27823  39.303   8.777   2.451
56098W        W27824  10.096   7.359  11.537
56099W        W27825  26.053   7.197  12.350
56100W        W27826   4.232  22.263   2.269
56101W        W27827  14.572   0.418   3.358
56102W        W27828  30.294   0.282   4.840
56103W        W27829  23.682  10.157  11.179
56104W        W27830  35.823  21.339  12.826
56105W        W27831  38.425   8.802   1.825
56106W        W27832  44.615   4.259   1.163
56107W        W27833  25.713  20.774   2.314
56108W        W27834  44.025  36.854  13.327
56109W        W27835  39.933  27.902  14.868
56110W        W27836  11.779   5.739  12.132
56111W        W27837  15.771  33.173   0.437
56112W        W27838  28.451  37.111   2.259
56113W        W27839  15.151  31.152   1.369
56114W        W27840  30.969  27.178   9.649
56115W        W27841  33.888  18.813  14.356
56116W        W27842  14.763  39.284   4.607
56117W        W27843  41.048  11.108  12.952
56118W        W27844  27.968  42.835   3.003
56119W        W27845  17.267  24.544  14.685
56120W        W27846   0.095  25.146   2.687
56121W        W27847  31.147  13.816  14.977
56122W        W27848  24.094  13.562  11.174
56123W        W27849  15.081  14.325  10.199
56124W        W27850  37.497  17.605  10.786
56125W        W27851  24.696   7.796  14.959
56126W        W27852  34.885  43.896  13.389
56127W        W27853  17.094  31.032  10.553
56128W        W27854  16.984   0.414   1.324
56129W        W27855  12.919  44.941  14.515
56130W        W27856  30.763  33.882  13.261
56131W        W27857  38.021  20.470  13.053
56132W        W27858   3.869  11.616  14.709
56133W        W27859  25.981  17.584   0.792
56134W        W27860  42.016  23.580   1.419
56135W        W27861   0.737  26.593   4.223
56136W        W27862  18.188  29.903   4.649
56137W        W27863  11.433  18.924   2.244
56138W        W27864  16.992   6.698  11.932
56139W        W27865  18.780  20.920   4.212
56140W        W27866  41.280  18.641  10.700
56141W        W27867  21.040  12.689  14.783
56142W        W27868  38.204   3.680   5.038
56143W        W27869  20.047  14.379   4.426
56144W        W27870  24.188  37.918  11.121
56145W        W27871   0.479  31.363  12.297
56146W        W27872  10.270  35.006   0.515
56147W        W27873  23.965  43.933   0.758
56148W        W27874   6.957  20.225  11.527
56149W        W27875  44.836  18.539  14.879
56150W        W27876  38.232   6.188  12.895
56151W        W27877  11.633   7.459   2.237
56152W        W27878   3.132  32.850  11.591
56153W        W27879   9.288  12.591   2.278
56154W        W27880   5.814  22.742  12.883
56155W        W27881   0.854  28.600  12.810
56156W        W27882  42.023  13.638  14.848
56157W        W27883  39.976  37.901  14.504
56158W        W27884  16.603  16.762  10.963
56159W        W27885  44.253  36.258   4.112
56160W        W27886  40.856  18.657   2.940
56161W        W27887  28.612  25.273  13.488
56162W        W27888  11.862  39.914   1.762
56163W        W27889  31.768  10.233   2.491
56164W        W27890   6.969   8.118  12.418
56165W        W27891  23.976  38.342   4.099
56166W        W27892  16.294  32.508   1.453
56167W        W27893  29.035  34.000  14.096
56168W        W27894  18.015  32.556  12.904
56169W        W27895  11.408  43.896   1.286
56170W        W27896   5.734  26.461   4.746
56171W        W27897   6.678  11.700   2.690
56172W        W27898  11.612  11.311   0.639
56173W        W27899  16.389  23.293  11.706
56174W        W27900  18.502  35.978   1.892
56175W        W27901  43.985  34.408  10.377
56176W        W27902  32.451   8.307  11.188
56177W        W27903  42.430  34.120   1.299
56178W        W27904  41.978  29.002  13.340
56179W        W27905  38.332  14.971  12.078
56180W        W27906  13.581  43.992   4.165
56181W        W27907   1.803  28.483   1.516
56182W        W27908  20.120  44.931   1.764
56183W        W27909  20.171  33.445  12.978
56184W        W27910  19.092  44.184   2.829
56185W        W27911   7.949  26.261  12.934
56186W        W27912   7.270  32.137  13.900
56187W        W27913  23.782  42.948   4.918
56188W        W27914   6.085  29.639  14.748
56189W        W27915  39.872  22.624   2.457
56190W        W27916  10.199  24.450   1.429
56191W        W27917   0.779  16.423   2.303
56192W        W27918  24.137   0.786  13.264
56193W        W27919   2.032  20.761   0.356
56194W        W27920   4.785  14.071   1.753
56195W        W27921  27.946  38.972   2.004
56196W        W27922  15.661  14.610   1.185
56197W        W27923  23.150  11.837  11.986
56198W        W27924  30.466  31.405   4.744
56199W        W27925  40.927  21.673  10.797
56200W        W27926  34.904  15.061   0.308
56201W        W27927  18.680  25.195  13.474
56202W        W27928  12.046  25.469  10.697
56203W        W27929  21.068  12.938  13.509
56204W        W27930  20.985  35.486  14.328
56205W        W27931  37.099  28.170   2.792
56206W        W27932   1.901  20.317  12.117
56207W        W27933  36.767   6.673   2.287
56208W        W27934   0.973  35.464  14.737
56209W        W27935  34.373   1.286   2.647
56210W        W27936  34.300  44.537  14.378
56211W        W27937   1.030  30.482   3.233
56212W        W27938   1.351  36.872   0.494
56213W        W27939  11.310   0.988  13.927
56214W        W27940  24.200  27.671   3.565
56215W        W27941  24.664  36.800   4.737
56216W        W27942  15.823  29.233  14.908
56217W        W27943  17.061  20.041   2.799
56218W        W27944  33.466  33.017  11.036
56219W        W27945  11.225  20.262   0.558
56220W        W27946  44.508  41.875   2.256
56221W        W27947  26.218  35.968  11.942
56222W        W27948  10.930  38.415   3.265
56223W        W27949  25.176  10.608  14.945
56224W        W27950   2.806   7.318   3.449
56225W        W27951   9.817  23.541  10.459
56226W        W27952  18.169   0.299   3.806
56227W        W27953  15.526  38.811   2.415
56228W        W27954  13.297  10.899   2.759
56229W        W27955  19.102  17.477   3.287
56230W        W27956   0.604   6.974  13.088
56231W        W27957   5.641  35.153   3.633
56232W        W27958  38.952  33.292   0.674
56233W        W27959  31.606  23.677   2.769
56234W        W27960  37.519  11.213   2.204
56235W        W27961  11.938   3.502   1.801
56236W        W27962  42.083  44.820  13.942
56237W        W27963   9.925  27.742  14.215
56238W        W27964   5.221   8.813   2.320
56239W        W27965  23.739  32.614  13.514
56240W        W27966  16.997  32.071   0.881
56241W        W27967  23.571  34.778   1.156
56242W        W27968  19.959  31.083   2.690
56243W        W27969   8.215  19.581   4.108
56244W        W27970  25.091  28.677   3.844
56245W        W27971  38.051  24.573   0.493
56246W        W27972  29.765  32.096   3.776
56247W        W27973   1.543  20.167   1.709
56248W        W27974   1.810  28.614  13.809
56249W        W27975  30.169   8.313  12.636
56250W        W27976  41.363  31.035   2.891
56251W        W27977  10.099  31.597  13.062
56252W        W27978  42.657  25.939   0.186
56253W        W27979  15.350  21.314  14.872
56254W        W27980   9.339  32.268  14.785
56255W        W27981   8.467  40.358   4.950
56256W        W27982  12.418  12.083   1.141
56257W        W27983  30.721  43.318   4.977
56258W        W27984   9.673  17.880   1.827
56259W        W27985  16.394  12.359   1.476
56260W        W27986  19.275  15.440   2.240
56261W        W27987  27.120  29.206   4.915
56262W        W27988  12.611  32.954   3.226
56263W        W27989   7.258  13.230   4.443
56264W        W27990  20.582   4.767  13.283
56265W        W27991  44.795   0.381   3.342
56266W        W27992  36.853  44.396  10.526
56267W        W27993   9.625  35.041   1.405
56268W        W27994  16.790  35.520   2.342
56269W        W27995  17.842  44.974  11.156
56270W        W27996  42.351  23.225   1.042
56271W        W27997  21.021  40.590   0.067
56272W        W27998   3.979  22.637   1.463
56273W        W27999  18.369   1.580   1.681
56274W        W28000  22.609   0.790  10.725
56275W        W28001   5.666  43.794   4.244
56276W        W28002  44.809  16.422   2.499
56277W        W28003  18.237  12.674  12.625
56278W        W28004  12.273  20.803  10.703
56279W        W28005  14.917  25.805   0.436
56280W        W28006   2.325  25.930  12.991
56281W        W28007  16.503   2.673   4.657
56282W        W28008   3.875  34.784  13.376
56283W        W28009   3.236  19.588   4.138
56284W        W28010  11.883   6.937   0.484
56285W        W28011   3.316  33.137  11.201
56286W        W28012  24.663  40.274  13.853
56287W        W28013  32.588  30.938   1.295
56288W        W28014  20.012  35.000  12.876
56289W        W28015   9.789  20.721  14.856
56290W        W28016   9.154  17.959   1.006
56291W        W28017  18.005   7.885  13.036
56292W        W28018   9.336  44.399  10.749
56293W        W28019  28.518  20.773   4.199
56294W        W28020  30.107  27.778   0.971
56295W        W28021  13.186  37.221  11.864
56296W        W28022  19.311  35.406   4.155
56297W        W28023  12.389   4.396   4.062
56298W        W28024  32.599  33.511   1.441
56299W        W28025  43.787  20.308   4.549
56300W        W28026  13.293  18.307   4.690
56301W        W28027  25.512  28.166   0.804
56302W        W28028  12.196  44.234  10.786
56303W        W28029  44.288  41.959  13.587
56304W        W28030  18.319  40.073  11.136
56305W        W28031  16.297   7.607   1.091
56306W        W28032  18.571  36.133   3.479
56307W        W28033  15.563   7.945  12.016
56308W        W28034  20.641   5.230  11.241
56309W        W28035   3.927  36.584  13.944
56310W        W28036  25.587  34.079  12.875
56311W        W28037  38.476  19.884  11.881
56312W        W28038  40.113  18.683   4.619
56313W        W28039  12.113   2.906   4.086
56314W        W28040  21.744  18.821   1.460
56315W        W28041   5.982  27.629  14.268
56316W        W28042   9.030  25.338  14.810
56317W        W28043  36.889  20.832  12.077
56318W        W28044  10.690  37.016   1.663
56319W        W28045  36.955   3.218  11.568
56320W        W28046  26.714   6.818  10.714
56321W        W28047  19.018   4.845   0.548
56322W        W28048  23.326  28.933   0.228
56323W        W28049  43.495   4.544   3.230
56324W        W28050  30.433  32.582   3.324
56325W        W28051   0.518  25.498  12.502
56326W        W28052  29.712  15.569   1.215
56327W        W28053  25.106  29.037   4.245
56328W        W28054  18.220  40.698  14.820
56329W        W28055  19.742  35.001  14.777
56330W        W28056  14.172   5.902  14.394
56331W        W28057  16.271   5.674  12.353
56332W        W28058  44.541  10.331   4.282
56333W        W28059  12.222  29.566   1.706
56334W        W28060  37.900  10.222  10.706
56335W        W28061   9.938   7.098  13.566
56336W        W28062   9.296  32.531  13.739
56337W        W28063   2.892  31.599   3.113
56338W        W28064   5.259  40.746  12.414
56339W        W28065   7.658  41.996   0.857
56340W        W28066   2.141  39.334  12.927
56341W        W28067  20.200   9.559   4.454
56342W        W28068  44.487  23.964   1.880
56343W        W28069  25.439   6.016  14.902
56344W        W28070  24.214  39.454   2.254
56345W        W28071  37.883  11.660  14.926
56346W        W28072   6.648  28.967  14.030
56347W        W28073   1.717   9.863   2.825
56348W        W28074  36.972  25.532   4.600
56349W        W28075  24.381  27.516   4.643
56350W        W28076  12.730  17.545   2.557
56351W        W28077  25.791  35.528  10.955
56352W        W28078  31.009  12.367  14.471
56353W        W28079  25.209  16.141  14.595
56354W        W28080   0.876  13.092   1.902
56355W        W28081   4.013  41.808   1.454
56356W        W28082  41.224   2.990   2.899
56357W        W28083  25.920  17.061  11.425
56358W        W28084  43.805  32.647   2.056
56359W        W28085  38.372  25.949   1.758
56360W        W28086  19.145  10.370  14.667
56361W        W28087  17.757  36.323  13.096
56362W        W28088  44.016  16.945   3.287
56363W        W28089   2.541  32.821  10.826
56364W        W28090   9.862   4.850   2.258
56365W        W28091  25.503  26.184   0.508
56366W        W28092  12.128  22.082  14.776
56367W        W28093  33.792  19.933   2.595
56368W        W28094  42.384  27.672   5.029
56369W        W28095   5.895  44.403  12.851
56370W        W28096   4.194  32.086   2.707
56371W        W28097  44.683  40.916   3.291
56372W        W28098  12.267  25.072   2.017
56373W        W28099  13.259  34.832   4.697
56374W        W28100  28.296  27.471  11.367
56375W        W28101   3.309   9.760  11.579
56376W        W28102  10.182   6.197  11.988
56377W        W28103  26.679  32.930   2.728
56378W        W28104   2.836  35.555   3.382
56379W        W28105  44.992  37.978   0.393
56380W        W28106   3.978  14.935   0.247
56381W        W28107  15.596  40.924  14.052
56382W        W28108  24.292  22.158  12.411
56383W        W28109  11.740   6.263   5.564
56384W        W28110  18.933  25.659  12.545
56385W        W28111  25.739   8.694  11.984
56386W        W28112  40.934   3.234   3.276
56387W        W28113  18.244  35.941   1.329
56388W        W28114  23.963  42.580   4.585
56389W        W28115  23.560   5.858   2.787
56390W        W28116  15.028  36.004  11.602
56391W        W28117  13.381  33.347   3.024
56392W        W28118  28.552  17.014  11.830
56393W        W28119  32.004  19.562  14.891
56394W        W28120  31.624   2.571  13.505
56395W        W28121  17.358  23.700   1.472
56396W        W28122  44.247  11.332  12.529
56397W        W28123   8.703   3.708  14.786
56398W        W28124  22.323   3.658   1.360
56399W        W28125  43.550  22.041  14.473
56400W        W28126  14.129   0.179   3.209
56401W        W28127  18.793   9.450  13.342
56402W        W28128  41.465  11.138  11.160
56403W        W28129  32.983  44.406  11.945
56404W        W28130  22.101  37.989   3.155
56405W        W28131   5.887   4.844  11.277
56406W        W28132   8.133  28.998  10.452
56407W        W28133   5.261  25.558  11.985
56408W        W28134  14.291  20.119  11.468
56409W        W28135  25.790  27.434   1.878
56410W        W28136  35.789  24.168   3.920
56411W        W28137  21.617  42.318  11.506
56412W        W28138   8.228  32.875  11.211
56413W        W28139  19.233  23.453   4.436
56414W        W28140  40.656  17.123   0.307
56415W        W28141  29.221  35.111  10.601
56416W        W28142   5.658   9.702  14.961
56417W        W28143  39.826  26.983  12.913
56418W        W28144  37.531  10.885  12.778
56419W        W28145  13.347  30.851  10.599
56420W        W28146   2.905  19.487   2.877
56421W        W28147   2.152  29.950  12.435
56422W        W28148   6.931  21.003   4.233
56423W        W28149  18.449  30.555   2.257
56424W        W28150  34.818  14.653  14.982
56425W        W28151  21.089  34.501   1.036
56426W        W28152  33.056  29.743   0.859
56427W        W28153  25.917  26.238  11.466
56428W        W28154  29.450  29.953  13.735
56429W        W28155  34.494  11.937  14.371
56430W        W28156  11.298  36.094  10.416
56431W        W28157  20.160  29.117   2.412
56432W        W28158  31.739  14.061   0.388
56433W        W28159  26.812  23.312   5.081
56434W        W28160  27.416  15.735  11.261
56435W        W28161  13.629  34.017  11.643
56436W        W28162   8.655  12.649  11.744
56437W        W28163  29.916   1.664   4.388
56438W        W28164  17.260  37.314   4.095
56439W        W28165  31.592  32.187  13.418
56440W        W28166   6.926  23.118   0.029
56441W        W28167   6.151  44.325   3.780
56442W        W28168  14.743   6.523  10.408
56443W        W28169  32.069  24.933  14.426
56444W        W28170  10.321  31.000   1.226
56445W        W28171  30.565  21.526   0.291
56446W        W28172  19.624  19.151  13.812
56447W        W28173  33.461   9.247   0.548
56448W        W28174   0.085  15.320  13.262
56449W        W28175   8.183  33.089   4.111
56450W        W28176  11.768  18.154   1.733
56451W        W28177  35.519  21.677   4.641
56452W        W28178  12.602  23.807   3.361
56453W        W28179  33.012  39.852   3.285
56454W        W28180  19.204  23.027   4.147
56455W        W28181  35.520  40.256   1.599
56456W        W28182  35.066  22.692   2.787
56457W        W28183  43.929  11.066  12.891
56458W        W28184  40.255   3.247  13.693
56459W        W28185  17.734  19.190  13.093
56460W        W28186  24.002   6.153   0.784
56461W        W28187   7.480  44.029   0.530
56462W        W28188   1.777  20.817   1.761
56463W        W28189   6.662  44.764  13.908
56464W        W28190  35.973  38.440  12.547
56465W        W28191  34.121  12.722   1.747
56466W        W28192  43.453  36.612  13.771
56467W        W28193  12.138  18.800  14.748
56468W        W28194  15.998  15.312   0.047
56469W        W28195  10.835  24.297   3.341
56470W        W28196   2.960  22.633  10.787
56471W        W28197  27.476  42.908   2.295
56472W        W28198  20.885   2.384   3.631
56473W        W28199  39.311  24.025   1.818
56474W        W28200  19.157  38.711   1.320
56475W        W28201  23.115  35.083   1.891
56476W        W28202  23.124  41.263   4.244
56477W        W28203   8.821  15.558  14.014
56478W        W28204  41.296  35.371  13.976
56479W        W28205  41.310   6.004  12.148
56480W        W28206  43.984  37.948   0.270
56481W        W28207  25.169  30.587   0.998
56482W        W28208   6.307  40.686  14.479
56483W        W28209  41.418  33.582  10.678
56484W        W28210  20.586   9.474  11.606
56485W        W28211  31.363  35.437   0.255
56486W        W28212  38.410   8.501  11.931
56487W        W28213  22.510  34.165  14.012
56488W        W28214   1.443  23.573  14.858
56489W        W28215   2.320   7.895  11.159
56490W        W28216  40.917  13.510   2.448
56491W        W28217  14.880  33.354   3.103
56492W        W28218  27.410  25.151  12.008
56493W        W28219  13.771  33.266   1.794
56494W        W28220  20.205  21.175   1.204
56495W        W28221  31.199  12.149  12.139
56496W        W28222  33.431  28.275  10.023
56497W        W28223  11.403  26.625  10.396
56498W        W28224   0.241  19.138  12.899
56499W        W28225  16.757  11.359  11.782
56500W        W28226   6.856  14.129   1.788
56501W        W28227  14.280  25.565   1.857
56502W        W28228  21.617  32.908  10.549
56503W        W28229   8.300  38.070   3.603
56504W        W28230  42.780  27.709   0.854
56505W        W28231  37.667  16.566   2.338
56506W        W28232  39.294  42.291  11.188
56507W        W28233  23.816  37.977   1.938
56508W        W28234  30.691  28.613   3.711
56509W        W28235  41.746   3.237   1.836
56510W        W28236  12.260  16.287   3.748
56511W        W28237  16.804  33.670  13.811
56512W        W28238   1.332  16.234  14.448
56513W        W28239  34.937  23.278   2.686
56514W        W28240  18.985  35.293  11.136
56515W        W28241  24.504  29.547  11.535
56516W        W28242   3.330  14.337   1.710
56517W        W28243  11.408  38.403   1.847
56518W        W28244  38.776  34.086   0.308
56519W        W28245  34.926   0.746  12.886
56520W        W28246  20.168  19.793   2.378
56521W        W28247  44.934  10.689   0.262
56522W        W28248  28.930   5.460   3.722
56523W        W28249   9.204  32.161   2.858
56524W        W28250  32.628   8.174   1.186
56525W        W28251  31.914  24.690   2.252
56526W        W28252  33.159  37.835   3.365
56527W        W28253  23.968  36.505   0.378
56528W        W28254  38.361  12.693   4.642
56529W        W28255  13.268  44.757   1.487
56530W        W28256   5.975  40.486  11.121
56531W        W28257  42.913  36.890   2.708
56532W        W28258  26.155  13.346   0.503
56533W        W28259   0.398  30.512   4.338
56534W        W28260   3.034  24.503  14.165
56535W        W28261  38.333   9.055   3.706
56536W        W28262  27.903  29.822  14.978
56537W        W28263  24.049  23.401  14.261
56538W        W28264  41.226  21.772   3.760
56539W        W28265  18.747  32.946  13.899
56540W        W28266  24.002  12.596   2.076
56541W        W28267  14.571  43.114   1.249
56542W        W28268  27.573  12.352   0.768
56543W        W28269   0.744  32.406  13.794
56544W        W28270   6.797  11.569  14.717
56545W        W28271  17.310  36.399   0.784
56546W        W28272  31.803   3.633  14.387
56547W        W28273   2.042  21.749   2.078
56548W        W28274  17.926  15.739   4.832
56549W        W28275  18.088  14.651   0.840
56550W        W28276  29.629  40.013  13.274
56551W        W28277  13.287  44.912   1.995
56552W        W28278   7.208  15.757  12.412
56553W        W28279   9.956  31.030  10.829
56554W        W28280  14.192  36.059  10.562
56555W        W28281  29.018  17.291  10.399
56556W        W28282   4.359   2.679  13.615
56557W        W28283  26.450  41.404  13.768
56558W        W28284  11.361  37.391   4.068
56559W        W28285  28.608  16.186   1.523
56560W        W28286  13.255   1.343  12.229
56561W        W28287   7.088  32.671   2.738
56562W        W28288   3.857  44.262   4.516
56563W        W28289  34.293  17.241  11.659
56564W        W28290  44.561  21.590  11.176
56565W        W28291  44.944  18.274   2.755
56566W        W28292  25.510   4.703   1.689
56567W        W28293  34.130  31.596   1.406
56568W        W28294   7.891  10.455  14.729
56569W        W28295  43.221  40.907   4.764
56570W        W28296   0.872   7.685   2.333
56571W        W28297  17.848  27.485   4.480
56572W        W28298   9.241  15.842   2.847
56573W        W28299  31.411  30.150  12.456
56574W        W28300  19.167  29.231  13.327
56575W        W28301   8.844  21.791   4.882
56576W        W28302   4.676  41.587  14.619
56577W        W28303  20.823  14.941   5.044
56578W        W28304  38.418   6.706   0.743
56579W        W28305  22.679  34.843  11.601
56580W        W28306  19.535  42.747  11.485
56581W        W28307   5.492  12.813   1.386
56582W        W28308  20.982  14.640   2.775
56583W        W28309  21.486  41.054   2.936
56584W        W28310   3.035   4.179   2.137
56585W        W28311  28.825  17.706  11.546
56586W        W28312   1.327   4.883  10.424
56587W        W28313   5.973   3.217  13.800
56588W        W28314  36.936  31.586  14.421
56589W        W28315  36.879  34.335   1.248
56590W        W28316  23.599   0.943   4.021
56591W        W28317  21.135  27.891   2.265
56592W        W28318  10.835  28.866   2.532
56593W        W28319  17.626  25.959  14.893
56594W        W28320  15.271  15.733  12.312
56595W        W28321   7.185   6.194  13.712
56596W        W28322  11.969  43.433   3.935
56597W        W28323  31.915  18.114   1.417
56598W        W28324   1.802  41.946   4.017
56599W        W28325   7.702  40.562   4.140
56600W        W28326  32.387  27.943  14.244
56601W        W28327  34.879  39.555   3.177
56602W        W28328  43.218  33.497  13.408
56603W        W28329  30.654  12.864   4.552
56604W        W28330  16.349  27.630   0.915
56605W        W28331  19.191  27.629  12.338
56606W        W28332  43.455  24.162  11.157
56607W        W28333  11.863  29.127  13.057
56608W        W28334  43.207  32.933   2.325
56609W        W28335  16.962  38.146  10.950
56610W        W28336  29.515  19.667   2.379
56611W        W28337  44.229  10.715   4.415
56612W        W28338  10.888  43.697  11.126
56613W        W28339  21.877  33.029   4.649
56614W        W28340  17.044  25.518  14.435
56615W        W28341  11.236  41.916   3.893
56616W        W28342  35.349  35.430   4.092
56617W        W28343  27.654  41.081  11.069
56618W        W28344  26.016   2.412  11.155
56619W        W28345  41.446  21.085  12.353
56620W        W28346   8.309  18.574   2.599
56621W        W28347  14.420  38.131   0.993
56622W        W28348   0.232   1.883   3.171
56623W        W28349  13.793  14.715  13.845
56624W        W28350  11.167  12.796   0.330
56625W        W28351  37.301  25.527   1.688
56626W        W28352   5.176  18.655   1.993
56627W        W28353  36.364  35.530   1.140
56628W        W28354   7.571   6.349   1.300
56629W        W28355  19.096  34.197  14.918
56630W        W28356   9.223  20.634   1.630
56631W        W28357  31.982  25.152  13.928
56632W        W28358   8.947  38.579  13.329
56633W        W28359  35.067  28.034  13.433
56634W        W28360   5.061  10.828   4.602
56635W        W28361  35.047   5.112   1.650
56636W        W28362  25.503  14.520  11.970
56637W        W28363  20.983   8.129  11.979
56638W        W28364  16.296   2.225   0.374
56639W        W28365  41.552  38.722   4.649
56640W        W28366  42.015  44.879  12.487
56641W        W28367   1.241  33.077   3.293
56642W        W28368  28.938  14.202  10.900
56643W        W28369  23.265  12.653  12.377
56644W        W28370   3.996  40.523   0.765
56645W        W28371   2.990   9.696  12.446
56646W        W28372   8.171  42.934  14.788
56647W        W28373  36.201   2.471   1.863
56648W        W28374   4.969  13.105  14.020
56649W        W28375   8.869  34.895  11.630
56650W        W28376  29.527   5.247  12.173
56651W        W28377  40.051  21.189  13.552
56652W        W28378   8.433  27.259   4.087
56653W        W28379  36.645  40.351  14.801
56654W        W28380  31.924  40.882  14.272
56655W        W28381  31.914  23.867  11.051
56656W        W28382  20.101   2.817   4.508
56657W        W28383  44.446  43.030   0.893
56658W        W28384  35.610  21.486   1.478
56659W        W28385  41.051   4.090  14.752
56660W        W28386   7.598   8.482  10.360
56661W        W28387  27.936  22.823  14.003
56662W        W28388   9.273  24.730   4.569
56663W        W28389  26.571  17.707   1.320
56664W        W28390   6.861  25.986   0.438
56665W        W28391  42.386  12.164  10.756
56666W        W28392  34.991  21.240  14.399
56667W        W28393  34.014  11.174  14.354
56668W        W28394  29.883  16.938  14.281
56669W        W28395   0.891  12.720   3.877
56670W        W28396  15.576   7.766   2.104
56671W        W28397  35.644  42.773  13.858
56672W        W28398  36.812   1.348   0.000
56673W        W28399   8.173  11.871   4.301
56674W        W28400  34.985  12.100   0.152
56675W        W28401  30.092  12.091   0.455
56676W        W28402  20.497  10.118   0.710
56677W        W28403  22.089   0.532  13.403
56678W        W28404  41.534  13.919   2.960
56679W        W28405  23.654  19.558  13.965
56680W        W28406  27.109  33.340  11.575
56681W        W28407  18.923  18.803   3.127
56682W        W28408   3.327  31.405   4.520
56683W        W28409   6.896   7.183  10.652
56684W        W28410  19.268  37.101  14.862
56685W        W28411   8.656   2.886  14.305
56686W        W28412   0.113  24.662   3.761
56687W        W28413   6.362  21.334   5.409
56688W        W28414  25.238   8.545  13.763
56689W        W28415   7.431   5.345  12.529
56690W        W28416  23.116  38.458   4.575
56691W        W28417  19.461  23.723   2.619
56692W        W28418   6.724  28.104  13.993
56693W        W28419   5.357  21.499   2.366
56694W        W28420  31.053  25.695   4.154
56695W        W28421  44.937  43.035   3.161
56696W        W28422  33.573  41.643   2.727
56697W        W28423   0.277   9.833  14.355
56698W        W28424  31.220  20.353  12.562
56699W        W28425  26.027  42.076   3.117
56700W        W28426  26.651  11.356   3.304
56701W        W28427   7.413  37.642  11.654
56702W        W28428  38.956  34.948   4.867
56703W        W28429  43.697  12.210  11.774
56704W        W28430  30.724  20.229  12.562
56705W        W28431  19.562   0.368   0.919
56706W        W28432  10.414  23.223  12.091
56707W        W28433  12.196  22.607  13.465
56708W        W28434  33.335   5.293   3.273
56709W        W28435  29.965  39.355  11.696
56710W        W28436  10.623  17.018  14.529
56711W        W28437   4.277   2.326  11.455
56712W        W28438   6.238  35.696   1.291
56713W        W28439  21.019  20.935   1.181
56714W        W28440  23.952   0.959  14.287
56715W        W28441  37.314  29.105   2.212
56716W        W28442  34.922  35.499   4.417
56717W        W28443  44.208  21.277  11.355
56718W        W28444  23.146  39.497  10.613
56719W        W28445  23.192  12.402  13.471
56720W        W28446  25.437  42.877  12.057
56721W        W28447  32.907   9.795  13.932
56722W        W28448  41.521  43.934   2.033
56723W        W28449  26.116   4.801  14.918
56724W        W28450  14.111  23.458  11.539
56725W        W28451  21.085   3.714  13.732
56726W        W28452   4.311  22.734  13.205
56727W        W28453  34.912  30.211  13.607
56728W        W28454  26.096  43.637  12.434
56729W        W28455  14.533   6.734   3.058
56730W        W28456  28.549   7.730  13.231
56731W        W28457   2.334  26.634   1.622
56732W        W28458  38.762  22.539  12.040
56733W        W28459  30.099  21.665  11.205
56734W        W28460  10.417  34.510   3.620
56735W        W28461  17.441  42.529  12.476
56736W        W28462  13.006  27.544   0.312
56737W        W28463  31.730  38.187  11.558
56738W        W28464  12.793  17.286  13.009
56739W        W28465  12.524  14.126   2.601
56740W        W28466   6.474  14.614   0.489
56741W        W28467  40.905  42.086   3.644
56742W        W28468  12.070  26.191   3.221
56743W        W28469   3.637  31.690  11.960
56744W        W28470  32.370  20.638   4.779
56745W        W28471  36.884   4.660  11.954
56746W        W28472  18.739  29.950  12.843
56747W        W28473  38.292  19.526   1.651
56748W        W28474  24.812   2.130  11.979
56749W        W28475  34.475  13.753   2.321
56750W        W28476  17.024   1.952   3.632
56751W        W28477  31.541  41.591   5.056
56752W        W28478  41.704   6.508   1.385
56753W        W28479  19.659  25.456  13.788
56754W        W28480  41.570  44.341   4.648
56755W        W28481  37.880  35.482  14.873
56756W        W28482  27.319  22.743   2.343
56757W        W28483   1.898  30.607  14.833
56758W        W28484  24.790   1.195  10.296
56759W        W28485  26.139  25.742  13.303
56760W        W28486   6.460  28.692   4.075
56761W        W28487  19.004  31.558  14.266
56762W        W28488   6.590  44.933  12.625
56763W        W28489  36.359   1.385   2.281
56764W        W28490  20.667  42.280  13.490
56765W        W28491  20.582  22.193  12.448
56766W        W28492   6.300  28.929  13.128
56767W        W28493  38.519   0.272  11.664
56768W        W28494  17.100  40.876   3.946
56769W        W28495   5.722  23.567   1.217
56770W        W28496   7.793  27.480   4.629
56771W        W28497  18.830  24.265  12.471
56772W        W28498  44.668  17.658  11.932
56773W        W28499  13.377  40.938   3.585
56774W        W28500  15.780   7.707   1.190
56775W        W28501  40.051  14.768  11.174
56776W        W28502  38.862   8.607  12.169
56777W        W28503  27.061   3.012  11.057
56778W        W28504  39.910   5.832  11.468
56779W        W28505   9.105  30.700   4.190
56780W        W28506  14.306  17.049  11.550
56781W        W28507   2.005  35.989  12.036
56782W        W28508  20.244  31.461  12.472
56783W        W28509  23.930  37.811   4.072
56784W        W28510  24.711  34.490   4.043
56785W        W28511  25.807  42.664   5.158
56786W        W28512   1.255  40.765  14.432
56787W        W28513   8.699  20.339   4.106
56788W        W28514  42.054  33.372   1.195
56789W        W28515  36.938  44.222   4.512
56790W        W28516  35.186  11.212   3.732
56791W        W28517  17.713  16.544   4.365
56792W        W28518  25.329  22.605  13.365
56793W        W28519  10.396  36.797   1.262
56794W        W28520  38.502  31.902  10.394
56795W        W28521  44.018  14.887  10.821
56796W        W28522  39.780  16.729  11.561
56797W        W28523  27.581   7.977   2.875
56798W        W28524  29.186   1.251   1.327
56799W        W28525   4.190  17.758  12.224
56800W        W28526  36.529  10.090   2.437
56801W        W28527  43.850   8.870   1.056
56802W        W28528  15.186  39.124  10.678
56803W        W28529  25.648  13.258  12.870
56804W        W28530  17.849  24.064  12.457
56805W        W28531  18.237  24.674   0.046
56806W        W28532  34.464  31.014  11.143
56807W        W28533   8.288  30.828   0.347
56808W        W28534  29.303  27.435   4.103
56809W        W28535  22.290  35.854  14.289
56810W        W28536   5.438  19.995  14.426
56811W        W28537  39.330   7.615   1.929
56812W        W28538   6.928  14.906  10.230
56813W        W28539  27.105  44.072   0.402
56814W        W28540  25.111  22.620   0.230
56815W        W28541  37.298  26.188  12.575
56816W        W28542  32.931  37.445  10.621
56817W        W28543  43.931  19.741  11.176
56818W        W28544  11.010  38.107  14.932
56819W        W28545  26.166  20.250  11.070
56820W        W28546  20.669  10.721  12.427
56821W        W28547   4.645  37.787  13.988
56822W        W28548  26.004  31.156   0.843
56823W        W28549  12.286  20.697  13.049
56824W        W28550  35.591   0.409  11.179
56825W        W28551  13.264  10.729  12.386
56826W        W28552  43.928  31.929  10.980
56827W        W28553  25.961  14.852  11.171
56828W        W28554  36.431   7.644   0.406
56829W        W28555  18.787  10.269   4.106
56830W        W28556   1.423   0.941   5.072
56831W        W28557  36.128   8.444   0.704
56832W        W28558   9.857  33.818   2.699
56833W        W28559  10.819  12.196  13.360
56834W        W28560  14.712  34.938   0.395
56835W        W28561  15.337  44.767  14.528
56836W        W28562  40.797  31.328  10.657
56837W        W28563  13.852  11.257  14.455
56838W        W28564  19.133  10.298   2.332
56839W        W28565  29.912  28.091  14.900
56840W        W28566  20.182  43.755  10.609
56841W        W28567  41.702  40.819   2.875
56842W        W28568   3.408  28.497  11.549
56843W        W28569  27.655  14.175   3.137
56844W        W28570  35.392  41.429  11.419
56845W        W28571  16.062  24.685  13.889
56846W        W28572  40.829  31.354  14.538
56847W        W28573  36.293  26.234   4.219
56848W        W28574   7.074  15.865   3.690
56849W        W28575  35.168   8.140   4.209
56850W        W28576  41.313   3.585   4.111
56851W        W28577   5.906  20.639  13.788
56852W        W28578  42.698  11.678   2.725
56853W        W28579   4.420  35.265  14.831
56854W        W28580  33.317  30.026   4.130
56855W        W28581   7.936   6.899   5.024
56856W        W28582  11.530  13.795  13.017
56857W        W28583   8.621  23.759  11.715
56858W        W28584  33.938  10.188  13.633
56859W        W28585  32.081   2.380   2.997
56860W        W28586   2.511   6.322   2.423
56861W        W28587   0.204  19.994   4.165
56862W        W28588  40.079  22.780  13.591
56863W        W28589  27.539  25.072   0.310
56864W        W28590  30.415   4.694   2.020
56865W        W28591   8.400  21.947  13.911
56866W        W28592  32.853  25.267   2.184
56867W        W28593  43.922  40.823  13.541
56868W        W28594   0.877  32.657  12.817
56869W        W28595  41.846   7.243  13.491
56870W        W28596  18.388  35.847   0.342
56871W        W28597   8.365  42.857  12.360
56872W        W28598  34.043  23.939  11.357
56873W        W28599  26.901   4.825  12.950
56874W        W28600  42.992  39.256   0.766
56875W        W28601  25.162   6.609  11.244
56876W        W28602  23.753  22.718   1.837
56877W        W28603  42.826  11.636  14.925
56878W        W28604  16.004  12.772  13.367
56879W        W28605  32.096  23.167   1.228
56880W        W28606  43.300  36.266   9.796
56881W        W28607   1.551  14.207  12.463
56882W        W28608  35.944  15.145  12.045
56883W        W28609  17.243  41.355   3.657
56884W        W28610  36.021  11.292   3.212
56885W        W28611  43.874  38.489   0.514
56886W        W28612   4.708  13.782  11.975
56887W        W28613   7.269  28.542  12.231
56888W        W28614  29.399  28.607   2.321
56889W        W28615   6.212  19.733   1.398
56890W        W28616   8.136   5.304   4.604
56891W        W28617  21.608  21.618  11.473
56892W        W28618  11.093  16.092  14.803
56893W        W28619  26.297  44.795  10.669
56894W        W28620  29.117  15.534  10.688
56895W        W28621  18.720  25.712   1.474
56896W        W28622  37.824   0.092   4.870
56897W        W28623  28.476   1.756  13.241
56898W        W28624  30.423   6.352   3.165
56899W        W28625  12.684  40.768   2.311
56900W        W28626   8.387  21.636  14.319
56901W        W28627   6.959   2.437   2.641
56902W        W28628  18.735  42.692  14.509
56903W        W28629  10.336  35.600  14.891
56904W        W28630  43.506  16.649   1.746
56905W        W28631  17.793  12.949   2.365
56906W        W28632  18.206   0.802   3.883
56907W        W28633  35.780  33.499  13.588
56908W        W28634  34.428  29.157   4.220
56909W        W28635  38.161  31.940  14.995
56910W        W28636  14.818  40.048  11.578
56911W        W28637  27.654  35.115   2.678
56912W        W28638  39.928  33.554   0.006
56913W        W28639  36.378  43.735  12.463
56914W        W28640   4.056  31.080   2.826
56915W        W28641   9.453   0.654  12.792
56916W        W28642  11.359  19.520  13.278
56917W        W28643   8.088  38.640  12.473
56918W        W28644  17.149  28.298  12.804
56919W        W28645   9.641   2.622   0.827
56920W        W28646  31.027  24.394   3.858
56921W        W28647  16.983  13.228   1.390
56922W        W28648   7.777  43.313  14.333
56923W        W28649  28.858   1.782   3.072
56924W        W28650  13.214  28.527   4.493
56925W        W28651  12.404   9.890   3.259
56926W        W28652  19.574  28.514   4.103
56927W        W28653  42.415  39.358   3.515
56928W        W28654  44.795  29.662  10.704
56929W        W28655  41.256  36.580   0.909
56930W        W28656  40.871  36.472  10.648
56931W        W28657  44.850  29.295   1.357
56932W        W28658   0.924   7.732  13.829
56933W        W28659  24.829  42.984  11.675
56934W        W28660  32.395  16.215  10.704
56935W        W28661  13.610   3.801   4.765
56936W        W28662  38.605   2.297   4.665
56937W        W28663   3.892  16.550  11.623
56938W        W28664  43.931  11.126   2.747
56939W        W28665  43.813  41.003  11.428
56940W        W28666  40.836   0.287   4.442
56941W        W28667   1.933  38.322   3.617
56942W        W28668  12.064  12.932   1.280
56943W        W28669   8.391  29.074  11.785
56944W        W28670  32.346  37.261   1.602
56945W        W28671   6.208  27.988   2.600
56946W        W28672  22.117  15.061   9.639
56947W        W28673  25.751  13.885  10.617
56948W        W28674  44.905   0.257   0.533
56949W        W28675  38.357  32.968  13.609
56950W        W28676  22.234  15.182  14.809
56951W        W28677   4.560  34.204  12.957
56952W        W28678  21.128  14.360   2.228
56953W        W28679  19.162   2.460  12.353
56954W        W28680  29.115  17.225  14.044
56955W        W28681  35.215  19.282   2.951
56956W        W28682  31.126  39.446   0.956
56957W        W28683   8.676  21.512   1.521
56958W        W28684  28.042   5.792  10.292
56959W        W28685  36.849   0.237   1.937
56960W        W28686  38.044   3.234   0.797
56961W        W28687   1.923  23.612   4.620
56962W        W28688  26.355  13.257   4.313
56963W        W28689  24.136   4.480  14.525
56964W        W28690  37.168  23.895  13.072
56965W        W28691  32.864   5.018   0.775
56966W        W28692  12.324  32.601   4.087
56967W        W28693  39.164  31.513  12.605
56968W        W28694  42.445  39.145  11.047
56969W        W28695  19.478   3.777  13.353
56970W        W28696  42.538  10.649  13.827
56971W        W28697  41.837  17.543   0.945
56972W        W28698  27.388  44.284   3.376
56973W        W28699  44.242   5.630   3.835
56974W        W28700  41.558  40.646  11.677
56975W        W28701  31.024  28.983   2.249
56976W        W28702  12.806  36.065   2.141
56977W        W28703  44.777  16.398  10.464
56978W        W28704  35.800  37.480  14.033
56979W        W28705  41.560  31.505  14.009
56980W        W28706   7.618   3.967  13.067
56981W        W28707  28.013  34.283   1.924
56982W        W28708  33.197   0.730  12.136
56983W        W28709  32.119  26.571   1.785
56984W        W28710   6.794  31.676  11.223
56985W        W28711  36.857  36.581  13.875
56986W        W28712   2.571  34.355  11.513
56987W        W28713   8.663   4.389   4.085
56988W        W28714  20.156  41.284  13.202
56989W        W28715  38.934  18.752   2.775
56990W        W28716  22.490  37.879   2.845
56991W        W28717   6.805  17.334  12.197
56992W        W28718   7.682  21.786  14.914
56993W        W28719  28.787  20.080   3.685
56994W        W28720  37.516  11.334   0.851
56995W        W28721  27.237  25.294   3.815
56996W        W28722  36.933  26.550  11.549
56997W        W28723  25.388  36.401  14.942
56998W        W28724   7.386  41.846   1.304
56999W        W28725  43.897  12.098  13.275
57000W        W28726   2.700  35.580  14.496
57001W        W28727  44.382  11.024   1.861
57002W        W28728  39.896  34.339  12.510
57003W        W28729  24.428  16.372   0.345
57004W        W28730  16.546  13.093  12.508
57005W        W28731  37.453  40.734   2.456
57006W        W28732  41.045  12.047  11.090
57007W        W28733  36.174  29.991  14.207
57008W        W28734  28.913   0.122   3.661
57009W        W28735  21.669   8.604  12.711
57010W        W28736  27.207  20.581  13.865
57011W        W28737  29.115  16.294   1.902
57012W        W28738  15.278  19.189  10.741
57013W        W28739   3.505  37.533   2.174
57014W        W28740   4.671  35.761  12.605
57015W        W28741  20.026  33.953  10.506
57016W        W28742   5.737  16.269  11.251
57017W        W28743  12.271   6.435  13.638
57018W        W28744  37.871  17.979  10.808
57019W        W28745   2.433  19.017   4.163
57020W        W28746  24.971  35.654   0.225
57021W        W28747  28.645  10.432   4.126
57022W        W28748  27.118  42.436  12.365
57023W        W28749  41.578  26.486  11.562
57024W        W28750  33.611  27.095   4.079
57025W        W28751  29.178  29.397  14.611
57026W        W28752   4.544  39.313  13.071
57027W        W28753   7.669   5.111   2.450
57028W        W28754  34.451  10.878  14.417
57029W        W28755  19.628  23.165   3.867
57030W        W28756  43.951   3.679  13.477
57031W        W28757   9.353  21.959   4.882
57032W        W28758   2.793  30.745   3.819
57033W        W28759  13.668  31.884   3.762
57034W        W28760  24.535  18.751  11.865
57035W        W28761   9.760  21.978   4.561
57036W        W28762  32.039   1.995  11.618
57037W        W28763  30.694  13.538  14.761
57038W        W28764  44.343  38.433   3.460
57039W        W28765  11.089  42.535  13.906
57040W        W28766   1.919   1.284  12.820
57041W        W28767  24.465  13.767  11.548
57042W        W28768   0.654  35.857  10.250
57043W        W28769   9.649  15.543  12.026
57044W        W28770  37.846  27.294   1.899
57045W        W28771  43.086  42.582  14.527
57046W        W28772  33.772  42.309   5.209
57047W        W28773  26.458  19.786   1.703
57048W        W28774   7.055  39.732  11.243
57049W        W28775  22.625   2.888   4.028
57050W        W28776  35.297  26.182   1.443
57051W        W28777  41.513  18.632   1.729
57052W        W28778  41.280  22.434   1.373
57053W        W28779  17.535  41.033  13.371
57054W        W28780  24.819  11.672   4.597
57055W        W28781  21.364  36.476   1.757
57056W        W28782   5.374  14.629  12.088
57057W        W28783  31.978  27.297   3.255
57058W        W28784  44.348  33.574   3.600
57059W        W28785  31.199  22.749  10.000
57060W        W28786  29.636  27.952   0.510
57061W        W28787   1.728  44.477  12.431
57062W        W28788  26.825  43.783   4.726
57063W        W28789  42.765  16.725   4.883
57064W        W28790  20.157  43.099   1.469
57065W        W28791  17.549  26.779   1.331
57066W        W28792  37.630  19.623  12.796
57067W        W28793   2.010  40.424  13.821
57068W        W28794  16.151  15.581  13.368
57069W        W28795  18.668  20.803   2.601
57070W        W28796  12.210  43.546   0.729
57071W        W28797  32.078  26.912   2.788
57072W        W28798  26.940  37.595   4.851
57073W        W28799  30.366  25.255  13.006
57074W        W28800  44.254  12.055   1.742
57075W        W28801   1.782  32.862  14.121
57076W        W28802  12.087  23.490  11.990
57077W        W28803   0.787  32.124   4.614
57078W        W28804  37.855  12.314  14.412
57079W        W28805  16.853  43.381   4.610
57080W        W28806  16.073  25.432  13.538
57081W        W28807  24.729  32.154  12.120
57082W        W28808  31.850  31.881   0.251
57083W        W28809  10.252   9.577   4.719
57084W        W28810   5.441  12.064  14.995
57085W        W28811  24.101  39.877  13.022
57086W        W28812   6.359  12.253   0.112
57087W        W28813   8.873  10.896   4.280
57088W        W28814  15.716  34.693  13.101
57089W        W28815  35.460   0.202   4.837
57090W        W28816   1.638  11.476   5.098
57091W        W28817  26.266  42.235   2.242
57092W        W28818  15.637  25.250   0.558
57093W        W28819  22.499  19.767   4.715
57094W        W28820  16.118   0.027   2.208
57095W        W28821  15.600  37.624   4.358
57096W        W28822  42.698  36.905   0.719
57097W        W28823  31.839  39.446  14.006
57098W        W28824  29.516   6.504   3.092
57099W        W28825  32.128  42.784   4.113
57100W        W28826  17.294  41.966   1.847
57101W        W28827  32.018  23.371   9.805
57102W        W28828  27.396  13.469   1.795
57103W        W28829  25.310  34.946   0.786
57104W        W28830   6.461  36.572   2.024
57105W        W28831   9.292  34.490  10.391
57106W        W28832   4.295   4.593  13.396
57107W        W28833  11.431  21.048   4.184
57108W        W28834   1.305   5.943  14.396
57109W        W28835  12.178  35.691  10.720
57110W        W28836   9.883  42.001  14.553
57111W        W28837  22.587  28.366  11.606
57112W        W28838   6.385  26.922   4.656
57113W        W28839  34.204  37.068   0.684
57114W        W28840   5.430   0.455   3.251
57115W        W28841  22.543  43.763   1.142
57116W        W28842  43.233   5.744   1.138
57117W        W28843  15.152  26.707  10.123
57118W        W28844   2.594  17.824  10.063
57119W        W28845  23.664   5.315  14.364
57120W        W28846  15.185  35.782  12.942
57121W        W28847   6.615  22.751   1.843
57122W        W28848  17.404  40.067   3.726
57123W        W28849   8.859   3.261  13.985
57124W        W28850  40.547  27.472   3.214
57125W        W28851   7.867  35.327   5.449
57126W        W28852  12.221   4.533  12.562
57127W        W28853  26.676  22.219  10.762
57128W        W28854   4.855  42.325   2.799
57129W        W28855   6.250   5.297   0.977
57130W        W28856  33.469  29.612   0.007
57131W        W28857  17.272   8.332   0.430
57132W        W28858  22.911  41.755   3.457
57133W        W28859   5.383   0.191  13.877
57134W        W28860   0.609  16.510   4.493
57135W        W28861  18.848  38.699   3.612
57136W        W28862  32.204  23.073  12.043
57137W        W28863  22.534  26.947   0.818
57138W        W28864  35.269  31.805  13.966
57139W        W28865   8.907  14.201   4.142
57140W        W28866  36.471  28.228   3.131
57141W        W28867   2.269  11.498   2.338
57142W        W28868  41.583   1.977  12.033
57143W        W28869  33.435  16.723  12.556
57144W        W28870  11.727  41.386  10.801
57145W        W28871  22.624   3.155   1.354
57146W        W28872  11.104   4.434   4.755
57147W        W28873  31.006  12.914  14.238
57148W        W28874  44.496  30.647  14.394
57149W        W28875  23.211  10.169  12.683
57150W        W28876  16.152  24.928  11.305
57151W        W28877   6.372  12.884   2.428
57152W        W28878  23.828   5.952  12.522
57153W        W28879  19.180   3.972  12.002
57154W        W28880  15.517  39.941  14.004
57155W        W28881   2.845  16.853   0.961
57156W        W28882   4.440  33.427  11.542
57157W        W28883   1.834  41.069  12.005
57158W        W28884  32.612  43.044   0.056
57159W        W28885  20.092   8.227   1.929
57160W        W28886   2.838  16.079   2.827
57161W        W28887  20.381  18.650  11.463
57162W        W28888  15.590  26.151  11.587
57163W        W28889  26.506   2.958   4.623
57164W        W28890  43.815   6.835  10.860
57165W        W28891  23.926  41.610   4.509
57166W        W28892   6.858  15.222  10.655
57167W        W28893  33.874  30.474  13.901
57168W        W28894   3.809  32.402   4.693
57169W        W28895  42.866  42.282   2.215
57170W        W28896  22.017  14.371  11.961
57171W        W28897  11.200  15.196   4.193
57172W        W28898   4.933   2.938   3.207
57173W        W28899  39.949  39.736   1.284
57174W        W28900  27.531  32.095   1.898
57175W        W28901  13.296  20.613   4.388
57176W        W28902  39.509  11.666  12.417
57177W        W28903  41.432  30.864  13.051
57178W        W28904  25.316  40.771  14.282
57179W        W28905  30.999   4.696  14.707
57180W        W28906  41.880  34.965  11.575
57181W        W28907  20.710  17.134   4.379
57182W        W28908  23.299  11.371   0.436
57183W        W28909   1.808  37.413  10.654
57184W        W28910   7.679  16.450  12.800
57185W        W28911  10.790  35.387  10.964
57186W        W28912  31.071  28.628  14.423
57187W        W28913  39.853  13.268   4.564
57188W        W28914  25.883  26.078  12.390
57189W        W28915   8.850  28.528   2.684
57190W        W28916  36.115  18.193   2.741
57191W        W28917   6.259   0.681   2.981
57192W        W28918  22.306  37.395   2.875
57193W        W28919  23.084   1.600   1.354
57194W        W28920  10.329  39.072   0.777
57195W        W28921  30.035  38.832   1.854
57196W        W28922   4.185   0.840   2.663
57197W        W28923  21.281  35.951  11.586
57198W        W28924  17.738  26.107   0.797
57199W        W28925  37.764   3.461   1.470
57200W        W28926  41.545  26.773   4.997
57201W        W28927  14.025   2.855  14.051
57202W        W28928   9.900  16.227  11.731
57203W        W28929  24.247  22.050   0.397
57204W        W28930  14.459  42.402   1.611
57205W        W28931  29.399  39.542   4.593
57206W        W28932  16.065  11.077  11.538
57207W        W28933   7.652   9.396   4.147
57208W        W28934  34.940  25.379   3.281
57209W        W28935  15.574  14.708  14.320
57210W        W28936   7.480   4.782   2.066
57211W        W28937  14.887  35.594   0.393
57212W        W28938  38.517  19.757  12.909
57213W        W28939   9.314  17.873  10.904
57214W        W28940  27.844  30.556  13.055
57215W        W28941  18.068  33.365   1.452
57216W        W28942  44.492  32.897   1.933
57217W        W28943  15.570  43.909  12.087
57218W        W28944  37.923  14.184   0.866
57219W        W28945  34.063   9.183   3.705
57220W        W28946   8.170  21.273   2.723
57221W        W28947  37.559  18.176   4.269
57222W        W28948  15.576   5.571   2.188
57223W        W28949   3.801  18.564  11.670
57224W        W28950  25.076   2.431  14.822
57225W        W28951   2.207  27.828  12.805
57226W        W28952  38.565   7.831  12.565
57227W        W28953  18.205   0.092   3.334
57228W        W28954  32.570  12.633   0.876
57229W        W28955   3.608   4.115   2.788
57230W        W28956  40.096  42.402   1.116
57231W        W28957  20.688  14.100   2.147
57232W        W28958   5.567  19.416   0.318
57233W        W28959  44.971  29.312   2.347
57234W        W28960  10.365   9.894   1.218
57235W        W28961  19.169  39.025  11.433
57236W        W28962  17.538   3.880   0.003
57237W        W28963  43.988  16.636   0.325
57238W        W28964  19.277  34.006  12.336
57239W        W28965   8.131   0.765  13.356
57240W        W28966   4.501  25.519   3.084
57241W        W28967  33.086  31.499   4.600
57242W        W28968   7.345   7.257   2.809
57243W        W28969  40.020  32.412  14.077
57244W        W28970   2.377  33.043  11.317
57245W        W28971  19.060   8.146   1.700
57246W        W28972  37.352  33.138   3.641
57247W        W28973  41.549   2.068   0.303
57248W        W28974  23.843  13.303   3.205
57249W        W28975  21.209  28.011  12.520
57250W        W28976   4.940  32.100   1.714
57251W        W28977  27.049   3.580   2.133
57252W        W28978  40.603   9.289  11.579
57253W        W28979  37.887  17.152  11.191
57254W        W28980  19.609  27.398  13.917
57255W        W28981  27.447  10.456   4.040
57256W        W28982  26.212  39.754  11.137
57257W        W28983   3.943  23.817   4.806
57258W        W28984  15.332  11.063   0.907
57259W        W28985  10.725   2.735  14.251
57260W        W28986  25.056  36.264   3.849
57261W        W28987   1.163  41.742  13.388
57262W        W28988  12.204  15.142   2.972
57263W        W28989  40.531  43.875   4.533
57264W        W28990  30.658  17.946   2.406
57265W        W28991  14.252  10.961   4.521
57266W        W28992   5.281  36.483  12.958
57267W        W28993  30.429  40.051   4.110
57268W        W28994  34.987  22.056   1.711
57269W        W28995  17.264  28.964  13.787
57270W        W28996   7.025  19.097  13.503
57271W        W28997  34.063  33.805  14.480
57272W        W28998  43.835   6.131   0.496
57273W        W28999   4.691  31.051  10.695
57274W        W29000  42.010  22.480  14.435
57275W        W29001   9.330  16.527  14.839
57276W        W29002  10.659  21.057  12.209
57277W        W29003  35.854  23.079  11.028
57278W        W29004  12.670  31.229  13.291
57279W        W29005   1.473  14.428  13.853
57280W        W29006  23.093   4.244  11.161
57281W        W29007   5.068  10.237   3.821
57282W        W29008  44.555  16.134  10.891
57283W        W29009  30.208  26.490  11.915
57284W        W29010  43.320  21.609  14.305
57285W        W29011   7.755  38.128   2.377
57286W        W29012  38.424   2.905   1.469
57287W        W29013  13.603  16.140  11.603
57288W        W29014   8.528  25.036   3.417
57289W        W29015  26.286   3.967   1.802
57290W        W29016  25.440  37.720   2.885
57291W        W29017   7.685   6.217  11.045
57292W        W29018  19.347   0.790  11.132
57293W        W29019  15.195  42.954  11.173
57294W        W29020  18.786  22.570   0.031
57295W        W29021  13.322   7.282  13.522
57296W        W29022   4.428  22.505  12.341
57297W        W29023  40.210   0.040   2.812
57298W        W29024  15.091   5.535   2.347
57299W        W29025  20.756  41.318   2.364
57300W        W29026  27.545  24.242   2.098
57301W        W29027   0.469  12.288  12.093
57302W        W29028   2.300  25.924  12.054
57303W        W29029  44.517  25.640   1.889
57304W        W29030  14.347  15.297   3.394
57305W        W29031   3.853   6.455   1.500
57306W        W29032   4.193   7.910  11.278
57307W        W29033  41.885  28.868   0.864
57308W        W29034  18.995  43.487   4.866
57309W        W29035  42.553  24.110   1.832
57310W        W29036   6.473   7.074  11.153
57311W        W29037  21.181  14.531   1.273
57312W        W29038  16.079   9.970   2.464
57313W        W29039  32.995  27.408   0.405
57314W        W29040  21.251  16.700  14.769
57315W        W29041  41.230   1.729   2.386
57316W        W29042  33.901  22.721  11.020
57317W        W29043  44.272  27.913  14.362
57318W        W29044  15.740   0.445  10.317
57319W        W29045  35.740   5.809   2.360
57320W        W29046  32.924  16.849   3.631
57321W        W29047  15.498  36.208  10.185
57322W        W29048  23.231   0.582   1.866
57323W        W29049  44.512   4.926  10.725
57324W        W29050   4.957  20.236   3.748
57325W        W29051   3.907  39.250   1.756
57326W        W29052  40.433  15.145   4.545
57327W        W29053   7.151  15.209   1.420
57328W        W29054  30.172  32.638  13.367
57329W        W29055  20.998  36.375   1.415
57330W        W29056   5.537   6.822  12.867
57331W        W29057  33.685   0.568  12.044
57332W        W29058  40.097  12.260  13.894
57333W        W29059  26.913   3.216  14.195
57334W        W29060  32.915  28.421  13.431
57335W        W29061  23.148  44.089  14.501
57336W        W29062   2.116  41.353  10.819
57337W        W29063  30.176   8.381  13.886
57338W        W29064  20.127   9.673  11.411
57339W        W29065  14.382  15.252  12.942
57340W        W29066  27.563  30.305   3.413
57341W        W29067  38.348  31.998   1.918
57342W        W29068  35.339  16.161  10.478
57343W        W29069  35.370  41.482   2.838
57344W        W29070  21.166   8.134   3.789
57345W        W29071  29.498  37.430   3.064
57346W        W29072  19.081  38.130  12.221
57347W        W29073  34.059  16.144   2.693
57348W        W29074   2.319  11.750   3.878
57349W        W29075  20.295  38.338   3.632
57350W        W29076  32.137  18.115  14.523
57351W        W29077  20.212  11.359  13.280
57352W        W29078  33.552  16.828  11.649
57353W        W29079   1.420   9.920  12.053
57354W        W29080  21.130  10.445  12.522
57355W        W29081  41.121  35.362  13.411
57356W        W29082  40.870  35.859   0.038
57357W        W29083  38.677  18.325   2.929
57358W        W29084  42.079  25.865  14.326
57359W        W29085  37.112  33.868   1.319
57360W        W29086  30.049  21.673  14.433
57361W        W29087   5.709  30.079   2.756
57362W        W29088  42.391  12.416   0.865
57363W        W29089  26.252   0.424   4.552
57364W        W29090  42.930  33.629  12.033
57365W        W29091  20.809  11.736  12.404
57366W        W29092  31.237  33.483   0.962
57367W        W29093  36.892   5.162   0.892
57368W        W29094  21.742  25.207  14.713
57369W        W29095  15.942  31.440   3.293
57370W        W29096  21.230  37.283  12.726
57371W        W29097  12.137   4.979  14.901
57372W        W29098  34.863  24.342   2.927
57373W        W29099   5.319  42.588   5.025
57374W        W29100  17.231   9.929  10.528
57375W        W29101  27.076  13.108   2.671
57376W        W29102  23.104   7.456  11.101
57377W        W29103  39.673  19.585   2.159
57378W        W29104   5.403  20.772  13.510
57379W        W29105  44.683  18.477   0.404
57380W        W29106  31.141  36.308   3.550
57381W        W29107  41.932  21.270   0.488
57382W        W29108  20.219  27.642   2.320
57383W        W29109   9.943  16.329   4.758
57384W        W29110  14.197   7.936  11.866
57385W        W29111  19.229  38.766   2.714
57386W        W29112  11.344  30.616   4.223
57387W        W29113  43.049   4.415   4.170
57388W        W29114  21.615  40.085   0.752
57389W        W29115  41.768  18.380  12.983
57390W        W29116   3.477  11.837   2.859
57391W        W29117  10.298  38.542  12.118
57392W        W29118  12.453  29.708   2.166
57393W        W29119  18.065  17.097   3.326
57394W        W29120  29.597  23.080   0.409
57395W        W29121  43.023  37.132   9.862
57396W        W29122  17.596  13.782   0.749
57397W        W29123  34.083  12.167   0.690
57398W        W29124   5.438  10.219  14.320
57399W        W29125  20.752  23.892  14.522
57400W        W29126   2.305  38.354   0.713
57401W        W29127  43.773  12.390   4.534
57402W        W29128  14.371  40.433   2.708
57403W        W29129   1.461  35.453  14.955
57404W        W29130  35.131  26.511  11.059
57405W        W29131  30.342  15.643  13.165
57406W        W29132  22.647  24.101   0.309
57407W        W29133  21.475   1.001   1.435
57408W        W29134  27.954  44.867   5.428
57409W        W29135  16.410   6.003   4.830
57410W        W29136   8.227   1.546  14.272
57411W        W29137  41.236  35.548  14.787
57412W        W29138  29.862   9.496   2.401
57413W        W29139  28.258   0.667  11.710
57414W        W29140  28.875  11.785  12.105
57415W        W29141  42.017   8.633  11.439
57416W        W29142   6.516   5.421   2.791
57417W        W29143   8.832   3.539  11.984
57418W        W29144  27.795  14.514  10.755
57419W        W29145  13.550  14.062  11.231
57420W        W29146   8.543  15.102   0.287
57421W        W29147   5.131  37.049  11.208
57422W        W29148  19.793  29.493   0.512
57423W        W29149  40.824  16.075  10.769
57424W        W29150  14.061  24.562  12.042
57425W        W29151  39.337  35.629   4.154
57426W        W29152  16.266  43.940   4.400
57427W        W29153  20.985   5.133  12.199
57428W        W29154  41.255   0.872   3.784
57429W        W29155  17.332  10.206  11.146
57430W        W29156  20.255  25.393  14.897
57431W        W29157   4.276  36.998  12.956
57432W        W29158  37.024  18.530  12.996
57433W        W29159   9.468  18.212  13.221
57434W        W29160  43.885   6.287  13.452
57435W        W29161  20.084   9.288   2.180
57436W        W29162   2.827  39.815   3.259
57437W        W29163  15.312  22.114  11.223
57438W        W29164  42.480  26.208  13.381
57439W        W29165   1.949  10.339  11.132
57440W        W29166  29.283  13.043  12.919
57441W        W29167  32.813  16.199  14.344
57442W        W29168  12.402  20.355  11.192
57443W        W29169  30.880   7.198  13.481
57444W        W29170   8.363  28.151   2.127
57445W        W29171  38.631   8.134  10.666
57446W        W29172  28.691  16.016   2.008
57447W        W29173  15.201  38.586   1.628
57448W        W29174  32.175  22.159   3.079
57449W        W29175  27.028  18.271   2.684
57450W        W29176   1.548  19.574  14.892
57451W        W29177  28.554   3.712   3.827
57452W        W29178  15.522  30.662  10.766
57453W        W29179   4.280  22.227  13.376
57454W        W29180  25.812  12.532  10.830
57455W        W29181  17.025  30.953   0.313
57456W        W29182  28.199   0.354  14.872
57457W        W29183  12.129  31.596   4.610
57458W        W29184  26.913   1.614  10.462
57459W        W29185  11.676  30.818  10.398
57460W        W29186  27.413  38.953   3.262
57461W        W29187   7.137  16.955  11.998
57462W        W29188  33.486  12.242   2.175
57463W        W29189  41.118  12.744  11.412
57464W        W29190   6.991  26.963  14.456
57465W        W29191  34.918  28.518   4.629
57466W        W29192   7.141  29.619   3.547
57467W        W29193  16.407  37.439   1.520
57468W        W29194  29.133  29.377  11.945
57469W        W29195  21.768  37.102  10.957
57470W        W29196  30.013  14.665  11.556
57471W        W29197   7.911  34.446   1.291
57472W        W29198  21.753  39.466  10.770
57473W        W29199  13.284  22.308   0.470
57474W        W29200  27.981   9.072  11.699
57475W        W29201  41.893   5.280  13.159
57476W        W29202  35.982  23.159   4.157
57477W        W29203   2.854  42.713  12.131
57478W        W29204  27.458  44.260   4.220
57479W        W29205   3.425  29.381   1.231
57480W        W29206   5.186  25.636   1.474
57481W        W29207  37.093   8.395  14.539
57482W        W29208  32.203  19.163   3.397
57483W        W29209  18.315   4.545   2.375
57484W        W29210   6.395   5.177   1.870
57485W        W29211   0.270  38.967  10.899
57486W        W29212   2.560  40.298   4.690
57487W        W29213  26.049  33.091   0.800
57488W        W29214   8.372  32.874   2.579
57489W        W29215  42.012  29.600  12.682
57490W        W29216  13.856  37.460  10.745
57491W        W29217   7.486  39.025   2.878
57492W        W29218  22.137   6.845   0.257
57493W        W29219   0.240  17.195   4.627
57494W        W29220  27.578  32.408   0.313
57495W        W29221  25.121  29.531   4.069
57496W        W29222  44.539  16.184   2.933
57497W        W29223   2.149  38.934  11.087
57498W        W29224  18.080  19.605   1.765
57499W        W29225   2.156  15.552   2.388
57500W        W29226  27.524  41.425  13.806
57501W        W29227  11.160   5.866   2.352
57502W        W29228  18.020  33.104  13.556
57503W        W29229   1.078  19.493   2.651
57504W        W29230  41.063  27.708  12.664
57505W        W29231  40.911  18.309  10.547
57506W        W29232   3.222  19.536   1.207
57507W        W29233  17.195  16.165   2.637
57508W        W29234  23.826  31.053  11.831
57509W        W29235  40.266   8.279   3.451
57510W        W29236   9.223   8.105  14.714
57511W        W29237  11.328  14.088   0.577
57512W        W29238  12.791  16.976   0.917
57513W        W29239  42.307  19.318  11.836
57514W        W29240  31.069  11.674  12.052
57515W        W29241  20.315  33.649   3.613
57516W        W29242  26.034  19.151  13.154
57517W        W29243  39.273  35.543  11.954
57518W        W29244  11.365   0.791   3.272
57519W        W29245  24.497   0.328  14.490
57520W        W29246  36.356  28.474  14.885
57521W        W29247   2.952  36.153   1.199
57522W        W29248  13.425   2.732  11.598
57523W        W29249  37.946  29.933  12.062
57524W        W29250   3.942  44.775   4.646
57525W        W29251  44.703  40.918  11.603
57526W        W29252  32.585  26.917  13.477
57527W        W29253  44.430  12.100  13.943
57528W        W29254  44.930  30.648  11.948
57529W        W29255  17.295  20.302  12.463
57530W        W29256  37.977  13.186  12.530
57531W        W29257  31.437  40.949   4.440
57532W        W29258   2.010  25.663   1.377
57533W        W29259  21.144  41.579  13.283
57534W        W29260  26.437  15.556   1.345
57535W        W29261  36.806  39.416  10.734
57536W        W29262  44.839   9.640   1.760
57537W        W29263  26.914   0.719   2.903
57538W        W29264  41.990  31.468   4.731
57539W        W29265  41.388  27.439  12.355
57540W        W29266  33.804  32.138  13.765
57541W        W29267  34.433  14.837  10.507
57542W        W29268  15.074   5.457  11.132
57543W        W29269  10.725  41.015  14.913
57544W        W29270  23.850  34.619  12.413
57545W        W29271   4.654  43.581   1.765
57546W        W29272  29.139  28.545   0.123
57547W        W29273   4.208  27.462  12.884
57548W        W29274  36.084   7.381  14.818
57549W        W29275  32.502   7.194  12.511
57550W        W29276  17.704   3.971   2.816
57551W        W29277  34.381  17.551  11.232
57552W        W29278  27.689   4.414  14.897
57553W        W29279  17.153  31.229   0.767
57554W        W29280   7.898  41.014   3.924
57555W        W29281  14.501   6.813   4.975
57556W        W29282   6.470  22.028   0.275
57557W        W29283  12.883  41.230   2.387
57558W        W29284  15.337  44.293  12.336
57559W        W29285  21.452  18.714  12.269
57560W        W29286  39.121  31.358   1.832
57561W        W29287  10.709  24.685   3.687
57562W        W29288  25.456  28.111   3.449
57563W        W29289  43.085  41.428   2.224
57564W        W29290  17.168   0.797  10.362
57565W        W29291   1.918  13.178   0.312
57566W        W29292  43.065   3.782  11.003
57567W        W29293  13.160  27.043   1.424
57568W        W29294  21.810  32.389  13.601
57569W        W29295   7.510   1.525   2.732
57570W        W29296  39.477  10.642  13.969
57571W        W29297   1.526  12.435  12.978
57572W        W29298   5.340  12.575  11.385
57573W        W29299  30.551  44.696   4.408
57574W        W29300  42.965   7.698   0.269
57575W        W29301  18.014   1.414   4.538
57576W        W29302   3.173  12.097  11.913
57577W        W29303  30.391   1.378  11.247
57578W        W29304  21.714  34.391   3.325
57579W        W29305  32.849   0.909  13.926
57580W        W29306  42.242   7.386  13.812
57581W        W29307   8.832  34.055  12.070
57582W        W29308  10.857   0.946   3.226
57583W        W29309  24.718  38.448   2.440
57584W        W29310  12.474  36.172  14.246
57585W        W29311  25.140  15.724   3.284
57586W        W29312  32.373  20.017  14.871
57587W        W29313  27.667   6.739   1.474
57588W        W29314  36.699  39.385   2.889
57589W        W29315  42.945   8.242  13.310
57590W        W29316  40.517   0.560  10.407
57591W        W29317  38.395  30.432   3.678
57592W        W29318  38.249   1.905  13.907
57593W        W29319  10.448  19.592   3.056
57594W        W29320  29.756  14.555   4.242
57595W        W29321  27.148  28.107  11.399
57596W        W29322  44.899  13.331  10.471
57597W        W29323   9.595  28.936  12.337
57598W        W29324  28.724  11.260  14.297
57599W        W29325  31.610  35.623  13.875
57600W        W29326   5.285   1.757   4.488
57601W        W29327  20.073  25.246   1.179
57602W        W29328  12.781  31.171  11.393
57603W        W29329  30.769  11.293  10.357
57604W        W29330  11.931  39.433  12.044
57605W        W29331  10.289  41.201  11.668
57606W        W29332   4.333   2.665  13.122
57607W        W29333  15.323  38.128   3.122
57608W        W29334  27.411   9.752  12.874
57609W        W29335  44.722  30.114   3.879
57610W        W29336  11.638  33.993   1.287
57611W        W29337  26.061  32.424   1.214
57612W        W29338   5.101  33.796   4.106
57613W        W29339  11.674  16.274   0.933
57614W        W29340  44.727  32.030   2.286
57615W        W29341  35.960  10.920   1.952
57616W        W29342  27.024  21.280  11.969
57617W        W29343   0.362  38.304   1.861
57618W        W29344  14.369  20.049   4.597
57619W        W29345  18.121  39.546   0.479
57620W        W29346  24.557  24.569   2.102
57621W        W29347  23.646  36.201   3.940
57622W        W29348  18.593   9.388  10.603
57623W        W29349   1.771  21.450   4.575
57624W        W29350  13.115   5.149   0.209
57625W        W29351  23.957  33.370  10.879
57626W        W29352  19.808  17.341   1.298
57627W        W29353  44.921  40.484  10.657
57628W        W29354  17.015  16.675  11.232
57629W        W29355  17.195  42.476   2.475
57630W        W29356  27.765  14.592  12.608
57631W        W29357   8.331  32.383  11.057
57632W        W29358  32.670  37.515   1.918
57633W        W29359  20.061  41.480  10.658
57634W        W29360  36.600  21.707   1.715
57635W        W29361  11.570  13.373  10.691
57636W        W29362   7.204   5.625  10.461
57637W        W29363  26.346  40.886   1.664
57638W        W29364   7.504   5.802  12.774
57639W        W29365   4.397   5.469   0.028
57640W        W29366  44.661  20.178   3.274
57641W        W29367   5.770  19.751  11.655
57642W        W29368  19.274  35.575   0.793
57643W        W29369  37.179  19.463  13.048
57644W        W29370  28.564  23.291  13.520
57645W        W29371   9.217  13.134   2.727
57646W        W29372  13.866  35.810   2.631
57647W        W29373  25.972  33.582  13.951
57648W        W29374  39.942  43.389   3.793
57649W        W29375  39.894   0.733  10.912
57650W        W29376   4.369  21.491   0.537
57651W        W29377  32.542  19.877   4.161
57652W        W29378  16.399  34.034   3.662
57653W        W29379   8.744  13.702   0.837
57654W        W29380  29.986  42.015   2.478
57655W        W29381  18.946  39.379  11.784
57656W        W29382   4.413  12.803   4.649
57657W        W29383  19.074  32.143  11.789
57658W        W29384  27.458  21.466  11.752
57659W        W29385   8.803  35.537   2.303
57660W        W29386  43.843  42.950   1.326
57661W        W29387   0.743  27.165  13.878
57662W        W29388   1.965   1.298  13.651
57663W        W29389  40.257  25.431  13.160
57664W        W29390  32.183  22.033   0.764
57665W        W29391  39.356  26.193  10.567
57666W        W29392  13.486  38.873  14.104
57667W        W29393  37.607  15.597  11.553
57668W        W29394   7.827  15.006   4.831
57669W        W29395  15.887  20.596   2.292
57670W        W29396  11.830   7.711  12.601
57671W        W29397  13.264  30.592  13.063
57672W        W29398  37.536   9.444   4.034
57673W        W29399  32.916  28.900   1.211
57674W        W29400  11.445  12.737  13.991
57675W        W29401  19.254  41.394   3.236
57676W        W29402  37.915  41.519   3.479
57677W        W29403  33.124  15.677   4.635
57678W        W29404  27.076  28.596   3.092
57679W        W29405  42.081   4.234   1.829
57680W        W29406   1.862  21.564   3.603
57681W        W29407  14.028  43.857  10.428
57682W        W29408   0.276   3.061  12.638
57683W        W29409  32.510  26.493  12.035
57684W        W29410  26.408   4.881   2.685
57685W        W29411   4.792  10.389   0.592
57686W        W29412  28.673  38.581   1.852
57687W        W29413  26.951   4.492  13.409
57688W        W29414  32.007   6.823   3.858
57689W        W29415  13.745  31.933   4.293
57690W        W29416  22.206  44.241   4.411
57691W        W29417   6.820   0.424  10.567
57692W        W29418   6.702  21.192   2.842
57693W        W29419   7.156  40.822  13.028
57694W        W29420  34.577  34.977  10.749
57695W        W29421  43.803  31.136   4.360
57696W        W29422  39.039  29.742   3.207
57697W        W29423  37.213  30.999   4.476
57698W        W29424  33.964  25.760   3.265
57699W        W29425   2.759  12.780  12.004
57700W        W29426  42.549  23.629   1.313
57701W        W29427  39.242   6.147   3.020
57702W        W29428  33.657   1.665  12.433
57703W        W29429  25.105   4.951  12.410
57704W        W29430  14.054  44.477   3.712
57705W        W29431  43.341   2.241   0.942
57706W        W29432  32.798   4.786  10.582
57707W        W29433  20.055  22.697   4.211
57708W        W29434  43.421   0.336  10.678
57709W        W29435  16.989  38.572  10.681
57710W        W29436   0.785  16.824   2.617
57711W        W29437  30.400   7.869   1.415
57712W        W29438   3.541  42.730   0.391
57713W        W29439  39.483  37.139   0.513
57714W        W29440  19.833  15.211  13.071
57715W        W29441  35.113  27.061  12.351
57716W        W29442  40.585   9.680   1.292
57717W        W29443   7.881  22.008   0.928
57718W        W29444  19.239  39.013  14.867
57719W        W29445  29.006  33.188   4.942
57720W        W29446  22.678  43.881  11.587
57721W        W29447   6.892  11.185  12.321
57722W        W29448  23.534  14.402  10.523
57723W        W29449  20.049  39.795  14.411
57724W        W29450  41.225  25.924  10.886
57725W        W29451   9.248  33.029  14.670
57726W        W29452  32.870  44.888  14.477
57727W        W29453  40.934  24.010   2.672
57728W        W29454  34.562   4.420   0.250
57729W        W29455  19.176  34.570  11.823
57730W        W29456  25.885  44.174   3.256
57731W        W29457   5.586  13.570   5.645
57732W        W29458  27.408  43.474   2.970
57733W        W29459  18.121  33.883   1.462
57734W        W29460  14.025  35.758  10.964
57735W        W29461  37.534  37.055   4.584
57736W        W29462  36.295  33.415   1.212
57737W        W29463  14.539  31.727  12.653
57738W        W29464   6.440  10.883   1.550
57739W        W29465  15.873  27.889   5.163
57740W        W29466  14.136  11.478  11.600
57741W        W29467  29.998  15.399  13.443
57742W        W29468  24.606  41.434  13.575
57743W        W29469  16.607  24.960   0.000
57744W        W29470   8.031  12.357   1.705
57745W        W29471  17.190  43.815   3.652
57746W        W29472  35.224  20.031   0.162
57747W        W29473   4.460  13.445   5.401
57748W        W29474  10.118  32.642   0.720
57749W        W29475  16.889   7.502  11.558
57750W        W29476  44.371  20.938   9.900
57751W        W29477  33.339  18.138  14.077
57752W        W29478  20.760  16.738   0.022
57753W        W29479   7.894   8.171  13.549
57754W        W29480  44.310  18.494  10.649
57755W        W29481  38.304  32.982   2.264
57756W        W29482  34.664  33.110  11.070
57757W        W29483  36.828  32.269  11.927
57758W        W29484  37.944   0.716   2.610
57759W        W29485  37.464   8.720  12.444
57760W        W29486  43.968  42.680   4.099
57761W        W29487  13.134  41.377  10.310
57762W        W29488  34.351  28.127   4.320
57763W        W29489  26.772   1.223   0.008
57764W        W29490   5.209  26.404   4.689
57765W        W29491   8.757  42.072  13.980
57766W        W29492  39.416  16.313  13.345
57767W        W29493  22.296   3.812  14.841
57768W        W29494  25.968  20.397   2.777
57769W        W29495  39.803  24.268  12.608
57770W        W29496   0.028   3.885   4.026
57771W        W29497   5.643  41.470   0.788
57772W        W29498  17.099  40.740   2.159
57773W        W29499  34.824  32.819   0.351
57774W        W29500  43.493  33.880  13.148
57775W        W29501   6.826  12.081  11.969
57776W        W29502  10.633   2.916   2.930
57777W        W29503  14.722   4.865   1.040
57778W        W29504   8.824  19.840   0.728
57779W        W29505   3.300  14.239   0.360
57780W        W29506  40.806  12.598   4.445
57781W        W29507   0.747  24.129   0.794
57782W        W29508   7.641  40.398   2.765
57783W        W29509  18.869  27.828  12.739
57784W        W29510  24.036  12.236  13.333
57785W        W29511  38.556  22.256  13.917
57786W        W29512   9.440  35.476  13.811
57787W        W29513  17.020  29.141   0.776
57788W        W29514  24.474  21.408  11.630
57789W        W29515  19.513  38.384   1.530
57790W        W29516  29.427   1.701   4.163
57791W        W29517  24.416  42.932   0.372
57792W        W29518   5.764  29.976  10.709
57793W        W29519   0.385  44.440  13.838
57794W        W29520   2.028   6.917  13.955
57795W        W29521  43.881  12.463   0.460
57796W        W29522  30.490   4.414   3.786
57797W        W29523  37.326   9.419  14.364
57798W        W29524   3.826  23.536  13.536
57799W        W29525   8.724  22.486  10.669
57800W        W29526  35.516  34.961   4.905
57801W        W29527  39.969  31.550   1.334
57802W        W29528  35.410  21.518   0.993
57803W        W29529  21.048  42.196   1.488
57804W        W29530  13.670  26.938   0.275
57805W        W29531  22.574  31.244   0.210
57806W        W29532  37.012  18.830   3.154
57807W        W29533  15.554  15.086  11.633
57808W        W29534  10.245  20.688  11.025
57809W        W29535  28.554  31.684   3.764
57810W        W29536  25.117  10.293  14.456
57811W        W29537  34.450   8.598   2.196
57812W        W29538  43.521  42.917   0.934
57813W        W29539  21.548  22.465  13.901
57814W        W29540  24.494  33.403   4.661
57815W        W29541   6.512  15.097  13.273
57816W        W29542  17.562  25.231  12.430
57817W        W29543   4.586  24.443   0.855
57818W        W29544  18.384  29.773   3.158
57819W        W29545  42.821   2.353  12.568
57820W        W29546  33.119  29.649  10.663
57821W        W29547  17.405  43.313   3.774
57822W        W29548   0.532   5.996   9.822
57823W        W29549  38.168  27.741  14.942
57824W        W29550  23.198  14.695   0.667
57825W        W29551  39.824  30.858   0.906
57826W        W29552   8.158  25.050  14.318
57827W        W29553  20.659   8.232  12.994
57828W        W29554   0.361  29.610   4.940
57829W        W29555   3.452  18.362  13.978
57830W        W29556   5.367  15.919   5.730
57831W        W29557  21.812  14.411  10.308
57832W        W29558  24.712  30.550   1.214
57833W        W29559  18.317  32.098  10.492
57834W        W29560  31.687   1.152   1.332
57835W        W29561  32.392  40.159  14.508
57836W        W29562  16.769  33.628   3.726
57837W        W29563   1.925   7.805  13.708
57838W        W29564  37.929   0.246  11.958
57839W        W29565  33.353   7.122  11.217
57840W        W29566  12.656  40.139   2.815
57841W        W29567  31.817  23.170   0.767
57842W        W29568  27.593  33.223  14.790
57843W        W29569   9.410  30.966  12.578
57844W        W29570  36.864  44.771   3.674
57845W        W29571   5.030  11.644  13.942
57846W        W29572  40.399  24.356  10.591
57847W        W29573  13.351  12.143  11.598
57848W        W29574   5.873   0.648  10.947
57849W        W29575  36.865  18.043   1.221
57850W        W29576  30.974  11.723   3.110
57851W        W29577  36.157  10.349  12.166
57852W        W29578  30.430  15.446  11.425
57853W        W29579   1.005  24.208   1.242
57854W        W29580  37.247  24.990   4.888
57855W        W29581  37.010   1.724   4.890
57856W        W29582  36.307  36.480   1.254
57857W        W29583  14.156  13.266   4.978
57858W        W29584  33.381  29.084  14.977
57859W        W29585  24.993  43.538  12.513
57860W        W29586   1.948  11.402  11.055
57861W        W29587   9.802  24.754   0.943
57862W        W29588  36.974  32.494  11.485
57863W        W29589  13.647  28.073  12.154
57864W        W29590   3.391  11.300  13.043
57865W        W29591   9.640   5.483  13.530
57866W        W29592  13.284  25.624   3.638
57867W        W29593  37.646  39.725   4.179
57868W        W29594  28.828  11.262  13.286
57869W        W29595  29.657   7.572   3.291
57870W        W29596  10.829   4.354   2.280
57871W        W29597   4.735  28.591  13.681
57872W        W29598  40.151  18.657   2.429
57873W        W29599  43.763  34.381  13.381
57874W        W29600  29.212  11.096   0.416
57875W        W29601  38.265  15.318  12.561
57876W        W29602  41.240  35.181   4.028
57877W        W29603   0.259  21.556  12.017
57878W        W29604  14.857  18.202  11.962
57879W        W29605  16.237  42.769   2.817
57880W        W29606  25.044  32.600  14.967
57881W        W29607  22.541  19.353  11.848
57882W        W29608   1.931  44.352   0.824
57883W        W29609  11.943  15.754  12.884
57884W        W29610  41.238  22.936  13.893
57885W        W29611  13.698  44.481   3.328
57886W        W29612  21.739  34.819  13.243
57887W        W29613  25.403  14.168   4.672
57888W        W29614  19.632  25.023  11.202
57889W        W29615  30.535  28.510   4.218
57890W        W29616  17.832   4.852  12.537
57891W        W29617  16.493   4.227  11.638
57892W        W29618  44.934  43.577  11.125
57893W        W29619  35.539  34.804  11.227
57894W        W29620   6.502  19.128   2.218
57895W        W29621  12.134  21.589  13.087
57896W        W29622  16.477  39.018   4.030
57897W        W29623  33.762  14.982  13.408
57898W        W29624  32.013  35.542   4.552
57899W        W29625  32.729  33.179   1.852
57900W        W29626  13.352  32.094   1.651
57901W        W29627   7.366  32.420   4.121
57902W        W29628  25.583  29.281   2.187
57903W        W29629  42.741  35.025  13.897
57904W        W29630  17.986  15.728  14.025
57905W        W29631  12.171  17.782  13.350
57906W        W29632  20.199   9.144  14.159
57907W        W29633  35.106  43.465  14.100
57908W        W29634  23.642  15.141   9.764
57909W        W29635  23.547  23.177  12.968
57910W        W29636  41.345  38.490   2.639
57911W        W29637  23.003  14.152   1.424
57912W        W29638  25.485  15.551  12.261
57913W        W29639  33.165   0.916   2.661
57914W        W29640  21.119  23.739   1.765
57915W        W29641   8.343  40.119   3.658
57916W        W29642  10.671  12.267  14.029
57917W        W29643   8.754  42.743  10.168
57918W        W29644  22.076  21.744   1.703
57919W        W29645  16.375   9.239  11.405
57920W        W29646  17.864  38.567   4.158
57921W        W29647  31.512  32.215   1.751
57922W        W29648   4.331  10.874  14.033
57923W        W29649   8.745   5.191   1.960
57924W        W29650  21.062   5.641   3.333
57925W        W29651  10.384   9.449  14.785
57926W        W29652  29.591  40.451   0.776
57927W        W29653   5.358  10.663   0.793
57928W        W29654  44.107  37.824  13.782
57929W        W29655  33.833  34.447  12.687
57930W        W29656  27.163  37.492   4.389
57931W        W29657  39.839  24.574   3.143
57932W        W29658   6.217   9.395   1.288
57933W        W29659  23.580  39.221  10.629
57934W        W29660  14.082  29.062   1.310
57935W        W29661   1.089  24.535   0.796
57936W        W29662  41.383  29.660  11.134
57937W        W29663  30.750  30.405   3.541
57938W        W29664  35.512  38.405  11.769
57939W        W29665  11.161  35.254  11.626
57940W        W29666  12.712  14.659  12.324
57941W        W29667  30.035  21.084   4.136
57942W        W29668   1.147  25.648  12.938
57943W        W29669  10.084  12.638  14.494
57944W        W29670  23.971  42.547   0.820
57945W        W29671  22.284  15.128   5.026
57946W        W29672   1.214  20.572  13.467
57947W        W29673  24.140  24.662   4.581
57948W        W29674  36.476   1.034   1.900
57949W        W29675   6.959   4.146   0.898
57950W        W29676  23.119  16.160   4.324
57951W        W29677  39.231  11.184  10.778
57952W        W29678   2.636  11.689   1.022
57953W        W29679  15.369  34.679  11.656
57954W        W29680  27.597  38.822   4.502
57955W        W29681  13.758  42.943   2.820
57956W        W29682  18.644  24.997   0.953
57957W        W29683  12.139  38.070  13.088
57958W        W29684  14.325  31.122  13.401
57959W        W29685  42.469  33.363   2.752
57960W        W29686  43.832  24.580  12.454
57961W        W29687  18.853  15.245  12.908
57962W        W29688  29.787  41.951  10.561
57963W        W29689  12.111  20.532  11.606
57964W        W29690  43.681  15.191   3.320
57965W        W29691  43.989  15.426  13.908
57966W        W29692  36.312  35.978  12.342
57967W        W29693  29.396  10.785  12.582
57968W        W29694   7.820   2.441  14.327
57969W        W29695  12.146  18.170   0.967
57970W        W29696  25.423   6.820   1.914
57971W        W29697   2.002  28.595   3.599
57972W        W29698  39.720  44.233   3.160
57973W        W29699  23.614  19.049   0.240
57974W        W29700   2.466   7.661  12.513
57975W        W29701  11.419  16.760  10.712
57976W        W29702  24.279  15.619  11.542
57977W        W29703  41.730  18.607  13.854
57978W        W29704  40.373   9.948  13.596
57979W        W29705  23.535  14.725   1.511
57980W        W29706   6.635  42.500  12.594
57981W        W29707  22.672  43.035   2.336
57982W        W29708  31.971   5.778   1.417
57983W        W29709  15.793  20.497  14.572
57984W        W29710  30.214  39.978   0.917
57985W        W29711  26.170   3.991  11.950
57986W        W29712  33.305  22.025   3.716
57987W        W29713  36.564  38.565   1.237
57988W        W29714  32.669  44.693  10.945
57989W        W29715  28.562  40.325   2.946
57990W        W29716  40.827  37.574  10.703
57991W        W29717  24.586  23.033   0.990
57992W        W29718  41.254   8.202   2.936
57993W        W29719  34.014  31.418  14.479
57994W        W29720  42.857  16.063  10.942
57995W        W29721  41.336  22.957   1.239
57996W        W29722  28.625   3.809  12.064
57997W        W29723  16.858  37.069  12.950
57998W        W29724   7.488  13.944   3.880
57999W        W29725  24.166  44.300   1.467
58000W        W29726  17.639  35.904   5.034
58001W        W29727  40.387  31.156  10.946
58002W        W29728  28.648   9.340  13.987
58003W        W29729  40.510  32.640   1.712
58004W        W29730  30.365   6.827   0.306
58005W        W29731  30.582   3.714   4.989
58006W        W29732   6.899  16.907  10.475
58007W        W29733  37.991   7.417   1.180
58008W        W29734   1.865  24.972  10.700
58009W        W29735  10.643   5.882   3.919
58010W        W29736  34.940   5.627   1.778
58011W        W29737  38.991   3.992   3.791
58012W        W29738  34.634   2.426   1.634
58013W        W29739  10.338  11.578   3.734
58014W        W29740  21.215  32.885  12.571
58015W        W29741  26.969  12.235  14.425
58016W        W29742  43.949  30.108  10.756
58017W        W29743   7.898  32.597  12.785
58018W        W29744  20.639  23.394   0.799
58019W        W29745  42.726  17.678   4.468
58020W        W29746  44.430  11.421   0.330
58021W        W29747  29.475  16.008  13.942
58022W        W29748   4.843  44.048  11.508
58023W        W29749  20.636  20.130   3.142
58024W        W29750  37.680  36.135   2.835
58025W        W29751   8.687  34.977   3.030
58026W        W29752  40.889  26.537  12.069
58027W        W29753  18.306  20.294   4.715
58028W        W29754  32.397  39.913   4.092
58029W        W29755  27.955  33.146  12.471
58030W        W29756  42.421  19.685   2.445
58031W        W29757  14.122  25.590  14.531
58032W        W29758  26.989  35.594   4.682
58033W        W29759  24.141  11.630   3.181
58034W        W29760  38.590  22.487  13.424
58035W        W29761  29.544  43.266  12.601
58036W        W29762  18.718  31.451   2.026
58037W        W29763  34.112  20.241  14.361
58038W        W29764  31.083  20.128   4.452
58039W        W29765  25.491  18.854   3.958
58040W        W29766  39.173  32.699   2.086
58041W        W29767  26.026  29.461   0.933
58042W        W29768   4.201  19.787   3.311
58043W        W29769  32.825  24.613  14.831
58044W        W29770  27.468  12.312   3.599
58045W        W29771  34.076  25.434   1.014
58046W        W29772  32.199  40.047  12.956
58047W        W29773   8.867  13.191   3.559
58048W        W29774  13.614   5.941   4.564
58049W        W29775   2.693  33.064  14.799
58050W        W29776   4.855   4.423   5.391
58051W        W29777  24.704  39.015   0.864
58052W        W29778  23.686  20.187  11.076
58053W        W29779   9.930  29.482  11.088
58054W        W29780  21.960   3.821  13.944
58055W        W29781  34.250  27.211   1.263
58056W        W29782  43.320  35.886   4.284
58057W        W29783   9.060  30.905  14.289
58058W        W29784  23.966   2.051   1.938
58059W        W29785   9.804   6.409  12.444
58060W        W29786  31.607  22.425  14.098
58061W        W29787   3.932  14.891   2.517
58062W        W29788  18.780  42.087  12.734
58063W        W29789  15.137  17.832   2.401
58064W        W29790  38.832  23.719   2.161
58065W        W29791  39.483  37.795  14.766
58066W        W29792  11.613  36.573   1.427
58067W        W29793   7.210  41.915   4.094
58068W        W29794  22.687  27.453   0.360
58069W        W29795   8.642  16.792  11.994
58070W        W29796  30.442  13.879  13.435
58071W        W29797   0.910  33.656  14.799
58072W        W29798  36.050   9.458  13.365
58073W        W29799  15.139  18.821  14.280
58074W        W29800   1.700   3.416   2.771
58075W        W29801  41.424  12.056  13.524
58076W        W29802   5.803  20.984   0.279
58077W        W29803  32.722  14.816   2.753
58078W        W29804  40.553  16.790  11.091
58079W        W29805  43.215  23.269   1.821
58080W        W29806  21.206   0.001   2.318
58081W        W29807  12.719   6.531   4.082
58082W        W29808  39.696  37.007  10.587
58083W        W29809  40.454  35.475   4.838
58084W        W29810  38.324  10.210   4.710
58085W        W29811  19.250  27.879  14.871
58086W        W29812  25.532  25.299  11.993
58087W        W29813  31.131   3.923  12.483
58088W        W29814  35.128  30.491  10.733
58089W        W29815  11.427  16.097   4.300
58090W        W29816  30.853  12.251  12.908
58091W        W29817   0.323   5.989  14.408
58092W        W29818  11.185  35.197   0.351
58093W        W29819  20.933  10.014   0.960
58094W        W29820  43.826  22.204  11.446
58095W        W29821   9.542  21.681   1.879
58096W        W29822  16.594  11.254  10.381
58097W        W29823   9.253  38.450  14.741
58098W        W29824  15.560  20.020   2.200
58099W        W29825  26.799  10.120   0.569
58100W        W29826  36.090  12.741   2.245
58101W        W29827  35.908  33.450   1.703
58102W        W29828   5.863   2.884   4.035
58103W        W29829  22.472  32.166   3.220
58104W        W29830  35.585  22.753  12.332
58105W        W29831   6.889  29.482   2.424
58106W        W29832  19.782  38.955   1.875
58107W        W29833  32.186  30.294   0.916
58108W        W29834  33.914  26.350  13.681
58109W        W29835  32.473  13.783  11.726
58110W        W29836  31.471  27.949  14.028
58111W        W29837  18.171  11.898  11.522
58112W        W29838  32.694   1.393   0.385
58113W        W29839   4.963  10.757  12.839
58114W        W29840  28.770   0.334   4.596
58115W        W29841  44.557   7.812  13.138
58116W        W29842  34.290  35.612  12.166
58117W        W29843   0.490  42.094   2.393
58118W        W29844  23.196  36.484   0.942
58119W        W29845   8.172  23.646   2.350
58120W        W29846  30.368  16.523  10.722
58121W        W29847  40.233  25.195   2.676
58122W        W29848  39.930  40.078   3.135
58123W        W29849  37.797   6.872  13.804
58124W        W29850  17.629  12.033   2.827
58125W        W29851  15.927   8.671   1.325
58126W        W29852  24.057  31.978   4.204
58127W        W29853  10.981  31.463  11.928
58128W        W29854   6.897  36.892  13.634
58129W        W29855  15.764  42.496  12.428
58130W        W29856  34.348  11.166  11.636
58131W        W29857  17.148  18.561  12.962
58132W        W29858  39.963  22.755   1.510
58133W        W29859  40.858  30.598  14.562
58134W        W29860  12.045  28.035  10.684
58135W        W29861  43.115  40.881   4.235
58136W        W29862  43.082  33.648  12.944
58137W        W29863  40.948  10.355  13.956
58138W        W29864  23.729  27.921   0.676
58139W        W29865  11.380  24.672  11.812
58140W        W29866  42.457  16.766   2.660
58141W        W29867   5.766  22.556   1.504
58142W        W29868  21.740   4.411   2.327
58143W        W29869  16.009  41.498   1.709
58144W        W29870  34.577  27.748  14.941
58145W        W29871   0.201  25.537   2.373
58146W        W29872  27.486  38.855   1.797
58147W        W29873  25.088  43.667   1.848
58148W        W29874  29.822  44.473   3.215
58149W        W29875  38.512   2.088   1.381
58150W        W29876  43.116  28.409  12.812
58151W        W29877  18.275   4.554  12.535
58152W        W29878   2.040  19.510   4.580
58153W        W29879  23.100  26.090   4.263
58154W        W29880   5.904  35.917   4.603
58155W        W29881  10.836  15.287  11.211
58156W        W29882   1.936  11.220   4.489
58157W        W29883  28.915  19.110   3.763
58158W        W29884  40.462  30.472  14.269
58159W        W29885   4.363  39.327   0.890
58160W        W29886   6.958  33.593  13.095
58161W        W29887  32.061  31.135  14.843
58162W        W29888  42.725  13.021   3.059
58163W        W29889  10.858  37.442  12.097
58164W        W29890  30.936  17.056   2.310
58165W        W29891  30.562  36.122  12.042
58166W        W29892  15.375  35.029  10.839
58167W        W29893  41.239  32.429   0.198
58168W        W29894  25.322  20.943   4.071
58169W        W29895   4.649  11.564   4.158
58170W        W29896   7.393   4.118  14.689
58171W        W29897  12.378  23.331   3.597
58172W        W29898  34.363  15.874  12.619
58173W        W29899  10.931  15.505  12.126
58174W        W29900  20.846  10.800  12.908
58175W        W29901   6.841  11.778   4.652
58176W        W29902   8.748   0.779   0.426
58177W        W29903  26.467  10.485   3.192
58178W        W29904  42.365  24.425   3.190
58179W        W29905  18.087   8.238   1.738
58180W        W29906  13.032   3.535   4.177
58181W        W29907  31.125  28.149  11.903
58182W        W29908   0.451  40.475  12.020
58183W        W29909  38.826  21.676  14.776
58184W        W29910  38.635  26.833   3.377
58185W        W29911  21.039  21.904  12.964
58186W        W29912  28.753  10.146  13.561
58187W        W29913   0.766   4.901  13.081
58188W        W29914  16.336  18.231   2.107
58189W        W29915  23.667   0.016  12.161
58190W        W29916  44.469  40.754  12.638
58191W        W29917  43.911  26.668   3.316
58192W        W29918  36.631   6.798   3.803
58193W        W29919  19.529  17.538   0.925
58194W        W29920   5.739  32.573  12.079
58195W        W29921  23.158  37.950  14.403
58196W        W29922  40.813   7.920   0.927
58197W        W29923  16.543  22.720  12.410
58198W        W29924  28.883  24.819   1.073
58199W        W29925  25.030  29.523   1.986
58200W        W29926  43.093  27.109  12.028
58201W        W29927  19.329  32.118  13.983
58202W        W29928   2.819  44.045  12.424
58203W        W29929  28.110  30.909  14.931
58204W        W29930  11.350  23.785  13.006
58205W        W29931  19.182   4.492   0.947
58206W        W29932  21.111  17.830  13.421
58207W        W29933  41.093  28.655  10.961
58208W        W29934   7.177  26.526   1.795
58209W        W29935  17.881  44.116   1.960
58210W        W29936   2.465  15.733   0.039
58211W        W29937  34.134  24.259   4.658
58212W        W29938  18.460  31.219   0.472
58213W        W29939  27.698  43.866  12.951
58214W        W29940  28.166   3.647  12.264
58215W        W29941  12.315  23.735   4.835
58216W        W29942   4.324  20.295   3.216
58217W        W29943  42.433  42.463   2.451
58218W        W29944  20.236   2.168  11.562
58219W        W29945  29.570  42.939   3.253
58220W        W29946  38.438   4.850   0.570
58221W        W29947  24.658  33.966  10.705
58222W        W29948  27.025  20.936  14.242
58223W        W29949  22.245  12.169  14.335
58224W        W29950  34.950   8.799   2.076
58225W        W29951  22.048  14.785   3.123
58226W        W29952  21.228  25.099   4.558
58227W        W29953  25.715  18.047  11.232
58228W        W29954  28.020  34.132   4.856
58229W        W29955  10.458  24.891  12.519
58230W        W29956  40.496  38.811  13.455
58231W        W29957  26.508   1.758   4.622
58232W        W29958  25.433  44.573   1.786
58233W        W29959  43.139   2.091  12.885
58234W        W29960  13.875  13.675   2.817
58235W        W29961  18.762  28.816   0.024
58236W        W29962   5.464  33.456  11.533
58237W        W29963  36.842   2.418   0.851
58238W        W29964   2.431  15.561  10.755
58239W        W29965  18.717   0.792   4.491
58240W        W29966  12.094  44.988   2.707
58241W        W29967   2.456  43.101   0.392
58242W        W29968  17.745  44.041   0.940
58243W        W29969   7.237  36.403  14.737
58244W        W29970  10.839   6.750   3.895
58245W        W29971  35.512  41.927  12.427
58246W        W29972  15.177   0.712  14.356
58247W        W29973  36.565   8.869   5.020
58248W        W29974   3.139  23.900   4.045
58249W        W29975  24.172  28.490   0.790
58250W        W29976  25.495  18.538  11.302
58251W        W29977  27.844  42.271  13.637
58252W        W29978   2.321  25.139   3.735
58253W        W29979   6.378  23.780  11.687
58254W        W29980  33.111  20.783  12.482
58255W        W29981  12.923  32.061   0.846
58256W        W29982  40.351  25.870   3.447
58257W        W29983  36.952  19.290   2.377
58258W        W29984   1.250   0.225   2.287
58259W        W29985  20.479   0.800   0.112
58260W        W29986  42.001  10.688  10.577
58261W        W29987  26.923  33.376   1.321
58262W        W29988  11.537  24.951   4.591
58263W        W29989  40.545  41.556   0.029
58264W        W29990   1.327  17.134   1.911
58265W        W29991   6.756  41.372   1.883
58266W        W29992  38.907   7.381   1.729
58267W        W29993   9.332  17.159   4.442
58268W        W29994  13.051  33.067   2.247
58269W        W29995  19.516  33.125  14.331
58270W        W29996   1.565  14.277  11.051
58271W        W29997  18.586  14.347   3.793
58272W        W29998  38.461   5.798   3.095
58273W        W29999  18.786  37.874   4.038
58274W        W30000  43.527  44.532   1.685
58275W        W30001   8.405   5.111  13.798
58276W        W30002   0.757   8.255  11.339
58277W        W30003  27.984  42.445   1.187
58278W        W30004  41.991   8.676   3.271
58279W        W30005   1.238  36.330  13.945
58280W        W30006  15.085  15.717   0.873
58281W        W30007  43.972  40.012  12.133
58282W        W30008   8.771  22.759  14.679
58283W        W30009   3.987  42.405  12.217
58284W        W30010  25.979   3.033   3.479
58285W        W30011   6.394   2.979  11.706
58286W        W30012  24.664  14.403   2.681
58287W        W30013  41.124  34.439  13.434
58288W        W30014  18.767  14.785  12.100
58289W        W30015  12.158  14.210   3.169
58290W        W30016  17.523  43.688   1.270
58291W        W30017  29.073   7.157  12.120
58292W        W30018  30.666  41.996   3.208
58293W        W30019  13.595  24.804   3.156
58294W        W30020  17.631  39.236  11.483
58295W        W30021  39.314   4.535   2.022
58296W        W30022  43.725  16.582  12.394
58297W        W30023   0.254  11.469  12.519
58298W        W30024  21.198  39.811  13.870
58299W        W30025  39.266  20.021   4.827
58300W        W30026  37.854  43.727   4.135
58301W        W30027  33.444  29.419   0.923
58302W        W30028  15.640  19.510  14.327
58303W        W30029  33.292  10.274   3.744
58304W        W30030  38.794  10.592   3.218
58305W        W30031   8.624  20.664  13.747
58306W        W30032  25.679  27.564  12.119
58307W        W30033  36.913   7.242   3.798
58308W        W30034   1.661   9.843   0.056
58309W        W30035  26.983  20.660   3.687
58310W        W30036  11.328  25.727   3.827
58311W        W30037  10.595  18.065  14.099
58312W        W30038  27.010  27.328   4.224
58313W        W30039  43.126  12.797   3.316
58314W        W30040  21.136   0.331  12.509
58315W        W30041   3.288  20.836  14.905
58316W        W30042  35.408  10.740   1.188
58317W        W30043   2.008  32.646   2.657
58318W        W30044  20.178   7.476   0.306
58319W        W30045  35.065  12.895   2.829
58320W        W30046  35.012  30.915   4.488
58321W        W30047  31.088  31.618  13.634
58322W        W30048   0.518  14.141   3.848
58323W        W30049  33.537  30.348   3.778
58324W        W30050   8.658  43.743  14.329
58325W        W30051  12.563  44.472   1.234
58326W        W30052  29.415  39.283  13.979
58327W        W30053  24.452  35.167   1.724
58328W        W30054   1.370  32.928   3.777
58329W        W30055  37.779  12.629   4.994
58330W        W30056  32.069  21.665  12.629
58331W        W30057  42.728  23.543  12.451
58332W        W30058   3.736  18.542   2.152
58333W        W30059   8.717  13.523   1.746
58334W        W30060  10.640  12.097   0.870
58335W        W30061  33.924  26.684   4.094
58336W        W30062  11.172   9.870   0.787
58337W        W30063   7.755  23.836   0.271
58338W        W30064  27.346   8.104   1.664
58339W        W30065  19.078  20.200   4.161
58340W        W30066  18.709  18.799   1.366
58341W        W30067  37.399  38.954  11.816
58342W        W30068  32.729   7.697  11.723
58343W        W30069  17.330  33.950   1.896
58344W        W30070  38.604  23.721  11.184
58345W        W30071   2.704   7.766   3.229
58346W        W30072  18.835  34.037  12.606
58347W        W30073  12.635  22.616  12.274
58348W        W30074   7.840  17.631   1.854
58349W        W30075  32.558  20.240   3.796
58350W        W30076  10.210  15.099  10.338
58351W        W30077  16.136  11.766  10.801
58352W        W30078  37.766  31.487  10.759
58353W        W30079  22.095  41.843  10.707
58354W        W30080  36.019  23.639  14.513
58355W        W30081  12.603   3.737   4.410
58356W        W30082  31.629  44.168   2.618
58357W        W30083  30.722  41.417  10.092
58358W        W30084  31.931  16.129  14.761
58359W        W30085  35.821   2.678   1.520
58360W        W30086  20.295  38.645  12.982
58361W        W30087  19.171  30.117   3.219
58362W        W30088  25.487  41.516  14.070
58363W        W30089  27.513  14.173   3.980
58364W        W30090   4.895   7.584   0.490
58365W        W30091  11.874  23.151   2.206
58366W        W30092  19.523  14.496   1.725
58367W        W30093  28.099  32.455   3.765
58368W        W30094  42.417  15.363   1.407
58369W        W30095   2.793   0.734  10.759
58370W        W30096  10.203  19.966   3.399
58371W        W30097  10.406   2.234   1.730
58372W        W30098  16.192   0.948   0.036
58373W        W30099   7.889  34.532  12.302
58374W        W30100   7.082  33.872  14.793
58375W        W30101   5.588  30.343   2.317
58376W        W30102  23.125  39.561   3.518
58377W        W30103  39.410  30.364  11.580
58378W        W30104   5.399   4.437  14.357
58379W        W30105   2.758  27.878   3.712
58380W        W30106  29.398  12.452  11.189
58381W        W30107  24.211  44.958  14.269
58382W        W30108  41.584  14.146   4.475
58383W        W30109  11.342  42.348  10.677
58384W        W30110   2.472  40.042   0.200
58385W        W30111  24.959   8.644  14.615
58386W        W30112   5.695  43.111  10.348
58387W        W30113   9.831   3.867   0.238
58388W        W30114  11.094  19.673  10.546
58389W        W30115   0.285  43.958  13.754
58390W        W30116  35.148  29.087  14.552
58391W        W30117  16.179  18.009  14.488
58392W        W30118  32.885  30.641  13.773
58393W        W30119  28.600  34.345  14.784
58394W        W30120  38.546  22.135  14.914
58395W        W30121  31.937  11.719   0.342
58396W        W30122   4.607  17.224   5.040
58397W        W30123  36.397  35.114  14.792
58398W        W30124  19.153  34.108   0.769
58399W        W30125  41.393  29.442   1.359
58400W        W30126  22.407  29.459  12.057
58401W        W30127  37.053  32.686   3.680
58402W        W30128  12.063  22.700   2.376
58403W        W30129  16.673  34.848   0.224
58404W        W30130  29.410  42.805   4.739
58405W        W30131   6.912  43.464   1.333
58406W        W30132  11.116   0.307  14.481
58407W        W30133  42.966  35.893   2.364
58408W        W30134   4.473  20.380  13.228
58409W        W30135   7.672  26.018   4.369
58410W        W30136  17.360   0.065  11.471
58411W        W30137   1.383  39.774   0.821
58412W        W30138  18.227  10.676   4.384
58413W        W30139  32.326   5.486   3.147
58414W        W30140  40.449  37.187   0.980
58415W        W30141  25.436  25.867   2.771
58416W        W30142   1.777  10.279   3.730
58417W        W30143   0.456   1.901  12.811
58418W        W30144  12.878  25.858   4.889
58419W        W30145   6.677  41.344  13.564
58420W        W30146  42.968  18.155  10.995
58421W        W30147   6.201   4.542  12.115
58422W        W30148  20.493  38.892  11.102
58423W        W30149  16.142  18.253  12.477
58424W        W30150  23.151  30.839  12.961
58425W        W30151  11.854   8.819   0.783
58426W        W30152  16.760  31.250  11.690
58427W        W30153  13.280  42.923  14.429
58428W        W30154  24.586  44.795   4.937
58429W        W30155  24.952  17.655  10.736
58430W        W30156  25.562   3.501  14.054
58431W        W30157   3.679   4.837  11.413
58432W        W30158  20.778  25.326  12.827
58433W        W30159  35.942  15.364   3.928
58434W        W30160   9.322   6.962   3.561
58435W        W30161  16.939  27.849   0.941
58436W        W30162  18.130  14.275  12.624
58437W        W30163   0.840   4.663   5.043
58438W        W30164  43.909   4.438  10.435
58439W        W30165  33.972  17.764   0.002
58440W        W30166  37.346  27.560   1.212
58441W        W30167   3.257  26.077   1.268
58442W        W30168  38.525   0.307   0.836
58443W        W30169  33.577  19.011   0.325
58444W        W30170   8.257  41.453  13.340
58445W        W30171  18.141  10.280  11.524
58446W        W30172  44.293   3.855   2.397
58447W        W30173   4.422  30.085   0.989
58448W        W30174  18.345  40.945  11.016
58449W        W30175   4.692  20.674   3.687
58450W        W30176  16.832   1.780   3.187
58451W        W30177   8.339  14.636   0.358
58452W        W30178  16.371  19.773  14.133
58453W        W30179  40.921  32.517   0.779
58454W        W30180  22.280  36.580   1.819
58455W        W30181  10.471   1.235   3.461
58456W        W30182  27.791   7.239   1.345
58457W        W30183  32.745   9.734  11.030
58458W        W30184  10.114  26.507   5.021
58459W        W30185   2.258  39.380   2.458
58460W        W30186   3.769  27.493   3.720
58461W        W30187  13.221  17.749   0.260
58462W        W30188  35.024   3.823   3.296
58463W        W30189   6.393  11.498  10.267
58464W        W30190  34.882  37.383   4.908
58465W        W30191  17.755  31.664   4.126
58466W        W30192  27.151  33.127   1.764
58467W        W30193   0.148  40.918  12.031
58468W        W30194  36.554  39.822  11.693
58469W        W30195  32.006  14.034   4.940
58470W        W30196   6.244  31.553  13.806
58471W        W30197  11.239   8.698   0.270
58472W        W30198  23.278  34.629   3.788
58473W        W30199  15.559  13.182  11.523
58474W        W30200  31.604  17.266  12.092
58475W        W30201  38.659  34.934   2.383
58476W        W30202   4.700  11.212  13.904
58477W        W30203  10.687  44.980  10.452
58478W        W30204  15.137   6.271  11.367
58479W        W30205   9.477  43.001  12.343
58480W        W30206   6.312  25.526   4.220
58481W        W30207   9.689  21.544  13.316
58482W        W30208  14.214  12.639   4.946
58483W        W30209  16.583  24.092   1.624
58484W        W30210  20.579  30.928  12.723
58485W        W30211  34.140  13.834  13.894
58486W        W30212   9.144   7.425   5.075
58487W        W30213  40.328  40.300   4.851
58488W        W30214  25.134  23.506  13.831
58489W        W30215   9.883  36.900  11.447
58490W        W30216  25.086   9.634  11.386
58491W        W30217   1.365   6.879  12.606
58492W        W30218  27.745  33.948  12.422
58493W        W30219  40.050  26.142   2.538
58494W        W30220  23.744  17.529   4.373
58495W        W30221  42.924  13.695   0.610
58496W        W30222  25.917  42.077  10.581
58497W        W30223  19.333   3.420   1.761
58498W        W30224  34.838  21.772  12.580
58499W        W30225   9.090   6.344  13.391
58500W        W30226   6.334  37.524   2.736
58501W        W30227  38.436  10.466   0.956
58502W        W30228  33.029  32.780   2.777
58503W        W30229   2.879  14.368   3.652
58504W        W30230   1.947  44.472  11.035
58505W        W30231  27.593   9.786   2.789
58506W        W30232  12.393  25.483   3.027
58507W        W30233  10.344  32.730  10.785
58508W        W30234  24.119  32.767  12.775
58509W        W30235  42.114  20.513   0.765
58510W        W30236  42.830  31.675   3.875
58511W        W30237  30.373  29.269  12.180
58512W        W30238  17.282  40.987  10.662
58513W        W30239  16.181  25.095  11.834
58514W        W30240  37.867  43.412   3.229
58515W        W30241  14.328  21.755  10.714
58516W        W30242  31.568  10.423   1.512
58517W        W30243  17.996  13.885   1.969
58518W        W30244   2.922  15.692  11.564
58519W        W30245  23.725   6.649  13.360
58520W        W30246   9.523  28.691  13.996
58521W        W30247   1.512  10.349   3.256
58522W        W30248  13.799   8.526  12.549
58523W        W30249  43.067  16.254  14.401
58524W        W30250   9.863  38.825  12.573
58525W        W30251  19.732  18.627   3.583
58526W        W30252  34.577  23.227  13.425
58527W        W30253  28.555  25.208  10.410
58528W        W30254  13.570  26.241   3.331
58529W        W30255  17.229  40.388   0.216
58530W        W30256  15.859   0.988   1.152
58531W        W30257  23.227  40.965   1.667
58532W        W30258  44.483  30.447   0.791
58533W        W30259  31.866  42.423  11.423
58534W        W30260  23.205  16.128   2.221
58535W        W30261  33.658   1.596   5.045
58536W        W30262  28.864  11.703  13.540
58537W        W30263   0.953  26.794   1.460
58538W        W30264  17.538  28.033  10.578
58539W        W30265  24.081  27.630  11.602
58540W        W30266  27.258  19.851   4.095
58541W        W30267  44.335  14.634   2.748
58542W        W30268  25.968   8.243   3.676
58543W        W30269  10.957  11.492   2.830
58544W        W30270   0.821   8.833  13.652
58545W        W30271   2.969  40.983  11.601
58546W        W30272  17.569  37.520  11.088
58547W        W30273   2.127  15.165  12.852
58548W        W30274  25.679  22.166   3.854
58549W        W30275  39.636  27.479  14.820
58550W        W30276  38.023   9.734  10.610
58551W        W30277  40.597  44.389   2.185
58552W        W30278  14.666  25.362   4.164
58553W        W30279  32.128  14.543   4.936
58554W        W30280  10.837  20.559   4.154
58555W        W30281  23.422  34.328  12.974
58556W        W30282  27.229  24.552  13.547
58557W        W30283  34.510   0.196   0.754
58558W        W30284  11.160   2.018   1.283
58559W        W30285  44.007  17.864   3.051
58560W        W30286   2.964  34.345   2.295
58561W        W30287  31.016  21.559  13.531
58562W        W30288  26.642  22.202  12.895
58563W        W30289  23.530  30.884  14.979
58564W        W30290  28.989   5.681  10.663
58565W        W30291  29.380  22.717  11.143
58566W        W30292   5.894  39.775   3.894
58567W        W30293  38.071   8.301   3.037
58568W        W30294  27.648  17.786   0.351
58569W        W30295  33.936  38.332   0.988
58570W        W30296  14.279  31.031   3.737
58571W        W30297  16.322  14.380  14.970
58572W        W30298  27.639  20.941  11.725
58573W        W30299  38.349  35.349   1.473
58574W        W30300  44.833  40.825   2.743
58575W        W30301  43.542  28.555  12.021
58576W        W30302  19.260  10.521  11.256
58577W        W30303  43.946  24.998   1.022
58578W        W30304  39.372  20.265  12.939
58579W        W30305  43.845  37.862   3.351
58580W        W30306  16.506  28.069  10.712
58581W        W30307  37.891  40.486  11.890
58582W        W30308  38.128  31.993   2.877
58583W        W30309  42.864  11.501   3.212
58584W        W30310  15.144  11.569   4.591
58585W        W30311  40.054   1.404   0.052
58586W        W30312  27.630  34.462  12.410
58587W        W30313   0.862  26.592   9.863
58588W        W30314   0.903  15.570   1.847
58589W        W30315  23.640  34.910  10.800
58590W        W30316  28.165   5.109   4.995
58591W        W30317   7.205  36.024  14.391
58592W        W30318  40.070  42.803  14.412
58593W        W30319  19.238  28.994   2.360
58594W        W30320   2.849  42.741   0.409
58595W        W30321  42.927  32.082  14.931
58596W        W30322   2.026  34.082  11.065
58597W        W30323  31.695   6.938  12.160
58598W        W30324   3.975  17.361   4.335
58599W        W30325  21.634  27.563   1.564
58600W        W30326  24.029  22.037   2.158
58601W        W30327   3.003   0.483  13.062
58602W        W30328  13.437   0.748  14.588
58603W        W30329  27.483  43.329   4.552
58604W        W30330   0.940  35.498   1.796
58605W        W30331   6.861   4.880   4.992
58606W        W30332  37.564  41.491  12.958
58607W        W30333   0.436  14.582  14.786
58608W        W30334  22.222  42.935   5.309
58609W        W30335   2.731  36.116  11.592
58610W        W30336  35.069  20.990   0.332
58611W        W30337  12.654  14.562  10.552
58612W        W30338  39.764   7.451   3.033
58613W        W30339   1.971  21.669  11.426
58614W        W30340  14.858  40.577   2.834
58615W        W30341   6.247  32.660  11.987
58616W        W30342  37.547  32.768  13.298
58617W        W30343  10.897  19.869  12.447
58618W        W30344  15.648   2.316   3.691
58619W        W30345  26.542  18.614  14.463
58620W        W30346  15.034  26.196  13.794
58621W        W30347  43.528  18.362  12.438
58622W        W30348  20.139  18.293   2.368
58623W        W30349  33.894  33.848  12.522
58624W        W30350  27.650  37.974  13.077
58625W        W30351  36.402  34.971  11.754
58626W        W30352  41.130  37.481  12.655
58627W        W30353   5.868   0.485   0.949
58628W        W30354  29.928  13.796  14.391
58629W        W30355  31.580  21.861  10.857
58630W        W30356  19.081  29.640   4.739
58631W        W30357  31.095  10.445  11.543
58632W        W30358  11.589  43.042  13.914
58633W        W30359  27.457  31.299   3.221
58634W        W30360  13.909  30.633   1.279
58635W        W30361  30.935  35.524  12.633
58636W        W30362  17.537  40.906  14.354
58637W        W30363   1.805  43.747  14.310
58638W        W30364  15.371  24.049   3.774
58639W        W30365  29.652  34.486   0.575
58640W        W30366  34.457  44.821  11.113
58641W        W30367  14.153  18.183  13.563
58642W        W30368  14.596  36.975   2.910
58643W        W30369  26.696  44.345  12.307
58644W        W30370  29.018  23.078   2.739
58645W        W30371  15.333  37.941   0.358
58646W        W30372  23.978   6.718   0.070
58647W        W30373   2.247  27.639  14.594
58648W        W30374  35.354  30.575  14.251
58649W        W30375   9.433  32.037   1.107
58650W        W30376  15.161  44.876   2.355
58651W        W30377  30.992  27.484   1.972
58652W        W30378  17.750  29.618  13.771
58653W        W30379  33.394   2.527  13.886
58654W        W30380  26.345  32.722  12.935
58655W        W30381   9.118  30.383   0.179
58656W        W30382  28.210  14.797   4.417
58657W        W30383  18.799  25.132  10.664
58658W        W30384  25.122   7.389  12.228
58659W        W30385  19.298  19.489  11.599
58660W        W30386   9.100  41.358   1.923
58661W        W30387  13.793  40.322  10.371
58662W        W30388  11.497  26.104   1.389
58663W        W30389  32.252  42.352  10.099
58664W        W30390  26.564  38.401   1.896
58665W        W30391   0.155  25.233  13.597
58666W        W30392  24.024  43.346   1.944
58667W        W30393  44.492  13.023  10.628
58668W        W30394  31.012  28.198   2.817
58669W        W30395   4.753  24.760  14.993
58670W        W30396   4.718  22.384   9.996
58671W        W30397  15.061  19.974  13.554
58672W        W30398  35.871  32.377   2.849
58673W        W30399  36.911  23.584   4.088
58674W        W30400   4.937   0.372   0.733
58675W        W30401  42.981   4.471  11.615
58676W        W30402   7.335   4.682   0.363
58677W        W30403  32.965  41.051  11.874
58678W        W30404  15.261  38.066   1.652
58679W        W30405   4.371  31.964   0.185
58680W        W30406   9.490  44.793  13.887
58681W        W30407  40.630  41.525   0.974
58682W        W30408  15.564  32.464   0.720
58683W        W30409  37.870  38.431   1.718
58684W        W30410   9.730  27.060   4.906
58685W        W30411  28.295  23.431  11.177
58686W        W30412   9.007  20.938  11.899
58687W        W30413  35.883  10.306   5.187
58688W        W30414  30.970  41.280  13.082
58689W        W30415  31.849  44.808   1.449
58690W        W30416  27.523  32.940   4.149
58691W        W30417  28.181  18.265   0.787
58692W        W30418  42.674  21.794   3.610
58693W        W30419   3.699  33.819  13.895
58694W        W30420  16.767   4.997   4.612
58695W        W30421  28.586   2.187   3.327
58696W        W30422  41.330  37.547  13.473
58697W        W30423  18.360  34.483   3.576
58698W        W30424  34.989  36.926  12.853
58699W        W30425   6.353   5.820   3.742
58700W        W30426  28.658   5.783  14.009
58701W        W30427   8.986   9.910  14.480
58702W        W30428  25.198  18.059  10.500
58703W        W30429  37.458   2.449   2.467
58704W        W30430  29.803   2.244   0.312
58705W        W30431  10.621  19.241   4.863
58706W        W30432  28.735  25.699  10.183
58707W        W30433  26.515  33.873  14.340
58708W        W30434  22.551  17.072  14.944
58709W        W30435  37.251  41.894   2.893
58710W        W30436  10.160  35.841  12.240
58711W        W30437  38.438   0.403   4.823
58712W        W30438  22.808  15.820   4.532
58713W        W30439  19.669   0.887  14.648
58714W        W30440  28.912  23.793   3.459
58715W        W30441  30.416   1.492  12.216
58716W        W30442   2.935  24.785  13.666
58717W        W30443  43.457   3.373  14.830
58718W        W30444  43.286  15.708  11.427
58719W        W30445   3.255   4.148  11.489
58720W        W30446   6.519  44.400  14.269
58721W        W30447  27.454  11.281  11.679
58722W        W30448  34.178  20.691  14.838
58723W        W30449  22.213  31.576  14.534
58724W        W30450   5.434  20.303  11.689
58725W        W30451  36.956  26.432   4.727
58726W        W30452  23.195  10.389   1.383
58727W        W30453  42.370   8.939  12.192
58728W        W30454  28.546   8.704   1.577
58729W        W30455   8.154  44.290   0.808
58730W        W30456  14.938  39.231  11.126
58731W        W30457  40.414  16.801   3.625
58732W        W30458  15.160   0.803   1.871
58733W        W30459   7.398  39.004  11.979
58734W        W30460   2.200  15.418   4.164
58735W        W30461   5.263  33.803  13.406
58736W        W30462  26.900   4.644   3.828
58737W        W30463  42.664   7.153  14.034
58738W        W30464  18.821  28.442  11.820
58739W        W30465  24.977  38.993   4.652
58740W        W30466  31.571  41.402  13.945
58741W        W30467   5.331  13.853   2.384
58742W        W30468   4.423  36.540   4.101
58743W        W30469  32.988  31.869  14.477
58744W        W30470   5.339   2.439   1.826
58745W        W30471  22.277  19.086   3.436
58746W        W30472  26.243  39.292   2.833
58747W        W30473   6.354  36.330   0.086
58748W        W30474   5.069  38.343   4.961
58749W        W30475  10.825  14.138   3.375
58750W        W30476   3.854   9.917  13.406
58751W        W30477  23.304  40.917  13.499
58752W        W30478  23.662   2.704   3.387
58753W        W30479   5.108  20.684  10.723
58754W        W30480  27.187  37.421   3.855
58755W        W30481  36.449   3.125  11.328
58756W        W30482   1.377  41.758   4.706
58757W        W30483  38.990  41.349  14.857
58758W        W30484   8.583  30.718  13.430
58759W        W30485  26.665  40.894   2.774
58760W        W30486  20.569  35.147  14.231
58761W        W30487  41.963  24.483  13.800
58762W        W30488   8.973   0.547   2.743
58763W        W30489  26.147  29.544   3.321
58764W        W30490  11.799  41.520  14.289
58765W        W30491  19.416   5.257  10.690
58766W        W30492  44.303  26.124  11.415
58767W        W30493   5.187  27.474   2.202
58768W        W30494  26.745  32.685  14.763
58769W        W30495   8.662  38.987   2.391
58770W        W30496  13.454  42.831   4.775
58771W        W30497   9.930  14.271  12.499
58772W        W30498  18.254  22.436  13.367
58773W        W30499  12.880   1.044  11.980
58774W        W30500  33.974  28.156   3.957
58775W        W30501  13.682  35.062  14.127
58776W        W30502  27.280   6.353  13.005
58777W        W30503   5.777   3.158   0.792
58778W        W30504  15.167   0.472   0.030
58779W        W30505  11.678   4.195   1.319
58780W        W30506  11.390  15.691  12.026
58781W        W30507  34.286  41.875   2.205
58782W        W30508  26.900  36.399  14.445
58783W        W30509  19.234  43.382   3.080
58784W        W30510  30.166  30.665  11.536
58785W        W30511  22.512  44.322  14.442
58786W        W30512  31.740  36.556   4.493
58787W        W30513  13.784  42.413   4.598
58788W        W30514   8.915  24.103  13.777
58789W        W30515  41.356  11.328   4.336
58790W        W30516   7.366  44.990  14.269
58791W        W30517  35.903   9.233   4.807
58792W        W30518  28.188   3.798   1.097
58793W        W30519  27.440  44.094   5.492
58794W        W30520  18.516  21.894   2.858
58795W        W30521  42.390  26.405   4.908
58796W        W30522  38.259   6.143   4.383
58797W        W30523  22.683  44.999  11.207
58798W        W30524  24.247   2.296  13.446
58799W        W30525   1.397  12.111  10.508
58800W        W30526  10.406  32.875  12.175
58801W        W30527  11.392   3.648   4.526
58802W        W30528  11.894  38.495   2.158
58803W        W30529  42.414  19.161   2.512
58804W        W30530   0.246   8.209  13.996
58805W        W30531   3.488  16.091   3.418
58806W        W30532   1.233  12.612   1.310
58807W        W30533  20.265  17.618   1.830
58808W        W30534   7.629  31.701  13.892
58809W        W30535  41.493  15.076  14.381
58810W        W30536   2.953  18.858  12.816
58811W        W30537  37.251   5.942  12.980
58812W        W30538  22.474  20.177  12.156
58813W        W30539  29.681  19.622  14.643
58814W        W30540  31.581  14.079   2.767
58815W        W30541  42.369  16.300  10.683
58816W        W30542  35.248  10.839  12.471
58817W        W30543  40.067  21.713   1.723
58818W        W30544  21.435  23.486   3.832
58819W        W30545  24.714  40.783  13.662
58820W        W30546  36.462   8.315   1.479
58821W        W30547   1.244  42.183   1.887
58822W        W30548  23.663   2.831  14.441
58823W        W30549  16.078  36.992  10.730
58824W        W30550   5.494  44.371   3.109
58825W        W30551  35.560  27.575   2.942
58826W        W30552   7.433   6.818  10.933
58827W        W30553  25.369   8.329   0.478
58828W        W30554   8.870  41.618   4.713
58829W        W30555   2.167  13.053  14.526
58830W        W30556  36.893   2.793  11.901
58831W        W30557   5.883   6.856   1.692
58832W        W30558   0.330   9.592  10.610
58833W        W30559  36.827   3.247  13.183
58834W        W30560  44.735  44.070  10.985
58835W        W30561  11.768  39.367   4.282
58836W        W30562  12.868  40.052   0.374
58837W        W30563  22.955   8.903  12.580
58838W        W30564   2.571  14.595  10.670
58839W        W30565  43.366  31.169  12.586
58840W        W30566  39.502   6.863   0.900
58841W        W30567  29.489   5.789   1.856
58842W        W30568  19.925   1.824  10.825
58843W        W30569  39.976  17.167   0.489
58844W        W30570  25.754  33.096   4.872
58845W        W30571  15.551   0.516   3.285
58846W        W30572   6.263  19.043   3.386
58847W        W30573  20.667  33.029  10.425
58848W        W30574  43.959  26.245  12.026
58849W        W30575  10.157  38.413   3.527
58850W        W30576   5.960   2.883   3.189
58851W        W30577  23.153  32.462  13.789
58852W        W30578  41.460  20.230   5.376
58853W        W30579  24.667  41.288  11.107
58854W        W30580   0.369  11.701   0.208
58855W        W30581  39.917  28.180  14.427
58856W        W30582  44.175  19.926   2.555
58857W        W30583  14.522  10.192   2.724
58858W        W30584  34.926  10.714   2.239
58859W        W30585  22.665   9.098  10.180
58860W        W30586  10.693  15.418   3.948
58861W        W30587  23.516  35.514  13.536
58862W        W30588  34.157  26.416   3.712
58863W        W30589  29.096  19.181  12.562
58864W        W30590  20.010  18.713  11.926
58865W        W30591   4.478  40.814  11.617
58866W        W30592  43.256  32.494   2.051
58867W        W30593  21.781  25.637   4.892
58868W        W30594  42.464  30.132   3.789
58869W        W30595  14.918  34.440  10.131
58870W        W30596  22.555   4.050  12.681
58871W        W30597  29.135  19.117   4.628
58872W        W30598  30.607  25.241  12.066
58873W        W30599  24.196  22.303   0.871
58874W        W30600  42.337  42.247  13.469
58875W        W30601   3.517  24.052  12.547
58876W        W30602   0.828   0.672  11.434
58877W        W30603  35.682  19.640  12.571
58878W        W30604   0.823  22.032  10.475
58879W        W30605   5.280   6.416  13.957
58880W        W30606  22.949   7.782  14.012
58881W        W30607  11.554   4.878  12.181
58882W        W30608  27.365  30.360  12.903
58883W        W30609  23.701   9.712   0.347
58884W        W30610  14.644  42.332   2.100
58885W        W30611   2.771  44.069  12.937
58886W        W30612  38.566  30.638   1.789
58887W        W30613  10.323  43.399  11.993
58888W        W30614   6.987  30.157   2.917
58889W        W30615  37.908  15.144   2.271
58890W        W30616  27.170  17.940  13.496
58891W        W30617  19.489  30.047  11.398
58892W        W30618  17.087   2.882   2.144
58893W        W30619  41.013   8.771   3.805
58894W        W30620   1.410   2.456  14.625
58895W        W30621  14.886  16.742   1.880
58896W        W30622  35.607  39.522   1.177
58897W        W30623  19.232  26.141  10.686
58898W        W30624  41.363   2.624  11.421
58899W        W30625  39.086  35.533  13.804
58900W        W30626  18.761  22.598  11.787
58901W        W30627  43.625  27.531   0.361
58902W        W30628   9.657   7.300  12.643
58903W        W30629  37.325  12.758  13.018
58904W        W30630  33.110  18.654   1.523
58905W        W30631  10.773  20.281  14.239
58906W        W30632   7.423   6.687  13.583
58907W        W30633  17.864   2.401   1.305
58908W        W30634  30.082  43.448   4.303
58909W        W30635  26.011  37.011   2.458
58910W        W30636   1.660  21.539  13.420
58911W        W30637   7.581   3.366   2.667
58912W        W30638  15.516  41.441   1.846
58913W        W30639  32.333  17.850   4.337
58914W        W30640  41.504  27.948  12.464
58915W        W30641  33.430  30.621   1.768
58916W        W30642  17.124  23.973   3.128
58917W        W30643  41.905   3.329  11.863
58918W        W30644  31.895  38.488   4.857
58919W        W30645  31.848  28.525   4.451
58920W        W30646  42.462  37.058  12.572
58921W        W30647  39.392  18.540  14.524
58922W        W30648  24.224  42.202   2.243
58923W        W30649  13.371   0.942   1.978
58924W        W30650  29.502  29.979   2.947
58925W        W30651  10.575  13.642  11.633
58926W        W30652  33.056  16.132  13.865
58927W        W30653   7.112  35.973  13.885
58928W        W30654   8.643  19.728   2.855
58929W        W30655   3.906  42.344   4.232
58930W        W30656  31.078  20.560  14.516
58931W        W30657  42.924  27.928  14.871
58932W        W30658  21.066  24.548   4.757
58933W        W30659   9.680  15.687  12.541
58934W        W30660   4.789  40.998  14.788
58935W        W30661  36.037   0.496   3.202
58936W        W30662  42.055  26.542  14.064
58937W        W30663  16.626  21.460  10.632
58938W        W30664   9.225  26.036  14.346
58939W        W30665  35.942  15.811  13.811
58940W        W30666  35.958  34.862   1.459
58941W        W30667  42.799  15.058   4.168
58942W        W30668  14.040  34.829   3.678
58943W        W30669  40.313   1.809  13.938
58944W        W30670  36.886  25.079   4.364
58945W        W30671   7.711  31.674   3.716
58946W        W30672  29.877  28.135   3.697
58947W        W30673  44.504  27.163   4.418
58948W        W30674  24.964  26.564   2.279
58949W        W30675  31.830  12.641  10.213
58950W        W30676  21.930  32.857  13.746
58951W        W30677  39.548  10.272   3.192
58952W        W30678  28.112   7.759  13.536
58953W        W30679  42.724  17.223   1.824
58954W        W30680  37.879  28.185  10.647
58955W        W30681  27.558  44.911   1.693
58956W        W30682   9.874   8.875   2.868
58957W        W30683  18.688   6.877   1.304
58958W        W30684  27.964  35.153   2.219
58959W        W30685  17.901  37.876  13.584
58960W        W30686   4.797   0.499  11.517
58961W        W30687  27.008  36.041   0.861
58962W        W30688  15.260  40.580   5.207
58963W        W30689  11.632  14.483  10.373
58964W        W30690   1.426  31.851  12.933
58965W        W30691   8.374  33.641   0.480
58966W        W30692  32.672   5.212  14.586
58967W        W30693  21.068  36.967   2.852
58968W        W30694  27.773   4.918  14.965
58969W        W30695  35.815  29.597   4.670
58970W        W30696  14.254  13.263  10.986
58971W        W30697  29.504  42.655   2.165
58972W        W30698  29.924  37.265   2.299
58973W        W30699   9.562  43.463   2.134
58974W        W30700  29.603   6.555  14.573
58975W        W30701  18.513  16.272   4.430
58976W        W30702  15.158  11.559   3.727
58977W        W30703  39.521  15.588   0.079
58978W        W30704  35.652   2.003  12.933
58979W        W30705  21.067  26.561   1.700
58980W        W30706  16.399  20.517   2.363
58981W        W30707  44.732  25.968   0.821
58982W        W30708  13.762  42.250   2.399
58983W        W30709  14.684  39.601  12.532
58984W        W30710   0.434  20.958  12.553
58985W        W30711  27.976   2.769   1.314
58986W        W30712   7.756  43.854   4.169
58987W        W30713  15.057  43.712   4.275
58988W        W30714  29.453  32.532   0.514
58989W        W30715   5.712  28.993  10.675
58990W        W30716  13.669  31.527  11.620
58991W        W30717  19.790   6.048   3.257
58992W        W30718  34.514  39.335  14.458
58993W        W30719  29.692  43.501   4.625
58994W        W30720  43.782   9.298  12.085
58995W        W30721   1.953  23.190   3.681
58996W        W30722   5.875  24.624   1.384
58997W        W30723  15.691  17.485   2.849
58998W        W30724  31.980   8.345  13.604
58999W        W30725   0.918  43.800   1.219
59000W        W30726  30.034  11.351  13.816
59001W        W30727  33.948  24.519  12.608
59002W        W30728  16.789  36.492   4.939
59003W        W30729  40.695  44.935   1.696
59004W        W30730   6.764   2.087   1.658
59005W        W30731   4.431  35.710   4.617
59006W        W30732  17.116  44.998  10.658
59007W        W30733  28.359  35.982   2.466
59008W        W30734  24.599   4.595   1.510
59009W        W30735  40.548  11.350  13.825
59010W        W30736  26.693  15.323  14.101
59011W        W30737  41.895  29.578   1.530
59012W        W30738   8.234  22.106  14.430
59013W        W30739   7.820  40.322   4.572
59014W        W30740   7.007  44.507   3.314
59015W        W30741  44.519   3.751   4.041
59016W        W30742  41.838  36.015   3.243
59017W        W30743  42.933   2.135   1.261
59018W        W30744  21.562  33.072   2.595
59019W        W30745   5.665  43.936  12.776
59020W        W30746   6.198  17.865   4.292
59021W        W30747  34.334  33.971   4.148
59022W        W30748   1.964  27.290   3.244
59023W        W30749  10.932  18.492  12.048
59024W        W30750  19.140  11.290  12.403
59025W        W30751  38.940   2.680  13.436
59026W        W30752  16.149   3.027  14.078
59027W        W30753  31.128  32.855  14.807
59028W        W30754  29.535  10.239   4.082
59029W        W30755   4.924  21.763   4.038
59030W        W30756   1.316  37.904  13.397
59031W        W30757  20.308  11.116  12.475
59032W        W30758  41.909   9.855   3.875
59033W        W30759  18.302  25.046  14.082
59034W        W30760  41.362   1.453  12.005
59035W        W30761  31.193  44.735  12.502
59036W        W30762   7.173   7.626  10.726
59037W        W30763  26.738   6.050  12.560
59038W        W30764  35.899   5.534   4.090
59039W        W30765  15.529  33.190  12.274
59040W        W30766  35.718  29.144  12.925
59041W        W30767  23.730  41.949  14.433
59042W        W30768  15.219   3.336   4.267
59043W        W30769  10.518  28.275  11.693
59044W        W30770  16.645  38.540  10.278
59045W        W30771  28.520  35.626  11.537
59046W        W30772   0.212   3.673  11.165
59047W        W30773  35.038  10.277  13.528
59048W        W30774  22.101  42.081   1.390
59049W        W30775   2.263   2.417   4.024
59050W        W30776  19.250  19.194   2.734
59051W        W30777  21.765   3.792  13.453
59052W        W30778  21.329   0.152   3.687
59053W        W30779  11.563  37.862   3.992
59054W        W30780  34.538  19.334  10.953
59055W        W30781  29.043  36.966   4.365
59056W        W30782  21.477   8.252   2.414
59057W        W30783   3.308  42.694  10.031
59058W        W30784  20.779  27.506  13.813
59059W        W30785  13.881  15.817  11.927
59060W        W30786  32.430  10.669   2.626
59061W        W30787  10.377   1.423  13.791
59062W        W30788  31.522  29.661  13.376
59063W        W30789   1.859  20.009   2.121
59064W        W30790  34.856  35.989   4.622
59065W        W30791  38.837   8.293  11.715
59066W        W30792  14.685  17.506   1.322
59067W        W30793  28.590  18.302  14.428
59068W        W30794  27.067  13.817   3.468
59069W        W30795  27.450   8.010   3.365
59070W        W30796  20.051  14.874   4.306
59071W        W30797  35.666   8.100  12.673
59072W        W30798  12.255   4.803   4.377
59073W        W30799  22.510  13.586  12.094
59074W        W30800  44.921  10.668  14.728
59075W        W30801   2.664  26.032   0.344
59076W        W30802  42.086  22.067  12.200
59077W        W30803  27.986  22.179   2.798
59078W        W30804  22.217  34.519  13.365
59079W        W30805  12.818  20.287  12.569
59080W        W30806  38.352  10.374  11.873
59081W        W30807  30.160  38.443  10.576
59082W        W30808   9.606  41.633   2.671
59083W        W30809  26.475  20.250  10.591
59084W        W30810  40.133  19.653   4.623
59085W        W30811   3.271  42.981  12.009
59086W        W30812  29.068  23.142  13.399
59087W        W30813  28.486  40.482  14.454
59088W        W30814  29.851  19.345   0.111
59089W        W30815  38.278   8.157   3.972
59090W        W30816  33.887  27.903   1.661
59091W        W30817  29.093  10.690   4.259
59092W        W30818  10.157  25.655  12.094
59093W        W30819   8.413  22.102   0.860
59094W        W30820  15.959  31.504  14.477
59095W        W30821  25.468  23.942   4.419
59096W        W30822  14.585  41.305  14.787
59097W        W30823   0.436  34.132   4.110
59098W        W30824  17.187  21.664  10.817
59099W        W30825   9.237   7.561  12.019
59100W        W30826  17.653  36.238   4.507
59101W        W30827  18.263  32.486  14.756
59102W        W30828   3.888  23.541   3.892
59103W        W30829   0.136  12.559   3.200
59104W        W30830  30.845  30.259  12.112
59105W        W30831  23.222  16.869  10.664
59106W        W30832  21.616  10.101   4.810
59107W        W30833  19.592  25.242  12.057
59108W        W30834  19.545  28.218  12.171
59109W        W30835  21.101  11.733  11.968
59110W        W30836  33.828  35.013   0.864
59111W        W30837  38.755  34.480   5.024
59112W        W30838  13.669   1.966   1.271
59113W        W30839  26.931   2.448   4.232
59114W        W30840  21.854  38.606  10.990
59115W        W30841  13.092   7.382   3.670
59116W        W30842  28.612  26.422   4.792
59117W        W30843  11.626  33.909  11.186
59118W        W30844   2.371  12.159   3.572
59119W        W30845   6.062  40.784   3.631
59120W        W30846  34.454  44.323  10.366
59121W        W30847   4.779  11.931   0.748
59122W        W30848  34.920  10.581   1.233
59123W        W30849  35.052  39.598   2.427
59124W        W30850  19.750  17.334   2.726
59125W        W30851  33.463  38.750   0.240
59126W        W30852  11.373  33.861  14.990
59127W        W30853  14.762   0.856   0.200
59128W        W30854  28.381  38.093  11.063
59129W        W30855   2.233  23.043   2.801
59130W        W30856  33.488  29.328   3.678
59131W        W30857   4.448  34.275  11.204
59132W        W30858  16.291   8.415  13.244
59133W        W30859  23.938  11.416  11.220
59134W        W30860  12.063  37.900   2.297
59135W        W30861   0.139  34.589   4.042
59136W        W30862  19.876  12.366   1.769
59137W        W30863  14.314  29.854  11.594
59138W        W30864  33.028  34.033   4.670
59139W        W30865  23.474  36.597   0.522
59140W        W30866  41.908  34.882  12.089
59141W        W30867  18.466  15.281   3.698
59142W        W30868  38.010  32.064  12.010
59143W        W30869  40.835  35.199  11.997
59144W        W30870   4.273  15.278  14.863
59145W        W30871  21.923  38.268  14.326
59146W        W30872  39.006   7.952   1.664
59147W        W30873  22.490  16.837  14.461
59148W        W30874  22.667  24.215  12.391
59149W        W30875  23.674  41.250  13.191
59150W        W30876  26.480  10.844   0.769
59151W        W30877  33.930  17.014  11.393
59152W        W30878  22.503   3.850  10.634
59153W        W30879   6.040  13.060  11.523
59154W        W30880  30.018   7.877  14.105
59155W        W30881  20.739   7.742   0.794
59156W        W30882  31.304  34.567   3.796
59157W        W30883  18.735  18.756  13.406
59158W        W30884  13.138   6.640   3.313
59159W        W30885  26.077  40.940   2.252
59160W        W30886  42.341   9.843   4.660
59161W        W30887  14.885  26.484  10.549
59162W        W30888  20.018  43.802  11.097
59163W        W30889   2.737  23.842  11.534
59164W        W30890  36.353   9.783   2.804
59165W        W30891  20.014  33.573   3.194
59166W        W30892  20.066  19.059  13.091
59167W        W30893  33.072  11.824  11.465
59168W        W30894   1.500   3.721  14.706
59169W        W30895  16.875  25.424   1.671
59170W        W30896  24.451  37.224   0.933
59171W        W30897   1.809   4.781  10.628
59172W        W30898  42.262  27.506  13.500
59173W        W30899  32.852   2.426   3.650
59174W        W30900  37.866  32.411  14.902
59175W        W30901  27.068   8.950   1.421
59176W        W30902  35.941  31.739   4.722
59177W        W30903   1.698  29.902  14.259
59178W        W30904  31.961  42.750   0.845
59179W        W30905  22.241  20.976   3.591
59180W        W30906  21.134  32.655  10.845
59181W        W30907  26.951  16.575  14.060
59182W        W30908  15.528  41.357  13.737
59183W        W30909  37.283  43.320  12.177
59184W        W30910  33.008  18.507   4.296
59185W        W30911  35.174  34.053   2.828
59186W        W30912  37.812  36.866  13.154
59187W        W30913  15.206  28.512  12.150
59188W        W30914  36.422  22.364   5.044
59189W        W30915  36.584  37.284   2.322
59190W        W30916  37.425  12.995  13.895
59191W        W30917  41.864  13.686   1.756
59192W        W30918   6.404  12.128   3.172
59193W        W30919  10.804  35.696   3.132
59194W        W30920  19.554   2.881   3.274
59195W        W30921  42.090  20.643  12.250
59196W        W30922   3.811  14.512  12.440
59197W        W30923  32.998   0.464   3.439
59198W        W30924   2.727  10.849  10.731
59199W        W30925  28.166  34.815   1.278
59200W        W30926   1.454  12.550   2.223
59201W        W30927  16.543  18.157  13.589
59202W        W30928  35.142  19.627  12.583
59203W        W30929  16.709   3.661  10.040
59204W        W30930  25.032   1.974  11.500
59205W        W30931  32.565  19.603  11.613
59206W        W30932  11.243   3.716   1.827
59207W        W30933  34.519  17.249   3.163
59208W        W30934  29.832  34.355   3.676
59209W        W30935  44.239   8.921  14.463
59210W        W30936  26.413  28.090   3.297
59211W        W30937  29.643   4.466   4.438
59212W        W30938   2.041  27.970  11.927
59213W        W30939  13.829   3.334   4.641
59214W        W30940  40.323  15.063  13.744
59215W        W30941  12.844   3.300   3.740
59216W        W30942  24.520   5.397   2.747
59217W        W30943  21.101   7.632   0.435
59218W        W30944   4.905  39.922  12.144
59219W        W30945  19.670  19.497   0.675
59220W        W30946   4.792  42.583   3.251
59221W        W30947  44.942  44.034   3.278
59222W        W30948  39.106  19.309  11.589
59223W        W30949  13.656  29.084   0.370
59224W        W30950  30.837  25.598  11.506
59225W        W30951  14.833  18.189  11.059
59226W        W30952  29.506  16.614  12.524
59227W        W30953  17.839  21.397   2.868
59228W        W30954   7.347  28.939   0.019
59229W        W30955   1.425  12.993   0.334
59230W        W30956  41.321   0.455  13.548
59231W        W30957   8.342   2.764  12.604
59232W        W30958   1.945   6.673  14.413
59233W        W30959  38.341  23.769   3.217
59234W        W30960  20.901  28.938  14.016
59235W        W30961  42.915   0.732   2.907
59236W        W30962   5.801   8.978   3.075
59237W        W30963  23.008   1.957  13.000
59238W        W30964  41.952  16.050  10.898
59239W        W30965  18.189  34.560   4.489
59240W        W30966  15.741  40.767   2.232
59241W        W30967  17.143  12.323  13.335
59242W        W30968  42.997  44.001  13.096
59243W        W30969   7.190  27.957  12.930
59244W        W30970   3.496  41.001   2.644
59245W        W30971  22.013  37.607   0.918
59246W        W30972   3.801  30.366   3.229
59247W        W30973  25.809  29.091   1.769
59248W        W30974  33.597  29.885   1.861
59249W        W30975  37.198  38.026   4.519
59250W        W30976  42.382  12.066  11.587
59251W        W30977  13.635   7.835  11.263
59252W        W30978  31.243  12.508   1.220
59253W        W30979  19.285  34.270  11.007
59254W        W30980  22.142  22.100  10.489
59255W        W30981  13.194   9.202  11.706
59256W        W30982  11.921  44.855  11.742
59257W        W30983  11.267  19.265  14.338
59258W        W30984  18.842  26.602   2.881
59259W        W30985  16.811  34.002   3.325
59260W        W30986  25.501  10.768   0.354
59261W        W30987  20.542  25.195   2.789
59262W        W30988  31.042  21.761   0.475
59263W        W30989  39.694  44.744  11.666
59264W        W30990  39.009  42.498   4.157
59265W        W30991  30.957  11.458   3.835
59266W        W30992  36.992  37.287  11.693
59267W        W30993  26.532  21.830  14.615
59268W        W30994  37.930  16.511  14.451
59269W        W30995   6.396   1.404   1.252
59270W        W30996  29.441  43.561  13.910
59271W        W30997   4.369  42.667   3.844
59272W        W30998  29.414  27.967   0.054
59273W        W30999  25.432  33.607  13.891
59274W        W31000   5.237  11.164  14.624
59275W        W31001  22.269  22.150   4.332
59276W        W31002   7.314  27.272   4.582
59277W        W31003  22.163  25.462  12.676
59278W        W31004  21.156  25.019  13.471
59279W        W31005  20.435  35.564   0.022
59280W        W31006   8.422  26.627  12.366
59281W        W31007  25.552  16.081   4.659
59282W        W31008  11.137  16.359  12.587
59283W        W31009  23.308  23.172  12.447
59284W        W31010   8.363  40.800   2.135
59285W        W31011   2.461  42.225  12.437
59286W        W31012  31.469  23.749  12.669
59287W        W31013  22.703  13.703  10.277
59288W        W31014   0.792  11.114  13.509
59289W        W31015  23.129  18.634   1.871
59290W        W31016  43.199  24.437  13.034
59291W        W31017  25.626   8.272  14.432
59292W        W31018  36.572   8.222  12.776
59293W        W31019  12.316  25.212   2.509
59294W        W31020  18.141  21.915   1.509
59295W        W31021  28.889  24.240   3.177
59296W        W31022  26.228  12.206  13.791
59297W        W31023   4.209  44.779  11.525
59298W        W31024   0.710  24.769  11.065
59299W        W31025   4.153  21.788  13.127
59300W        W31026  35.908   1.843   1.518
59301W        W31027   1.292   1.518  11.343
59302W        W31028  18.236  37.165   0.322
59303W        W31029  11.404  26.076  12.069
59304W        W31030   4.594  31.267   2.771
59305W        W31031  26.089  27.633  13.467
59306W        W31032  10.395   8.754  10.261
59307W        W31033  12.878  28.996  14.869
59308W        W31034  24.595  35.865   2.175
59309W        W31035  26.971  15.088  13.032
59310W        W31036  16.313  29.000   4.227
59311W        W31037   9.828  19.911  13.369
59312W        W31038  16.730  44.500   1.352
59313W        W31039   3.852  44.444  14.399
59314W        W31040  39.748  18.087  11.430
59315W        W31041  32.362  30.892   0.800
59316W        W31042  18.741  20.433   0.459
59317W        W31043  24.312  19.608  12.062
59318W        W31044  21.791  12.838  13.375
59319W        W31045  41.154  16.190   3.319
59320W        W31046  29.939   2.006  12.598
59321W        W31047   9.964  35.624   4.042
59322W        W31048  22.797  19.780  14.998
59323W        W31049  32.606  37.362  14.048
59324W        W31050  32.593  29.919   3.607
59325W        W31051  11.643  42.861  13.011
59326W        W31052  18.547  16.230  11.560
59327W        W31053  38.571  39.503  13.409
59328W        W31054  44.448  23.708  13.045
59329W        W31055  12.388  30.314  13.339
59330W        W31056  15.041  23.595   1.330
59331W        W31057   4.756  34.639   3.851
59332W        W31058  14.695  38.401   9.821
59333W        W31059  19.111   9.015  10.458
59334W        W31060   0.317  37.269   0.206
59335W        W31061  13.313  22.942  11.711
59336W        W31062  42.838  23.232   1.425
59337W        W31063  17.685  28.539   2.129
59338W        W31064  22.792  43.633   0.717
59339W        W31065  12.432  37.905  10.903
59340W        W31066  21.580  40.205  13.042
59341W        W31067  15.432  21.519   4.730
59342W        W31068   4.670  44.070   0.857
59343W        W31069  19.609  19.650   5.084
59344W        W31070   8.617  42.518   1.314
59345W        W31071  37.308  44.795  14.852
59346W        W31072  11.171   0.920  12.447
59347W        W31073   9.428  21.655  10.507
59348W        W31074  38.420   5.589  12.182
59349W        W31075   2.500  42.475   4.146
59350W        W31076  29.170  44.337  12.080
59351W        W31077  15.667  36.702  12.881
59352W        W31078   2.931  43.004  10.652
59353W        W31079  31.246  15.002  13.492
59354W        W31080  22.069  30.175   0.375
59355W        W31081  23.739  42.263  11.500
59356W        W31082  20.496  26.873   5.187
59357W        W31083   7.464  19.385   4.782
59358W        W31084   0.372  15.958   3.551
59359W        W31085  15.541   9.854  13.883
59360W        W31086  35.771  25.998   3.386
59361W        W31087  39.739  25.947   0.023
59362W        W31088   9.164  14.762  12.277
59363W        W31089  33.557   9.913   4.745
59364W        W31090  43.836  36.401  13.472
59365W        W31091  35.294   4.870  10.755
59366W        W31092  13.754  31.080  12.510
59367W        W31093   0.256   6.432  11.585
59368W        W31094  24.110  15.246   0.671
59369W        W31095  15.677  26.029   1.689
59370W        W31096   0.074  19.563   4.437
59371W        W31097  18.697  25.538   0.000
59372W        W31098   0.686   6.697   0.282
59373W        W31099   2.449  13.631   0.528
59374W        W31100  43.331  35.201   1.276
59375W        W31101  20.603  30.165  11.984
59376W        W31102   3.756   0.967   1.805
59377W        W31103  43.322  18.176  14.522
59378W        W31104  11.581  37.554  13.827
59379W        W31105  34.058  40.291  11.660
59380W        W31106  13.597  14.209   1.059
59381W        W31107   7.623  31.665   4.531
59382W        W31108  21.172   4.335  10.414
59383W        W31109  44.198  12.079   0.859
59384W        W31110  30.183   6.730  12.148
59385W        W31111   5.094   6.785   2.422
59386W        W31112  38.503  40.155   3.133
59387W        W31113   2.238  24.772   4.091
59388W        W31114  27.974  19.505  12.306
59389W        W31115  34.681  39.142   4.396
59390W        W31116  26.135  35.450   3.536
59391W        W31117  39.307   2.341   0.235
59392W        W31118  16.625  20.838   1.842
59393W        W31119   6.763  27.022  14.008
59394W        W31120  41.052   9.908   1.176
59395W        W31121  34.729  43.057  10.543
59396W        W31122  39.419  22.273   3.673
59397W        W31123  24.977  40.715  11.576
59398W        W31124  40.418  26.944   1.394
59399W        W31125  13.786   0.197   2.089
59400W        W31126   4.783  23.491   1.272
59401W        W31127  34.967  19.809  13.555
59402W        W31128  30.938   3.378   4.873
59403W        W31129   5.161  28.854   0.741
59404W        W31130  32.871   2.327   0.750
59405W        W31131  34.989  10.221   2.003
59406W        W31132  43.314  20.177  14.715
59407W        W31133  15.776   8.365   3.311
59408W        W31134  26.955  34.514   1.503
59409W        W31135  23.304  40.872   2.181
59410W        W31136   0.533   5.825   2.324
59411W        W31137  26.619  15.553   2.173
59412W        W31138  10.718  38.298  14.292
59413W        W31139  25.976  33.941  11.065
59414W        W31140  39.606  20.186   3.909
59415W        W31141  39.865  33.108   1.336
59416W        W31142  43.875  11.728  11.483
59417W        W31143   7.610  40.629  13.492
59418W        W31144  25.471  27.736   2.312
59419W        W31145  15.013  19.217   4.737
59420W        W31146  15.542  23.578  12.313
59421W        W31147  35.174  35.159   0.698
59422W        W31148  41.893   8.888   0.568
59423W        W31149  12.275   5.324   0.249
59424W        W31150  28.624  25.824   3.749
59425W        W31151   9.757   4.156   4.868
59426W        W31152   1.918  18.245   4.513
59427W        W31153   9.071   6.202   3.983
59428W        W31154  14.079   5.679   4.598
59429W        W31155  10.805  19.668   4.047
59430W        W31156  10.332   2.060   4.060
59431W        W31157  42.864  43.690  11.285
59432W        W31158  26.205  17.847   0.345
59433W        W31159  23.772  32.059  13.504
59434W        W31160  13.853  25.546   2.842
59435W        W31161  26.575  18.479  13.070
59436W        W31162  33.019  25.760  10.738
59437W        W31163  29.161  33.421   2.595
59438W        W31164  13.067  41.832  12.970
59439W        W31165  43.096  33.406  14.656
59440W        W31166  30.970  26.222   5.060
59441W        W31167  26.915   5.901   1.892
59442W        W31168  10.777  35.961  13.891
59443W        W31169  36.578  34.027  10.709
59444W        W31170  41.029   8.142  14.587
59445W        W31171  36.204   6.683  12.945
59446W        W31172  27.946  43.279  11.428
59447W        W31173  24.812   8.746  13.525
59448W        W31174  13.817  23.122   0.497
59449W        W31175  37.562  38.347  12.585
59450W        W31176   9.778  41.341   3.089
59451W        W31177   7.965  36.986   3.191
59452W        W31178  37.003  39.552  11.689
59453W        W31179  33.721   0.030   2.842
59454W        W31180   4.017  38.296   1.756
59455W        W31181  19.672   1.395  13.999
59456W        W31182   1.767   6.434  13.945
59457W        W31183  38.524  43.437  12.088
59458W        W31184  36.116  43.956  12.924
59459W        W31185  43.313   6.303  11.511
59460W        W31186  14.246  34.720   0.358
59461W        W31187  42.919  21.702   1.722
59462W        W31188   3.528   8.622  13.520
59463W        W31189  31.472  24.625   4.544
59464W        W31190  16.822  18.954   0.894
59465W        W31191  14.662  12.405   1.817
59466W        W31192  13.832  32.465  14.827
59467W        W31193  38.791  42.629  11.137
59468W        W31194  43.196  13.705  12.408
59469W        W31195  17.307  12.800   3.975
59470W        W31196   2.365   4.463  13.395
59471W        W31197  32.363  14.635   1.473
59472W        W31198  25.077   0.623   0.120
59473W        W31199  24.311  44.728  12.920
59474W        W31200   7.543   6.279   0.414
59475W        W31201   4.653   5.396   2.395
59476W        W31202  43.958  18.702  11.163
59477W        W31203   4.357  36.211   4.493
59478W        W31204  42.916   1.060   3.910
59479W        W31205   4.910   9.030  11.201
59480W        W31206  42.533  40.641   1.939
59481W        W31207  18.514  22.219   2.339
59482W        W31208  16.507  11.160  13.348
59483W        W31209   6.689  42.873   2.698
59484W        W31210   6.900  34.734  11.434
59485W        W31211  10.461  42.433   0.507
59486W        W31212  13.939   2.916  11.591
59487W        W31213  16.927  26.713  12.009
59488W        W31214  23.114  14.633  14.146
59489W        W31215  15.169  34.527   2.174
59490W        W31216  25.958  22.549   2.173
59491W        W31217  29.135   1.930  13.945
59492W        W31218   2.299  42.985  13.173
59493W        W31219  36.737  20.224   2.521
59494W        W31220  34.019  11.166  12.591
59495W        W31221  26.743  35.830  11.931
59496W        W31222  43.076  28.937   0.262
59497W        W31223   7.362  26.523   2.280
59498W        W31224  14.140   6.589   3.362
59499W        W31225  34.999  27.744  14.446
59500W        W31226  23.467  23.591   3.848
59501W        W31227  25.018   4.705  11.964
59502W        W31228  22.102  35.469   0.260
59503W        W31229  44.421  32.072   4.718
59504W        W31230   1.983  37.747  11.582
59505W        W31231  37.945  19.748   3.122
59506W        W31232  23.649  30.679  11.046
59507W        W31233  12.463  38.467  14.791
59508W        W31234  34.089   0.708  12.897
59509W        W31235  39.342   5.343   4.369
59510W        W31236   7.166   7.251   1.221
59511W        W31237  25.856  10.078  13.445
59512W        W31238  11.414  28.408   4.129
59513W        W31239  29.583   8.695   0.420
59514W        W31240  18.080  30.648   3.913
59515W        W31241  22.267   8.640   1.943
59516W        W31242  16.640  12.842   1.422
59517W        W31243   4.358   9.701  14.370
59518W        W31244  37.219  15.209  12.843
59519W        W31245   3.947  41.844   4.085
59520W        W31246  22.462  37.621  12.794
59521W        W31247  22.190  34.182   2.337
59522W        W31248  27.118  28.137   3.349
59523W        W31249   4.461  34.218   2.240
59524W        W31250  16.264  15.526  13.857
59525W        W31251  24.172  44.852  11.086
59526W        W31252  24.004  14.594   3.366
59527W        W31253   6.239  25.478  12.922
59528W        W31254  11.220  44.201  12.836
59529W        W31255  17.523  15.192   0.001
59530W        W31256   5.568  38.900   3.791
59531W        W31257  11.866  43.295  11.126
59532W        W31258   8.262  38.997  13.876
59533W        W31259   6.409  29.205   3.614
59534W        W31260  42.383  11.152  12.047
59535W        W31261  37.125  19.179   0.266
59536W        W31262   3.441  35.664  14.000
59537W        W31263  16.568  12.055  14.487
59538W        W31264  33.082  36.487  12.114
59539W        W31265   1.289  35.413   3.160
59540W        W31266  23.379  41.254   1.265
59541W        W31267   6.975   7.209   2.110
59542W        W31268  32.923   8.115  12.477
59543W        W31269  38.553  24.726   2.949
59544W        W31270  27.466   0.195  13.498
59545W        W31271  22.464  26.987   0.259
59546W        W31272   7.657  17.151   3.678
59547W        W31273  10.747   4.953   0.256
59548W        W31274  25.236  37.889  13.048
59549W        W31275  27.543  35.058  11.205
59550W        W31276  17.229  34.412   4.631
59551W        W31277  38.099  40.468  14.981
59552W        W31278   8.212  13.876  13.146
59553W        W31279  38.835  37.580  10.287
59554W        W31280  39.891  31.935   3.046
59555W        W31281  14.877  37.833   0.115
59556W        W31282  21.509  21.679  10.524
59557W        W31283  28.950  26.523  13.149
59558W        W31284   4.147  35.331   1.365
59559W        W31285   9.000  28.092  10.340
59560W        W31286  15.742  37.429  12.472
59561W        W31287  22.624  15.369   1.674
59562W        W31288   8.850  31.702  13.406
59563W        W31289  33.821  35.612   0.022
59564W        W31290  43.054  20.147  13.332
59565W        W31291  44.297   6.563  13.573
59566W        W31292  41.423  32.575  10.518
59567W        W31293  10.184  34.691  11.437
59568W        W31294  26.310  30.531  11.524
59569W        W31295  17.348  28.903   3.329
59570W        W31296  20.625   4.833  10.896
59571W        W31297  22.664  12.154   3.219
59572W        W31298   4.087  31.991   1.806
59573W        W31299  11.478  16.177  12.272
59574W        W31300  10.253  34.064   2.881
59575W        W31301  10.932  33.556   0.114
59576W        W31302  39.428  20.862   2.722
59577W        W31303  14.278  18.298   5.067
59578W        W31304  41.257   2.963  10.674
59579W        W31305   0.243  22.932   4.076
59580W        W31306  37.504  10.257   5.172
59581W        W31307  32.641  28.691  14.533
59582W        W31308  14.379  14.350   3.603
59583W        W31309  19.097   5.002  12.031
59584W        W31310  42.735  36.116  11.669
59585W        W31311   0.659   6.148  10.500
59586W        W31312   6.527  17.604  11.468
59587W        W31313  31.498  25.213   3.863
59588W        W31314  28.896  27.733  13.824
59589W        W31315  27.138  26.618  12.787
59590W        W31316  23.104  14.419   4.595
59591W        W31317  37.286  26.298  13.859
59592W        W31318   7.386  42.783  12.890
59593W        W31319  42.458   9.880   2.124
59594W        W31320  26.477  22.491   2.696
59595W        W31321   4.823   7.251  10.561
59596W        W31322  13.236  11.697  14.008
59597W        W31323  15.608  19.799  11.214
59598W        W31324  26.860  12.534   4.651
59599W        W31325  28.025  16.268  12.135
59600W        W31326  19.060  12.382   4.809
59601W        W31327  13.808  39.388  13.502
59602W        W31328  40.317  18.014   2.265
59603W        W31329  15.094  10.249  14.652
59604W        W31330  44.004  24.917  12.951
59605W        W31331   7.226  28.230  11.142
59606W        W31332  14.681  44.504  10.241
59607W        W31333   6.755  27.138   3.964
59608W        W31334   8.276  42.799  10.390
59609W        W31335   0.798  15.683  14.062
59610W        W31336   7.079  13.252   2.245
59611W        W31337   4.737  18.645  12.282
59612W        W31338  22.262  16.566  13.515
59613W        W31339  20.773   7.264   4.724
59614W        W31340   1.872  23.730  12.894
59615W        W31341   4.014  17.753   3.407
59616W        W31342  27.230  42.793  11.530
59617W        W31343   7.353  36.722  11.728
59618W        W31344   9.071  37.534  14.904
59619W        W31345  12.305  40.064  14.034
59620W        W31346  20.665  27.017  12.120
59621W        W31347   7.830   6.134   5.390
59622W        W31348  10.858  21.039  11.339
59623W        W31349   4.176  30.103  10.699
59624W        W31350  26.624  13.598  13.006
59625W        W31351  35.843  12.477  13.344
59626W        W31352  13.368  32.529   1.911
59627W        W31353   7.652  17.576   3.310
59628W        W31354  41.927  40.751  12.012
59629W        W31355  29.995   9.172   2.790
59630W        W31356   5.805  37.587   2.866
59631W        W31357  16.625  43.107  11.581
59632W        W31358   5.098   1.845  14.742
59633W        W31359  13.390  19.046  14.882
59634W        W31360   6.926  33.363   4.286
59635W        W31361  35.666  36.083   1.940
59636W        W31362  11.065   3.858   4.133
59637W        W31363   4.700  13.793   4.604
59638W        W31364  37.658  14.251  12.836
59639W        W31365  15.695  41.562  12.507
59640W        W31366  26.615  15.785   0.837
59641W        W31367  20.283  14.469   3.441
59642W        W31368   2.837   6.185  14.913
59643W        W31369  17.095  10.957   3.794
59644W        W31370   3.514  42.234  11.574
59645W        W31371   1.857  27.702  13.796
59646W        W31372  42.377   4.805   1.489
59647W        W31373  26.637  42.158  12.544
59648W        W31374  17.826  27.075  12.934
59649W        W31375  13.891  20.264   4.254
59650W        W31376  19.556   5.192  13.973
59651W        W31377  38.601  11.103   0.270
59652W        W31378   0.450  35.275  11.014
59653W        W31379  20.044  42.125  14.913
59654W        W31380  34.012  32.873  13.433
59655W        W31381  39.021  23.083  10.679
59656W        W31382  21.736  14.589  11.121
59657W        W31383  38.769   1.494   0.072
59658W        W31384  35.067   8.129   1.865
59659W        W31385   0.926  25.014   4.843
59660W        W31386  37.992  26.089  10.636
59661W        W31387  32.533  25.193  14.489
59662W        W31388   5.920   0.855  13.951
59663W        W31389   7.417  30.405  10.783
59664W        W31390  27.105  36.293   1.301
59665W        W31391  19.014  20.033  10.678
59666W        W31392  36.026  27.592  14.072
59667W        W31393  43.336  44.920  11.520
59668W        W31394  17.173  44.687  12.592
59669W        W31395  24.645  18.814   3.760
59670W        W31396  10.825  23.035   5.658
59671W        W31397  41.018  16.067  13.949
59672W        W31398   4.344  41.205   4.845
59673W        W31399  36.344   0.667  13.721
59674W        W31400  23.599   7.237  14.512
59675W        W31401  16.495  10.061   1.829
59676W        W31402  31.517  18.556  14.031
59677W        W31403  23.651  12.588  10.729
59678W        W31404  32.676  38.814  13.491
59679W        W31405   3.344  38.080   1.314
59680W        W31406  34.457  23.744  13.603
59681W        W31407  24.102  43.559  11.616
59682W        W31408  37.095  37.438   3.303
59683W        W31409  29.107  34.298   2.451
59684W        W31410  25.630  21.053  12.684
59685W        W31411  15.332   2.732  11.598
59686W        W31412  35.518   4.571   0.354
59687W        W31413  42.926   1.811  12.521
59688W        W31414  34.780   4.283  11.140
59689W        W31415  13.724  19.779  13.898
59690W        W31416  15.067  42.936  10.683
59691W        W31417   1.395  21.700   0.293
59692W        W31418  17.717   9.113  14.003
59693W        W31419   0.824  10.311   1.502
59694W        W31420  14.387  34.035   4.723
59695W        W31421  24.874  36.017   1.715
59696W        W31422  25.562  25.640   0.945
59697W        W31423  43.418  39.199  11.168
59698W        W31424  42.680  34.403  13.317
59699W        W31425  15.275  30.618   1.322
59700W        W31426  16.321  14.850   3.104
59701W        W31427   5.675  11.682  13.338
59702W        W31428   3.914   4.213   1.071
59703W        W31429  34.826  41.342  12.409
59704W        W31430  12.349  11.679  13.522
59705W        W31431  23.499   4.913  14.058
59706W        W31432  30.835  35.526   0.237
59707W        W31433  12.151  13.494  12.439
59708W        W31434   4.213  25.708   1.296
59709W        W31435   8.360  37.616   0.420
59710W        W31436  25.486  33.014   0.766
59711W        W31437  25.187  42.801  10.598
59712W        W31438  34.805  19.404   4.216
59713W        W31439   6.027   2.514  14.356
59714W        W31440  29.071  16.818  10.605
59715W        W31441   7.622  13.144   1.199
59716W        W31442  39.818  10.259   1.761
59717W        W31443  23.729  18.130  13.751
59718W        W31444   3.408  39.114   0.523
59719W        W31445  37.999  44.214  14.302
59720W        W31446  44.221   3.185   5.054
59721W        W31447   5.416  29.159  13.519
59722W        W31448  15.495  23.629  11.621
59723W        W31449   1.434  10.707  13.854
59724W        W31450  29.070  21.029  10.426
59725W        W31451  33.522  32.530  11.201
59726W        W31452  36.415  15.369  10.879
59727W        W31453  31.587  31.020  12.640
59728W        W31454  25.620  33.677   1.263
59729W        W31455  27.958  12.716   0.730
59730W        W31456   3.617  44.473  13.307
59731W        W31457  18.174  39.569  12.419
59732W        W31458  35.870  17.854   3.853
59733W        W31459  11.591  25.114   3.252
59734W        W31460  13.316  26.335   2.237
59735W        W31461  19.849  13.657   4.179
59736W        W31462  29.430  16.774  10.974
59737W        W31463   1.142  18.836   4.386
59738W        W31464  22.774  42.905  10.279
59739W        W31465  14.055  43.670  12.958
59740W        W31466  19.654   5.224   0.031
59741W        W31467   6.816  33.011  10.822
59742W        W31468  21.966  38.882   3.195
59743W        W31469  12.227  23.242  13.069
59744W        W31470  11.260   2.267  12.454
59745W        W31471  33.484   3.250   0.505
59746W        W31472  30.610  35.299   0.851
59747W        W31473  20.211  25.096   3.603
59748W        W31474  39.016  14.072  11.453
59749W        W31475  11.574  15.572   4.234
59750W        W31476   2.732   5.300  14.402
59751W        W31477  20.152  44.878  11.855
59752W        W31478  37.925  14.604  15.000
59753W        W31479  26.441  14.405  14.769
59754W        W31480  44.725  26.116   4.736
59755W        W31481  28.151   4.254  12.547
59756W        W31482  38.744   2.078   0.907
59757W        W31483   0.906  25.704  13.945
59758W        W31484  30.359  29.204  13.512
59759W        W31485  38.078  31.920   4.663
59760W        W31486  25.574  18.759  12.589
59761W        W31487   1.307  20.608   1.860
59762W        W31488   4.271  39.319   4.801
59763W        W31489  39.479  29.157  11.120
59764W        W31490  40.755  21.176  14.031
59765W        W31491  16.323  12.325   2.327
59766W        W31492  20.973   9.088  14.976
59767W        W31493  20.140   3.820  13.994
59768W        W31494  44.139  28.191   3.235
59769W        W31495  43.514  25.508  10.862
59770W        W31496  37.156  15.911   2.827
59771W        W31497  18.439  37.720  11.181
59772W        W31498   7.716  32.560   0.288
59773W        W31499  35.761  27.229   4.654
59774W        W31500  34.470  29.088   4.737
59775W        W31501  42.521   2.348  13.849
59776W        W31502   0.511  16.515   1.829
59777W        W31503  18.778   7.686  11.837
59778W        W31504  15.928  27.146   4.155
59779W        W31505  35.953  10.141   0.737
59780W        W31506   0.490  15.789  12.476
59781W        W31507   5.011  20.909   3.323
59782W        W31508  33.976  38.030  12.872
59783W        W31509   1.013  15.959  12.506
59784W        W31510  22.079  42.380  12.558
59785W        W31511  16.363  38.216   5.061
59786W        W31512  37.943  18.768   0.741
59787W        W31513  11.734   9.253  14.809
59788W        W31514  27.481   9.227  11.903
59789W        W31515  23.619  36.411   1.964
59790W        W31516   4.891  32.029   5.060
59791W        W31517  12.839   7.013   4.247
59792W        W31518  22.991   9.888  12.315
59793W        W31519  43.588  22.562  11.156
59794W        W31520  30.718  40.928  14.032
59795W        W31521  43.443   5.833   3.750
59796W        W31522   8.146  23.594   1.110
59797W        W31523   1.769  28.574   2.014
59798W        W31524  26.889  24.166  14.746
59799W        W31525  11.719  20.184  11.680
59800W        W31526   0.394  11.738  14.368
59801W        W31527   0.926   2.877   0.423
59802W        W31528  10.096  23.122   2.841
59803W        W31529   0.840  32.014  10.031
59804W        W31530  36.829  13.954   2.386
59805W        W31531  15.202  15.881  14.420
59806W        W31532  35.866  30.007   4.286
59807W        W31533   7.463  36.929   3.279
59808W        W31534  32.025  27.205  12.469
59809W        W31535  16.092  19.752  11.047
59810W        W31536  32.390  28.512  10.746
59811W        W31537   1.395   4.775  11.892
59812W        W31538  16.857  39.409  14.890
59813W        W31539  39.499  22.281   1.854
59814W        W31540   0.562  37.366   2.760
59815W        W31541  27.449  25.020   4.190
59816W        W31542  24.623  38.970  14.448
59817W        W31543  43.790  33.512   2.743
59818W        W31544  36.659   1.571   1.908
59819W        W31545  11.245  28.523   0.437
59820W        W31546  25.751  15.802  11.899
59821W        W31547  15.784  42.633   5.018
59822W        W31548  38.084  24.490  14.524
59823W        W31549  31.392  38.285   0.280
59824W        W31550   1.452  15.644  11.671
59825W        W31551   9.845   5.010  13.415
59826W        W31552  10.185  12.220  12.129
59827W        W31553   4.694   8.737  15.000
59828W        W31554  41.034  14.175  12.508
59829W        W31555  14.548  21.821   1.681
59830W        W31556  24.983   4.502  11.506
59831W        W31557   5.367  43.843   0.875
59832W        W31558  28.957   0.471  10.729
59833W        W31559   7.625  10.321   3.609
59834W        W31560  12.236  23.109   1.194
59835W        W31561  40.760  12.546   3.834
59836W        W31562  42.104  42.499  14.993
59837W        W31563  19.535  24.138   1.381
59838W        W31564  42.344  16.382   3.067
59839W        W31565  23.013  32.365   1.421
59840W        W31566  32.040   9.368  13.628
59841W        W31567   2.294  23.598   3.313
59842W        W31568  16.364  32.558   3.265
59843W        W31569   4.895  21.504  10.478
59844W        W31570  23.546  31.504  10.659
59845W        W31571  29.215  10.882  11.689
59846W        W31572  26.098   5.546  14.637
59847W        W31573  11.127  16.797   2.549
59848W        W31574  43.110  24.847  14.897
59849W        W31575  26.236  24.540  11.011
59850W        W31576  26.463   7.894   0.416
59851W        W31577  36.002  43.864  11.638
59852W        W31578  35.372  40.189  12.075
59853W        W31579   7.730  39.343   0.540
59854W        W31580   2.543  39.058   4.188
59855W        W31581  23.472  26.476  12.438
59856W        W31582  21.091   6.185   0.392
59857W        W31583  16.189  24.493  13.420
59858W        W31584  21.355  14.860  10.421
59859W        W31585  28.535  23.983   1.187
59860W        W31586  41.812  35.737  10.372
59861W        W31587   7.620  15.032  13.882
59862W        W31588  10.030  25.869   9.859
59863W        W31589  18.742   9.553   1.888
59864W        W31590  29.018  44.216   2.886
59865W        W31591  18.243  44.037  14.529
59866W        W31592  29.412  35.083  11.610
59867W        W31593   5.332  35.970   1.677
59868W        W31594  25.152  35.122  12.590
59869W        W31595  43.772  32.988  14.062
59870W        W31596  17.150  10.403   3.966
59871W        W31597  17.813  21.703   2.060
59872W        W31598  38.165   7.489  12.650
59873W        W31599  13.762   8.170   1.778
59874W        W31600  41.993  36.371   1.885
59875W        W31601  11.178  37.856   4.756
59876W        W31602   5.099  22.097  14.517
59877W        W31603  17.201  37.988   5.449
59878W        W31604   5.444  27.476  12.617
59879W        W31605  22.241  16.666  11.417
59880W        W31606  30.960  32.114  13.799
59881W        W31607  41.073  37.388   2.824
59882W        W31608  22.984  29.986  12.480
59883W        W31609   7.247  20.815  14.872
59884W        W31610   5.807   7.105   0.659
59885W        W31611   3.997  26.530   1.291
59886W        W31612  41.222  43.963   0.429
59887W        W31613  38.307  43.469  11.602
59888W        W31614  14.558  24.426   4.078
59889W        W31615   4.396  22.969   4.606
59890W        W31616   1.245   1.889   3.365
59891W        W31617   9.289   0.955   2.732
59892W        W31618  13.636   3.801   2.232
59893W        W31619  23.727  33.664   4.637
59894W        W31620   3.761  16.485  14.113
59895W        W31621  39.983  12.080   3.152
59896W        W31622   9.497  11.391  12.632
59897W        W31623  43.000  26.362  11.623
59898W        W31624  11.192  38.998  12.655
59899W        W31625   6.460   0.367   4.140
59900W        W31626   1.057  11.255   3.378
59901W        W31627  13.552  13.113  13.936
59902W        W31628   4.630  13.850  14.696
59903W        W31629   4.202  20.320  14.850
59904W        W31630  32.336   9.937  14.707
59905W        W31631  14.592  37.981  14.431
59906W        W31632  37.397   3.267  14.037
59907W        W31633  16.741  40.537   3.748
59908W        W31634  27.015   0.627  14.033
59909W        W31635  31.110  11.380  11.171
59910W        W31636  40.909  11.363   4.027
59911W        W31637   6.674  13.476  13.374
59912W        W31638  27.738   5.923  14.855
59913W        W31639  23.523  19.011   1.516
59914W        W31640  31.561  20.699   2.807
59915W        W31641   8.633  35.270   1.337
59916W        W31642  16.226   8.870   1.734
59917W        W31643  20.662  29.354   2.672
59918W        W31644  42.485   6.273  13.455
59919W        W31645  41.560  42.271  13.657
59920W        W31646  12.407  17.642  12.902
59921W        W31647  22.125  17.066   0.257
59922W        W31648  37.515  24.645   3.734
59923W        W31649  44.258  35.931  10.668
59924W        W31650   4.210  19.990  14.023
59925W        W31651  43.346  40.050   4.518
59926W        W31652   4.461  17.216   0.192
59927W        W31653  20.192   4.093   0.770
59928W        W31654   4.040  33.955  13.544
59929W        W31655  39.384  38.448   3.486
59930W        W31656  14.299  38.280  13.256
59931W        W31657  31.660  21.199   4.637
59932W        W31658  17.647  11.267  10.886
59933W        W31659   3.888  41.360   1.224
59934W        W31660  35.374  17.774   3.707
59935W        W31661  13.551  42.517  12.526
59936W        W31662  41.290  32.915   2.831
59937W        W31663  24.582  43.435   1.142
59938W        W31664  14.111  44.222  12.090
59939W        W31665  17.994  40.450  11.251
59940W        W31666  25.046  32.046  13.912
59941W        W31667  35.362  44.470   1.584
59942W        W31668  14.026  18.679  10.790
59943W        W31669  19.690  42.278  12.343
59944W        W31670  13.666  32.067  14.486
59945W        W31671  44.292  43.530   2.724
59946W        W31672   6.063  13.065   1.483
59947W        W31673  19.103  33.640  13.486
59948W        W31674  40.495  17.630   1.501
59949W        W31675  37.819  31.216  12.637
59950W        W31676  42.009  33.134   2.641
59951W        W31677   7.710  20.237  13.873
59952W        W31678  22.011   1.236  10.776
59953W        W31679  25.548   9.890  13.058
59954W        W31680  30.317  21.521  12.562
59955W        W31681   2.872  28.479  13.530
59956W        W31682  40.094  12.902   2.764
59957W        W31683  44.904  27.874  14.994
59958W        W31684   9.771   3.288   4.254
59959W        W31685  22.655  32.883   0.812
59960W        W31686  25.913  11.551  14.770
59961W        W31687  13.528  11.258  13.945
59962W        W31688  37.331  35.875  13.235
59963W        W31689  30.080  27.679   1.904
59964W        W31690  36.590  14.659   4.904
59965W        W31691  19.636  13.793  11.890
59966W        W31692  14.164   9.401   3.153
59967W        W31693  14.227   6.926  12.107
59968W        W31694  44.766  27.019  14.157
59969W        W31695  37.004  14.090   4.124
59970W        W31696  13.818  26.040   0.007
59971W        W31697   8.165  16.388  11.106
59972W        W31698  14.493   9.396   2.757
59973W        W31699  17.288  17.844   4.137
59974W        W31700   4.700   8.584  11.127
59975W        W31701  14.339   0.046   0.107
59976W        W31702  40.493  35.470   3.589
59977W        W31703  22.196   1.968  14.860
59978W        W31704   0.661  32.007   5.112
59979W        W31705  35.944  11.182  13.795
59980W        W31706  41.913  24.898  13.469
59981W        W31707   9.151  39.428   1.419
59982W        W31708  23.753  27.521  13.873
59983W        W31709  29.661  35.857  12.961
59984W        W31710  31.010  41.084  14.467
59985W        W31711  39.988  11.842  11.627
59986W        W31712  41.357  15.724  12.839
59987W        W31713  18.038  23.876  13.425
59988W        W31714   6.779   1.761  12.216
59989W        W31715  40.544  33.582  11.013
59990W        W31716  20.555   3.006  13.288
59991W        W31717  12.476  22.870   4.301
59992W        W31718  16.976  43.886  11.131
59993W        W31719   1.498  24.059  11.115
59994W        W31720  42.040  31.654   2.771
59995W        W31721  19.610  35.837   3.610
59996W        W31722  43.980  20.687   3.343
59997W        W31723  24.755  43.612  14.177
59998W        W31724   0.137  38.090  12.109
59999W        W31725   0.106   3.539   3.600
60000W        W31726  31.681   7.287  12.865
60001W        W31727  28.146  14.741  14.623
60002W        W31728  38.412  19.834   1.142
60003W        W31729   3.193  31.186   3.274
60004W        W31730  41.958  15.482   2.281
60005W        W31731  26.977  29.195  13.496
60006W        W31732   4.424   3.873   3.121
60007W        W31733   6.797   6.946   9.823
60008W        W31734  15.037  26.209   2.798
60009W        W31735  14.468  29.640   1.405
60010W        W31736  19.526   5.761   0.724
60011W        W31737  36.161  42.921   1.815
60012W        W31738  33.893   3.810   0.637
60013W        W31739  10.191  17.428   1.478
60014W        W31740   4.242  16.103   3.394
60015W        W31741   3.229  37.084   3.408
60016W        W31742   1.958  17.209  11.949
60017W        W31743   4.722   7.307   4.184
60018W        W31744  28.847  12.583   1.121
60019W        W31745   9.091   3.917   2.029
60020W        W31746  31.747  40.577   4.822
60021W        W31747   6.220  15.681   4.712
60022W        W31748  44.424  40.307  10.957
60023W        W31749  30.639   4.922   1.081
60024W        W31750  36.777  34.235  14.801
60025W        W31751   0.548  16.812  11.485
60026W        W31752   3.852  10.732   0.269
60027W        W31753   6.341  18.438  13.862
60028W        W31754  29.210  30.105   4.312
60029W        W31755  44.850  36.589   0.436
60030W        W31756  15.262  10.519   3.701
60031W        W31757  16.547  13.616  12.410
60032W        W31758  30.655  16.371  11.178
60033W        W31759   2.184   2.423   0.840
60034W        W31760  43.943  23.892  13.022
60035W        W31761   5.223  15.596   4.213
60036W        W31762  44.840  22.206   0.036
60037W        W31763  41.353  10.834   4.507
60038W        W31764  10.796  15.392   1.876
60039W        W31765  21.295  23.114   1.353
60040W        W31766  22.643   5.011  12.532
60041W        W31767  20.252   3.470   1.304
60042W        W31768   0.841  35.618  11.075
60043W        W31769  30.117  18.147   4.066
60044W        W31770  20.205  31.393   1.782
60045W        W31771  24.422  13.594   3.869
60046W        W31772  23.166  34.164  11.359
60047W        W31773  36.092  30.926  14.210
60048W        W31774  19.328  20.283   2.134
60049W        W31775   6.277  21.624   3.997
60050W        W31776   7.892  39.337   2.766
60051W        W31777   1.221  27.006   0.355
60052W        W31778   3.023   7.094  13.015
60053W        W31779  25.018  16.815  10.423
60054W        W31780  12.729  44.860   1.936
60055W        W31781  18.287  15.018   3.285
60056W        W31782  15.285  43.636   0.290
60057W        W31783  26.075  33.447   1.171
60058W        W31784   8.091   9.758  14.009
60059W        W31785  16.656  32.202  13.791
60060W        W31786  13.460  26.019   1.449
60061W        W31787  35.423  36.806   0.190
60062W        W31788  28.002   1.171   3.752
60063W        W31789   7.918   8.948  14.925
60064W        W31790  12.871  19.260   4.277
60065W        W31791  24.542  42.095  10.714
60066W        W31792  29.397  44.299  11.599
60067W        W31793  17.391  20.633   4.487
60068W        W31794  10.320  33.186   0.711
60069W        W31795  27.576  26.874  14.281
60070W        W31796  30.851  11.837  14.480
60071W        W31797  32.989  44.859  13.586
60072W        W31798  32.117  44.317   2.716
60073W        W31799  11.184   5.616  14.976
60074W        W31800   2.853  33.806   2.235
60075W        W31801  12.045  39.509   3.059
60076W        W31802  23.109   6.515   1.640
60077W        W31803  34.813  38.843  14.758
60078W        W31804  22.472  23.060  13.001
60079W        W31805  20.734  44.919  11.103
60080W        W31806   4.397  15.710   3.681
60081W        W31807  40.378  40.615  11.251
60082W        W31808   0.448   5.853   3.393
60083W        W31809   4.342  15.368  12.443
60084W        W31810  25.257  39.440  14.411
60085W        W31811  41.119  22.530   0.885
60086W        W31812  34.921  42.222  14.261
60087W        W31813  10.750   7.954   3.180
60088W        W31814  40.764  31.113  12.523
60089W        W31815   5.412   7.366   4.965
60090W        W31816  23.745  36.912  14.017
60091W        W31817  11.029  16.850  14.270
60092W        W31818   7.955  18.037   3.264
60093W        W31819  33.418  36.781  11.569
60094W        W31820  35.081  33.594  12.926
60095W        W31821  24.995   6.848  10.794
60096W        W31822  34.984   1.527  12.941
60097W        W31823  16.116  22.678  13.967
60098W        W31824   4.290  23.607   1.202
60099W        W31825   1.534  40.912   4.186
60100W        W31826  12.303   2.368   4.331
60101W        W31827  11.101  37.466  12.599
60102W        W31828   4.385  18.211  13.000
60103W        W31829   6.273  31.155   3.129
60104W        W31830  24.287  26.185   9.482
60105W        W31831  22.176  28.641   5.014
60106W        W31832   8.655  42.613   3.659
60107W        W31833  15.394  37.457   5.340
60108W        W31834  39.482   3.308   4.938
60109W        W31835  18.108  38.817  13.402
60110W        W31836  13.274  23.439  11.664
60111W        W31837  18.073  40.886   3.877
60112W        W31838  22.829  33.396  13.923
60113W        W31839  32.977  39.856  13.419
60114W        W31840  44.627  22.553   4.577
60115W        W31841   3.873  24.763   3.434
60116W        W31842  21.828  19.672   1.370
60117W        W31843  38.635   4.768   1.451
60118W        W31844  43.519  32.667  14.394
60119W        W31845  39.912  32.621   4.506
60120W        W31846  44.014  34.059  11.133
60121W        W31847  40.943  34.686  11.110
60122W        W31848  23.081  31.371   2.840
60123W        W31849   6.199  41.030   2.751
60124W        W31850  21.395  17.304  14.546
60125W        W31851  23.196   9.215  11.873
60126W        W31852  24.945  36.128  12.565
60127W        W31853  32.075  44.347   4.536
60128W        W31854  15.676   6.634  12.378
60129W        W31855  33.629   4.177   0.302
60130W        W31856  32.832  42.272  14.968
60131W        W31857  41.944  26.560   0.393
60132W        W31858  10.831  28.126   4.897
60133W        W31859   4.717  16.052  11.966
60134W        W31860  34.035   7.695  13.904
60135W        W31861  16.572  42.060   1.391
60136W        W31862  10.157  12.761  10.586
60137W        W31863  32.514  14.173   4.969
60138W        W31864   9.829  15.064   4.246
60139W        W31865  39.404  40.614  14.461
60140W        W31866  34.360   7.513   0.359
60141W        W31867   8.717  18.693   1.365
60142W        W31868  15.927  25.663  12.588
60143W        W31869  25.651   0.577   3.746
60144W        W31870  10.876  23.101   4.190
60145W        W31871  29.038  13.914  12.431
60146W        W31872   6.156  32.151  12.903
60147W        W31873  11.714  14.666  13.574
60148W        W31874   6.663  13.820  11.488
60149W        W31875  40.505  26.569  14.951
60150W        W31876   3.361  17.580  11.165
60151W        W31877   6.933  31.923   0.289
60152W        W31878  38.406  43.705  12.524
60153W        W31879   5.251  22.727  10.685
60154W        W31880  25.865   4.284   1.679
60155W        W31881   4.789  11.637  14.843
60156W        W31882  30.580   4.941   2.843
60157W        W31883  43.751  29.621   3.702
60158W        W31884  33.452  36.424   1.123
60159W        W31885  34.877  41.347  11.588
60160W        W31886  30.846  21.207   2.233
60161W        W31887  39.114  31.876   2.606
60162W        W31888   8.409  39.584  11.856
60163W        W31889  10.302  43.325  11.067
60164W        W31890  27.531  36.222  11.026
60165W        W31891  23.057  44.893   0.188
60166W        W31892  13.878  16.570  11.569
60167W        W31893  38.786  25.396  14.863
60168W        W31894  27.407  26.262   4.550
60169W        W31895  33.373  25.964   1.309
60170W        W31896   3.970  28.660   3.382
60171W        W31897   8.060  14.181  11.981
60172W        W31898  40.417  11.613  10.930
60173W        W31899   9.447  35.043   4.691
60174W        W31900  32.909   3.440   1.689
60175W        W31901  31.432   6.421  13.104
60176W        W31902  41.412  23.501  13.081
60177W        W31903  31.336  15.726   3.254
60178W        W31904  37.012  12.219  14.827
60179W        W31905  34.855   1.448  13.443
60180W        W31906  23.974   1.217  13.532
60181W        W31907  42.443  44.625   0.923
60182W        W31908  43.046   6.944   1.304
60183W        W31909  18.869  11.896   4.871
60184W        W31910  21.237  38.754  12.332
60185W        W31911   3.933  42.144   3.256
60186W        W31912  31.974   7.666   3.198
60187W        W31913  41.063   0.888  11.219
60188W        W31914   0.995  14.268  11.579
60189W        W31915   8.427  40.444   1.145
60190W        W31916  27.863  35.469   0.401
60191W        W31917  20.379  17.183  10.321
60192W        W31918  12.161  34.460   1.842
60193W        W31919  33.538   6.668  12.052
60194W        W31920   5.401   0.521   1.284
60195W        W31921  29.533  23.974   3.286
60196W        W31922  19.952  24.058   3.202
60197W        W31923   9.804  34.148   5.395
60198W        W31924  40.286   1.938  10.744
60199W        W31925  36.377  16.949   2.712
60200W        W31926  34.163   1.187  11.079
60201W        W31927  32.505  17.202  10.586
60202W        W31928  30.334  13.402   2.105
60203W        W31929  26.756  26.973  13.097
60204W        W31930  35.252  10.106  14.480
60205W        W31931  35.384  22.128   4.884
60206W        W31932   4.743  15.690  14.220
60207W        W31933   5.460  41.740  14.949
60208W        W31934   8.648  38.075   0.330
60209W        W31935   6.667   0.092  14.342
60210W        W31936  11.167   1.686   1.672
60211W        W31937  42.371  15.065   2.874
60212W        W31938  12.980   6.236   4.421
60213W        W31939  16.671  15.781  14.065
60214W        W31940  33.421   1.720   2.326
60215W        W31941  27.077  35.832  11.537
60216W        W31942  44.263  31.741  13.885
60217W        W31943  32.323  40.786   4.175
60218W        W31944  32.153   4.425   4.369
60219W        W31945   9.724  21.566  14.275
60220W        W31946  11.290   6.852  11.855
60221W        W31947  30.970  26.568   1.924
60222W        W31948  41.809   7.241  14.058
60223W        W31949  24.347  43.582   0.698
60224W        W31950   6.979  20.513   4.083
60225W        W31951  24.822  26.526   5.496
60226W        W31952   0.221  18.269  14.327
60227W        W31953   5.174  31.465  11.144
60228W        W31954  20.189  11.151  14.284
60229W        W31955  39.029  14.388  14.417
60230W        W31956  32.859  34.097   0.971
60231W        W31957  20.678  37.365   0.860
60232W        W31958  17.070   1.291   1.500
60233W        W31959   7.817  36.068  10.139
60234W        W31960  11.305  36.982   3.294
60235W        W31961  12.267   6.958  11.444
60236W        W31962  27.943  10.068  12.074
60237W        W31963  36.012  18.877  12.969
60238W        W31964  36.908  27.990   3.263
60239W        W31965  18.137  21.832  13.897
60240W        W31966   1.060  19.216  11.491
60241W        W31967  42.777   8.228  12.836
60242W        W31968  38.105  38.369   3.280
60243W        W31969  25.638  39.317  10.696
60244W        W31970  43.375   6.684  14.100
60245W        W31971  20.546  32.790   1.329
60246W        W31972  15.012  26.067   3.681
60247W        W31973  17.584  42.186   2.236
60248W        W31974   4.448  34.483  13.919
60249W        W31975  30.944  16.168   1.824
60250W        W31976   2.419  24.472  11.128
60251W        W31977  36.529  44.043  11.579
60252W        W31978  18.583  28.516   3.893
60253W        W31979  25.008  32.075   0.930
60254W        W31980  18.045  38.000   1.883
60255W        W31981  29.371  24.209  14.732
60256W        W31982  27.049  11.694   2.887
60257W        W31983  26.995  34.976  14.359
60258W        W31984  14.554  12.131   0.459
60259W        W31985  10.088  18.568  14.912
60260W        W31986  27.440  36.201   2.865
60261W        W31987  28.104   6.868   4.608
60262W        W31988   6.840  28.582   3.713
60263W        W31989   3.819  21.919   2.324
60264W        W31990  34.523  23.443   0.056
60265W        W31991  20.816   5.983   2.572
60266W        W31992  33.283   9.963  14.349
60267W        W31993   7.543  21.240   1.744
60268W        W31994   3.463  10.772   3.213
60269W        W31995  17.584  27.924  11.955
60270W        W31996  34.189  30.841   3.882
60271W        W31997  20.319  33.305   4.028
60272W        W31998  17.154  18.320   4.271
60273W        W31999  18.011  28.412  13.847
60274W        W32000  13.193   2.226  11.607
60275W        W32001  29.855  36.108  14.002
60276W        W32002   8.784  18.388  11.032
60277W        W32003   7.985   1.782  13.383
60278W        W32004  21.048  44.539  10.175
60279W        W32005  36.069  26.292   2.249
60280W        W32006  39.574  36.057  14.535
60281W        W32007   4.958  15.802  10.593
60282W        W32008  34.835  17.805  11.232
60283W        W32009   8.379   8.667   1.186
60284W        W32010  32.268  28.250   3.309
60285W        W32011  28.911  27.008   0.937
60286W        W32012  27.175   3.307   1.711
60287W        W32013  19.583  33.421  13.491
60288W        W32014  40.465  38.815   1.218
60289W        W32015   2.428  17.210  12.702
60290W        W32016  30.454  36.951   4.646
60291W        W32017  21.573  18.854  10.737
60292W        W32018  36.304   0.275   0.396
60293W        W32019  38.350  27.708   2.907
60294W        W32020  20.020  11.575  14.562
60295W        W32021  15.227   5.611   3.745
60296W        W32022  34.245  37.330   2.756
60297W        W32023  17.685  40.561   1.809
60298W        W32024  17.117  17.922  10.922
60299W        W32025  33.937  12.155  12.404
60300W        W32026  17.655  39.444   4.547
60301W        W32027  23.619   7.262   2.323
60302W        W32028  28.706  35.521   0.800
60303W        W32029  13.863   8.805  12.079
60304W        W32030  15.347  20.422  14.861
60305W        W32031  27.203  38.311  14.804
60306W        W32032  37.369   6.428   1.790
60307W        W32033  18.447   6.902  13.037
60308W        W32034  41.693  23.623   0.997
60309W        W32035  38.409  43.180  12.566
60310W        W32036   7.608  21.503  11.020
60311W        W32037  12.344  27.534   4.836
60312W        W32038  23.945  32.056  14.679
60313W        W32039  43.705   7.139   1.287
60314W        W32040  36.358  41.360   0.383
60315W        W32041  17.387  38.569   1.369
60316W        W32042  14.309  24.967  11.395
60317W        W32043   6.917  34.340  11.119
60318W        W32044  43.835   4.323  11.457
60319W        W32045   0.846   0.218  10.794
60320W        W32046   8.289  10.480   0.855
60321W        W32047  29.360  43.150   2.176
60322W        W32048  43.445  16.123  11.689
60323W        W32049  28.107  24.024  13.484
60324W        W32050  11.037  34.085   3.144
60325W        W32051  23.736  26.351  12.881
60326W        W32052  40.541  35.041   0.902
60327W        W32053  14.734   0.351   0.330
60328W        W32054   0.539  40.359   4.331
60329W        W32055  13.317  20.423   0.033
60330W        W32056   1.923  31.376   3.198
60331W        W32057  17.068   2.261  12.044
60332W        W32058  30.567   4.629   5.238
60333W        W32059  42.014  12.041   2.225
60334W        W32060  41.137  12.237  13.946
60335W        W32061  18.565   1.840  14.447
60336W        W32062   4.802  32.282  12.134
60337W        W32063  30.645  38.345  11.544
60338W        W32064   2.715  30.936  10.644
60339W        W32065  22.281  12.409  13.882
60340W        W32066  29.455  12.970  11.221
60341W        W32067  34.804  29.382   0.235
60342W        W32068  38.591  33.316   4.942
60343W        W32069  14.344  44.066   3.704
60344W        W32070  24.040  38.531   4.788
60345W        W32071  16.710  36.946  10.472
60346W        W32072  24.567  41.900   3.670
60347W        W32073  40.858   3.695  12.085
60348W        W32074  15.599  13.573   2.251
60349W        W32075  31.488   5.861   0.819
60350W        W32076  40.545  14.655  14.993
60351W        W32077   6.069  19.546   0.399
60352W        W32078  42.334  10.973  13.472
60353W        W32079  27.668  18.073   3.135
60354W        W32080  14.450  28.884   1.946
60355W        W32081   2.456   6.322   1.119
60356W        W32082   0.529  23.680  12.978
60357W        W32083  15.699  14.731   4.065
60358W        W32084  38.859   4.336   3.112
60359W        W32085  41.289   5.704  10.685
60360W        W32086  39.467  17.561   0.898
60361W        W32087  20.605  29.161   1.055
60362W        W32088   1.413  14.669  12.190
60363W        W32089  31.654  16.119  14.294
60364W        W32090  36.327  41.065   4.224
60365W        W32091  41.998   7.097  13.018
60366W        W32092  35.830   4.078  12.727
60367W        W32093  43.801  16.371  14.949
60368W        W32094   8.448  29.522  13.869
60369W        W32095   7.762  34.892   0.315
60370W        W32096  37.492  25.984  10.580
60371W        W32097  35.544  16.277  14.117
60372W        W32098  15.564  26.000  14.513
60373W        W32099  20.999  23.709   4.062
60374W        W32100  35.006  33.984  12.560
60375W        W32101   9.946   9.682  11.512
60376W        W32102  41.151   8.825  11.395
60377W        W32103  19.253  31.266   1.377
60378W        W32104  22.481  44.298  14.954
60379W        W32105   0.454   0.317   2.634
60380W        W32106  14.714  25.085  14.011
60381W        W32107  29.399   7.157   2.714
60382W        W32108  33.089   4.687   2.129
60383W        W32109  27.757  13.198   0.675
60384W        W32110  28.374  42.280  13.614
60385W        W32111  31.147  36.340  11.511
60386W        W32112  40.326  24.607   3.366
60387W        W32113  43.750   3.197  13.331
60388W        W32114  17.043  37.487  10.151
60389W        W32115  25.137  43.079  14.876
60390W        W32116  17.020  11.149  13.214
60391W        W32117  14.840  15.564  10.669
60392W        W32118  13.571   1.467   1.461
60393W        W32119  19.623  34.933   2.842
60394W        W32120   3.823  22.551   2.338
60395W        W32121  16.797  15.040  11.133
60396W        W32122  12.375  15.187   0.540
60397W        W32123   1.272   0.496   4.585
60398W        W32124  24.086  40.824  14.499
60399W        W32125  11.569   8.786   3.502
60400W        W32126  41.372  41.749   2.902
60401W        W32127  31.172  23.305   3.401
60402W        W32128  28.932  10.672   0.391
60403W        W32129  14.047   4.477   2.916
60404W        W32130  22.665  19.985   4.263
60405W        W32131  24.262  10.088  13.383
60406W        W32132   8.599  14.058  14.869
60407W        W32133  16.730  41.026  11.884
60408W        W32134  43.374  22.332  12.117
60409W        W32135  23.938   9.080  13.307
60410W        W32136  33.933   1.518   2.358
60411W        W32137  17.041   5.429  10.336
60412W        W32138  32.937   2.357   0.219
60413W        W32139  44.266  20.602  11.961
60414W        W32140   4.379  38.790  12.468
60415W        W32141  33.340  42.442  11.476
60416W        W32142  17.798  12.536  14.675
60417W        W32143  19.030  14.874  12.535
60418W        W32144  32.392  28.168  12.421
60419W        W32145   4.360  44.835   4.314
60420W        W32146   9.834  24.078  11.160
60421W        W32147  34.842   4.266   0.655
60422W        W32148   2.287   8.308  14.373
60423W        W32149  38.450   8.315  14.065
60424W        W32150  18.641  43.723   1.702
60425W        W32151  33.660  30.353  12.653
60426W        W32152  41.410   0.261  14.958
60427W        W32153  41.440  41.258   4.831
60428W        W32154  30.844  32.129   4.860
60429W        W32155  14.768  31.252   0.846
60430W        W32156  27.641  41.923   4.386
60431W        W32157  25.980  17.378   4.635
60432W        W32158  25.881  35.865  14.058
60433W        W32159  16.021  40.859  10.713
60434W        W32160   6.857  30.413   1.974
60435W        W32161  44.720  36.773   0.923
60436W        W32162  38.708   5.214  10.304
60437W        W32163  32.023  41.150  10.327
60438W        W32164  39.904  16.136  12.571
60439W        W32165  10.167  29.575   2.359
60440W        W32166  27.403   8.197  14.401
60441W        W32167   0.523  39.593  10.062
60442W        W32168  18.264  28.008  14.923
60443W        W32169  32.480  11.738  10.747
60444W        W32170  23.811   8.437  12.483
60445W        W32171   8.364  37.906   0.875
60446W        W32172  18.743  32.645  10.641
60447W        W32173  18.302   1.510   4.971
60448W        W32174  24.112  32.659  11.874
60449W        W32175   1.033  40.292  11.142
60450W        W32176  22.205  27.369  12.879
60451W        W32177  17.971  24.680   2.859
60452W        W32178   6.511  32.975  13.985
60453W        W32179  23.152  39.375   4.470
60454W        W32180  22.940  38.854  14.624
60455W        W32181  43.777  27.401   0.833
60456W        W32182   4.827  11.394  14.378
60457W        W32183  41.586  17.981  14.510
60458W        W32184  43.277  23.599  14.619
60459W        W32185  14.846  16.554   3.246
60460W        W32186  12.324   2.975  13.905
60461W        W32187  19.094  38.266   1.024
60462W        W32188  22.035  28.984  10.973
60463W        W32189  44.862  42.945  14.796
60464W        W32190  20.672   3.852  14.035
60465W        W32191   2.265  23.022  12.402
60466W        W32192  28.249  36.892  11.780
60467W        W32193  24.254  37.507   1.353
60468W        W32194   2.514   9.715   0.281
60469W        W32195  32.776  14.962  14.963
60470W        W32196  19.633  15.123  12.615
60471W        W32197   9.246  29.600  13.476
60472W        W32198  31.044  35.125   3.339
60473W        W32199   2.882  10.905   0.377
60474W        W32200  17.721   2.503   1.803
60475W        W32201  30.629  35.586   1.295
60476W        W32202  10.265  35.586   1.847
60477W        W32203   9.925  13.299   3.317
60478W        W32204   5.307  15.083   0.068
60479W        W32205  20.214  15.954   1.389
60480W        W32206   3.836   3.794   1.770
60481W        W32207   7.654  30.695  11.215
60482W        W32208  27.399  25.811   0.768
60483W        W32209  43.509  22.521   0.007
60484W        W32210  30.632  16.341   4.106
60485W        W32211  11.399  15.318  12.917
60486W        W32212   4.779  23.690  12.552
60487W        W32213  18.516  38.273   1.858
60488W        W32214  36.591  29.840  11.497
60489W        W32215  25.062  23.143  11.520
60490W        W32216  32.116  30.182  13.944
60491W        W32217  40.214   4.808   0.375
60492W        W32218   1.322  12.105  11.006
60493W        W32219  38.909  30.960   0.030
60494W        W32220  34.172  27.921   4.838
60495W        W32221  40.820  25.536   4.353
60496W        W32222  19.191  15.111   1.807
60497W        W32223  20.128  21.289  14.675
60498W        W32224  24.035  24.203   1.311
60499W        W32225  13.595  38.425   4.666
60500W        W32226  19.432  37.116  13.651
60501W        W32227  40.807   5.986  14.982
60502W        W32228  32.386  28.124   1.846
60503W        W32229  35.812  17.112   1.167
60504W        W32230   3.756  36.969  10.683
60505W        W32231   2.736  21.869  12.509
60506W        W32232  36.412  13.415  12.878
60507W        W32233   2.995  19.005  11.082
60508W        W32234  11.245  34.117  14.574
60509W        W32235  12.317  24.825  11.874
60510W        W32236   7.308  17.875   0.499
60511W        W32237  23.980  25.059  11.384
60512W        W32238  30.212   1.420  12.888
60513W        W32239  28.118  42.008   4.551
60514W        W32240  23.624  32.404  14.965
60515W        W32241  26.552  18.278   1.746
60516W        W32242  31.364  36.355  14.846
60517W        W32243  39.810  29.405   2.719
60518W        W32244   5.016  24.252   1.726
60519W        W32245  41.793  20.237  11.490
60520W        W32246   0.563   4.623  11.064
60521W        W32247  15.553   5.409   0.904
60522W        W32248  22.925  18.579  11.284
60523W        W32249   6.364  32.199   2.115
60524W        W32250  21.079  25.358  11.223
60525W        W32251  20.460  24.014   3.305
60526W        W32252  19.644  14.260   0.491
60527W        W32253   8.220  35.115   0.398
60528W        W32254  38.072   9.456  12.385
60529W        W32255   3.296  28.259  11.110
60530W        W32256  35.915   7.225  11.881
60531W        W32257  44.375   0.450  13.321
60532W        W32258  20.934  43.523   0.557
60533W        W32259  12.338  37.808   1.871
60534W        W32260  37.279  12.568   3.758
60535W        W32261  22.594  34.994   1.945
60536W        W32262   9.812   0.371   2.373
60537W        W32263  31.396  43.836  12.393
60538W        W32264  34.095  43.291  14.448
60539W        W32265  32.050  36.302   4.162
60540W        W32266  18.690   6.677   2.702
60541W        W32267  26.313  37.536   0.712
60542W        W32268  23.795  12.222   4.577
60543W        W32269   4.793  38.790  13.099
60544W        W32270   8.513  44.900  10.515
60545W        W32271  11.105  26.581   0.251
60546W        W32272  42.490  38.049   2.311
60547W        W32273   4.808  29.183   3.160
60548W        W32274  18.071  14.216   0.031
60549W        W32275   1.194  16.392   2.012
60550W        W32276  39.532  27.571  12.373
60551W        W32277  29.542   4.900   2.867
60552W        W32278  13.589  21.246  11.025
60553W        W32279  36.326   3.292   1.113
60554W        W32280   8.628  25.107   0.686
60555W        W32281  18.807  31.545  10.901
60556W        W32282  13.912  40.994   3.780
60557W        W32283   1.454   8.448   2.496
60558W        W32284  36.015   1.969  13.825
60559W        W32285   8.729   3.900   3.286
60560W        W32286   4.000  31.617  14.266
60561W        W32287  34.421   4.688  14.379
60562W        W32288   5.230   8.240  14.565
60563W        W32289   3.690   8.902  11.088
60564W        W32290  20.713  17.249   0.298
60565W        W32291  23.190   3.730   2.742
60566W        W32292  28.013  16.599   3.152
60567W        W32293  19.226  28.780  13.091
60568W        W32294  22.584   3.875   2.144
60569W        W32295  40.155  36.394  11.676
60570W        W32296  24.440  29.011  11.579
60571W        W32297  19.331  18.873   1.927
60572W        W32298  43.184   9.340  14.857
60573W        W32299  39.480  19.209  14.274
60574W        W32300   2.318  22.503  11.493
60575W        W32301  28.511  35.049   3.472
60576W        W32302  20.417   2.192   3.901
60577W        W32303  28.536  43.521  14.855
60578W        W32304  44.742  24.114  12.944
60579W        W32305  42.842   7.258  11.657
60580W        W32306   3.359  10.926  14.874
60581W        W32307  36.861  15.870  12.580
60582W        W32308  23.698  41.402   3.666
60583W        W32309  31.910  27.740  11.969
60584W        W32310  10.361  39.093  10.737
60585W        W32311  15.843   4.003  14.361
60586W        W32312  18.005  41.551   1.767
60587W        W32313   5.804  27.827   2.866
60588W        W32314   8.539   5.536  14.841
60589W        W32315   8.867  18.147  10.124
60590W        W32316  22.704  17.687  12.475
60591W        W32317  10.429   2.781   1.948
60592W        W32318  11.380  10.785  13.013
60593W        W32319  40.974  25.992  11.360
60594W        W32320  33.501  18.049  12.083
60595W        W32321  13.561  20.036  10.700
60596W        W32322  36.108   3.786  13.027
60597W        W32323   2.664  29.500  14.410
60598W        W32324  20.220  23.258   1.369
60599W        W32325  35.119  16.015  11.488
60600W        W32326  13.132  11.638   0.333
60601W        W32327  43.336  32.415   2.545
60602W        W32328  42.279   5.113  14.413
60603W        W32329   9.055  43.444   1.969
60604W        W32330  16.687  14.783   2.719
60605W        W32331  13.176  40.859   4.602
60606W        W32332  42.460   4.144  12.485
60607W        W32333   4.792  11.260  12.918
60608W        W32334   6.827  39.065  13.943
60609W        W32335   1.847  29.572   3.842
60610W        W32336  25.085  20.778   1.768
60611W        W32337  30.732  41.940   4.747
60612W        W32338  31.676  14.565   0.340
60613W        W32339  36.516  32.953   1.383
60614W        W32340  18.039  39.957   2.369
60615W        W32341  14.351  39.016   0.702
60616W        W32342  21.557  38.438  11.845
60617W        W32343  43.714  30.926   2.400
60618W        W32344  38.002  25.967   2.659
60619W        W32345   6.430  11.845  12.186
60620W        W32346  33.647  40.630  12.436
60621W        W32347  37.848  30.278   4.957
60622W        W32348   9.335   7.336   2.465
60623W        W32349  39.953   7.630  14.296
60624W        W32350  18.167  34.921   0.493
60625W        W32351   5.333   4.045   2.686
60626W        W32352  40.880   5.442   1.335
60627W        W32353  38.902  10.421   2.726
60628W        W32354  12.490  44.203   2.670
60629W        W32355  13.427  11.841  14.459
60630W        W32356  26.598  25.722   2.288
60631W        W32357  32.863  19.052   1.226
60632W        W32358  27.857  40.965  12.988
60633W        W32359  35.121  21.259   5.086
60634W        W32360  18.561  35.889   2.423
60635W        W32361  36.279  38.855   3.249
60636W        W32362   4.289  25.002  14.037
60637W        W32363  29.642  28.624  11.094
60638W        W32364  34.909   2.494   3.936
60639W        W32365  26.463  31.475  13.870
60640W        W32366  29.732  35.044  10.206
60641W        W32367  38.706  20.902  11.243
60642W        W32368  44.949  41.212   0.370
60643W        W32369  34.004   5.190  11.105
60644W        W32370   0.722  24.410  14.429
60645W        W32371  13.862  20.228  11.084
60646W        W32372  41.480  21.987  14.942
60647W        W32373   9.641   1.904   2.501
60648W        W32374   9.364  29.722  11.195
60649W        W32375  21.258  40.287  11.108
60650W        W32376  26.754  12.153   1.774
60651W        W32377  20.603  14.291   2.797
60652W        W32378  18.722  16.151  14.559
60653W        W32379   7.166  18.530  12.389
60654W        W32380  11.933  10.745   4.097
60655W        W32381  32.163  17.095  14.325
60656W        W32382   7.159  23.105  12.928
60657W        W32383  26.749  27.902  11.124
60658W        W32384   4.919   7.361   3.716
60659W        W32385   4.496  31.255  11.962
60660W        W32386  19.157  15.119  11.429
60661W        W32387  27.090  32.363  14.970
60662W        W32388  16.933  20.437   3.120
60663W        W32389   2.490  27.098   4.047
60664W        W32390  37.812  17.503  11.592
60665W        W32391  21.260  18.668  13.111
60666W        W32392  38.936  32.036  10.124
60667W        W32393  41.015  25.421  10.660
60668W        W32394   1.758   9.270  12.578
60669W        W32395  25.948  23.559  14.285
60670W        W32396   0.401  36.453  11.063
60671W        W32397   5.537  10.065   2.465
60672W        W32398   2.694  26.781  12.130
60673W        W32399  15.654   4.279  13.839
60674W        W32400  34.405  31.691  14.268
60675W        W32401  19.516  17.209  14.196
60676W        W32402   1.729  40.044  14.582
60677W        W32403  24.985  11.678  12.023
60678W        W32404   5.744  29.541   2.117
60679W        W32405  43.142  39.305  13.872
60680W        W32406  40.875   4.582  14.725
60681W        W32407  22.046  19.061  14.993
60682W        W32408  28.685  31.505   4.221
60683W        W32409  13.912  42.688   3.244
60684W        W32410  37.729  24.049  14.822
60685W        W32411  10.408  10.237  11.318
60686W        W32412   1.882  39.376  11.211
60687W        W32413  26.507  13.313  13.849
60688W        W32414   3.853  33.610   0.687
60689W        W32415   0.563  38.364   2.775
60690W        W32416  24.188  25.452  12.091
60691W        W32417  30.133   9.723   4.144
60692W        W32418   7.240  24.769   0.913
60693W        W32419  12.641  29.576  13.780
60694W        W32420  31.136   4.085  12.017
60695W        W32421   8.871  15.270   3.828
60696W        W32422  10.288  14.007  14.497
60697W        W32423  34.933  30.508  14.559
60698W        W32424  30.907  28.103  12.776
60699W        W32425  29.256   5.047   3.812
60700W        W32426  34.269  30.367   3.652
60701W        W32427   1.591  24.061  12.128
60702W        W32428  38.773  42.048   0.019
60703W        W32429  33.583  38.537  13.479
60704W        W32430  27.006   1.780   3.751
60705W        W32431  25.547   7.337  13.444
60706W        W32432  28.629  10.361   1.910
60707W        W32433   2.837  22.582   2.213
60708W        W32434  39.497  10.743   4.864
60709W        W32435  26.909  10.578  11.075
60710W        W32436  39.894  14.119  14.341
60711W        W32437  19.152  28.520   1.600
60712W        W32438  43.299  31.015  11.573
60713W        W32439  38.013  22.665   2.775
60714W        W32440  20.106  15.290   3.740
60715W        W32441   9.124  20.131   4.353
60716W        W32442  14.126  24.522   3.780
60717W        W32443  18.487   2.918   3.857
60718W        W32444  26.447   8.387   0.586
60719W        W32445  30.643  10.661   0.806
60720W        W32446  24.707  22.782  13.858
60721W        W32447  40.603  26.660  12.492
60722W        W32448  10.925  37.880   3.277
60723W        W32449   5.943  14.508   0.393
60724W        W32450  41.402  18.148   3.395
60725W        W32451  11.330  12.032   3.154
60726W        W32452   5.068  21.218  14.516
60727W        W32453   4.627  44.705  13.998
60728W        W32454   2.629  44.940  13.505
60729W        W32455  18.705  11.813  14.884
60730W        W32456  43.484   7.318   2.886
60731W        W32457  23.165  34.106  11.857
60732W        W32458  12.903  38.545   0.037
60733W        W32459   9.130  38.542  13.853
60734W        W32460  24.534  22.645  10.723
60735W        W32461  29.207  19.521  10.652
60736W        W32462  19.280   2.464  14.508
60737W        W32463  36.862  42.373  12.087
60738W        W32464  39.321  42.112  14.439
60739W        W32465  33.942  20.062   3.071
60740W        W32466   2.195   5.315   1.481
60741W        W32467   4.672   3.719  13.537
60742W        W32468  39.921  44.381   1.389
60743W        W32469  34.857  26.099  11.942
60744W        W32470  17.524  11.203  13.081
60745W        W32471  25.298   7.838   4.179
60746W        W32472  16.082  26.551   3.230
60747W        W32473  22.934  11.634  12.420
60748W        W32474  44.494  26.408   0.657
60749W        W32475  32.515  28.533  13.117
60750W        W32476  31.347  27.123  14.845
60751W        W32477  44.465  38.864  11.565
60752W        W32478  15.162   8.920   4.530
60753W        W32479  12.683  44.289  13.673
60754W        W32480   4.190  26.054  12.838
60755W        W32481   4.179  33.974   0.886
60756W        W32482  29.664  15.057   3.669
60757W        W32483  30.569  16.053  10.798
60758W        W32484  33.037  42.444  14.520
60759W        W32485  15.570  28.680  13.080
60760W        W32486  36.379  16.218  10.460
60761W        W32487   2.960  40.606   4.646
60762W        W32488  15.263  38.125  14.888
60763W        W32489  28.083  25.599  12.432
60764W        W32490  33.701  34.020   1.782
60765W        W32491  23.519  43.471  11.950
60766W        W32492  12.185  29.714   4.539
60767W        W32493   4.213  41.271  11.160
60768W        W32494   0.377  39.021  11.403
60769W        W32495  44.294  29.426  14.844
60770W        W32496  44.911  41.815   0.325
60771W        W32497  36.517   1.211   3.182
60772W        W32498  22.413  35.344   0.748
60773W        W32499  16.803   0.444  14.564
60774W        W32500  37.817  34.391   2.782
60775W        W32501   6.171   0.336   4.556
60776W        W32502  12.510  26.244   0.390
60777W        W32503   0.812  35.022  11.902
60778W        W32504  36.409  36.374  12.984
60779W        W32505  42.711  44.976   0.324
60780W        W32506  37.565   1.000   0.339
60781W        W32507  23.729  36.141   0.121
60782W        W32508  10.266  44.330   3.131
60783W        W32509  11.086  24.737  13.471
60784W        W32510  18.171  33.408   0.481
60785W        W32511  12.671  15.640   0.321
60786W        W32512  15.471  26.707  11.952
60787W        W32513  35.183   7.571  11.185
60788W        W32514  19.977   7.353   1.736
60789W        W32515  37.153   0.316  13.503
60790W        W32516  43.776  26.202  13.929
60791W        W32517  22.833  41.399   4.666
60792W        W32518  11.875  42.423  12.917
60793W        W32519   6.706  15.614   2.453
60794W        W32520  34.831  19.184  12.523
60795W        W32521  17.692  34.347  10.892
60796W        W32522  20.262   3.677   4.209
60797W        W32523   2.228  38.264  13.362
60798W        W32524   6.718  21.148  11.056
60799W        W32525  44.839  30.077   0.661
60800W        W32526  36.322  13.371   5.258
60801W        W32527  20.273  30.408   1.685
60802W        W32528  18.197   2.287  13.476
60803W        W32529  38.394  29.114  10.539
60804W        W32530  41.663  12.205  13.970
60805W        W32531   2.620  33.376   4.462
60806W        W32532   0.754  40.992   3.764
60807W        W32533  24.268  40.578  10.710
60808W        W32534  11.164  11.848  12.988
60809W        W32535  34.817  40.206  11.085
60810W        W32536  21.544  11.570   0.673
60811W        W32537  32.523  38.599  10.844
60812W        W32538  34.056  37.640  14.379
60813W        W32539  23.803  37.301  11.203
60814W        W32540  33.740   6.632  10.701
60815W        W32541  13.591   4.501   2.692
60816W        W32542  31.446   5.946   0.297
60817W        W32543  27.365  26.002  13.936
60818W        W32544  15.861  38.389   2.414
60819W        W32545  18.100  39.504   0.983
60820W        W32546  26.156   8.892  10.524
60821W        W32547   6.458   3.849  13.102
60822W        W32548  42.317  18.692  10.721
60823W        W32549  35.108  16.355   0.816
60824W        W32550  38.253   5.845   0.004
60825W        W32551   5.455  33.989  11.195
60826W        W32552  44.822   2.508  14.473
60827W        W32553  35.854   1.677  14.226
60828W        W32554  10.184  31.005  14.725
60829W        W32555  24.113   4.128  12.905
60830W        W32556   0.008  17.393   2.364
60831W        W32557  16.320  33.252  10.764
60832W        W32558  22.426  23.091  10.946
60833W        W32559   7.045  24.188  13.048
60834W        W32560   8.192  16.637   4.142
60835W        W32561  29.622  38.905   1.204
60836W        W32562  41.864  38.932  11.570
60837W        W32563  17.671   9.626  13.526
60838W        W32564  41.342  22.426   2.228
60839W        W32565  26.896   8.337   0.322
60840W        W32566  12.229  13.720   4.763
60841W        W32567  22.549  33.637   0.274
60842W        W32568  40.948   7.662   2.311
60843W        W32569  29.471  25.543  12.470
60844W        W32570  42.483  32.428  14.449
60845W        W32571  16.767   0.888   1.367
60846W        W32572  38.958  24.543   2.689
60847W        W32573  36.687   5.037   1.367
60848W        W32574  40.647  12.043   3.749
60849W        W32575  40.009  17.966  11.001
60850W        W32576  27.113   2.514   1.332
60851W        W32577  37.638  37.319   5.078
60852W        W32578  41.229  23.621  10.646
60853W        W32579  32.605   0.910   1.223
60854W        W32580  44.474  34.288  11.165
60855W        W32581  20.926  21.829  13.984
60856W        W32582  39.049  22.189   2.102
60857W        W32583  13.070   9.916   1.739
60858W        W32584  13.709  13.913  14.671
60859W        W32585  24.061  36.542   4.163
60860W        W32586  39.086  34.400   3.155
60861W        W32587  31.432  26.097   4.034
60862W        W32588  39.060  12.213  10.469
60863W        W32589  43.769  27.496  13.306
60864W        W32590  15.256   7.332  12.887
60865W        W32591  10.201  40.760   1.326
60866W        W32592  19.289  24.551   0.262
60867W        W32593  42.995  29.691   3.176
60868W        W32594  28.648  22.241   1.667
60869W        W32595  22.425   9.219  14.828
60870W        W32596   4.656  19.143  13.514
60871W        W32597  22.752  25.059  12.854
60872W        W32598  25.363   0.731   4.630
60873W        W32599  24.960  31.538   2.173
60874W        W32600  38.885  23.523  14.972
60875W        W32601  11.256  14.130   3.679
60876W        W32602  44.740  34.523   2.772
60877W        W32603  27.742  35.205  13.177
60878W        W32604  42.371  12.389   4.327
60879W        W32605   0.032  27.618  11.673
60880W        W32606   7.110  35.983   2.249
60881W        W32607   4.979  12.900  11.536
60882W        W32608  18.574  37.652   3.608
60883W        W32609  29.051   9.274   2.569
60884W        W32610  25.702  17.506  11.199
60885W        W32611   0.970   0.208  13.993
60886W        W32612  12.223  22.616  11.959
60887W        W32613  30.860  30.905   3.265
60888W        W32614  17.589   2.758  12.318
60889W        W32615  41.885   6.066   4.120
60890W        W32616   0.226   1.875  10.667
60891W        W32617  13.943  42.366   1.514
60892W        W32618  44.473  41.296  11.932
60893W        W32619   5.745  18.248   2.426
60894W        W32620  39.520  13.494  11.068
60895W        W32621  16.299  43.900   4.922
60896W        W32622   4.497  26.658  12.333
60897W        W32623  17.034  31.773   0.438
60898W        W32624  35.014  18.799   1.626
60899W        W32625  20.083  29.656  11.415
60900W        W32626  37.131   5.395   0.472
60901W        W32627  39.221  44.881  12.079
60902W        W32628   5.375  25.560   4.147
60903W        W32629  21.477  36.106   1.398
60904W        W32630   8.121   9.208  10.743
60905W        W32631   4.452  37.496   4.248
60906W        W32632  10.160   6.862  13.083
60907W        W32633  33.489   7.420   4.240
60908W        W32634   9.191  10.832   3.490
60909W        W32635  35.215  11.027   3.241
60910W        W32636   9.967   9.744  12.461
60911W        W32637  18.272  43.317   1.696
60912W        W32638  29.920  31.081   1.745
60913W        W32639  41.839  17.169  12.694
60914W        W32640  15.137  41.112  12.871
60915W        W32641  39.334   0.362   3.857
60916W        W32642  41.228   4.658   4.519
60917W        W32643  39.099  42.407  14.825
60918W        W32644   0.460  17.324  12.621
60919W        W32645  15.332  26.595   0.951
60920W        W32646  17.157  34.136   4.183
60921W        W32647  27.718  39.176  13.407
60922W        W32648  30.382   7.141  13.543
60923W        W32649   9.586  17.295  12.357
60924W        W32650  12.094  24.220  13.998
60925W        W32651  29.060  33.003  14.004
60926W        W32652   2.715  37.672  11.173
60927W        W32653  17.999  16.290  11.534
60928W        W32654  13.608  13.483  10.800
60929W        W32655   7.710  22.645   2.664
60930W        W32656  43.655  18.246   2.809
60931W        W32657  31.104  23.993  11.083
60932W        W32658  14.508  30.693  14.327
60933W        W32659   2.804   6.331  12.979
60934W        W32660   2.726   0.965  12.043
60935W        W32661  32.328   9.878   0.631
60936W        W32662  17.882  42.897  13.515
60937W        W32663  30.545   0.527  13.982
60938W        W32664   6.164  28.435  13.264
60939W        W32665  17.995  11.234  13.972
60940W        W32666  37.288  18.918   1.378
60941W        W32667  40.530  21.168   3.675
60942W        W32668  12.070   8.091  12.115
60943W        W32669   6.301  26.601   1.518
60944W        W32670  16.097  20.692  11.278
60945W        W32671  33.352  23.665   2.151
60946W        W32672  22.728  36.118   4.130
60947W        W32673   9.771  26.507  11.678
60948W        W32674  38.471   8.458   2.701
60949W        W32675  29.152  36.497  10.647
60950W        W32676  19.123  36.608   4.907
60951W        W32677  20.171   0.648   4.724
60952W        W32678  44.036  16.989  12.296
60953W        W32679  33.773   9.346  13.120
60954W        W32680   7.276  24.671   3.762
60955W        W32681  15.503  31.928   0.852
60956W        W32682  28.719  34.376  11.208
60957W        W32683  28.493  23.186   3.707
60958W        W32684   7.489  25.427   0.292
60959W        W32685  29.741   9.134  12.933
60960W        W32686  41.936  28.215  10.791
60961W        W32687  42.831  35.025   0.256
60962W        W32688  17.148  33.673  13.100
60963W        W32689  24.204   7.821   2.634
60964W        W32690  31.179   8.582  11.072
60965W        W32691  24.049   0.813   0.244
60966W        W32692   1.260  30.743  11.055
60967W        W32693   7.684   5.894  14.679
60968W        W32694  11.759  31.228  12.484
60969W        W32695  31.934  25.094   1.928
60970W        W32696  28.472  14.648   0.714
60971W        W32697  21.056  32.155   2.140
60972W        W32698   3.197   2.247   0.935
60973W        W32699  25.566  14.334  14.945
60974W        W32700  23.655  28.542  12.544
60975W        W32701  13.733  26.653  12.753
60976W        W32702  23.846   4.748   3.599
60977W        W32703  15.875  29.642  10.583
60978W        W32704   2.930  12.242  13.972
60979W        W32705  29.303   9.157   2.138
60980W        W32706  28.600   7.163   4.214
60981W        W32707  27.081  32.569   0.455
60982W        W32708  14.895  39.767   1.212
60983W        W32709  21.065   7.082  14.838
60984W        W32710  31.088  12.042  14.057
60985W        W32711  29.902  40.113   2.350
60986W        W32712  14.655   5.808   3.245
60987W        W32713  19.439   1.873  10.638
60988W        W32714   2.358   4.636   4.061
60989W        W32715  43.723  41.867  10.622
60990W        W32716  13.697  34.565   4.577
60991W        W32717   9.755  26.589   4.678
60992W        W32718  16.564   7.712  12.831
60993W        W32719  17.707  11.749  13.098
60994W        W32720  42.281  22.998   3.659
60995W        W32721  15.820  38.570   4.258
60996W        W32722  15.583  19.049  11.461
60997W        W32723  39.291  21.362   2.831
60998W        W32724   8.858  32.354  12.345
60999W        W32725  29.233  14.967  14.862
61000W        W32726  37.131  10.818   1.422
61001W        W32727   7.472  33.816  13.361
61002W        W32728  16.547  14.565   2.249
61003W        W32729  25.401  37.532   0.672
61004W        W32730  30.150  12.568  10.815
61005W        W32731  13.580  37.932   1.342
61006W        W32732  24.552   5.941   2.762
61007W        W32733  31.402   4.303  13.891
61008W        W32734  11.577  44.318   1.506
61009W        W32735  22.713   2.371  14.245
61010W        W32736  37.345  33.510   4.246
61011W        W32737  44.823  14.036  12.078
61012W        W32738  21.445  26.593  11.471
61013W        W32739  44.409   9.495  10.719
61014W        W32740  20.515  23.114  11.523
61015W        W32741  39.445   6.144   2.101
61016W        W32742  22.150   9.705  14.829
61017W        W32743   8.600   5.398  12.045
61018W        W32744  15.218  29.975  11.580
61019W        W32745   3.985  11.806  14.233
61020W        W32746  17.038  17.199  11.352
61021W        W32747  32.871  30.820   2.953
61022W        W32748  25.416   5.040   3.757
61023W        W32749  34.940  30.354   0.570
61024W        W32750  23.223  29.391  14.948
61025W        W32751  31.705  44.564   5.134
61026W        W32752   5.235   2.567  12.610
61027W        W32753   0.935  18.250   3.316
61028W        W32754   9.279  18.420   0.096
61029W        W32755  36.865  36.856  10.674
61030W        W32756  18.423  19.528  13.131
61031W        W32757  38.594  33.988  13.613
61032W        W32758   0.281  32.852   2.384
61033W        W32759   9.301  22.831   5.061
61034W        W32760   0.346   5.211   4.126
61035W        W32761  30.396   8.175  14.302
61036W        W32762  43.507  20.045  11.202
61037W        W32763  16.223  43.466   2.231
61038W        W32764  42.145  36.151   4.624
61039W        W32765  39.383  38.807   2.032
61040W        W32766  15.363  37.507   3.662
61041W        W32767  33.982  22.795  13.985
61042W        W32768  38.553  39.612   0.471
61043W        W32769  20.472   9.337   3.696
61044W        W32770  30.982  34.339   2.857
61045W        W32771   5.893  27.565   0.250
61046W        W32772   5.169   6.658  12.542
61047W        W32773  27.998  29.889  13.381
61048W        W32774   8.424  42.087  13.555
61049W        W32775   5.912  18.387   3.520
61050W        W32776  37.506  28.569   1.203
61051W        W32777  40.423  23.912  13.045
61052W        W32778   2.237  42.957   2.239
61053W        W32779  12.263  12.821   4.760
61054W        W32780  40.420   3.625   2.196
61055W        W32781  28.613   6.798   0.957
61056W        W32782  28.106  23.967  14.419
61057W        W32783  29.114   2.923   3.790
61058W        W32784  33.452  27.723   4.604
61059W        W32785  24.597  32.901   0.045
61060W        W32786  13.654  15.954   1.679
61061W        W32787  27.735  31.665   0.152
61062W        W32788  21.127  35.141  11.999
61063W        W32789  25.380  36.937   4.196
61064W        W32790  27.114  37.567  11.127
61065W        W32791  39.887  24.427   2.660
61066W        W32792   9.342  17.367  11.042
61067W        W32793  34.493  24.327   4.192
61068W        W32794   8.822  22.059   1.837
61069W        W32795  36.914  33.915   4.073
61070W        W32796  29.873   6.946  12.501
61071W        W32797   2.951  26.541   0.409
61072W        W32798  20.340  26.277   2.280
61073W        W32799  19.319  10.871   2.795
61074W        W32800  12.274   0.425   3.822
61075W        W32801  39.425  41.452   1.005
61076W        W32802  39.897  24.690   3.653
61077W        W32803  26.571   9.394  12.367
61078W        W32804  39.484  22.792   2.806
61079W        W32805   8.773  28.593  11.483
61080W        W32806  16.687   7.932   3.252
61081W        W32807  19.288  13.715   2.979
61082W        W32808  44.413  41.425   2.474
61083W        W32809  37.813  44.459  10.619
61084W        W32810   6.878  12.773   2.192
61085W        W32811   9.177  38.027   0.020
61086W        W32812  19.713  31.453  12.450
61087W        W32813   0.408  32.352  11.684
61088W        W32814  20.012  44.409  14.987
61089W        W32815   2.774  43.379  13.428
61090W        W32816  41.896  15.648  11.224
61091W        W32817  20.728   9.770  12.158
61092W        W32818   1.269  13.386   1.709
61093W        W32819  27.425  33.462  13.828
61094W        W32820  12.264  37.061  13.873
61095W        W32821  10.640  13.296  14.944
61096W        W32822  42.021   2.814  11.987
61097W        W32823   1.991  33.363  11.451
61098W        W32824  42.432  43.541  12.792
61099W        W32825  28.168  24.714  10.454
61100W        W32826  33.454  18.773   3.117
61101W        W32827  15.818  30.428  10.376
61102W        W32828  23.517  26.123  11.969
61103W        W32829   1.412  41.938  13.800
61104W        W32830   9.212  30.015  14.022
61105W        W32831  38.904  24.557  10.690
61106W        W32832  12.869   0.437   5.011
61107W        W32833  38.826  43.578  13.972
61108W        W32834  33.781   7.207  14.240
61109W        W32835  32.818  14.658   3.607
61110W        W32836  31.418   3.990  14.331
61111W        W32837  14.416   3.731   3.348
61112W        W32838  41.138   7.862   3.701
61113W        W32839  41.594  20.933  13.876
61114W        W32840   1.026  32.176  11.887
61115W        W32841  10.785   7.140   3.557
61116W        W32842  10.172  38.306   1.569
61117W        W32843  14.590  34.006   1.399
61118W        W32844  18.360   2.476   1.990
61119W        W32845   4.709  27.455  12.006
61120W        W32846   5.767  17.769   2.673
61121W        W32847  12.814  11.791  12.608
61122W        W32848   7.173   6.401   4.290
61123W        W32849  42.308  38.942   0.501
61124W        W32850   9.028  12.072   5.076
61125W        W32851  32.859  25.289  10.632
61126W        W32852  40.957   2.963  12.526
61127W        W32853   4.954  23.531  11.609
61128W        W32854  13.127  30.542  11.366
61129W        W32855  11.745  22.172  10.758
61130W        W32856  36.474  31.894   4.178
61131W        W32857  43.437  28.357   2.373
61132W        W32858  28.518  42.816   0.176
61133W        W32859  27.087  14.990   1.774
61134W        W32860  39.709   8.170   0.243
61135W        W32861  23.218  29.433   0.945
61136W        W32862  23.989  10.323  13.015
61137W        W32863   8.145   6.718   0.914
61138W        W32864  10.546  37.194   3.679
61139W        W32865  17.285  25.199   2.407
61140W        W32866  32.556  32.079   2.678
61141W        W32867   4.430  14.737  14.338
61142W        W32868   9.389  26.543  11.346
61143W        W32869  31.684  18.046   2.841
61144W        W32870  39.305  23.546   4.083
61145W        W32871  20.695  11.243   2.743
61146W        W32872  37.259   5.628  11.630
61147W        W32873  14.301  35.545  13.214
61148W        W32874   0.756  20.669  13.680
61149W        W32875  29.171  37.612   4.944
61150W        W32876  10.178  11.255   2.215
61151W        W32877  18.402  23.126   0.957
61152W        W32878  30.562   2.891   4.495
61153W        W32879   7.181   2.279   3.074
61154W        W32880  41.970   9.754   0.769
61155W        W32881  29.741  10.594  12.948
61156W        W32882   9.060  13.605  13.393
61157W        W32883  30.882  19.179  13.027
61158W        W32884  43.296  38.979  11.624
61159W        W32885  42.732  35.341  14.336
61160W        W32886   4.454  36.104  12.919
61161W        W32887  13.661  33.546  14.096
61162W        W32888  26.522  17.342   4.531
61163W        W32889   8.708  22.805   0.182
61164W        W32890   1.838  43.485   0.311
61165W        W32891   6.974  12.065   2.388
61166W        W32892  30.067   1.521   0.815
61167W        W32893   5.662   5.768   4.612
61168W        W32894  38.766  21.211  12.064
61169W        W32895   2.774  43.901   2.765
61170W        W32896  16.604  28.841   0.827
61171W        W32897  18.995   1.270   2.786
61172W        W32898  43.310   6.840  10.140
61173W        W32899  44.012  36.594  14.504
61174W        W32900  32.512  25.219  10.219
61175W        W32901   2.479  32.136  10.879
61176W        W32902  30.853  44.731  14.296
61177W        W32903  15.113  44.487   1.334
61178W        W32904  29.520   9.079   4.718
61179W        W32905  22.754   1.227   2.670
61180W        W32906  20.725  35.889  12.520
61181W        W32907  25.183   3.156   0.345
61182W        W32908  16.616  38.330  13.308
61183W        W32909  27.002  41.749  12.587
61184W        W32910  26.657   5.217   0.817
61185W        W32911  31.411   3.226  11.729
61186W        W32912  34.070  34.163   0.482
61187W        W32913  20.701  21.542   3.660
61188W        W32914  26.947   6.961   0.407
61189W        W32915  17.351  40.775   0.816
61190W        W32916   9.858  35.897   3.611
61191W        W32917  21.787  17.804  10.728
61192W        W32918  15.311  14.371  13.362
61193W        W32919   4.509  12.355   2.282
61194W        W32920  25.813   1.501  13.526
61195W        W32921  30.009  13.340   3.916
61196W        W32922  30.602  40.357  10.762
61197W        W32923  15.583  16.149  12.248
61198W        W32924  30.962  13.382  10.581
61199W        W32925   4.798  19.244   0.969
61200W        W32926   0.705  43.147  14.861
61201W        W32927   0.457  21.440   1.406
61202W        W32928  19.776  25.576  14.811
61203W        W32929  18.178  16.681   3.617
61204W        W32930  18.137   6.399   3.348
61205W        W32931  28.095  22.822   4.200
61206W        W32932  34.401  29.681  12.332
61207W        W32933   9.424  19.375  14.002
61208W        W32934  30.384  23.779  11.047
61209W        W32935  43.869  32.152  14.384
61210W        W32936  19.761  39.288  14.871
61211W        W32937  32.186   7.951   3.576
61212W        W32938  17.285  31.725  13.487
61213W        W32939  11.083   6.713   1.836
61214W        W32940  20.074   1.560  12.147
61215W        W32941  35.311   3.797  13.591
61216W        W32942   6.640   8.713   2.878
61217W        W32943   2.437  38.279   0.214
61218W        W32944  17.196  37.324   0.929
61219W        W32945  25.030  29.320   5.044
61220W        W32946  35.094  14.044  10.697
61221W        W32947   7.998  25.953  12.111
61222W        W32948   4.170  13.715  14.497
61223W        W32949   5.920  41.568  14.222
61224W        W32950  39.360  22.735  10.858
61225W        W32951  40.766  15.244  12.065
61226W        W32952  41.363  24.626   3.376
61227W        W32953  37.532  25.039   3.090
61228W        W32954  17.067   2.410   3.874
61229W        W32955  18.415   2.269   5.053
61230W        W32956  10.572  26.971  11.919
61231W        W32957   0.775  21.087  11.489
61232W        W32958  21.798  10.782   3.721
61233W        W32959  17.639  21.712  13.092
61234W        W32960  16.376  43.019  14.998
61235W        W32961   5.713  22.067  13.513
61236W        W32962   0.036  42.577  11.441
61237W        W32963  42.336  38.356   2.714
61238W        W32964  12.401  43.302  11.121
61239W        W32965  33.181  11.584   0.882
61240W        W32966  19.831  11.317   1.095
61241W        W32967  27.675  28.528  14.583
61242W        W32968  10.713   1.838   1.459
61243W        W32969  41.297  37.974  12.545
61244W        W32970  21.307  19.050   3.649
61245W        W32971  13.168  16.539   1.357
61246W        W32972   9.620  39.367  10.750
61247W        W32973  40.533  39.441   1.708
61248W        W32974  19.201   0.659   3.616
61249W        W32975  23.570  32.988   1.125
61250W        W32976  15.647  41.799  13.346
61251W        W32977  10.316  44.965   1.333
61252W        W32978  30.113  29.733   0.248
61253W        W32979  43.933  17.006  12.796
61254W        W32980  35.987   5.286   0.720
61255W        W32981  39.438  42.773   4.671
61256W        W32982  40.038   7.438   1.098
61257W        W32983  37.781  28.407   0.802
61258W        W32984  31.041  20.064  12.027
61259W        W32985  17.394  26.849   4.299
61260W        W32986   8.835  22.987  12.064
61261W        W32987   3.593  38.937   1.482
61262W        W32988   9.515  20.320   0.433
61263W        W32989  10.217  15.895   4.411
61264W        W32990  22.218  26.413  11.968
61265W        W32991  19.723  10.621  10.546
61266W        W32992   4.938  42.768   0.487
61267W        W32993  32.335  32.528   3.322
61268W        W32994   3.168  27.403   4.194
61269W        W32995  22.542  43.952   3.477
61270W        W32996  26.049  33.730   2.341
61271W        W32997  25.107  31.273  14.631
61272W        W32998   7.129  32.184  10.605
61273W        W32999  12.845  36.801   0.271
61274W        W33000   6.290  12.096   4.794
61275W        W33001   2.463  44.357   2.762
61276W        W33002  22.581  12.299   1.863
61277W        W33003   5.770   0.905  12.366
61278W        W33004  20.959  20.293   2.748
61279W        W33005  11.790   0.780  14.138
61280W        W33006  35.853   9.945   1.699
61281W        W33007  11.294  34.965   3.162
61282W        W33008   9.200  20.303   4.866
61283W        W33009  44.399  31.656   3.944
61284W        W33010  10.718  25.361  12.889
61285W        W33011  35.423  32.644  10.928
61286W        W33012  35.338  22.924   4.135
61287W        W33013  10.924  26.557  11.232
61288W        W33014  25.920  13.186  12.447
61289W        W33015   8.746  40.750  13.045
61290W        W33016  20.785  29.132  12.333
61291W        W33017  33.005  12.915  12.351
61292W        W33018  16.304  18.675   3.150
61293W        W33019  16.709  33.563   2.125
61294W        W33020   7.657  11.686  14.498
61295W        W33021   6.864  35.355   1.816
61296W        W33022  30.876  31.273  12.205
61297W        W33023  23.482  20.664  14.417
61298W        W33024  42.509  31.065  14.649
61299W        W33025  27.579  32.550  14.792
61300W        W33026  37.514   4.958  14.814
61301W        W33027  22.747  11.856  10.558
61302W        W33028  28.622   6.218  13.135
61303W        W33029  27.526  31.242  14.962
61304W        W33030   5.027   5.375  10.972
61305W        W33031  29.623  32.447   4.516
61306W        W33032   0.975   7.456  14.881
61307W        W33033   3.431  21.261   4.111
61308W        W33034   5.843  10.360  12.949
61309W        W33035  39.453  16.245   1.418
61310W        W33036  32.976  17.257  10.855
61311W        W33037  37.291  22.324  12.871
61312W        W33038  13.930  11.752  14.613
61313W        W33039  33.712  34.858  13.944
61314W        W33040   3.031  10.131  11.197
61315W        W33041  16.615  39.534   0.343
61316W        W33042  33.408  22.745  12.571
61317W        W33043  22.440  14.084  12.065
61318W        W33044  40.021  33.846   3.984
61319W        W33045   0.920   2.132   4.167
61320W        W33046  41.092  27.409  14.571
61321W        W33047  44.231  39.980  14.455
61322W        W33048  38.917  26.769  14.483
61323W        W33049   3.198  29.481  14.231
61324W        W33050  12.840  43.578  11.079
61325W        W33051   3.963  11.609   0.227
61326W        W33052  20.807   4.275   4.596
61327W        W33053  15.869  31.209   5.075
61328W        W33054  24.937  43.721  12.032
61329W        W33055  30.721   3.471   1.436
61330W        W33056  27.118   6.280  10.367
61331W        W33057  41.055  19.920   3.536
61332W        W33058  18.155  35.428  14.655
61333W        W33059  29.044   5.832  13.083
61334W        W33060  32.408  39.470   3.764
61335W        W33061   1.765  36.632   2.715
61336W        W33062   1.972   5.510   4.097
61337W        W33063  32.997  43.222   1.951
61338W        W33064  37.119  26.257   0.309
61339W        W33065  33.881  26.917   0.379
61340W        W33066  10.406  44.099   5.083
61341W        W33067   6.859  25.497  12.435
61342W        W33068  32.021   1.296  10.575
61343W        W33069  40.801  17.354   0.783
61344W        W33070   4.764   1.283  12.868
61345W        W33071  24.566  34.672   2.639
61346W        W33072  36.613   4.930   4.572
61347W        W33073  18.170  18.676  13.140
61348W        W33074  22.058  15.469   2.014
61349W        W33075  28.553  42.486  11.514
61350W        W33076  42.029  11.841  14.215
61351W        W33077  36.062  43.819   1.411
61352W        W33078   0.920  40.553   3.550
61353W        W33079   2.984  21.750   0.675
61354W        W33080  35.846  21.047   1.687
61355W        W33081  41.849  42.037  11.522
61356W        W33082  14.622  34.307  14.709
61357W        W33083  30.595   4.810  13.602
61358W        W33084   0.343  33.684  13.992
61359W        W33085  17.342   8.277  12.588
61360W        W33086   0.778  38.478   0.018
61361W        W33087  37.027  11.405  12.113
61362W        W33088   7.498  44.321   3.143
61363W        W33089  34.467  28.060  11.005
61364W        W33090  38.878  38.294  13.830
61365W        W33091  17.639  14.213   3.393
61366W        W33092  20.363  17.273   0.802
61367W        W33093  29.658   8.267   1.196
61368W        W33094   7.349  11.886   4.659
61369W        W33095  11.768  19.716  14.403
61370W        W33096   9.891  33.975  11.935
61371W        W33097  26.641  25.178   3.190
61372W        W33098  12.783  38.893  10.728
61373W        W33099  42.794  11.251  13.394
61374W        W33100  15.511  40.942  14.876
61375W        W33101  14.022  28.698  11.152
61376W        W33102   9.304  32.851   1.056
61377W        W33103  42.815  23.434   2.633
61378W        W33104  22.842  42.788   3.757
61379W        W33105  13.040  11.847  14.843
61380W        W33106  15.049  25.742   4.093
61381W        W33107   0.351  27.228   0.772
61382W        W33108  24.913  39.042  11.005
61383W        W33109   6.334  10.125  13.864
61384W        W33110   2.123  14.819   1.391
61385W        W33111  26.562  15.780   4.043
61386W        W33112  34.448  35.667   4.270
61387W        W33113  29.037  36.973   3.118
61388W        W33114  40.833   4.508  11.711
61389W        W33115  37.381  30.942  14.998
61390W        W33116  34.296  38.082  14.025
61391W        W33117  43.857   2.228  12.155
61392W        W33118  21.978  19.365  13.809
61393W        W33119  32.936  16.802   0.036
61394W        W33120   6.720  33.939   3.287
61395W        W33121  13.986  11.927   4.504
61396W        W33122  29.931  39.549  11.214
61397W        W33123  34.539  38.526  13.359
61398W        W33124  27.995   0.756  12.581
61399W        W33125   4.853  42.161  13.132
61400W        W33126  12.775  12.706  12.117
61401W        W33127  30.249  27.454  14.446
61402W        W33128  14.720  10.052  14.321
61403W        W33129  27.557  12.348  10.643
61404W        W33130   8.634   7.232  11.478
61405W        W33131  39.082  25.475   3.763
61406W        W33132  28.996  23.464  14.387
61407W        W33133  38.141  39.378  11.015
61408W        W33134  36.573  40.921  14.428
61409W        W33135  29.237  36.403   4.352
61410W        W33136  34.025  36.907  11.943
61411W        W33137   7.745  11.383  14.918
61412W        W33138   0.044  25.930   3.739
61413W        W33139  15.704  20.334   1.803
61414W        W33140  12.278  31.016  14.530
61415W        W33141  18.990  17.134  12.459
61416W        W33142  32.504  25.641   3.362
61417W        W33143  37.360  35.477   2.177
61418W        W33144  14.933  20.692   2.346
61419W        W33145  17.137  32.213  14.478
61420W        W33146  16.959  41.399   1.247
61421W        W33147   4.942  34.124  12.069
61422W        W33148  35.079  11.639   9.856
61423W        W33149  42.077   8.778  10.955
61424W        W33150  44.750  39.167   4.060
61425W        W33151   9.349  40.769   4.596
61426W        W33152   4.022   2.362  11.013
61427W        W33153   0.732   5.939   2.982
61428W        W33154  19.548  34.250  14.611
61429W        W33155  30.168  40.486   1.921
61430W        W33156  12.857  40.900  12.028
61431W        W33157   2.935   1.996  10.552
61432W        W33158  10.352  19.590   5.149
61433W        W33159  42.349   9.405   1.904
61434W        W33160   7.478   1.826  13.455
61435W        W33161  13.200  27.452  14.022
61436W        W33162  31.238  29.235  10.573
61437W        W33163  19.816  15.911  11.986
61438W        W33164  34.104  21.010  11.302
61439W        W33165  20.108   2.784   0.983
61440W        W33166   1.229  26.220  11.602
61441W        W33167  14.818   7.925   1.261
61442W        W33168   6.660   8.438   5.143
61443W        W33169  12.268  11.819  14.292
61444W        W33170  11.786  25.089   2.767
61445W        W33171  21.489   0.492  11.332
61446W        W33172  30.059   5.124   4.188
61447W        W33173  30.620  10.772  11.958
61448W        W33174   8.410  20.200  12.542
61449W        W33175  32.540  17.182  12.132
61450W        W33176  38.999  28.438  12.115
61451W        W33177  24.370  12.670  14.429
61452W        W33178  18.519  19.724  11.100
61453W        W33179  17.848   9.829  14.504
61454W        W33180  39.565  20.699  11.974
61455W        W33181  42.039  30.904   1.570
61456W        W33182  16.834  43.618  12.344
61457W        W33183  39.482  39.772   3.121
61458W        W33184   3.867  37.376   1.859
61459W        W33185  28.608  26.228  13.417
61460W        W33186  19.540  44.200  14.926
61461W        W33187  18.539   8.743  14.206
61462W        W33188  33.475  12.148   4.056
61463W        W33189  32.157  25.615  10.201
61464W        W33190  19.787  25.093  14.513
61465W        W33191   6.112  17.299   1.978
61466W        W33192  44.338  24.776   3.180
61467W        W33193  33.849  31.980   1.171
61468W        W33194  18.636   0.682   3.115
61469W        W33195   5.959   9.934  12.641
61470W        W33196  25.092  12.118  11.264
61471W        W33197  10.940  40.348   2.991
61472W        W33198  34.653   3.439  12.211
61473W        W33199  25.595   3.888  13.487
61474W        W33200  18.356  26.477  12.433
61475W        W33201  38.532  24.502   0.315
61476W        W33202  16.483  29.620  14.306
61477W        W33203   7.337   3.368   3.144
61478W        W33204  30.236  15.694   0.967
61479W        W33205   0.673  34.972  10.554
61480W        W33206  18.928  11.769   2.659
61481W        W33207  40.538   9.796  10.374
61482W        W33208  30.776  26.591   1.431
61483W        W33209   3.296  27.390  12.170
61484W        W33210  38.409  30.969  14.792
61485W        W33211  14.756  12.196  13.949
61486W        W33212  10.236   2.045  10.531
61487W        W33213  16.697  11.104   4.174
61488W        W33214  39.314   3.623  14.400
61489W        W33215  37.795  24.645   3.304
61490W        W33216   1.885  26.459   1.816
61491W        W33217  30.694  15.582   2.217
61492W        W33218  44.394   5.245  14.319
61493W        W33219   0.919  43.853  14.340
61494W        W33220   9.159  37.839  14.405
61495W        W33221  29.022  30.609   2.399
61496W        W33222  10.736   8.929   0.240
61497W        W33223  42.458  11.109  12.967
61498W        W33224  19.858  38.387  13.623
61499W        W33225  22.247  36.477   2.783
61500W        W33226  14.162  36.616  11.997
61501W        W33227  26.637  38.429  13.374
61502W        W33228  31.138  28.945   0.371
61503W        W33229  17.687  31.517   4.618
61504W        W33230  17.475  32.007   4.359
61505W        W33231  23.263  25.656  11.838
61506W        W33232  21.223   4.197  11.822
61507W        W33233  15.567  17.461  11.115
61508W        W33234  10.429  32.341  12.852
61509W        W33235  10.414   4.967   1.719
61510W        W33236  19.139  40.851   2.460
61511W        W33237  11.688  35.661   0.920
61512W        W33238  19.775  37.002   0.862
61513W        W33239  42.333  11.190   3.906
61514W        W33240  32.405  14.570  14.892
61515W        W33241   0.063  41.787   0.971
61516W        W33242  16.213  39.771  11.741
61517W        W33243  20.663  12.401  14.386
61518W        W33244  11.901  17.696  14.729
61519W        W33245  42.300   5.143  12.506
61520W        W33246  20.083  33.968  12.005
61521W        W33247  28.643  17.296  14.413
61522W        W33248  29.991  17.038  10.557
61523W        W33249   1.903  24.281   0.910
61524W        W33250   1.931   3.396   1.877
61525W        W33251  22.733  44.420  13.569
61526W        W33252  17.150   8.740   0.761
61527W        W33253   4.898  29.652  10.773
61528W        W33254  33.626   0.641   0.961
61529W        W33255  27.933  37.517   4.566
61530W        W33256  12.582  35.317   2.862
61531W        W33257  22.615  31.763   0.115
61532W        W33258  10.858  42.293   3.317
61533W        W33259  29.947  39.277   1.312
61534W        W33260  15.522  16.254   3.738
61535W        W33261  37.814  10.415   3.837
61536W        W33262   4.592  40.557  12.625
61537W        W33263  23.299  23.161   4.096
61538W        W33264  14.174  27.460  11.413
61539W        W33265  15.794  26.996  10.726
61540W        W33266  19.243  39.900  12.129
61541W        W33267  28.220  36.125  14.935
61542W        W33268   6.875  30.415   3.334
61543W        W33269  17.484  36.937   0.723
61544W        W33270  21.508  39.099   3.145
61545W        W33271   0.189  28.271  14.337
61546W        W33272  23.299  44.295  13.815
61547W        W33273  43.493  38.221  12.473
61548W        W33274  19.042  11.429   1.421
61549W        W33275  42.691  38.952   2.291
61550W        W33276  42.288  12.282   1.398
61551W        W33277  39.028  22.960  11.180
61552W        W33278   3.836   8.123  13.649
61553W        W33279  15.468   9.179   4.218
61554W        W33280  21.247   4.695  12.019
61555W        W33281  13.591  25.312   3.245
61556W        W33282   9.205   1.928  10.411
61557W        W33283  31.225  39.899   0.735
61558W        W33284  12.588  15.026  10.806
61559W        W33285  11.725   4.401   0.824
61560W        W33286  40.958  41.110  12.672
61561W        W33287  22.831  15.759   9.934
61562W        W33288   6.262   2.267  11.174
61563W        W33289  33.799  32.865  12.105
61564W        W33290  29.417   2.255   1.760
61565W        W33291  18.786  32.926  11.243
61566W        W33292  42.580  13.287   4.290
61567W        W33293   2.320  42.354   4.632
61568W        W33294   1.666  38.921   4.463
61569W        W33295   5.623   6.610   4.295
61570W        W33296  41.409  23.466   2.394
61571W        W33297  37.514  29.428   4.160
61572W        W33298  10.786  44.468  11.677
61573W        W33299   7.706  37.782   4.433
61574W        W33300   3.812  21.342   4.446
61575W        W33301  32.266  42.540   4.608
61576W        W33302  34.052  22.739  14.884
61577W        W33303  21.004  34.424   1.857
61578W        W33304  44.019  14.254   0.675
61579W        W33305  33.951  35.359  13.418
61580W        W33306  17.838  11.122   1.872
61581W        W33307  36.776   8.990  12.906
61582W        W33308  22.012   4.669  13.112
61583W        W33309  15.271   8.427   3.281
61584W        W33310  34.131  10.453   4.292
61585W        W33311  13.820  18.545  13.429
61586W        W33312   7.080   7.369   9.730
61587W        W33313  29.439  31.187   2.735
61588W        W33314   0.051   5.690  10.385
61589W        W33315  10.891  17.728  13.829
61590W        W33316  19.975  43.776  13.198
61591W        W33317  13.338  23.086   4.717
61592W        W33318  33.312  39.294   1.753
61593W        W33319  13.659  29.364   2.871
61594W        W33320  33.459  32.773   4.911
61595W        W33321   6.785  30.047   0.352
61596W        W33322  23.808  14.645   9.663
61597W        W33323   5.863  11.295  14.848
61598W        W33324  36.812  38.912   3.231
61599W        W33325  26.480  44.335  11.313
61600W        W33326  39.323   7.352  14.110
61601W        W33327  29.107  19.393   0.366
61602W        W33328   9.305  18.122   4.524
61603W        W33329  37.740  18.241  10.397
61604W        W33330  42.359  14.751   4.251
61605W        W33331  13.598   3.101  10.433
61606W        W33332  21.494  44.986  11.481
61607W        W33333  38.556  23.262  12.996
61608W        W33334  31.174  41.929   3.102
61609W        W33335  22.580  23.937   1.280
61610W        W33336  31.536  24.272  13.866
61611W        W33337  31.540  43.418   1.491
61612W        W33338  14.776  30.602  12.503
61613W        W33339   6.648  35.992   2.471
61614W        W33340  20.231  30.858  13.585
61615W        W33341   4.012  42.446   2.465
61616W        W33342   9.593   8.886   3.743
61617W        W33343  26.504  33.151  11.181
61618W        W33344   3.948   9.238   4.464
61619W        W33345  17.250  29.188   2.900
61620W        W33346  31.312  13.690   1.867
61621W        W33347  25.983  40.770   4.074
61622W        W33348  12.918   8.764   2.421
61623W        W33349  33.365  31.061  10.396
61624W        W33350  20.559  31.447   4.157
61625W        W33351  35.979   8.287   1.262
61626W        W33352  33.804   6.523  11.581
61627W        W33353  20.511  14.820   2.662
61628W        W33354   5.043   5.862   1.791
61629W        W33355  35.957  43.163   3.489
61630W        W33356  20.579  16.170  11.546
61631W        W33357  29.633  41.901   2.853
61632W        W33358  16.643   4.118   2.960
61633W        W33359  23.015  20.441   3.617
61634W        W33360  29.748  27.585  11.690
61635W        W33361   3.832   7.167  11.320
61636W        W33362  31.354  40.677   3.253
61637W        W33363  20.355   4.972   4.935
61638W        W33364  16.323  22.506   0.444
61639W        W33365  17.120  26.703   4.721
61640W        W33366  18.718  25.205   1.424
61641W        W33367  40.466   8.706   2.610
61642W        W33368  38.396   8.390  14.582
61643W        W33369  11.456   3.389   0.982
61644W        W33370  14.640   8.119   1.714
61645W        W33371  30.980  10.829   0.423
61646W        W33372  29.957  40.963   4.402
61647W        W33373  16.549  22.473   4.574
61648W        W33374  29.715  39.270   4.281
61649W        W33375  13.752  22.726  13.887
61650W        W33376  15.610  34.206   2.119
61651W        W33377  20.408  13.941   1.725
61652W        W33378  41.089   1.204  14.276
61653W        W33379  31.279  31.607   1.419
61654W        W33380   8.886   6.921   4.257
61655W        W33381   8.818   7.869  14.939
61656W        W33382  13.255  34.376  14.239
61657W        W33383  39.012  19.209   2.349
61658W        W33384  28.871  36.050  10.580
61659W        W33385  27.826   2.229   0.402
61660W        W33386   2.293  32.151   1.723
61661W        W33387   2.666  41.033   0.844
61662W        W33388  15.715  26.044  13.495
61663W        W33389  37.502  44.234  13.073
61664W        W33390  21.831  40.076   2.165
61665W        W33391  42.752  18.629  12.072
61666W        W33392  40.934  24.045   3.609
61667W        W33393  17.812  15.807  12.416
61668W        W33394  38.971  10.427  11.713
61669W        W33395  33.159  26.605  14.965
61670W        W33396   3.681  29.650  11.971
61671W        W33397  22.574  30.651   4.192
61672W        W33398   3.997  15.501   5.413
61673W        W33399  31.452   8.067   1.818
61674W        W33400  36.322  19.303   1.416
61675W        W33401  22.506  41.592   0.590
61676W        W33402  15.111   7.283  12.395
61677W        W33403  40.878   4.993   9.900
61678W        W33404  32.848  24.597   1.275
61679W        W33405  33.586  23.505  13.653
61680W        W33406   9.424  23.340   4.991
61681W        W33407  33.555   5.398   2.418
61682W        W33408   5.861  32.675   4.481
61683W        W33409  40.853  26.614   4.567
61684W        W33410  34.109  15.729   1.255
61685W        W33411  14.573  31.669   1.098
61686W        W33412  14.062  25.483   1.410
61687W        W33413  32.337  29.988  12.909
61688W        W33414  11.777  34.385   0.469
61689W        W33415  10.636  37.834   0.285
61690W        W33416  41.326   8.836   5.040
61691W        W33417  11.690  17.999  13.322
61692W        W33418  16.140  33.855   4.059
61693W        W33419   2.485  35.856   2.790
61694W        W33420  44.954  43.965   4.316
61695W        W33421  22.504  40.015  10.940
61696W        W33422  22.950   9.585   1.124
61697W        W33423  43.740  15.698   2.498
61698W        W33424  19.658  23.294   1.472
61699W        W33425  23.463  13.107  14.446
61700W        W33426  35.417  24.603  13.796
61701W        W33427  34.881  21.144   9.964
61702W        W33428  39.780  28.446  11.106
61703W        W33429  32.457   6.414   2.270
61704W        W33430  37.879   0.838  14.286
61705W        W33431  44.652   0.301   0.048
61706W        W33432  27.199  36.659   3.040
61707W        W33433  25.538  17.050  12.645
61708W        W33434   7.337  30.027  11.576
61709W        W33435  37.030  42.459   1.491
61710W        W33436  33.366   2.452   1.830
61711W        W33437  30.530  42.264  11.055
61712W        W33438   7.671  17.740  12.331
61713W        W33439  39.854  29.058  10.720
61714W        W33440  40.760   7.282  14.047
61715W        W33441  25.508  13.111  13.899
61716W        W33442  14.725  39.400   1.911
61717W        W33443  17.084   4.331   2.566
61718W        W33444  31.080  23.575  12.390
61719W        W33445  22.261   0.334   3.845
61720W        W33446  34.150  41.380  14.794
61721W        W33447  43.357  42.040   2.839
61722W        W33448  43.473  30.137  12.685
61723W        W33449  28.442  24.716  12.935
61724W        W33450  27.984  27.022   0.475
61725W        W33451  37.600  26.798   0.387
61726W        W33452  40.995  31.162   1.368
61727W        W33453  28.187  41.303  11.178
61728W        W33454  40.031  35.926   3.102
61729W        W33455  31.597  35.963   3.340
61730W        W33456  16.151  37.194  10.245
61731W        W33457  13.080  21.133   3.575
61732W        W33458  33.924  17.653  10.564
61733W        W33459  37.489  43.353   4.709
61734W        W33460  42.005   3.049  13.945
61735W        W33461   7.817  11.733  12.848
61736W        W33462  38.846  38.938   4.122
61737W        W33463  44.435  32.864  13.299
61738W        W33464   1.830   7.713  14.230
61739W        W33465   2.860   0.888   4.824
61740W        W33466   8.881  31.005   2.154
61741W        W33467  18.387  42.848  13.546
61742W        W33468  10.965  30.200  12.314
61743W        W33469  11.672  12.536  11.479
61744W        W33470  37.928   8.759  12.145
61745W        W33471  20.378  43.456   0.789
61746W        W33472  21.063   2.846   4.059
61747W        W33473  12.319  36.263  11.941
61748W        W33474  44.390  44.556   4.384
61749W        W33475  35.040  12.275  13.715
61750W        W33476  31.034   7.812   1.614
61751W        W33477  44.857  15.082  11.038
61752W        W33478  44.474  11.666   5.034
61753W        W33479  20.628  22.159   1.868
61754W        W33480  41.071  14.369   1.863
61755W        W33481   4.031   5.423  13.659
61756W        W33482  36.744  32.479   1.360
61757W        W33483  38.592  33.637  13.240
61758W        W33484  34.312  37.661   4.384
61759W        W33485  10.346  31.066   4.514
61760W        W33486  35.693  19.917   3.316
61761W        W33487  11.171  31.616   3.745
61762W        W33488  40.841  24.657   3.260
61763W        W33489  21.269  39.728  13.020
61764W        W33490   4.976  37.456   4.154
61765W        W33491   3.368  18.695   1.155
61766W        W33492  20.991  26.081   1.884
61767W        W33493  19.187   7.227   3.513
61768W        W33494  19.776   0.527  10.936
61769W        W33495   7.338   1.915   0.376
61770W        W33496  43.935  25.631   1.820
61771W        W33497  28.491  42.906  14.373
61772W        W33498  32.144   7.240   0.385
61773W        W33499   4.134  34.792  11.160
61774W        W33500  38.950   0.267  14.978
61775W        W33501   6.877  27.882   0.382
61776W        W33502  19.676  26.499   2.616
61777W        W33503  25.304  13.289   3.441
61778W        W33504  22.351   2.457  13.862
61779W        W33505   3.389   4.250  12.424
61780W        W33506  19.783  27.225  11.899
61781W        W33507   4.118   0.877  14.800
61782W        W33508  39.036  42.281   2.263
61783W        W33509  23.013  30.609   4.457
61784W        W33510  23.304  24.068   3.725
61785W        W33511  11.191  24.530   9.921
61786W        W33512  14.956  34.041   4.899
61787W        W33513  27.213   8.804   2.780
61788W        W33514  23.908  38.799  11.032
61789W        W33515   2.329  19.737   4.176
61790W        W33516  44.376  22.756  13.297
61791W        W33517   4.967   1.310   3.626
61792W        W33518  26.682   4.440  10.634
61793W        W33519   8.321  23.492   3.632
61794W        W33520   6.613  41.265   1.023
61795W        W33521  28.171  42.052  14.007
61796W        W33522  29.943   1.522   2.675
61797W        W33523  34.625  44.807   1.059
61798W        W33524   6.332  25.750   3.744
61799W        W33525  25.986  31.487  11.677
61800W        W33526   8.658  32.894   4.201
61801W        W33527  34.440  41.516   3.157
61802W        W33528  21.413   0.319   2.679
61803W        W33529  38.398  43.308   4.693
61804W        W33530  16.280  35.385   2.303
61805W        W33531   9.286  28.231  13.916
61806W        W33532  21.419   1.596   2.346
61807W        W33533  43.738  42.956  12.076
61808W        W33534  38.016  26.015   1.385
61809W        W33535  26.822  23.090  11.557
61810W        W33536  28.478  44.487  14.720
61811W        W33537   1.818  15.766  12.530
61812W        W33538  29.085  15.721  12.692
61813W        W33539   1.849  38.300   1.860
61814W        W33540  30.327  37.882   1.762
61815W        W33541  22.585  15.076  12.151
61816W        W33542  24.664  28.518  11.576
61817W        W33543  41.218  44.126   2.862
61818W        W33544   1.437  15.122  11.584
61819W        W33545  41.040  26.137  13.243
61820W        W33546   2.329  44.663  10.171
61821W        W33547   8.813   9.880   4.799
61822W        W33548   0.000  42.726   3.833
61823W        W33549  21.196  10.740  14.825
61824W        W33550  42.542   2.016   2.809
61825W        W33551  39.606  14.554   1.925
61826W        W33552  31.401  19.338  10.454
61827W        W33553   8.797   0.357  11.694
61828W        W33554  41.564   1.486  14.447
61829W        W33555  42.155  19.450  12.375
61830W        W33556  27.153  40.899  13.283
61831W        W33557  42.360  22.638   1.344
61832W        W33558  10.370  17.782   4.591
61833W        W33559  41.692  37.171  14.512
61834W        W33560  43.745  18.754   3.761
61835W        W33561  24.591   4.195   3.502
61836W        W33562  18.735  29.423  14.912
61837W        W33563  25.317  25.836   4.945
61838W        W33564   5.207  10.867  11.342
61839W        W33565  37.858   8.421  11.208
61840W        W33566  21.525  35.178   2.655
61841W        W33567  36.007   3.445   4.695
61842W        W33568  44.030  30.080   0.642
61843W        W33569  11.846  31.099   2.445
61844W        W33570   0.490   0.983  11.200
61845W        W33571  39.314  42.011  12.382
61846W        W33572  16.505   6.827   3.165
61847W        W33573  43.976   2.734  12.035
61848W        W33574  26.311  17.686   3.739
61849W        W33575  15.351  13.707  13.890
61850W        W33576  16.785  41.930   1.864
61851W        W33577  36.599  32.065   1.674
61852W        W33578  34.394  22.640  11.032
61853W        W33579  14.932  25.582  12.455
61854W        W33580  30.377  24.644  11.617
61855W        W33581   3.538   3.500   0.851
61856W        W33582  23.281  27.964   3.372
61857W        W33583  30.540  25.512   0.052
61858W        W33584  18.482  19.241   1.532
61859W        W33585  37.924  28.948   1.259
61860W        W33586  31.533  44.339  12.409
61861W        W33587  22.009  19.465   0.869
61862W        W33588  18.251  40.367   3.881
61863W        W33589  33.552  38.613   3.716
61864W        W33590  16.805   0.012   1.849
61865W        W33591  10.705  34.069   3.568
61866W        W33592   2.224  13.347  12.437
61867W        W33593  42.269  20.012  12.414
61868W        W33594  32.071  14.169  14.749
61869W        W33595   5.823   3.794   3.927
61870W        W33596  28.103  22.159   4.229
61871W        W33597  18.119  14.780  10.739
61872W        W33598  18.582  16.137   0.452
61873W        W33599  42.742   9.769   2.785
61874W        W33600  31.864  44.872  14.284
61875W        W33601  18.723  43.800   3.736
61876W        W33602  17.232  22.088  13.711
61877W        W33603  31.476  12.292   1.923
61878W        W33604   0.475  43.999   2.617
61879W        W33605  16.134  43.818  11.600
61880W        W33606  26.623  43.961   5.162
61881W        W33607  18.222  26.483  11.908
61882W        W33608  19.217  16.522   3.100
61883W        W33609  23.642  17.524  11.989
61884W        W33610  11.662  43.394  10.652
61885W        W33611  15.719  12.090   4.065
61886W        W33612  25.607   3.000   0.010
61887W        W33613  35.770   0.001  11.498
61888W        W33614   9.773   3.820  12.153
61889W        W33615  14.807  38.771   1.312
61890W        W33616  12.365  17.166   2.448
61891W        W33617  14.903  29.049   1.026
61892W        W33618  21.609  13.731  10.516
61893W        W33619   5.932  29.482   0.214
61894W        W33620  27.755  22.697  11.488
61895W        W33621  19.485  33.686   3.162
61896W        W33622  14.312  24.569   0.407
61897W        W33623  14.679  10.236   0.048
61898W        W33624   9.347   8.351   3.808
61899W        W33625  33.355   1.707   4.139
61900W        W33626  44.321  41.497   9.951
61901W        W33627  30.486  24.721   5.086
61902W        W33628  39.148  26.885   3.364
61903W        W33629  22.201  28.852   2.667
61904W        W33630  26.201   4.451   0.699
61905W        W33631  18.691  28.910   2.288
61906W        W33632  39.389  36.906   3.598
61907W        W33633  16.055   7.141  14.917
61908W        W33634  28.759  15.485  12.103
61909W        W33635  44.786  10.699   2.353
61910W        W33636   4.894  20.067   2.373
61911W        W33637   6.936  35.297   3.795
61912W        W33638   7.994   0.323  12.314
61913W        W33639   4.787  41.798   2.777
61914W        W33640  30.254  31.394   2.838
61915W        W33641  43.374  12.748   4.147
61916W        W33642   8.906   3.942   4.188
61917W        W33643  35.363  32.573   2.177
61918W        W33644  13.069  21.662   3.986
61919W        W33645  28.498  13.079  14.508
61920W        W33646  26.007   6.850  13.160
61921W        W33647  13.668  22.382   2.588
61922W        W33648  27.236   6.205  11.650
61923W        W33649  38.730   2.527  10.448
61924W        W33650  26.768  28.650   1.014
61925W        W33651   7.279   5.935   2.707
61926W        W33652  43.801  36.455  12.910
61927W        W33653  17.633  22.052  14.882
61928W        W33654  14.531  15.289  12.435
61929W        W33655  10.080  10.833   3.278
61930W        W33656  31.811   2.358   1.699
61931W        W33657  14.716  14.292  12.506
61932W        W33658  33.379  23.271   2.835
61933W        W33659   5.539   3.795   4.371
61934W        W33660   3.037  36.743  11.189
61935W        W33661  40.412  10.898   4.582
61936W        W33662  19.484   0.923   0.608
61937W        W33663   1.703  34.518   2.748
61938W        W33664   4.639  28.200   3.759
61939W        W33665  10.914  41.056   0.416
61940W        W33666   7.465  31.977   0.540
61941W        W33667  26.654  41.904   0.799
61942W        W33668  26.429  22.451  13.285
61943W        W33669   1.748  38.135  12.108
61944W        W33670  18.490   4.518  11.579
61945W        W33671  21.049  14.783   1.917
61946W        W33672  11.368  24.722  14.370
61947W        W33673  26.416  33.027  14.548
61948W        W33674  38.011  39.301  14.240
61949W        W33675  23.990  37.915  11.986
61950W        W33676  33.379   1.344   3.748
61951W        W33677  32.908  12.241   2.621
61952W        W33678   6.752  22.194  10.709
61953W        W33679  18.543  34.600   0.379
61954W        W33680   7.930  38.933  12.059
61955W        W33681  11.370  21.884   3.842
61956W        W33682   4.280   8.450   2.561
61957W        W33683  43.421   5.560   3.251
61958W        W33684  12.110  29.327  11.926
61959W        W33685  38.037  18.964  14.508
61960W        W33686  13.578   0.008  10.436
61961W        W33687  28.238  21.395   3.729
61962W        W33688  32.827   0.721   0.784
61963W        W33689  40.545  30.805  12.184
61964W        W33690  19.148  42.825  11.821
61965W        W33691  22.186  12.276   2.222
61966W        W33692  30.407  37.453  13.861
61967W        W33693  34.739  36.065  14.800
61968W        W33694  36.970   6.393   2.737
61969W        W33695  43.357  25.530   3.106
61970W        W33696   4.881   1.238  10.839
61971W        W33697  16.592  28.653   1.332
61972W        W33698  41.235  26.422  14.455
61973W        W33699  44.637   3.517  12.969
61974W        W33700  43.497  10.212  14.323
61975W        W33701   0.665   2.103  10.852
61976W        W33702  28.675  13.464  13.619
61977W        W33703   6.293  37.600   1.724
61978W        W33704  34.325  42.213   3.835
61979W        W33705  41.336  13.635   3.343
61980W        W33706  43.551  24.705   3.612
61981W        W33707  28.417  10.255  14.985
61982W        W33708  33.335  11.458  13.066
61983W        W33709  24.599  25.135   3.937
61984W        W33710  28.236  36.920  10.749
61985W        W33711  36.839   9.705   2.636
61986W        W33712  16.358  41.234   2.978
61987W        W33713  34.381  26.797  14.815
61988W        W33714  31.003   6.474  12.464
61989W        W33715  19.841  26.088   3.309
61990W        W33716  32.988  22.525   1.822
61991W        W33717   7.395  38.328  11.415
61992W        W33718  36.491  38.649  14.198
61993W        W33719  20.112  35.439  14.197
61994W        W33720  44.280  17.440   0.473
61995W        W33721  30.239  22.809   2.710
61996W        W33722  15.854   8.684  10.581
61997W        W33723  26.969   1.915   4.461
61998W        W33724  41.379   9.437  14.483
61999W        W33725  37.513   9.725   9.966
62000W        W33726  29.200  14.381   2.241
62001W        W33727  18.328   8.401   2.163
62002W        W33728   7.810  38.001  11.533
62003W        W33729  39.324  43.487   0.210
62004W        W33730  33.894  15.643  12.606
62005W        W33731  33.011  32.079   4.908
62006W        W33732  15.750  43.501   2.739
62007W        W33733  16.625  16.109   4.393
62008W        W33734  43.918  27.679  13.768
62009W        W33735  23.140  17.146   4.854
62010W        W33736   4.723  19.575   0.552
62011W        W33737  41.400  13.928   0.496
62012W        W33738  43.223  21.487  13.807
62013W        W33739  40.935  34.921  11.558
62014W        W33740  40.501  11.300   0.200
62015W        W33741  18.128   0.746  12.816
62016W        W33742  44.179  22.583  12.819
62017W        W33743   5.936   4.764   3.161
62018W        W33744  27.140  17.077   3.303
62019W        W33745   7.128  27.068   1.054
62020W        W33746  16.654  31.031   0.765
62021W        W33747   0.457   0.289   4.022
62022W        W33748   9.088  40.879   2.111
62023W        W33749  20.986  35.293  13.832
62024W        W33750  43.459  32.831   2.830
62025W        W33751  19.450  38.398  11.468
62026W        W33752  29.100   7.723  13.369
62027W        W33753  22.971  35.496   4.606
62028W        W33754   1.997   9.153   3.215
62029W        W33755  44.321  12.062  12.966
62030W        W33756  13.938  42.856   1.795
62031W        W33757   6.504  21.311   2.074
62032W        W33758  33.373  34.031  12.486
62033W        W33759  40.575  29.935  12.888
62034W        W33760   5.371  31.978   0.464
62035W        W33761  29.497  31.381  10.755
62036W        W33762   3.191   0.291   3.642
62037W        W33763  23.794  13.691  13.421
62038W        W33764   5.951  42.277  12.423
62039W        W33765  34.325  12.636   3.359
62040W        W33766  10.720  43.106  11.885
62041W        W33767  29.106  12.850  10.853
62042W        W33768  43.982  24.003   2.700
62043W        W33769  43.502  32.959   0.732
62044W        W33770   2.966   7.797  12.462
62045W        W33771  33.374  25.537   0.477
62046W        W33772  26.154   0.365   1.115
62047W        W33773  30.481   8.242   1.002
62048W        W33774   4.725  14.252  12.151
62049W        W33775   2.766  30.705  14.966
62050W        W33776  11.871  33.098   1.919
62051W        W33777  13.756  25.287  12.065
62052W        W33778  18.201  20.720  13.855
62053W        W33779   9.213  18.081  14.179
62054W        W33780   8.807  24.191  11.487
62055W        W33781   2.427   3.693  12.932
62056W        W33782  15.824  14.220  13.305
62057W        W33783  24.742  37.589   1.180
62058W        W33784  23.239   5.815   4.306
62059W        W33785   7.390  10.885  11.041
62060W        W33786  30.681  16.350  12.659
62061W        W33787  27.956   9.387   4.741
62062W        W33788   2.170   9.940  14.958
62063W        W33789   7.790  41.332  11.615
62064W        W33790  14.798  27.467  14.870
62065W        W33791  44.794  26.038  11.539
62066W        W33792  37.322  24.539  13.672
62067W        W33793  33.223  10.608   4.269
62068W        W33794  16.900   4.244   1.281
62069W        W33795  31.551   6.343  11.170
62070W        W33796  10.841   7.552   5.055
62071W        W33797  19.240  33.557  10.546
62072W        W33798  21.199  13.701  11.728
62073W        W33799  13.736  30.930   2.407
62074W        W33800  39.847  12.407   0.245
62075W        W33801  20.472   3.854   0.354
62076W        W33802  14.628  12.218  13.449
62077W        W33803  39.381  40.549  14.994
62078W        W33804  38.973  17.888  12.981
62079W        W33805   9.745  23.438  13.775
62080W        W33806  43.154  28.370  14.050
62081W        W33807  36.592  28.987  12.893
62082W        W33808   2.483  15.209   4.597
62083W        W33809   4.856   7.842   2.252
62084W        W33810  28.710   3.073  12.676
62085W        W33811  39.973  35.196   4.886
62086W        W33812   2.357  30.904   3.176
62087W        W33813  42.741  34.358   3.437
62088W        W33814  31.593   8.686  14.838
62089W        W33815  27.632   6.454   2.329
62090W        W33816  35.362  14.170   0.953
62091W        W33817   9.420  11.774  12.157
62092W        W33818  40.496   3.290   0.819
62093W        W33819  16.881  25.064  13.849
62094W        W33820  28.032  40.202  11.277
62095W        W33821  44.771  31.607   0.696
62096W        W33822  43.405   8.508  13.288
62097W        W33823  41.502  22.695   1.782
62098W        W33824  40.639  20.597   0.880
62099W        W33825  44.745  40.747  11.050
62100W        W33826   1.422  13.345  12.065
62101W        W33827  38.536  16.310  11.285
62102W        W33828  11.845  44.877  12.276
62103W        W33829  43.053   6.816  14.879
62104W        W33830  42.510  28.084   4.151
62105W        W33831   6.257  23.070  13.867
62106W        W33832  24.060   1.806  13.323
62107W        W33833   0.691  19.712  11.574
62108W        W33834  30.200  38.536  12.573
62109W        W33835  23.702  43.526  13.417
62110W        W33836  23.844  18.237   0.692
62111W        W33837   0.167   7.011  13.372
62112W        W33838   9.640  43.505  12.470
62113W        W33839   8.936  34.543   0.293
62114W        W33840  40.380  21.097   2.701
62115W        W33841  29.869   4.967  12.480
62116W        W33842  39.988  27.604  11.471
62117W        W33843  24.678  24.086   4.426
62118W        W33844  16.534  15.180   0.460
62119W        W33845  27.717  22.473   4.149
62120W        W33846  19.074  33.393  13.017
62121W        W33847  19.373  34.900   4.122
62122W        W33848  10.642   8.821  13.499
62123W        W33849  37.084  33.767  14.896
62124W        W33850  12.828  40.357   4.480
62125W        W33851  39.129  34.843   3.821
62126W        W33852   4.475  32.339   1.762
62127W        W33853  41.358  31.969  12.098
62128W        W33854   8.416  28.106   1.609
62129W        W33855  30.032  35.336   0.243
62130W        W33856  24.059  19.147   4.054
62131W        W33857   1.437   8.210  14.915
62132W        W33858  43.759   3.282  14.434
62133W        W33859  12.406  17.819   4.702
62134W        W33860  35.782  33.487   1.197
62135W        W33861   6.175   3.572  10.762
62136W        W33862  33.429  34.770   2.649
62137W        W33863  30.098  20.079   3.274
62138W        W33864  39.709  17.286   2.561
62139W        W33865  15.166  23.529  13.592
62140W        W33866  11.139   3.732   0.454
62141W        W33867  44.105  37.538  10.737
62142W        W33868   6.239  13.553   5.066
62143W        W33869  23.452  40.415  14.961
62144W        W33870  14.927  27.315  12.979
62145W        W33871  43.217   2.693  12.621
62146W        W33872  41.279  34.704   4.256
62147W        W33873  31.128  27.842  11.491
62148W        W33874  20.208   1.761  14.006
62149W        W33875  23.376  15.588  11.949
62150W        W33876  34.349  31.335  10.759
62151W        W33877   3.786  17.198   0.991
62152W        W33878  20.153   5.694  10.756
62153W        W33879   8.262   6.543   0.040
62154W        W33880  35.624  25.184  10.740
62155W        W33881  39.797   8.924   2.322
62156W        W33882  44.543  30.540   2.270
62157W        W33883  30.901   0.485  13.548
62158W        W33884   3.009  30.535   4.989
62159W        W33885  21.562   0.986  10.729
62160W        W33886  12.132  39.935   2.672
62161W        W33887  31.067  13.347  11.083
62162W        W33888   1.274  13.127  10.612
62163W        W33889  12.048   0.486  13.109
62164W        W33890  20.658   9.319  12.364
62165W        W33891  15.145  27.941   3.319
62166W        W33892   5.607  30.376  12.454
62167W        W33893  26.305  14.562  11.657
62168W        W33894  25.143  12.099   4.451
62169W        W33895   5.444   3.950   9.957
62170W        W33896  38.237   4.924  13.430
62171W        W33897  14.201  17.242   4.110
62172W        W33898   5.448   5.303  10.652
62173W        W33899  18.813  22.078  11.998
62174W        W33900  15.073  35.947   3.744
62175W        W33901   9.638  22.286   1.292
62176W        W33902  14.847  19.597  13.235
62177W        W33903   1.969  17.277  12.458
62178W        W33904   7.824   6.318   0.847
62179W        W33905  43.752  15.088   2.818
62180W        W33906  36.582  13.897   1.939
62181W        W33907  43.490   3.228  13.981
62182W        W33908  17.122  13.319  11.584
62183W        W33909  13.348  42.974   0.284
62184W        W33910   7.260   8.229  14.616
62185W        W33911  36.199  16.740   0.347
62186W        W33912  44.547  30.181   5.081
62187W        W33913  19.958   6.515   0.235
62188W        W33914  25.172  34.238   0.388
62189W        W33915  15.983   5.250  12.555
62190W        W33916   7.662  24.086   1.935
62191W        W33917  42.492  16.217   0.906
62192W        W33918  12.575  22.621   2.316
62193W        W33919   1.943  41.887  13.860
62194W        W33920  34.961  17.913   3.415
62195W        W33921   7.642  31.128  10.891
62196W        W33922  32.929   7.322   1.423
62197W        W33923  11.838   7.364  13.864
62198W        W33924   5.635  41.997  13.499
62199W        W33925  22.741  23.874  11.947
62200W        W33926  41.878  12.374   4.972
62201W        W33927  44.965  22.637   3.730
62202W        W33928  16.235  43.405  13.239
62203W        W33929  18.029  19.965   0.578
62204W        W33930   0.962  22.488   2.829
62205W        W33931   9.857  43.411  14.049
62206W        W33932  42.490   6.459  12.949
62207W        W33933  40.985  12.892   1.263
62208W        W33934  15.021  21.194   4.565
62209W        W33935   2.171  44.658   3.043
62210W        W33936   5.440  42.267  12.527
62211W        W33937  26.304  35.483  11.082
62212W        W33938  21.539  32.505  11.144
62213W        W33939  37.391  19.171  12.669
62214W        W33940  29.133  20.042  12.487
62215W        W33941  43.035  16.836  10.455
62216W        W33942  11.812   9.709  11.488
62217W        W33943  29.464  25.920   0.061
62218W        W33944  35.110  24.290   1.328
62219W        W33945  29.567  40.277  14.747
62220W        W33946  12.804  38.013   0.705
62221W        W33947   2.479  38.332   3.064
62222W        W33948  39.267  43.984   4.029
62223W        W33949  10.671  42.289  13.698
62224W        W33950  10.796  18.694   2.710
62225W        W33951   4.732  35.558  13.073
62226W        W33952  26.274  22.820   4.908
62227W        W33953   9.510  40.130  14.912
62228W        W33954  22.633  16.200  14.023
62229W        W33955  28.917  34.947  14.993
62230W        W33956  10.429   9.625  12.174
62231W        W33957  31.971  39.010   4.086
62232W        W33958  25.594  11.706   2.336
62233W        W33959  32.510   7.893  10.772
62234W        W33960   8.447  23.859  13.838
62235W        W33961  29.607  19.415  10.345
62236W        W33962  39.463  43.825  11.944
62237W        W33963  11.709  35.623  11.001
62238W        W33964  17.681  30.551   3.593
62239W        W33965  41.231  25.199   2.677
62240W        W33966  21.168  30.412   1.942
62241W        W33967  35.117  23.574  12.354
62242W        W33968  30.550  33.474   2.332
62243W        W33969   0.384  10.473   0.165
62244W        W33970  10.706  33.542  11.105
62245W        W33971  19.665  36.515  12.551
62246W        W33972   2.944  27.389  11.551
62247W        W33973  23.401   4.764  10.705
62248W        W33974   1.941  13.741   2.728
62249W        W33975   5.895   8.747  13.539
62250W        W33976  38.811  40.106  10.626
62251W        W33977   0.761   7.752   3.373
62252W        W33978   5.698   7.258  11.620
62253W        W33979  13.749  20.977   0.548
62254W        W33980  24.754  12.887  10.176
62255W        W33981   1.291  23.418   1.330
62256W        W33982  29.442  31.677   3.688
62257W        W33983  20.639  17.918   3.082
62258W        W33984  17.103  13.943  13.719
62259W        W33985   3.646  26.174   2.676
62260W        W33986  34.048   3.349   1.432
62261W        W33987   9.751  19.988   0.772
62262W        W33988   9.190  20.165  14.768
62263W        W33989   4.235  35.548   2.778
62264W        W33990  23.717   7.692   2.620
62265W        W33991  20.075  25.487   3.911
62266W        W33992  20.707  27.508  12.026
62267W        W33993  27.732  13.088  13.382
62268W        W33994   8.154  24.120  10.668
62269W        W33995   5.384  27.489  10.751
62270W        W33996  38.853  17.713  11.529
62271W        W33997  16.815  16.043   0.896
62272W        W33998  10.230  31.350   2.860
62273W        W33999  28.555  37.860   1.356
62274W        W34000  31.963   5.288   4.304
62275W        W34001  26.426  42.284  13.276
62276W        W34002  42.508  17.471  13.446
62277W        W34003  16.334  31.550  10.481
62278W        W34004  41.044  44.232  11.188
62279W        W34005  33.273   0.993   0.832
62280W        W34006  38.488  43.798   0.319
62281W        W34007  28.067  12.198  11.038
62282W        W34008  41.253  16.867  11.609
62283W        W34009  10.199  21.526   2.448
62284W        W34010  33.064  27.570   4.309
62285W        W34011  42.667   6.868  11.930
62286W        W34012  29.579  25.709   0.968
62287W        W34013  34.850  29.171  10.278
62288W        W34014  10.131  10.098  12.125
62289W        W34015  18.898  23.581   0.400
62290W        W34016   3.785  10.294  10.083
62291W        W34017  11.312  40.620  14.116
62292W        W34018  42.036  39.852  13.080
62293W        W34019  40.730  24.456  10.972
62294W        W34020  27.524  24.448   3.744
62295W        W34021   3.663  25.162  11.117
62296W        W34022  31.555  33.559  10.579
62297W        W34023   2.890  39.445  14.434
62298W        W34024  15.636  39.421   4.628
62299W        W34025  29.778  19.372   2.704
62300W        W34026   5.048  24.097   3.315
62301W        W34027  14.796  19.282  14.884
62302W        W34028  14.798  34.045   0.911
62303W        W34029  37.609   3.444  13.318
62304W        W34030  34.133   6.577  14.747
62305W        W34031   2.505  15.584   1.605
62306W        W34032  11.276  30.955   0.311
62307W        W34033  31.935  34.430  10.755
62308W        W34034  23.448  42.935  12.069
62309W        W34035  19.625  14.946   3.603
62310W        W34036  34.900  21.481   0.960
62311W        W34037  32.653  30.592  10.922
62312W        W34038  39.427  16.365  12.455
62313W        W34039  10.603   9.308  14.340
62314W        W34040  29.094  27.828   3.186
62315W        W34041  43.887  21.832   4.733
62316W        W34042  33.595  30.643  14.756
62317W        W34043  32.540  36.657  13.446
62318W        W34044   3.792   6.283   4.651
62319W        W34045  36.116   6.472   2.848
62320W        W34046   6.217  13.903  12.573
62321W        W34047  41.302  11.053  13.430
62322W        W34048  38.476  30.908   0.313
62323W        W34049   3.615  10.319   2.034
62324W        W34050  40.751  30.593   4.212
62325W        W34051   5.297  41.869  13.110
62326W        W34052  21.074  38.389  14.132
62327W        W34053  39.914  40.485   2.184
62328W        W34054  30.549  25.928   4.182
62329W        W34055  41.418   8.829   0.297
62330W        W34056  28.529  33.550   4.442
62331W        W34057   6.647  21.954   4.181
62332W        W34058  37.069   4.237   0.901
62333W        W34059  20.509  27.412  14.958
62334W        W34060  38.015   2.721  13.388
62335W        W34061   7.700  25.017   0.518
62336W        W34062  17.566  17.130  12.846
62337W        W34063  18.646  23.578   0.912
62338W        W34064  40.211  42.282   2.888
62339W        W34065  27.608   3.442  14.741
62340W        W34066  26.159  18.351  12.449
62341W        W34067   7.645  27.741   0.958
62342W        W34068  42.484  44.410   1.820
62343W        W34069  20.814  43.449  13.495
62344W        W34070  31.353   3.302   3.170
62345W        W34071  19.896  23.720  11.883
62346W        W34072  18.697   3.221  13.540
62347W        W34073  25.935  10.720  11.427
62348W        W34074   5.043   5.265   0.296
62349W        W34075  12.319  14.606  10.964
62350W        W34076  14.262  17.089   3.116
62351W        W34077   0.019  36.322  10.741
62352W        W34078   6.345  13.244   5.500
62353W        W34079  16.979  42.508  11.647
62354W        W34080   8.652  17.161  14.917
62355W        W34081  40.769   9.143   0.015
62356W        W34082   9.887  41.852   4.368
62357W        W34083  27.193  25.011   3.361
62358W        W34084  11.129  30.633  12.631
62359W        W34085  30.627   6.871   0.786
62360W        W34086   6.960  19.247   0.466
62361W        W34087   3.270   2.324  11.412
62362W        W34088  39.140  27.504  14.867
62363W        W34089   8.264   6.341  12.491
62364W        W34090  25.436  11.119   1.380
62365W        W34091   5.485   5.194  11.152
62366W        W34092  28.791  20.451  12.441
62367W        W34093   5.786  28.654  11.979
62368W        W34094  28.733   9.259  14.946
62369W        W34095  21.271   7.402  10.777
62370W        W34096   2.542   0.992  11.581
62371W        W34097   8.301  29.709  13.378
62372W        W34098  23.907  23.706   5.310
62373W        W34099  29.511  31.152  11.225
62374W        W34100  43.745  35.876  14.014
62375W        W34101   0.311   5.382  10.722
62376W        W34102  26.995  15.274  13.535
62377W        W34103   3.754  16.928  13.471
62378W        W34104  14.682  24.089   1.726
62379W        W34105  22.677   3.766   2.644
62380W        W34106   8.811  17.215  14.024
62381W        W34107  24.177   6.623   1.916
62382W        W34108   0.388  37.480   3.321
62383W        W34109  35.524  34.069   4.656
62384W        W34110  17.610  30.537   1.018
62385W        W34111   5.273   6.727  11.087
62386W        W34112  32.109   4.280   2.382
62387W        W34113  36.678   9.924  12.892
62388W        W34114  32.047   0.241   1.732
62389W        W34115  29.532   5.210  14.036
62390W        W34116  36.321  34.024  11.160
62391W        W34117  32.361  16.361  11.733
62392W        W34118  34.521   0.504  13.085
62393W        W34119  17.657  31.533  14.535
62394W        W34120  17.859  19.815   1.228
62395W        W34121  34.158  22.153   0.767
62396W        W34122   0.406  39.888  12.392
62397W        W34123  26.679  12.332  13.453
62398W        W34124  40.261  30.175   3.126
62399W        W34125  38.683   7.255   0.928
62400W        W34126  41.442  14.199  12.849
62401W        W34127   6.744  22.752  12.039
62402W        W34128  22.963  24.020   3.139
62403W        W34129  35.548  11.255  12.499
62404W        W34130  29.999  12.322  11.249
62405W        W34131   0.439   1.374   3.337
62406W        W34132  39.837   7.742   1.945
62407W        W34133  32.151   1.474  11.597
62408W        W34134   9.493  17.584   0.930
62409W        W34135  11.343  15.137  11.968
62410W        W34136  13.301  41.497   2.232
62411W        W34137   0.720  19.727  13.992
62412W        W34138   7.672  34.363  14.315
62413W        W34139   6.293  31.158  14.119
62414W        W34140  40.418  40.377  14.557
62415W        W34141   7.447   7.915  12.391
62416W        W34142  26.942  32.959   0.930
62417W        W34143  24.111  38.400  13.940
62418W        W34144  41.565  27.836   0.350
62419W        W34145  17.195  10.871   3.229
62420W        W34146  16.553  11.085  11.384
62421W        W34147  24.752  11.645  12.617
62422W        W34148  38.807   7.383   0.387
62423W        W34149   5.427  23.719  10.722
62424W        W34150  35.495  10.391  14.882
62425W        W34151  40.128  37.911  13.615
62426W        W34152  42.798  25.882   2.037
62427W        W34153   8.106   6.016  12.120
62428W        W34154   8.592   7.370  10.608
62429W        W34155   3.792  24.632   1.936
62430W        W34156   0.431   2.384   3.219
62431W        W34157  40.188  35.675  13.555
62432W        W34158  10.513  25.713   2.831
62433W        W34159  12.827  38.853  12.486
62434W        W34160   4.510   6.921  14.843
62435W        W34161   7.313   9.866   0.899
62436W        W34162  37.846  16.804   4.487
62437W        W34163  40.761  25.067  11.081
62438W        W34164   5.917  31.434  10.665
62439W        W34165  13.706   8.676   1.909
62440W        W34166  39.093  42.391  12.894
62441W        W34167  40.806  33.041  11.565
62442W        W34168  10.107   0.432  13.468
62443W        W34169   0.556  27.646  11.642
62444W        W34170  13.410  42.723   3.247
62445W        W34171   7.693  39.832   4.556
62446W        W34172  13.175  20.008  14.797
62447W        W34173  29.374   4.422   4.982
62448W        W34174  19.452  30.031  14.393
62449W        W34175  38.889   0.996  12.305
62450W        W34176   3.333  10.077  12.575
62451W        W34177  41.746  16.646  11.525
62452W        W34178  21.177  32.430  12.305
62453W        W34179   2.804  41.965  13.430
62454W        W34180  18.511  11.837  13.458
62455W        W34181  22.994   4.794   4.186
62456W        W34182  10.178   7.968  13.908
62457W        W34183  43.727  43.498  13.065
62458W        W34184  42.967  19.041  10.600
62459W        W34185  38.472  21.228   1.043
62460W        W34186  39.946  24.649  10.627
62461W        W34187  14.194  19.038   0.777
62462W        W34188  26.153   9.399  13.958
62463W        W34189   4.513  25.035  10.224
62464W        W34190  33.992  42.763  14.993
62465W        W34191  27.766  28.428   0.603
62466W        W34192   8.870  28.009   1.341
62467W        W34193  28.802  42.586   4.157
62468W        W34194   0.489  21.013   4.166
62469W        W34195  26.189   3.502   3.262
62470W        W34196  34.274  25.020  14.522
62471W        W34197  43.903  26.383   2.292
62472W        W34198  22.909  14.385   5.072
62473W        W34199   5.942   3.043  14.288
62474W        W34200  32.625  30.544   4.259
62475W        W34201  15.529  29.134   3.052
62476W        W34202  41.446  42.689  11.612
62477W        W34203  23.505  25.406  13.199
62478W        W34204   8.750  16.387  11.645
62479W        W34205   1.064  26.596   2.463
62480W        W34206  16.240  22.199  10.291
62481W        W34207  32.490  27.570  11.549
62482W        W34208   8.601  34.098   0.338
62483W        W34209  42.625  34.711  14.850
62484W        W34210  43.987  41.295   2.179
62485W        W34211  38.958  21.931   1.169
62486W        W34212   6.758  42.298  13.911
62487W        W34213   1.074  28.994   5.119
62488W        W34214   8.855  27.409  11.540
62489W        W34215  30.180   3.192  13.605
62490W        W34216  12.445  23.581   2.856
62491W        W34217  14.615  44.004   4.356
62492W        W34218  33.723  40.925   2.379
62493W        W34219  14.638  17.682   2.301
62494W        W34220  40.256  12.774  11.130
62495W        W34221   2.971   0.329  13.557
62496W        W34222  19.454   3.776   1.311
62497W        W34223  24.797  37.797   3.736
62498W        W34224  40.881  24.269  11.457
62499W        W34225  12.435  19.215   1.430
62500W        W34226   5.829  35.027   0.175
62501W        W34227  17.293  44.768  11.906
62502W        W34228  12.825  37.933  13.776
62503W        W34229  16.255   1.790   1.806
62504W        W34230   9.679   7.760   2.488
62505W        W34231   6.871   9.079   1.847
62506W        W34232  40.454  11.586  10.406
62507W        W34233  21.324  18.271  12.559
62508W        W34234  36.338  20.449  10.739
62509W        W34235  16.921  10.637  14.430
62510W        W34236  41.796  34.945   0.214
62511W        W34237  17.237  38.442   1.871
62512W        W34238  16.083  15.862   4.956
62513W        W34239  32.926  24.910  13.810
62514W        W34240  42.434  33.540  12.039
62515W        W34241  39.511  37.270  12.700
62516W        W34242  27.105  38.376  11.645
62517W        W34243  17.198  36.069   3.634
62518W        W34244  18.004  37.851   2.740
62519W        W34245  30.464  35.290  14.970
62520W        W34246  39.253   3.347  12.382
62521W        W34247  32.899  20.506   2.650
62522W        W34248  19.105  36.882  13.979
62523W        W34249  33.811  27.513  13.494
62524W        W34250  11.210   4.678  11.384
62525W        W34251  43.357  32.683  11.165
62526W        W34252  37.663  30.534  14.822
62527W        W34253  27.165  19.317  14.592
62528W        W34254   0.862  32.403  11.441
62529W        W34255  33.527   7.786  13.919
62530W        W34256  39.272  10.174  12.690
62531W        W34257   3.102   8.675   4.081
62532W        W34258  35.718  40.109  14.883
62533W        W34259  16.130   2.510  14.042
62534W        W34260   9.540   5.823   1.142
62535W        W34261  11.794  16.060  13.285
62536W        W34262  32.446  32.814   4.734
62537W        W34263  36.041  43.066  12.031
62538W        W34264  24.247  32.003   2.780
62539W        W34265  24.960  38.356   1.673
62540W        W34266  22.618  22.661  11.184
62541W        W34267  12.136   1.071  10.800
62542W        W34268   9.805  43.123   1.314
62543W        W34269  34.365  42.981  10.161
62544W        W34270  23.688   8.584   0.040
62545W        W34271  16.706   6.853  13.345
62546W        W34272  41.440  11.804   4.553
62547W        W34273  30.551   0.504  11.929
62548W        W34274  13.005  29.059  10.968
62549W        W34275  29.190  36.340  13.934
62550W        W34276  41.045  39.745  11.093
62551W        W34277  33.526  17.686  14.240
62552W        W34278   1.882   7.482  14.811
62553W        W34279  21.918   2.833   1.214
62554W        W34280  44.551  32.725  14.337
62555W        W34281  15.686  10.267   4.647
62556W        W34282  38.611  12.380  14.858
62557W        W34283  28.449   1.009  12.462
62558W        W34284  41.454  12.295   4.356
62559W        W34285   1.206   0.445   1.052
62560W        W34286  18.330  43.031   0.424
62561W        W34287  19.466   5.131   2.464
62562W        W34288  16.560   8.800   2.146
62563W        W34289   5.817   5.607   0.927
62564W        W34290  27.908   4.303  14.263
62565W        W34291  24.201  25.643  11.584
62566W        W34292   4.308  44.076   2.604
62567W        W34293  14.661  36.572  13.799
62568W        W34294   6.767   6.856   1.729
62569W        W34295  12.602  11.963  11.083
62570W        W34296  27.657  28.146  10.707
62571W        W34297  23.469  35.650  12.511
62572W        W34298  11.368  12.790   1.946
62573W        W34299   5.160  36.518  10.668
62574W        W34300  25.585  42.380  14.218
62575W        W34301  29.516  39.346  11.450
62576W        W34302  44.089  44.393   2.903
62577W        W34303   7.912   6.634   0.427
62578W        W34304  27.348  39.099  12.022
62579W        W34305  18.757  41.499  13.537
62580W        W34306  14.554  40.503   4.603
62581W        W34307   2.353   9.222   0.217
62582W        W34308  14.170  38.294   3.324
62583W        W34309  33.892  30.860   0.802
62584W        W34310  32.871  22.156   4.600
62585W        W34311  25.052  39.373   3.718
62586W        W34312  11.120  18.532   4.456
62587W        W34313  30.944  12.379   0.377
62588W        W34314  30.595  37.624   1.407
62589W        W34315  15.238  43.919  11.649
62590W        W34316   9.699   6.150   4.732
62591W        W34317  27.670   3.851   1.143
62592W        W34318  19.558  37.890   3.581
62593W        W34319  44.780  22.320  11.877
62594W        W34320  34.543  26.395  12.436
62595W        W34321   9.061  17.136  12.388
62596W        W34322  20.000   1.488   0.266
62597W        W34323   5.820  26.539   1.715
62598W        W34324  22.027  33.487   0.880
62599W        W34325   6.365   3.895   9.826
62600W        W34326   2.669  30.285   4.071
62601W        W34327  40.258  36.230  13.338
62602W        W34328  32.861  24.730   2.244
62603W        W34329  29.220  12.381   0.507
62604W        W34330  43.864  29.231   3.258
62605W        W34331  42.315  43.140   0.651
62606W        W34332  17.067  26.567   2.221
62607W        W34333  44.538  10.129   0.851
62608W        W34334  42.329  38.009   3.293
62609W        W34335  12.362   7.542   4.877
62610W        W34336  43.942  33.905  13.398
62611W        W34337   5.330   0.749   0.794
62612W        W34338  21.269  34.568  13.304
62613W        W34339  31.448  40.554  12.068
62614W        W34340  28.923  12.651  12.048
62615W        W34341  33.489  14.157   0.990
62616W        W34342  26.169  39.082   0.383
62617W        W34343  42.853   0.923   0.654
62618W        W34344  36.789   8.277  14.955
62619W        W34345  30.006  15.937   2.667
62620W        W34346  25.217  40.792   0.956
62621W        W34347  44.947   6.532   2.880
62622W        W34348  27.861   5.218   3.737
62623W        W34349  12.628  30.692  11.529
62624W        W34350  37.853  19.210  12.470
62625W        W34351   9.197  18.466  12.529
62626W        W34352  14.024  27.435   2.711
62627W        W34353  14.405  21.755   2.655
62628W        W34354  26.971   4.818  14.480
62629W        W34355  22.797   6.213  13.850
62630W        W34356  24.664  11.682   3.333
62631W        W34357   1.768  31.492  11.873
62632W        W34358   2.261  15.779  13.796
62633W        W34359  18.371   7.645  12.189
62634W        W34360   1.763  20.656   3.678
62635W        W34361   4.168  32.338   2.223
62636W        W34362  35.530   5.007  14.082
62637W        W34363   6.949   7.726  14.547
62638W        W34364   9.744  43.274   3.150
62639W        W34365  21.032  40.661  11.963
62640W        W34366   0.420  30.043   4.126
62641W        W34367  29.658  32.506   1.795
62642W        W34368   0.332  13.647   1.191
62643W        W34369  36.680   1.259   0.504
62644W        W34370  23.492  42.903  10.738
62645W        W34371  30.566  40.293   0.635
62646W        W34372   2.411  20.235  12.052
62647W        W34373   4.774   3.209   0.249
62648W        W34374  34.934  21.471  11.190
62649W        W34375  18.105  32.459  14.269
62650W        W34376  25.686   0.160   2.370
62651W        W34377   3.298  10.327   4.593
62652W        W34378  36.734   2.289   4.068
62653W        W34379   6.235   7.582  11.033
62654W        W34380  16.726   6.301   3.158
62655W        W34381  14.388  39.022  11.953
62656W        W34382  40.886  29.196   4.379
62657W        W34383  25.510  41.262   0.024
62658W        W34384  12.771   6.288   3.099
62659W        W34385  25.164  30.340   1.472
62660W        W34386  30.737  34.490   1.507
62661W        W34387  31.802  14.906   3.733
62662W        W34388   6.715  14.178   3.685
62663W        W34389  34.999  10.722   4.611
62664W        W34390  31.758  19.046  11.484
62665W        W34391   2.382  23.457  14.903
62666W        W34392  44.635  16.229  12.294
62667W        W34393  16.020  36.521  10.968
62668W        W34394  10.190  26.400   0.407
62669W        W34395  35.261  35.546   0.321
62670W        W34396  38.292   5.351  13.101
62671W        W34397  42.284  29.896   2.406
62672W        W34398  11.166  32.578   4.476
62673W        W34399  23.466  11.174  10.430
62674W        W34400   1.306  22.641   0.374
62675W        W34401  14.085  32.834  13.904
62676W        W34402  29.156  37.920   4.152
62677W        W34403  21.201  15.343   2.238
62678W        W34404  19.090  25.746   4.338
62679W        W34405  17.745  27.496   0.070
62680W        W34406  13.561  20.465   0.522
62681W        W34407   6.463  35.962  12.954
62682W        W34408  38.948  30.719   4.832
62683W        W34409  19.330  32.978  11.232
62684W        W34410   3.172  20.618  13.102
62685W        W34411  18.921   9.745  11.986
62686W        W34412  18.346  33.957   4.714
62687W        W34413  16.161  16.255  11.547
62688W        W34414   0.584  30.455  11.610
62689W        W34415  41.321  31.484  14.469
62690W        W34416   4.739   5.639   0.470
62691W        W34417   0.630  37.035  11.050
62692W        W34418  42.447  41.979  14.341
62693W        W34419  23.886  31.527   2.275
62694W        W34420  13.804  41.352  12.883
62695W        W34421  22.837  38.006  13.985
62696W        W34422  19.685  43.780   2.063
62697W        W34423  22.121  26.479   3.341
62698W        W34424  24.057  28.989  14.778
62699W        W34425  11.189  32.489  13.518
62700W        W34426  18.658  35.720  13.044
62701W        W34427  29.988  32.917  12.476
62702W        W34428  28.118  11.631  14.949
62703W        W34429  35.843  26.145  12.272
62704W        W34430  38.881   9.779  12.809
62705W        W34431  13.637   9.402  11.900
62706W        W34432   5.126  28.529   1.741
62707W        W34433  33.119  25.527   0.982
62708W        W34434  40.247  41.515   4.081
62709W        W34435  32.526  40.839   2.386
62710W        W34436   1.531   0.661  12.998
62711W        W34437  17.006   3.386   3.565
62712W        W34438  41.339  28.869   0.707
62713W        W34439   0.380  18.765  11.671
62714W        W34440  43.748  20.384  14.477
62715W        W34441  32.653  36.986   1.916
62716W        W34442  20.990  28.047   3.098
62717W        W34443  31.388  42.907   4.634
62718W        W34444  23.927  21.717   3.854
62719W        W34445   1.483  41.067  14.075
62720W        W34446  28.343  12.604  11.189
62721W        W34447  12.800  16.302  11.498
62722W        W34448  28.364  34.464  13.983
62723W        W34449  12.876  28.546  13.477
62724W        W34450  17.560  20.011  12.819
62725W        W34451  21.451  30.212  12.902
62726W        W34452  21.187  34.694   2.257
62727W        W34453   1.689  37.800   3.371
62728W        W34454  21.164  33.394   5.155
62729W        W34455  32.864  35.842  14.511
62730W        W34456   7.892  20.006  12.480
62731W        W34457   5.652   3.685   0.795
62732W        W34458  25.709  18.552  14.946
62733W        W34459   8.309  16.106   0.449
62734W        W34460   5.833   6.719   2.750
62735W        W34461  21.709   3.020  12.303
62736W        W34462  31.348  38.946  11.180
62737W        W34463  18.632  32.194   5.226
62738W        W34464  10.800  39.404   3.914
62739W        W34465   5.246  42.392   1.654
62740W        W34466  11.805  29.007   0.867
62741W        W34467  43.513  33.379  12.821
62742W        W34468   1.463  17.650   3.355
62743W        W34469  16.525  39.229   1.712
62744W        W34470  35.989   8.340  13.437
62745W        W34471  10.376  39.543  12.134
62746W        W34472  11.420  38.542   2.346
62747W        W34473   4.195  10.500   2.892
62748W        W34474  16.684  39.411  12.455
62749W        W34475  13.335  19.168   4.497
62750W        W34476   5.778  21.807   0.093
62751W        W34477  29.188  38.993  14.400
62752W        W34478  22.454  40.518   3.374
62753W        W34479  25.655   2.046  11.202
62754W        W34480  15.034  25.378  14.261
62755W        W34481   4.795  18.504   2.934
62756W        W34482  15.163  29.480  11.162
62757W        W34483  33.053  43.763  10.118
62758W        W34484  28.665   1.438  11.516
62759W        W34485  41.524  25.099  11.427
62760W        W34486  25.983  28.596  11.992
62761W        W34487  38.298   4.784  10.832
62762W        W34488  11.548  16.893   3.820
62763W        W34489   1.326  22.454  12.461
62764W        W34490  40.481  28.490  14.844
62765W        W34491  29.474   1.527  14.662
62766W        W34492  40.858  35.102  14.014
62767W        W34493   2.742  29.488  10.761
62768W        W34494  18.790  28.897   3.585
62769W        W34495  33.533  31.634  14.406
62770W        W34496  11.633  18.651   1.819
62771W        W34497   8.217   2.332   3.229
62772W        W34498  19.300  21.958   0.189
62773W        W34499  32.417   2.360  13.956
62774W        W34500  11.273  27.986   2.099
62775W        W34501  31.369  24.552   2.158
62776W        W34502  17.754   1.050  13.064
62777W        W34503  17.030  43.535   3.251
62778W        W34504   2.395  16.878  10.434
62779W        W34505   8.892  21.219  11.011
62780W        W34506   3.233  28.202   3.666
62781W        W34507  37.421  20.798   2.657
62782W        W34508  38.052  29.524   2.352
62783W        W34509  34.956  37.614   3.971
62784W        W34510   9.173  34.389  12.353
62785W        W34511  36.189   3.416   4.217
62786W        W34512   4.393  36.139  11.465
62787W        W34513  37.870  37.900   3.113
62788W        W34514  12.822  44.457   4.291
62789W        W34515  11.330  38.495  11.114
62790W        W34516   2.856  19.118  13.987
62791W        W34517   6.411  22.249  11.640
62792W        W34518  21.242  32.328   4.991
62793W        W34519   7.254  29.801   0.352
62794W        W34520  22.884   3.291  13.945
62795W        W34521  11.162  34.314   4.637
62796W        W34522   6.855  28.991   0.310
62797W        W34523  19.803   3.923  14.389
62798W        W34524  31.994  38.379   2.891
62799W        W34525  22.443  13.987   3.399
62800W        W34526  36.558   9.582  11.180
62801W        W34527  27.291  38.764   4.070
62802W        W34528  16.084   3.368   3.181
62803W        W34529  27.120  32.449  14.449
62804W        W34530  14.652  13.340  14.758
62805W        W34531  37.802   9.868   3.271
62806W        W34532  30.424  30.732  11.089
62807W        W34533  15.750  21.052  12.540
62808W        W34534   5.636   1.560  13.509
62809W        W34535  19.741   7.211   0.313
62810W        W34536  36.921   3.601   4.841
62811W        W34537   5.681  11.522  10.693
62812W        W34538  22.767  22.646  12.940
62813W        W34539  11.622  31.084   1.257
62814W        W34540  27.674  27.588   2.920
62815W        W34541  35.992  14.631   3.214
62816W        W34542  29.429  20.812  11.222
62817W        W34543  16.207  43.174   0.957
62818W        W34544   1.673  16.860  12.455
62819W        W34545  29.168  11.320   2.280
62820W        W34546  19.323   5.209  11.602
62821W        W34547  38.749   9.399   3.717
62822W        W34548  39.957  10.906   0.157
62823W        W34549   0.843   8.329   4.150
62824W        W34550   3.285  29.017   4.133
62825W        W34551  39.637  15.055   1.886
62826W        W34552  37.823  42.961  14.863
62827W        W34553   0.470   5.673  14.786
62828W        W34554  33.499  25.107  13.107
62829W        W34555   8.250  18.165  14.347
62830W        W34556  28.659   7.844   0.479
62831W        W34557  44.944  24.503   1.241
62832W        W34558  30.556  22.991  13.486
62833W        W34559  26.793  34.409   2.287
62834W        W34560  40.710   1.767   5.052
62835W        W34561   3.133  17.587   2.787
62836W        W34562  34.024  23.069   4.390
62837W        W34563  31.635  41.118   0.803
62838W        W34564  33.405  29.659   1.387
62839W        W34565  16.811   4.765   1.078
62840W        W34566   6.224  11.814   4.358
62841W        W34567   9.799   9.317   0.162
62842W        W34568  20.513  15.403   4.187
62843W        W34569  30.269  17.122  13.966
62844W        W34570  10.286   0.265   0.841
62845W        W34571   7.334  13.634  10.445
62846W        W34572  21.196  20.299   2.262
62847W        W34573  43.194   2.949   0.704
62848W        W34574  15.344   3.246  11.561
62849W        W34575  25.528   7.007   3.717
62850W        W34576  34.970   4.805  10.349
62851W        W34577  30.175  40.500   4.302
62852W        W34578  29.572  13.568   3.687
62853W        W34579  32.357  44.365  11.464
62854W        W34580  19.792  13.680   1.261
62855W        W34581   8.602  30.957  12.981
62856W        W34582   0.962  41.782  11.064
62857W        W34583   1.335  14.035  10.646
62858W        W34584  21.533  14.047  14.265
62859W        W34585  28.910  24.577   3.878
62860W        W34586  24.038  27.124  10.280
62861W        W34587  22.030  15.534   4.226
62862W        W34588  24.296   2.061   4.420
62863W        W34589  43.281  26.573   1.669
62864W        W34590  32.531  12.651  13.782
62865W        W34591  28.943  29.856  14.545
62866W        W34592  25.099   6.166   1.799
62867W        W34593  42.956  21.148   0.907
62868W        W34594  21.932  33.990   0.954
62869W        W34595   8.621  43.540  10.734
62870W        W34596   0.273  30.435   2.916
62871W        W34597  18.326  19.040  14.345
62872W        W34598   2.984  34.139   3.612
62873W        W34599  36.168   8.050   4.166
62874W        W34600  26.268  36.360  12.602
62875W        W34601  31.856   1.011   3.215
62876W        W34602  38.850  44.405   2.673
62877W        W34603  25.517   4.759  10.238
62878W        W34604   5.493  38.754   1.652
62879W        W34605  34.875   0.955  13.915
62880W        W34606   0.576  10.757  11.980
62881W        W34607   9.801  23.224   2.138
62882W        W34608  36.639  36.376  11.487
62883W        W34609   7.938   8.398  14.941
62884W        W34610   0.171  33.476  11.146
62885W        W34611  15.517   8.456   2.815
62886W        W34612  10.896  23.472   0.966
62887W        W34613  37.558  11.652   0.384
62888W        W34614  14.776  37.048   1.881
62889W        W34615   2.144  25.056   0.447
62890W        W34616  33.959  22.478  10.580
62891W        W34617   1.352  35.309  12.937
62892W        W34618  23.506  36.872  11.061
62893W        W34619  19.652  39.528  12.158
62894W        W34620   6.632  29.047   2.299
62895W        W34621  41.920   5.977   0.261
62896W        W34622  12.939  34.726   1.800
62897W        W34623  41.796   6.237   2.450
62898W        W34624   4.868   3.212  12.468
62899W        W34625   8.153  11.702   3.088
62900W        W34626  27.457  22.476  14.837
62901W        W34627   8.739  21.153  12.368
62902W        W34628   0.574  33.122  12.063
62903W        W34629  32.268  31.195   1.636
62904W        W34630  18.665   0.786   2.209
62905W        W34631   9.942  33.731   1.723
62906W        W34632   1.659  29.703  12.935
62907W        W34633  19.247   7.643   2.450
62908W        W34634  25.087  10.965   1.814
62909W        W34635  26.529  19.000  13.069
62910W        W34636   9.598  29.985  13.612
62911W        W34637  27.117  11.553   0.896
62912W        W34638   2.755  28.497   4.366
62913W        W34639  43.491  28.569   1.137
62914W        W34640  23.866  33.684  11.661
62915W        W34641  15.337  25.118  14.785
62916W        W34642  19.130  41.965  12.371
62917W        W34643  30.620   4.870  13.083
62918W        W34644  10.853  13.375   2.648
62919W        W34645  33.158  21.305   1.376
62920W        W34646  38.809  11.868  14.902
62921W        W34647  35.866  33.202   4.458
62922W        W34648  22.654  38.124   0.026
62923W        W34649   5.865  22.712  12.055
62924W        W34650  14.298  23.625  11.075
62925W        W34651  23.953  29.920   0.752
62926W        W34652  28.015  25.555  11.918
62927W        W34653   2.185  40.541   1.471
62928W        W34654  35.845  28.389  14.795
62929W        W34655  41.444   0.409   3.633
62930W        W34656  42.214  12.160  13.866
62931W        W34657   3.391  14.090  13.034
62932W        W34658  30.923   4.624   0.745
62933W        W34659   1.703  40.920  13.642
62934W        W34660   2.740  25.179  13.994
62935W        W34661  32.970  34.924  13.591
62936W        W34662  32.844   7.601  13.373
62937W        W34663  32.937   2.285  13.909
62938W        W34664  29.983  23.956  12.948
62939W        W34665   1.394  44.140  11.599
62940W        W34666   3.353  21.361   0.047
62941W        W34667  17.700  29.970   4.809
62942W        W34668  31.074  24.248   0.832
62943W        W34669  30.994  29.833   4.130
62944W        W34670  15.257   7.915   3.342
62945W        W34671   4.133  29.525   3.884
62946W        W34672  29.661  26.875   1.797
62947W        W34673  11.259   7.169   1.979
62948W        W34674  16.005  22.814   3.694
62949W        W34675  38.548  36.244  10.622
62950W        W34676  30.648   6.830   1.321
62951W        W34677  12.049   6.616   3.308
62952W        W34678  34.388  37.117  13.456
62953W        W34679   1.872  12.131   4.278
62954W        W34680  22.691   9.309  14.316
62955W        W34681   1.228  11.661  11.691
62956W        W34682  43.369  20.937  13.062
62957W        W34683  20.206  43.457   4.210
62958W        W34684  30.896  28.323  11.474
62959W        W34685  12.839  31.825  10.712
62960W        W34686  15.584  33.145  14.958
62961W        W34687   5.841  25.201   1.702
62962W        W34688   0.160   2.981   2.331
62963W        W34689  29.005  30.102   2.280
62964W        W34690  13.683  31.434   0.682
62965W        W34691  38.933  10.160   0.304
62966W        W34692  11.712  14.340   2.927
62967W        W34693   7.110   9.758   2.435
62968W        W34694  39.527   1.283  13.826
62969W        W34695  24.995  27.036  12.545
62970W        W34696  32.845   5.833   0.618
62971W        W34697  36.400  33.590   0.257
62972W        W34698  28.600  28.162   4.103
62973W        W34699  41.100   8.290   0.064
62974W        W34700  39.985  44.747   0.511
62975W        W34701  10.185  39.591  14.964
62976W        W34702  24.981   9.550  13.656
62977W        W34703  34.877   8.872  10.602
62978W        W34704   1.041  43.766  11.591
62979W        W34705  13.320  39.261   0.331
62980W        W34706  35.773  29.120  14.551
62981W        W34707  23.996   1.453   1.052
62982W        W34708  25.508  20.596  14.455
62983W        W34709  13.229  14.776  10.540
62984W        W34710  39.073   1.780   3.615
62985W        W34711   3.725  10.295   3.696
62986W        W34712  27.068  31.214  10.937
62987W        W34713  10.818  16.573  13.832
62988W        W34714  34.309   3.811  13.475
62989W        W34715  26.900  44.591  11.392
62990W        W34716  16.299  27.707  12.338
62991W        W34717  39.458  30.027   4.964
62992W        W34718   1.497   9.933   2.348
62993W        W34719   6.143  15.802   0.814
62994W        W34720  44.463  40.272   5.076
62995W        W34721  24.957  30.373  11.241
62996W        W34722  37.591  33.806   4.624
62997W        W34723  17.711  18.820   2.958
62998W        W34724  30.765   2.727   3.060
62999W        W34725  31.511  24.679   4.027
63000W        W34726   8.835   0.253   2.191
63001W        W34727  37.497  41.232  10.586
63002W        W34728  42.359  38.361   4.702
63003W        W34729   7.265  20.667  11.535
63004W        W34730   0.282  15.394   2.728
63005W        W34731  38.546  12.357  13.949
63006W        W34732  41.397  33.943   3.630
63007W        W34733  28.441  13.839   4.284
63008W        W34734  31.979  40.934   4.529
63009W        W34735  17.169  15.583  10.508
63010W        W34736  20.167  44.499   4.113
63011W        W34737  19.199   8.125  14.376
63012W        W34738  22.576  10.791   0.689
63013W        W34739  44.223  42.727  10.431
63014W        W34740  29.865  37.652  12.544
63015W        W34741  27.467   9.837  10.911
63016W        W34742  30.165   8.285  14.876
63017W        W34743  32.431  14.846  12.887
63018W        W34744  19.065  10.804  13.787
63019W        W34745  30.361   0.048  11.889
63020W        W34746  14.098  42.821  13.923
63021W        W34747  22.710  25.162  10.414
63022W        W34748  31.684  35.790   1.813
63023W        W34749  14.721   4.379   2.708
63024W        W34750  22.606   5.466  10.670
63025W        W34751   9.200  21.247   0.804
63026W        W34752  28.053   8.613   5.379
63027W        W34753  17.026  20.493  12.034
63028W        W34754  28.631  24.427  12.515
63029W        W34755  29.622  20.707  12.943
63030W        W34756  20.971  28.929  10.149
63031W        W34757  31.049  17.316   4.078
63032W        W34758   3.251  32.349  11.598
63033W        W34759  18.517  42.861   2.685
63034W        W34760   6.405  30.206   3.398
63035W        W34761  22.126  12.320   0.123
63036W        W34762  23.729   6.791  12.857
63037W        W34763  11.171  38.744  11.540
63038W        W34764   1.459   8.980  14.297
63039W        W34765  11.619  20.789  14.483
63040W        W34766   8.678  36.356   4.624
63041W        W34767  15.577  19.852  10.238
63042W        W34768  11.817   6.583   9.993
63043W        W34769  32.145  40.811   9.803
63044W        W34770  23.090  24.498  10.952
63045W        W34771   7.859  25.596   3.175
63046W        W34772  14.287   6.287  14.950
63047W        W34773  21.760   6.849   0.661
63048W        W34774  16.626   7.112  12.897
63049W        W34775  12.781   7.501   0.415
63050W        W34776   2.352  14.396  13.837
63051W        W34777  39.904  25.207  12.822
63052W        W34778  32.095  13.266   0.301
63053W        W34779  13.801  31.913   1.441
63054W        W34780  32.853  21.672  13.004
63055W        W34781  35.266  29.744  11.266
63056W        W34782  22.443  21.193  11.975
63057W        W34783  19.781  41.298  13.577
63058W        W34784  29.033   3.497   4.060
63059W        W34785  11.117  20.606  12.939
63060W        W34786  44.299  10.300   3.206
63061W        W34787  30.100  20.260   4.708
63062W        W34788  35.650  31.369   0.948
63063W        W34789  28.393  31.836  14.861
63064W        W34790  34.097  44.303  11.400
63065W        W34791   3.549  21.269   0.511
63066W        W34792  10.651  36.950  13.342
63067W        W34793   3.980  30.185  12.009
63068W        W34794   9.373  33.751  10.258
63069W        W34795  31.465  29.013  11.108
63070W        W34796  36.588   4.337   2.534
63071W        W34797  16.222  24.110  11.692
63072W        W34798  34.323  22.980   0.264
63073W        W34799  10.367  34.511   1.278
63074W        W34800  17.989  24.915   3.704
63075W        W34801  12.422  34.893   1.934
63076W        W34802   3.791  15.724  12.998
63077W        W34803  17.412  38.278   5.052
63078W        W34804  16.197  23.081  10.780
63079W        W34805  36.887  33.970   3.498
63080W        W34806   3.320   1.364   0.317
63081W        W34807  16.607   8.165  12.460
63082W        W34808  38.734   7.063  14.454
63083W        W34809  25.813  16.588  11.935
63084W        W34810  12.550  42.696  12.230
63085W        W34811  37.851  20.018  11.558
63086W        W34812  34.607  39.785  10.786
63087W        W34813   9.682  25.865  10.640
63088W        W34814   7.125   6.815   0.946
63089W        W34815   3.320  28.596  13.269
63090W        W34816  43.917  31.093  11.450
63091W        W34817  35.080  42.266  13.355
63092W        W34818  28.491  41.062   3.271
63093W        W34819  16.144  42.506  14.033
63094W        W34820   1.951  39.977  13.485
63095W        W34821  24.142  42.678   4.098
63096W        W34822  43.948  10.647   1.818
63097W        W34823   8.259  37.697  12.499
63098W        W34824  42.775  11.118   4.668
63099W        W34825   4.604  11.273   3.233
63100W        W34826  19.042   9.891   1.279
63101W        W34827  43.350  36.982   1.413
63102W        W34828   1.733  41.798   0.323
63103W        W34829  40.745  28.921  11.221
63104W        W34830  21.687   4.987  10.650
63105W        W34831   3.328  43.803   2.756
63106W        W34832  41.999   0.464   2.858
63107W        W34833  34.010  19.834   4.060
63108W        W34834  41.538   6.391   2.882
63109W        W34835  10.851   2.516   1.720
63110W        W34836  20.229  41.740   0.285
63111W        W34837   0.918  33.610   1.395
63112W        W34838  29.182   5.724   0.794
63113W        W34839  41.461   5.337  11.388
63114W        W34840  35.011  42.947   2.285
63115W        W34841  40.625  20.690  12.008
63116W        W34842  10.748  12.239  11.380
63117W        W34843   9.870  31.097  11.677
63118W        W34844  19.984  29.045  11.922
63119W        W34845  17.637   5.030   3.866
63120W        W34846  38.763  37.026   2.804
63121W        W34847   6.568  38.168  13.903
63122W        W34848  38.547  10.803   2.686
63123W        W34849  20.302  13.724  11.200
63124W        W34850  10.138  42.105   0.285
63125W        W34851   5.664  28.200  11.097
63126W        W34852  13.452  29.682  14.441
63127W        W34853  26.089   5.038  14.461
63128W        W34854  13.492   7.457   2.309
63129W        W34855  40.767   6.167  12.225
63130W        W34856  18.247  18.614   3.588
63131W        W34857  17.114  15.744   1.199
63132W        W34858   8.287  19.301   4.554
63133W        W34859  30.736  21.245  14.854
63134W        W34860  32.630  39.919   3.647
63135W        W34861  32.303   3.415  12.104
63136W        W34862  10.854  40.514  13.807
63137W        W34863  29.428  18.663   0.756
63138W        W34864  29.541  14.777   2.312
63139W        W34865  14.822  20.593   3.902
63140W        W34866  40.415  24.042   1.370
63141W        W34867  35.408  18.325   1.437
63142W        W34868  17.151  28.571   3.786
63143W        W34869  44.495  11.258   1.391
63144W        W34870   6.042  13.287   2.349
63145W        W34871  17.831  12.787  14.000
63146W        W34872  41.941   5.816  12.945
63147W        W34873  14.086   2.005  14.891
63148W        W34874  36.083  36.007   3.684
63149W        W34875  25.149  20.333   2.395
63150W        W34876   9.855  34.556  14.130
63151W        W34877  29.482  30.959  13.894
63152W        W34878  29.585  30.669  12.501
63153W        W34879  28.724  41.294  10.963
63154W        W34880   4.927  16.342   0.371
63155W        W34881  30.231  40.962   0.900
63156W        W34882   2.234   2.495  13.325
63157W        W34883   0.009  20.528  13.579
63158W        W34884  42.535  37.150   3.501
63159W        W34885  14.114  24.501  13.080
63160W        W34886   6.413  33.163  14.470
63161W        W34887   0.218  12.136   0.478
63162W        W34888  40.511  30.988  13.371
63163W        W34889  21.164  27.166   1.017
63164W        W34890  36.943  23.065   1.301
63165W        W34891  25.552  18.732   2.259
63166W        W34892  37.241  35.910  11.125
63167W        W34893  24.977  22.073   1.292
63168W        W34894   6.722  13.602   0.285
63169W        W34895   2.959  24.597   1.486
63170W        W34896  34.057  13.968   4.101
63171W        W34897  11.784  30.388   1.162
63172W        W34898  28.968  37.311  11.253
63173W        W34899  23.990  26.152   4.235
63174W        W34900  44.781  24.469  13.343
63175W        W34901   2.536  27.871   2.861
63176W        W34902  27.485   9.803  10.405
63177W        W34903  24.665  12.521   5.077
63178W        W34904   8.245   1.396  11.144
63179W        W34905  30.252   8.378   2.372
63180W        W34906  29.148   2.536  10.683
63181W        W34907   9.164  35.495  13.354
63182W        W34908   2.794  14.763   0.859
63183W        W34909  13.087   4.865  14.162
63184W        W34910  44.774  30.172  10.648
63185W        W34911  20.581  21.179   4.580
63186W        W34912  32.735  41.765   3.657
63187W        W34913  14.621  42.263   4.184
63188W        W34914  37.040  11.368  13.356
63189W        W34915   5.796   0.879   2.742
63190W        W34916   1.925  13.720  14.339
63191W        W34917  40.505  24.598   4.867
63192W        W34918  22.031  11.192  14.145
63193W        W34919   0.945  17.231   0.260
63194W        W34920  26.678  36.530  13.925
63195W        W34921   1.684  14.719   2.323
63196W        W34922  44.982  10.985   3.346
63197W        W34923  19.795  30.585   4.667
63198W        W34924   3.928  30.119   1.632
63199W        W34925  34.680  29.984   1.787
63200W        W34926  21.922  25.425  13.661
63201W        W34927   2.975  16.566   4.584
63202W        W34928  26.578  20.573   0.516
63203W        W34929  41.428  21.687  14.470
63204W        W34930  39.642  36.569  11.586
63205W        W34931  44.629  37.055  11.110
63206W        W34932   1.538  36.342  14.803
63207W        W34933  40.943   2.678  14.310
63208W        W34934  29.356   2.977   2.649
63209W        W34935  24.430  31.491   2.253
63210W        W34936   2.596  36.453   0.939
63211W        W34937  35.084   0.745   1.697
63212W        W34938   6.229  30.800  12.560
63213W        W34939  17.457  26.388   5.051
63214W        W34940  25.673  31.377  13.668
63215W        W34941  27.147  10.880   4.133
63216W        W34942   0.399   4.647  13.784
63217W        W34943  42.288  19.090   4.704
63218W        W34944  38.333  21.667   1.333
63219W        W34945  13.232  18.765   3.687
63220W        W34946  44.714   5.881   1.498
63221W        W34947   6.597  11.994   0.983
63222W        W34948  31.384   0.764   0.754
63223W        W34949  23.567  36.553   4.311
63224W        W34950   5.159  14.583  14.930
63225W        W34951  23.669  24.056  13.795
63226W        W34952  43.963  29.524  12.093
63227W        W34953  37.345   0.664   0.768
63228W        W34954  29.531  23.012  13.613
63229W        W34955  30.596  36.986   2.304
63230W        W34956  10.271  28.659   3.818
63231W        W34957  41.898  40.553  13.750
63232W        W34958  14.684  22.521   2.242
63233W        W34959  12.135  24.310   1.219
63234W        W34960  12.668  15.113   3.204
63235W        W34961  28.846  27.498  12.029
63236W        W34962  35.954  17.072  13.253
63237W        W34963  28.998  31.925   3.794
63238W        W34964  39.018  27.701  11.573
63239W        W34965  31.143   1.297  12.850
63240W        W34966  19.969  43.347   2.191
63241W        W34967   7.190  33.500   2.938
63242W        W34968  17.635  32.946  13.894
63243W        W34969  29.105   3.780  14.272
63244W        W34970  19.527  33.457  11.708
63245W        W34971  23.078  10.907   0.089
63246W        W34972  32.928   7.960   4.613
63247W        W34973  27.136  43.406   4.909
63248W        W34974   7.161  29.920  11.084
63249W        W34975   4.541  24.336   4.233
63250W        W34976  15.125  26.857  13.168
63251W        W34977  33.132  19.608  14.597
63252W        W34978  32.673  41.159  13.053
63253W        W34979  10.973   9.300   3.126
63254W        W34980  34.856  40.327   1.176
63255W        W34981   8.447  15.214  13.231
63256W        W34982  10.328   9.572   1.922
63257W        W34983  13.421   9.952  13.438
63258W        W34984   1.177   6.691   1.051
63259W        W34985   7.368  43.818  11.166
63260W        W34986  40.971   8.635   3.105
63261W        W34987  30.663  40.617   2.098
63262W        W34988   9.502  31.068   3.998
63263W        W34989  12.521   8.755   4.351
63264W        W34990   2.801   5.986   4.532
63265W        W34991  12.266  23.260   4.602
63266W        W34992  25.001  29.935  13.045
63267W        W34993  24.678   4.874  10.236
63268W        W34994   3.841  18.795   4.314
63269W        W34995   7.300  13.682   2.861
63270W        W34996   4.662  31.412  11.121
63271W        W34997  30.955  18.187   4.699
63272W        W34998  21.480  11.480   0.180
63273W        W34999  44.263  25.040   3.633
63274W        W35000  28.615   2.708   3.765
63275W        W35001   0.376   2.923   0.077
63276W        W35002  21.587  20.115   1.381
63277W        W35003  12.904   6.843  12.705
63278W        W35004  26.431  11.030   1.912
63279W        W35005  38.333  10.274  14.546
63280W        W35006   9.885  44.395  10.721
63281W        W35007  24.073   0.246   2.795
63282W        W35008   6.781  19.888   1.785
63283W        W35009   7.336  30.033   3.279
63284W        W35010  37.811   9.915   0.401
63285W        W35011  35.444   8.659   4.173
63286W        W35012  33.788  17.018  12.825
63287W        W35013   4.064  19.674  12.981
63288W        W35014  10.648  21.673   3.308
63289W        W35015   6.461   8.509  14.712
63290W        W35016  20.899  23.727   2.593
63291W        W35017   0.859  14.896  14.974
63292W        W35018  21.910  23.541  12.068
63293W        W35019  27.298  43.435   9.868
63294W        W35020  22.798  22.809   2.820
63295W        W35021  12.394  39.850   0.440
63296W        W35022   9.580   1.100  11.099
63297W        W35023  32.396  25.734   5.107
63298W        W35024  30.927  13.712  14.053
63299W        W35025  16.854  38.963   2.584
63300W        W35026   9.078   3.247   2.743
63301W        W35027  39.420  30.647   3.069
63302W        W35028   3.382  40.448   3.373
63303W        W35029  29.670  10.816   4.813
63304W        W35030  23.012  15.990  11.998
63305W        W35031  15.519  38.196   4.635
63306W        W35032   9.274  28.266   1.913
63307W        W35033   7.420  16.074  13.038
63308W        W35034  16.721  15.293  13.909
63309W        W35035  12.242  32.505  11.554
63310W        W35036  28.115   4.779   3.318
63311W        W35037  36.319  30.935   3.434
63312W        W35038  23.410  27.528  13.431
63313W        W35039  28.625  41.892  12.125
63314W        W35040  44.165   9.135   1.830
63315W        W35041  41.117  37.463  12.133
63316W        W35042   6.383  44.097  10.724
63317W        W35043  11.783  37.980  10.988
63318W        W35044  41.260   9.795  11.486
63319W        W35045  14.668  11.715  10.971
63320W        W35046  28.705  26.100  11.913
63321W        W35047  12.800  15.722  14.802
63322W        W35048   4.393  12.297   1.776
63323W        W35049  18.300  14.473   4.229
63324W        W35050  25.159   1.993   4.403
63325W        W35051   8.085   0.180   3.220
63326W        W35052  35.537  41.935   0.306
63327W        W35053  18.732  42.085   1.509
63328W        W35054  29.636   7.430  11.648
63329W        W35055  22.617  15.748   3.148
63330W        W35056   8.806  37.719   3.341
63331W        W35057  20.551  24.663   2.771
63332W        W35058  23.237  36.304   3.133
63333W        W35059   6.293  29.452  11.899
63334W        W35060  40.117   0.350  12.635
63335W        W35061   7.275  37.858   2.366
63336W        W35062  12.230  43.060   4.254
63337W        W35063  12.711  35.439  12.057
63338W        W35064  43.017   3.566   0.029
63339W        W35065  42.879  39.674   4.233
63340W        W35066  36.457  21.195  14.985
63341W        W35067   9.307   7.014   1.014
63342W        W35068  43.327   1.465   0.408
63343W        W35069  25.319  18.924  14.974
63344W        W35070   1.850  25.162   4.001
63345W        W35071  29.401   5.678  10.997
63346W        W35072  14.237  23.447   2.294
63347W        W35073  27.017   5.403  11.160
63348W        W35074  24.073  20.719  12.501
63349W        W35075  14.027   2.913   0.399
63350W        W35076   5.251  27.163   2.646
63351W        W35077  40.102  39.308   2.658
63352W        W35078  31.548  10.313  14.966
63353W        W35079  12.801   1.592  11.087
63354W        W35080   0.047   7.311  12.381
63355W        W35081  33.358   2.030   3.184
63356W        W35082  14.715   9.779  10.735
63357W        W35083  19.197  22.437   2.906
63358W        W35084  36.493  12.357   0.651
63359W        W35085  38.860  13.760   2.185
63360W        W35086   0.210  22.823   2.804
63361W        W35087  11.738  37.416  10.221
63362W        W35088  32.958  24.994  13.274
63363W        W35089  18.618  43.209  14.553
63364W        W35090  44.082   0.764  14.607
63365W        W35091  37.407  39.757  11.444
63366W        W35092  29.386  25.227   9.838
63367W        W35093  21.153  34.270  10.280
63368W        W35094  18.180  11.732   2.442
63369W        W35095   9.939  43.406  14.792
63370W        W35096  26.038  18.139  14.931
63371W        W35097  23.571  12.176   0.455
63372W        W35098  33.459  16.654   4.455
63373W        W35099   4.255  41.417   3.331
63374W        W35100  15.123  42.987  12.859
63375W        W35101  41.467   8.871   1.671
63376W        W35102  35.642  27.135   2.341
63377W        W35103   0.990  24.515   3.550
63378W        W35104  36.320  12.665  12.033
63379W        W35105   3.649  44.029  12.878
63380W        W35106  39.798  28.125   4.007
63381W        W35107  10.382  18.078   2.196
63382W        W35108   1.545  37.690  12.908
63383W        W35109  20.194  43.386  11.426
63384W        W35110   4.708  13.254  11.281
63385W        W35111  34.120  21.147   0.380
63386W        W35112   9.345  31.372   3.170
63387W        W35113   1.311  29.036   4.360
63388W        W35114  35.009  39.339  14.826
63389W        W35115  36.500  21.133   4.908
63390W        W35116  35.482  10.887   0.690
63391W        W35117  33.304  29.292  11.668
63392W        W35118  24.426  43.930  10.197
63393W        W35119   6.996  27.101   4.964
63394W        W35120  21.759  20.911   4.190
63395W        W35121  39.831  22.676   3.200
63396W        W35122   8.448  38.964   0.801
63397W        W35123  42.396  33.466   0.791
63398W        W35124   9.610  31.853   3.148
63399W        W35125  20.122  20.975   4.656
63400W        W35126  26.006  21.478   3.705
63401W        W35127  38.447  28.864  12.395
63402W        W35128  42.657  36.394  13.998
63403W        W35129  26.054  22.290   3.078
63404W        W35130  42.400   6.206   0.435
63405W        W35131   7.005  16.281  13.959
63406W        W35132   7.938   6.357   3.856
63407W        W35133  23.798  13.832  12.400
63408W        W35134  25.645  15.394  13.413
63409W        W35135  15.222   4.605  12.363
63410W        W35136  37.257  18.580   5.070
63411W        W35137   7.707  40.852   1.867
63412W        W35138  22.084  19.947  13.468
63413W        W35139  16.360   4.439  12.082
63414W        W35140  41.456  17.129   4.802
63415W        W35141  27.657  29.635   4.750
63416W        W35142  16.602  31.618  12.007
63417W        W35143  13.668   1.489   3.467
63418W        W35144  27.250  38.291  13.151
63419W        W35145  44.416  25.265  11.172
63420W        W35146  42.262  29.680   3.622
63421W        W35147   8.910   5.322   2.909
63422W        W35148  12.264  20.124   1.928
63423W        W35149   8.207   2.928   2.772
63424W        W35150  26.895  21.496  14.295
63425W        W35151  11.120  12.378   1.717
63426W        W35152  21.243  28.564   1.003
63427W        W35153   4.265  15.558  10.096
63428W        W35154  16.993  14.862   2.297
63429W        W35155  31.069  16.060  10.934
63430W        W35156  38.339  19.402  12.013
63431W        W35157  17.068  26.421   0.761
63432W        W35158   9.715  33.529  12.106
63433W        W35159  29.551  44.599  14.063
63434W        W35160  25.919  20.440   1.156
63435W        W35161  40.537  17.034   2.356
63436W        W35162  22.456  27.059  11.186
63437W        W35163   9.384   6.448   3.660
63438W        W35164  41.902  27.699   4.214
63439W        W35165  17.550  15.360  12.543
63440W        W35166  17.999   3.175   3.813
63441W        W35167  15.130   5.720   0.713
63442W        W35168   9.405   4.112   0.397
63443W        W35169  27.664  19.573   3.863
63444W        W35170   3.495   5.424  14.994
63445W        W35171   1.201  41.487   4.043
63446W        W35172  43.654  18.838  12.615
63447W        W35173  37.781  26.590  13.003
63448W        W35174  22.546  44.484   4.696
63449W        W35175  18.001  17.255   1.847
63450W        W35176  27.039  38.813  10.984
63451W        W35177  22.624  29.379   4.546
63452W        W35178   4.489  18.675  13.642
63453W        W35179  37.973   7.911  11.294
63454W        W35180   2.926  21.280   4.201
63455W        W35181   0.561  14.575   1.830
63456W        W35182  12.715   0.346  13.214
63457W        W35183   7.097  16.763   2.694
63458W        W35184  32.906  26.731  13.861
63459W        W35185  33.422  19.800   3.758
63460W        W35186  31.857   4.695  12.529
63461W        W35187  39.009   6.871   0.341
63462W        W35188  34.462  25.037   3.461
63463W        W35189  12.769   7.041   1.981
63464W        W35190  14.576  16.536   1.512
63465W        W35191  24.155   8.478   1.489
63466W        W35192  11.759   1.190  14.811
63467W        W35193  33.913  19.036   2.288
63468W        W35194  11.495  21.244  11.970
63469W        W35195  37.385  30.852   3.225
63470W        W35196  23.173  21.238   3.166
63471W        W35197  16.062   8.208  11.660
63472W        W35198  14.761  20.572  12.016
63473W        W35199   4.451   0.420  14.785
63474W        W35200  13.146   0.415  14.313
63475W        W35201  43.487  34.442  10.542
63476W        W35202   2.093  22.039   3.599
63477W        W35203   8.190  36.629  13.697
63478W        W35204  17.152  38.536   3.317
63479W        W35205  31.464  22.226   4.658
63480W        W35206  12.723   7.336   1.274
63481W        W35207  39.102  24.956  12.839
63482W        W35208  29.890  43.905  12.485
63483W        W35209  31.979  34.576  11.759
63484W        W35210  39.119  27.894   3.388
63485W        W35211  34.423  22.512  13.850
63486W        W35212  37.625  25.987   5.040
63487W        W35213  38.971  26.523  13.931
63488W        W35214  11.557  25.632  10.685
63489W        W35215  44.044  37.120   0.336
63490W        W35216  12.399  40.211   0.854
63491W        W35217  28.212  43.793  12.921
63492W        W35218  36.474  31.176  12.897
63493W        W35219  17.524  31.960  14.238
63494W        W35220  25.658   5.888  14.451
63495W        W35221  27.165  15.176  12.546
63496W        W35222  32.520  16.496   0.830
63497W        W35223  29.694  27.725   2.319
63498W        W35224   6.917   2.697  14.336
63499W        W35225   8.830  37.426  14.461
63500W        W35226  28.963  21.521   1.342
63501W        W35227  23.836   2.518   2.907
63502W        W35228  16.690  24.117   3.747
63503W        W35229  17.152   4.013   0.785
63504W        W35230  44.153  35.234  11.382
63505W        W35231   5.531   0.151   1.649
63506W        W35232  10.373  21.242   5.009
63507W        W35233  17.344  38.934   1.714
63508W        W35234  42.573  17.665  14.352
63509W        W35235   2.749  26.809   1.356
63510W        W35236  18.238  23.186  11.370
63511W        W35237  11.936  26.414   3.665
63512W        W35238  28.915  18.849  11.845
63513W        W35239  19.690  28.588   3.612
63514W        W35240  42.542   0.839  11.165
63515W        W35241  24.907  38.409   1.162
63516W        W35242  37.391   9.003   0.317
63517W        W35243  39.957   7.953  10.627
63518W        W35244  36.280   2.657  11.542
63519W        W35245  37.863   7.078  14.944
63520W        W35246   6.801  12.411  14.413
63521W        W35247  43.267  31.644   4.199
63522W        W35248  17.434  13.322  11.143
63523W        W35249   4.208  38.879  14.800
63524W        W35250  38.095  10.609  14.944
63525W        W35251  32.970  28.231  14.265
63526W        W35252  14.671  37.949   2.358
63527W        W35253  35.871  23.172  12.411
63528W        W35254  37.155  26.944   3.266
63529W        W35255   0.399  25.073   0.886
63530W        W35256  14.336  34.838  10.954
63531W        W35257  24.600   8.897  14.880
63532W        W35258  18.279  21.127  11.993
63533W        W35259  28.751  13.712  11.130
63534W        W35260  41.356  26.179   2.874
63535W        W35261  28.415  36.465   2.736
63536W        W35262  15.458  44.317   0.914
63537W        W35263  15.147  42.245   4.165
63538W        W35264   1.896  35.882   2.414
63539W        W35265  38.825  11.865   2.264
63540W        W35266   7.697  14.552   3.493
63541W        W35267  29.269  43.411   1.735
63542W        W35268   1.340  11.262  14.033
63543W        W35269  44.361  26.473   2.074
63544W        W35270  41.074   5.638  14.693
63545W        W35271  15.072  27.672  14.402
63546W        W35272  28.055  32.309  11.530
63547W        W35273  35.620   8.801   0.716
63548W        W35274  11.390  43.291  12.927
63549W        W35275  34.802  22.509   4.093
63550W        W35276   9.847  30.615  14.203
63551W        W35277  18.166  43.760   0.835
63552W        W35278  28.566  41.919   0.686
63553W        W35279  39.451   5.738   3.992
63554W        W35280   9.685  27.550   0.179
63555W        W35281  38.002  34.492  10.939
63556W        W35282  29.216  43.296   4.658
63557W        W35283  24.468   0.607   1.781
63558W        W35284  22.986   3.761  11.421
63559W        W35285   9.769  10.166  10.731
63560W        W35286  10.162   2.260   1.262
63561W        W35287  33.916  36.969   2.823
63562W        W35288   5.287  13.877  11.550
63563W        W35289   1.400   3.846   3.003
63564W        W35290  34.878   6.027  14.536
63565W        W35291  42.958  22.087  10.762
63566W        W35292  15.560   8.873  11.534
63567W        W35293   3.824  11.674   2.224
63568W        W35294   4.216   7.101   0.826
63569W        W35295   7.367   8.243   1.787
63570W        W35296   9.150  39.559  14.035
63571W        W35297  24.493   3.806   0.885
63572W        W35298  11.552  32.095   5.043
63573W        W35299   5.606  35.132  11.142
63574W        W35300   3.186  29.005   2.282
63575W        W35301  10.488  30.816   4.105
63576W        W35302  42.725   9.300  13.917
63577W        W35303  26.829  35.457  12.282
63578W        W35304   2.364  41.925  12.929
63579W        W35305  18.839   9.609   2.395
63580W        W35306   9.132  31.151  12.125
63581W        W35307  12.357  40.108  11.616
63582W        W35308  26.419  13.746  11.315
63583W        W35309  33.310  32.046  11.227
63584W        W35310   2.953   4.053   3.718
63585W        W35311  42.423   0.246  11.649
63586W        W35312  25.297  14.027  12.884
63587W        W35313   7.327  24.168  10.263
63588W        W35314  28.915   1.439  13.863
63589W        W35315  30.211  29.552  10.503
63590W        W35316  10.063  37.267  11.103
63591W        W35317  16.503   0.935   0.471
63592W        W35318  32.260  44.407   9.732
63593W        W35319  36.879  24.570  10.672
63594W        W35320  30.616  26.253   0.695
63595W        W35321  22.228  11.534   2.755
63596W        W35322  38.309   7.808  13.045
63597W        W35323  27.490   4.281   2.807
63598W        W35324  11.271   4.830   4.440
63599W        W35325  39.767  39.533  11.583
63600W        W35326  27.830   7.758  11.588
63601W        W35327  14.721  21.808  13.989
63602W        W35328  31.498  17.532  13.992
63603W        W35329  19.184  17.107  10.994
63604W        W35330  35.166  24.191   4.694
63605W        W35331  32.693  43.910   4.097
63606W        W35332  44.715  29.590   5.093
63607W        W35333  14.572   7.435  14.604
63608W        W35334  42.795  39.420   2.086
63609W        W35335  18.954  40.388   4.131
63610W        W35336   2.416  28.917   4.827
63611W        W35337  17.650   9.628   3.774
63612W        W35338  12.213  18.556  11.522
63613W        W35339  29.511  33.680   3.038
63614W        W35340  35.173  38.043   4.178
63615W        W35341  26.937  24.308  13.893
63616W        W35342   6.306  27.966   4.561
63617W        W35343   3.730  37.353  12.397
63618W        W35344  10.442  27.926  14.394
63619W        W35345   5.460  17.839   2.269
63620W        W35346  30.487  31.499  12.464
63621W        W35347   2.393  32.094  10.369
63622W        W35348  26.142   1.158  14.905
63623W        W35349  29.901  16.268  12.520
63624W        W35350  29.688  22.824   4.986
63625W        W35351  33.452  10.142   2.405
63626W        W35352  34.930  34.412   3.103
63627W        W35353  10.167   4.733  11.230
63628W        W35354   9.251   6.329   0.275
63629W        W35355  11.431  36.007   4.749
63630W        W35356  22.198   7.071  13.039
63631W        W35357  43.903  31.155   2.832
63632W        W35358  42.545  42.201   0.756
63633W        W35359  35.403  42.435  12.472
63634W        W35360  35.625  18.226   0.974
63635W        W35361  38.911  40.458   3.306
63636W        W35362  39.134  12.837  12.170
63637W        W35363  28.174  38.078  13.044
63638W        W35364  33.178  31.561   3.174
63639W        W35365  27.217  36.942  14.763
63640W        W35366  37.164   3.293  13.584
63641W        W35367  18.562  12.360  12.058
63642W        W35368  39.565  28.708   0.303
63643W        W35369   3.352   1.257   1.391
63644W        W35370  19.658  26.612  13.559
63645W        W35371   3.042  44.015   2.337
63646W        W35372   3.950  35.891  11.643
63647W        W35373  25.987  24.777   0.275
63648W        W35374  28.799  39.179   9.958
63649W        W35375   1.040   1.190   4.188
63650W        W35376   1.898   2.809   3.568
63651W        W35377  29.612   9.282   3.325
63652W        W35378  26.147  26.669  10.688
63653W        W35379  33.309  40.580   1.393
63654W        W35380   7.817  44.849  11.561
63655W        W35381  21.031  20.496  11.951
63656W        W35382  24.982  25.079   1.202
63657W        W35383  40.264  10.275  14.559
63658W        W35384  37.297  41.210  13.914
63659W        W35385  11.869  33.072  13.899
63660W        W35386  10.824  32.467  13.137
63661W        W35387  11.134  40.632  10.538
63662W        W35388  20.793  11.087   0.736
63663W        W35389  37.122   4.191  13.412
63664W        W35390  32.722  40.385  11.611
63665W        W35391  16.112  16.647  12.489
63666W        W35392  22.223   1.147   3.879
63667W        W35393  16.767   0.451   0.431
63668W        W35394  41.810  28.948   2.366
63669W        W35395  15.698  21.348   0.852
63670W        W35396  24.872   6.300   2.407
63671W        W35397  42.586  43.980   4.869
63672W        W35398  25.965   8.297  14.839
63673W        W35399  24.100  25.478  11.097
63674W        W35400  32.655  44.552   1.898
63675W        W35401  11.505  10.635   1.343
63676W        W35402   9.977   5.269  13.883
63677W        W35403  30.180   0.047   2.778
63678W        W35404  38.367   7.089   4.276
63679W        W35405   9.730   1.834   1.211
63680W        W35406   7.354  20.174   4.057
63681W        W35407  37.316  21.557  14.909
63682W        W35408   8.011  31.608  14.814
63683W        W35409  30.651  34.395  11.149
63684W        W35410  29.337   4.452   2.669
63685W        W35411  37.812  18.930   4.089
63686W        W35412  13.642  33.907   0.407
63687W        W35413  30.584  20.032   4.603
63688W        W35414  17.563  24.578   0.929
63689W        W35415   6.173  32.530  13.907
63690W        W35416  23.646  26.728   2.186
63691W        W35417  37.872  40.700  13.863
63692W        W35418  10.897  25.118   2.254
63693W        W35419  12.688  34.973  13.288
63694W        W35420  38.327   1.446  14.750
63695W        W35421   6.812  36.879   4.608
63696W        W35422  15.521  21.696  13.360
63697W        W35423  12.739  11.669  10.677
63698W        W35424   0.649  10.657  13.316
63699W        W35425  28.697  40.792  11.689
63700W        W35426  12.102  31.939   1.474
63701W        W35427  27.595  36.564  10.520
63702W        W35428  20.545   7.309   2.987
63703W        W35429  44.472  42.953  14.472
63704W        W35430  17.069  24.440   1.827
63705W        W35431  23.737  14.251   1.607
63706W        W35432  42.997  19.293  12.377
63707W        W35433   6.606  24.067  10.667
63708W        W35434  11.414  12.139   1.335
63709W        W35435   3.721  11.208  14.396
63710W        W35436  22.828  18.307   2.665
63711W        W35437  18.217  21.045  14.252
63712W        W35438   7.481  18.515  11.922
63713W        W35439  18.326  28.278  10.924
63714W        W35440  28.534   5.177   1.347
63715W        W35441   2.510  18.982   1.273
63716W        W35442   3.228   3.384   1.630
63717W        W35443  28.575  38.541  12.738
63718W        W35444  39.054  22.065  12.755
63719W        W35445  15.737  25.489   2.772
63720W        W35446  36.016  42.432   0.330
63721W        W35447  44.012  32.272   1.759
63722W        W35448  38.583  13.149  13.377
63723W        W35449   3.732  29.177  10.435
63724W        W35450   7.895  21.138  10.758
63725W        W35451  12.194   7.732  13.784
63726W        W35452  13.776  36.038  13.947
63727W        W35453  44.242  22.463   2.846
63728W        W35454  42.859  14.709  12.617
63729W        W35455  31.871   7.920  11.555
63730W        W35456  42.457  37.320   2.729
63731W        W35457  25.299   3.070   2.748
63732W        W35458  12.667  34.561   3.665
63733W        W35459  28.251   0.424   4.646
63734W        W35460  31.897  16.067   3.679
63735W        W35461  10.997  20.999   3.833
63736W        W35462  44.732  34.922   0.621
63737W        W35463  15.714   0.647   4.576
63738W        W35464  33.137  23.227   2.382
63739W        W35465   2.265   3.264  11.837
63740W        W35466   0.367  11.895   2.448
63741W        W35467  14.368   9.103  12.991
63742W        W35468  16.669  33.496  14.772
63743W        W35469   5.467  16.863  14.550
63744W        W35470   0.369  10.715   1.029
63745W        W35471  27.139   9.767   1.045
63746W        W35472  37.036  20.788  14.576
63747W        W35473  26.248   0.653  11.174
63748W        W35474  18.583  23.116  13.648
63749W        W35475   5.453   0.993   3.208
63750W        W35476  26.157   1.719  12.628
63751W        W35477   8.683  40.799  12.436
63752W        W35478  24.967   1.836  12.954
63753W        W35479  14.221   8.624  14.955
63754W        W35480  12.118  42.222   1.783
63755W        W35481  37.207   1.337   4.211
63756W        W35482   7.795  31.504   2.239
63757W        W35483  26.417  40.930  12.674
63758W        W35484  14.384  13.762   2.784
63759W        W35485  23.710   8.967   3.683
63760W        W35486   7.394  35.530  12.396
63761W        W35487  21.585  38.354  13.950
63762W        W35488  23.437   7.367   2.884
63763W        W35489  35.492  19.575  14.301
63764W        W35490  32.264  12.303   3.642
63765W        W35491  16.116  24.138   0.343
63766W        W35492  11.265  40.258  11.805
63767W        W35493  24.027  31.918  12.384
63768W        W35494  13.350  11.151   4.651
63769W        W35495  35.374  24.762   1.533
63770W        W35496  12.356  20.931  14.087
63771W        W35497  40.690  32.713   4.150
63772W        W35498  24.988  15.190  13.881
63773W        W35499   7.776  31.950   1.947
63774W        W35500   4.207  20.016   4.096
63775W        W35501   3.826  20.683   2.020
63776W        W35502   6.751   9.628   2.829
63777W        W35503  27.104  19.837   3.175
63778W        W35504  23.154  19.121   2.569
63779W        W35505   1.791   2.006   2.125
63780W        W35506   1.772  21.103   3.255
63781W        W35507  33.358  44.682  11.693
63782W        W35508  30.293  43.439  14.762
63783W        W35509  13.845   4.616   0.773
63784W        W35510   9.318  10.618   1.224
63785W        W35511  42.588   8.983   2.742
63786W        W35512  32.626  20.889   4.411
63787W        W35513  37.383  36.954  11.722
63788W        W35514   5.903  32.610  12.968
63789W        W35515  41.384  41.249   1.058
63790W        W35516  44.455  15.121  14.888
63791W        W35517  12.157  21.122   3.095
63792W        W35518  18.890  42.734  13.588
63793W        W35519  27.552   2.377  10.655
63794W        W35520  38.449  36.813   3.299
63795W        W35521  16.986  22.609  11.561
63796W        W35522  38.569  10.664   4.551
63797W        W35523  18.173  17.087   4.722
63798W        W35524   7.273  31.471  13.096
63799W        W35525  38.803   8.191   3.828
63800W        W35526   7.873  28.974  11.713
63801W        W35527  21.633  39.354   2.690
63802W        W35528  33.700   9.300   2.057
63803W        W35529  20.287   6.192   3.283
63804W        W35530   7.724  16.677  11.096
63805W        W35531  14.046  22.013   4.235
63806W        W35532  22.517  37.299   0.647
63807W        W35533   9.603  30.550   0.257
63808W        W35534  41.500  22.103   4.376
63809W        W35535   6.209   8.240   0.491
63810W        W35536  22.260  13.083  11.581
63811W        W35537  22.759  24.178   2.564
63812W        W35538  23.671  13.053   3.629
63813W        W35539  27.651   6.413  11.212
63814W        W35540  21.723  39.630  12.274
63815W        W35541  27.066  22.210   1.415
63816W        W35542  20.657  39.033   1.400
63817W        W35543  36.000   6.211   2.158
63818W        W35544  41.718  38.564  12.964
63819W        W35545  25.059  18.840  12.521
63820W        W35546  31.538  15.355   0.772
63821W        W35547  30.464  12.674   0.875
63822W        W35548  31.498  33.339  11.036
63823W        W35549  36.538  16.586   4.113
63824W        W35550   3.386  32.538   0.880
63825W        W35551  33.607  29.294  12.136
63826W        W35552  16.062  21.993   3.261
63827W        W35553  23.333  37.729   0.325
63828W        W35554  14.741  43.365   4.507
63829W        W35555  19.214  43.787   4.029
63830W        W35556   5.363  13.491  12.491
63831W        W35557  31.091  28.462   0.535
63832W        W35558  23.071  40.508   1.476
63833W        W35559  37.951   7.230   4.570
63834W        W35560  12.598  16.795   1.393
63835W        W35561  25.195   9.564   3.778
63836W        W35562  42.908  20.601   4.445
63837W        W35563  28.660   3.569  14.083
63838W        W35564  22.517  40.028   3.528
63839W        W35565  25.819  28.738   1.395
63840W        W35566  11.226  36.371   3.622
63841W        W35567  26.668  33.364   4.694
63842W        W35568   9.827  24.763   5.053
63843W        W35569   8.373  43.821  11.980
63844W        W35570   1.040  28.406   2.288
63845W        W35571  10.563  11.109  14.833
63846W        W35572  29.956  32.386   3.065
63847W        W35573  34.009  41.910  10.478
63848W        W35574  33.028  19.049   4.312
63849W        W35575  43.481   7.684   0.162
63850W        W35576  38.947  29.946  12.061
63851W        W35577  26.273  25.039  11.232
63852W        W35578  25.960  13.567  13.537
63853W        W35579  28.269  16.727  12.166
63854W        W35580  31.436  23.750  10.220
63855W        W35581   6.715  13.505   1.007
63856W        W35582   6.224   6.496   3.130
63857W        W35583  34.416  15.966   0.867
63858W        W35584   8.978   2.339   2.877
63859W        W35585  33.213  10.273  12.910
63860W        W35586   5.582  23.465   0.728
63861W        W35587  24.805  37.599  13.058
63862W        W35588   4.537  22.070  14.731
63863W        W35589  32.250   6.907  14.223
63864W        W35590   7.891  37.909   3.319
63865W        W35591  38.486  30.143   4.540
63866W        W35592  26.827  10.339   2.849
63867W        W35593  16.744  36.089  14.748
63868W        W35594  14.780  37.619   0.862
63869W        W35595  11.508  21.665  11.628
63870W        W35596   7.138   2.993  13.467
63871W        W35597  30.455  33.059   4.753
63872W        W35598  27.693  15.186  10.893
63873W        W35599  30.656  22.700   1.370
63874W        W35600  10.174  43.400   2.661
63875W        W35601  14.341   9.407   3.653
63876W        W35602  29.128  10.889   0.882
63877W        W35603  19.617  14.132   4.301
63878W        W35604  18.310  22.495  11.036
63879W        W35605   1.596   9.530   3.235
63880W        W35606  22.554  19.396  10.897
63881W        W35607  27.015  26.914  10.702
63882W        W35608   0.755  32.477   1.116
63883W        W35609  18.579  34.242  11.669
63884W        W35610  43.373  14.722  13.357
63885W        W35611  31.386   9.406  12.109
63886W        W35612  38.318  39.871   3.549
63887W        W35613  10.267  22.451   9.934
63888W        W35614  11.534  40.829  12.403
63889W        W35615   3.262  12.808   4.336
63890W        W35616  39.490  22.034   0.930
63891W        W35617  13.625  26.928   1.217
63892W        W35618  37.541  19.180   3.751
63893W        W35619  28.383  24.718   0.935
63894W        W35620  32.019  36.092  12.073
63895W        W35621  10.755   6.326  12.023
63896W        W35622  31.429  11.629   0.373
63897W        W35623  23.629  24.547   4.401
63898W        W35624   2.954  28.724  11.409
63899W        W35625   7.670  21.205   3.653
63900W        W35626  31.524  15.553  11.981
63901W        W35627   5.842  39.346   3.602
63902W        W35628  35.524   0.983   3.201
63903W        W35629  10.870  31.542   0.466
63904W        W35630  15.294  24.798   2.190
63905W        W35631   3.379  20.663  10.747
63906W        W35632   3.928  43.745   4.570
63907W        W35633   5.468  44.102   2.058
63908W        W35634  13.666  40.892   2.920
63909W        W35635  11.895   1.294  12.938
63910W        W35636   8.728   1.829   0.245
63911W        W35637  18.821  24.556  10.767
63912W        W35638  35.944  23.666   3.973
63913W        W35639  20.083   0.354  14.091
63914W        W35640  17.057  26.379   4.285
63915W        W35641  20.080   7.067   3.137
63916W        W35642  27.655  19.516  14.446
63917W        W35643  18.170  39.065   2.763
63918W        W35644  10.203  22.196   4.735
63919W        W35645   4.811   6.192  12.044
63920W        W35646  22.961  22.256  14.709
63921W        W35647  32.171  34.437   4.066
63922W        W35648   8.398  15.775  12.999
63923W        W35649  17.252   9.861  13.817
63924W        W35650  27.130  31.628  13.723
63925W        W35651   0.673   8.533   2.795
63926W        W35652  43.944  34.668  12.978
63927W        W35653   3.492  32.421   4.291
63928W        W35654  35.476   8.857  14.764
63929W        W35655  35.065  28.127  11.917
63930W        W35656  25.614  24.412   2.917
63931W        W35657  34.510  19.826   4.348
63932W        W35658   4.451  41.519   1.406
63933W        W35659  29.741  41.386   1.696
63934W        W35660  42.422  15.776   0.228
63935W        W35661  15.310   4.796  14.475
63936W        W35662  26.139  27.565   0.106
63937W        W35663  32.934  11.221  14.024
63938W        W35664   6.152  18.958   1.857
63939W        W35665  12.882  17.211   4.277
63940W        W35666   5.320  40.498   0.353
63941W        W35667  32.253  11.771  12.888
63942W        W35668  16.137   7.343   1.751
63943W        W35669  27.110  16.757   1.898
63944W        W35670  12.285  37.202  13.337
63945W        W35671  21.538  22.649   3.267
63946W        W35672  38.322  14.281  14.988
63947W        W35673  40.486  33.818  10.550
63948W        W35674  13.479  11.954   5.143
63949W        W35675   2.453  18.960  12.333
63950W        W35676   3.032  26.557  13.504
63951W        W35677  38.444  18.485   0.827
63952W        W35678   8.869  12.736  14.777
63953W        W35679  16.106   5.822   0.284
63954W        W35680   5.790  29.901  12.458
63955W        W35681  30.528  17.263   4.089
63956W        W35682  32.929  37.413  11.973
63957W        W35683  25.535  13.178   2.161
63958W        W35684  23.463  19.648  13.489
63959W        W35685  39.418  17.980   2.708
63960W        W35686   7.671  39.825   0.286
63961W        W35687  21.239  31.978   3.082
63962W        W35688   1.504  35.966  12.120
63963W        W35689  29.835  24.748  11.618
63964W        W35690  17.355  32.443  14.940
63965W        W35691  42.302  23.246  13.313
63966W        W35692  41.322  40.398  12.910
63967W        W35693   4.506   9.009   1.835
63968W        W35694  30.403  17.403   0.866
63969W        W35695  37.013   7.420  13.253
63970W        W35696  31.419  42.090   1.652
63971W        W35697   1.614  29.833   2.612
63972W        W35698  30.648  16.569  12.100
63973W        W35699  32.555  11.919  11.720
63974W        W35700  26.584   9.144  12.832
63975W        W35701   8.843  39.814  13.697
63976W        W35702  37.724  20.862   1.060
63977W        W35703  13.930  36.755   1.872
63978W        W35704   8.902  10.711   4.770
63979W        W35705  29.014  27.995  10.491
63980W        W35706  32.560  22.600   4.453
63981W        W35707  29.908  22.675   1.105
63982W        W35708   9.630  17.306  10.627
63983W        W35709  37.110  17.742  11.192
63984W        W35710  19.962  42.408   4.131
63985W        W35711  20.034  25.248  13.137
63986W        W35712  41.069  32.405   4.322
63987W        W35713   0.381   0.091   1.195
63988W        W35714   5.621  22.679   3.319
63989W        W35715  41.136  15.723   2.704
63990W        W35716  38.090  33.532   4.572
63991W        W35717  23.980   8.982   3.231
63992W        W35718  30.513  33.879  13.708
63993W        W35719  17.545   1.973   3.621
63994W        W35720   3.810  23.936   0.601
63995W        W35721  42.369  33.119  10.650
63996W        W35722  22.006  39.938   0.414
63997W        W35723  24.252  31.408  13.899
63998W        W35724  15.784  42.991   2.770
63999W        W35725  14.553  30.129  13.377
64000W        W35726  11.186  38.903  10.159
64001W        W35727  12.245   0.513  13.984
64002W        W35728  37.510  21.343  11.496
64003W        W35729  42.870  18.311  14.249
64004W        W35730  38.457  33.815  10.571
64005W        W35731   9.794  30.088   3.633
64006W        W35732  25.521  10.313  10.276
64007W        W35733  33.488  41.356  13.878
64008W        W35734   2.710  30.486  12.169
64009W        W35735  32.522   9.789   2.591
64010W        W35736  44.102  13.089  11.552
64011W        W35737  21.325   2.463   4.307
64012W        W35738   5.254   0.753  12.346
64013W        W35739  43.524  32.421  12.564
64014W        W35740  26.057   0.777  14.220
64015W        W35741  38.817  20.079   4.542
64016W        W35742   3.870  15.096  13.901
64017W        W35743   5.151  12.082  12.186
64018W        W35744  43.939  30.080   2.691
64019W        W35745  34.000  38.838  13.585
64020W        W35746   8.853  28.047   3.699
64021W        W35747  23.969  36.024   4.981
64022W        W35748   4.730  35.999   4.213
64023W        W35749  13.804  42.592   1.049
64024W        W35750  36.563   4.965  11.658
64025W        W35751  40.954  25.178  12.053
64026W        W35752  16.234  40.315  12.027
64027W        W35753  10.119   6.739  13.990
64028W        W35754  34.888  34.534   4.085
64029W        W35755  42.287  20.831   1.741
64030W        W35756  15.812  28.935  12.505
64031W        W35757  16.717  17.396   0.920
64032W        W35758   1.438  25.204  13.530
64033W        W35759   9.168  41.811  14.934
64034W        W35760  31.336   1.010  11.559
64035W        W35761   9.268  15.791  12.822
64036W        W35762  22.623   4.349  11.378
64037W        W35763  26.168   5.944  14.334
64038W        W35764  15.805  44.221   2.380
64039W        W35765  25.525   6.217   0.356
64040W        W35766  20.785  14.188  14.824
64041W        W35767  27.626  27.214   4.728
64042W        W35768  35.401  29.447  10.855
64043W        W35769  11.700  32.227  12.706
64044W        W35770   4.904   2.132   1.867
64045W        W35771  44.179  40.993  12.270
64046W        W35772  40.424   3.259  13.193
64047W        W35773   9.888   6.820   2.245
64048W        W35774  13.376  15.527   1.416
64049W        W35775  27.258  40.411   0.564
64050W        W35776  25.535  43.299   3.269
64051W        W35777   5.244  18.159  14.526
64052W        W35778  15.611  17.173   3.877
64053W        W35779   8.960  27.853   4.561
64054W        W35780   5.194  38.861   4.948
64055W        W35781  18.740  23.505   1.812
64056W        W35782   2.012  27.909   2.780
64057W        W35783  44.888  16.262  13.164
64058W        W35784  16.277  34.395  11.999
64059W        W35785  21.154  35.215   2.262
64060W        W35786  34.480  14.874  12.478
64061W        W35787  23.948   0.693   9.889
64062W        W35788  33.047  40.926  14.696
64063W        W35789   8.445  25.769   2.351
64064W        W35790   1.972  35.106  11.856
64065W        W35791   7.436   3.440   1.796
64066W        W35792  41.830  10.617   4.535
64067W        W35793  19.273  21.754   3.839
64068W        W35794  35.316  12.812  11.189
64069W        W35795  28.129   5.861  13.768
64070W        W35796  11.883   4.871  13.531
64071W        W35797  29.155  15.340   2.689
64072W        W35798  23.007  14.526  12.869
64073W        W35799   6.803   5.998   4.205
64074W        W35800   5.359   1.432  14.539
64075W        W35801  16.552  34.414   0.516
64076W        W35802  17.715   3.077   2.904
64077W        W35803   3.926  11.091   4.063
64078W        W35804  16.798  41.593  12.437
64079W        W35805   9.821  14.318   3.612
64080W        W35806  32.615  31.337   0.891
64081W        W35807  44.539  32.599   0.536
64082W        W35808   9.056   6.081  12.865
64083W        W35809  29.184  27.126  12.849
64084W        W35810  20.563  21.535   2.260
64085W        W35811  13.465   3.804   1.321
64086W        W35812  25.657  15.266  11.207
64087W        W35813  20.733  37.382  11.495
64088W        W35814  38.575  40.803  11.185
64089W        W35815  41.800  41.294  12.890
64090W        W35816  17.319  29.074  14.955
64091W        W35817  13.851   9.752   3.348
64092W        W35818   6.181  30.527   4.089
64093W        W35819  32.049  22.958   5.459
64094W        W35820  36.911   4.031   1.379
64095W        W35821  23.802  16.231   3.428
64096W        W35822  34.995  30.861   2.191
64097W        W35823  23.549  25.682   3.010
64098W        W35824  26.589  27.552   4.003
64099W        W35825  29.848  44.907  11.923
64100W        W35826   1.686  27.280  13.545
64101W        W35827  13.417  36.490  14.778
64102W        W35828  12.901  15.015   4.059
64103W        W35829  25.181  17.999   3.222
64104W        W35830  14.439  44.314  11.145
64105W        W35831  23.198  26.571   1.942
64106W        W35832   2.820   3.825   1.832
64107W        W35833  41.295  22.947   2.372
64108W        W35834  23.989   1.743   1.486
64109W        W35835  14.714  39.692  10.240
64110W        W35836   3.786  37.020   3.484
64111W        W35837   7.422  37.382  12.517
64112W        W35838  20.204  14.394   0.404
64113W        W35839  21.664  34.924   0.511
64114W        W35840   4.931   1.216   0.562
64115W        W35841  18.787  37.034  13.580
64116W        W35842  11.493  17.595  10.774
64117W        W35843   0.285  14.015  14.536
64118W        W35844   0.045   2.517  11.618
64119W        W35845  32.702  27.023  14.527
64120W        W35846  18.539  30.610  13.901
64121W        W35847  38.961  10.616   0.821
64122W        W35848  16.109  10.259  14.167
64123W        W35849   9.404  34.313  13.991
64124W        W35850   3.426  30.043  14.960
64125W        W35851  20.498   1.800   1.224
64126W        W35852  31.145   9.125  11.046
64127W        W35853  12.255  31.512   1.729
64128W        W35854  40.909  34.100   0.954
64129W        W35855  27.395  42.804  13.555
64130W        W35856  21.517  20.611  12.053
64131W        W35857  36.431  31.592  12.012
64132W        W35858  40.312  13.950  13.490
64133W        W35859   5.445  37.549   0.250
64134W        W35860  32.353  23.800   9.882
64135W        W35861   2.080  32.126   2.662
64136W        W35862  27.554   7.597  12.392
64137W        W35863   0.046  38.993  12.197
64138W        W35864   2.214   6.962   4.270
64139W        W35865  28.521  30.563   0.024
64140W        W35866   3.776  13.025   1.862
64141W        W35867   4.702   0.857  10.559
64142W        W35868  18.094  37.964  12.484
64143W        W35869  21.583  13.102   3.188
64144W        W35870   2.336  19.896   2.306
64145W        W35871  21.283  10.922   3.554
64146W        W35872  11.546  29.574   2.271
64147W        W35873   5.498  21.802   2.797
64148W        W35874  17.647   0.462  13.502
64149W        W35875  14.307   2.747   1.092
64150W        W35876   0.645  13.142   3.643
64151W        W35877  33.220  22.075  12.086
64152W        W35878  16.135   6.344  10.737
64153W        W35879   5.208  19.142  12.857
64154W        W35880  14.545   5.945   4.644
64155W        W35881  26.977  26.248   3.792
64156W        W35882  12.321  24.658  13.232
64157W        W35883  26.030   3.633   4.246
64158W        W35884  13.401  19.852  13.003
64159W        W35885  24.698  42.499   0.369
64160W        W35886  10.614  38.310   1.205
64161W        W35887   2.263  43.935   0.870
64162W        W35888   9.105  36.552  14.961
64163W        W35889   7.274  28.725   0.500
64164W        W35890  31.963  44.997  12.000
64165W        W35891   6.077  24.518  12.863
64166W        W35892  17.096  11.333   3.424
64167W        W35893  42.013   5.782  13.911
64168W        W35894  34.861  23.108  12.508
64169W        W35895   4.602  23.580   0.758
64170W        W35896  36.994  42.364   2.829
64171W        W35897  10.331  34.532   2.681
64172W        W35898  35.415  25.975   0.958
64173W        W35899   4.453  36.828   1.864
64174W        W35900  17.650   6.507   3.090
64175W        W35901  23.716  23.565  14.841
64176W        W35902   3.108  24.142   3.201
64177W        W35903  10.161  14.637   4.966
64178W        W35904  28.112  39.858   1.930
64179W        W35905  17.217   9.852  12.407
64180W        W35906   8.442  18.127  12.684
64181W        W35907  44.577  13.781   2.385
64182W        W35908  17.700  34.898  14.862
64183W        W35909  32.982  17.128   4.058
64184W        W35910  35.704  13.159   4.175
64185W        W35911  10.353  16.512   0.341
64186W        W35912  20.519  43.372  13.088
64187W        W35913  31.463  24.134   0.480
64188W        W35914   5.625  43.752  11.079
64189W        W35915  23.541  31.394   0.019
64190W        W35916   4.745  15.832   0.846
64191W        W35917  23.012  23.749   2.414
64192W        W35918  42.752  12.735   4.295
64193W        W35919  39.933  31.657   0.410
64194W        W35920   6.877  31.717   2.713
64195W        W35921  15.560   5.757  14.497
64196W        W35922  15.204  43.809  12.470
64197W        W35923  28.429  29.064   4.431
64198W        W35924  36.471  20.221   1.721
64199W        W35925   5.446  44.630  14.391
64200W        W35926  11.299  31.055   2.440
64201W        W35927  18.183  14.919  13.464
64202W        W35928  12.337  42.890  11.415
64203W        W35929   5.316  13.321   9.738
64204W        W35930  17.788  31.362  11.663
64205W        W35931  20.163  11.131   1.977
64206W        W35932  11.171  17.193  10.788
64207W        W35933   7.443  31.550   1.828
64208W        W35934  39.058  14.536  13.862
64209W        W35935  30.586  30.440   1.540
64210W        W35936  11.281  35.503  13.565
64211W        W35937  24.479  10.414  11.772
64212W        W35938   0.751  17.116   4.565
64213W        W35939  14.312  14.784   1.670
64214W        W35940  31.079  34.583   3.329
64215W        W35941  15.538  25.472  13.450
64216W        W35942  40.612  20.344   4.199
64217W        W35943  35.864   9.264   1.803
64218W        W35944  38.413  35.846  11.391
64219W        W35945  33.385  33.919   3.158
64220W        W35946   4.930  12.863   4.592
64221W        W35947  22.010  29.727  11.275
64222W        W35948  41.508  39.490  10.992
64223W        W35949  42.037  20.493   2.079
64224W        W35950  22.282  24.656  11.565
64225W        W35951  38.479  16.265   1.353
64226W        W35952  24.644  15.897   0.421
64227W        W35953   5.206  26.207  10.621
64228W        W35954   1.793  43.225  14.377
64229W        W35955  18.669  33.390  14.801
64230W        W35956  10.705  14.173  14.803
64231W        W35957  44.700  28.877  13.004
64232W        W35958  32.034  21.925   2.644
64233W        W35959  43.424   3.394   2.380
64234W        W35960   1.253  38.826  11.989
64235W        W35961  10.185  19.664  14.353
64236W        W35962  21.645  28.661   0.096
64237W        W35963  35.493  26.630  12.803
64238W        W35964  33.473  32.035  12.456
64239W        W35965  34.450  26.511  14.380
64240W        W35966  10.931  23.030  12.070
64241W        W35967  27.832   9.418   4.224
64242W        W35968  17.598   9.352   1.272
64243W        W35969  13.826   6.217   2.102
64244W        W35970  12.724  40.566   0.390
64245W        W35971  28.019  34.787   1.848
64246W        W35972  43.345  12.592  10.769
64247W        W35973  42.457  27.658   0.002
64248W        W35974  40.996  13.961  12.979
64249W        W35975   7.934  22.201   2.805
64250W        W35976  17.401   3.823   2.414
64251W        W35977  12.746  20.728   3.661
64252W        W35978  34.825  36.140  10.425
64253W        W35979  10.186  32.867   3.141
64254W        W35980  39.248   1.723  13.922
64255W        W35981  16.816   6.987   4.504
64256W        W35982  30.113  16.029  12.911
64257W        W35983  26.717  43.137  10.715
64258W        W35984  41.444  14.185   2.251
64259W        W35985  43.431  13.776   0.459
64260W        W35986  17.864  30.355  11.951
64261W        W35987  29.951  31.616   1.030
64262W        W35988  11.763  19.672   9.913
64263W        W35989   3.505  40.113  11.179
64264W        W35990  35.883   9.570   4.147
64265W        W35991  13.470  40.877  10.733
64266W        W35992  17.657   2.327   3.179
64267W        W35993  42.017  27.566   1.385
64268W        W35994   0.019  29.684   1.981
64269W        W35995  41.761  14.136  11.013
64270W        W35996  30.963  40.561   0.394
64271W        W35997  35.855  10.793   3.384
64272W        W35998  24.523  31.898  12.509
64273W        W35999  23.982  32.571   3.136
64274W        W36000  42.457   0.316  14.393
64275W        W36001  24.234  27.232  13.875
64276W        W36002  20.678  19.445  14.984
64277W        W36003  15.836  26.423  14.279
64278W        W36004   1.782  21.325   1.851
64279W        W36005  13.192   6.182  12.445
64280W        W36006   1.344  39.994   4.179
64281W        W36007  21.704  15.920  14.427
64282W        W36008  37.184   7.552  11.584
64283W        W36009  26.010  38.597   0.419
64284W        W36010   5.077   2.536   4.374
64285W        W36011  20.604  34.711   4.790
64286W        W36012  39.405  15.106   2.400
64287W        W36013   5.506  30.515   1.798
64288W        W36014  15.770  39.772   3.675
64289W        W36015  36.911  27.178   2.820
64290W        W36016  27.101  38.540  13.564
64291W        W36017  41.939  41.266  12.005
64292W        W36018  41.394  35.585   4.809
64293W        W36019  27.714  28.461  14.076
64294W        W36020   8.196  29.966  13.850
64295W        W36021   9.068   5.255  11.641
64296W        W36022   7.975  31.965  14.415
64297W        W36023  44.270  42.867  10.924
64298W        W36024  35.975  39.410   1.519
64299W        W36025  36.571  38.442   3.157
64300W        W36026   1.888  10.288  13.040
64301W        W36027  10.771  26.160   2.770
64302W        W36028  39.491  11.654  11.903
64303W        W36029  42.957  25.932  13.448
64304W        W36030  40.495  30.840   1.220
64305W        W36031  12.484  41.261   3.175
64306W        W36032  13.404  38.684   5.117
64307W        W36033  12.834   4.200   4.313
64308W        W36034   3.696  11.918   9.950
64309W        W36035  13.890  10.215  13.274
64310W        W36036  12.802   8.807  10.641
64311W        W36037  31.745  44.542  11.960
64312W        W36038   1.508  34.452   3.434
64313W        W36039  29.870  44.746   2.120
64314W        W36040  28.014  36.163  11.166
64315W        W36041   1.948   1.389  14.966
64316W        W36042  27.231  12.919  13.477
64317W        W36043  43.592  15.594  13.414
64318W        W36044  31.564   0.371   1.933
64319W        W36045  27.948   8.922   3.271
64320W        W36046  11.054  27.413   1.477
64321W        W36047  44.259  18.991  13.300
64322W        W36048  28.216  13.593  11.048
64323W        W36049  43.455  36.800  14.741
64324W        W36050  12.356  27.023  11.574
64325W        W36051  16.706  39.730   1.852
64326W        W36052  26.596  10.413  14.484
64327W        W36053  20.467  24.490  11.988
64328W        W36054  32.855  15.278   2.555
64329W        W36055  43.272   1.824  10.801
64330W        W36056  13.269  36.833  10.957
64331W        W36057  38.486  27.027  13.318
64332W        W36058  10.624  39.776   3.185
64333W        W36059  24.088  15.023  10.030
64334W        W36060   1.848   8.536  11.953
64335W        W36061  24.677   2.395   4.250
64336W        W36062   7.838  43.518  13.848
64337W        W36063  18.587  24.079   0.023
64338W        W36064  40.846   8.619  14.754
64339W        W36065  43.992  13.094   2.670
64340W        W36066  17.893   0.785  11.523
64341W        W36067  13.400  28.990  14.916
64342W        W36068  18.814  34.855   2.394
64343W        W36069   4.990   7.218  11.068
64344W        W36070  11.323  39.720  10.700
64345W        W36071  44.254  38.349   2.289
64346W        W36072  14.334   3.156   0.741
64347W        W36073   2.632  12.297  13.564
64348W        W36074   9.715  11.840  12.588
64349W        W36075   5.688  11.829   0.943
64350W        W36076   2.573   0.726   3.502
64351W        W36077   4.696  14.999  13.194
64352W        W36078  38.106   7.145   3.040
64353W        W36079  42.071  34.889   0.654
64354W        W36080  20.707  42.107  11.086
64355W        W36081  15.217  38.268  12.453
64356W        W36082   1.998  14.223   3.407
64357W        W36083  21.653   2.263  12.541
64358W        W36084  12.269   3.751   0.740
64359W        W36085   9.082  35.083  11.177
64360W        W36086  34.176  18.680   1.379
64361W        W36087  13.115  26.730  14.757
64362W        W36088  14.078  34.116  13.582
64363W        W36089  38.973  19.068   5.108
64364W        W36090  10.331   5.060   3.752
64365W        W36091   7.451   8.355   2.745
64366W        W36092  11.425  30.103  13.488
64367W        W36093  25.711   7.199   3.258
64368W        W36094  13.203  13.832  11.708
64369W        W36095   7.076   7.950  11.085
64370W        W36096  42.742   8.133  11.414
64371W        W36097  33.086  20.254  12.617
64372W        W36098  30.212   6.249   2.704
64373W        W36099  12.865  36.997   4.833
64374W        W36100  44.320   6.801   1.681
64375W        W36101  12.544  40.990  14.279
64376W        W36102  22.538  16.784  12.855
64377W        W36103  21.733  38.316   2.646
64378W        W36104  42.582  38.612   0.184
64379W        W36105  42.910  28.750   1.069
64380W        W36106  21.482  12.761  13.795
64381W        W36107  39.504   7.066  11.733
64382W        W36108  29.914  38.344   3.828
64383W        W36109  26.168  32.267  14.967
64384W        W36110   5.307  39.811  11.516
64385W        W36111  36.787  16.131  14.325
64386W        W36112  43.693  23.001   0.024
64387W        W36113  10.451  31.833  13.924
64388W        W36114  19.265   8.231  11.471
64389W        W36115  33.080  40.469   1.930
64390W        W36116   2.319  44.796   2.502
64391W        W36117   7.797  18.614   2.413
64392W        W36118  16.841  31.132  12.939
64393W        W36119  22.654   5.360   3.542
64394W        W36120  24.112   4.021   2.726
64395W        W36121  30.893  27.152  11.003
64396W        W36122  28.451   7.188   2.069
64397W        W36123  17.735  35.407  14.952
64398W        W36124  42.874  13.210   3.507
64399W        W36125  27.471   0.756   1.351
64400W        W36126  22.443  23.633   3.727
64401W        W36127  12.795   7.143  13.985
64402W        W36128  38.900  17.278   4.900
64403W        W36129  20.783  42.476   1.837
64404W        W36130  35.549   2.837  10.967
64405W        W36131  24.003  17.717  11.697
64406W        W36132  37.380  37.539   4.687
64407W        W36133  18.690   5.360   0.386
64408W        W36134  38.381  20.837  10.645
64409W        W36135   8.076  10.922  14.513
64410W        W36136  21.048  26.240  12.028
64411W        W36137  28.554  29.326   2.181
64412W        W36138  12.078  39.049   2.836
64413W        W36139   2.270   8.282  12.078
64414W        W36140  34.338   7.239   4.706
64415W        W36141  33.907  12.365   1.150
64416W        W36142  13.611  21.903   0.851
64417W        W36143  43.549  17.728   2.802
64418W        W36144   1.932  22.757  11.237
64419W        W36145   8.790  30.201   4.274
64420W        W36146  41.940  29.594   1.019
64421W        W36147  29.639  10.744   4.220
64422W        W36148  16.673  22.672   1.882
64423W        W36149  36.551  14.404  12.969
64424W        W36150  37.974  42.052  11.946
64425W        W36151   2.808  23.202   4.117
64426W        W36152  14.663  31.459   4.293
64427W        W36153  15.012  18.767   2.639
64428W        W36154  25.116  25.431  13.940
64429W        W36155  42.581  23.709  11.097
64430W        W36156   2.273  38.632   1.703
64431W        W36157  13.466  40.261   1.425
64432W        W36158  18.082   7.332   1.742
64433W        W36159   2.351   8.113   3.348
64434W        W36160  24.970  12.381  10.409
64435W        W36161  27.977  21.147   5.056
64436W        W36162  31.033  22.944   4.885
64437W        W36163  28.693  32.847  11.257
64438W        W36164  21.301  22.066   2.248
64439W        W36165  22.659  39.328   2.458
64440W        W36166  23.752   5.235   0.735
64441W        W36167  27.850  33.513   2.697
64442W        W36168   5.863  43.340  11.337
64443W        W36169  14.518   1.841   3.662
64444W        W36170  11.232  43.347   1.938
64445W        W36171  31.872   3.019  11.406
64446W        W36172  32.665   1.824  12.981
64447W        W36173  20.491  23.998   2.429
64448W        W36174   1.997  19.085   1.218
64449W        W36175  13.174   2.764  12.503
64450W        W36176  22.151  15.125  13.625
64451W        W36177  23.088   3.943   2.266
64452W        W36178   2.340  12.992   2.313
64453W        W36179   0.430   5.461   0.709
64454W        W36180  15.500  40.844   9.794
64455W        W36181  38.109  37.287  13.123
64456W        W36182  18.738  15.559   2.241
64457W        W36183  23.276  11.198  12.465
64458W        W36184   8.832  44.076  13.855
64459W        W36185  41.428  40.866  13.544
64460W        W36186  29.621  16.679   2.709
64461W        W36187   4.343  12.105  14.430
64462W        W36188  11.637  33.718   3.642
64463W        W36189  21.678  36.743   0.795
64464W        W36190  12.111   9.771   2.821
64465W        W36191  10.425   3.179  14.595
64466W        W36192  34.852  12.100   1.273
64467W        W36193   4.600  38.804   3.974
64468W        W36194  35.280  36.899   2.358
64469W        W36195  30.457  11.381  14.119
64470W        W36196  38.439  11.668  11.758
64471W        W36197  22.201   2.502   2.934
64472W        W36198  16.853  13.577  11.194
64473W        W36199  44.857  22.799  14.747
64474W        W36200  21.133  20.985  11.112
64475W        W36201  44.212   8.615   1.887
64476W        W36202  40.381  13.441  13.490
64477W        W36203  21.585  16.090  11.923
64478W        W36204  30.309  11.145  11.436
64479W        W36205   7.966  19.201  11.677
64480W        W36206   0.223  20.506   1.359
64481W        W36207  26.715  23.228  14.534
64482W        W36208  13.365  30.556   3.252
64483W        W36209  26.005  33.928   1.017
64484W        W36210  38.784  37.820   0.433
64485W        W36211   4.227  34.678   4.924
64486W        W36212  32.233  12.318  12.821
64487W        W36213  19.625  44.923  12.114
64488W        W36214  28.353  25.401   4.663
64489W        W36215  43.013  32.445  12.513
64490W        W36216  30.383   0.716   4.215
64491W        W36217   9.685  36.053  12.430
64492W        W36218  21.297  17.196  12.863
64493W        W36219  38.959  38.824   1.422
64494W        W36220   1.735   7.336   1.816
64495W        W36221   4.804  12.245  12.565
64496W        W36222  33.966  27.061  10.709
64497W        W36223   7.572  20.735  10.635
64498W        W36224   4.348  41.465   1.905
64499W        W36225  16.466  40.967   4.563
64500W        W36226  29.612  16.499  13.538
64501W        W36227  16.136   5.859   3.721
64502W        W36228  30.073  15.367  12.132
64503W        W36229   5.625   7.858   3.670
64504W        W36230  35.973  38.018  13.023
64505W        W36231  42.032  35.776   2.349
64506W        W36232   0.839  40.139  12.032
64507W        W36233  33.611  10.508  13.886
64508W        W36234   7.740   4.256  11.337
64509W        W36235  21.241  14.289   1.729
64510W        W36236  33.369   3.377  10.735
64511W        W36237  21.205  14.371   3.614
64512W        W36238  31.358  36.368  11.016
64513W        W36239   9.428  42.240   3.328
64514W        W36240  38.805  29.369   0.864
64515W        W36241  21.658  33.413   4.376
64516W        W36242  11.223  35.177   5.088
64517W        W36243  38.045  31.229  14.032
64518W        W36244  24.000   5.345   4.315
64519W        W36245  21.071  42.412   1.029
64520W        W36246  33.613  10.404   3.369
64521W        W36247   5.933  34.164  12.878
64522W        W36248  10.619  30.973  14.413
64523W        W36249  34.777  23.545  12.782
64524W        W36250  37.554  10.863   2.726
64525W        W36251  35.772  10.365   3.714
64526W        W36252  13.546  11.361   0.420
64527W        W36253   8.206  17.163  12.653
64528W        W36254  33.298  37.327  12.749
64529W        W36255  24.223  35.605   1.897
64530W        W36256   7.456   4.020   5.151
64531W        W36257  25.088  26.091   2.180
64532W        W36258  40.016  27.635   1.184
64533W        W36259  13.267  41.425   4.583
64534W        W36260  17.887  23.358  12.115
64535W        W36261  12.773  44.025   3.495
64536W        W36262  17.063  36.359   2.676
64537W        W36263  34.399   0.009   0.287
64538W        W36264  32.832   3.398   4.522
64539W        W36265  20.672  16.993  10.756
64540W        W36266   5.794  30.623  11.066
64541W        W36267  21.115  27.370   2.341
64542W        W36268  17.080  26.136  11.584
64543W        W36269  32.892  21.712  13.898
64544W        W36270  20.943  18.703  13.507
64545W        W36271  10.091  41.461   2.692
64546W        W36272  11.580  39.034   4.621
64547W        W36273  20.271  11.070   2.516
64548W        W36274   5.530   7.899   2.814
64549W        W36275  42.266  32.028   3.224
64550W        W36276  10.649  21.763   4.851
64551W        W36277  34.882  34.844   0.383
64552W        W36278  34.826  18.825  13.367
64553W        W36279  18.118  39.017   5.056
64554W        W36280  27.378  36.879   3.691
64555W        W36281   4.738  23.271   4.325
64556W        W36282  22.609  44.087   2.369
64557W        W36283  19.802  29.499   2.396
64558W        W36284  16.617  44.779   2.273
64559W        W36285  40.790  40.122   4.515
64560W        W36286  28.513  33.107   1.282
64561W        W36287  41.713  12.918   4.092
64562W        W36288  36.454  23.647   3.296
64563W        W36289  33.469  25.594  14.326
64564W        W36290  44.452  15.686  13.986
64565W        W36291   2.481  17.277  14.058
64566W        W36292   0.448  31.394   4.660
64567W        W36293  28.591  29.502   2.682
64568W        W36294  18.256  10.639  11.168
64569W        W36295  16.983  29.045   3.718
64570W        W36296  23.049  13.712   1.152
64571W        W36297   4.407  32.442  11.634
64572W        W36298  39.819   5.760  13.397
64573W        W36299  33.570  36.395  12.962
64574W        W36300  39.641   4.942   4.221
64575W        W36301   1.974  16.882  13.252
64576W        W36302  24.922  26.059   3.755
64577W        W36303   0.901  21.760  14.969
64578W        W36304  26.987  13.816  13.428
64579W        W36305  30.587  42.928   1.805
64580W        W36306   8.823  39.674  11.588
64581W        W36307  23.504   4.704   3.174
64582W        W36308   2.454  40.398  11.167
64583W        W36309  17.787  26.095  11.829
64584W        W36310   8.461   1.334  13.863
64585W        W36311  43.929  20.106   0.434
64586W        W36312   3.540  19.601  13.840
64587W        W36313  37.813   3.481  13.776
64588W        W36314  21.300  38.647  13.171
64589W        W36315   0.875  11.141  12.073
64590W        W36316  15.570  29.419   0.364
64591W        W36317  10.980  14.731   3.073
64592W        W36318  21.738   8.064   4.643
64593W        W36319  29.075   9.859  14.767
64594W        W36320  27.158  40.982  13.790
64595W        W36321   7.340  43.902  13.911
64596W        W36322   5.390  36.104   4.757
64597W        W36323  23.414   1.682  12.827
64598W        W36324  28.179  31.653  12.980
64599W        W36325  25.013  35.966   3.408
64600W        W36326  32.565  17.652  10.851
64601W        W36327  40.111  32.600   3.025
64602W        W36328   3.764  25.787   2.322
64603W        W36329  30.548  42.831  12.378
64604W        W36330   8.094   9.417   2.322
64605W        W36331  15.807  13.783   4.038
64606W        W36332  14.500  41.957  10.792
64607W        W36333  37.504  27.411  12.990
64608W        W36334  35.365  12.149  12.694
64609W        W36335   4.282  42.966   4.257
64610W        W36336  37.490  18.863  13.904
64611W        W36337  43.599  37.477  10.727
64612W        W36338  37.817  26.609   0.819
64613W        W36339  42.407  32.856   2.842
64614W        W36340  12.889  36.416  14.724
64615W        W36341   2.402  19.397  14.585
64616W        W36342  37.532   7.611  14.837
64617W        W36343   0.854  14.318   2.354
64618W        W36344   6.250  10.633  14.048
64619W        W36345  37.480  22.468   4.627
64620W        W36346   0.537  17.888  14.524
64621W        W36347   8.508  16.549   3.187
64622W        W36348  17.586  28.675   0.218
64623W        W36349  38.460  31.971   0.480
64624W        W36350  18.538   6.206  13.407
64625W        W36351  11.748  32.632  14.232
64626W        W36352  36.540  27.421   1.758
64627W        W36353  27.132  10.764   2.701
64628W        W36354   2.637   2.876  13.367
64629W        W36355  13.593   8.253   2.773
64630W        W36356  26.836  28.186  11.939
64631W        W36357  37.541   2.882  12.601
64632W        W36358  42.669  28.192  14.024
64633W        W36359  39.566  43.262  11.928
64634W        W36360  26.519  20.722   3.936
64635W        W36361  41.036  19.884  11.714
64636W        W36362  20.767   1.145   4.170
64637W        W36363  12.856  42.326  11.421
64638W        W36364  43.563  17.041   2.277
64639W        W36365  27.509  29.491  14.766
64640W        W36366  19.264  24.871   4.709
64641W        W36367  16.592   4.398  14.858
64642W        W36368  28.174  22.130  12.062
64643W        W36369  19.645  17.856  11.190
64644W        W36370  14.862   7.086   0.333
64645W        W36371  22.059  35.068   3.921
64646W        W36372  33.627  22.992   0.050
64647W        W36373  38.622   9.274  11.535
64648W        W36374   1.845  43.500  13.407
64649W        W36375  13.206  14.692  13.107
64650W        W36376  20.990  17.453   4.031
64651W        W36377  27.666  20.335  13.924
64652W        W36378  32.562  44.235  13.139
64653W        W36379  40.250  33.990   0.128
64654W        W36380   6.071  27.780   3.587
64655W        W36381  31.059  15.471  13.548
64656W        W36382  22.038  18.278  11.146
64657W        W36383  41.508   0.261   0.813
64658W        W36384  21.793  44.498   1.321
64659W        W36385   6.398  37.189   3.211
64660W        W36386  39.417   1.183   4.818
64661W        W36387  25.661  24.034  13.126
64662W        W36388  13.067  32.353   4.547
64663W        W36389  38.606   6.240  13.678
64664W        W36390  13.419  24.065   0.282
64665W        W36391   7.754  10.269   3.089
64666W        W36392  13.349  16.893   2.290
64667W        W36393  39.814  18.481  11.069
64668W        W36394  28.844  44.759  12.090
64669W        W36395  33.137  22.739   1.248
64670W        W36396  33.113  43.951   2.207
64671W        W36397  33.641   9.837  11.058
64672W        W36398   4.323   7.918  13.807
64673W        W36399   6.325  31.304  12.639
64674W        W36400  12.136  10.422   0.807
64675W        W36401  22.306  30.405  13.015
64676W        W36402  12.543  43.021   1.771
64677W        W36403  30.900   7.315  14.391
64678W        W36404   5.971  35.506   3.838
64679W        W36405  36.838  32.729  14.037
64680W        W36406   0.425  37.330   1.187
64681W        W36407   8.723  43.893   1.303
64682W        W36408  14.214  12.911  10.550
64683W        W36409  43.869  37.566  12.075
64684W        W36410   9.612  36.350   3.673
64685W        W36411  19.206   2.692  13.994
64686W        W36412   0.728  35.508   3.856
64687W        W36413  40.781   0.695   3.184
64688W        W36414  26.938  36.563   0.859
64689W        W36415  42.231  24.705  12.094
64690W        W36416  38.046  28.245   1.758
64691W        W36417  30.232  13.609   4.289
64692W        W36418  36.184   7.459   0.808
64693W        W36419  32.067   4.306  10.790
64694W        W36420  19.134  44.469   4.552
64695W        W36421   6.405  22.318   3.612
64696W        W36422  33.379  24.457   0.362
64697W        W36423  43.007  43.966   4.555
64698W        W36424  37.746   7.206  12.542
64699W        W36425   3.784   4.905   4.068
64700W        W36426   9.949  44.143  11.171
64701W        W36427  40.342  44.697   1.406
64702W        W36428  36.830   1.523   1.055
64703W        W36429  27.939   9.875   4.488
64704W        W36430  17.979   0.894  12.339
64705W        W36431  10.462   6.155   2.350
64706W        W36432  21.098  37.733   2.055
64707W        W36433  27.261  17.206  12.866
64708W        W36434  36.130   1.970   2.821
64709W        W36435  13.802  40.113  12.172
64710W        W36436  24.127  12.483  14.848
64711W        W36437  20.665  35.669   4.533
64712W        W36438  17.958  11.423  12.121
64713W        W36439  37.937  33.012  13.061
64714W        W36440  11.175  44.826  14.701
64715W        W36441  17.289  44.821   1.881
64716W        W36442   6.055  29.127  14.767
64717W        W36443   6.875  35.602  11.067
64718W        W36444  36.548   1.645   2.846
64719W        W36445  24.576  43.291  13.308
64720W        W36446  22.893   6.353   0.677
64721W        W36447  26.672  14.210  12.032
64722W        W36448   3.819   6.387   3.259
64723W        W36449  37.496  20.736  13.806
64724W        W36450   6.302  15.284  14.841
64725W        W36451  11.117  36.597  12.661
64726W        W36452  21.278  31.393  14.016
64727W        W36453  15.303  41.143  14.408
64728W        W36454   5.783   8.307   0.827
64729W        W36455  19.684  35.287   0.203
64730W        W36456  16.310   6.187  14.880
64731W        W36457   0.003   3.230  14.829
64732W        W36458  18.333  16.884  14.457
64733W        W36459  13.580  15.538   5.079
64734W        W36460  24.216  40.114   4.660
64735W        W36461  14.076  19.609   4.505
64736W        W36462  20.630  15.068   0.907
64737W        W36463   2.717   6.929  13.394
64738W        W36464  12.739   8.725   2.907
64739W        W36465   4.829  11.153   2.765
64740W        W36466  26.453   8.818  10.940
64741W        W36467  25.711   7.197   4.167
64742W        W36468  28.650  29.040  11.103
64743W        W36469   1.019  40.264   4.453
64744W        W36470  31.763   2.322  11.895
64745W        W36471   3.379  18.030  14.880
64746W        W36472  39.335  23.739  12.098
64747W        W36473  36.609  33.087  12.864
64748W        W36474  32.465  20.768   0.575
64749W        W36475  31.355  29.000  12.017
64750W        W36476  13.780  17.063  11.622
64751W        W36477  28.507  15.595  12.554
64752W        W36478  21.773  10.846   3.220
64753W        W36479  11.336  33.197   0.393
64754W        W36480  39.024   7.121   1.294
64755W        W36481   5.105  18.207   2.313
64756W        W36482  15.606  12.990  12.340
64757W        W36483   1.170  21.099  14.225
64758W        W36484  34.915  28.640  14.663
64759W        W36485  28.605  34.673   3.150
64760W        W36486   6.245  43.701   0.882
64761W        W36487  31.517  36.084   1.011
64762W        W36488  13.713  25.708  11.753
64763W        W36489  21.999  17.967  14.837
64764W        W36490  18.460  22.855   0.502
64765W        W36491  23.707   9.837  14.825
64766W        W36492  30.510  25.815   1.903
64767W        W36493  11.696  12.401  14.938
64768W        W36494  10.504  16.787  11.555
64769W        W36495  31.628   2.841  13.992
64770W        W36496  39.623  30.438   0.161
64771W        W36497  27.131  40.335  10.272
64772W        W36498  31.057   4.695  10.702
64773W        W36499  10.245  44.746   3.874
64774W        W36500  17.019  17.522   1.666
64775W        W36501  11.905   2.442   0.903
64776W        W36502   3.309  29.600   0.197
64777W        W36503  33.405  27.476   2.222
64778W        W36504  27.920  36.364   0.419
64779W        W36505  34.362  39.544  12.546
64780W        W36506  33.965  44.718  11.005
64781W        W36507  42.934  31.923  13.875
64782W        W36508  14.333  44.303  10.588
64783W        W36509  42.478   7.466  11.922
64784W        W36510   1.811   2.087   0.800
64785W        W36511   9.986  36.476   4.912
64786W        W36512  31.360  40.323  14.517
64787W        W36513  23.098  36.073  13.357
64788W        W36514   8.299  40.479   0.187
64789W        W36515  21.676  34.452   2.227
64790W        W36516  44.959  35.361   0.883
64791W        W36517  21.471  20.308   2.715
64792W        W36518  21.913  35.069   1.344
64793W        W36519  39.594  12.350  13.893
64794W        W36520  26.232  37.838   3.804
64795W        W36521   4.885  21.408   0.465
64796W        W36522  42.899  23.163  14.612
64797W        W36523   4.251  11.665  11.414
64798W        W36524   2.190  44.896   0.901
64799W        W36525  19.508  36.326  14.646
64800W        W36526  27.509  14.682  11.142
64801W        W36527   3.144  28.551  11.994
64802W        W36528  41.482  23.097   0.750
64803W        W36529   9.249   1.200   2.262
64804W        W36530  27.895  34.022   3.430
64805W        W36531  23.386   9.507   2.709
64806W        W36532  25.795   9.214   1.226
64807W        W36533  28.234  20.249  10.763
64808W        W36534  21.068   9.202  13.163
64809W        W36535  41.553  10.419  12.270
64810W        W36536  27.472   2.880   1.344
64811W        W36537  43.439   3.913  14.557
64812W        W36538  12.243  22.239   2.508
64813W        W36539  19.291  30.580  13.487
64814W        W36540  20.739  28.328   0.041
64815W        W36541  29.655  20.248   4.156
64816W        W36542  19.019  10.945   2.371
64817W        W36543  44.263  24.558   4.067
64818W        W36544  23.760  13.284  13.996
64819W        W36545  29.473  16.203  11.697
64820W        W36546  37.507  40.756  11.621
64821W        W36547  40.070  14.175   1.821
64822W        W36548  26.574  22.139   3.079
64823W        W36549  14.540  43.445  14.389
64824W        W36550  39.109   7.905   4.615
64825W        W36551  25.120  31.506  12.192
64826W        W36552  28.139  29.459  13.050
64827W        W36553  20.868   9.821   2.410
64828W        W36554  26.509   9.965   3.054
64829W        W36555   2.001  12.611  14.319
64830W        W36556  31.084  38.593  14.514
64831W        W36557  33.785  29.449  13.422
64832W        W36558  23.827  41.992   1.647
64833W        W36559  11.104  37.422   3.085
64834W        W36560  28.940  13.200  11.589
64835W        W36561   9.101  12.340   0.844
64836W        W36562   2.800  43.833   1.807
64837W        W36563  43.571  10.316  14.838
64838W        W36564  40.910  33.198  11.078
64839W        W36565  30.432  11.691   0.481
64840W        W36566  19.822  43.110   0.271
64841W        W36567  38.377  31.590   2.231
64842W        W36568  38.064  36.304   1.783
64843W        W36569  44.978  44.180   2.782
64844W        W36570  11.203  21.596  14.022
64845W        W36571   5.046  37.369   1.037
64846W        W36572   4.661  41.366   2.324
64847W        W36573  39.001  31.630   9.598
64848W        W36574  17.742  24.503  14.962
64849W        W36575  44.877  17.762   3.615
64850W        W36576  35.798  12.344  10.627
64851W        W36577  38.163  31.180   1.271
64852W        W36578   1.323  32.842  14.910
64853W        W36579  29.151  13.903   3.759
64854W        W36580  44.809  20.186   1.300
64855W        W36581  32.503  32.990   1.399
64856W        W36582  32.992  29.374   2.753
64857W        W36583   8.068  15.125  11.320
64858W        W36584  30.982  12.346  11.718
64859W        W36585  21.110  11.715   1.415
64860W        W36586  39.328  14.932  12.600
64861W        W36587  40.043  11.406   3.808
64862W        W36588  28.497  44.292   2.722
64863W        W36589  35.451  40.304   3.231
64864W        W36590  11.318  34.133   5.119
64865W        W36591  10.820  38.958   0.571
64866W        W36592   0.909  38.101   0.374
64867W        W36593  33.990   3.305  14.381
64868W        W36594   0.800  42.482   1.066
64869W        W36595   7.138   7.719   1.908
64870W        W36596  32.162  35.478  12.469
64871W        W36597  10.069  44.285   4.658
64872W        W36598  20.586   6.350   0.478
64873W        W36599  25.514   2.790   4.254
64874W        W36600  31.605  33.366   2.329
64875W        W36601  41.347   9.452   3.295
64876W        W36602  25.077  43.273  14.401
64877W        W36603  27.591  39.659  14.969
64878W        W36604   4.640  14.285  14.979
64879W        W36605  32.584   6.974   2.252
64880W        W36606  25.741  23.612  10.943
64881W        W36607  18.143  33.828   2.887
64882W        W36608  26.976  24.039   0.706
64883W        W36609  42.920   8.254   4.612
64884W        W36610  15.560  20.821   1.753
64885W        W36611  41.049  21.721  12.971
64886W        W36612  29.633   0.279  10.415
64887W        W36613  15.102  36.093   4.669
64888W        W36614  32.675  24.601  11.958
64889W        W36615  22.089   0.511  12.530
64890W        W36616   4.534   1.841  12.890
64891W        W36617   8.152  12.644  11.953
64892W        W36618  28.097   9.393  12.616
64893W        W36619  30.666   0.080   3.188
64894W        W36620   3.274  29.830   3.529
64895W        W36621  40.006  12.218   2.633
64896W        W36622  13.177  39.209  11.576
64897W        W36623  38.844  32.194  11.661
64898W        W36624   2.966  35.929  14.220
64899W        W36625  28.200   1.036   2.411
64900W        W36626  35.999  40.225  13.907
64901W        W36627  13.167  37.258   0.324
64902W        W36628  36.846  32.829   0.906
64903W        W36629  28.073   0.935   4.773
64904W        W36630  30.414   9.859   4.681
64905W        W36631   6.191  16.772  14.795
64906W        W36632  36.588  13.251  13.476
64907W        W36633  43.295  34.410   0.902
64908W        W36634   8.920  18.072   2.265
64909W        W36635  43.367  40.407  11.954
64910W        W36636   4.385  31.981  10.564
64911W        W36637  38.919   6.919   4.290
64912W        W36638  35.568  14.232   4.362
64913W        W36639  36.437   2.390   2.501
64914W        W36640  42.047  41.803   4.828
64915W        W36641  43.644  11.755   3.957
64916W        W36642  42.969  23.555  12.922
64917W        W36643  26.932  26.394   4.365
64918W        W36644  13.858   7.609  11.681
64919W        W36645  22.696   7.444   5.074
64920W        W36646  30.251   9.039  11.062
64921W        W36647   6.131   8.788   2.719
64922W        W36648  20.164  44.256  10.741
64923W        W36649  10.772  20.534   4.670
64924W        W36650  26.969   9.677  13.469
64925W        W36651   5.361  16.616   0.408
64926W        W36652  10.879  40.985  13.996
64927W        W36653  26.154  34.573  11.211
64928W        W36654   4.669  22.686   4.185
64929W        W36655  29.108  25.135  13.440
64930W        W36656  31.800  35.545  14.747
64931W        W36657  43.257  32.341   4.767
64932W        W36658  13.322  11.803  12.792
64933W        W36659  24.198  28.162   2.979
64934W        W36660   6.814   1.777   0.331
64935W        W36661  26.641  37.363   1.859
64936W        W36662  34.411  17.714   0.787
64937W        W36663  33.961  10.135   2.592
64938W        W36664  16.446   9.296   3.437
64939W        W36665   2.880   1.473   1.250
64940W        W36666  44.414   2.460  12.133
64941W        W36667  31.046  44.945   0.750
64942W        W36668  37.134  10.374  12.070
64943W        W36669   1.254  43.014   0.778
64944W        W36670   9.264   5.752   4.120
64945W        W36671  21.823  43.533  13.295
64946W        W36672  17.166   6.983  12.346
64947W        W36673  24.981  17.445   5.052
64948W        W36674  22.231  36.655  13.412
64949W        W36675  26.477   7.275  13.905
64950W        W36676  38.182  23.126  10.714
64951W        W36677  30.552  44.470  10.208
64952W        W36678  18.993   3.359  12.836
64953W        W36679   7.718   4.730  13.552
64954W        W36680   6.192  17.345   0.700
64955W        W36681  14.070  35.328  12.361
64956W        W36682  35.577  30.634  10.467
64957W        W36683  20.017  25.637  10.728
64958W        W36684  21.167  17.069   3.149
64959W        W36685  29.960  14.651   3.472
64960W        W36686   0.996  17.574  13.807
64961W        W36687  30.883  32.894  10.620
64962W        W36688  12.204   9.159  13.002
64963W        W36689  39.351  31.866   0.714
64964W        W36690  32.918  20.915  12.012
64965W        W36691  11.296  35.672  12.286
64966W        W36692  21.442  16.661   2.320
64967W        W36693  26.026  28.968   2.224
64968W        W36694  19.098   5.375   0.704
64969W        W36695  39.373  10.226   2.671
64970W        W36696  33.925   2.163  12.715
64971W        W36697   4.831  41.478  13.809
64972W        W36698  40.843   2.016  11.604
64973W        W36699   2.517  28.685   3.518
64974W        W36700  33.529   1.735  14.289
64975W        W36701  21.293  13.414  10.780
64976W        W36702  39.427  43.976  13.475
64977W        W36703   7.479  38.384   2.809
64978W        W36704   9.448  33.447  11.660
64979W        W36705  25.723  30.554  10.719
64980W        W36706  42.962  30.118   2.721
64981W        W36707   6.724  23.280  12.051
64982W        W36708  30.504  40.862   4.484
64983W        W36709  33.356  38.339  13.069
64984W        W36710  12.863  14.164  13.090
64985W        W36711   2.144  26.783   5.100
64986W        W36712  22.945  21.490  13.364
64987W        W36713  22.594  28.042   1.243
64988W        W36714  24.994  43.611  14.788
64989W        W36715  14.771  10.288  13.860
64990W        W36716  31.762  12.485  13.411
64991W        W36717  41.639  30.696   3.868
64992W        W36718  24.560   1.665  14.999
64993W        W36719   7.222  30.836  10.982
64994W        W36720  23.091   2.180   2.269
64995W        W36721  39.915   7.420  10.622
64996W        W36722  41.747  21.270  11.724
64997W        W36723  43.783   4.844   0.913
64998W        W36724   3.339  21.252   2.692
64999W        W36725  43.807  37.990  12.855
65000W        W36726  30.114   1.147   3.876
65001W        W36727  40.337  24.689   1.893
65002W        W36728  16.263  44.503  10.485
65003W        W36729  42.252   4.837  14.856
65004W        W36730  33.021  35.120   2.648
65005W        W36731  26.487  29.051   4.194
65006W        W36732   6.263  44.434  11.099
65007W        W36733  34.049  38.378  13.333
65008W        W36734   5.368   0.062  10.649
65009W        W36735  21.595  28.664   0.611
65010W        W36736   7.394   3.299  12.087
65011W        W36737  26.918   0.352  10.279
65012W        W36738  42.647  31.696   3.401
65013W        W36739  16.496  29.003  10.500
65014W        W36740  18.261  30.706  12.679
65015W        W36741  33.742   9.164  14.791
65016W        W36742  14.279  10.215   2.261
65017W        W36743  37.082   6.274   1.380
65018W        W36744  39.592  42.285  10.770
65019W        W36745  34.039   5.206   2.232
65020W        W36746  21.982  24.815   0.951
65021W        W36747   0.667   8.039   3.783
65022W        W36748   8.107  17.046   0.898
65023W        W36749  43.927  10.246  14.001
65024W        W36750  35.773  13.206  14.841
65025W        W36751  41.568  12.662   3.588
65026W        W36752   8.738  15.548  14.955
65027W        W36753  33.653  36.545   3.642
65028W        W36754  12.192  35.798   1.014
65029W        W36755  11.666  23.463  13.942
65030W        W36756  40.981  18.865   3.429
65031W        W36757   6.500  42.386   0.396
65032W        W36758  21.846  33.367   1.364
65033W        W36759  13.647  22.946   0.936
65034W        W36760  38.607  31.139   1.989
65035W        W36761  15.854  24.216  13.961
65036W        W36762  20.311   1.719   1.703
65037W        W36763  17.895  24.068  11.572
65038W        W36764  24.254   2.902   1.849
65039W        W36765  35.534  32.564  14.368
65040W        W36766  23.299  31.957  10.891
65041W        W36767  21.780  20.608  12.514
65042W        W36768  34.658  41.243  10.692
65043W        W36769  12.344   1.951  10.458
65044W        W36770   1.588  29.114  12.325
65045W        W36771  33.857  17.387  14.517
65046W        W36772  40.900  33.539   1.749
65047W        W36773  44.533   8.303  10.731
65048W        W36774   9.236  33.804   2.200
65049W        W36775  37.837   5.416   1.795
65050W        W36776  34.498  12.784  14.959
65051W        W36777  14.292  39.342  13.314
65052W        W36778  16.738  23.331   0.794
65053W        W36779   2.448   1.203   3.579
65054W        W36780  31.954  26.837   4.296
65055W        W36781  35.519  39.377   2.426
65056W        W36782  12.849  18.056  10.699
65057W        W36783  17.584   5.171  13.823
65058W        W36784  21.148   3.207  14.549
65059W        W36785  43.714  22.835   3.634
65060W        W36786  23.516  44.431   4.719
65061W        W36787  28.917  21.838  13.244
65062W        W36788  33.995  31.868  13.353
65063W        W36789  35.601  40.346  11.627
65064W        W36790  30.803  40.454  11.244
65065W        W36791   9.761   7.098   0.765
65066W        W36792  22.235  30.707   4.955
65067W        W36793  36.382   6.414  14.797
65068W        W36794  22.377  19.580   3.276
65069W        W36795  42.807  12.817  12.594
65070W        W36796   6.334  13.221   0.471
65071W        W36797   9.832   5.950  11.095
65072W        W36798  40.540   0.702  11.208
65073W        W36799  39.377  32.367   3.944
65074W        W36800  38.442  16.295   0.145
65075W        W36801  34.883   6.466  12.261
65076W        W36802  14.282  42.316   1.100
65077W        W36803  17.219  10.114   1.201
65078W        W36804  35.037   2.161   1.370
65079W        W36805  26.448   6.486   1.219
65080W        W36806  32.525  41.948  13.530
65081W        W36807  17.179  37.152  11.080
65082W        W36808  29.203  29.683   0.841
65083W        W36809   4.755  40.033  12.622
65084W        W36810   1.251   9.215   3.648
65085W        W36811  24.932  27.346  11.876
65086W        W36812  33.010   5.679  13.088
65087W        W36813  13.118  10.235  12.555
65088W        W36814  29.931   1.498  12.447
65089W        W36815  12.195  37.061  10.926
65090W        W36816   7.536  13.094   0.665
65091W        W36817  26.408  19.148  14.802
65092W        W36818  15.862   6.952   4.825
65093W        W36819   3.151  37.019   0.403
65094W        W36820  15.341  23.549   0.029
65095W        W36821  25.437  23.573   2.406
65096W        W36822  31.228  14.364   1.289
65097W        W36823  22.361   7.045  13.824
65098W        W36824  25.738  42.343   2.693
65099W        W36825  16.166  32.060   4.695
65100W        W36826  10.283  15.152   3.737
65101W        W36827  39.926  14.331   2.287
65102W        W36828  31.817  27.649  14.296
65103W        W36829  38.101  17.764   4.773
65104W        W36830  31.598  42.326  13.713
65105W        W36831  31.575   4.076   4.887
65106W        W36832  17.079   9.685   0.450
65107W        W36833   2.709  13.746  10.526
65108W        W36834  13.215   8.694   0.410
65109W        W36835  34.107  29.730  10.730
65110W        W36836  22.113   4.135  14.461
65111W        W36837  44.486   8.381   4.415
65112W        W36838  28.527  13.207   2.209
65113W        W36839  38.220  12.839   1.139
65114W        W36840   2.880  29.392   1.311
65115W        W36841  18.517  21.693   4.323
65116W        W36842   2.443   1.362   0.945
65117W        W36843  33.329   2.763  13.365
65118W        W36844  20.928  26.593  10.185
65119W        W36845  20.531  28.930  11.921
65120W        W36846  17.294  18.167  14.228
65121W        W36847  34.359  26.046  12.076
65122W        W36848   3.969  12.705   2.928
65123W        W36849  25.748  23.337   0.372
65124W        W36850   7.738  18.524   3.246
65125W        W36851  35.624   0.506   4.417
65126W        W36852  38.956   9.574   4.184
65127W        W36853  35.833  20.513   2.241
65128W        W36854  42.724  21.633  10.794
65129W        W36855  20.551  28.762   2.394
65130W        W36856  22.538  21.808   3.820
65131W        W36857  18.763  38.090   1.398
65132W        W36858  25.157  35.257   1.196
65133W        W36859   1.449  41.872  14.315
65134W        W36860   1.358   3.812   2.503
65135W        W36861  40.562  17.072  14.240
65136W        W36862  23.038  10.604  13.154
65137W        W36863  41.302  33.825   0.803
65138W        W36864   5.924  33.243   3.220
65139W        W36865  20.792  37.856  10.580
65140W        W36866  30.213  15.585   2.373
65141W        W36867  19.993  28.616  12.705
65142W        W36868  29.395  28.392  12.067
65143W        W36869  40.461   4.289  11.442
65144W        W36870  12.118  33.142   3.202
65145W        W36871  13.793  22.602  11.163
65146W        W36872   9.274  33.258   3.308
65147W        W36873  37.831  19.947  14.386
65148W        W36874  27.346  23.475  14.766
65149W        W36875  10.668  13.264   1.617
65150W        W36876   1.477  20.649   1.370
65151W        W36877  12.338  22.537  11.451
65152W        W36878  25.927  14.877   1.819
65153W        W36879  33.392  36.532  14.632
65154W        W36880   9.284  21.230   3.334
65155W        W36881  14.360  33.086  11.431
65156W        W36882   2.351  31.628   4.339
65157W        W36883  42.098   5.980   3.653
65158W        W36884   9.770  40.875   4.317
65159W        W36885   4.539  10.572  13.071
65160W        W36886   0.562  40.386  13.337
65161W        W36887  36.395  22.139  11.960
65162W        W36888   7.830   3.391  13.922
65163W        W36889  36.229  32.815   4.543
65164W        W36890  33.438   2.667  12.452
65165W        W36891  36.130   7.863  13.569
65166W        W36892  26.164  26.833  14.385
65167W        W36893  39.148  21.228   9.809
65168W        W36894  25.717  42.818  14.878
65169W        W36895  29.980  28.237  14.036
65170W        W36896  42.992  10.567   0.918
65171W        W36897  35.137   6.941  13.928
65172W        W36898  29.121  22.627   3.252
65173W        W36899  37.467  24.497   2.150
65174W        W36900  38.854  44.780   3.776
65175W        W36901  31.530   4.673   1.381
65176W        W36902  32.623  19.487   2.427
65177W        W36903   0.884  37.883   1.908
65178W        W36904  28.238   8.778   2.832
65179W        W36905  26.141  20.449   0.280
65180W        W36906  36.924  34.592  11.149
65181W        W36907   9.265  34.331  12.876
65182W        W36908   0.867  40.893   0.230
65183W        W36909  33.152  43.882   0.349
65184W        W36910   9.647  16.915  11.554
65185W        W36911  10.250  39.796   3.733
65186W        W36912  27.159   6.445  12.097
65187W        W36913   5.993   7.829   4.810
65188W        W36914  16.337  24.372   3.449
65189W        W36915  34.755   5.622  13.898
65190W        W36916  30.481  19.647   0.840
65191W        W36917  36.878   8.994   3.137
65192W        W36918   9.626  39.903  12.887
65193W        W36919  36.364  31.689  12.557
65194W        W36920  25.462  23.787  14.101
65195W        W36921  18.971  12.369  13.383
65196W        W36922  41.405   2.982  14.306
65197W        W36923   2.791  34.860  13.056
65198W        W36924   2.354  40.549   4.269
65199W        W36925  34.586  33.455   3.357
65200W        W36926  29.219   3.899  11.178
65201W        W36927  12.181  37.585  13.648
65202W        W36928  34.492  33.983  12.447
65203W        W36929   7.576  10.746   2.814
65204W        W36930   5.669  12.887   5.045
65205W        W36931  17.627  31.251   1.359
65206W        W36932  26.093  32.783   4.089
65207W        W36933  33.559  14.953  11.627
65208W        W36934  36.062  28.751  13.063
65209W        W36935  35.154  35.195  13.592
65210W        W36936  28.207  21.892   3.786
65211W        W36937  42.839  27.666   3.207
65212W        W36938  21.141  38.289   3.347
65213W        W36939   4.021  40.875   1.146
65214W        W36940  13.278   1.730   0.285
65215W        W36941  30.123  12.188   2.895
65216W        W36942  15.611  14.134  13.756
65217W        W36943  19.134  40.832  11.622
65218W        W36944  40.720  36.928   2.326
65219W        W36945   2.259  36.301  11.611
65220W        W36946  34.841  27.662   0.363
65221W        W36947  11.568  40.971  10.547
65222W        W36948  17.466  11.386  11.347
65223W        W36949  10.656  44.732  14.583
65224W        W36950   9.767   8.336  13.935
65225W        W36951  29.401  36.046  10.796
65226W        W36952  32.824  40.910   4.182
65227W        W36953  18.626  43.620  13.315
65228W        W36954  31.472  27.537  11.778
65229W        W36955  17.322  39.248  12.273
65230W        W36956  35.170   4.341   2.130
65231W        W36957  37.596  29.422   0.875
65232W        W36958  14.445   7.729   0.951
65233W        W36959  31.620  27.208  12.148
65234W        W36960  42.297   9.602  13.872
65235W        W36961   9.274   7.220   1.488
65236W        W36962  16.705  21.752   3.896
65237W        W36963  33.444  43.898  14.916
65238W        W36964  31.817   4.395   3.904
65239W        W36965  23.489  11.318  12.923
65240W        W36966   3.804  38.750   1.952
65241W        W36967  22.211  14.186   4.411
65242W        W36968  32.908  25.730   4.052
65243W        W36969  33.285  16.629   1.596
65244W        W36970   7.166  29.003  10.520
65245W        W36971   6.848  34.067   4.620
65246W        W36972  37.069  35.738  14.011
65247W        W36973  37.855  36.611   0.363
65248W        W36974  12.161   5.384   3.704
65249W        W36975  13.813   5.685  12.046
65250W        W36976  42.063  44.977   0.948
65251W        W36977  18.133  34.625   0.047
65252W        W36978  16.223  28.630  11.937
65253W        W36979  16.946  35.840   1.880
65254W        W36980  26.164   7.843  14.993
65255W        W36981  32.962   0.383  14.287
65256W        W36982  33.140   8.436   3.313
65257W        W36983   3.967  31.051   0.706
65258W        W36984  38.348  26.971   0.820
65259W        W36985  40.837   5.806   0.793
65260W        W36986  20.284  16.315   4.369
65261W        W36987  41.623  15.419   1.905
65262W        W36988  11.929  22.975   0.788
65263W        W36989  16.589  10.793   3.772
65264W        W36990   3.892  43.915   0.448
65265W        W36991   8.608  34.782   4.582
65266W        W36992  43.020  12.016   1.567
65267W        W36993   7.894   2.247   1.789
65268W        W36994  29.510  42.274  12.322
65269W        W36995  12.405   4.870   1.789
65270W        W36996  27.383  18.247   1.339
65271W        W36997  44.994  40.845   1.323
65272W        W36998  30.176  19.773  11.536
65273W        W36999  32.114  24.000   3.644
65274W        W37000  24.270  17.347   4.074
65275W        W37001   3.677   9.800   3.874
65276W        W37002  16.898  12.657  12.526
65277W        W37003  23.015  43.496   1.189
65278W        W37004  28.525  32.653   2.820
65279W        W37005  44.142  10.491   5.073
65280W        W37006  34.713  40.077  13.903
65281W        W37007  24.425  12.854  11.504
65282W        W37008  25.228  26.918   4.323
65283W        W37009  40.549  11.515   1.905
65284W        W37010  10.292  33.588  11.409
65285W        W37011  25.671   7.209  11.999
65286W        W37012  27.023   2.113   0.007
65287W        W37013  25.057  13.804   1.200
65288W        W37014  24.735  12.819  11.911
65289W        W37015   8.399  36.999  14.066
65290W        W37016  34.947  32.085   0.979
65291W        W37017  16.630  19.427   1.009
65292W        W37018  37.163   2.818   0.879
65293W        W37019  10.949   5.383   2.202
65294W        W37020  39.192  35.038  12.038
65295W        W37021   1.444  37.991  12.485
65296W        W37022  20.140  43.993   4.160
65297W        W37023  23.338  31.974  11.903
65298W        W37024  44.456  21.702   2.286
65299W        W37025  43.427  21.353   1.071
65300W        W37026   8.327  44.961  12.097
65301W        W37027  41.856  28.485   2.611
65302W        W37028  44.437   1.705  12.525
65303W        W37029  21.370  38.015  12.379
65304W        W37030  28.289  40.917   0.778
65305W        W37031  10.458  22.218  13.746
65306W        W37032   8.179  38.814  14.349
65307W        W37033  13.917  24.136  13.440
65308W        W37034  13.523   5.787   3.735
65309W        W37035   9.318  27.637   4.285
65310W        W37036  24.906  36.935  11.507
65311W        W37037  23.931  28.507  12.111
65312W        W37038   1.744  28.652  12.473
65313W        W37039  10.268  41.273   1.380
65314W        W37040   6.961  15.748  11.525
65315W        W37041  28.914  32.533  12.805
65316W        W37042   2.605  15.275  12.981
65317W        W37043  35.014   7.270   4.139
65318W        W37044  33.815  40.494   1.313
65319W        W37045  27.935  14.252   2.706
65320W        W37046  18.495   9.562   0.262
65321W        W37047  36.523  14.708   1.374
65322W        W37048  10.247  20.777   1.686
65323W        W37049  16.814  43.711   0.308
65324W        W37050  29.229  12.231   1.005
65325W        W37051  36.301   1.767  14.470
65326W        W37052   0.774  34.898   0.202
65327W        W37053  27.040  43.189   2.635
65328W        W37054  23.627  22.659   3.234
65329W        W37055  27.329  30.929   4.078
65330W        W37056  31.240  31.120  13.592
65331W        W37057  19.257  17.843   2.411
65332W        W37058  12.373  31.428   3.619
65333W        W37059  17.179  39.887   0.508
65334W        W37060  26.484   9.303   0.460
65335W        W37061  23.481  37.308  13.839
65336W        W37062  40.370  17.502   0.519
65337W        W37063  26.542   9.680  13.744
65338W        W37064  38.047  17.076  12.577
65339W        W37065   9.445  14.146   0.718
65340W        W37066  13.772   0.008  14.789
65341W        W37067  34.477  23.277   0.652
65342W        W37068   4.714  13.188   4.930
65343W        W37069   0.723  29.608  12.778
65344W        W37070  21.881  17.886   3.650
65345W        W37071  39.662   2.402  12.023
65346W        W37072   0.486   6.129  11.197
65347W        W37073  24.506  19.269   2.833
65348W        W37074  20.952  31.951  14.687
65349W        W37075  19.644  26.579   4.120
65350W        W37076   7.110  28.091  12.422
65351W        W37077  33.228   3.779   4.665
65352W        W37078   8.360   3.861   1.423
65353W        W37079  31.143  15.255  13.005
65354W        W37080   0.847  17.272   2.842
65355W        W37081  39.072  24.073   3.229
65356W        W37082  26.444  44.773  11.596
65357W        W37083  10.382  19.344   0.418
65358W        W37084  10.972  28.452  11.843
65359W        W37085   1.498  21.666  12.952
65360W        W37086  21.223   1.951   0.610
65361W        W37087  32.925  23.147   0.260
65362W        W37088  39.853  26.468  11.253
65363W        W37089  27.632   4.351  13.844
65364W        W37090  43.682  24.942   4.470
65365W        W37091  34.186  19.117   1.056
65366W        W37092  39.521  20.010  13.798
65367W        W37093   2.376  21.954  11.176
65368W        W37094   3.680  40.452   0.363
65369W        W37095   7.056  33.412  11.629
65370W        W37096  21.594  31.376   2.391
65371W        W37097  27.506  31.467  11.042
65372W        W37098  19.245  10.587  12.849
65373W        W37099  30.257  44.695   1.150
65374W        W37100   7.719  10.298   5.056
65375W        W37101  11.166  36.062   3.123
65376W        W37102  12.986  28.086   4.245
65377W        W37103  31.247   0.810  14.938
65378W        W37104  21.309   7.475  13.054
65379W        W37105  19.500  26.418   2.114
65380W        W37106  16.760  33.510   0.746
65381W        W37107  26.046  22.498  12.928
65382W        W37108  31.250  35.786  11.594
65383W        W37109  14.101  10.714  14.273
65384W        W37110  38.027  35.289   1.870
65385W        W37111  29.865   9.269   4.127
65386W        W37112   0.391  15.045   1.702
65387W        W37113  36.877  43.425   1.404
65388W        W37114  11.140  33.815   3.721
65389W        W37115   5.369  12.119  10.660
65390W        W37116   4.276  40.869  14.768
65391W        W37117  24.162   3.564  14.036
65392W        W37118  40.812  33.208   4.066
65393W        W37119  10.633  19.307  11.627
65394W        W37120  24.731  30.477   0.284
65395W        W37121  30.914  21.150   3.194
65396W        W37122  41.373   6.056   3.344
65397W        W37123  22.018  30.201   1.254
65398W        W37124  18.550  12.105   2.733
65399W        W37125  14.842  18.789   0.732
65400W        W37126  27.679   5.961   4.883
65401W        W37127  36.500  13.754  14.934
65402W        W37128  14.577  36.954  13.437
65403W        W37129  36.822  23.039   2.625
65404W        W37130  19.721  32.044  13.022
65405W        W37131  10.333   8.253   2.437
65406W        W37132  30.598  11.185   0.640
65407W        W37133  24.689  25.159  12.653
65408W        W37134  42.509  43.620   0.772
65409W        W37135  44.083  35.511  10.928
65410W        W37136  11.123   4.383   4.219
65411W        W37137  21.118  14.574  14.301
65412W        W37138  34.087  26.203  14.172
65413W        W37139  34.305  44.340   3.172
65414W        W37140  19.288  14.682   2.909
65415W        W37141  19.746  14.679  14.712
65416W        W37142  26.923  39.478   0.683
65417W        W37143  18.567   7.112  11.195
65418W        W37144  39.351  15.191   4.829
65419W        W37145  16.601  10.197   2.643
65420W        W37146  20.350  23.960  13.159
65421W        W37147  26.662  33.138   4.195
65422W        W37148  38.262  24.304  11.954
65423W        W37149  26.686  39.491  12.321
65424W        W37150   3.764   5.714   4.145
65425W        W37151  32.887  35.902  13.986
65426W        W37152  10.767  24.437  10.878
65427W        W37153  36.779  38.912  13.466
65428W        W37154  32.644  24.573   3.278
65429W        W37155  26.289   2.885  13.358
65430W        W37156  10.339  14.819  10.826
65431W        W37157  35.469   2.332   2.822
65432W        W37158  39.079  15.796  13.042
65433W        W37159  44.215   6.511   0.649
65434W        W37160  24.542  19.031   2.358
65435W        W37161  42.621  25.995   5.086
65436W        W37162   5.341  18.650  12.983
65437W        W37163  10.378  25.766  11.202
65438W        W37164  32.111  13.033  13.313
65439W        W37165   8.918  26.472   3.622
65440W        W37166  29.114   7.654   3.597
65441W        W37167  25.946   1.694  13.996
65442W        W37168  11.242  41.642   3.011
65443W        W37169   9.616   7.682   4.560
65444W        W37170  15.230  33.969  11.272
65445W        W37171  20.299  11.154  11.746
65446W        W37172   3.250   5.907   1.902
65447W        W37173   3.660  15.303  10.709
65448W        W37174   5.358  12.183  11.701
65449W        W37175  40.527  11.892  13.504
65450W        W37176  42.098  38.922   5.086
65451W        W37177  29.535  38.779  13.396
65452W        W37178   2.276  43.879   2.739
65453W        W37179  15.779  38.128   2.892
65454W        W37180  16.281  39.538  11.200
65455W        W37181  29.458  36.829   0.014
65456W        W37182   1.841  11.454   2.662
65457W        W37183  10.197  31.502  14.941
65458W        W37184   4.398  39.047   0.287
65459W        W37185  10.620   1.278   4.982
65460W        W37186  18.300  34.394  13.959
65461W        W37187   1.410  41.637  14.946
65462W        W37188  44.081  11.608  14.954
65463W        W37189  40.572  38.915   2.738
65464W        W37190   4.835   6.697  11.784
65465W        W37191  42.035   1.997  14.830
65466W        W37192  17.314  20.652   1.328
65467W        W37193  24.010  30.714   3.194
65468W        W37194   3.914  12.760   4.783
65469W        W37195  26.053  21.279  13.367
65470W        W37196   4.395  22.131   4.294
65471W        W37197   0.313  13.868  12.253
65472W        W37198  25.653  24.705  14.033
65473W        W37199  39.341  37.748  10.479
65474W        W37200   3.322  36.222   3.311
65475W        W37201   5.329  28.176   1.294
65476W        W37202  16.561  40.703   9.860
65477W        W37203  24.602  41.809   3.144
65478W        W37204  33.673  24.125  10.990
65479W        W37205   5.503  16.438   1.764
65480W        W37206  37.113  37.815   5.041
65481W        W37207  40.521  12.244   2.365
65482W        W37208   2.205  40.831   0.995
65483W        W37209  22.489   7.201  14.844
65484W        W37210  36.890  29.207   1.194
65485W        W37211  14.770  41.488   2.762
65486W        W37212  24.630  16.219   3.758
65487W        W37213  25.555  18.125  13.793
65488W        W37214  11.492  33.018   4.651
65489W        W37215  36.827  25.274   0.284
65490W        W37216  34.178  21.310  13.657
65491W        W37217  23.201  33.872   3.074
65492W        W37218  28.486  42.425  14.189
65493W        W37219  26.142   1.849  11.150
65494W        W37220  16.604   6.450  14.363
65495W        W37221   4.223  44.988   0.977
65496W        W37222  12.818  31.913   2.323
65497W        W37223  34.621  23.013   2.317
65498W        W37224  42.900  28.238   0.913
65499W        W37225  12.171   5.622  11.860
65500W        W37226  40.133  28.501   1.585
65501W        W37227  16.812  36.714   1.390
65502W        W37228  33.439   3.392   4.288
65503W        W37229  24.601  25.604   3.660
65504W        W37230  33.889  16.838   0.816
65505W        W37231  39.340   5.173  11.849
65506W        W37232   5.710  21.183  13.581
65507W        W37233   5.243  30.011  12.454
65508W        W37234  44.398  33.100  14.703
65509W        W37235  43.266  39.286   1.748
65510W        W37236  38.144   0.291  13.452
65511W        W37237  39.771  32.584  11.033
65512W        W37238  31.344  42.470  11.166
65513W        W37239  28.435  30.364   0.784
65514W        W37240  39.467  43.321   1.668
65515W        W37241  36.365  23.259  11.945
65516W        W37242  22.193  32.117   4.560
65517W        W37243  38.816   6.375  11.812
65518W        W37244  14.723   9.942   2.256
65519W        W37245  12.576  42.487   1.824
65520W        W37246  15.302   8.088   4.205
65521W        W37247  18.720   3.694  12.127
65522W        W37248   3.703   2.757  11.198
65523W        W37249  10.571  37.297   0.399
65524W        W37250  29.851  20.134   2.828
65525W        W37251  44.687   5.793  11.002
65526W        W37252   1.896  44.740  13.763
65527W        W37253  36.333  11.929   3.139
65528W        W37254  39.303  20.791  12.419
65529W        W37255  39.341  29.407  12.522
65530W        W37256  36.640  43.925  12.906
65531W        W37257   8.052  37.963  12.047
65532W        W37258  18.309  37.522   1.768
65533W        W37259  31.502  26.995  13.087
65534W        W37260  25.917   4.944   3.741
65535W        W37261  20.835  27.469  10.070
65536W        W37262  18.627  26.519   2.388
65537W        W37263  19.316  25.865  13.525
65538W        W37264   5.772  29.583   1.622
65539W        W37265  34.019   5.328   4.194
65540W        W37266  39.687  19.698   3.699
65541W        W37267  23.627  29.131   4.557
65542W        W37268  43.301  15.590  13.825
65543W        W37269  22.922  40.882   3.629
65544W        W37270  25.735  14.210   0.449
65545W        W37271   0.439  28.576  13.625
65546W        W37272  18.525  12.712  10.829
65547W        W37273  21.033  24.041  13.470
65548W        W37274  30.351  24.055  14.482
65549W        W37275  34.840  17.646   2.994
65550W        W37276  32.583   3.391  11.180
65551W        W37277   6.095  42.694   5.150
65552W        W37278  36.516  22.618   4.559
65553W        W37279  21.126  10.685   0.348
65554W        W37280   2.969  30.060  12.993
65555W        W37281  43.349  13.763   1.432
65556W        W37282  12.682   6.686  11.315
65557W        W37283  43.963  19.623  13.101
65558W        W37284  22.298  23.127   2.207
65559W        W37285   9.212  12.809   3.348
65560W        W37286   2.333  21.462  11.072
65561W        W37287  38.956  40.496  11.997
65562W        W37288  12.328  28.658  10.546
65563W        W37289  12.094  28.048  14.565
65564W        W37290  20.964   1.898  12.128
65565W        W37291  29.437  34.917  14.881
65566W        W37292   4.460  21.725  10.687
65567W        W37293  39.287  23.506   2.246
65568W        W37294  28.533  32.151   2.821
65569W        W37295  33.997  20.849   1.700
65570W        W37296  33.807  11.201  13.044
65571W        W37297  31.591  19.066   2.381
65572W        W37298  31.851  25.590  10.660
65573W        W37299  30.079  26.667   3.067
65574W        W37300   2.129  30.314  10.115
65575W        W37301   4.225  15.325  10.706
65576W        W37302  34.370   6.630   2.340
65577W        W37303  18.788  35.588   2.059
65578W        W37304  24.990  14.796  11.999
65579W        W37305  41.860  36.398  12.678
65580W        W37306  24.947  15.073   0.462
65581W        W37307  24.484  13.136  12.606
65582W        W37308  16.297  26.032  12.835
65583W        W37309   7.241  21.715  10.667
65584W        W37310  36.795  21.242  14.425
65585W        W37311  16.670  32.158   4.221
65586W        W37312  10.596   8.395  14.395
65587W        W37313   1.383  11.601  12.932
65588W        W37314  29.188  18.602  10.695
65589W        W37315  18.165  23.440  13.662
65590W        W37316  43.777  22.574  13.770
65591W        W37317  42.768   4.097  12.934
65592W        W37318  33.003  18.695  12.712
65593W        W37319  40.033   2.935  13.350
65594W        W37320  35.384  21.090   2.675
65595W        W37321  11.744  16.400   3.742
65596W        W37322  17.307  21.532   1.148
65597W        W37323  26.066  23.989   3.789
65598W        W37324  24.608  43.908   1.857
65599W        W37325  21.259  44.253   3.674
65600W        W37326   9.226  20.517   4.039
65601W        W37327  19.183  39.549  13.991
65602W        W37328  44.986  21.650   4.910
65603W        W37329  23.572  13.347  12.611
65604W        W37330   8.161  13.268   4.579
65605W        W37331  18.089  32.343   1.387
65606W        W37332  38.907  13.546  10.626
65607W        W37333  13.830  24.193  12.778
65608W        W37334  40.991   7.834   0.275
65609W        W37335  37.537  42.431  12.758
65610W        W37336  31.245  44.408  11.917
65611W        W37337   2.214   2.737   4.895
65612W        W37338   0.047  16.888   3.258
65613W        W37339   2.926  36.893   1.802
65614W        W37340  24.405  32.426   4.253
65615W        W37341  26.070  30.618  13.285
65616W        W37342  39.359  35.538  14.623
65617W        W37343  23.687   2.751  12.926
65618W        W37344  31.476   0.269   2.428
65619W        W37345  38.940  16.744  11.457
65620W        W37346  23.730   2.239  13.852
65621W        W37347  41.013  13.771  12.144
65622W        W37348  35.480  23.457   1.433
65623W        W37349  17.137  25.122   4.632
65624W        W37350  30.695  26.915   2.963
65625W        W37351  11.127  33.187  14.440
65626W        W37352  40.158   7.351   2.019
65627W        W37353  43.911  23.965  14.987
65628W        W37354  42.366  22.696   2.735
65629W        W37355  27.222  18.247  11.397
65630W        W37356  30.898  36.030  12.438
65631W        W37357  39.400  13.720  11.503
65632W        W37358  25.501   5.670  10.269
65633W        W37359   7.362  13.206  10.737
65634W        W37360   0.930  31.678  12.998
65635W        W37361   6.359  14.139  13.435
65636W        W37362  20.293   2.445  14.346
65637W        W37363  25.275  42.019  13.973
65638W        W37364  22.336   9.845  14.320
65639W        W37365  25.213  30.653  13.536
65640W        W37366  26.009  22.567   3.736
65641W        W37367   9.715  44.856   0.502
65642W        W37368  31.818  28.027   4.212
65643W        W37369   5.871  32.095   2.209
65644W        W37370  42.210  43.382   1.610
65645W        W37371   1.033   0.028   1.843
65646W        W37372   5.390  20.263   4.681
65647W        W37373  33.415  10.206   1.421
65648W        W37374  39.784  37.428   5.028
65649W        W37375  17.177  21.244  11.204
65650W        W37376   0.343  32.440   1.453
65651W        W37377  31.467   7.194  11.354
65652W        W37378   4.426  10.828  12.108
65653W        W37379  30.562  27.666   0.667
65654W        W37380   8.795  21.156  10.170
65655W        W37381  42.478  14.703   4.745
65656W        W37382  18.329  12.114   1.093
65657W        W37383   7.502  29.999  14.500
65658W        W37384   9.830  24.772   3.288
65659W        W37385  19.581   2.923   4.612
65660W        W37386  44.370   8.777  10.824
65661W        W37387  21.920   4.671   1.030
65662W        W37388  26.654  37.385  10.363
65663W        W37389   5.761  30.272   0.796
65664W        W37390  18.050   5.398  11.087
65665W        W37391  16.336  22.611  11.954
65666W        W37392   1.797  18.549   1.185
65667W        W37393   8.965  33.330  11.533
65668W        W37394  11.440   3.397   2.686
65669W        W37395  39.817  12.304  13.415
65670W        W37396   1.234   5.334   3.620
65671W        W37397  13.158  17.660  11.424
65672W        W37398   9.586  41.397   1.798
65673W        W37399   3.524  12.870   1.350
65674W        W37400  36.164   7.302   1.825
65675W        W37401   0.287  13.538  14.753
65676W        W37402  17.661   1.369   3.194
65677W        W37403  18.082  15.294   0.283
65678W        W37404  21.382   7.824  13.446
65679W        W37405  18.117  36.400   3.624
65680W        W37406   7.781  30.376   3.289
65681W        W37407   6.878  29.505  14.127
65682W        W37408   0.445  39.428  11.108
65683W        W37409   7.477  19.617   0.843
65684W        W37410  14.141  10.352   0.946
65685W        W37411  33.892  20.098  14.819
65686W        W37412   6.468  13.156  11.263
65687W        W37413  35.453  23.532   0.389
65688W        W37414   7.524   1.062  14.887
65689W        W37415  20.350  16.123  11.073
65690W        W37416  22.206  33.673   2.247
65691W        W37417  15.566  41.179   4.205
65692W        W37418  44.862  10.831   1.782
65693W        W37419   7.809  15.001  10.244
65694W        W37420  44.499  16.154  14.897
65695W        W37421  40.326   3.189   0.350
65696W        W37422  12.603  29.842  11.151
65697W        W37423  44.066  20.833  14.393
65698W        W37424  14.136  28.621   1.631
65699W        W37425  21.221  14.135  11.467
65700W        W37426  16.252  12.215  12.785
65701W        W37427   4.713  24.761   3.203
65702W        W37428   2.297  28.589   1.366
65703W        W37429  44.694  44.948   3.099
65704W        W37430   1.277  27.400   0.896
65705W        W37431  43.197  32.603  10.658
65706W        W37432   1.186  44.731   4.005
65707W        W37433  41.931  27.181  14.403
65708W        W37434  20.170  44.489  12.681
65709W        W37435  26.517  34.364   2.768
65710W        W37436  18.773   5.947   1.313
65711W        W37437   8.395  18.575  13.396
65712W        W37438  34.340  38.926   4.084
65713W        W37439   2.999  18.128  14.035
65714W        W37440  24.869  36.865  10.621
65715W        W37441  11.630  18.148  14.752
65716W        W37442  38.451  37.624   4.302
65717W        W37443  19.089  18.277   3.727
65718W        W37444  22.885  27.827   9.548
65719W        W37445  42.017   7.930   0.405
65720W        W37446  12.329  44.055  12.159
65721W        W37447  26.094  11.226   2.261
65722W        W37448   9.379   2.345  14.414
65723W        W37449   5.507  14.744   1.380
65724W        W37450   8.957  18.247   1.407
65725W        W37451  40.764   8.690   2.182
65726W        W37452  11.205  13.220   4.876
65727W        W37453  17.767  10.371   2.319
65728W        W37454   8.772  14.339   1.380
65729W        W37455  34.651  12.786   3.716
65730W        W37456  43.381   2.431   3.588
65731W        W37457  20.945  44.724  11.544
65732W        W37458  19.550  37.999   1.193
65733W        W37459  30.684   9.376  11.073
65734W        W37460  12.324  36.957  12.427
65735W        W37461  33.724  43.387   4.614
65736W        W37462   9.255  16.609   1.192
65737W        W37463  40.113  10.043   2.355
65738W        W37464  25.621  17.053  14.724
65739W        W37465  17.715  42.268   1.308
65740W        W37466   8.867  13.786   4.451
65741W        W37467  22.026  36.692  12.575
65742W        W37468  41.559  41.368  13.443
65743W        W37469  14.008  35.830  13.531
65744W        W37470  24.631   8.725  11.246
65745W        W37471  20.629  10.846   0.287
65746W        W37472  32.266  14.189  13.890
65747W        W37473  42.978  41.547   0.387
65748W        W37474   0.890   9.591   3.613
65749W        W37475   2.289  24.166   2.036
65750W        W37476  39.523  32.631   0.779
65751W        W37477  43.353  20.015   3.367
65752W        W37478   0.012  37.170   1.508
65753W        W37479  14.201   3.501  11.884
65754W        W37480   0.292   3.397   4.077
65755W        W37481   5.204  37.738  13.507
65756W        W37482   8.226  19.952   0.050
65757W        W37483  12.410   1.789  14.414
65758W        W37484  21.120  27.090   1.526
65759W        W37485  44.823   6.337   4.461
65760W        W37486  10.960  25.427   2.710
65761W        W37487  21.493  36.874   3.855
65762W        W37488  10.349  41.453  11.228
65763W        W37489   9.767  20.939  11.122
65764W        W37490  27.630  19.241   2.223
65765W        W37491  11.949   8.491  11.111
65766W        W37492   4.995  13.662   2.012
65767W        W37493   4.945  17.602   4.876
65768W        W37494   5.824  36.516  14.398
65769W        W37495  41.560  11.879  12.438
65770W        W37496  41.626  19.694   4.933
65771W        W37497  14.567  43.241   2.517
65772W        W37498  24.604   5.911   1.859
65773W        W37499  24.614  15.879  11.254
65774W        W37500  18.324  31.078  11.954
65775W        W37501  37.077   6.725  12.180
65776W        W37502  14.344  42.318  14.755
65777W        W37503  23.390   2.151  14.240
65778W        W37504  38.894   6.881  10.959
65779W        W37505  29.160   4.786  11.154
65780W        W37506  35.080  23.865   2.358
65781W        W37507  30.696  13.629  13.047
65782W        W37508   0.553  38.930   0.582
65783W        W37509  26.795  41.458   3.363
65784W        W37510  22.013  32.428   3.269
65785W        W37511  40.782  31.588   2.261
65786W        W37512   9.358  14.926   4.434
65787W        W37513   0.605  40.098  10.133
65788W        W37514   4.127  43.061  11.096
65789W        W37515  40.409  44.389  11.228
65790W        W37516  31.614  26.627   3.715
65791W        W37517  34.889  39.915   4.852
65792W        W37518  35.561  10.104  13.670
65793W        W37519  16.311   3.830   3.931
65794W        W37520   8.215   9.795  12.906
65795W        W37521  44.210  44.274   1.016
65796W        W37522   6.333  36.840  11.055
65797W        W37523  21.508  17.275  11.510
65798W        W37524  16.554  41.430  11.119
65799W        W37525  44.898  36.984   0.082
65800W        W37526  16.100   5.833  12.791
65801W        W37527  41.789  32.856   2.264
65802W        W37528   8.977  44.938  13.794
65803W        W37529  32.190  38.064  13.487
65804W        W37530  33.517  41.506   1.293
65805W        W37531   2.783  43.509  12.942
65806W        W37532  21.082  35.444   2.715
65807W        W37533  33.534  11.402  14.453
65808W        W37534  27.199  26.298   0.630
65809W        W37535   8.604  26.633   1.370
65810W        W37536  18.818  32.032  14.023
65811W        W37537   4.421   0.470  13.858
65812W        W37538   3.562  20.821  11.738
65813W        W37539  10.236   4.531  13.476
65814W        W37540  30.636  22.670   0.410
65815W        W37541  21.645  14.690  12.048
65816W        W37542   6.195  42.739  12.447
65817W        W37543   2.917  35.374  13.075
65818W        W37544   9.289   1.955  10.907
65819W        W37545   6.248   2.796   5.147
65820W        W37546  30.100  32.962  14.204
65821W        W37547  29.010  16.250  11.899
65822W        W37548  15.526   2.456   2.656
65823W        W37549  36.199  44.086  11.194
65824W        W37550  26.684  39.772   4.788
65825W        W37551   0.815  43.065   2.236
65826W        W37552   2.118  25.496  12.795
65827W        W37553  11.123  35.678   5.469
65828W        W37554   5.098  13.145   2.133
65829W        W37555   9.183  15.714   3.743
65830W        W37556  17.173  42.041  11.559
65831W        W37557  11.586  16.341   3.243
65832W        W37558  37.907  18.959  10.737
65833W        W37559  38.014  12.266  10.485
65834W        W37560  30.745  23.255   3.098
65835W        W37561  20.558   8.579   2.957
65836W        W37562  19.265   8.204   2.438
65837W        W37563   3.919  25.910  14.863
65838W        W37564  24.533   0.547  13.018
65839W        W37565  26.146  13.841  12.954
65840W        W37566  12.686  13.670  11.664
65841W        W37567  44.899  38.863   3.671
65842W        W37568  35.545  33.646   3.202
65843W        W37569  32.943  16.142  14.891
65844W        W37570  37.043  31.019   0.531
65845W        W37571   7.188  20.444   3.618
65846W        W37572   8.700  29.581   0.394
65847W        W37573  37.531  20.667   4.127
65848W        W37574  11.246  22.065  12.841
65849W        W37575   3.207  18.356  14.496
65850W        W37576   9.404  27.721   4.806
65851W        W37577   0.281  26.527  10.504
65852W        W37578   1.017   6.229  12.909
65853W        W37579  10.231  10.076   1.867
65854W        W37580  25.492   9.154  12.007
65855W        W37581  23.062  38.287   3.283
65856W        W37582  19.080   0.347  11.174
65857W        W37583  29.389  12.612   4.384
65858W        W37584  15.742   1.856   2.294
65859W        W37585   1.048  24.674  14.114
65860W        W37586  32.279   6.458   4.134
65861W        W37587  34.317  20.031   1.302
65862W        W37588   2.400  32.563   0.781
65863W        W37589  17.070  13.233  12.534
65864W        W37590  21.010   4.218  13.816
65865W        W37591  27.469  37.441   2.197
65866W        W37592  31.970   1.843   4.546
65867W        W37593  33.126   3.380   3.591
65868W        W37594  27.850  23.677  11.110
65869W        W37595  29.471   5.503   3.530
65870W        W37596   3.842   9.646  14.334
65871W        W37597  14.053   2.707  13.547
65872W        W37598   6.484  38.983   1.999
65873W        W37599   0.069   1.741  13.749
65874W        W37600   4.847  32.662  11.794
65875W        W37601  15.112  39.099   1.618
65876W        W37602  43.920   9.731  13.319
65877W        W37603  28.707   5.328   1.814
65878W        W37604  12.553  17.603  10.759
65879W        W37605   9.342  12.490  14.573
65880W        W37606  14.330  41.515   3.791
65881W        W37607   5.013  12.166  13.993
65882W        W37608  38.269  26.824  12.326
65883W        W37609   3.100  28.727   2.782
65884W        W37610  13.341   2.960  12.060
65885W        W37611  24.497  37.313   4.571
65886W        W37612  29.099  10.279  12.296
65887W        W37613  44.567  42.020   4.567
65888W        W37614  23.524  41.020  11.156
65889W        W37615  27.348  30.748  10.888
65890W        W37616  44.315  20.520   1.759
65891W        W37617   1.870  21.074  14.939
65892W        W37618  33.376  39.608   0.552
65893W        W37619  44.742  26.655   4.776
65894W        W37620   2.830  15.384   3.629
65895W        W37621  23.181   5.100   2.928
65896W        W37622  12.710   4.177  11.238
65897W        W37623  27.222  30.284  11.190
65898W        W37624  10.027  20.309   0.348
65899W        W37625  44.539   3.454  14.800
65900W        W37626  37.508  16.112  13.778
65901W        W37627  32.074  41.026   3.683
65902W        W37628   3.667  36.276   4.938
65903W        W37629  34.774   7.369  14.434
65904W        W37630  34.519  34.345   4.958
65905W        W37631  19.929  30.566  10.607
65906W        W37632  32.023  29.691  14.044
65907W        W37633  15.894  20.670  14.088
65908W        W37634  33.355   3.513   1.938
65909W        W37635   7.216  25.379  14.848
65910W        W37636  36.430  23.710  13.471
65911W        W37637   7.904  21.112   1.224
65912W        W37638  40.807  14.323   2.802
65913W        W37639  25.531   6.258  12.788
65914W        W37640  34.355  36.079  13.587
65915W        W37641  28.448  11.170   3.637
65916W        W37642  41.583  28.735  13.529
65917W        W37643  40.528  32.848  10.598
65918W        W37644  31.215  31.370  12.554
65919W        W37645  12.709  25.050   1.737
65920W        W37646  10.938  38.023   0.689
65921W        W37647  25.526  10.166  14.773
65922W        W37648  40.424  36.948  12.711
65923W        W37649  12.209  10.448  11.073
65924W        W37650  40.917  30.167   2.357
65925W        W37651   9.608   6.295  13.501
65926W        W37652   7.120  12.727  13.789
65927W        W37653  21.134  26.042   2.801
65928W        W37654  32.458  20.788  13.069
65929W        W37655  25.534  41.322   0.534
65930W        W37656  36.140   2.279   1.385
65931W        W37657  14.336   6.600   1.370
65932W        W37658  13.641  38.438   0.867
65933W        W37659   4.616  30.281   4.238
65934W        W37660   1.317  12.929   3.195
65935W        W37661  16.913  21.162  13.034
65936W        W37662  38.096  31.354   3.176
65937W        W37663   6.404  40.992  13.132
65938W        W37664   2.918  12.928   1.363
65939W        W37665  43.489  13.261   4.156
65940W        W37666  19.616  31.838   1.733
65941W        W37667  40.929  18.849   0.415
65942W        W37668  44.498  29.709  11.331
65943W        W37669  32.148  20.712  10.697
65944W        W37670  43.987  22.614  14.236
65945W        W37671   9.713  33.371  13.383
65946W        W37672  38.962   6.315   4.189
65947W        W37673   5.587  15.514   2.478
65948W        W37674  16.217  25.149   4.519
65949W        W37675   6.823  34.972   4.675
65950W        W37676  25.192  15.299   0.853
65951W        W37677  34.623  36.283  14.366
65952W        W37678   6.458  25.058   4.963
65953W        W37679  29.250   2.230  12.478
65954W        W37680  14.301  14.292  14.332
65955W        W37681  22.020  44.339   0.810
65956W        W37682  33.904  18.444   3.825
65957W        W37683  44.928  26.993   0.990
65958W        W37684   0.187   0.999  11.605
65959W        W37685   9.611  26.991  13.328
65960W        W37686  30.145   2.704   2.873
65961W        W37687  39.575  36.666   2.621
65962W        W37688  39.864  39.075   3.075
65963W        W37689  16.146   2.253  11.305
65964W        W37690  41.740  35.193  13.786
65965W        W37691  23.858  17.289  13.777
65966W        W37692  11.333   6.483  10.949
65967W        W37693  40.936   5.357   2.368
65968W        W37694  31.405  12.869   4.408
65969W        W37695  28.983  29.411  13.192
65970W        W37696  34.676  22.067  14.132
65971W        W37697  22.025   7.780  10.904
65972W        W37698  39.256   9.776   0.443
65973W        W37699   0.859  39.364  13.322
65974W        W37700   7.735  11.886   0.845
65975W        W37701  36.800   9.365   4.927
65976W        W37702   3.679  42.569   0.869
65977W        W37703  12.195   8.563  13.872
65978W        W37704   4.888  39.854   2.810
65979W        W37705  40.067  24.069   2.331
65980W        W37706  34.134  39.345   2.744
65981W        W37707   8.232  38.141  13.448
65982W        W37708   9.785   7.797   0.920
65983W        W37709  21.268  43.836  12.666
65984W        W37710   9.329  19.703   0.604
65985W        W37711  22.007  43.330  11.970
65986W        W37712  29.439  40.046   2.116
65987W        W37713  19.102  35.296   0.384
65988W        W37714  16.136  31.286   0.535
65989W        W37715  30.054  26.303   2.680
65990W        W37716  11.317   1.854   2.135
65991W        W37717   7.217  41.969  11.268
65992W        W37718   6.940  35.133  14.338
65993W        W37719  34.212   4.318   3.590
65994W        W37720  28.678  14.099   1.380
65995W        W37721  18.318   5.808  14.008
65996W        W37722  38.020  39.944   0.026
65997W        W37723  15.147  27.158  14.617
65998W        W37724  20.989  42.311  14.967
65999W        W37725  43.472  41.949  14.553
66000W        W37726  14.140  12.190  10.455
66001W        W37727  37.015   7.292   2.357
66002W        W37728  12.850  38.555   1.463
66003W        W37729  26.167  29.028  10.924
66004W        W37730   6.936  21.143   4.735
66005W        W37731  19.962  13.321  14.475
66006W        W37732  14.058  29.570   4.648
66007W        W37733   4.232  25.641  10.637
66008W        W37734  35.745  10.603  12.529
66009W        W37735  26.517  16.303  13.884
66010W        W37736  32.404  33.412  12.878
66011W        W37737  12.932  17.523   3.027
66012W        W37738  16.612  11.103  14.516
66013W        W37739  28.452  19.298   4.113
66014W        W37740  11.396  42.271  11.506
66015W        W37741  20.837  29.119  13.359
66016W        W37742  15.607  27.379  14.448
66017W        W37743  43.409  16.167  12.212
66018W        W37744  35.645  31.883   2.587
66019W        W37745  34.527  23.315   4.381
66020W        W37746  27.890   8.319  14.465
66021W        W37747   3.724  21.308  10.635
66022W        W37748  37.623  38.575  10.306
66023W        W37749  11.090  21.796   4.590
66024W        W37750  19.533  33.969  10.655
66025W        W37751  25.021  10.879  14.523
66026W        W37752  26.721  25.148  10.362
66027W        W37753  42.378  23.769  13.090
66028W        W37754  27.047  37.776   2.151
66029W        W37755  20.547  44.881  13.969
66030W        W37756  29.630  20.016  12.581
66031W        W37757  16.927  38.993   0.220
66032W        W37758  35.868   7.701   3.276
66033W        W37759   0.441  39.466  11.655
66034W        W37760  20.802  43.512   2.710
66035W        W37761  37.181  14.132  11.600
66036W        W37762  39.442  29.658   3.570
66037W        W37763  33.735   4.496   5.019
66038W        W37764  14.232  26.368   4.181
66039W        W37765  39.515  10.719   1.927
66040W        W37766  16.196  29.576  11.864
66041W        W37767  27.058  44.997   2.373
66042W        W37768  20.482  16.698   4.636
66043W        W37769  35.660  35.710   1.613
66044W        W37770  36.793  39.109   5.032
66045W        W37771  31.854   0.741   1.710
66046W        W37772   4.519  42.430   2.403
66047W        W37773  21.600   1.353  11.437
66048W        W37774  33.568  16.242   1.776
66049W        W37775  24.186  19.084  13.515
66050W        W37776  44.473  11.560  12.983
66051W        W37777  43.804  11.754   1.651
66052W        W37778  35.948  40.910   1.848
66053W        W37779  35.894   2.537   4.217
66054W        W37780  34.528  15.392  12.527
66055W        W37781   4.328  17.207  11.128
66056W        W37782   3.015  12.120   2.337
66057W        W37783   3.169  29.048  11.894
66058W        W37784  23.169  43.221   3.787
66059W        W37785  44.806  19.635  11.181
66060W        W37786   8.727  17.900   0.725
66061W        W37787   8.773   9.415   0.178
66062W        W37788  16.139  28.451   1.517
66063W        W37789  11.817  40.115   3.732
66064W        W37790  29.051  33.035  11.605
66065W        W37791  25.095  22.410  12.932
66066W        W37792  29.422  21.564   1.667
66067W        W37793   4.138   1.533  11.172
66068W        W37794   5.901  11.442   3.162
66069W        W37795  15.645  25.679   9.826
66070W        W37796  18.781  36.006  14.290
66071W        W37797  40.054  24.643   0.251
66072W        W37798  28.693   5.938   2.246
66073W        W37799   3.260  38.822   1.855
66074W        W37800  18.155  16.978   0.381
66075W        W37801  20.051  37.907   1.367
66076W        W37802  10.736  43.746   4.691
66077W        W37803  21.672  27.427   4.589
66078W        W37804   2.711   5.079   3.683
66079W        W37805  21.054  43.761  10.524
66080W        W37806  35.858  26.174  14.782
66081W        W37807  21.982  34.423   2.759
66082W        W37808  24.952  15.072   2.260
66083W        W37809  25.562  43.896   4.144
66084W        W37810  29.113  17.686  13.769
66085W        W37811  25.627   2.016   3.602
66086W        W37812  26.072  43.429  14.106
66087W        W37813  28.091  23.002  14.468
66088W        W37814  19.254   6.871  14.665
66089W        W37815   1.822  12.245   0.211
66090W        W37816  16.741  44.284   3.677
66091W        W37817   4.890   3.453   4.799
66092W        W37818  15.201  20.049   1.841
66093W        W37819  31.713  40.288   3.253
66094W        W37820  12.438  40.307  12.666
66095W        W37821  42.628  28.781  11.167
66096W        W37822  22.966   4.936   0.982
66097W        W37823   5.462   8.832   3.821
66098W        W37824  42.014   5.295  14.822
66099W        W37825  44.291  31.547   3.439
66100W        W37826  14.811   7.472  13.597
66101W        W37827  22.920  21.163  12.142
66102W        W37828  18.029  22.587   3.487
66103W        W37829   6.997  31.129  11.892
66104W        W37830  14.772  31.249  13.594
66105W        W37831  27.511  32.379  12.887
66106W        W37832  36.077  43.419  14.526
66107W        W37833  39.286  12.849  12.877
66108W        W37834  40.764  10.375  14.439
66109W        W37835   1.338  18.153  12.067
66110W        W37836  31.704  23.339   5.511
66111W        W37837   0.864  41.334   0.480
66112W        W37838  13.276  36.968   2.444
66113W        W37839  40.830  21.157  12.044
66114W        W37840  16.780  19.130   1.443
66115W        W37841  18.118  18.153   4.731
66116W        W37842   1.353  15.550  12.443
66117W        W37843  26.675  15.203   4.756
66118W        W37844  16.661  44.788   3.805
66119W        W37845   9.653  32.995   9.989
66120W        W37846  20.180  23.119  13.112
66121W        W37847  10.649  43.508   4.189
66122W        W37848  19.642   9.869  11.212
66123W        W37849  17.592  38.508  13.409
66124W        W37850   2.302  44.063  11.120
66125W        W37851  35.347   9.626  10.607
66126W        W37852   3.272   1.525   4.136
66127W        W37853  42.052  17.033  14.662
66128W        W37854  37.158  10.071  10.147
66129W        W37855  26.082   9.110   3.673
66130W        W37856  33.054  19.004   2.770
66131W        W37857  16.290   1.283   1.826
66132W        W37858  21.304  14.697  13.448
66133W        W37859  20.793  34.986  12.588
66134W        W37860  21.902  41.080   1.286
66135W        W37861  39.215  41.662  11.991
66136W        W37862   5.700  14.239  12.003
66137W        W37863  24.866  10.140   3.610
66138W        W37864  40.496   5.577  14.820
66139W        W37865  34.253   9.549   0.780
66140W        W37866   2.065  26.950   2.866
66141W        W37867  37.800   9.672  11.619
66142W        W37868  26.469  39.562   4.188
66143W        W37869  24.314   8.519  12.489
66144W        W37870   2.697   4.320   1.687
66145W        W37871  37.345   5.466  14.719
66146W        W37872  28.628  33.416  10.815
66147W        W37873   3.082  29.035  13.395
66148W        W37874  14.366   6.719   2.560
66149W        W37875  32.659  44.027   5.052
66150W        W37876  34.916  44.143  12.861
66151W        W37877   1.724   3.924  13.464
66152W        W37878  33.447  14.167   2.900
66153W        W37879   6.306  10.236   3.325
66154W        W37880  29.025  17.686  14.280
66155W        W37881  32.935  24.260  12.251
66156W        W37882  20.656  11.183  11.053
66157W        W37883  36.289  29.216  14.563
66158W        W37884  19.754   0.284  11.779
66159W        W37885   7.428  16.949   2.319
66160W        W37886  34.147  27.955  12.910
66161W        W37887  27.535  26.221  11.349
66162W        W37888  31.417  17.818   3.238
66163W        W37889  22.025  35.344   4.643
66164W        W37890  22.759  10.402   0.961
66165W        W37891  17.187  28.459  14.440
66166W        W37892  41.254  18.472   2.660
66167W        W37893   0.923   1.606  11.682
66168W        W37894  32.133  44.859   4.563
66169W        W37895  25.257  12.854   0.437
66170W        W37896  22.442   0.533  12.120
66171W        W37897  28.595  42.370  12.876
66172W        W37898  24.193  27.932   1.451
66173W        W37899  21.453   1.860   1.447
66174W        W37900   7.882   7.941  11.591
66175W        W37901  10.841  22.798  12.514
66176W        W37902   6.121  35.002  11.131
66177W        W37903  18.974  38.848   3.148
66178W        W37904  33.058  30.193  13.576
66179W        W37905  15.120  17.116  14.716
66180W        W37906  36.972  31.061  14.443
66181W        W37907  25.822  32.635   0.809
66182W        W37908   2.412  31.243  11.035
66183W        W37909  30.223  17.612   1.294
66184W        W37910  33.212  39.087  12.941
66185W        W37911  40.017  12.910  11.570
66186W        W37912  26.014  34.396   2.906
66187W        W37913  34.135  23.575  14.419
66188W        W37914  40.369  14.680   1.418
66189W        W37915  38.536  38.278   2.262
66190W        W37916   0.263   9.474   2.983
66191W        W37917  32.363  16.701  13.394
66192W        W37918  16.057   1.537   3.714
66193W        W37919  30.318  31.978   2.103
66194W        W37920  20.065  16.841  13.558
66195W        W37921  41.520   1.203  12.564
66196W        W37922  30.897  43.194   3.708
66197W        W37923  10.621  36.962  11.980
66198W        W37924   3.539  15.030  14.351
66199W        W37925  18.753  19.558  10.658
66200W        W37926   9.056  25.528   3.402
66201W        W37927  23.149  22.764  13.278
66202W        W37928  14.382  41.449   1.367
66203W        W37929  28.039  44.431   4.479
66204W        W37930  43.320   7.562   2.128
66205W        W37931  39.864  25.613   3.349
66206W        W37932  40.533  39.467   2.336
66207W        W37933  41.215  25.659  13.067
66208W        W37934  38.774  26.590   4.092
66209W        W37935  33.990  35.856  13.319
66210W        W37936  27.591  13.314   1.153
66211W        W37937   1.885  13.258   2.202
66212W        W37938  27.141  22.427   1.917
66213W        W37939   9.248  24.471  13.393
66214W        W37940  17.094  41.241   0.768
66215W        W37941  18.854   3.586  10.133
66216W        W37942  26.000   3.226  14.060
66217W        W37943   5.743   4.554  11.867
66218W        W37944  29.698   5.916   3.802
66219W        W37945  10.628   0.412  13.407
66220W        W37946  14.125  11.329  12.993
66221W        W37947   2.030  40.014   1.468
66222W        W37948  16.811   0.688  13.837
66223W        W37949   0.763  43.954   1.710
66224W        W37950  20.469   9.834   1.172
66225W        W37951  26.746  41.597  11.097
66226W        W37952  42.752   6.294   2.221
66227W        W37953  19.669  21.488  14.360
66228W        W37954  15.772   6.014  14.095
66229W        W37955  17.406  20.830   2.325
66230W        W37956  35.846  21.336   0.754
66231W        W37957  44.986  34.966   2.030
66232W        W37958   4.735  37.851  10.633
66233W        W37959  27.001   9.374   0.390
66234W        W37960   4.308   1.520  13.846
66235W        W37961  13.236  39.984   3.678
66236W        W37962  27.585  23.985   2.736
66237W        W37963  13.764  11.638   1.675
66238W        W37964  10.095  16.391  10.423
66239W        W37965   7.355  13.642  13.659
66240W        W37966  19.340  13.709  11.112
66241W        W37967  39.479   8.467  11.022
66242W        W37968   0.881  41.187   2.761
66243W        W37969  37.082  35.448  13.413
66244W        W37970  36.236  18.649  13.415
66245W        W37971  25.883  18.882  12.206
66246W        W37972   3.379   1.801   0.699
66247W        W37973   4.288  41.264  14.424
66248W        W37974  44.467  41.999  14.061
66249W        W37975  42.687   0.693  11.642
66250W        W37976  37.002  20.635   2.377
66251W        W37977  42.780  32.208  12.903
66252W        W37978   7.266  23.138   0.493
66253W        W37979  41.513  16.627  11.981
66254W        W37980  40.469  42.296  13.798
66255W        W37981   4.025  35.242  13.547
66256W        W37982  38.342  42.844  10.922
66257W        W37983  43.921  36.365   0.882
66258W        W37984  30.993  39.148  10.272
66259W        W37985  33.642   2.077  13.929
66260W        W37986  12.258   8.765   2.720
66261W        W37987  35.504  25.676  10.588
66262W        W37988  36.627  38.277   2.354
66263W        W37989  42.709   7.196   0.046
66264W        W37990  29.718   5.792   2.316
66265W        W37991  12.595   6.566   1.786
66266W        W37992  24.950  41.763  10.532
66267W        W37993  12.109  11.837  11.100
66268W        W37994   5.312   4.755  10.966
66269W        W37995  31.149  27.276   4.289
66270W        W37996  27.982   4.492   2.907
66271W        W37997  34.456  33.560   0.308
66272W        W37998  44.461  11.231   4.211
66273W        W37999  39.001  25.686  14.506
66274W        W38000   2.331  37.628   0.503
66275W        W38001  37.995  17.486  10.742
66276W        W38002  18.675  33.706  10.247
66277W        W38003  13.333  13.591   3.689
66278W        W38004  43.737  22.928  12.974
66279W        W38005  42.279   3.808  12.117
66280W        W38006  44.358  30.935  13.468
66281W        W38007  42.396  27.504   3.458
66282W        W38008  44.430  20.848  12.767
66283W        W38009  44.909  35.782  13.399
66284W        W38010  20.822   7.281  13.019
66285W        W38011  16.607   1.290   0.066
66286W        W38012  43.529   6.464  11.076
66287W        W38013  33.105  21.015   4.559
66288W        W38014  35.382  13.987   3.434
66289W        W38015  15.236  44.537  13.816
66290W        W38016  23.139   4.905  14.699
66291W        W38017  18.166  15.186  12.029
66292W        W38018  27.994   4.333  10.897
66293W        W38019  22.523  22.608  11.664
66294W        W38020   7.330  35.664  13.529
66295W        W38021  32.108  15.594   4.516
66296W        W38022  39.020  43.481   1.885
66297W        W38023  15.564   8.340   1.506
66298W        W38024  29.414   8.843  11.546
66299W        W38025  10.068  33.781  12.435
66300W        W38026   3.302   3.090   2.078
66301W        W38027  23.015  18.003  12.022
66302W        W38028   9.162  38.546   2.903
66303W        W38029   8.194   3.261   4.538
66304W        W38030  36.016  34.905  14.454
66305W        W38031   5.245  41.328   1.791
66306W        W38032  33.621   9.724  11.563
66307W        W38033  19.995  36.139   3.810
66308W        W38034  41.875   9.155  14.364
66309W        W38035  36.092  41.330  13.025
66310W        W38036  43.727  31.432   1.089
66311W        W38037   6.743  39.067   2.445
66312W        W38038  37.976  20.891  10.282
66313W        W38039  41.766  44.904  12.998
66314W        W38040  21.780   2.399  13.021
66315W        W38041  31.506  27.142   0.324
66316W        W38042   9.160   7.231   0.338
66317W        W38043  35.430  42.808   0.848
66318W        W38044  42.905   7.612  14.104
66319W        W38045  41.561  19.262  14.925
66320W        W38046  21.287  28.438   3.713
66321W        W38047   3.418   9.021   1.700
66322W        W38048   9.323  44.522   2.662
66323W        W38049  14.780  19.839  14.885
66324W        W38050   4.384  15.076  11.954
66325W        W38051  12.472  18.776   2.175
66326W        W38052  10.603  22.619   3.267
66327W        W38053  27.917   9.669  10.670
66328W        W38054   8.431  18.060   4.061
66329W        W38055   4.408   3.813  11.035
66330W        W38056  36.397   6.827  11.472
66331W        W38057  26.028  40.659  11.933
66332W        W38058   0.021  30.335   3.387
66333W        W38059   5.435   9.132  12.843
66334W        W38060   0.423  26.289  14.434
66335W        W38061  33.842   0.054   1.315
66336W        W38062  35.373  14.380  14.232
66337W        W38063  43.954  27.521  12.406
66338W        W38064   4.723  20.308  14.785
66339W        W38065  37.430  23.160   0.243
66340W        W38066  42.486  31.116   1.744
66341W        W38067   9.452  38.590  13.249
66342W        W38068   0.493   1.695   1.883
66343W        W38069   3.705  29.696   1.831
66344W        W38070  27.940  44.372  14.548
66345W        W38071  14.013  41.731  10.741
66346W        W38072   7.988  29.927   3.171
66347W        W38073  22.192  42.318   2.900
66348W        W38074   0.995  12.650   2.882
66349W        W38075   4.336  39.875  11.432
66350W        W38076  26.554   8.196  14.076
66351W        W38077  44.674  19.551  12.658
66352W        W38078  42.742  39.782  10.727
66353W        W38079  32.408  20.524   2.416
66354W        W38080  23.554  12.690   3.192
66355W        W38081   3.798  11.902  11.445
66356W        W38082  41.853  25.865  14.813
66357W        W38083   2.506  17.817  14.039
66358W        W38084  33.370  20.119  14.857
66359W        W38085  42.784  37.027  11.644
66360W        W38086  29.474   5.138  13.129
66361W        W38087  19.228  19.521  13.269
66362W        W38088  12.784  40.437  11.461
66363W        W38089  28.615  20.587  11.522
66364W        W38090  44.510  37.780   3.980
66365W        W38091   7.167   8.549  13.172
66366W        W38092  15.673  20.225   4.141
66367W        W38093  36.998  26.137   9.973
66368W        W38094  15.916  33.688   3.571
66369W        W38095   1.499  14.037  14.256
66370W        W38096  15.299   2.794   1.764
66371W        W38097   9.618  22.619  11.954
66372W        W38098   1.860  11.759   3.123
66373W        W38099  43.812  20.245  13.989
66374W        W38100  26.732  22.600  13.654
66375W        W38101  15.364  39.272   2.597
66376W        W38102  10.742  37.099   2.595
66377W        W38103  41.831   9.218  13.022
66378W        W38104   1.379   5.083  14.768
66379W        W38105  32.186   3.890   0.701
66380W        W38106  28.300  28.347   0.669
66381W        W38107  30.375   5.010  12.620
66382W        W38108  33.540  42.496   3.596
66383W        W38109  19.083   0.370  13.895
66384W        W38110  13.152  43.660  11.891
66385W        W38111  40.430   9.682  14.064
66386W        W38112  44.736   1.702  12.081
66387W        W38113  11.385  28.419   1.831
66388W        W38114   5.661  17.143   2.834
66389W        W38115   0.346  18.319  12.252
66390W        W38116  15.604  32.168   3.639
66391W        W38117  11.150  11.699  10.799
66392W        W38118  31.545   1.239  13.372
66393W        W38119  34.062  18.699  11.879
66394W        W38120  28.209   8.957  10.330
66395W        W38121   0.937   4.912   3.649
66396W        W38122   3.840  33.110   2.473
66397W        W38123   2.738   7.655   1.635
66398W        W38124  39.189  16.896   4.029
66399W        W38125  41.327   0.018  11.796
66400W        W38126  36.378   6.496  14.245
66401W        W38127  27.689  41.088   4.526
66402W        W38128   7.731  39.059  14.251
66403W        W38129   0.991  27.019   4.509
66404W        W38130  43.007  36.285   3.738
66405W        W38131  43.740  25.279   1.461
66406W        W38132   3.543  31.434   1.325
66407W        W38133  42.963  39.152   1.294
66408W        W38134  18.839  13.645  13.517
66409W        W38135  14.235  31.756   5.173
66410W        W38136   9.768  29.463  13.494
66411W        W38137  15.274  27.664  14.886
66412W        W38138  33.012  18.277   1.936
66413W        W38139  30.722  23.308   5.536
66414W        W38140  31.460  27.104   9.470
66415W        W38141   9.658  13.763   3.279
66416W        W38142   0.325  37.536  13.360
66417W        W38143  42.234  18.822   3.804
66418W        W38144  37.453  41.906  12.652
66419W        W38145  42.297  25.952  10.690
66420W        W38146  41.988  16.205   0.750
66421W        W38147   6.152  23.511  12.946
66422W        W38148   4.526  41.058  13.840
66423W        W38149  13.081  19.195  12.338
66424W        W38150  38.048  16.596  12.402
66425W        W38151  15.098  34.905   1.266
66426W        W38152  26.614  12.209   2.290
66427W        W38153  40.772  26.276  10.999
66428W        W38154  44.561  37.486  13.940
66429W        W38155   2.180  41.751   3.727
66430W        W38156  24.563   6.305   0.429
66431W        W38157  13.825  31.951   4.865
66432W        W38158  44.824   6.775   3.315
66433W        W38159  38.118  24.944  13.757
66434W        W38160  42.477  10.690   0.731
66435W        W38161   4.731  39.997   3.655
66436W        W38162  16.185   1.456  14.812
66437W        W38163  32.504   3.930   2.362
66438W        W38164  14.206  32.111   4.244
66439W        W38165  26.261  37.490   4.977
66440W        W38166  20.627  40.362   1.368
66441W        W38167  24.626   6.482  12.878
66442W        W38168   3.218  33.863   0.227
66443W        W38169  35.824  13.138  13.910
66444W        W38170  35.643  20.280  11.089
66445W        W38171  13.375   8.319   4.643
66446W        W38172  29.236  11.433  12.157
66447W        W38173   8.050  41.493   4.077
66448W        W38174  43.553  15.203  10.757
66449W        W38175  40.596  33.629   0.324
66450W        W38176  34.071  22.124   2.177
66451W        W38177  17.504  33.996  10.548
66452W        W38178  41.403  20.707   4.538
66453W        W38179  16.981  12.439   4.126
66454W        W38180   1.939  21.772   0.296
66455W        W38181  43.287  19.135  14.748
66456W        W38182  44.750  30.503  11.054
66457W        W38183  12.431   8.783   2.234
66458W        W38184  29.987  27.758   4.503
66459W        W38185  38.837  15.179  11.978
66460W        W38186   5.191  37.632  11.755
66461W        W38187  38.417  41.256  12.896
66462W        W38188  27.034  18.770   2.455
66463W        W38189  40.769  27.406   4.368
66464W        W38190  44.425   9.377   2.546
66465W        W38191  33.639  10.147   0.953
66466W        W38192   9.151  41.844   1.766
66467W        W38193  30.433   5.849   2.938
66468W        W38194  33.487  19.929   2.173
66469W        W38195  32.707  39.981  12.959
66470W        W38196   2.692  41.539  10.717
66471W        W38197   1.534  24.616  14.979
66472W        W38198  34.418   1.383   3.723
66473W        W38199  19.749   9.352  12.408
66474W        W38200  37.711   8.703   4.219
66475W        W38201  11.868  17.660   1.660
66476W        W38202  25.038  22.769   2.639
66477W        W38203  29.538  12.623  13.958
66478W        W38204   9.382  35.785   1.941
66479W        W38205  44.611  41.559  14.966
66480W        W38206  32.825  13.577  14.877
66481W        W38207   6.021   4.253   3.683
66482W        W38208  31.366  21.362   0.487
66483W        W38209  39.121  10.626  12.468
66484W        W38210  16.540   6.406  13.550
66485W        W38211   8.995  25.162  14.025
66486W        W38212  18.826  27.455   0.999
66487W        W38213  15.469  30.973   0.178
66488W        W38214  10.831  17.729   2.831
66489W        W38215   6.286   1.417   4.399
66490W        W38216  34.129  20.152  10.977
66491W        W38217  32.683  17.522   0.235
66492W        W38218  26.057  27.390  14.285
66493W        W38219  16.569  11.568  14.318
66494W        W38220  32.961  35.499   3.595
66495W        W38221   4.567  18.233   2.429
66496W        W38222   7.667   5.792  11.951
66497W        W38223  10.862  31.413  14.525
66498W        W38224   1.518  43.827   3.422
66499W        W38225  37.849  38.479  11.949
66500W        W38226  15.627  31.031   1.173
66501W        W38227  39.237   4.953  14.468
66502W        W38228  14.131  25.648  12.132
66503W        W38229   6.754  31.194  11.414
66504W        W38230   0.960  20.671   3.235
66505W        W38231   3.549  19.743  14.440
66506W        W38232  22.781  24.092  12.881
66507W        W38233   8.938  41.273   1.455
66508W        W38234   4.309  14.183  13.870
66509W        W38235   5.592  41.929   4.287
66510W        W38236  16.720  27.527   0.570
66511W        W38237  40.357  37.861   3.176
66512W        W38238  22.955  39.290  12.857
66513W        W38239   1.361  22.654   4.500
66514W        W38240  31.494  35.930  14.543
66515W        W38241  18.817  34.404  13.931
66516W        W38242  25.711  17.661   0.360
66517W        W38243  25.009  42.235   4.089
66518W        W38244   3.347  11.396   0.091
66519W        W38245  13.587  11.637   3.016
66520W        W38246   7.401   9.379   2.708
66521W        W38247  28.959  31.741  13.480
66522W        W38248  18.530  41.502  13.009
66523W        W38249  10.198  37.607   2.357
66524W        W38250   7.959  18.689   3.701
66525W        W38251   0.072   9.894   0.774
66526W        W38252  32.091  15.619   3.792
66527W        W38253  26.268  38.659  13.651
66528W        W38254  43.874  43.180   4.216
66529W        W38255  43.015  25.563  10.598
66530W        W38256  30.059  30.343  11.117
66531W        W38257   1.458   4.824   1.969
66532W        W38258  20.447   2.836  11.087
66533W        W38259  26.104   2.378  13.434
66534W        W38260   6.240  16.875   4.202
66535W        W38261  36.309  20.489  13.287
66536W        W38262   0.936  36.696   3.785
66537W        W38263  39.536   0.049   0.477
66538W        W38264  29.742   2.402  13.478
66539W        W38265  35.834  34.398  14.451
66540W        W38266   6.232  23.024   2.971
66541W        W38267  14.756  17.038  10.294
66542W        W38268  24.828   5.127   0.942
66543W        W38269  20.879  16.595  11.520
66544W        W38270  17.837  35.778   0.383
66545W        W38271  22.761  16.687  13.858
66546W        W38272   5.472  32.977  13.012
66547W        W38273   2.905  18.614  13.771
66548W        W38274   9.827  21.781  11.441
66549W        W38275  43.373  27.089   0.499
66550W        W38276  28.515  29.939   3.403
66551W        W38277  16.823  15.231  12.987
66552W        W38278   2.481  41.078   2.791
66553W        W38279  22.970   4.922  13.835
66554W        W38280  42.696   3.375   1.857
66555W        W38281  23.147  35.823  12.876
66556W        W38282  36.667   1.913  13.102
66557W        W38283  38.310  43.250   1.229
66558W        W38284  18.367  36.983   4.989
66559W        W38285  26.883  11.682  12.112
66560W        W38286  10.690  42.335  14.223
66561W        W38287  31.192  31.713   2.882
66562W        W38288  33.394   9.562  14.681
66563W        W38289  34.479  29.508  12.822
66564W        W38290  40.425  25.064   4.537
66565W        W38291  38.019  15.098  14.789
66566W        W38292  32.003   1.084   2.250
66567W        W38293  30.758  37.420  14.220
66568W        W38294  37.622  37.856   3.596
66569W        W38295   4.377  33.193   2.932
66570W        W38296  11.658  33.477  12.106
66571W        W38297  19.347  26.852   1.853
66572W        W38298  43.740  21.098   3.115
66573W        W38299  11.183  44.419   0.421
66574W        W38300  35.813  30.201  11.826
66575W        W38301  32.327  28.773   1.837
66576W        W38302   2.315  21.504  14.340
66577W        W38303  30.152  38.452  11.488
66578W        W38304  16.546   8.162  11.952
66579W        W38305  34.636  34.332  11.562
66580W        W38306  18.067   3.773   1.209
66581W        W38307  20.677  12.167  11.186
66582W        W38308  16.024  37.309   4.369
66583W        W38309  13.260  38.846  12.786
66584W        W38310  32.826  18.083  11.005
66585W        W38311  22.953  34.813   3.446
66586W        W38312   9.770  17.362   1.955
66587W        W38313  42.767  33.999  11.188
66588W        W38314  11.351   7.703   0.844
66589W        W38315  29.265  15.822  12.062
66590W        W38316  22.413  12.658   3.816
66591W        W38317  19.332  34.825   2.383
66592W        W38318   2.629  14.895   1.341
66593W        W38319  31.993  25.566  12.150
66594W        W38320  16.982  40.976   4.455
66595W        W38321  44.749  23.540  14.249
66596W        W38322  15.140  44.888  11.561
66597W        W38323  30.144  43.903  13.081
66598W        W38324  18.691  10.684   3.173
66599W        W38325  31.381   0.221  12.526
66600W        W38326  11.929  29.829  14.398
66601W        W38327  25.626  27.651   4.094
66602W        W38328  35.336   2.522  13.909
66603W        W38329  22.742   7.831   0.865
66604W        W38330   9.435   9.643  11.555
66605W        W38331  13.812  35.186  14.597
66606W        W38332   6.271  26.109   1.264
66607W        W38333  20.515   0.069  11.540
66608W        W38334  26.659  12.098  11.152
66609W        W38335  37.306  21.177   1.891
66610W        W38336   2.563  11.264   3.129
66611W        W38337  37.786  21.940  11.048
66612W        W38338  38.003   4.559  13.786
66613W        W38339  39.243  29.665  14.881
66614W        W38340  43.739  40.015  14.232
66615W        W38341   8.952  28.191  11.205
66616W        W38342  34.070  11.787   4.591
66617W        W38343   7.704   5.644   4.069
66618W        W38344  14.767  42.226  12.069
66619W        W38345  16.572  10.287  13.405
66620W        W38346  11.669  23.146  10.479
66621W        W38347  21.357   7.119  11.170
66622W        W38348  23.188  39.190  14.309
66623W        W38349  30.642   9.307   1.177
66624W        W38350  26.982  31.522   3.861
66625W        W38351  10.874  37.519   0.778
66626W        W38352   1.724  17.149  13.622
66627W        W38353  22.019  11.177  10.659
66628W        W38354  44.805  20.135  11.390
66629W        W38355  44.460   1.351  10.722
66630W        W38356  28.034  30.153  12.492
66631W        W38357  18.498  17.127   1.800
66632W        W38358  11.111   6.073  10.744
66633W        W38359  43.402  39.088  13.489
66634W        W38360  13.976  44.387  10.950
66635W        W38361   5.883  29.307   3.544
66636W        W38362  43.143  18.163  11.462
66637W        W38363  43.706  18.764   2.834
66638W        W38364  16.081  13.697  12.666
66639W        W38365  11.649  43.066  12.552
66640W        W38366  25.895  24.591   2.027
66641W        W38367  17.837  23.081   1.631
66642W        W38368  15.305  20.509   4.383
66643W        W38369  17.140  32.285   0.430
66644W        W38370  24.145  29.424  12.101
66645W        W38371  19.340  39.783  13.026
66646W        W38372  16.733  37.361  14.089
66647W        W38373   9.604  26.141  13.332
66648W        W38374  37.181  21.063   4.165
66649W        W38375  11.519  14.765   1.667
66650W        W38376  22.168  17.693   1.669
66651W        W38377   4.954  18.764  13.322
66652W        W38378   0.930  25.553   4.864
66653W        W38379  14.640  10.937   2.291
66654W        W38380  17.280  42.908  14.598
66655W        W38381   4.428  34.859  12.445
66656W        W38382   6.813  16.818  13.358
66657W        W38383  18.494   5.624  11.169
66658W        W38384   2.431  41.836   4.683
66659W        W38385  12.297  38.991  12.970
66660W        W38386  41.026  26.557  10.669
66661W        W38387  30.684  42.259   0.607
66662W        W38388   5.861  20.489   4.568
66663W        W38389  30.043   5.776   1.893
66664W        W38390  24.674  29.573  12.506
66665W        W38391  27.198  28.321   0.296
66666W        W38392  10.207  33.578  13.363
66667W        W38393  34.887   4.178  12.040
66668W        W38394  22.573  15.373  10.689
66669W        W38395  25.076  11.709  13.063
66670W        W38396  31.421  18.332  13.583
66671W        W38397   4.472  42.375  12.438
66672W        W38398  39.029  16.103  11.319
66673W        W38399  28.514  14.175  12.379
66674W        W38400   1.287  29.397   2.634
66675W        W38401   5.573  38.137  13.783
66676W        W38402   0.778  36.809  14.407
66677W        W38403  33.083  10.426  11.586
66678W        W38404   2.145  17.293  10.626
66679W        W38405  32.171  16.529   2.173
66680W        W38406  21.762  38.846  11.477
66681W        W38407   3.859   9.243  14.011
66682W        W38408  43.499  18.246   3.709
66683W        W38409   3.450  27.907   3.285
66684W        W38410  33.904  14.786  11.226
66685W        W38411  40.551  16.864  10.572
66686W        W38412  15.844  30.957  12.912
66687W        W38413  18.931  22.150   3.673
66688W        W38414  14.792  15.763  13.544
66689W        W38415   4.686  20.660  12.863
66690W        W38416   5.872  28.148  13.950
66691W        W38417  30.885  44.080  10.237
66692W        W38418   6.932  28.057  10.757
66693W        W38419  14.428  21.498  12.376
66694W        W38420  10.332   7.809   0.760
66695W        W38421  30.982  11.358   0.352
66696W        W38422  17.695   6.683  13.521
66697W        W38423  26.042   9.682   2.330
66698W        W38424  42.075  41.022  13.897
66699W        W38425  11.317  10.050  12.564
66700W        W38426  42.353  39.468   1.802
66701W        W38427   0.309   7.891  10.661
66702W        W38428  17.097  29.372   3.355
66703W        W38429   0.481  42.254   4.330
66704W        W38430  26.023  42.411  11.378
66705W        W38431   0.188  22.309   2.827
66706W        W38432  33.289  14.908  14.952
66707W        W38433  32.903  14.149   3.710
66708W        W38434  41.851  42.105   1.214
66709W        W38435  43.896  30.215   0.163
66710W        W38436   9.343  42.410  12.684
66711W        W38437  17.579  16.322   1.286
66712W        W38438  20.361  37.452   2.694
66713W        W38439  28.591   5.815  12.826
66714W        W38440  28.123  32.150  12.019
66715W        W38441  24.540  16.574   3.248
66716W        W38442   6.201  29.937   2.750
66717W        W38443  10.851  13.241   2.123
66718W        W38444  31.278  43.445   0.086
66719W        W38445  37.066  31.281  12.269
66720W        W38446   2.900  25.136  14.920
66721W        W38447  29.021   8.258  11.597
66722W        W38448  14.153  38.586   0.930
66723W        W38449  13.641   6.677   0.732
66724W        W38450   2.195  16.798  12.454
66725W        W38451  36.532  26.527  14.846
66726W        W38452  27.184  28.373  10.562
66727W        W38453  25.533  44.048   0.775
66728W        W38454  19.096  37.710   0.689
66729W        W38455  14.766  28.773   0.390
66730W        W38456  35.027  27.579  11.519
66731W        W38457  12.542  14.727   1.861
66732W        W38458   6.082  37.582   0.851
66733W        W38459  10.167   3.129  13.228
66734W        W38460   7.259  34.642  13.419
66735W        W38461  29.431  24.069   0.214
66736W        W38462   3.730  24.451  10.407
66737W        W38463  41.172  32.911   4.311
66738W        W38464  38.012  22.099  11.490
66739W        W38465  15.849  21.401  10.671
66740W        W38466   3.786  16.891   4.201
66741W        W38467  44.344  11.740  11.109
66742W        W38468   6.686  36.429  10.638
66743W        W38469  44.693  32.103  13.076
66744W        W38470  20.681  20.103  14.995
66745W        W38471  13.682  14.120  12.596
66746W        W38472   1.374   0.979   1.303
66747W        W38473  33.072  23.956  11.507
66748W        W38474  38.129  42.027   0.994
66749W        W38475  15.124  31.176  10.949
66750W        W38476   8.982  27.997  14.293
66751W        W38477  24.232   6.739  13.947
66752W        W38478   0.250  35.752  10.563
66753W        W38479  25.191  43.483  11.144
66754W        W38480  19.768   5.884   4.145
66755W        W38481   8.401  22.581  14.348
66756W        W38482   1.606  41.388  10.674
66757W        W38483  31.463   2.773  11.204
66758W        W38484  36.531  16.634  11.218
66759W        W38485  37.420  34.938   3.341
66760W        W38486  40.033  43.427   0.997
66761W        W38487  12.539  11.607   1.292
66762W        W38488  44.791  29.766   0.257
66763W        W38489   5.700  34.917  12.419
66764W        W38490  40.934   5.329  10.622
66765W        W38491  23.712  10.818   3.072
66766W        W38492   1.941  15.479  11.606
66767W        W38493   4.755  36.081  11.077
66768W        W38494  39.243  38.263  14.769
66769W        W38495  13.174  29.744  12.511
66770W        W38496  15.983  24.453  11.395
66771W        W38497  17.269   2.848  10.479
66772W        W38498   7.798   0.344   2.183
66773W        W38499   3.105  14.461  11.872
66774W        W38500  18.263  35.916  14.435
66775W        W38501  12.681  19.730  13.917
66776W        W38502  26.469   5.942   2.811
66777W        W38503  12.688  37.751  14.827
66778W        W38504  28.035  23.853  10.660
66779W        W38505  42.870  30.430  13.484
66780W        W38506  32.909  24.055   2.814
66781W        W38507  21.542  36.647  10.970
66782W        W38508  15.212  36.757  10.229
66783W        W38509  10.054  32.558  11.151
66784W        W38510  41.317  21.983   1.915
66785W        W38511  44.848  13.776  10.699
66786W        W38512   1.444  13.551   2.383
66787W        W38513  19.972  12.881  11.147
66788W        W38514   7.190  29.374   1.741
66789W        W38515   7.331  28.092   2.298
66790W        W38516  29.600  42.134   2.131
66791W        W38517  17.977  14.937   4.229
66792W        W38518  13.185   7.157   0.449
66793W        W38519  27.606  42.790  13.023
66794W        W38520   2.887  44.350  11.175
66795W        W38521  21.582  17.481   2.693
66796W        W38522  24.146  23.162   1.269
66797W        W38523  16.048   2.050   4.547
66798W        W38524  44.397  43.827   3.176
66799W        W38525  27.540  42.493   2.634
66800W        W38526   4.706  25.230  11.211
66801W        W38527  25.525  17.423  14.389
66802W        W38528  21.892   8.411  12.184
66803W        W38529  29.036   2.363  14.219
66804W        W38530  28.725   0.509  13.764
66805W        W38531   7.336   9.762  10.965
66806W        W38532  11.657   7.913   3.654
66807W        W38533   9.052  40.266  14.690
66808W        W38534  33.499  44.444  10.730
66809W        W38535  19.312  29.589   1.233
66810W        W38536  20.035   5.126  12.546
66811W        W38537  24.442  19.284  10.580
66812W        W38538  19.846  23.127  13.495
66813W        W38539   5.700  20.115  12.516
66814W        W38540  20.514  41.559  14.181
66815W        W38541  33.529  14.723  12.643
66816W        W38542  23.515  27.557  12.905
66817W        W38543   4.440   1.209  13.436
66818W        W38544  27.657  19.083   1.734
66819W        W38545  34.052   0.354   4.059
66820W        W38546   3.296  13.893   5.089
66821W        W38547  40.233  25.760  12.756
66822W        W38548   6.445  28.184  10.652
66823W        W38549  17.260   1.671   4.557
66824W        W38550   5.528  26.553  14.347
66825W        W38551   3.937  27.274  12.010
66826W        W38552  32.973  30.866   1.674
66827W        W38553  24.822   5.769  12.381
66828W        W38554  43.419   1.462  14.531
66829W        W38555  40.644   0.830  14.270
66830W        W38556   7.848   8.623  12.070
66831W        W38557  34.447  36.774  14.385
66832W        W38558  20.708  13.330  13.783
66833W        W38559  21.979  26.819  11.023
66834W        W38560   8.242  18.374  13.878
66835W        W38561  28.105  30.863   4.549
66836W        W38562   6.857  11.651   2.113
66837W        W38563  29.015  15.007   1.348
66838W        W38564  16.386  29.520  10.431
66839W        W38565  20.999  44.317   4.668
66840W        W38566   1.599  27.817   0.907
66841W        W38567  36.522  39.327  11.556
66842W        W38568  41.849  25.515   4.266
66843W        W38569   0.251  18.921  11.203
66844W        W38570  20.923  13.828   1.736
66845W        W38571  44.495  28.406  13.162
66846W        W38572  38.742  12.707   5.035
66847W        W38573  11.151  27.841  10.641
66848W        W38574  11.123  25.602  13.812
66849W        W38575   5.354  16.346  11.591
66850W        W38576  27.620   1.964  13.808
66851W        W38577  34.967  30.688  11.972
66852W        W38578  13.437  44.804   0.350
66853W        W38579   0.592  28.172  13.358
66854W        W38580  11.615  31.371  13.023
66855W        W38581  40.270   2.366  13.264
66856W        W38582   9.742  19.535   2.782
66857W        W38583  25.543   0.826  14.999
66858W        W38584  32.557  34.415   3.113
66859W        W38585  10.639  24.772   4.564
66860W        W38586  29.580  35.562  10.990
66861W        W38587  43.103  41.357  11.861
66862W        W38588  22.180  33.186   3.797
66863W        W38589  24.109  40.381  14.230
66864W        W38590  19.283   7.730   1.927
66865W        W38591  14.234  28.706  13.378
66866W        W38592   8.932  42.227  12.421
66867W        W38593  22.432  41.835   2.795
66868W        W38594   4.723  10.278   1.671
66869W        W38595  28.905  14.024  13.745
66870W        W38596  36.388   0.523   1.892
66871W        W38597  13.622  25.224   1.379
66872W        W38598  11.807  34.539   3.085
66873W        W38599  32.593  14.825  10.810
66874W        W38600  16.308  41.270   3.704
66875W        W38601  16.916  27.970   0.429
66876W        W38602  30.487  13.275  10.768
66877W        W38603   1.963   2.218   3.318
66878W        W38604  23.082  25.492   2.784
66879W        W38605  27.382  17.700   2.949
66880W        W38606  40.967  33.647   3.799
66881W        W38607   7.782  39.569  14.294
66882W        W38608  43.338  26.397   4.857
66883W        W38609  36.981   4.847  14.222
66884W        W38610   2.353  41.865   2.143
66885W        W38611  10.349  35.933   3.827
66886W        W38612  37.712  38.448  14.699
66887W        W38613  12.266  27.040   2.701
66888W        W38614   4.385   2.346   1.961
66889W        W38615   5.335  29.232  11.154
66890W        W38616  41.415  39.525  13.292
66891W        W38617  20.247   5.778   0.047
66892W        W38618  37.754  20.133   0.940
66893W        W38619  22.687  32.099   4.931
66894W        W38620  34.379  12.327   3.788
66895W        W38621  24.318  31.933  11.047
66896W        W38622  20.975  20.784  14.740
66897W        W38623   3.157  11.651   0.914
66898W        W38624  17.721  21.532   4.837
66899W        W38625  18.575  30.372  11.044
66900W        W38626   5.130  19.288  13.928
66901W        W38627  29.987  30.502  14.943
66902W        W38628  20.719  25.686  12.461
66903W        W38629  15.272   1.465  14.831
66904W        W38630  24.221  25.466   1.465
66905W        W38631  26.652  26.578   2.636
66906W        W38632  34.006  43.874  11.894
66907W        W38633  38.331  43.397  14.001
66908W        W38634  17.232   3.540  12.563
66909W        W38635  32.597  28.582   0.955
66910W        W38636  25.041  22.791   2.123
66911W        W38637  29.975  11.862  12.514
66912W        W38638  37.312  21.603  11.912
66913W        W38639   1.390  42.213  13.340
66914W        W38640  30.428  13.039  13.853
66915W        W38641   5.175  23.330  13.028
66916W        W38642  22.608   8.595   3.234
66917W        W38643   8.369   0.837   3.292
66918W        W38644  39.086  23.698   0.429
66919W        W38645  42.011  22.707   3.332
66920W        W38646  30.142   1.442   2.190
66921W        W38647  11.454  18.683   0.965
66922W        W38648  26.496  41.026   3.264
66923W        W38649  26.051  43.414  11.977
66924W        W38650   1.300  29.116   3.314
66925W        W38651  40.094  39.971  14.521
66926W        W38652  34.153  21.764   3.354
66927W        W38653   4.166   3.618  13.471
66928W        W38654  38.469  20.931   3.267
66929W        W38655  19.864  38.449   2.712
66930W        W38656  38.030  19.469  14.848
66931W        W38657  16.360  36.377  13.352
66932W        W38658   8.383  10.199  11.640
66933W        W38659  25.686   3.605   0.914
66934W        W38660  15.621  35.378  11.151
66935W        W38661  36.962  11.717   3.803
66936W        W38662  30.774  27.138   5.482
66937W        W38663   0.122  43.205  12.030
66938W        W38664  15.135   0.415  11.632
66939W        W38665  33.546  16.721  13.944
66940W        W38666   9.173   4.760  11.103
66941W        W38667  34.612  23.614   1.028
66942W        W38668  41.455  23.519  12.072
66943W        W38669  19.673  38.042  12.795
66944W        W38670  40.359  18.042  13.381
66945W        W38671   2.973  34.876   1.319
66946W        W38672   7.713  19.317  12.088
66947W        W38673  26.448  15.289   3.301
66948W        W38674  12.049   5.598   2.273
66949W        W38675   6.347  34.190   1.522
66950W        W38676  42.092  43.575   4.522
66951W        W38677   0.622  28.559  14.622
66952W        W38678  15.584  22.690   2.796
66953W        W38679  17.062  32.216   4.561
66954W        W38680   0.326  33.182  12.987
66955W        W38681  26.108  31.583  10.684
66956W        W38682   5.992  25.989   4.685
66957W        W38683  37.896  31.401   2.227
66958W        W38684  27.623  12.050   2.227
66959W        W38685  37.141  39.836  11.009
66960W        W38686  30.406  20.619  12.515
66961W        W38687   9.630  35.608  11.669
66962W        W38688  32.157  37.353   0.750
66963W        W38689  36.966  20.685   0.275
66964W        W38690   8.311  21.649   4.260
66965W        W38691  30.632  28.459   4.848
66966W        W38692  19.638  19.223  12.870
66967W        W38693  19.015  34.446  12.320
66968W        W38694  16.311  32.497   0.939
66969W        W38695   1.998  32.558   0.021
66970W        W38696   0.238  24.731  13.481
66971W        W38697   0.898   3.318   0.919
66972W        W38698   6.259  17.594  13.064
66973W        W38699  11.386  14.789   2.761
66974W        W38700  41.045  27.075  13.281
66975W        W38701  37.176  25.260  12.949
66976W        W38702  36.153   8.717   4.721
66977W        W38703  28.641   8.354  13.880
66978W        W38704  15.637  36.968   4.568
66979W        W38705  24.042  36.057  14.562
66980W        W38706   0.750   2.458   2.297
66981W        W38707  27.026  33.523   0.135
66982W        W38708   6.124  27.517   3.136
66983W        W38709  38.438   0.755  12.536
66984W        W38710  35.370  23.161  12.560
66985W        W38711  36.580   2.844   1.898
66986W        W38712  10.480  19.238  13.481
66987W        W38713  27.273  13.587   2.615
66988W        W38714   9.839  37.452   1.490
66989W        W38715  42.381  39.704   3.150
66990W        W38716   8.925  20.698   2.470
66991W        W38717  15.764  39.980  11.595
66992W        W38718   1.245   3.710  13.445
66993W        W38719   8.190   9.927  12.021
66994W        W38720  22.611   3.971   0.794
66995W        W38721   9.843  28.923   3.734
66996W        W38722  27.099  17.792  14.500
66997W        W38723  30.381  30.123   0.885
66998W        W38724  18.173  43.121   4.346
66999W        W38725  17.306  11.715  13.950
67000W        W38726  10.376   4.032  12.887
67001W        W38727  14.702  26.945   2.583
67002W        W38728   1.323  18.013   4.621
67003W        W38729  38.052   6.151  14.624
67004W        W38730  20.707  24.159   2.861
67005W        W38731   7.141  32.591   0.780
67006W        W38732  28.712  31.552  11.719
67007W        W38733  30.443  43.539  12.844
67008W        W38734  19.676  15.802  14.956
67009W        W38735   3.800  10.876  10.922
67010W        W38736  27.045  16.040   0.962
67011W        W38737  30.902  18.653   2.913
67012W        W38738  39.356   6.669   4.178
67013W        W38739  26.936  31.186   0.313
67014W        W38740  15.228  10.985  14.991
67015W        W38741   5.222  23.644   2.005
67016W        W38742  24.472   8.648  14.419
67017W        W38743  33.514   7.844  12.100
67018W        W38744   7.461  14.901  14.372
67019W        W38745  21.719   7.035   1.290
67020W        W38746   5.927  34.355  11.557
67021W        W38747  40.353   4.904  10.635
67022W        W38748  14.568   0.294   1.327
67023W        W38749  33.206  20.608  14.480
67024W        W38750   6.984  28.670   2.400
67025W        W38751  20.109  41.473   4.152
67026W        W38752  24.736  17.987  14.383
67027W        W38753  22.098  19.611  14.454
67028W        W38754   6.790   0.105   1.890
67029W        W38755  22.009  33.022  14.226
67030W        W38756  29.635   5.418   4.524
67031W        W38757  25.273  39.055   2.718
67032W        W38758   5.799  36.447   0.240
67033W        W38759  32.409  22.747  14.882
67034W        W38760  23.928  39.795   0.538
67035W        W38761  13.667  30.932   2.933
67036W        W38762  25.971  15.787   4.649
67037W        W38763  27.487  12.814   4.425
67038W        W38764  43.317   7.929   4.469
67039W        W38765  14.731  20.791   4.402
67040W        W38766  11.327  36.904   4.718
67041W        W38767   8.465   5.228  12.750
67042W        W38768  39.980  29.513   1.740
67043W        W38769  33.011  33.834   4.168
67044W        W38770  22.698   7.246   4.188
67045W        W38771  30.435  39.536   3.372
67046W        W38772   0.467  25.827   4.887
67047W        W38773  20.998   3.017   0.924
67048W        W38774  43.613  36.344  12.386
67049W        W38775  10.365  35.138  14.621
67050W        W38776  30.540  22.496  12.645
67051W        W38777  34.669  28.081   4.722
67052W        W38778  41.939  18.111  10.711
67053W        W38779  39.106  28.162   5.264
67054W        W38780  19.592  24.087  14.986
67055W        W38781   1.388  36.047   2.345
67056W        W38782  25.478  42.476   4.795
67057W        W38783  21.135  34.113   1.385
67058W        W38784   9.405  12.093   3.692
67059W        W38785  32.986  38.377  10.642
67060W        W38786   8.706  28.579   0.644
67061W        W38787   1.967  43.997  13.462
67062W        W38788  35.913   8.766   2.020
67063W        W38789  32.659  22.214  13.931
67064W        W38790  27.762  15.542   1.790
67065W        W38791  39.418  40.780  13.932
67066W        W38792  25.336  43.292   9.838
67067W        W38793  36.136  35.929   4.564
67068W        W38794  36.603  16.314  12.562
67069W        W38795  23.130   6.639  14.412
67070W        W38796  15.662  25.556  14.856
67071W        W38797  15.208   9.574   2.057
67072W        W38798  16.171  39.292  12.599
67073W        W38799  15.720   2.311  10.675
67074W        W38800  39.503   9.777  12.946
67075W        W38801  32.377   3.420   2.380
67076W        W38802  31.706  33.530  12.776
67077W        W38803   3.238  39.761  11.430
67078W        W38804   2.365  44.424   4.364
67079W        W38805  12.784  44.459  10.068
67080W        W38806   0.302   3.802  12.006
67081W        W38807  40.613  32.117   4.513
67082W        W38808  32.996   5.947   3.746
67083W        W38809  29.994   8.897  12.521
67084W        W38810  15.344  35.983  13.839
67085W        W38811   2.383  10.937  14.892
67086W        W38812  42.543  34.711  12.890
67087W        W38813  23.450  25.532  13.693
67088W        W38814  32.423  21.630   3.810
67089W        W38815   6.873  32.461   4.307
67090W        W38816   3.558  12.623  11.648
67091W        W38817  34.301  27.600  13.674
67092W        W38818  31.938  10.106   4.629
67093W        W38819   9.311  36.440   3.208
67094W        W38820  28.617  43.538  12.615
67095W        W38821  34.528  42.809   0.957
67096W        W38822   9.151  17.735  12.988
67097W        W38823  16.826  40.845  10.877
67098W        W38824  34.184   2.601  10.989
67099W        W38825   7.761  38.952   1.815
67100W        W38826  37.807  40.642  10.627
67101W        W38827  30.010  37.803  12.081
67102W        W38828  28.684  35.294   4.896
67103W        W38829  18.175   5.157   0.262
67104W        W38830  44.579   0.602  11.311
67105W        W38831  27.890  41.574   2.643
67106W        W38832  21.096  35.992   1.058
67107W        W38833   1.838  43.798  12.976
67108W        W38834  43.997  41.990  14.481
67109W        W38835   9.631  12.365  12.446
67110W        W38836  38.082   6.855   3.874
67111W        W38837  28.443  42.442   0.909
67112W        W38838  39.472  38.009   1.095
67113W        W38839  17.125  15.905  10.066
67114W        W38840  29.967  14.795  14.034
67115W        W38841  21.553  18.643   3.929
67116W        W38842  29.463  21.742  12.092
67117W        W38843  16.576  36.849   3.636
67118W        W38844   0.871  10.666  13.794
67119W        W38845  21.550  33.555  12.027
67120W        W38846  28.950  19.545   0.995
67121W        W38847   3.269  43.030  11.189
67122W        W38848  32.127  13.389  11.800
67123W        W38849  10.917  36.873  10.604
67124W        W38850   1.379  23.231   0.286
67125W        W38851   4.989  17.009  14.724
67126W        W38852  36.072  23.012   0.845
67127W        W38853  38.078  40.309   3.420
67128W        W38854  24.886   3.380   1.227
67129W        W38855   1.986  39.297  10.714
67130W        W38856  27.487   0.590   5.089
67131W        W38857   5.407  14.979   0.937
67132W        W38858  41.305  15.729  14.275
67133W        W38859  30.424   2.214  14.136
67134W        W38860  37.970  44.488  11.518
67135W        W38861  41.141  29.138   3.330
67136W        W38862  26.447  12.160  14.391
67137W        W38863   2.595  11.212   1.331
67138W        W38864  28.334   7.768  11.702
67139W        W38865  18.503  35.165  10.244
67140W        W38866  14.266  43.971   1.819
67141W        W38867  14.401  12.730  10.048
67142W        W38868   7.625  30.021   4.762
67143W        W38869  25.056  39.047   0.468
67144W        W38870  20.754  19.035  11.383
67145W        W38871  44.905  16.819  10.712
67146W        W38872  38.381  32.819  11.523
67147W        W38873  25.119  41.488  14.775
67148W        W38874  15.765  28.263   1.186
67149W        W38875  37.980  24.447   2.348
67150W        W38876  12.812  29.360   4.271
67151W        W38877  16.674   9.974   0.723
67152W        W38878  19.198  22.992   4.669
67153W        W38879   1.775  35.942  13.971
67154W        W38880  33.641   1.536  13.818
67155W        W38881  32.465  37.389   0.086
67156W        W38882  40.918  11.592   4.751
67157W        W38883  39.812  17.821   2.373
67158W        W38884  44.484   9.641   0.793
67159W        W38885   7.674  36.748   2.831
67160W        W38886  39.179   2.229   1.613
67161W        W38887  30.914  30.064  13.906
67162W        W38888  43.799  42.221   2.596
67163W        W38889  24.865  39.976   2.333
67164W        W38890  33.848  18.706  13.464
67165W        W38891   5.888  44.919   4.619
67166W        W38892  28.701   3.219   4.761
67167W        W38893   1.074  34.893  12.313
67168W        W38894  29.112  26.494  11.608
67169W        W38895   2.844  39.645   0.850
67170W        W38896   6.824  17.283   1.452
67171W        W38897  33.078  33.383   0.712
67172W        W38898  21.636  31.088  14.251
67173W        W38899  32.555   5.816  13.344
67174W        W38900   5.617  32.943  11.582
67175W        W38901   7.677  14.787   3.038
67176W        W38902   0.326  13.606  13.738
67177W        W38903  38.109   7.731   3.730
67178W        W38904  39.651  10.571   1.393
67179W        W38905  20.712   2.056  11.700
67180W        W38906  21.628  21.726   4.644
67181W        W38907  25.288   0.346  13.452
67182W        W38908  12.399  40.794   1.839
67183W        W38909  10.380  34.195  14.949
67184W        W38910  28.260  39.061   2.895
67185W        W38911  32.935  34.413   2.407
67186W        W38912  15.530  20.008  14.515
67187W        W38913  26.401   2.756   3.574
67188W        W38914  15.750  24.115  13.047
67189W        W38915   8.463  24.965  11.129
67190W        W38916   9.853  30.053   3.123
67191W        W38917  23.847  38.302   2.754
67192W        W38918  32.426  33.445  12.028
67193W        W38919  27.624  14.628  12.098
67194W        W38920  10.629  27.999  13.503
67195W        W38921  25.618  29.195   4.826
67196W        W38922   6.968   4.741  13.938
67197W        W38923   5.429   7.632   1.410
67198W        W38924  21.337  28.387  12.824
67199W        W38925  38.495  32.362   3.798
67200W        W38926  42.037   3.808  13.481
67201W        W38927  28.616  33.989  13.789
67202W        W38928  12.154  24.097   0.001
67203W        W38929  33.086   3.221  13.019
67204W        W38930  26.871  36.956   3.798
67205W        W38931   6.161  29.096   3.174
67206W        W38932  41.506  28.943   1.207
67207W        W38933  40.202   5.427   3.096
67208W        W38934  43.749  12.765   1.861
67209W        W38935  13.842   7.511  12.625
67210W        W38936  36.378   9.175   3.368
67211W        W38937   7.692  24.462   5.466
67212W        W38938  41.545   2.831  13.820
67213W        W38939  15.479  29.110   4.571
67214W        W38940  44.307  40.038  10.504
67215W        W38941  27.090  26.069  13.515
67216W        W38942   3.115   2.281  13.904
67217W        W38943   9.409  31.308  13.027
67218W        W38944  11.308  22.531  12.475
67219W        W38945  41.843  34.916  10.627
67220W        W38946   8.707  34.202  14.470
67221W        W38947   5.949   0.795   4.555
67222W        W38948   5.509   9.820  10.786
67223W        W38949   8.709  17.799  14.345
67224W        W38950  32.872  38.911   2.618
67225W        W38951  13.194  41.191  14.936
67226W        W38952  38.252  11.498  10.544
67227W        W38953  13.076  19.798   0.287
67228W        W38954  20.684  27.709   5.516
67229W        W38955  34.699  26.523   1.653
67230W        W38956  43.383  39.741   4.092
67231W        W38957   9.138   3.368  14.990
67232W        W38958  29.060  42.302   2.723
67233W        W38959  24.736  28.045  11.998
67234W        W38960   4.855  26.306  10.225
67235W        W38961  25.163   2.653   0.270
67236W        W38962  19.089  20.653   3.908
67237W        W38963   3.846  21.128  13.058
67238W        W38964  29.600  27.920   4.169
67239W        W38965   9.240  23.095   2.812
67240W        W38966  22.630  42.424  11.733
67241W        W38967  33.322  17.600   2.843
67242W        W38968  10.842  21.155   2.347
67243W        W38969  22.999  16.607   1.310
67244W        W38970  37.020   1.750  13.797
67245W        W38971  32.055   7.744   4.079
67246W        W38972  26.530   3.252   3.628
67247W        W38973  15.164   2.537  11.167
67248W        W38974  38.157  14.122  14.141
67249W        W38975  36.782  34.618  11.842
67250W        W38976  37.295  29.495  11.157
67251W        W38977  35.388  12.216   4.632
67252W        W38978  18.254   8.325  12.947
67253W        W38979  20.599  18.789   4.140
67254W        W38980  13.961  16.192  14.559
67255W        W38981   9.250  21.770   0.712
67256W        W38982  22.118  31.470   1.833
67257W        W38983  31.115  32.018  13.303
67258W        W38984  24.364  44.959   3.741
67259W        W38985  27.885  30.540  11.638
67260W        W38986   0.355  28.942   2.194
67261W        W38987  27.986   7.373  12.609
67262W        W38988  20.283   1.986  13.457
67263W        W38989  14.600   0.142  11.065
67264W        W38990   2.260   3.794   2.415
67265W        W38991   0.977  12.537  13.007
67266W        W38992  30.464  14.735  13.118
67267W        W38993   9.199   4.966   3.497
67268W        W38994  15.273   9.820   0.552
67269W        W38995  29.041  38.281  12.062
67270W        W38996   4.165  28.620   2.898
67271W        W38997  44.325  23.088   1.219
67272W        W38998   8.146  21.748   2.947
67273W        W38999  30.203  21.162   1.559
67274W        W39000  40.496   1.706  12.572
67275W        W39001  12.893  39.514  11.042
67276W        W39002  16.051  44.714  11.978
67277W        W39003  30.421  35.848   2.773
67278W        W39004  43.093  20.485   3.412
67279W        W39005  26.161   6.180   1.527
67280W        W39006   9.911  26.146   5.359
67281W        W39007  27.045   0.734   3.832
67282W        W39008   3.198  24.748   2.845
67283W        W39009  32.975  25.738   3.166
67284W        W39010  32.412   1.684  12.556
67285W        W39011  28.974  29.727  13.623
67286W        W39012  36.546   6.194  13.689
67287W        W39013   5.278  22.158  11.618
67288W        W39014  36.384  41.703   1.973
67289W        W39015  22.149  33.932   0.462
67290W        W39016  41.035  44.519   2.579
67291W        W39017  16.062  41.223  12.529
67292W        W39018  14.626  31.814  13.152
67293W        W39019   2.424  10.794   3.364
67294W        W39020  19.169   6.426  11.529
67295W        W39021  16.199   4.330   4.690
67296W        W39022  31.610  21.669   2.469
67297W        W39023  42.287  22.661  10.484
67298W        W39024  29.289  26.442   0.323
67299W        W39025  19.316   1.348   1.848
67300W        W39026   2.259  13.291   4.458
67301W        W39027  26.283  28.156  12.023
67302W        W39028  35.283   8.373  14.844
67303W        W39029  30.142   7.388  10.867
67304W        W39030  17.332  17.102   5.098
67305W        W39031  39.960  19.008   0.832
67306W        W39032   9.708  14.478  13.591
67307W        W39033  28.921   6.976  14.368
67308W        W39034  13.895   6.861  11.279
67309W        W39035  26.015  24.455  14.297
67310W        W39036  41.410  24.592   0.344
67311W        W39037  44.959  34.846   4.836
67312W        W39038  36.153  21.207   3.196
67313W        W39039  29.219  34.502  11.183
67314W        W39040  21.803   7.708  13.141
67315W        W39041  38.478  33.537  11.005
67316W        W39042  16.633  36.061  10.562
67317W        W39043  41.502  40.815   1.340
67318W        W39044  40.293   5.120  12.080
67319W        W39045  23.101  30.012  11.998
67320W        W39046  35.086   4.761   2.827
67321W        W39047  32.056  44.324  12.396
67322W        W39048  25.201   1.903  12.469
67323W        W39049  23.547   9.004  13.830
67324W        W39050  23.025  42.261   3.420
67325W        W39051   8.625  14.197   0.353
67326W        W39052  19.701  41.819   3.604
67327W        W39053  37.658  44.197   4.040
67328W        W39054  13.672  10.416   4.158
67329W        W39055   7.976   3.491  14.402
67330W        W39056   2.733  18.522  12.463
67331W        W39057  17.317   5.504  13.531
67332W        W39058   6.399  39.474   4.837
67333W        W39059  24.091  32.388  13.827
67334W        W39060  32.673  13.167  14.296
67335W        W39061  41.348  42.350   0.425
67336W        W39062   3.380  19.861   0.260
67337W        W39063  43.491   6.250   2.779
67338W        W39064  21.212  25.498  13.692
67339W        W39065  12.402  24.224  13.551
67340W        W39066  41.017  35.056  12.555
67341W        W39067   9.119  28.943  10.737
67342W        W39068  12.629   6.675   4.588
67343W        W39069  41.703  11.530  10.594
67344W        W39070  39.505  24.468   3.953
67345W        W39071  44.520  17.264   2.447
67346W        W39072  22.022  43.877   3.601
67347W        W39073  13.515   0.986  11.009
67348W        W39074   0.312  35.530   3.055
67349W        W39075   9.745  19.064   2.612
67350W        W39076  36.184  34.507  11.820
67351W        W39077  14.302  19.744   1.500
67352W        W39078  26.980  29.399   1.481
67353W        W39079   1.767  27.750   2.343
67354W        W39080  38.972  41.341  11.504
67355W        W39081  23.061   5.036  12.843
67356W        W39082  42.225   4.503   2.870
67357W        W39083  26.547  15.124   2.448
67358W        W39084  42.982  39.883  12.034
67359W        W39085  26.263  32.017   1.804
67360W        W39086  11.268  35.146  14.472
67361W        W39087  27.175  44.270  12.137
67362W        W39088  28.498  32.052   1.423
67363W        W39089  33.693  30.306  14.361
67364W        W39090   5.327  20.561   1.716
67365W        W39091  35.871  17.401   3.108
67366W        W39092  36.322  29.995  11.916
67367W        W39093  17.628  23.320   4.129
67368W        W39094  33.437  35.865  13.993
67369W        W39095  41.621  16.614  10.716
67370W        W39096   1.017  44.502   5.083
67371W        W39097  28.853  37.803  11.207
67372W        W39098  37.913  39.467   1.662
67373W        W39099  43.378  35.522   2.228
67374W        W39100  39.997   4.261  11.204
67375W        W39101  32.411  11.663  13.425
67376W        W39102   0.298  14.985  14.460
67377W        W39103  39.325   9.295  12.961
67378W        W39104  14.147   6.429  12.996
67379W        W39105   1.649  15.624   2.358
67380W        W39106   0.942   7.732   0.319
67381W        W39107   4.124  23.197  13.055
67382W        W39108   2.084  29.953   4.074
67383W        W39109  22.723  29.931  10.561
67384W        W39110  24.452   2.965   0.641
67385W        W39111  39.857  29.471  12.024
67386W        W39112  23.479  37.849   1.056
67387W        W39113  37.781  15.841  11.127
67388W        W39114  38.751  37.072  14.467
67389W        W39115  29.991  19.313  12.442
67390W        W39116  12.935  12.226   3.268
67391W        W39117  39.806  15.541  13.566
67392W        W39118  27.894   7.231   3.613
67393W        W39119  25.012  29.080   1.302
67394W        W39120  33.448  17.395  10.670
67395W        W39121  19.000  18.066  13.968
67396W        W39122   1.728   7.341   0.381
67397W        W39123  37.125  20.976   3.409
67398W        W39124   2.509   3.321   2.398
67399W        W39125  26.575   1.253   1.320
67400W        W39126   7.761  34.813  13.441
67401W        W39127  30.187  20.112   2.124
67402W        W39128  12.318  27.527  10.676
67403W        W39129  35.137  25.391  13.464
67404W        W39130   3.741  44.961   2.875
67405W        W39131  35.099  16.560  14.337
67406W        W39132   9.354  35.957   1.036
67407W        W39133  35.570  16.767   3.641
67408W        W39134   7.956  41.869  10.810
67409W        W39135  39.864  36.498  14.112
67410W        W39136  44.344  41.346   3.953
67411W        W39137  24.123  40.374   1.188
67412W        W39138  26.562  27.434  14.442
67413W        W39139  17.807  40.300   1.380
67414W        W39140  36.169  44.914   3.276
67415W        W39141  20.186  13.569   4.574
67416W        W39142   2.870  43.243   1.726
67417W        W39143  25.840  42.262  12.395
67418W        W39144  44.293  35.114   0.391
67419W        W39145   5.336  23.689  13.441
67420W        W39146  30.393  16.061  14.099
67421W        W39147  38.957   5.098   5.110
67422W        W39148  34.898  34.155  14.912
67423W        W39149  39.446  33.137   0.771
67424W        W39150  27.559  16.957  11.547
67425W        W39151   9.791  19.072  10.712
67426W        W39152  27.492   4.318  11.910
67427W        W39153  17.682  42.687   2.246
67428W        W39154  22.009  12.309  11.088
67429W        W39155  33.508   5.407  10.386
67430W        W39156  34.521  32.857  13.873
67431W        W39157  16.166  18.100   4.573
67432W        W39158   8.224  26.035  14.794
67433W        W39159  41.979  16.685   3.282
67434W        W39160  22.234  10.513   2.570
67435W        W39161  10.308   9.179   0.413
67436W        W39162  39.369  29.239   0.184
67437W        W39163  19.194  33.544   3.855
67438W        W39164  13.540  37.521  12.596
67439W        W39165   5.235   2.441   3.171
67440W        W39166  38.528  28.475   0.429
67441W        W39167  24.784  39.001  12.354
67442W        W39168   0.282   4.385  10.691
67443W        W39169  23.979  27.718  12.555
67444W        W39170  10.665  33.379  10.059
67445W        W39171  32.209  15.850   5.086
67446W        W39172  32.073  24.978   0.379
67447W        W39173  34.178   5.200  14.497
67448W        W39174  30.557  18.285   2.035
67449W        W39175  13.870   5.242   2.235
67450W        W39176  19.827  35.130   4.089
67451W        W39177  38.343  26.178  11.572
67452W        W39178  27.729  21.294   3.709
67453W        W39179  32.611  17.530  14.040
67454W        W39180  30.573  39.753  14.412
67455W        W39181  25.944  11.384  12.923
67456W        W39182  23.772   3.924  13.232
67457W        W39183  23.475  32.335   2.216
67458W        W39184  35.891  21.399  14.422
67459W        W39185  31.542  39.032  14.857
67460W        W39186  25.043  12.828  14.021
67461W        W39187   5.183  20.206  12.549
67462W        W39188  31.874   8.973  10.430
67463W        W39189  20.838  35.543   1.769
67464W        W39190  35.714  13.354   1.893
67465W        W39191  38.036  35.200  11.417
67466W        W39192  31.850  42.397  10.407
67467W        W39193  37.926  22.336  12.210
67468W        W39194  33.932   3.843  12.118
67469W        W39195  12.404  44.872   0.415
67470W        W39196   0.190  32.146  12.930
67471W        W39197  39.939   2.451   3.620
67472W        W39198  11.554   5.856  14.102
67473W        W39199  43.988   3.532   0.682
67474W        W39200  26.908  17.047  13.813
67475W        W39201  19.986  38.474  11.568
67476W        W39202  23.229  43.433   3.306
67477W        W39203   7.235  12.275   2.956
67478W        W39204  24.997  15.599   2.321
67479W        W39205  36.830   0.924  13.692
67480W        W39206   9.179   5.231   2.263
67481W        W39207  14.130  36.545   1.433
67482W        W39208  29.617  37.683   2.194
67483W        W39209  18.182   9.854  14.928
67484W        W39210  16.923   5.193   2.327
67485W        W39211  43.774  32.375  11.161
67486W        W39212   4.971  26.172   2.555
67487W        W39213   8.698  39.469   3.952
67488W        W39214  11.702  17.767  10.328
67489W        W39215  44.756  11.240   0.948
67490W        W39216  42.800  14.401   5.106
67491W        W39217  37.367   2.949   0.370
67492W        W39218  28.699  17.142   2.733
67493W        W39219   8.589  31.709   4.886
67494W        W39220  17.545  26.068   2.641
67495W        W39221   8.118  34.447   3.659
67496W        W39222   9.022  16.840  13.430
67497W        W39223  13.559   1.927  14.896
67498W        W39224  22.568  15.220  11.199
67499W        W39225  35.989  42.336   4.491
67500W        W39226  26.866   4.752   2.462
67501W        W39227   8.132  31.054  13.221
67502W        W39228  37.379  13.560  10.702
67503W        W39229  36.559   3.254  10.662
67504W        W39230  18.109  21.246   2.120
67505W        W39231  36.308  27.652   0.523
67506W        W39232  29.002  19.285   1.759
67507W        W39233  28.600  40.854   2.825
67508W        W39234   8.938  41.716  12.655
67509W        W39235  20.360  41.317  13.668
67510W        W39236  36.890  13.755  10.664
67511W        W39237  22.201  34.898   0.933
67512W        W39238   1.030  32.694   1.496
67513W        W39239  36.646   7.365   2.010
67514W        W39240  35.517  12.713   4.412
67515W        W39241  29.179  42.923   4.273
67516W        W39242  11.020  44.857   2.738
67517W        W39243  26.440  44.700   4.413
67518W        W39244  40.287   4.308  13.974
67519W        W39245  32.454  44.406   0.319
67520W        W39246  34.800  42.847   2.748
67521W        W39247  13.813  31.861   0.439
67522W        W39248  22.590  17.634  13.615
67523W        W39249  32.261  14.760  13.371
67524W        W39250  36.687  12.163  12.812
67525W        W39251  11.347  44.409  14.445
67526W        W39252  11.916   7.679  10.692
67527W        W39253   5.494  38.539  12.118
67528W        W39254   9.273  13.714   0.971
67529W        W39255  44.882  25.681   0.437
67530W        W39256  22.353  37.134  13.975
67531W        W39257  14.509  33.892  13.346
67532W        W39258   3.462   7.929   2.206
67533W        W39259  29.616  11.288  13.515
67534W        W39260  42.844  20.752  10.864
67535W        W39261  30.597   0.567   3.339
67536W        W39262  13.210  11.368  13.530
67537W        W39263  14.684   6.402  11.602
67538W        W39264  30.898   1.965  13.420
67539W        W39265  15.035   0.100  10.793
67540W        W39266  43.412  38.610  13.312
67541W        W39267  31.842  15.782  13.877
67542W        W39268   6.025  14.436  13.739
67543W        W39269  38.490  16.813  12.561
67544W        W39270   2.345  29.046  13.108
67545W        W39271  33.851  27.553   2.905
67546W        W39272  38.994   4.468  10.388
67547W        W39273  32.843   3.291  10.727
67548W        W39274  42.277  34.398  14.496
67549W        W39275  16.164   6.986   0.734
67550W        W39276   2.966  35.083  12.136
67551W        W39277  33.426   6.266  12.370
67552W        W39278  37.977   8.849  10.690
67553W        W39279  21.248  42.574  11.163
67554W        W39280  41.777  36.490   3.447
67555W        W39281  12.196  42.723   2.737
67556W        W39282  40.420  11.061   1.726
67557W        W39283  43.221  33.114  10.025
67558W        W39284   8.071  29.013   2.195
67559W        W39285  28.110  21.186   2.795
67560W        W39286  40.342  28.582   0.937
67561W        W39287  11.941  33.882  14.481
67562W        W39288  42.537   3.678   4.262
67563W        W39289  44.577  42.012   0.769
67564W        W39290  35.722   0.914  12.967
67565W        W39291  13.674   1.563  13.010
67566W        W39292  13.180  10.676   4.754
67567W        W39293  36.294  38.795  13.651
67568W        W39294  41.522  24.613   1.459
67569W        W39295   2.361  32.517  13.499
67570W        W39296  31.871  32.237  13.958
67571W        W39297  33.863  27.769  13.943
67572W        W39298  31.682   5.230  11.104
67573W        W39299   8.424   4.757   0.896
67574W        W39300   6.435  17.087  11.601
67575W        W39301  14.957  14.203   4.468
67576W        W39302  12.417  13.155   0.035
67577W        W39303  25.269   0.357  12.549
67578W        W39304  26.152   9.780  11.107
67579W        W39305   2.687  13.204   0.876
67580W        W39306  40.444  26.706   2.912
67581W        W39307  27.448  11.970   4.013
67582W        W39308   4.467  29.464  12.464
67583W        W39309  29.532  40.110   2.693
67584W        W39310  39.539  41.000  11.001
67585W        W39311   8.147  34.223   5.350
67586W        W39312  14.756  40.247   1.303
67587W        W39313   3.294  13.973  14.392
67588W        W39314   9.327  44.813  13.384
67589W        W39315  14.664   3.730  12.034
67590W        W39316  36.202  18.162  11.195
67591W        W39317  31.428  41.774  12.482
67592W        W39318  30.096  12.229  13.584
67593W        W39319  15.291  20.565  14.361
67594W        W39320  30.827  23.329  14.199
67595W        W39321  38.887  27.135   2.426
67596W        W39322  40.338  36.353   3.145
67597W        W39323   8.595   5.633  10.482
67598W        W39324  19.786  34.856  12.408
67599W        W39325  16.550  27.678   3.756
67600W        W39326  13.138  33.538   2.044
67601W        W39327  34.958  44.371  10.221
67602W        W39328  35.547  17.450  14.972
67603W        W39329   1.862  29.871  11.911
67604W        W39330  38.729   3.925  12.102
67605W        W39331  10.435   1.103  10.513
67606W        W39332  20.596  40.476  10.330
67607W        W39333  39.430  22.034   3.204
67608W        W39334  16.850  44.320   0.896
67609W        W39335  16.603  30.371   2.834
67610W        W39336   6.182  43.194   0.938
67611W        W39337  42.533  44.280  14.916
67612W        W39338   3.863  36.675   1.046
67613W        W39339  13.830  23.278   4.885
67614W        W39340  38.335   6.200   0.872
67615W        W39341   6.276  15.830   5.252
67616W        W39342  43.432  14.701   2.906
67617W        W39343  24.765   1.734  11.117
67618W        W39344  33.416  28.459  10.618
67619W        W39345  42.807  24.092   3.602
67620W        W39346   0.068  32.122  11.989
67621W        W39347  36.964  37.482  10.778
67622W        W39348  16.784   3.799  11.559
67623W        W39349  36.066  37.316   2.325
67624W        W39350  24.254  16.046  14.196
67625W        W39351  29.671  22.523  12.471
67626W        W39352  30.085  36.980  11.484
67627W        W39353  43.998  13.481  11.985
67628W        W39354  20.239  16.729  14.965
67629W        W39355  33.451  44.731   3.268
67630W        W39356  35.443   4.931  11.614
67631W        W39357   3.256  42.238  13.414
67632W        W39358   0.353  29.447  14.105
67633W        W39359  37.545   2.256   3.847
67634W        W39360  34.557   2.584   0.288
67635W        W39361   1.650  16.919   4.923
67636W        W39362  32.021  37.197   4.177
67637W        W39363  37.949  29.649  12.518
67638W        W39364  34.385   0.353  12.600
67639W        W39365   1.925  18.745   3.262
67640W        W39366  25.952  27.896   0.869
67641W        W39367  22.199   6.876   1.247
67642W        W39368  26.519  32.875   3.749
67643W        W39369  34.911  28.963  13.832
67644W        W39370  25.097  16.461   3.753
67645W        W39371   8.893   1.366  11.922
67646W        W39372   9.604  29.210   1.123
67647W        W39373  33.639   3.955   1.973
67648W        W39374  44.479   0.067   0.819
67649W        W39375   7.009  42.574  12.250
67650W        W39376  38.013  40.199  14.551
67651W        W39377  37.576  16.653  12.146
67652W        W39378  44.291  20.737   1.194
67653W        W39379  16.204  20.253  14.012
67654W        W39380  34.775  33.540  12.502
67655W        W39381  25.441   9.228   1.890
67656W        W39382  14.722  32.078  14.440
67657W        W39383  41.080  24.503  14.038
67658W        W39384  12.078   9.881   1.013
67659W        W39385   4.429  27.541   0.790
67660W        W39386   6.761  44.265  11.130
67661W        W39387  39.949  38.124  12.657
67662W        W39388   3.454  41.451   3.743
67663W        W39389  41.109  20.607   0.006
67664W        W39390  16.219  24.059   0.865
67665W        W39391   4.793  24.386  13.308
67666W        W39392  34.599  40.917   0.521
67667W        W39393  39.013   6.863   1.778
67668W        W39394  28.542  34.093  14.307
67669W        W39395  32.920  20.102   3.330
67670W        W39396  28.257  44.950  12.912
67671W        W39397  16.693  42.249  13.297
67672W        W39398   6.627  30.006   1.702
67673W        W39399  28.193  25.572   3.841
67674W        W39400  30.087  28.652   1.959
67675W        W39401  14.171  31.178   2.314
67676W        W39402  31.114  15.208   0.458
67677W        W39403  41.538  37.382  11.839
67678W        W39404  20.761  28.806  14.573
67679W        W39405  22.436   6.566  13.622
67680W        W39406  22.579  42.208  13.476
67681W        W39407   8.421   9.223   3.865
67682W        W39408  20.312  25.089  14.479
67683W        W39409   4.453  36.707   4.599
67684W        W39410  39.951  14.103  13.820
67685W        W39411  19.816  14.874   1.208
67686W        W39412  34.113  25.100   1.918
67687W        W39413   3.147  27.021  12.478
67688W        W39414  38.136  21.084  13.791
67689W        W39415  20.013  41.956  14.382
67690W        W39416  35.724  34.836   2.469
67691W        W39417   4.705  24.629  12.498
67692W        W39418  29.977  24.263  11.562
67693W        W39419  31.190  31.404  14.094
67694W        W39420  21.193  13.744  14.785
67695W        W39421  31.237  44.692   0.342
67696W        W39422  41.013  15.695  12.140
67697W        W39423  25.517  19.492   1.308
67698W        W39424  27.002   9.277   2.765
67699W        W39425  43.312  22.733   2.639
67700W        W39426  42.538  20.812   0.849
67701W        W39427   7.497  16.096  12.128
67702W        W39428  41.290   3.715  10.502
67703W        W39429   4.172  25.047   4.917
67704W        W39430   5.281  35.141   4.497
67705W        W39431  18.877  16.008  10.233
67706W        W39432  17.612  30.901   2.467
67707W        W39433  19.743  18.734  12.768
67708W        W39434   8.388  34.144   2.789
67709W        W39435  41.435  13.906  10.678
67710W        W39436   7.682  33.570  12.525
67711W        W39437  27.174  27.594  11.237
67712W        W39438  41.969  12.619  13.917
67713W        W39439  25.134  34.132  13.627
67714W        W39440  41.926  29.410  11.818
67715W        W39441  12.129  10.722  11.496
67716W        W39442  35.316   7.668   1.896
67717W        W39443  23.608  16.099  13.397
67718W        W39444  25.675  43.448   0.407
67719W        W39445  22.101  25.363   2.212
67720W        W39446   1.249  21.074   3.329
67721W        W39447  34.030  42.630   3.769
67722W        W39448  16.172  15.919   4.102
67723W        W39449  25.693  43.288   0.910
67724W        W39450  30.648  15.104  13.979
67725W        W39451   0.943  12.074   4.212
67726W        W39452  15.387  43.446   3.583
67727W        W39453  22.586  21.337   4.718
67728W        W39454  24.720   6.891  13.833
67729W        W39455  14.282  38.135  10.644
67730W        W39456  41.358  21.674   4.637
67731W        W39457  37.157  41.586   2.286
67732W        W39458   4.789  40.690  10.642
67733W        W39459  36.354  28.969  12.037
67734W        W39460  14.967  31.652  14.592
67735W        W39461   7.749  16.619   0.974
67736W        W39462  19.694  28.796  14.821
67737W        W39463  21.179  30.114   4.572
67738W        W39464  33.554  10.581  14.902
67739W        W39465  34.810  26.622  10.649
67740W        W39466  40.091  20.281   3.211
67741W        W39467  35.843  44.991   2.271
67742W        W39468   2.833  35.358   1.444
67743W        W39469  24.167  22.843   0.777
67744W        W39470  21.019  38.518   1.956
67745W        W39471  13.401  31.590  14.359
67746W        W39472   8.389   9.992  13.426
67747W        W39473  10.346  11.517  11.159
67748W        W39474  11.907  38.863   4.185
67749W        W39475  18.507  21.992   4.748
67750W        W39476  39.773  14.328   2.774
67751W        W39477  21.629   0.389  11.807
67752W        W39478  22.939  36.512  10.938
67753W        W39479  32.013  30.212   2.902
67754W        W39480  17.647  30.646   4.182
67755W        W39481  30.645  39.799  14.948
67756W        W39482  37.394   4.879   2.292
67757W        W39483  34.235  41.812   3.538
67758W        W39484  36.238  25.668  12.012
67759W        W39485  36.396  42.251   1.983
67760W        W39486  14.930  24.099   1.226
67761W        W39487  32.714  14.329   3.216
67762W        W39488  21.619   7.532   1.206
67763W        W39489  27.452  25.764   4.632
67764W        W39490  35.859  25.636  12.353
67765W        W39491  15.281   2.147  10.404
67766W        W39492  12.839  43.665   3.877
67767W        W39493  36.065  27.952   3.327
67768W        W39494  21.139   3.671   5.094
67769W        W39495   4.310  27.716   1.265
67770W        W39496  34.000  26.767  11.839
67771W        W39497  29.998  27.127  11.640
67772W        W39498  14.326  10.715   2.683
67773W        W39499  10.428  18.624   2.265
67774W        W39500   0.658   7.326  11.590
67775W        W39501  36.892  24.325   0.156
67776W        W39502  38.293  39.757  13.734
67777W        W39503  15.655  19.327  11.054
67778W        W39504   4.152  16.115   4.462
67779W        W39505  27.267  28.502  11.695
67780W        W39506  32.619  40.086   0.817
67781W        W39507  19.118  34.985  10.744
67782W        W39508  25.434  37.590  14.415
67783W        W39509  43.248  21.258   0.385
67784W        W39510   7.687   7.191   3.230
67785W        W39511   9.133  17.000  14.794
67786W        W39512   5.962  13.920  13.754
67787W        W39513  21.614  42.024   3.375
67788W        W39514  20.468  43.828  13.375
67789W        W39515  41.018  10.407   2.330
67790W        W39516  26.087  42.392  13.901
67791W        W39517  14.889  10.998   4.158
67792W        W39518  21.519   8.357   1.907
67793W        W39519  38.024  16.696   3.039
67794W        W39520   3.080  36.441   0.736
67795W        W39521  25.275  14.073  10.034
67796W        W39522  32.448  28.908   3.873
67797W        W39523  14.088  26.527  13.114
67798W        W39524  25.758  10.319   0.290
67799W        W39525  43.500  43.420   3.315
67800W        W39526  21.250  24.561   1.301
67801W        W39527  33.934  18.631   0.903
67802W        W39528  34.719  22.122  14.840
67803W        W39529  15.923  20.776   0.358
67804W        W39530   5.210  18.816   2.881
67805W        W39531  32.085  32.064   2.889
67806W        W39532   6.630  22.473   4.083
67807W        W39533  37.570   6.795   2.677
67808W        W39534  44.205  17.592   1.222
67809W        W39535  34.398  14.722  13.871
67810W        W39536  37.942  24.591   4.306
67811W        W39537  10.168  23.763  10.775
67812W        W39538  37.952  37.472   0.031
67813W        W39539   0.789  16.395  11.630
67814W        W39540   0.087  33.627   0.073
67815W        W39541  24.497   6.312   0.938
67816W        W39542  18.129  21.347  12.440
67817W        W39543   6.296  40.361   2.161
67818W        W39544  30.840  43.488  10.750
67819W        W39545  21.067   6.622  11.997
67820W        W39546  44.816  37.860  14.363
67821W        W39547  19.122  37.313  14.350
67822W        W39548  16.361  34.234   0.988
67823W        W39549  38.714  16.668  10.982
67824W        W39550  19.049  27.032  10.629
67825W        W39551  21.959   4.821   4.111
67826W        W39552  21.770   8.346   3.756
67827W        W39553  21.007  27.675  11.190
67828W        W39554  36.841   6.574  13.964
67829W        W39555   0.998  26.933  14.852
67830W        W39556  41.976  15.067   4.109
67831W        W39557  37.520  43.285  12.655
67832W        W39558  10.821  32.614  11.695
67833W        W39559   5.762  10.754  14.811
67834W        W39560  10.823   6.851  12.090
67835W        W39561  25.629  32.182   4.619
67836W        W39562  41.508  23.302  14.360
67837W        W39563   7.832  24.875   1.419
67838W        W39564  13.156  11.425   1.692
67839W        W39565  42.317  38.791  13.900
67840W        W39566  22.965   8.912  10.647
67841W        W39567  24.215  32.900   4.126
67842W        W39568   9.371  42.193  11.188
67843W        W39569   1.028  18.050  11.633
67844W        W39570   3.935  21.169  13.625
67845W        W39571  37.883  22.013   2.773
67846W        W39572  17.766   5.345   1.759
67847W        W39573  44.575  29.434   1.794
67848W        W39574  39.653  41.032   2.856
67849W        W39575   6.339   1.241  14.005
67850W        W39576  26.770  15.764  12.132
67851W        W39577   1.948  44.539  10.511
67852W        W39578  13.994  12.780   2.635
67853W        W39579  24.062  13.179  10.227
67854W        W39580   1.331   0.241  10.614
67855W        W39581  12.525  39.332   0.771
67856W        W39582  35.324  22.424   4.120
67857W        W39583   5.701  23.220  14.387
67858W        W39584  21.498  19.684  12.430
67859W        W39585  43.247   5.150  10.499
67860W        W39586  13.691  18.167   0.741
67861W        W39587  28.114  43.792   3.831
67862W        W39588   4.240  16.823   2.347
67863W        W39589  19.147  20.758   4.923
67864W        W39590   3.884  43.294   4.296
67865W        W39591  25.161  40.964  14.763
67866W        W39592  19.474  35.430  13.293
67867W        W39593  42.414  44.507   2.913
67868W        W39594  33.258  40.508   0.444
67869W        W39595  25.370  39.953   0.080
67870W        W39596  32.160  11.660   1.731
67871W        W39597  28.202   3.732   3.343
67872W        W39598  38.781   8.753  11.152
67873W        W39599  34.910   1.722   4.247
67874W        W39600  33.819  27.897   0.769
67875W        W39601  13.818  12.666  12.472
67876W        W39602  31.054   1.606  10.764
67877W        W39603  42.616   4.341   0.387
67878W        W39604  32.563  11.830  11.233
67879W        W39605  33.392  30.176   2.723
67880W        W39606   1.434   7.249   4.868
67881W        W39607  42.553   8.815   3.267
67882W        W39608  30.626  42.304  13.538
67883W        W39609  37.343   3.728   0.800
67884W        W39610  42.915  39.490  12.364
67885W        W39611  29.178  16.818   0.848
67886W        W39612  28.948  10.082   1.248
67887W        W39613  16.653   7.396   2.275
67888W        W39614  30.552  43.318   4.483
67889W        W39615  17.184  38.088   1.478
67890W        W39616  26.262   6.500  14.926
67891W        W39617  23.010  15.602   1.407
67892W        W39618  37.987  19.723   0.744
67893W        W39619  29.821  32.868   3.166
67894W        W39620  42.548  30.289  10.646
67895W        W39621   5.335   7.501   4.303
67896W        W39622  39.998  12.110   4.063
67897W        W39623  16.074   8.119  13.624
67898W        W39624   8.198   4.502   4.293
67899W        W39625  28.969   5.225  11.323
67900W        W39626  21.763   7.348  10.874
67901W        W39627   2.400  38.475  11.034
67902W        W39628  16.405  22.070  13.302
67903W        W39629  34.179  35.359  14.718
67904W        W39630   2.290  43.309  13.560
67905W        W39631  16.272  21.994   0.287
67906W        W39632  26.488  21.899   4.668
67907W        W39633  23.623  35.684   0.329
67908W        W39634  42.173  32.875   1.329
67909W        W39635   1.180  35.957   1.867
67910W        W39636  41.052  25.134  13.445
67911W        W39637  11.219   0.040   4.555
67912W        W39638  28.712  29.221  14.532
67913W        W39639  13.244  24.434   3.865
67914W        W39640  27.772  19.824  14.011
67915W        W39641  14.245  12.661   1.628
67916W        W39642  18.696   8.802   2.185
67917W        W39643  25.411  16.874  13.119
67918W        W39644  32.576  13.462   1.758
67919W        W39645   9.304   3.510   1.441
67920W        W39646   4.412   9.297  14.005
67921W        W39647  40.342   9.825   3.158
67922W        W39648   2.902  19.661  14.356
67923W        W39649  36.054   2.963   1.890
67924W        W39650   3.288   5.860  11.572
67925W        W39651  25.143   0.956   2.654
67926W        W39652  16.240  25.839  11.189
67927W        W39653  10.670  32.555   4.730
67928W        W39654  23.962  14.171  10.354
67929W        W39655  30.426  19.655   2.203
67930W        W39656  13.165  27.335  11.232
67931W        W39657  18.213  22.100   1.020
67932W        W39658  20.202   4.098   3.295
67933W        W39659  17.938  17.754  12.630
67934W        W39660   9.348  19.740  11.964
67935W        W39661  29.244  22.604   2.703
67936W        W39662  21.684  19.191   1.879
67937W        W39663   2.520   0.640  12.395
67938W        W39664  27.376  41.591   2.692
67939W        W39665   7.227  19.212  11.254
67940W        W39666   4.878  22.156   1.838
67941W        W39667  14.260  31.145  14.348
67942W        W39668  19.867  33.025   4.197
67943W        W39669  16.827  31.360  14.321
67944W        W39670  41.898  17.291   4.568
67945W        W39671  42.020   1.194  14.335
67946W        W39672  28.656  44.447   0.217
67947W        W39673   7.789  37.221   2.647
67948W        W39674  39.545  16.838   2.283
67949W        W39675  28.971  16.010  10.563
67950W        W39676  13.700  36.063   4.630
67951W        W39677  13.837   1.748  12.011
67952W        W39678  10.536   1.829  11.180
67953W        W39679  35.375   5.906  12.901
67954W        W39680  44.681  35.785  11.993
67955W        W39681  11.797  32.109  14.027
67956W        W39682  41.269  24.516  10.776
67957W        W39683  21.709  40.380   2.696
67958W        W39684  29.671   7.399   1.334
67959W        W39685  18.494  35.952   2.956
67960W        W39686  32.515  32.058  14.680
67961W        W39687  29.735  31.440  14.028
67962W        W39688  13.069   0.900  12.417
67963W        W39689  30.692  28.610  12.960
67964W        W39690   1.444  12.820   4.698
67965W        W39691  29.393  26.681  14.479
67966W        W39692  23.476  17.363  10.525
67967W        W39693  11.180  31.982  12.114
67968W        W39694  11.270  25.593   4.301
67969W        W39695  10.813   7.918  13.499
67970W        W39696   4.349   0.975   3.267
67971W        W39697   3.366  17.557   3.251
67972W        W39698  14.003  36.869  11.576
67973W        W39699   1.358  37.127   1.469
67974W        W39700  16.836   8.619   1.757
67975W        W39701  19.550  13.606   0.803
67976W        W39702  28.214  35.137   4.623
67977W        W39703  19.457   4.176  12.620
67978W        W39704   2.351   5.398  14.912
67979W        W39705   5.922   3.872  13.049
67980W        W39706  14.781  35.926   3.308
67981W        W39707  18.547  38.472  13.559
67982W        W39708  42.827  19.317  12.952
67983W        W39709  27.445  18.163  13.891
67984W        W39710   8.362  32.434  12.981
67985W        W39711   5.111  10.251   0.985
67986W        W39712  23.112   4.484   4.596
67987W        W39713  28.647  23.809  11.898
67988W        W39714  44.035   8.124   1.811
67989W        W39715   3.009  21.739   0.130
67990W        W39716  27.426  21.576  12.980
67991W        W39717   7.165  17.170  10.847
67992W        W39718  34.610  25.075  14.112
67993W        W39719   2.294   4.485  11.200
67994W        W39720  28.899  35.286   3.230
67995W        W39721  34.672  40.810   1.399
67996W        W39722  26.127  41.323  12.922
67997W        W39723  37.286   0.886  13.978
67998W        W39724  37.199  41.896   1.851
67999W        W39725  23.143  40.526  10.452
68000W        W39726  11.757  25.525  14.334
68001W        W39727  33.464   0.483  12.917
68002W        W39728  17.637  32.937  12.971
68003W        W39729  44.952  19.712  13.538
68004W        W39730  32.349   6.755  12.799
68005W        W39731  29.048  43.454  11.945
68006W        W39732  15.704  17.844  12.994
68007W        W39733  29.877  11.768  13.543
68008W        W39734  21.842  35.411  14.768
68009W        W39735   6.851  34.866   3.125
68010W        W39736   2.136   8.655   3.056
68011W        W39737   8.209  43.204   3.736
68012W        W39738  15.262   6.127   3.989
68013W        W39739  31.346  32.645   0.343
68014W        W39740  32.343  14.639   2.338
68015W        W39741  15.756  19.221   4.264
68016W        W39742  28.729  26.439   0.285
68017W        W39743  22.064  43.248  12.952
68018W        W39744  27.267   5.355  10.704
68019W        W39745  32.327  44.685  13.039
68020W        W39746   6.223   9.384  13.409
68021W        W39747  22.178  14.249  14.961
68022W        W39748  41.456  10.191  13.910
68023W        W39749  19.730  15.823  10.679
68024W        W39750  31.903   5.743   4.556
68025W        W39751  17.948  32.247  13.321
68026W        W39752  39.554  33.971  12.891
68027W        W39753  39.319  44.083  12.369
68028W        W39754  34.907   8.851   3.063
68029W        W39755  31.183  33.450  12.842
68030W        W39756  31.559  25.721   5.711
68031W        W39757  26.483   5.799   3.740
68032W        W39758  14.575   6.353   4.295
68033W        W39759  22.817  36.676   1.236
68034W        W39760  44.759  25.275   1.411
68035W        W39761  40.499   0.949   0.860
68036W        W39762  29.850  36.775   2.056
68037W        W39763   9.124   8.503  12.087
68038W        W39764  12.563  13.407  14.354
68039W        W39765  19.349   5.149   3.491
68040W        W39766   8.012  27.988  13.395
68041W        W39767  11.633  15.376  10.688
68042W        W39768   9.354  35.849  12.058
68043W        W39769  31.389   5.880   3.268
68044W        W39770  43.882   8.611  10.758
68045W        W39771  31.116  10.101  14.124
68046W        W39772  34.044  27.060   3.167
68047W        W39773   3.309  15.616   3.514
68048W        W39774  15.139   7.957   0.426
68049W        W39775  33.654  11.230   3.140
68050W        W39776  18.375  13.347  11.644
68051W        W39777   1.534  19.727   2.429
68052W        W39778  14.040  42.831   4.239
68053W        W39779  34.356   5.944   1.225
68054W        W39780  15.577   5.254  12.260
68055W        W39781   5.466  28.735   2.625
68056W        W39782  11.238   3.016   3.747
68057W        W39783  37.838  19.216   3.328
68058W        W39784  26.712  19.574  14.720
68059W        W39785  18.048  17.799   2.653
68060W        W39786  26.520  16.292   2.642
68061W        W39787  11.810  21.266   2.355
68062W        W39788   4.706  40.158  10.701
68063W        W39789  29.030  27.563   3.674
68064W        W39790  44.666  13.211   3.672
68065W        W39791  24.716  31.394   3.257
68066W        W39792  22.981  25.357   5.491
68067W        W39793  26.017   7.387   2.281
68068W        W39794  31.532  39.276  14.387
68069W        W39795  36.915   6.978   1.386
68070W        W39796   7.052   1.839  10.686
68071W        W39797   8.166  13.674   4.220
68072W        W39798  34.839  24.992  11.112
68073W        W39799  37.775  32.060   4.249
68074W        W39800  24.401  23.728   0.254
68075W        W39801   9.286  12.377   1.321
68076W        W39802  23.119  21.953  14.309
68077W        W39803  27.139   4.743  11.388
68078W        W39804  26.470  40.522   4.211
68079W        W39805  17.681  43.886  13.183
68080W        W39806  21.781  25.607  11.466
68081W        W39807   7.466  23.899  14.827
68082W        W39808  14.650   8.623  11.688
68083W        W39809  19.743  44.488   0.539
68084W        W39810  12.951  16.392   4.864
68085W        W39811  40.867  18.807  14.517
68086W        W39812   7.437  34.875  12.997
68087W        W39813   1.725  32.917  10.570
68088W        W39814  30.648   5.300   3.700
68089W        W39815   9.759  17.675  11.080
68090W        W39816  15.554  11.066  13.665
68091W        W39817  19.306  29.719  14.876
68092W        W39818  24.909  18.253   2.826
68093W        W39819  33.364  31.663   0.411
68094W        W39820  16.231  12.321  13.275
68095W        W39821  44.743  31.538  13.914
68096W        W39822  20.491  30.023   4.390
68097W        W39823   2.191  29.716  14.341
68098W        W39824  17.615   6.603   2.573
68099W        W39825  19.068  21.001  11.519
68100W        W39826  23.771  35.503   2.840
68101W        W39827  23.714  14.900   0.478
68102W        W39828  19.634   8.730   3.673
68103W        W39829  15.148  18.979  11.216
68104W        W39830  43.008   3.337  10.654
68105W        W39831   1.952   3.870   3.654
68106W        W39832   3.244  37.285  11.401
68107W        W39833  18.993  40.515   3.229
68108W        W39834  13.123  26.274  13.408
68109W        W39835  28.201  16.327  14.348
68110W        W39836  34.508  31.757  11.635
68111W        W39837  40.229   4.899   4.794
68112W        W39838  35.385  39.227  11.047
68113W        W39839  13.843  10.871   1.288
68114W        W39840   0.183   1.571   0.499
68115W        W39841  25.518  31.881  13.853
68116W        W39842   8.195  40.075  12.022
68117W        W39843   7.838  20.946   3.226
68118W        W39844  14.045  15.182   4.895
68119W        W39845  16.271  17.113   0.706
68120W        W39846  34.535  24.680  13.246
68121W        W39847  17.583  30.589   0.506
68122W        W39848  10.225  38.530  10.714
68123W        W39849   6.922  39.195   0.290
68124W        W39850  37.548  14.605   1.463
68125W        W39851  40.418  41.926  12.406
68126W        W39852   0.220  31.686  11.077
68127W        W39853  44.346   2.165  11.056
68128W        W39854  23.649  43.425   3.623
68129W        W39855   6.682  24.874  10.956
68130W        W39856  14.321  21.077   4.285
68131W        W39857   2.906  18.409   4.439
68132W        W39858  38.229  25.028   2.323
68133W        W39859  27.838  20.311  12.859
68134W        W39860  29.258  18.704  14.967
68135W        W39861   0.374  35.602   2.546
68136W        W39862  28.423   1.522  13.708
68137W        W39863  26.066  29.559  14.913
68138W        W39864  42.522   7.685  12.381
68139W        W39865  16.131  13.127  11.163
68140W        W39866  35.407  14.463  10.625
68141W        W39867  30.404  37.533   0.151
68142W        W39868  13.269   2.327  13.563
68143W        W39869  41.462  21.523   1.384
68144W        W39870  43.081  29.541   0.806
68145W        W39871   9.364  35.098  11.618
68146W        W39872  39.418  23.297  10.410
68147W        W39873   4.158  25.576  13.650
68148W        W39874  20.279  29.152  12.313
68149W        W39875  24.227  10.772  12.961
68150W        W39876  22.093   1.394  12.587
68151W        W39877  40.423  10.747   3.269
68152W        W39878  19.647  24.114   4.765
68153W        W39879  43.897   5.710   2.567
68154W        W39880   2.786  12.133  14.467
68155W        W39881  16.767  21.288   2.833
68156W        W39882  20.444  32.574   0.741
68157W        W39883  19.679  10.294  10.938
68158W        W39884  44.021  41.744  13.991
68159W        W39885   8.164   1.234   3.558
68160W        W39886  42.019  18.666   1.242
68161W        W39887  14.843  44.219  10.647
68162W        W39888  18.969  29.040  11.977
68163W        W39889  18.654  22.747  14.130
68164W        W39890   5.979  12.611   3.696
68165W        W39891  37.951  41.382  10.212
68166W        W39892  11.175  21.436   3.260
68167W        W39893  31.108   9.778   4.304
68168W        W39894  25.027  29.150  12.441
68169W        W39895  34.021  34.040  11.479
68170W        W39896  16.329  38.400  14.777
68171W        W39897  14.110  21.430  11.052
68172W        W39898   3.643  36.426   1.995
68173W        W39899   3.081   3.192  14.618
68174W        W39900  22.865  28.789   5.634
68175W        W39901  16.568  34.096   2.872
68176W        W39902  37.152  22.598   1.388
68177W        W39903  12.397   0.723  14.446
68178W        W39904  36.630  35.730   4.527
68179W        W39905   4.867  16.711  10.589
68180W        W39906  33.856  27.227  14.828
68181W        W39907  31.532  39.718  12.586
68182W        W39908  43.781  40.039  11.660
68183W        W39909  13.350  43.856   3.716
68184W        W39910  15.283   8.330  14.481
68185W        W39911  20.850   1.927   0.245
68186W        W39912  28.174  18.631   2.599
68187W        W39913   1.924  40.812  12.437
68188W        W39914  12.824  14.169  11.713
68189W        W39915  16.839  15.663   4.593
68190W        W39916   1.379   5.386  12.535
68191W        W39917  25.641  18.773  11.739
68192W        W39918  32.600  34.359   3.645
68193W        W39919  31.169   1.076   2.090
68194W        W39920  20.580  34.422  12.474
68195W        W39921   2.942   6.990  11.950
68196W        W39922  36.470   3.813  12.115
68197W        W39923  29.898  30.252   2.212
68198W        W39924  34.122   2.063   1.054
68199W        W39925  10.695   4.750   3.474
68200W        W39926  44.868  31.170  12.943
68201W        W39927  17.285  42.401   4.738
68202W        W39928  10.114  31.888   2.854
68203W        W39929  20.137   0.333  14.612
68204W        W39930   2.208  12.645   1.339
68205W        W39931  33.400  34.630  13.603
68206W        W39932  27.537   6.219  14.494
68207W        W39933  18.752  34.338  13.052
68208W        W39934  24.581  32.995   0.972
68209W        W39935  32.164  22.673   0.339
68210W        W39936  19.355  27.304   0.452
68211W        W39937   0.418  12.702   0.288
68212W        W39938  25.969  29.063  14.969
68213W        W39939  15.606  33.585   0.891
68214W        W39940  10.256  17.743  12.112
68215W        W39941  31.546  22.667   4.908
68216W        W39942   0.325  12.513  13.434
68217W        W39943  40.472  18.068  10.389
68218W        W39944  18.959  24.514   1.847
68219W        W39945   7.696  19.410   4.082
68220W        W39946  24.610   9.790  13.073
68221W        W39947  33.833  29.821  14.514
68222W        W39948  16.292  28.715  12.486
68223W        W39949  40.361  23.217   3.736
68224W        W39950  29.021  23.996  13.048
68225W        W39951  22.469  27.927   3.074
68226W        W39952  14.632  20.854  10.508
68227W        W39953  16.583  40.261  13.027
68228W        W39954  18.083  15.219   2.801
68229W        W39955   1.454  41.994  11.140
68230W        W39956  39.347  30.913  14.299
68231W        W39957  41.920  30.351  11.480
68232W        W39958   9.152   1.920  14.946
68233W        W39959   2.252  22.125  10.711
68234W        W39960  21.523   8.157   4.177
68235W        W39961  39.553   5.924  13.892
68236W        W39962  11.897  15.296  13.779
68237W        W39963  38.956  26.463   1.222
68238W        W39964  37.332  12.257  14.423
68239W        W39965   5.837  16.300   0.475
68240W        W39966  15.090  35.845  14.298
68241W        W39967  35.419   2.383   4.049
68242W        W39968  19.125  41.054  13.968
68243W        W39969  38.760  31.948   4.096
68244W        W39970   5.186  22.570  14.255
68245W        W39971  15.846  22.599   0.266
68246W        W39972   0.468  14.740   3.199
68247W        W39973  11.957  23.348   2.853
68248W        W39974   4.789   9.115   4.587
68249W        W39975  17.317  12.825   3.178
68250W        W39976  10.784  35.852   1.286
68251W        W39977   4.908  42.256  10.702
68252W        W39978  37.234   2.729  13.921
68253W        W39979   1.891  32.006  13.165
68254W        W39980  11.413  13.720  14.753
68255W        W39981  16.266  33.936  12.747
68256W        W39982  12.428   5.926  13.537
68257W        W39983  15.269  18.251  10.655
68258W        W39984   3.711  13.224  11.430
68259W        W39985  35.979   1.451  13.782
68260W        W39986   5.434  22.188  14.900
68261W        W39987  30.649  38.349   3.300
68262W        W39988   4.510  31.896   3.677
68263W        W39989  25.444  43.005   4.282
68264W        W39990   3.328  39.801  12.917
68265W        W39991   2.747   1.765  13.157
68266W        W39992   8.372  26.252  13.813
68267W        W39993  35.506  10.843   4.732
68268W        W39994  10.344  30.112  13.018
68269W        W39995  43.376  26.900  14.148
68270W        W39996   4.715   3.676  14.266
68271W        W39997   1.830  35.806  12.491
68272W        W39998  35.940  28.680  12.147
68273W        W39999  15.554  10.255  11.643
68274W        W40000  23.869  40.181  10.791
68275W        W40001  22.090  33.668   3.619
68276W        W40002  11.164  38.986   2.282
68277W        W40003  38.519  43.372  14.868
68278W        W40004  23.803  35.083   0.803
68279W        W40005  15.726  41.878   0.683
68280W        W40006   6.644  26.499  13.973
68281W        W40007  10.449  38.426   3.083
68282W        W40008  23.167  36.611   2.253
68283W        W40009   9.290  17.545   1.959
68284W        W40010  13.137  23.774   1.615
68285W        W40011  22.679   4.966   5.174
68286W        W40012  21.919  20.093  12.991
68287W        W40013  19.760  12.961   3.873
68288W        W40014  11.232  28.387  13.142
68289W        W40015  30.075  21.036  12.412
68290W        W40016  19.160  42.650   3.795
68291W        W40017  22.508  30.088   1.006
68292W        W40018   7.711  24.994  13.448
68293W        W40019   5.396   8.808  13.438
68294W        W40020   9.286  34.639   1.315
68295W        W40021  32.476  12.220  10.909
68296W        W40022  15.182  38.611  12.891
68297W        W40023  29.463  40.725  11.049
68298W        W40024   3.880  40.362   2.635
68299W        W40025   6.654   2.983  13.355
68300W        W40026   9.177  11.684   2.921
68301W        W40027  41.503  26.512  14.012
68302W        W40028   7.157  39.739   2.387
68303W        W40029  29.870  18.170  10.340
68304W        W40030  31.152  27.079   0.697
68305W        W40031  25.660  12.440   4.188
68306W        W40032  42.968  18.691   2.425
68307W        W40033   6.551  27.756   3.362
68308W        W40034  30.014  31.621   3.686
68309W        W40035  30.827   2.724  12.882
68310W        W40036  30.418  10.229   2.701
68311W        W40037  34.924   4.477  12.466
68312W        W40038  33.599   3.338  14.709
68313W        W40039  14.374  35.211   3.797
68314W        W40040   7.877  23.546   2.772
68315W        W40041  34.445  30.889   1.870
68316W        W40042  42.767  23.147   3.670
68317W        W40043  18.799  15.840   4.528
68318W        W40044  20.009   7.659  13.162
68319W        W40045  22.377  41.731  13.199
68320W        W40046  41.817   9.273  10.813
68321W        W40047   4.156  15.745   2.791
68322W        W40048   8.878  28.240  12.525
68323W        W40049  15.090   5.537   3.263
68324W        W40050  34.927  35.960   3.595
68325W        W40051  26.570  25.179   1.303
68326W        W40052  32.983  34.340  13.564
68327W        W40053  32.901  36.944  11.423
68328W        W40054  41.341  27.882  11.575
68329W        W40055   6.587  10.805  10.615
68330W        W40056  40.548  14.086   4.579
68331W        W40057  16.355   3.971   0.795
68332W        W40058  43.950  14.686   4.023
68333W        W40059  35.229  44.337  11.213
68334W        W40060  36.748   9.680  10.710
68335W        W40061  18.107  33.999  14.347
68336W        W40062  36.425  30.432   3.562
68337W        W40063  19.689  13.071  13.177
68338W        W40064  15.268  15.867   1.349
68339W        W40065   2.512  29.465   0.944
68340W        W40066  34.834   5.825  10.665
68341W        W40067  27.425  33.701  11.318
68342W        W40068  29.454  20.028  14.421
68343W        W40069  33.124  20.543   3.132
68344W        W40070  25.752   6.930   0.932
68345W        W40071  31.777  16.914   2.267
68346W        W40072  23.872  12.558  14.359
68347W        W40073  16.790   4.979   0.601
68348W        W40074  13.206   1.256   3.327
68349W        W40075   2.491  21.321  13.009
68350W        W40076  21.459   5.302  12.364
68351W        W40077  19.204  39.281  13.048
68352W        W40078  29.551  41.009   3.392
68353W        W40079  14.033  38.528   2.645
68354W        W40080  36.584  32.524   4.907
68355W        W40081  15.203  23.850  13.156
68356W        W40082  32.553  22.185  11.095
68357W        W40083  36.357  43.394   1.419
68358W        W40084   9.755  33.917   2.193
68359W        W40085  13.099   5.984   1.216
68360W        W40086   0.322  32.604  12.136
68361W        W40087   1.312  42.411  10.875
68362W        W40088  11.685  20.479   4.614
68363W        W40089  28.931  38.781  11.063
68364W        W40090  43.507   9.339  14.463
68365W        W40091  35.615   9.840  14.101
68366W        W40092  42.522  17.752  11.682
68367W        W40093  11.360  20.056  13.127
68368W        W40094   6.212  28.204   4.114
68369W        W40095  36.491  21.991  13.386
68370W        W40096   9.256  43.244   3.316
68371W        W40097  35.526  40.038   4.061
68372W        W40098  17.001  16.402  11.681
68373W        W40099  13.325  44.236  12.954
68374W        W40100  39.301   2.366   4.271
68375W        W40101  15.017  25.659   2.388
68376W        W40102   9.163   4.768  13.002
68377W        W40103   6.145  29.623   3.856
68378W        W40104   2.761  28.851  12.165
68379W        W40105   0.950  23.457   1.927
68380W        W40106  21.555  33.605   2.675
68381W        W40107  25.941   4.343   3.474
68382W        W40108  10.349  20.794   4.507
68383W        W40109  29.166   0.997   3.693
68384W        W40110  33.115   1.842   2.752
68385W        W40111  21.721  10.300   3.998
68386W        W40112   3.596   8.747  14.918
68387W        W40113  14.047   8.881   3.298
68388W        W40114  19.315  37.453   2.881
68389W        W40115  43.644  13.319  11.630
68390W        W40116  34.382  27.061   4.595
68391W        W40117  28.080  35.901  11.600
68392W        W40118   0.076   2.857   4.147
68393W        W40119   5.103  42.810  11.133
68394W        W40120  11.574   0.787  11.489
68395W        W40121  29.089  17.156   3.516
68396W        W40122  19.512   7.387  11.513
68397W        W40123  24.447   3.005  12.317
68398W        W40124   4.349  39.311  10.732
68399W        W40125  19.699   2.176  12.965
68400W        W40126  25.108  19.823   2.295
68401W        W40127  35.669  39.333   0.716
68402W        W40128  17.517  42.926   1.417
68403W        W40129  18.224  39.780  14.430
68404W        W40130   3.137  23.155  12.844
68405W        W40131   5.982  42.547  11.953
68406W        W40132  17.051  11.264  14.727
68407W        W40133   8.854  15.415  13.521
68408W        W40134  20.513  19.041  12.841
68409W        W40135  43.251   7.261   0.390
68410W        W40136   8.771  26.035  14.054
68411W        W40137  35.099  16.051  13.407
68412W        W40138  18.611  33.328   0.742
68413W        W40139  28.195  31.194  10.928
68414W        W40140  42.529   1.759   4.196
68415W        W40141  17.695  21.102  12.386
68416W        W40142   7.241  44.068   4.879
68417W        W40143  41.306  44.987  10.770
68418W        W40144  40.738  32.087  13.376
68419W        W40145  16.831  27.006  12.906
68420W        W40146  33.890  20.942   2.837
68421W        W40147   9.744   6.902   0.260
68422W        W40148  28.100  21.687   2.877
68423W        W40149  31.937  31.937  12.601
68424W        W40150  39.990   8.639  13.405
68425W        W40151  32.870   4.800   3.374
68426W        W40152  27.082   0.908  13.195
68427W        W40153  44.375  13.102  14.786
68428W        W40154  31.708   4.920  11.537
68429W        W40155   9.984   6.290   4.295
68430W        W40156  24.709  40.297   4.521
68431W        W40157  13.627  27.046  11.089
68432W        W40158  25.051   1.000  10.708
68433W        W40159  19.603   6.126   0.255
68434W        W40160  16.825  24.463   0.025
68435W        W40161  29.560  38.031  12.207
68436W        W40162   6.315   0.521  10.706
68437W        W40163  15.224  38.372  11.040
68438W        W40164  42.076  14.087  12.925
68439W        W40165  26.064  22.283   4.190
68440W        W40166  23.673  36.602   2.434
68441W        W40167  23.602   3.962   2.467
68442W        W40168  18.253  43.239  13.244
68443W        W40169  38.960  32.105   0.318
68444W        W40170  21.081   8.889  14.500
68445W        W40171  15.120  28.960   4.241
68446W        W40172  42.875  18.172   4.337
68447W        W40173  18.165  12.063  13.834
68448W        W40174   9.114  29.490   3.741
68449W        W40175   3.791  20.473   0.993
68450W        W40176   5.994  24.771  10.416
68451W        W40177  35.421   7.971  10.918
68452W        W40178  26.135   3.743  12.408
68453W        W40179  44.772   3.723  12.477
68454W        W40180  34.462  32.404  10.864
68455W        W40181  19.686  39.257  11.225
68456W        W40182  43.041  22.773   1.874
68457W        W40183  29.644  44.447  13.584
68458W        W40184   4.392  27.145  14.834
68459W        W40185  31.625  33.899  12.057
68460W        W40186  10.410   2.659   3.314
68461W        W40187  13.447   4.330  12.885
68462W        W40188   9.155   9.677   4.029
68463W        W40189  10.635   9.601   2.853
68464W        W40190  22.406  28.616   9.727
68465W        W40191  32.321  21.761  13.069
68466W        W40192   2.279  22.133  14.068
68467W        W40193  14.784   5.374  14.843
68468W        W40194  30.575  25.076  10.503
68469W        W40195  38.964  16.604  12.592
68470W        W40196  36.023   1.822   0.512
68471W        W40197  44.272  30.475  12.532
68472W        W40198  15.025  36.300  11.136
68473W        W40199   0.840  29.477  13.732
68474W        W40200  34.038   2.667   0.871
68475W        W40201   0.904  22.407   4.716
68476W        W40202  34.629  20.644  11.596
68477W        W40203  28.618   5.989   3.071
68478W        W40204   7.377  23.258  12.431
68479W        W40205  30.596  32.932  11.183
68480W        W40206  40.989  18.861  11.768
68481W        W40207  21.724  16.588   0.899
68482W        W40208  44.487   1.076  11.153
68483W        W40209  23.667  43.837  11.626
68484W        W40210  27.950  13.672  11.497
68485W        W40211  33.656  42.981  12.471
68486W        W40212  20.875  12.587  10.951
68487W        W40213   7.344  16.711   3.747
68488W        W40214   5.783  34.355   3.303
68489W        W40215   2.980  42.250  12.327
68490W        W40216  36.890  12.228   3.735
68491W        W40217  43.890  33.947   4.459
68492W        W40218  38.044  15.341   2.765
68493W        W40219  32.978  27.612   0.883
68494W        W40220  27.049  38.004  13.532
68495W        W40221  22.232  44.065  13.861
68496W        W40222  23.738  29.093   0.500
68497W        W40223   6.360   1.493  14.444
68498W        W40224  32.351  19.743  11.170
68499W        W40225  32.573  44.583  14.847
68500W        W40226  17.786  30.164   0.735
68501W        W40227  44.580  29.661   2.283
68502W        W40228  41.520  17.105  10.619
68503W        W40229   0.297  24.263   1.742
68504W        W40230   7.869  22.021  10.750
68505W        W40231   1.141  15.701   5.152
68506W        W40232   7.298  43.209  14.525
68507W        W40233  19.171  27.920  10.497
68508W        W40234  22.609  29.190   2.697
68509W        W40235  31.084   9.511  12.814
68510W        W40236  39.828  10.363  14.287
68511W        W40237  16.707  17.207   1.427
68512W        W40238  32.618   2.767  12.834
68513W        W40239   7.417  17.290   1.423
68514W        W40240  42.759  24.167  14.100
68515W        W40241   0.440   2.210   1.784
68516W        W40242   3.292  21.514   3.136
68517W        W40243  11.679  22.656   3.209
68518W        W40244  26.975  42.936   2.167
68519W        W40245  24.449   4.298   0.653
68520W        W40246  25.959  21.273   3.223
68521W        W40247   2.703   3.438   1.508
68522W        W40248  40.511  17.272  11.263
68523W        W40249   6.149  30.687   0.613
68524W        W40250  22.001  40.272   3.380
68525W        W40251  19.722  16.800  13.953
68526W        W40252  40.456   6.655   2.415
68527W        W40253  34.630   0.058   2.772
68528W        W40254  33.928   6.182  13.052
68529W        W40255  15.312   0.272   4.514
68530W        W40256   5.149  28.002   3.657
68531W        W40257  11.023   3.451  12.076
68532W        W40258  42.069  21.662   1.322
68533W        W40259   9.743  30.399  13.296
68534W        W40260  17.008  14.282  12.058
68535W        W40261  27.787   7.526   2.730
68536W        W40262  32.653  42.865   1.761
68537W        W40263  11.237  29.452  11.971
68538W        W40264  41.373  24.488   2.392
68539W        W40265   1.301  40.095  13.798
68540W        W40266  43.880  25.672  11.976
68541W        W40267  25.476  15.023  12.057
68542W        W40268  34.577  31.207   2.259
68543W        W40269  32.886  15.643  13.948
68544W        W40270  39.000   8.472   2.836
68545W        W40271  41.570  37.532   1.155
68546W        W40272  19.092  22.661   1.753
68547W        W40273  32.694  33.057  14.979
68548W        W40274  25.165  44.853  13.275
68549W        W40275  36.352   2.854   4.191
68550W        W40276  23.091  14.785   1.791
68551W        W40277  43.303   4.682   4.583
68552W        W40278   6.689  13.106   2.790
68553W        W40279  19.117  34.997   2.830
68554W        W40280  21.695  12.034   0.842
68555W        W40281  44.295  29.784  14.393
68556W        W40282  15.806   4.872  11.963
68557W        W40283  35.613  14.714  13.316
68558W        W40284  37.657  28.906   0.824
68559W        W40285  26.837  28.070   2.934
68560W        W40286  23.336  41.954  12.146
68561W        W40287  28.008   0.558   5.106
68562W        W40288  35.074  12.758  12.769
68563W        W40289  39.133  25.850  12.837
68564W        W40290  40.097  30.662  10.344
68565W        W40291  27.573  28.937  11.047
68566W        W40292  19.563   5.151  12.334
68567W        W40293   7.327  42.970   5.001
68568W        W40294   4.446  33.485   3.368
68569W        W40295  32.624  20.499  12.641
68570W        W40296  36.011   2.427   4.770
68571W        W40297   5.121  42.582   1.180
68572W        W40298   0.771  19.169  12.914
68573W        W40299  24.941   6.331  10.829
68574W        W40300  29.561   3.963   0.276
68575W        W40301   8.621  31.243  13.403
68576W        W40302  32.722  42.058  11.072
68577W        W40303  28.546  28.939  14.952
68578W        W40304   4.251  13.321  11.556
68579W        W40305   1.015  22.068   2.046
68580W        W40306  27.054  41.348   2.376
68581W        W40307  39.602  33.936   3.589
68582W        W40308  35.493  27.400  12.226
68583W        W40309  10.101  10.733   1.065
68584W        W40310  13.198  24.529   3.338
68585W        W40311   7.682  42.766  13.472
68586W        W40312  38.575  30.924  13.372
68587W        W40313  27.592   3.324   0.563
68588W        W40314  17.647  34.581   0.297
68589W        W40315   3.865   1.956  11.277
68590W        W40316  22.760  29.227   0.782
68591W        W40317  41.864  35.175   3.781
68592W        W40318  10.855   3.928  13.042
68593W        W40319  32.199  10.689   4.430
68594W        W40320  19.638  30.662   2.582
68595W        W40321  26.963  35.691   4.147
68596W        W40322   2.173  27.960   0.191
68597W        W40323   5.724  31.807   4.366
68598W        W40324  15.852  41.446   2.824
68599W        W40325   7.545  33.056  13.801
68600W        W40326   3.968  18.640   4.859
68601W        W40327  34.000   4.742  11.934
68602W        W40328  17.106  39.047  13.261
68603W        W40329   0.490  30.089  13.548
68604W        W40330   3.219  18.059   3.292
68605W        W40331   4.401   4.298  12.400
68606W        W40332   8.477  10.287   3.800
68607W        W40333  41.864  14.853  14.078
68608W        W40334  14.769  18.293   1.747
68609W        W40335  38.200  15.630  10.056
68610W        W40336  15.047  41.265   4.078
68611W        W40337  13.881  13.654  11.212
68612W        W40338  20.181  32.561  12.490
68613W        W40339  40.492  12.916   3.112
68614W        W40340  41.997  25.637  10.393
68615W        W40341  14.345  28.082  14.973
68616W        W40342  25.659   0.352   1.319
68617W        W40343  10.408  35.009   4.706
68618W        W40344   1.425  13.570  10.844
68619W        W40345  20.642  14.543  10.776
68620W        W40346  28.070  14.861  12.144
68621W        W40347  34.401  41.433  14.108
68622W        W40348  11.181  37.020  11.965
68623W        W40349  37.343  23.119   3.978
68624W        W40350  25.124  26.486  10.664
68625W        W40351   9.549   1.488   3.683
68626W        W40352  26.475  32.457   1.501
68627W        W40353   6.096   4.908  13.084
68628W        W40354   0.793  35.552   2.831
68629W        W40355  33.602  11.893  13.104
68630W        W40356   4.169   9.738   2.562
68631W        W40357  38.450  23.518  11.634
68632W        W40358  13.669   6.352   0.325
68633W        W40359  31.960  40.836   1.717
68634W        W40360  12.906  19.688   0.780
68635W        W40361  28.092  22.495  14.376
68636W        W40362  10.187   1.237  11.643
68637W        W40363  15.482   5.858   5.101
68638W        W40364  29.113  30.928  14.308
68639W        W40365  41.893  38.416  13.488
68640W        W40366  16.311   7.736   3.573
68641W        W40367  19.683  37.684  10.068
68642W        W40368  44.513  20.734   0.175
68643W        W40369  43.507  29.184   2.739
68644W        W40370  44.968  36.442  11.614
68645W        W40371  16.075  20.613  12.206
68646W        W40372  29.160  18.307  14.535
68647W        W40373  36.626  19.554  12.474
68648W        W40374  34.810  10.805   0.340
68649W        W40375   9.662  15.790  11.556
68650W        W40376  11.272  33.908  13.684
68651W        W40377  40.984  24.107  10.607
68652W        W40378  24.918   5.826  12.890
68653W        W40379   1.713  11.401  10.604
68654W        W40380  14.220  33.922   2.808
68655W        W40381  31.849   3.371   3.301
68656W        W40382  31.063   5.704  14.888
68657W        W40383  11.654  12.682  13.024
68658W        W40384   7.451   0.215  13.792
68659W        W40385  14.363  12.556  14.903
68660W        W40386  39.908  18.566  13.005
68661W        W40387   9.044  26.365   1.309
68662W        W40388  42.316  30.140  12.444
68663W        W40389   2.321   8.283   2.241
68664W        W40390  38.203  41.917   3.677
68665W        W40391   9.198   6.678  14.068
68666W        W40392   5.393  41.042   1.366
68667W        W40393   9.885  32.860  13.442
68668W        W40394   9.689  36.068   0.220
68669W        W40395  40.979  10.129   3.215
68670W        W40396  12.823  17.265  11.427
68671W        W40397   6.886  29.947   2.211
68672W        W40398   3.901   3.148  13.931
68673W        W40399  33.981  17.248  12.407
68674W        W40400   7.463  28.997  12.050
68675W        W40401  38.144  38.382   0.811
68676W        W40402  10.016  11.263  11.490
68677W        W40403  44.874   9.963  13.491
68678W        W40404  13.808  24.239   2.206
68679W        W40405  42.728  42.055   3.864
68680W        W40406  43.786   0.819   0.926
68681W        W40407  43.601  32.866  11.987
68682W        W40408   9.760  15.157  14.323
68683W        W40409  12.844  14.198  10.870
68684W        W40410  22.066  31.549   0.984
68685W        W40411  20.647  34.445   3.244
68686W        W40412  30.380  26.467  14.249
68687W        W40413   9.069   1.415  12.442
68688W        W40414   7.716  19.830   4.975
68689W        W40415   6.905   3.918   4.983
68690W        W40416   1.384   6.622  13.579
68691W        W40417  24.298  42.804   4.919
68692W        W40418   2.883  12.888   0.510
68693W        W40419  22.025  27.064   1.615
68694W        W40420  35.137  12.271   3.318
68695W        W40421  30.968  35.586   2.149
68696W        W40422  34.560  18.867  11.194
68697W        W40423  13.605   5.873  12.459
68698W        W40424  24.772  30.238  14.805
68699W        W40425  25.209  28.036  11.109
68700W        W40426  35.019  44.509   3.731
68701W        W40427  10.319  41.627   4.551
68702W        W40428  14.689   1.932   1.672
68703W        W40429  40.302  25.420   1.310
68704W        W40430   1.701  27.128  10.681
68705W        W40431  10.313  27.419   4.632
68706W        W40432   2.241  12.897   0.870
68707W        W40433  21.915  25.935  10.272
68708W        W40434   6.822   8.352  14.343
68709W        W40435  21.229  22.620  12.974
68710W        W40436  14.740  15.178   0.170
68711W        W40437  12.153   0.351   0.376
68712W        W40438  41.856  26.951   2.756
68713W        W40439  43.705  16.389   3.418
68714W        W40440  40.423   0.043   0.397
68715W        W40441  41.264  12.384   0.406
68716W        W40442   7.300  31.745   2.341
68717W        W40443   5.090  34.546   5.188
68718W        W40444   3.969  10.221   0.275
68719W        W40445  29.599   4.448  10.546
68720W        W40446  39.235   6.030   4.767
68721W        W40447  21.406  27.032  10.553
68722W        W40448  42.887  11.052   0.049
68723W        W40449  43.718  26.726   4.563
68724W        W40450  38.999  14.360   3.187
68725W        W40451  33.903  23.735   3.256
68726W        W40452  33.135  17.332  13.418
68727W        W40453  42.679   6.340  10.515
68728W        W40454  30.239  25.542   3.158
68729W        W40455  29.681  44.759  12.421
68730W        W40456   7.341  35.072   2.408
68731W        W40457  24.017   4.861  14.218
68732W        W40458   1.700  40.079   2.297
68733W        W40459  28.678  10.320  10.915
68734W        W40460  29.038  20.961  13.468
68735W        W40461   7.966  38.201   2.870
68736W        W40462  41.362  44.648   4.227
68737W        W40463  42.860  37.940   4.152
68738W        W40464   5.338  36.995  13.028
68739W        W40465  28.084  21.157   1.238
68740W        W40466  33.975  21.964  11.509
68741W        W40467   7.214  32.785  13.482
68742W        W40468  30.153  17.592  11.862
68743W        W40469   7.234  23.205  10.706
68744W        W40470  42.694  15.106   0.659
68745W        W40471  34.866  29.595  10.996
68746W        W40472   1.282   9.142   2.694
68747W        W40473  40.119  29.627   0.427
68748W        W40474  22.050   6.871  14.766
68749W        W40475  15.650   0.459  14.438
68750W        W40476  10.066  19.890   2.902
68751W        W40477  36.642  16.669   2.247
68752W        W40478   2.427  19.665  10.868
68753W        W40479  23.760  21.506   0.390
68754W        W40480  40.917   1.192  11.927
68755W        W40481  18.556  26.393  14.759
68756W        W40482   4.425  24.707   1.287
68757W        W40483  36.164  43.493   4.431
68758W        W40484  12.363  27.582   2.108
68759W        W40485  10.212   3.277  10.247
68760W        W40486   4.306   6.848  11.931
68761W        W40487  19.116  34.931   3.683
68762W        W40488  23.428   8.769  12.453
68763W        W40489  35.389  40.538  11.193
68764W        W40490   4.906   6.388  10.494
68765W        W40491  14.404  11.251   2.902
68766W        W40492  37.746  26.785  12.389
68767W        W40493  22.697  17.970   4.038
68768W        W40494  44.340  41.311   3.431
68769W        W40495  13.301  23.353  11.144
68770W        W40496   2.983  14.139   4.445
68771W        W40497   7.176   8.694   4.350
68772W        W40498   0.291  25.672  13.355
68773W        W40499  31.544  40.900   2.273
68774W        W40500   0.080  21.005   1.347
68775W        W40501  17.027  36.856   1.834
68776W        W40502  19.096  11.946   1.311
68777W        W40503  27.111  36.406  10.574
68778W        W40504  23.227  16.357  12.373
68779W        W40505  34.918   9.888  10.749
68780W        W40506  19.777  20.523   0.990
68781W        W40507  28.457  13.754   3.119
68782W        W40508   9.445  33.040   4.552
68783W        W40509  27.976  11.813  13.204
68784W        W40510   9.286  33.231  10.277
68785W        W40511   4.769   7.748  14.995
68786W        W40512  36.466  35.963   4.969
68787W        W40513   4.864  30.055   0.249
68788W        W40514  13.024  11.797   1.287
68789W        W40515  24.027  17.949  10.657
68790W        W40516  24.934  12.663  12.980
68791W        W40517  16.532   3.538  14.547
68792W        W40518  34.197  20.815   0.822
68793W        W40519  20.758  22.705   2.685
68794W        W40520  16.103  12.913   4.101
68795W        W40521  16.652  11.292   3.694
68796W        W40522  37.136  37.877  13.939
68797W        W40523   5.273  10.376  12.051
68798W        W40524  21.807  43.334   0.912
68799W        W40525  41.517  19.742   2.307
68800W        W40526  32.304   2.965  11.129
68801W        W40527  10.369  26.718  13.034
68802W        W40528  21.149  33.181  13.468
68803W        W40529  10.267  14.077  12.101
68804W        W40530  35.124  14.336   2.661
68805W        W40531  36.260  26.044   3.179
68806W        W40532  20.238  42.372  11.898
68807W        W40533   4.329  44.849  10.978
68808W        W40534  34.295  31.935   1.991
68809W        W40535  28.675   8.842   4.246
68810W        W40536   4.520   7.186   1.700
68811W        W40537  41.234  10.832   2.615
68812W        W40538  21.130   9.262   3.096
68813W        W40539  30.060  28.421  12.847
68814W        W40540  20.534  26.029  12.032
68815W        W40541  40.810   2.725   2.735
68816W        W40542   4.847  32.819  12.282
68817W        W40543  10.661  31.025  11.936
68818W        W40544  31.885  18.636   2.014
68819W        W40545  43.010   8.749  13.987
68820W        W40546  40.830  44.749  13.417
68821W        W40547  33.950  30.008  11.160
68822W        W40548   4.006  18.601  11.217
68823W        W40549  30.155   8.149  13.148
68824W        W40550  11.349  40.365  11.316
68825W        W40551   8.367  40.103   0.549
68826W        W40552  30.538  16.825  11.396
68827W        W40553  16.697   7.882  14.281
68828W        W40554  11.270  41.593  14.369
68829W        W40555  38.500  10.078   0.590
68830W        W40556  24.627  10.163   0.246
68831W        W40557  16.596  13.217  11.417
68832W        W40558  14.059   5.256   0.948
68833W        W40559  37.873  33.100   3.250
68834W        W40560  32.974  36.776   3.146
68835W        W40561  39.808  29.983  14.229
68836W        W40562  19.637  18.639   4.094
68837W        W40563  38.963  26.313   9.857
68838W        W40564  15.764  37.013  11.169
68839W        W40565  44.794  19.049   0.763
68840W        W40566  10.331  26.981  13.490
68841W        W40567   0.559  11.814   3.973
68842W        W40568   2.738  41.840   3.394
68843W        W40569  43.416  44.013  12.367
68844W        W40570  39.353  14.727   3.923
68845W        W40571   8.789   5.683  11.453
68846W        W40572  13.069  12.475  13.362
68847W        W40573  28.026  37.166   4.935
68848W        W40574  16.731   6.165  13.123
68849W        W40575  36.547  21.257   2.329
68850W        W40576  20.609   2.146  14.797
68851W        W40577  26.577  26.204   0.682
68852W        W40578  40.936  27.076   1.209
68853W        W40579  22.739   9.651   2.097
68854W        W40580   9.709  35.027  13.856
68855W        W40581   5.724   1.438   2.331
68856W        W40582  40.331  30.803   1.711
68857W        W40583  12.852   1.824  10.642
68858W        W40584  38.345  37.341  12.177
68859W        W40585  44.501  24.395   1.455
68860W        W40586  29.147   8.210   1.031
68861W        W40587  20.187   7.597   3.255
68862W        W40588  37.384   4.303   0.458
68863W        W40589  29.855  22.190   3.267
68864W        W40590  22.245  38.955  11.719
68865W        W40591  14.936  10.457   4.134
68866W        W40592  42.901  13.685   1.140
68867W        W40593   8.712  31.435   3.915
68868W        W40594  30.480  43.426   2.404
68869W        W40595  43.930  18.916   3.274
68870W        W40596  25.637   2.097   3.093
68871W        W40597  40.721  27.513  13.060
68872W        W40598  32.132  16.690  10.625
68873W        W40599   7.293  30.192  12.560
68874W        W40600  24.322   1.353   5.205
68875W        W40601  12.684  35.417  14.445
68876W        W40602  19.809  36.019  12.535
68877W        W40603   0.272  27.741   0.777
68878W        W40604  18.811  31.623   0.513
68879W        W40605  20.905  23.648  12.145
68880W        W40606  14.342  40.080   3.710
68881W        W40607   2.821  19.273  10.615
68882W        W40608  39.334  21.058  10.744
68883W        W40609  22.069  26.787  13.974
68884W        W40610   9.099  25.114   5.487
68885W        W40611  15.403  33.995   3.572
68886W        W40612  16.346  25.565  11.935
68887W        W40613  43.539  26.159  12.328
68888W        W40614  15.804  31.929   3.226
68889W        W40615  21.590   8.678   4.236
68890W        W40616  30.057   6.317   1.375
68891W        W40617  33.524  28.590  14.891
68892W        W40618  22.552  39.647  12.904
68893W        W40619  18.331  36.443   1.198
68894W        W40620  13.320  42.372  13.853
68895W        W40621  28.014   9.643  14.714
68896W        W40622  26.533  17.288  13.509
68897W        W40623   6.885   4.441   2.404
68898W        W40624   5.566  31.744  12.505
68899W        W40625  27.890  32.692  12.743
68900W        W40626  14.164  16.319   3.835
68901W        W40627  18.238  44.486   1.772
68902W        W40628   9.620  15.562   3.155
68903W        W40629  20.097  30.093   0.289
68904W        W40630  44.177  44.333   1.526
68905W        W40631   0.533  30.467   3.375
68906W        W40632  18.746   9.148   0.882
68907W        W40633  41.309  11.929  10.576
68908W        W40634  28.751   6.135   3.621
68909W        W40635   5.260  32.108   0.961
68910W        W40636   6.256  18.293  12.862
68911W        W40637  38.254  40.908   1.819
68912W        W40638   7.769  18.582  13.817
68913W        W40639  44.159  16.963   5.034
68914W        W40640  11.690  26.057   1.961
68915W        W40641  16.231  35.739   2.676
68916W        W40642  33.162   5.460   1.773
68917W        W40643  20.595  41.540   4.369
68918W        W40644   5.509  17.372  11.476
68919W        W40645  35.391  31.805   0.909
68920W        W40646   8.819   1.710   1.714
68921W        W40647  36.346  34.622  14.954
68922W        W40648  39.963  21.341  11.548
68923W        W40649  36.328  27.944  14.888
68924W        W40650  24.041   1.277  11.086
68925W        W40651  12.724  23.000   3.474
68926W        W40652  37.371  29.763  14.189
68927W        W40653   7.798  44.048   1.786
68928W        W40654  24.685  39.375   1.523
68929W        W40655  42.855  43.247  11.583
68930W        W40656  10.237  44.735   4.406
68931W        W40657  39.256  12.708  10.561
68932W        W40658  41.521  20.201   4.306
68933W        W40659  16.200  17.759  12.295
68934W        W40660  42.312   5.667   0.438
68935W        W40661  20.986  24.619  11.939
68936W        W40662  15.319  34.986   0.811
68937W        W40663  29.592  17.558  12.030
68938W        W40664   8.170  11.206  13.972
68939W        W40665  36.945  40.911   4.361
68940W        W40666  38.063  20.193   3.393
68941W        W40667   7.979  38.397   4.723
68942W        W40668  30.326  39.128  12.193
68943W        W40669  29.237   5.867   1.397
68944W        W40670  39.787  29.991   1.683
68945W        W40671  14.604  44.552   3.632
68946W        W40672  12.735   5.949  12.533
68947W        W40673  21.282  39.078  11.448
68948W        W40674   0.301   8.930   2.842
68949W        W40675  19.034   5.853   0.869
68950W        W40676  44.401  37.035   1.233
68951W        W40677   1.488   6.283   1.252
68952W        W40678  44.043   1.815   2.640
68953W        W40679  10.467  18.374   1.248
68954W        W40680  16.662  31.886   4.677
68955W        W40681   9.011  18.959  12.508
68956W        W40682  18.618  25.905   4.123
68957W        W40683  15.616   3.346   2.938
68958W        W40684  35.416   3.371   9.848
68959W        W40685  12.180  35.036   0.065
68960W        W40686  10.088  12.172  12.638
68961W        W40687  20.582  30.678  11.889
68962W        W40688  38.945  39.476  12.047
68963W        W40689  13.499  30.552   1.581
68964W        W40690  41.882  37.519  10.565
68965W        W40691   6.833  21.639   0.347
68966W        W40692  28.748   6.365   4.571
68967W        W40693  40.565  29.634  12.464
68968W        W40694  39.602  32.537  14.410
68969W        W40695  16.188  30.898  13.860
68970W        W40696  32.760  40.430   0.441
68971W        W40697  19.684   2.128   4.946
68972W        W40698  30.632  12.617   5.035
68973W        W40699   5.241  27.020   0.180
68974W        W40700  19.899  43.227   3.825
68975W        W40701   5.921  31.779   2.608
68976W        W40702  26.129   6.675   4.222
68977W        W40703  38.277  34.679  14.932
68978W        W40704  15.201  23.085   0.207
68979W        W40705   7.872  17.605   4.662
68980W        W40706  30.400  31.177   3.304
68981W        W40707  29.022  21.006   2.426
68982W        W40708  29.546   2.235  10.784
68983W        W40709   0.456  41.551  12.046
68984W        W40710  19.060   1.615   0.967
68985W        W40711  32.741  24.168   0.229
68986W        W40712  31.539   2.939  10.727
68987W        W40713  40.614  34.110  14.147
68988W        W40714  18.485  15.247  14.583
68989W        W40715  19.503   1.692  12.169
68990W        W40716  17.123  35.589  12.897
68991W        W40717  21.001  30.228   2.891
68992W        W40718   0.348  41.534   1.332
68993W        W40719  15.296  37.135   3.308
68994W        W40720  28.407  17.999  13.143
68995W        W40721   1.473   9.271  10.973
68996W        W40722  19.724  22.356  12.974
68997W        W40723   0.167  39.276  12.680
68998W        W40724  40.924  39.996  13.908
68999W        W40725  38.912  37.759  11.589
69000W        W40726  36.964  24.226  13.469
69001W        W40727  12.125  14.053  12.401
69002W        W40728  12.865  31.973   3.298
69003W        W40729  41.090  44.598  11.973
69004W        W40730  38.783  18.413   0.005
69005W        W40731  23.625  31.085  14.448
69006W        W40732   4.239   6.062   3.670
69007W        W40733  20.872  13.238   0.668
69008W        W40734  35.052  35.179   0.017
69009W        W40735  39.750  25.578  11.564
69010W        W40736  38.992  35.625  14.302
69011W        W40737  15.922   7.717  11.632
69012W        W40738  36.266  21.607  14.730
69013W        W40739   4.736  34.624   1.723
69014W        W40740  29.891  16.189   3.536
69015W        W40741  39.891  40.504  13.839
69016W        W40742   7.248  29.098  11.023
69017W        W40743  20.528   5.413  13.851
69018W        W40744  23.741  22.976   0.505
69019W        W40745  36.920  18.567   1.274
69020W        W40746  41.838  10.325   3.635
69021W        W40747  39.396  15.323  10.720
69022W        W40748   4.909  43.266   4.092
69023W        W40749  38.014  32.020  12.969
69024W        W40750   0.199  26.625   2.520
69025W        W40751   6.654  31.843  14.832
69026W        W40752  34.487   5.910  11.118
69027W        W40753  14.251  22.429   1.326
69028W        W40754  41.249  16.560   2.581
69029W        W40755   0.301  28.701  12.113
69030W        W40756  12.873  29.708  11.583
69031W        W40757  17.473   6.478  11.959
69032W        W40758  11.521   5.328   1.303
69033W        W40759  25.266  26.470   3.590
69034W        W40760  18.958  10.916   1.494
69035W        W40761   2.494  27.129  11.763
69036W        W40762  33.461   2.985   1.909
69037W        W40763  20.046  10.681  11.643
69038W        W40764  40.942   5.821   3.188
69039W        W40765   4.570  29.870  11.163
69040W        W40766   3.903  24.077   1.613
69041W        W40767  32.613  43.033  12.415
69042W        W40768   4.808   8.247  14.848
69043W        W40769  26.454  18.856  14.002
69044W        W40770  33.554  27.126   0.723
69045W        W40771  24.548  33.533  11.622
69046W        W40772   0.513  27.169   4.699
69047W        W40773   3.202   6.819   0.492
69048W        W40774  17.273  42.474  10.676
69049W        W40775  12.822  10.696   1.380
69050W        W40776  36.728  32.945   4.469
69051W        W40777  22.236  43.802  14.872
69052W        W40778  10.518  31.859  13.388
69053W        W40779  11.340   2.213   0.408
69054W        W40780   4.713  38.121  11.895
69055W        W40781  18.499  19.090  11.477
69056W        W40782  38.034  15.600  14.956
69057W        W40783  40.988  23.240  12.865
69058W        W40784   9.094  25.666  11.263
69059W        W40785  22.254   5.432   3.233
69060W        W40786  10.137  36.341   3.593
69061W        W40787  44.301   3.386   3.250
69062W        W40788  15.121  28.443   4.190
69063W        W40789   7.040  43.575   3.366
69064W        W40790   8.403   5.449  11.087
69065W        W40791  22.131  14.535   0.382
69066W        W40792  32.153  24.628  11.984
69067W        W40793  26.259  25.719  12.405
69068W        W40794  39.036  39.788   1.316
69069W        W40795  40.906  20.917   0.483
69070W        W40796   0.283  24.057  11.689
69071W        W40797  38.976  16.077   2.155
69072W        W40798  23.004  10.320   3.370
69073W        W40799  34.127  33.260  14.357
69074W        W40800  44.851  42.359  13.524
69075W        W40801  13.714  31.582  14.742
69076W        W40802   3.241  10.095   3.716
69077W        W40803   3.209  37.871   3.461
69078W        W40804  17.301  15.682  11.845
69079W        W40805  36.934  13.849   4.739
69080W        W40806  30.887  14.833  12.188
69081W        W40807  13.677  14.782  13.340
69082W        W40808  34.581   2.825  11.232
69083W        W40809  28.688   6.953   3.238
69084W        W40810  16.723   0.277  13.524
69085W        W40811   7.737  29.135  11.220
69086W        W40812  11.098  26.061   4.160
69087W        W40813  44.483  10.172  14.726
69088W        W40814  35.284  23.031   0.435
69089W        W40815  11.128  34.642   5.046
69090W        W40816  36.828  26.099  13.967
69091W        W40817   5.984  27.436  11.679
69092W        W40818   5.276  20.653   3.710
69093W        W40819  25.805  43.774   4.620
69094W        W40820  16.567  21.032   2.371
69095W        W40821   1.316  30.933   0.394
69096W        W40822  11.404  13.647  13.940
69097W        W40823  37.129  44.535  12.400
69098W        W40824  11.804  39.958  10.701
69099W        W40825  26.617  39.386   1.650
69100W        W40826  21.586  34.794   1.033
69101W        W40827  10.590  42.087  11.755
69102W        W40828  23.452  17.220   2.887
69103W        W40829  34.041  40.392  14.932
69104W        W40830  39.279   5.368   2.535
69105W        W40831   7.414  26.691  14.494
69106W        W40832  40.072  27.543  12.363
69107W        W40833  24.922  11.165   1.350
69108W        W40834  14.131  25.356  11.700
69109W        W40835  36.645   7.916  12.351
69110W        W40836   6.352   5.752   4.334
69111W        W40837  19.059  18.832   0.958
69112W        W40838  19.184   8.403   2.929
69113W        W40839   5.313  26.571  10.957
69114W        W40840  22.057  10.756   0.444
69115W        W40841  25.858  24.072  13.929
69116W        W40842   5.349  42.745   2.312
69117W        W40843   6.416  29.749   4.270
69118W        W40844  20.531   6.378   2.852
69119W        W40845  20.085   6.882  12.040
69120W        W40846   4.375  21.764  12.240
69121W        W40847  19.812  26.967  14.787
69122W        W40848   6.173   4.844   0.768
69123W        W40849  12.818  35.498   4.077
69124W        W40850  10.384  41.998  14.847
69125W        W40851  26.775  17.761   1.807
69126W        W40852  28.504  20.571  12.024
69127W        W40853  30.442  10.785   0.341
69128W        W40854  12.802   8.194   4.547
69129W        W40855  33.364   2.756   1.420
69130W        W40856  33.964  13.429   2.054
69131W        W40857  37.314  25.009  14.459
69132W        W40858  35.083  41.401   3.299
69133W        W40859   4.423  18.110   3.857
69134W        W40860   1.936  29.095  10.601
69135W        W40861   1.714   3.804  11.214
69136W        W40862  16.917  43.486  11.428
69137W        W40863  26.562  34.584   5.173
69138W        W40864  14.274  18.246  14.460
69139W        W40865  26.142  16.708  12.334
69140W        W40866  31.974  12.031   1.187
69141W        W40867  14.506   5.401   0.720
69142W        W40868  14.143  22.575   2.376
69143W        W40869  37.116  43.149   4.409
69144W        W40870  33.302   0.740   3.115
69145W        W40871  28.110   8.776   1.879
69146W        W40872  18.767  11.859  12.098
69147W        W40873  32.459   9.168  14.228
69148W        W40874  29.450  14.751  11.545
69149W        W40875  15.289  20.807   3.662
69150W        W40876  13.595  24.460  12.385
69151W        W40877  26.702   0.363  11.084
69152W        W40878  25.820  20.786   4.124
69153W        W40879  37.545  33.291  13.262
69154W        W40880  38.904  13.146  13.774
69155W        W40881  31.493   7.836   3.161
69156W        W40882  20.839   4.980   2.158
69157W        W40883   3.807  42.999  13.467
69158W        W40884  32.626  29.526  12.316
69159W        W40885  12.316  44.874  12.073
69160W        W40886  41.210   2.571  14.753
69161W        W40887   5.906  38.393   0.851
69162W        W40888   2.407   9.621   0.780
69163W        W40889  14.216  16.951   0.891
69164W        W40890  17.645  18.558   2.253
69165W        W40891  38.052   8.213  12.154
69166W        W40892  20.210  15.549   3.266
69167W        W40893  33.179  30.878  13.413
69168W        W40894  43.972  25.253   0.547
69169W        W40895  36.004  35.115   4.306
69170W        W40896  42.069  17.235  13.632
69171W        W40897  44.829  33.536   0.970
69172W        W40898  30.397  44.427  13.121
69173W        W40899  35.335  29.972  10.799
69174W        W40900  39.067  11.918  14.433
69175W        W40901  15.597  41.784   3.334
69176W        W40902  32.478  24.065  13.730
69177W        W40903  10.288  26.934   3.159
69178W        W40904  42.403  18.138   2.451
69179W        W40905  25.491  42.797   3.388
69180W        W40906  16.553  30.974  13.370
69181W        W40907  44.120  26.045  10.955
69182W        W40908   9.486  19.848  13.775
69183W        W40909  27.274  34.357  13.928
69184W        W40910   2.379  26.365   2.076
69185W        W40911   7.524  33.886   2.887
69186W        W40912   0.995  26.952   0.887
69187W        W40913  32.732  37.470   4.605
69188W        W40914  26.132  41.986   3.613
69189W        W40915  39.310   3.091   2.043
69190W        W40916  23.925  40.365  14.738
69191W        W40917  18.682  37.726  13.995
69192W        W40918  21.746  43.538   4.162
69193W        W40919   2.900  14.419  12.844
69194W        W40920  21.919  39.926   1.232
69195W        W40921   7.408  44.226  12.961
69196W        W40922  22.525  20.932  10.702
69197W        W40923  39.572   8.864  11.438
69198W        W40924   9.465   1.822  14.513
69199W        W40925  20.370  42.407   0.869
69200W        W40926  22.981   2.784   1.234
69201W        W40927  16.830  23.581   2.890
69202W        W40928  41.836  34.947   2.149
69203W        W40929  44.420  19.828  13.020
69204W        W40930  43.972  28.800   3.542
69205W        W40931  39.061  16.578   2.269
69206W        W40932   9.173   3.004   1.727
69207W        W40933  42.886  20.261  14.332
69208W        W40934  43.000  35.353  11.665
69209W        W40935   8.750  35.573  10.111
69210W        W40936  19.264   3.879  10.494
69211W        W40937  31.968   5.379  11.527
69212W        W40938  35.913  24.619   4.840
69213W        W40939  39.235  34.598   1.013
69214W        W40940   6.685  29.049  12.264
69215W        W40941  29.607  35.870  12.140
69216W        W40942  35.018  21.036  11.448
69217W        W40943  36.010  24.280   2.255
69218W        W40944  26.479  42.985  12.014
69219W        W40945  38.789  24.646  11.956
69220W        W40946  44.221  17.153   3.708
69221W        W40947  23.748  22.257   3.841
69222W        W40948   3.172   1.223  12.126
69223W        W40949  22.563  37.281  11.262
69224W        W40950  26.150  25.209  12.444
69225W        W40951  23.275   9.174  13.018
69226W        W40952   1.507  28.624   3.761
69227W        W40953  29.944   4.594   1.812
69228W        W40954  24.555  43.260  10.922
69229W        W40955  17.520   7.894  12.873
69230W        W40956  33.875  43.657  13.477
69231W        W40957   1.369  24.766  10.735
69232W        W40958  20.401   2.526  13.469
69233W        W40959  36.979  28.663  12.981
69234W        W40960   2.544  10.263   4.039
69235W        W40961   7.638  23.410   4.928
69236W        W40962  32.023  19.028   2.936
69237W        W40963  24.594   1.155  12.330
69238W        W40964  20.131  20.422   1.376
69239W        W40965  15.044  21.598  13.619
69240W        W40966   3.079   6.375  11.559
69241W        W40967  23.291  20.271  12.482
69242W        W40968  44.684  21.532   0.700
69243W        W40969   0.939   5.427  14.818
69244W        W40970  17.196  32.184  10.827
69245W        W40971   3.273  39.335   3.114
69246W        W40972   3.186   0.276   1.750
69247W        W40973  22.142  30.421  14.846
69248W        W40974  33.906  14.857  13.873
69249W        W40975   3.855  17.861   1.683
69250W        W40976  18.186  17.331  13.321
69251W        W40977   0.859  37.066  13.029
69252W        W40978   1.941  27.171  13.098
69253W        W40979  37.506  15.166   1.218
69254W        W40980   1.357   3.472  10.717
69255W        W40981  35.018  40.357  13.544
69256W        W40982  36.024  13.843  14.787
69257W        W40983  16.787   7.542   0.256
69258W        W40984   8.262  11.212  11.740
69259W        W40985  26.146  16.078   0.869
69260W        W40986  20.548   9.110   1.915
69261W        W40987  34.577  19.772  11.672
69262W        W40988  34.074   0.403   0.918
69263W        W40989  36.411  16.171   0.981
69264W        W40990  36.140   4.558   4.355
69265W        W40991  24.466  14.812  12.925
69266W        W40992  41.552  28.892  12.994
69267W        W40993  33.001  20.977   2.856
69268W        W40994  33.357  41.982   5.044
69269W        W40995  10.347  37.456  14.965
69270W        W40996   1.407  18.158  13.085
69271W        W40997  25.607   3.307  11.687
69272W        W40998  24.556  22.453   2.441
69273W        W40999  29.535  15.786  12.983
69274W        W41000  12.754  33.732   1.753
69275W        W41001  32.887  22.321  12.509
69276W        W41002   8.697  20.681  13.247
69277W        W41003  28.141  40.959   2.436
69278W        W41004  43.206  29.289  13.069
69279W        W41005  37.049  26.762   0.350
69280W        W41006  22.352   4.054   1.722
69281W        W41007   9.953  24.491   0.516
69282W        W41008   4.862   5.889   2.285
69283W        W41009  28.449   6.709   1.903
69284W        W41010   7.639  15.226   1.532
69285W        W41011  31.044   9.902   2.866
69286W        W41012  24.789  26.641  12.830
69287W        W41013  33.137  33.827  13.600
69288W        W41014  20.700   5.923  14.755
69289W        W41015  33.406  33.891  14.027
69290W        W41016   9.620   1.366   0.294
69291W        W41017  23.428  37.035  12.457
69292W        W41018  21.695  21.028   3.262
69293W        W41019  21.924  36.305  11.798
69294W        W41020  13.492   5.208  12.885
69295W        W41021  33.100  31.035   4.835
69296W        W41022  27.029  17.463  13.527
69297W        W41023  28.982  11.335  11.597
69298W        W41024  18.104   1.307   4.040
69299W        W41025  28.011  14.328   0.590
69300W        W41026  10.821  11.294  10.732
69301W        W41027  39.552  38.220  12.973
69302W        W41028  28.194  15.036   3.581
69303W        W41029  17.785  28.554   2.626
69304W        W41030  17.766   8.506   0.378
69305W        W41031  33.364  41.439  11.865
69306W        W41032   3.452  36.925   3.875
69307W        W41033  39.952   9.791   1.939
69308W        W41034  43.928  28.154   2.233
69309W        W41035  35.849  17.132  11.760
69310W        W41036  23.536  37.824   4.596
69311W        W41037  42.976  30.941  11.983
69312W        W41038  39.556  11.739   0.437
69313W        W41039   1.326  18.479  11.628
69314W        W41040  29.808   5.149   0.193
69315W        W41041  20.154  34.203  14.257
69316W        W41042  33.965  22.386  13.657
69317W        W41043   9.650  34.562  12.624
69318W        W41044  31.659  20.764  14.933
69319W        W41045   6.921  42.381   4.166
69320W        W41046  23.857  30.461   4.625
69321W        W41047  39.392  23.744  14.976
69322W        W41048  40.632  19.483   2.215
69323W        W41049  40.353  42.754  13.588
69324W        W41050   1.136   8.200   3.712
69325W        W41051  33.216  22.686   0.271
69326W        W41052  27.474   5.141   0.327
69327W        W41053  30.650  11.648  14.980
69328W        W41054  25.522  17.251  11.694
69329W        W41055  29.523  39.592   2.384
69330W        W41056  14.341  17.757   4.182
69331W        W41057  10.813  36.062   1.753
69332W        W41058  17.730  12.728   0.150
69333W        W41059  36.238  29.524   2.968
69334W        W41060  40.320  27.130   1.856
69335W        W41061  42.790   6.581   1.797
69336W        W41062   5.132   3.427   1.606
69337W        W41063  16.012  41.852  14.346
69338W        W41064  38.236  24.212  14.998
69339W        W41065  14.142  12.665   0.367
69340W        W41066  15.623  44.343  14.448
69341W        W41067  37.475  35.955   2.366
69342W        W41068  13.076  21.639  11.623
69343W        W41069  13.786  35.396  13.341
69344W        W41070  11.735  34.675  11.056
69345W        W41071  34.430  36.583   4.087
69346W        W41072  12.715  35.066   3.798
69347W        W41073  25.218  36.323   1.445
69348W        W41074  30.670  27.456   3.129
69349W        W41075   1.698  35.423   2.830
69350W        W41076  21.094  40.026   0.840
69351W        W41077  31.113  18.613   0.250
69352W        W41078   5.927   4.186   5.071
69353W        W41079  34.471  11.305   4.182
69354W        W41080  36.880  29.834  13.961
69355W        W41081  22.629   9.500   4.068
69356W        W41082  20.220  42.854   3.969
69357W        W41083  23.549  17.272  12.439
69358W        W41084  39.651  19.310   1.153
69359W        W41085  30.756  32.488  11.425
69360W        W41086   5.184  28.916  14.495
69361W        W41087  16.084   5.271   3.194
69362W        W41088  29.362  43.690   0.775
69363W        W41089  15.934  34.862   2.755
69364W        W41090  42.788  12.763   2.600
69365W        W41091  43.826  39.078  11.487
69366W        W41092  29.775  23.061   3.275
69367W        W41093  21.061  18.176  13.023
69368W        W41094   6.426  38.575   0.098
69369W        W41095  43.870   5.203  14.521
69370W        W41096  14.314  36.084  14.840
69371W        W41097  12.493   8.276   2.821
69372W        W41098   6.845  13.941  13.291
69373W        W41099  34.856  18.314  11.318
69374W        W41100  17.393  25.099  14.294
69375W        W41101  22.627  29.916  14.998
69376W        W41102  26.026  15.268   1.469
69377W        W41103  21.325  42.237  14.554
69378W        W41104  43.263   3.711  12.003
69379W        W41105   0.372  11.623  13.879
69380W        W41106   8.248  41.222   4.865
69381W        W41107  16.251   7.414  11.970
69382W        W41108  20.103  30.116   2.100
69383W        W41109   6.593  13.962  14.897
69384W        W41110  25.139  36.383   2.799
69385W        W41111  32.410  43.952  12.532
69386W        W41112  29.725  17.616   1.319
69387W        W41113   4.414  30.956  11.113
69388W        W41114  19.465  29.106   0.363
69389W        W41115   7.595  43.522   2.700
69390W        W41116  35.998   7.192  12.381
69391W        W41117  30.696  11.342   3.407
69392W        W41118  29.855   6.198   0.262
69393W        W41119  42.368  12.232   1.918
69394W        W41120  16.693   4.612   1.556
69395W        W41121   4.715   2.663  14.362
69396W        W41122  19.448  26.769   0.579
69397W        W41123  38.638  19.681  12.408
69398W        W41124  37.613  35.066  14.331
69399W        W41125  11.453  16.234   4.804
69400W        W41126  21.047  37.835   3.060
69401W        W41127  31.056  11.957  10.500
69402W        W41128   3.265  38.635   3.735
69403W        W41129  23.480  12.376  14.976
69404W        W41130  32.090  43.544   3.834
69405W        W41131  11.168  41.615  12.449
69406W        W41132  43.122  43.982   2.767
69407W        W41133   8.553  12.211  11.088
69408W        W41134  25.061  28.443   2.089
69409W        W41135   8.663   0.424  13.692
69410W        W41136  32.967   5.226  12.882
69411W        W41137  13.769   8.821   0.299
69412W        W41138  39.118  13.215  11.556
69413W        W41139  16.124  21.292  11.977
69414W        W41140  12.614  25.482  12.886
69415W        W41141  32.482  21.617   0.723
69416W        W41142  42.232  21.210  11.600
69417W        W41143  32.929  18.552  11.204
69418W        W41144  15.296   4.395   4.795
69419W        W41145  15.324  40.591   1.941
69420W        W41146  26.803  19.389  12.883
69421W        W41147  15.358  38.050   4.155
69422W        W41148  36.298  15.843  12.604
69423W        W41149  34.843   2.412   4.873
69424W        W41150  23.648  30.410  13.625
69425W        W41151   7.972   3.818  11.988
69426W        W41152  21.704  23.548   2.440
69427W        W41153  30.840   2.426  13.861
69428W        W41154  36.002   0.742  11.214
69429W        W41155  19.597  39.526  14.430
69430W        W41156   6.142  12.178  12.480
69431W        W41157  17.679   2.923   1.481
69432W        W41158  11.178  28.238  14.980
69433W        W41159  22.651  20.643  14.038
69434W        W41160  17.730  14.309  12.977
69435W        W41161  32.986  36.423  13.379
69436W        W41162  14.715  23.200   0.443
69437W        W41163  41.013  40.756  14.672
69438W        W41164  41.333   5.773  11.668
69439W        W41165   2.526  42.726  14.096
69440W        W41166  30.320  15.288  12.605
69441W        W41167  37.859   8.570   2.420
69442W        W41168   1.597   9.882   0.949
69443W        W41169  42.191  26.026  12.051
69444W        W41170   5.362  43.683  12.420
69445W        W41171  37.899   3.290  14.234
69446W        W41172  36.611  24.752  14.979
69447W        W41173  25.846  39.044   4.834
69448W        W41174   0.283  25.776   2.858
69449W        W41175  29.139  44.967  12.981
69450W        W41176  22.111  29.207  11.417
69451W        W41177   4.159  12.119  12.080
69452W        W41178  36.863  35.919  11.608
69453W        W41179  44.938   9.107  11.453
69454W        W41180  42.983  28.235   3.597
69455W        W41181  26.814  41.895   0.317
69456W        W41182  11.717  28.002  12.441
69457W        W41183  13.299  29.473   0.434
69458W        W41184  10.230  40.435  12.612
69459W        W41185   4.699  43.339  13.832
69460W        W41186  10.816  36.079   3.507
69461W        W41187  24.038   5.161  12.975
69462W        W41188   0.885  37.829   2.802
69463W        W41189  18.308  23.831   1.723
69464W        W41190  25.129  24.708   0.840
69465W        W41191   8.364  30.612  11.709
69466W        W41192  21.667  44.378  13.306
69467W        W41193  22.501  42.780   1.378
69468W        W41194  11.941  16.366   4.627
69469W        W41195  18.705  17.286   4.700
69470W        W41196  28.172   7.465   4.126
69471W        W41197   2.878  41.943  14.011
69472W        W41198  32.042  24.206   1.133
69473W        W41199  27.074  34.173   1.893
69474W        W41200  14.772  36.533  12.385
69475W        W41201   2.994  32.621  14.616
69476W        W41202  25.245   4.232  13.790
69477W        W41203  15.254  37.513   0.708
69478W        W41204  17.995  37.058   1.702
69479W        W41205  32.942  13.240   1.458
69480W        W41206   3.230  32.544   4.765
69481W        W41207  30.001   7.103  11.817
69482W        W41208  19.133  38.260  14.354
69483W        W41209  27.743  43.263   4.993
69484W        W41210  37.923  41.877   0.561
69485W        W41211  14.246   4.299  12.568
69486W        W41212  31.656   5.190  12.479
69487W        W41213   6.473  19.635   0.713
69488W        W41214   3.482   5.308  11.483
69489W        W41215  23.677   1.987   0.526
69490W        W41216  30.054  10.344  14.766
69491W        W41217   3.721  10.094  14.828
69492W        W41218   5.876  36.165  14.791
69493W        W41219  28.253  14.392   1.432
69494W        W41220  12.140  32.389  14.898
69495W        W41221  17.782  29.015   2.388
69496W        W41222  37.772   4.738  10.670
69497W        W41223  21.701  15.582   0.765
69498W        W41224   8.432  11.467   0.968
69499W        W41225  37.553  26.419   0.037
69500W        W41226  24.460   2.352   3.736
69501W        W41227  40.359  35.151   4.131
69502W        W41228   3.238  44.937  13.801
69503W        W41229  10.141  24.183  10.475
69504W        W41230  39.921   1.065  10.502
69505W        W41231  27.997  27.570  11.780
69506W        W41232  29.925  27.015  14.394
69507W        W41233  20.795  35.998  14.252
69508W        W41234  21.180  13.926  10.781
69509W        W41235   6.905  41.390  14.604
69510W        W41236  23.031   5.644  11.569
69511W        W41237  38.403   5.055  12.105
69512W        W41238  21.625  29.420  13.829
69513W        W41239  42.592  39.571  11.890
69514W        W41240  10.472  13.984  11.212
69515W        W41241  27.226  12.266   4.374
69516W        W41242   0.370  38.986   0.090
69517W        W41243   9.745  25.707   2.129
69518W        W41244   2.170   0.760  13.447
69519W        W41245  32.461  27.015  13.989
69520W        W41246  20.169  42.731  10.262
69521W        W41247   7.810  33.358  14.390
69522W        W41248  18.626  14.685  13.660
69523W        W41249   9.336  16.836   0.237
69524W        W41250   7.345   7.902  13.744
69525W        W41251   1.967  42.927   0.263
69526W        W41252  22.486  30.476   0.234
69527W        W41253  32.135  44.198  11.903
69528W        W41254  29.327   4.475   0.768
69529W        W41255   4.668  20.784  11.635
69530W        W41256  10.898   1.387   4.422
69531W        W41257  15.259  36.135   2.169
69532W        W41258   3.987  11.627   1.542
69533W        W41259  33.746  38.313   4.932
69534W        W41260  33.437  15.774   4.230
69535W        W41261  40.453  29.998   2.674
69536W        W41262  35.358   4.691  13.306
69537W        W41263  34.074  20.330  13.421
69538W        W41264   4.248   2.070  14.821
69539W        W41265  29.659  30.426   2.652
69540W        W41266  26.793  12.384  10.330
69541W        W41267  30.523   2.994   2.662
69542W        W41268  31.077  22.026   3.732
69543W        W41269  16.632  41.066   4.080
69544W        W41270  38.987  38.020   2.929
69545W        W41271  19.828  43.238  14.046
69546W        W41272  13.807  25.184  14.531
69547W        W41273  40.914  37.504  11.662
69548W        W41274   0.518  31.693  14.551
69549W        W41275  44.452   3.869   3.147
69550W        W41276  38.815  16.029   0.403
69551W        W41277  40.864  24.551  14.557
69552W        W41278  36.013  20.129  10.508
69553W        W41279  30.943  14.197  10.553
69554W        W41280  39.055  15.669   2.711
69555W        W41281  26.169  11.469  11.638
69556W        W41282  28.635   4.509   3.288
69557W        W41283  37.314  36.966  14.761
69558W        W41284  31.778  43.518  14.945
69559W        W41285  22.939  27.933  10.040
69560W        W41286   6.125  31.976   3.044
69561W        W41287  30.265  33.021  12.047
69562W        W41288  43.000   3.680   4.088
69563W        W41289   6.973  14.764  14.440
69564W        W41290  33.302  12.505  11.443
69565W        W41291  43.467  18.098  14.013
69566W        W41292  21.807  28.331  11.364
69567W        W41293  40.361  32.386   1.279
69568W        W41294  23.974   9.946  12.429
69569W        W41295  18.341  23.235  14.089
69570W        W41296   5.653  20.129   4.247
69571W        W41297  23.810  18.268  12.401
69572W        W41298  10.602  42.536  13.173
69573W        W41299  30.505  26.934  13.455
69574W        W41300  13.251   8.095   1.880
69575W        W41301  31.515  40.858   1.301
69576W        W41302  35.336  17.161  14.056
69577W        W41303  35.415  17.285  10.627
69578W        W41304  25.201  36.465   3.340
69579W        W41305  13.530  11.833   2.491
69580W        W41306  19.039  16.817   4.743
69581W        W41307   8.158  14.800  14.911
69582W        W41308  21.539  36.045  13.877
69583W        W41309  21.622  12.199   3.297
69584W        W41310  18.260  33.630   3.855
69585W        W41311  34.271  15.166   3.573
69586W        W41312  42.597  11.796  12.340
69587W        W41313  42.253  13.913  11.053
69588W        W41314  26.801  43.999  11.057
69589W        W41315  37.990  28.420   1.287
69590W        W41316  40.624  26.557   5.009
69591W        W41317  12.559  43.329  14.397
69592W        W41318  39.273  15.583   3.824
69593W        W41319  33.051  17.196   4.555
69594W        W41320  44.814  20.654  13.094
69595W        W41321  40.009  16.066   1.308
69596W        W41322  22.694  42.518   3.104
69597W        W41323  26.062   1.774   4.352
69598W        W41324  43.368  16.566   2.226
69599W        W41325  41.952  36.526   4.938
69600W        W41326  36.422  12.613   4.382
69601W        W41327  40.438  34.930   3.677
69602W        W41328  20.815   8.398  12.405
69603W        W41329   1.266  10.257   3.702
69604W        W41330  16.768  29.684  13.844
69605W        W41331   2.829  42.721   1.806
69606W        W41332   9.833   2.799   1.291
69607W        W41333   2.809  17.233  11.863
69608W        W41334  44.898  40.473   3.167
69609W        W41335  30.039   6.683   3.289
69610W        W41336  33.367  22.232   2.788
69611W        W41337  14.729   6.863  11.410
69612W        W41338  10.889   9.824  13.454
69613W        W41339  26.068   8.914  11.627
69614W        W41340   7.849   1.948  11.942
69615W        W41341  14.197  35.333   4.361
69616W        W41342  38.559  34.025  14.555
69617W        W41343   1.381   2.499  14.114
69618W        W41344  22.596   6.433  14.333
69619W        W41345  35.063  40.799   4.051
69620W        W41346  18.474  13.236   0.322
69621W        W41347   6.191  33.675  13.637
69622W        W41348   0.396  44.693   3.712
69623W        W41349  25.935  15.808   2.236
69624W        W41350  38.086  37.196   2.389
69625W        W41351  39.153   3.363  11.515
69626W        W41352  29.259   6.858   3.925
69627W        W41353  22.784  20.374  12.519
69628W        W41354   3.151  21.729   4.040
69629W        W41355  23.977  15.269  14.702
69630W        W41356   0.651   3.001  13.656
69631W        W41357   1.949  31.316  10.845
69632W        W41358  17.149  26.704   3.886
69633W        W41359   0.507  15.850   1.390
69634W        W41360   6.728  20.989  13.572
69635W        W41361  20.671  32.679  14.893
69636W        W41362  17.794  26.622  13.163
69637W        W41363   1.641  15.103   1.135
69638W        W41364  23.568  32.834  13.952
69639W        W41365   1.278  30.613  13.528
69640W        W41366  18.544  44.297  12.396
69641W        W41367  25.550   9.452  11.559
69642W        W41368  14.276  11.690   0.441
69643W        W41369  30.617   2.842  10.726
69644W        W41370  31.212  43.142  13.391
69645W        W41371  11.801   2.516   3.221
69646W        W41372  40.740  21.140   0.922
69647W        W41373  19.137  19.196   0.041
69648W        W41374  20.766   6.945  13.464
69649W        W41375  19.842  37.975  14.741
69650W        W41376  19.536  22.559  14.383
69651W        W41377  31.959   1.254   1.759
69652W        W41378  37.044  15.492   1.210
69653W        W41379   8.143  34.861   4.797
69654W        W41380   4.268  38.803  13.906
69655W        W41381  16.245  38.059   3.208
69656W        W41382  34.676  16.305   0.547
69657W        W41383  12.252  34.792  13.021
69658W        W41384  31.666  38.535   4.182
69659W        W41385   2.255  16.203   4.867
69660W        W41386  42.687  11.937  13.593
69661W        W41387   8.206   4.320  14.359
69662W        W41388  30.092  18.217   0.309
69663W        W41389  32.328  11.142   3.699
69664W        W41390   7.852   2.420   3.615
69665W        W41391   3.470   6.842  13.959
69666W        W41392  15.379  28.927   0.840
69667W        W41393  21.091  24.197   4.136
69668W        W41394  10.387   4.912  11.662
69669W        W41395  20.305   0.614   0.552
69670W        W41396   4.721   6.407   2.343
69671W        W41397  43.931  28.194  12.024
69672W        W41398  15.713   8.630  12.392
69673W        W41399  17.027  22.521  12.998
69674W        W41400  37.969  28.994  12.785
69675W        W41401   7.800   2.879  12.929
69676W        W41402  41.241  34.170  14.882
69677W        W41403  16.636   7.615  13.826
69678W        W41404  22.612  13.133  10.283
69679W        W41405  39.483  32.845  12.353
69680W        W41406   0.849  12.621   0.941
69681W        W41407  12.935  40.445  12.900
69682W        W41408  18.643  22.539   4.087
69683W        W41409  39.930  41.034  13.913
69684W        W41410  38.521  34.896  12.832
69685W        W41411  35.878  32.131   1.139
69686W        W41412  42.921   9.606   4.344
69687W        W41413  20.589  34.192   4.561
69688W        W41414  42.615  42.483  14.312
69689W        W41415  43.516   4.878   1.385
69690W        W41416  34.847  42.786  12.790
69691W        W41417  29.925   2.821  11.485
69692W        W41418   4.781  41.283   4.198
69693W        W41419  20.733   0.015   3.632
69694W        W41420  41.442  26.444   0.303
69695W        W41421  15.755  39.030  11.470
69696W        W41422   9.731  22.064  13.117
69697W        W41423   9.133  16.746  12.898
69698W        W41424  10.904  29.200  14.758
69699W        W41425  30.550  33.421  13.459
69700W        W41426  17.067  24.126   1.421
69701W        W41427   2.322  41.783  11.022
69702W        W41428  14.333  15.357   4.449
69703W        W41429  14.264  30.371  10.606
69704W        W41430  38.311  40.758  12.936
69705W        W41431  31.358  33.452   3.774
69706W        W41432   7.797  22.528  10.713
69707W        W41433  10.286  18.349   0.344
69708W        W41434  18.710   0.291  11.521
69709W        W41435  30.985  42.525   9.910
69710W        W41436  18.511   5.802  13.065
69711W        W41437  25.176  14.844   1.279
69712W        W41438  33.406  12.088  11.119
69713W        W41439  36.253  18.162  13.808
69714W        W41440  25.478  19.120   3.067
69715W        W41441   0.718  23.197   4.070
69716W        W41442   3.269  22.637  14.809
69717W        W41443  28.659   4.181  14.083
69718W        W41444   4.957  30.568   9.763
69719W        W41445  25.256  41.121   2.347
69720W        W41446  14.010  23.571   1.485
69721W        W41447  35.516  24.048  11.543
69722W        W41448  18.568  23.544  14.411
69723W        W41449  11.261  14.609   1.242
69724W        W41450  29.035  27.861  10.970
69725W        W41451  44.960  35.765  14.436
69726W        W41452   1.349  37.816  14.831
69727W        W41453  35.016  14.224   0.179
69728W        W41454  19.092  16.170  14.138
69729W        W41455  39.938  20.577   2.085
69730W        W41456  23.751  39.110   3.175
69731W        W41457  12.732  23.710   1.257
69732W        W41458  43.025  11.874  12.648
69733W        W41459  12.037  21.826   3.257
69734W        W41460  13.423   7.873   0.058
69735W        W41461  42.038  37.778   2.366
69736W        W41462  22.164  37.363   1.360
69737W        W41463  23.064  43.817   2.424
69738W        W41464   6.799   8.836   2.314
69739W        W41465  25.039  43.398   3.402
69740W        W41466  27.094  19.276   2.308
69741W        W41467  40.642   0.502   3.642
69742W        W41468  42.163  32.024   5.055
69743W        W41469  36.136  21.782   0.653
69744W        W41470   1.900  16.780  11.155
69745W        W41471  12.254  42.551   3.261
69746W        W41472  38.322  20.556  11.066
69747W        W41473   5.266  11.629  12.984
69748W        W41474  16.601  14.565  14.481
69749W        W41475  24.642  39.890  12.915
69750W        W41476  14.882   1.628   0.618
69751W        W41477  39.004   1.883   0.428
69752W        W41478  14.421  19.496   4.115
69753W        W41479  13.454  24.043  13.131
69754W        W41480  18.573   1.571   1.162
69755W        W41481  18.028  44.609   9.689
69756W        W41482   0.284   3.211  11.417
69757W        W41483   4.110  38.336   0.944
69758W        W41484   5.697  38.388   1.330
69759W        W41485  40.453   9.744  10.890
69760W        W41486  32.938   8.436   0.055
69761W        W41487  11.772  31.405  11.534
69762W        W41488  43.731  29.291  13.003
69763W        W41489   9.963   0.011  13.931
69764W        W41490  10.355  24.023   0.700
69765W        W41491   8.791  27.111   1.207
69766W        W41492   9.886  23.249   3.305
69767W        W41493   2.876  26.691  13.971
69768W        W41494  15.624   4.383  12.069
69769W        W41495  39.837  23.204   3.698
69770W        W41496  11.507  14.204   4.123
69771W        W41497  37.858  31.506   4.162
69772W        W41498  17.975  31.823   2.262
69773W        W41499   4.608  10.221   3.606
69774W        W41500  11.320  17.508  12.109
69775W        W41501  34.810  20.273  13.816
69776W        W41502  12.267   9.153  12.133
69777W        W41503  30.432   1.957  11.645
69778W        W41504  32.709  42.365  11.935
69779W        W41505  19.196  40.978   0.827
69780W        W41506  13.229  20.769   3.895
69781W        W41507  38.658  11.108   4.274
69782W        W41508  30.462  30.599  13.332
69783W        W41509  35.859   4.980   4.251
69784W        W41510  18.308  19.036   3.867
69785W        W41511  42.545  10.727  11.391
69786W        W41512  17.291  28.964  13.277
69787W        W41513  18.849  40.343  12.440
69788W        W41514   5.467   4.808   2.329
69789W        W41515  16.113  34.219  11.466
69790W        W41516  15.209  11.544   0.848
69791W        W41517  42.083  40.519   1.740
69792W        W41518  16.199  21.342   3.686
69793W        W41519  33.918  41.571   4.599
69794W        W41520   0.864  17.957   4.904
69795W        W41521  41.897  27.593  12.430
69796W        W41522  19.312   9.712   4.437
69797W        W41523   8.394  41.523   4.467
69798W        W41524  28.470  13.630   4.813
69799W        W41525  26.316  33.811  12.179
69800W        W41526  34.806  36.106  13.901
69801W        W41527  40.849  30.415  10.666
69802W        W41528  22.087  15.136  11.416
69803W        W41529  12.548  42.819   3.602
69804W        W41530  27.212  39.061  14.358
69805W        W41531  37.571  41.271   1.289
69806W        W41532  21.325  28.339  11.536
69807W        W41533  35.416   9.729   4.072
69808W        W41534  26.588   2.391   3.861
69809W        W41535  24.676  42.676  10.764
69810W        W41536   8.381   6.725  13.053
69811W        W41537   6.568   9.333  10.620
69812W        W41538  32.877  32.090  13.991
69813W        W41539  32.587  42.242   2.767
69814W        W41540   7.880   4.829   4.639
69815W        W41541  17.107  44.910   1.210
69816W        W41542  26.178  23.664   2.890
69817W        W41543  36.910  22.262  13.557
69818W        W41544   3.692  35.609   1.317
69819W        W41545  11.272  30.436   1.615
69820W        W41546  28.499   7.345  10.911
69821W        W41547  29.623  40.948  11.485
69822W        W41548   2.924   2.899  10.741
69823W        W41549  31.657   1.836  13.051
69824W        W41550  32.027  33.128  12.671
69825W        W41551   6.211  33.168   3.649
69826W        W41552  20.041  12.637   4.664
69827W        W41553  10.404  28.803   1.810
69828W        W41554  23.460  31.662   4.144
69829W        W41555  30.801  44.990   4.011
69830W        W41556  43.576  20.480   0.528
69831W        W41557  32.959   5.764   1.375
69832W        W41558  16.573  19.004  13.935
69833W        W41559  10.111  20.263  13.109
69834W        W41560  20.953  27.592   3.690
69835W        W41561  15.795  21.103   3.305
69836W        W41562   6.258  32.636   0.591
69837W        W41563   7.673   3.271  11.670
69838W        W41564   8.273  14.882  12.324
69839W        W41565  30.561   7.840   0.662
69840W        W41566  22.213  41.978  14.548
69841W        W41567  42.342   5.448  12.958
69842W        W41568  27.490   4.404  10.887
69843W        W41569  36.800  26.601  12.043
69844W        W41570  31.760  43.238  10.751
69845W        W41571  33.236  12.590  11.990
69846W        W41572  36.150  42.963   0.270
69847W        W41573  32.218  38.842  13.271
69848W        W41574  32.604  27.448  14.233
69849W        W41575  15.357   5.207   1.858
69850W        W41576  43.301  32.216   0.281
69851W        W41577   4.280  13.566  13.488
69852W        W41578  44.829   2.197   2.958
69853W        W41579  32.651  27.560  10.671
69854W        W41580   9.320  30.071   3.060
69855W        W41581  10.187  15.628   1.256
69856W        W41582  14.380  31.434   3.416
69857W        W41583   7.826  37.772   3.912
69858W        W41584  17.684  37.036   1.230
69859W        W41585  12.791  34.131  12.820
69860W        W41586   8.559  43.598   3.639
69861W        W41587   4.644   1.344   2.338
69862W        W41588  17.399  37.016   3.142
69863W        W41589   8.410  24.107   3.272
69864W        W41590  20.221  36.688   0.796
69865W        W41591   3.563  19.700  12.909
69866W        W41592  28.936   5.718   0.329
69867W        W41593  17.572  19.470  12.682
69868W        W41594  11.263  28.247  14.098
69869W        W41595   1.423   4.360  12.248
69870W        W41596  18.334  11.349   0.997
69871W        W41597  35.577  33.929  10.705
69872W        W41598  20.724  28.653   1.028
69873W        W41599  22.150  43.342   2.386
69874W        W41600  35.616  33.517  11.119
69875W        W41601  21.784   5.462  10.936
69876W        W41602   7.622  12.487   0.009
69877W        W41603   9.740  30.792  12.932
69878W        W41604  41.037  31.483  14.031
69879W        W41605  39.374   8.306  14.263
69880W        W41606  34.281  33.581  12.715
69881W        W41607  27.940  40.373   4.713
69882W        W41608   2.383   9.609  13.320
69883W        W41609  42.722   5.107  12.943
69884W        W41610  27.436  13.479  14.615
69885W        W41611  11.270  15.743   4.660
69886W        W41612  29.839  36.793  12.886
69887W        W41613  43.361  19.663  14.892
69888W        W41614  35.939  25.373   4.087
69889W        W41615  19.146  39.286  14.441
69890W        W41616  44.796  23.231  10.875
69891W        W41617  22.597  36.802   0.772
69892W        W41618   9.772  32.026   0.292
69893W        W41619  41.457  15.797   3.119
69894W        W41620   5.886   7.281   3.663
69895W        W41621  32.145  34.968   3.314
69896W        W41622   4.353  36.823   0.949
69897W        W41623  17.091  12.564  12.044
69898W        W41624  27.574   3.574   1.917
69899W        W41625  36.534  41.002   4.691
69900W        W41626  39.155  27.572   0.709
69901W        W41627   2.975   2.528   1.339
69902W        W41628   8.461  18.951  12.535
69903W        W41629  44.553  16.088  12.811
69904W        W41630  10.419   0.482  14.826
69905W        W41631   8.242  36.421  11.722
69906W        W41632  17.094  44.683  13.454
69907W        W41633  10.841  36.468  10.274
69908W        W41634  20.130   1.155  14.869
69909W        W41635  39.517  29.496  14.287
69910W        W41636  15.655   1.361   3.414
69911W        W41637  20.387  32.589   2.398
69912W        W41638  16.595  26.246   0.552
69913W        W41639  25.663  24.344  13.525
69914W        W41640   9.673  42.373   1.715
69915W        W41641  21.773  36.505   2.421
69916W        W41642  13.368  43.063   2.279
69917W        W41643  27.515  34.097  14.286
69918W        W41644  11.956  30.604   4.857
69919W        W41645  34.443  40.145   2.738
69920W        W41646  31.828  30.094   2.213
69921W        W41647  36.069  12.204   2.384
69922W        W41648  32.072  25.544  13.035
69923W        W41649  41.528  38.807   1.338
69924W        W41650  10.473  43.131   3.276
69925W        W41651  17.747  43.378  13.364
69926W        W41652  17.671   1.051   0.883
69927W        W41653  18.542  28.933   5.062
69928W        W41654  12.744  24.627  11.586
69929W        W41655  38.893  19.677   3.017
69930W        W41656  30.210  34.472   1.459
69931W        W41657  12.697  19.203  12.661
69932W        W41658   6.880  37.183   0.016
69933W        W41659   9.094  33.575   5.413
69934W        W41660  39.286  39.873  11.647
69935W        W41661  37.112   0.037   3.278
69936W        W41662  18.446  36.932   2.855
69937W        W41663   5.255  16.185  13.813
69938W        W41664  15.213  37.260   4.521
69939W        W41665  24.080   9.360  10.446
69940W        W41666  30.440   1.372   2.602
69941W        W41667  10.574   0.430   1.265
69942W        W41668   6.448  29.370   0.023
69943W        W41669  28.630  42.809  10.940
69944W        W41670  25.080  20.535  12.185
69945W        W41671  39.532   6.848   2.414
69946W        W41672  11.196  30.312  14.869
69947W        W41673  29.558  41.569   2.138
69948W        W41674   6.022  18.262   1.968
69949W        W41675  12.329  29.136   3.816
69950W        W41676  12.357  30.395   0.229
69951W        W41677  35.864  17.041   2.688
69952W        W41678   4.127   5.672  11.164
69953W        W41679  30.116  33.961  11.192
69954W        W41680  28.067  20.981  13.358
69955W        W41681   7.135  32.385  14.364
69956W        W41682  23.497   7.389   3.722
69957W        W41683   9.081  37.600  12.669
69958W        W41684  24.890  18.742  14.740
69959W        W41685  25.182  23.488   3.767
69960W        W41686  11.808  20.739   3.252
69961W        W41687   3.434  19.075   4.115
69962W        W41688  24.165  38.896  14.047
69963W        W41689  34.545  29.967  10.413
69964W        W41690  34.270  11.689  14.837
69965W        W41691   5.688  33.146  10.669
69966W        W41692  17.216  39.460  11.262
69967W        W41693  17.809  41.782  14.210
69968W        W41694  37.756  11.651   5.210
69969W        W41695   5.677  28.370  12.411
69970W        W41696  40.409  34.891  13.256
69971W        W41697   7.919   1.012   0.930
69972W        W41698  37.050  14.678  14.790
69973W        W41699  15.025  20.117  14.497
69974W        W41700  37.700  39.080  11.011
69975W        W41701  30.680  23.912   0.704
69976W        W41702  31.975  17.639  12.089
69977W        W41703  25.611   9.183  14.836
69978W        W41704  23.250  43.961   1.931
69979W        W41705  27.254   7.902   4.429
69980W        W41706  34.823   3.714  14.409
69981W        W41707  11.337   2.235   3.271
69982W        W41708  33.570   8.721   2.799
69983W        W41709  19.038   8.206  11.943
69984W        W41710  13.316  32.060   2.162
69985W        W41711  39.127  41.488   0.400
69986W        W41712  15.880  10.767   0.413
69987W        W41713  35.662  33.459   2.168
69988W        W41714   9.928  10.194   2.340
69989W        W41715   5.409  39.839  12.045
69990W        W41716  11.151  27.095   3.651
69991W        W41717  39.959   6.175  13.662
69992W        W41718  36.214  15.386  12.877
69993W        W41719  17.746  44.918  14.859
69994W        W41720   9.882   9.990   4.148
69995W        W41721  36.884   2.353  12.139
69996W        W41722  34.437  16.912   5.084
69997W        W41723   0.527  27.225   2.862
69998W        W41724  38.524   9.828  14.841
69999W        W41725  42.234  33.991  11.918
70000W        W41726  32.340  23.416  10.230
70001W        W41727  31.130  32.170   3.869
70002W        W41728  23.234  35.330   2.874
70003W        W41729  12.831  34.398   0.033
70004W        W41730  36.615  40.881   0.408
70005W        W41731  20.032   4.344   2.878
70006W        W41732  40.901  30.846  12.960
70007W        W41733  24.755   0.206   1.665
70008W        W41734  34.499  10.838   4.379
70009W        W41735   4.307  20.586  10.933
70010W        W41736  11.108  39.855  12.069
70011W        W41737  37.984  33.823   2.350
70012W        W41738  32.487   2.024  10.816
70013W        W41739  16.157  26.278  11.464
70014W        W41740   9.778   3.873  11.650
70015W        W41741  41.798  44.091   2.849
70016W        W41742  18.620  30.111  10.613
70017W        W41743  15.263  32.544   3.606
70018W        W41744  29.627   9.114  11.093
70019W        W41745  13.772  17.283   0.923
70020W        W41746  20.291  32.502   0.236
70021W        W41747   0.307  11.029  13.349
70022W        W41748   7.192  21.455  11.957
70023W        W41749  44.059  17.627  14.345
70024W        W41750  11.336  34.946  10.626
70025W        W41751  12.354  17.123  11.651
70026W        W41752  26.719  38.373   2.793
70027W        W41753  29.247   0.131   0.343
70028W        W41754  22.666   2.249  12.761
70029W        W41755  16.416  30.156   3.626
70030W        W41756   5.915  41.411  11.377
70031W        W41757  44.414  17.171  14.018
70032W        W41758   3.201  39.546   1.323
70033W        W41759   1.870  22.217   1.904
70034W        W41760  42.591  41.238   2.270
70035W        W41761  18.211  17.185   0.862
70036W        W41762  11.237  28.324   4.612
70037W        W41763  12.224  19.301   4.600
70038W        W41764   5.010  43.265  10.395
70039W        W41765   2.097  18.854   2.442
70040W        W41766  28.621  13.201  12.008
70041W        W41767  27.371  44.885  11.429
70042W        W41768  10.724  37.568   2.239
70043W        W41769   2.129  20.945   0.861
70044W        W41770   3.960  15.277  11.142
70045W        W41771  10.290  21.684   2.937
70046W        W41772   4.228  30.963   1.967
70047W        W41773   9.234  21.486   1.442
70048W        W41774  12.296  28.294   0.395
70049W        W41775  39.823  32.084  10.961
70050W        W41776   0.803  20.585  14.682
70051W        W41777   3.740  20.059  13.836
70052W        W41778  20.888  25.713  10.246
70053W        W41779  27.907   2.717   3.123
70054W        W41780  36.310  31.088   1.889
70055W        W41781   7.351  38.952   0.510
70056W        W41782  28.772  18.798  13.299
70057W        W41783   6.775  20.088   4.819
70058W        W41784  36.152  36.004   2.806
70059W        W41785  37.136   8.896  11.159
70060W        W41786  13.638  18.683   4.632
70061W        W41787  23.714   5.774   2.312
70062W        W41788  20.675  24.024  10.337
70063W        W41789  33.688  22.400   2.413
70064W        W41790  29.755  43.348   1.879
70065W        W41791  10.119   7.625  11.038
70066W        W41792  14.214  12.001  11.688
70067W        W41793  30.895  20.706  12.394
70068W        W41794  24.594  28.534   4.573
70069W        W41795  15.051  18.683  12.545
70070W        W41796  41.982  29.138   1.293
70071W        W41797  34.026  16.833   1.522
70072W        W41798  17.693   7.774   1.373
70073W        W41799  35.391   3.507   3.528
70074W        W41800  19.527  44.178  11.572
70075W        W41801  29.541  25.222   0.731
70076W        W41802  13.750   4.249   1.190
70077W        W41803  36.785  29.769  11.975
70078W        W41804  31.883  33.515   1.902
70079W        W41805  33.336  20.004  13.901
70080W        W41806  13.785  28.648   4.429
70081W        W41807  10.682  37.927  13.403
70082W        W41808  33.000  43.053  10.908
70083W        W41809  36.264  11.733   2.254
70084W        W41810  15.982  34.437  11.028
70085W        W41811  41.024   0.326   3.929
70086W        W41812  15.354  28.510  10.776
70087W        W41813  43.409  28.014   0.441
70088W        W41814   6.499  34.873  13.023
70089W        W41815   6.782  35.647   0.018
70090W        W41816  15.103  21.101  10.478
70091W        W41817  36.426  19.083  13.685
70092W        W41818  16.587   1.034  11.053
70093W        W41819  17.255  22.075  13.202
70094W        W41820  17.599  32.099   1.974
70095W        W41821  29.806  32.068   2.104
70096W        W41822  22.037  28.090  13.918
70097W        W41823   9.225  40.228  11.974
70098W        W41824  26.049  37.742  12.607
70099W        W41825  25.439  26.573  11.125
70100W        W41826  34.062   5.476  12.490
70101W        W41827  24.636  22.043   0.783
70102W        W41828   5.987  35.887  12.766
70103W        W41829   5.249  26.149   1.681
70104W        W41830  37.515  40.061  14.856
70105W        W41831  31.085   8.673   0.696
70106W        W41832  14.231   0.212  14.623
70107W        W41833  23.450  25.075   1.293
70108W        W41834   1.324   4.245  13.534
70109W        W41835   4.272  41.019   2.151
70110W        W41836  27.570  30.970   4.542
70111W        W41837  34.962   7.292   1.213
70112W        W41838  41.028   3.355  14.287
70113W        W41839   3.935  20.215   0.328
70114W        W41840  11.457  29.437   5.065
70115W        W41841  11.722  41.372   0.898
70116W        W41842  13.172   6.938  14.964
70117W        W41843   2.126  35.291  13.459
70118W        W41844  42.336  21.945  11.146
70119W        W41845   4.183   8.841  14.090
70120W        W41846   6.956  34.604  12.877
70121W        W41847   9.377  20.684   3.310
70122W        W41848   4.924  32.177  11.623
70123W        W41849  38.505  31.201  12.954
70124W        W41850  31.792  42.508   3.772
70125W        W41851  40.101   1.498  10.230
70126W        W41852   6.440  40.960   0.263
70127W        W41853   1.862   2.323  14.185
70128W        W41854  24.941  11.839   2.115
70129W        W41855  44.680  17.342   3.843
70130W        W41856  26.626  22.370   4.473
70131W        W41857  39.492  16.514   0.993
70132W        W41858  37.104  14.744  10.431
70133W        W41859  42.012  37.277  12.551
70134W        W41860  42.735  24.691   0.829
70135W        W41861  12.084  44.400   1.412
70136W        W41862  34.998  29.980   3.346
70137W        W41863  28.904  13.423  12.393
70138W        W41864  24.490  40.886  11.667
70139W        W41865   9.102   7.309  10.664
70140W        W41866  24.127   3.462  10.611
70141W        W41867  32.984  37.882   4.392
70142W        W41868  41.983  17.246  10.803
70143W        W41869  37.562   0.171   0.631
70144W        W41870  22.053   3.839  11.913
70145W        W41871  12.795  23.584  11.580
70146W        W41872  21.633  38.201   3.149
70147W        W41873  33.200  39.491  13.952
70148W        W41874  15.307  39.818  13.513
70149W        W41875  44.812   9.132  11.985
70150W        W41876  38.088   8.075   2.567
70151W        W41877  32.333  20.294  12.146
70152W        W41878  20.251  36.948   1.246
70153W        W41879  28.387  44.835   2.794
70154W        W41880  22.717  38.882  12.629
70155W        W41881  26.972  39.882  14.376
70156W        W41882  40.888   2.917   1.541
70157W        W41883  44.302  33.508   4.482
70158W        W41884  27.194  40.879   2.688
70159W        W41885  32.464   7.755  13.053
70160W        W41886   2.186  22.629   1.896
70161W        W41887  14.541  27.992   2.058
70162W        W41888  22.070  19.102  10.733
70163W        W41889  17.167   3.199   0.263
70164W        W41890  29.389  15.860   4.609
70165W        W41891  42.824  19.002   0.905
70166W        W41892  37.853  17.784  12.461
70167W        W41893  20.400  28.938  14.229
70168W        W41894  10.110  25.910  14.374
70169W        W41895  20.168  41.151   3.724
70170W        W41896   9.676  10.349  14.788
70171W        W41897   8.189   5.327  12.349
70172W        W41898  25.965  36.844  10.834
70173W        W41899  27.805  35.144   4.973
70174W        W41900  25.266  35.332  10.719
70175W        W41901  12.421  14.278  14.233
70176W        W41902  33.065  41.890   0.599
70177W        W41903  31.619  12.160   2.836
70178W        W41904  25.917  23.616  13.298
70179W        W41905   0.955   0.371   2.719
70180W        W41906  16.761   1.509  13.442
70181W        W41907   1.860   2.997   4.594
70182W        W41908   9.479  20.506  11.207
70183W        W41909  11.403  34.310  10.950
70184W        W41910  36.649   9.442   3.034
70185W        W41911  27.731  13.148  13.892
70186W        W41912  39.241  33.351  10.538
70187W        W41913  16.164   6.769  12.532
70188W        W41914   6.164  10.837   2.802
70189W        W41915  26.905  19.241   0.064
70190W        W41916  21.549  44.406  12.812
70191W        W41917  11.825  20.638  10.915
70192W        W41918  32.134  16.061   2.411
70193W        W41919   9.169  23.421  13.448
70194W        W41920  21.249  27.711  13.743
70195W        W41921  40.299  26.499   4.612
70196W        W41922  26.727  24.456   0.377
70197W        W41923  43.451  26.458   3.115
70198W        W41924  10.842  44.990   1.372
70199W        W41925   1.913   1.458   0.887
70200W        W41926  43.457   3.868   0.073
70201W        W41927  26.147   7.872   0.908
70202W        W41928  24.036   6.499   2.567
70203W        W41929  23.143  24.300  13.580
70204W        W41930  21.282   6.999   4.157
70205W        W41931  24.191   6.375  14.767
70206W        W41932  11.711  23.967   9.883
70207W        W41933  31.473  35.438  14.346
70208W        W41934  30.346  42.406   4.081
70209W        W41935   8.115  31.720   4.658
70210W        W41936  36.987   1.505   3.771
70211W        W41937   9.843   8.442   3.698
70212W        W41938  22.758  38.771   5.042
70213W        W41939   3.954  31.413  13.808
70214W        W41940  31.069  14.253   3.447
70215W        W41941  18.092   0.787  13.335
70216W        W41942  18.174  28.507   0.732
70217W        W41943  34.814  30.075  10.834
70218W        W41944  25.649  35.554   3.709
70219W        W41945  38.908  20.847   4.817
70220W        W41946   0.780  22.537  13.531
70221W        W41947  21.359   8.034   5.067
70222W        W41948   0.654  34.604   4.161
70223W        W41949  31.634  19.699   0.980
70224W        W41950  30.881  28.506   2.374
70225W        W41951  39.489  16.072  12.882
70226W        W41952  11.519   1.764  12.416
70227W        W41953  32.099  28.541   0.215
70228W        W41954   7.376   1.472  13.812
70229W        W41955   9.254  19.506   2.954
70230W        W41956   9.712  25.209   4.338
70231W        W41957  13.658  44.219   4.621
70232W        W41958   7.327  18.758   0.655
70233W        W41959  14.818  41.754  11.161
70234W        W41960  23.963  26.300  10.524
70235W        W41961  20.761  25.421  11.634
70236W        W41962   5.210  12.741  14.446
70237W        W41963  15.011  34.049   2.301
70238W        W41964  10.557  37.912  14.736
70239W        W41965  17.041   8.247  12.119
70240W        W41966  35.555  38.451  12.271
70241W        W41967   6.326  17.983   1.643
70242W        W41968   8.830  26.441  13.712
70243W        W41969  29.090   1.513   3.718
70244W        W41970   9.893  38.101   3.193
70245W        W41971  34.411  33.594   3.801
70246W        W41972  33.402  17.522  12.063
70247W        W41973  44.415  43.370  10.775
70248W        W41974  29.050  37.950  10.740
70249W        W41975  44.450  44.587   3.825
70250W        W41976  16.326  23.668   2.926
70251W        W41977  21.588  23.703  12.438
70252W        W41978  27.495  10.636   1.608
70253W        W41979  38.785   8.768   4.061
70254W        W41980  29.913  34.678  10.552
70255W        W41981   6.007  30.906   3.802
70256W        W41982  34.188  41.383   0.924
70257W        W41983  27.735  35.976   0.050
70258W        W41984  11.708   1.043  10.500
70259W        W41985  32.127  16.819  13.865
70260W        W41986  26.036  22.792   1.287
70261W        W41987   1.216  29.994  12.026
70262W        W41988  29.154   2.390   4.362
70263W        W41989  23.718   9.457  13.002
70264W        W41990  24.640  16.256  13.943
70265W        W41991  31.001  32.146   4.364
70266W        W41992  44.284   9.881   1.218
70267W        W41993   3.675  18.119  10.573
70268W        W41994   2.196  36.933  13.058
70269W        W41995  17.785  36.250  12.209
70270W        W41996  25.338  38.253   4.477
70271W        W41997  29.593  36.179  12.563
70272W        W41998  27.976  32.179  14.973
70273W        W41999  36.972   3.169   0.039
70274W        W42000  31.111  35.311   3.848
70275W        W42001  37.453  10.573  13.196
70276W        W42002  16.827   5.434  13.375
70277W        W42003  12.997  20.871  10.257
70278W        W42004  36.395  32.948  11.841
70279W        W42005  22.690  38.270   4.880
70280W        W42006  32.902   1.833  13.437
70281W        W42007  28.689  39.854  13.814
70282W        W42008   7.724   8.598   1.678
70283W        W42009  21.623  11.703   4.138
70284W        W42010  21.571  24.460  11.108
70285W        W42011  25.148  21.528   4.746
70286W        W42012  12.140  29.923   3.135
70287W        W42013  34.886  28.490  11.582
70288W        W42014  31.486  38.030   0.732
70289W        W42015  18.340  23.137   4.673
70290W        W42016  40.235  18.321  11.841
70291W        W42017  39.829  15.163   0.942
70292W        W42018   5.352  37.521  13.079
70293W        W42019  40.011  24.978   4.091
70294W        W42020   5.085  28.563  10.720
70295W        W42021  11.337   3.003  12.050
70296W        W42022   3.367  25.368  13.714
70297W        W42023  20.554  34.149   1.862
70298W        W42024  18.273  13.106   3.161
70299W        W42025  27.170  26.415  10.631
70300W        W42026  38.862  44.411  12.826
70301W        W42027   9.562  22.766   0.753
70302W        W42028  14.029  41.911  12.085
70303W        W42029  39.401  28.008   1.735
70304W        W42030  22.500   4.527   1.846
70305W        W42031   1.830  12.719  13.441
70306W        W42032   5.123  24.517  11.431
70307W        W42033   3.659   7.568   1.889
70308W        W42034  37.546  21.965  14.701
70309W        W42035   7.485  19.248   0.490
70310W        W42036  12.334  10.799  14.498
70311W        W42037  14.386  42.722   3.426
70312W        W42038  17.077  42.736   2.903
70313W        W42039   2.385  15.093   3.809
70314W        W42040  14.757  37.311  11.626
70315W        W42041  41.464  10.819   0.999
70316W        W42042  12.417   0.893  11.822
70317W        W42043   7.386   6.170   4.703
70318W        W42044  30.914   4.344   2.673
70319W        W42045  16.667  35.065   2.098
70320W        W42046  18.617  17.816   3.084
70321W        W42047   9.196  12.875   1.787
70322W        W42048  25.734  28.110  12.752
70323W        W42049  35.555   6.601  11.113
70324W        W42050  34.317  22.028  14.500
70325W        W42051  22.009  33.335   2.645
70326W        W42052  43.478  40.341   3.227
70327W        W42053  11.856  39.382   1.911
70328W        W42054  16.534  11.745   0.853
70329W        W42055  41.262  30.424   3.639
70330W        W42056   9.148  25.441   5.068
70331W        W42057  41.379  20.602  14.412
70332W        W42058  24.392  15.701  12.036
70333W        W42059  33.381  15.715   2.326
70334W        W42060  36.475  29.135   4.266
70335W        W42061  41.283  44.138   4.218
70336W        W42062   0.781  24.756  13.530
70337W        W42063   4.271  11.349  12.586
70338W        W42064  35.924   3.706   1.378
70339W        W42065   2.242  37.033   2.415
70340W        W42066  37.662   2.849   0.799
70341W        W42067  28.160  19.576   1.418
70342W        W42068  17.539  42.417  12.960
70343W        W42069  23.916  13.583   3.860
70344W        W42070  22.064   1.445   2.730
70345W        W42071  20.277   0.328  13.610
70346W        W42072  37.085  16.060   3.872
70347W        W42073  12.314  30.151  11.447
70348W        W42074  23.799  30.636  12.409
70349W        W42075  12.204  30.862   0.040
70350W        W42076  39.927  22.059  10.832
70351W        W42077  11.413  22.925   5.380
70352W        W42078  43.947  23.898   0.496
70353W        W42079  32.181   9.384   3.823
70354W        W42080  35.048  25.660   0.800
70355W        W42081  13.879   3.373   0.671
70356W        W42082  41.756  24.092   4.835
70357W        W42083   1.691  10.644   0.448
70358W        W42084   9.676  36.796  13.584
70359W        W42085  19.685  28.065  10.652
70360W        W42086  17.182  34.640   3.790
70361W        W42087  13.197  11.950   2.883
70362W        W42088   9.632  37.350   2.866
70363W        W42089   0.194   4.247  14.030
70364W        W42090  20.198  29.109  11.461
70365W        W42091   4.410  19.141   3.841
70366W        W42092  32.652  31.041   0.399
70367W        W42093   7.856  37.275   1.311
70368W        W42094  29.222   8.430   3.165
70369W        W42095   0.533  24.292  13.479
70370W        W42096  15.573   4.789  11.079
70371W        W42097  39.904  13.923  11.497
70372W        W42098  25.545  41.845   0.505
70373W        W42099  10.234  25.152  12.960
70374W        W42100  17.157  13.100   3.594
70375W        W42101  38.942  27.996   0.996
70376W        W42102  40.330   7.813  14.604
70377W        W42103  43.069  25.111   0.366
70378W        W42104  29.157  31.467  14.241
70379W        W42105  18.204   4.194   1.964
70380W        W42106  20.070  24.818  11.009
70381W        W42107  22.216  12.269  12.821
70382W        W42108  37.118  20.786  12.567
70383W        W42109  26.205  42.321  12.801
70384W        W42110  37.450  40.800   1.467
70385W        W42111  23.226  42.904  12.535
70386W        W42112  41.480  27.209   3.718
70387W        W42113  39.753  29.956  11.554
70388W        W42114  33.646  21.571  10.347
70389W        W42115   0.301  17.606  10.978
70390W        W42116  15.742   1.196  14.876
70391W        W42117  23.001  34.500   4.221
70392W        W42118  36.625  20.724   4.608
70393W        W42119   5.124  39.442   4.130
70394W        W42120   2.898  29.025   4.525
70395W        W42121  14.331  25.528   4.552
70396W        W42122  28.225  33.971  13.397
70397W        W42123  15.254   4.615  12.916
70398W        W42124  37.528   3.342   5.162
70399W        W42125  22.201   1.417   1.667
70400W        W42126  22.515   1.934   3.255
70401W        W42127   1.922   9.910  10.612
70402W        W42128  30.603  39.306   4.316
70403W        W42129  33.479  27.561   1.010
70404W        W42130  41.831  31.814   1.367
70405W        W42131  15.488  18.958  11.959
70406W        W42132   2.031  22.274  12.036
70407W        W42133  36.344  18.641  11.176
70408W        W42134  25.956  21.545   1.861
70409W        W42135  32.631   9.696   1.591
70410W        W42136  32.929  35.522   4.835
70411W        W42137  11.268   8.754   1.406
70412W        W42138  23.330   3.755   0.020
70413W        W42139  17.644  35.577  14.482
70414W        W42140  23.868  23.924  13.302
70415W        W42141  15.665  16.560  14.025
70416W        W42142  10.547  39.347   0.353
70417W        W42143  25.024  13.942  14.793
70418W        W42144  13.093  32.104  14.923
70419W        W42145  18.538  36.204  13.862
70420W        W42146  22.615  18.112  13.327
70421W        W42147   9.692  10.898  12.579
70422W        W42148   0.751  44.548   3.176
70423W        W42149  29.073  41.928  11.141
70424W        W42150  12.607  44.953   0.918
70425W        W42151  11.799  29.229   1.668
70426W        W42152  32.587  24.321   1.861
70427W        W42153   9.219  37.733   3.663
70428W        W42154  38.327   3.908   1.072
70429W        W42155   9.888  38.628  10.104
70430W        W42156  13.425  36.784   1.989
70431W        W42157  28.142  13.309   1.868
70432W        W42158  35.597  30.541   4.014
70433W        W42159  15.731  24.045  11.499
70434W        W42160  34.466  27.599   4.525
70435W        W42161  37.510   1.700  13.631
70436W        W42162  23.098  36.903   3.796
70437W        W42163  24.716   4.775  14.997
70438W        W42164   5.735   4.730   3.794
70439W        W42165  28.329  40.886   1.956
70440W        W42166   5.957  26.391   2.731
70441W        W42167  25.036  18.018   1.930
70442W        W42168  17.086  22.609  12.477
70443W        W42169   9.241  18.333   4.973
70444W        W42170  29.278  31.143  12.856
70445W        W42171  37.485  34.146  11.695
70446W        W42172  39.577   4.541  11.055
70447W        W42173  37.082  32.898  11.170
70448W        W42174  35.529   5.878   1.861
70449W        W42175   7.088   8.315   0.322
70450W        W42176  26.412  42.757   1.381
70451W        W42177  29.065  17.279   3.043
70452W        W42178   1.234  20.996   0.646
70453W        W42179  17.667  13.204  14.919
70454W        W42180   1.724  25.758   2.340
70455W        W42181  13.092  22.109  14.996
70456W        W42182  16.339  27.294  11.503
70457W        W42183   3.810  29.245   0.905
70458W        W42184  34.205   0.759   1.936
70459W        W42185  31.865  22.676  13.083
70460W        W42186  33.129  38.481   1.406
70461W        W42187  44.398   1.590   0.933
70462W        W42188  20.100  27.998   1.425
70463W        W42189  18.578  36.399   4.170
70464W        W42190  38.736   3.506   1.241
70465W        W42191  14.243  26.734   2.437
70466W        W42192  41.899  32.504   1.887
70467W        W42193   8.983  17.030   4.064
70468W        W42194  15.829  13.797  14.582
70469W        W42195  27.549  38.143  13.593
70470W        W42196  16.167  20.309   3.665
70471W        W42197  38.273  30.489  11.581
70472W        W42198  27.484   9.768  11.924
70473W        W42199   6.046   3.580  12.107
70474W        W42200  37.910  44.507   3.689
70475W        W42201  38.181  10.287  13.676
70476W        W42202  21.498  38.969  10.995
70477W        W42203  16.974   3.416   2.535
70478W        W42204  38.548  44.033  12.140
70479W        W42205   2.924  44.817  14.875
70480W        W42206   5.411  33.402   4.152
70481W        W42207   9.257  28.397   3.728
70482W        W42208  24.876   5.531  11.385
70483W        W42209  20.237  10.612   2.765
70484W        W42210  38.394  19.608   3.909
70485W        W42211  28.495  13.568  13.153
70486W        W42212  25.721   2.148   4.919
70487W        W42213  20.250   9.575   1.756
70488W        W42214   3.799  28.598  11.208
70489W        W42215  39.132   2.935  13.854
70490W        W42216  29.494  31.886  14.029
70491W        W42217  13.669  39.537   1.383
70492W        W42218  43.392  32.470   4.281
70493W        W42219  19.699  31.317   1.631
70494W        W42220  37.522   9.429   3.135
70495W        W42221  12.520  35.418   0.913
70496W        W42222  12.828  12.330  14.949
70497W        W42223  18.011   2.169   3.636
70498W        W42224  11.288   1.021  14.937
70499W        W42225  42.839  41.403  13.966
70500W        W42226  37.851  33.338   4.139
70501W        W42227   8.434  19.623  12.354
70502W        W42228   9.133   9.225  11.608
70503W        W42229  42.289  20.129  12.964
70504W        W42230  37.491  26.615   1.216
70505W        W42231  36.519   3.790  10.621
70506W        W42232   2.508  43.675   3.181
70507W        W42233   6.289  36.657   0.959
70508W        W42234  14.396  36.535   0.094
70509W        W42235   6.937  14.848  13.485
70510W        W42236   0.478  41.201   3.406
70511W        W42237  39.084  22.137  12.233
70512W        W42238  11.819   0.303  12.554
70513W        W42239   4.261  37.077   3.208
70514W        W42240   8.438  22.990   3.016
70515W        W42241  14.078  23.619  12.085
70516W        W42242  22.270  37.338  14.529
70517W        W42243  31.933  24.175  11.449
70518W        W42244  33.517  11.108  14.914
70519W        W42245   9.408  34.241   3.651
70520W        W42246  26.567  26.072  12.678
70521W        W42247  43.307  44.881   4.844
70522W        W42248  11.413  37.900   1.716
70523W        W42249  43.917  43.203  10.728
70524W        W42250  37.060  39.332  13.962
70525W        W42251   2.263  23.049  11.523
70526W        W42252  21.194  34.002   3.894
70527W        W42253  23.673  30.453   3.623
70528W        W42254   5.263  19.579   3.225
70529W        W42255  37.554  42.627   1.411
70530W        W42256   0.569   8.400  14.502
70531W        W42257   6.656   3.230   4.428
70532W        W42258  41.945  26.668  12.640
70533W        W42259  15.831   8.625  14.942
70534W        W42260  15.369  30.988  14.184
70535W        W42261  10.291  29.317  13.703
70536W        W42262  24.296  23.910   2.249
70537W        W42263  28.766  42.974  14.787
70538W        W42264  10.712  26.633  13.528
70539W        W42265  37.549  11.653  13.508
70540W        W42266  22.010  13.862   3.144
70541W        W42267  27.529  38.086   1.362
70542W        W42268   7.796  43.827  14.250
70543W        W42269  20.042  14.536  13.855
70544W        W42270  38.572  37.103  11.093
70545W        W42271  31.500   0.416  14.385
70546W        W42272  18.750  39.789   1.907
70547W        W42273  18.675  39.506  13.473
70548W        W42274  12.531  44.506   3.504
70549W        W42275  36.119  39.726  14.018
70550W        W42276  22.222  21.604  14.034
70551W        W42277  18.776  36.390   1.711
70552W        W42278  19.531  31.099  12.798
70553W        W42279  37.321  39.083  14.365
70554W        W42280  41.255  36.842  10.680
70555W        W42281  13.142  39.583   2.289
70556W        W42282   3.714  17.580  12.424
70557W        W42283   8.479  21.001  11.885
70558W        W42284  24.155  39.801   4.244
70559W        W42285  38.486   6.680  12.084
70560W        W42286  39.036  43.023   1.635
70561W        W42287  27.177  12.158  12.989
70562W        W42288  16.136  32.533  12.567
70563W        W42289  26.976  23.066  13.616
70564W        W42290  25.517  44.241  11.540
70565W        W42291  24.525  19.479  13.404
70566W        W42292  24.240  41.408  12.347
70567W        W42293  39.447  30.702   1.235
70568W        W42294  10.103  40.604   4.616
70569W        W42295  21.164  13.825  10.258
70570W        W42296  14.764   7.591   0.458
70571W        W42297  17.510  22.635   3.404
70572W        W42298  36.590  32.773   3.956
70573W        W42299  27.185  29.256  11.103
70574W        W42300   2.192  39.885   2.443
70575W        W42301  42.880   5.428  10.754
70576W        W42302  34.468  12.451  13.076
70577W        W42303  42.344  21.609   4.076
70578W        W42304  43.519  15.031  12.972
70579W        W42305  26.504  41.538   4.261
70580W        W42306  20.880  27.975  12.963
70581W        W42307  42.855   1.448   3.558
70582W        W42308   5.852  16.546  11.643
70583W        W42309   4.469  41.747  11.305
70584W        W42310  12.101  29.930   1.349
70585W        W42311  36.573  14.770   0.851
70586W        W42312  12.216  41.419  11.897
70587W        W42313  24.218  16.969  10.741
70588W        W42314  26.973  38.724  13.096
70589W        W42315   7.819  14.600  13.606
70590W        W42316  23.274  44.632  11.530
70591W        W42317  24.357  39.051   1.262
70592W        W42318  15.638  25.191  11.050
70593W        W42319  11.131   6.687   3.439
70594W        W42320  42.182  39.036   0.009
70595W        W42321  11.555  28.656   3.708
70596W        W42322  43.182  11.512  11.660
70597W        W42323   6.407  23.532   2.983
70598W        W42324  42.065  38.778   4.603
70599W        W42325  43.414  23.070  14.606
70600W        W42326  16.801  32.379  11.576
70601W        W42327   1.693  39.915   2.808
70602W        W42328  26.677  19.668  14.209
70603W        W42329  44.047  41.878   1.327
70604W        W42330  22.060  27.654   2.914
70605W        W42331  41.744  33.919  14.885
70606W        W42332  28.963  26.155  12.344
70607W        W42333  44.369  42.447  13.273
70608W        W42334   5.912   4.494   2.287
70609W        W42335  19.801  19.215   1.859
70610W        W42336  37.216   5.224   3.210
70611W        W42337  13.723  38.392  10.629
70612W        W42338  27.110   4.082  13.863
70613W        W42339  14.593   8.623  13.020
70614W        W42340  25.968  23.605   2.412
70615W        W42341  31.686  36.810  14.901
70616W        W42342  42.444  32.311   2.167
70617W        W42343  14.775  23.237  12.404
70618W        W42344  29.590  28.517   1.234
70619W        W42345  37.304  42.876  12.903
70620W        W42346   6.601   0.784   4.993
70621W        W42347  35.040  41.164   1.278
70622W        W42348  31.737   1.839  10.303
70623W        W42349  16.213   9.510   4.690
70624W        W42350  34.546  27.629  11.662
70625W        W42351  20.612   8.338  13.515
70626W        W42352  41.195   5.985  13.356
70627W        W42353  29.806  16.351   0.363
70628W        W42354  18.962  28.930  13.685
70629W        W42355   6.301   5.823  13.374
70630W        W42356   0.922  28.055   2.697
70631W        W42357   4.120  32.052  13.107
70632W        W42358  21.356  40.031   4.982
70633W        W42359   0.385   4.409   0.522
70634W        W42360  21.735   5.171  13.991
70635W        W42361  34.846  14.853   4.484
70636W        W42362   0.376  32.058  14.213
70637W        W42363  10.598  22.609  12.036
70638W        W42364  14.890  22.590  14.474
70639W        W42365  33.005   2.557  14.348
70640W        W42366  41.596   5.224   3.744
70641W        W42367  21.198  26.246  10.441
70642W        W42368   6.386  32.124   0.680
70643W        W42369  41.775  22.263   1.931
70644W        W42370  27.364   6.228  10.828
70645W        W42371  12.373  35.928   4.701
70646W        W42372   5.802  29.909  13.338
70647W        W42373  42.859   4.127   1.481
70648W        W42374  31.716  41.986   3.736
70649W        W42375  28.424  16.820  14.363
70650W        W42376  14.565   9.656  12.081
70651W        W42377  39.615  18.076  10.685
70652W        W42378  20.571  28.421  12.077
70653W        W42379  23.962   6.760   3.313
70654W        W42380  27.202  20.682   2.196
70655W        W42381  11.646  40.883   2.352
70656W        W42382  22.573  15.807   3.682
70657W        W42383  23.167  44.641  13.390
70658W        W42384  11.543  14.289  13.262
70659W        W42385   1.891   9.131   1.323
70660W        W42386  41.275  26.393  11.128
70661W        W42387  42.742  28.142  10.604
70662W        W42388  17.540   7.840  12.366
70663W        W42389  34.622  12.019   2.844
70664W        W42390  32.065  34.847   1.935
70665W        W42391  13.242   8.635   2.821
70666W        W42392  25.898   8.373   1.788
70667W        W42393  38.312  17.268   2.372
70668W        W42394   1.933  36.095  14.999
70669W        W42395  33.586  28.970  13.427
70670W        W42396   0.476   5.958  11.672
70671W        W42397   4.890  10.901  14.295
70672W        W42398  27.979  26.687   1.812
70673W        W42399  24.724  19.717  11.741
70674W        W42400  18.247  12.229   4.522
70675W        W42401  16.747   9.270  14.537
70676W        W42402  38.602  27.065   4.255
70677W        W42403   6.910  14.417  13.139
70678W        W42404   3.041  12.540  11.652
70679W        W42405  13.681  22.606  11.655
70680W        W42406  37.024  20.857  11.192
70681W        W42407  28.551  12.651   3.232
70682W        W42408  24.243  41.391  10.272
70683W        W42409  26.863  11.252  10.516
70684W        W42410  18.145  36.163   2.236
70685W        W42411   3.803  21.609  12.804
70686W        W42412  40.269  12.393   3.714
70687W        W42413   1.265  14.631   4.350
70688W        W42414   2.258  18.631   0.975
70689W        W42415   5.822  13.678  12.324
70690W        W42416  25.613  20.228  11.552
70691W        W42417  35.327   5.896  10.756
70692W        W42418  18.681  26.631  10.653
70693W        W42419  28.904  39.101  13.981
70694W        W42420  11.843  16.158   1.856
70695W        W42421   6.835   0.983  13.339
70696W        W42422   8.683   3.013   1.995
70697W        W42423   4.936   3.901   2.961
70698W        W42424  39.106  15.181   3.503
70699W        W42425  12.805  42.249   2.240
70700W        W42426  16.118  35.840   0.359
70701W        W42427  35.949  16.286   3.902
70702W        W42428  15.622  17.255   3.374
70703W        W42429   6.914  23.965   0.724
70704W        W42430  34.444  29.848  11.111
70705W        W42431  44.280  17.601  12.930
70706W        W42432  11.724  13.892  10.735
70707W        W42433  18.766   7.011  13.428
70708W        W42434  32.020  31.681  13.073
70709W        W42435  42.322  10.189  10.754
70710W        W42436  17.774   5.314   4.284
70711W        W42437  42.490  35.517   2.727
70712W        W42438  23.927  35.567   4.639
70713W        W42439   5.695   4.353   4.643
70714W        W42440  36.829  22.635   2.269
70715W        W42441  18.721   4.943  13.564
70716W        W42442  35.984  24.166  13.254
70717W        W42443   5.907  25.398   0.805
70718W        W42444  32.625  24.633  12.933
70719W        W42445   9.583  38.060   2.272
70720W        W42446   0.235  41.287   4.454
70721W        W42447  36.433  18.611   3.289
70722W        W42448  22.216  26.999  12.521
70723W        W42449   1.159  38.225  11.997
70724W        W42450  21.736  17.125   0.860
70725W        W42451  44.940  42.730  10.938
70726W        W42452  34.686  14.033   4.080
70727W        W42453  12.813  32.384   4.110
70728W        W42454  11.549  19.778   2.206
70729W        W42455  39.593  11.135  13.913
70730W        W42456  44.249  28.164  12.414
70731W        W42457   6.683  25.716  11.064
70732W        W42458  41.968  13.212   2.664
70733W        W42459  22.227   9.147  13.931
70734W        W42460  27.686   7.689  12.882
70735W        W42461  28.009  24.253   2.920
70736W        W42462  15.595  26.806   4.554
70737W        W42463  14.544   2.051   2.822
70738W        W42464  25.677   7.875   3.849
70739W        W42465   8.899  11.853  14.852
70740W        W42466   0.543  30.901   2.144
70741W        W42467  37.054  31.282  13.960
70742W        W42468   5.426  33.277   0.751
70743W        W42469  16.759  12.831   3.824
70744W        W42470  40.817  20.375  11.290
70745W        W42471  27.034  17.320   2.861
70746W        W42472  29.052  19.458   3.359
70747W        W42473  15.598   6.725  14.961
70748W        W42474  21.963   3.770   2.267
70749W        W42475  20.892   6.441  12.443
70750W        W42476  33.102  11.853  12.495
70751W        W42477  24.222   4.856   0.281
70752W        W42478   3.270  35.144   0.963
70753W        W42479  41.410  13.649  11.116
70754W        W42480  31.638   4.099   2.260
70755W        W42481  15.329  35.042   2.199
70756W        W42482  14.333  19.983  10.984
70757W        W42483   4.200  38.033   2.650
70758W        W42484   8.745  13.835   2.740
70759W        W42485   7.419  27.565   4.998
70760W        W42486  14.632  17.082  14.837
70761W        W42487  13.880  31.446  13.422
70762W        W42488  36.961  33.609  11.674
70763W        W42489   2.810  12.681  13.280
70764W        W42490  30.773  15.693   3.289
70765W        W42491   0.218  14.356  13.052
70766W        W42492   3.629  24.321   0.879
70767W        W42493  23.509   6.609  12.072
70768W        W42494  22.518  28.451   4.685
70769W        W42495   2.651  39.464  12.051
70770W        W42496  41.317  25.918   5.083
70771W        W42497  42.451  42.878  12.429
70772W        W42498  10.626  31.833   2.717
70773W        W42499  21.405  39.855   1.196
70774W        W42500  29.937   6.198   3.164
70775W        W42501  10.578  17.813  11.558
70776W        W42502   2.838  21.985   2.890
70777W        W42503  15.656  22.721   4.971
70778W        W42504  23.308  22.454  11.840
70779W        W42505  39.383  31.504  10.704
70780W        W42506  10.960  11.256  14.544
70781W        W42507  39.099  17.027  11.060
70782W        W42508   5.699   9.869  12.167
70783W        W42509   7.272  32.041   1.921
70784W        W42510  39.240  32.213   4.955
70785W        W42511  29.488   8.834  12.435
70786W        W42512  27.582  35.103   3.709
70787W        W42513  14.829  32.702   0.318
70788W        W42514  38.440   9.772   4.463
70789W        W42515   7.808  40.990   4.451
70790W        W42516  14.437   2.797  11.636
70791W        W42517   5.131  44.151   4.045
70792W        W42518  27.064  24.733   2.861
70793W        W42519  22.116  44.873   0.046
70794W        W42520  20.219  31.058  10.616
70795W        W42521  21.627   7.450  14.255
70796W        W42522  16.676   4.393   3.396
70797W        W42523   2.210  27.277  13.541
70798W        W42524  17.673  22.212   2.114
70799W        W42525  19.321   7.220  11.070
70800W        W42526   8.171  19.056   1.774
70801W        W42527  36.945  44.180   1.747
70802W        W42528  30.967  42.762  11.378
70803W        W42529  16.335  40.405  10.669
70804W        W42530  16.729   3.663   3.163
70805W        W42531   8.982  41.998  14.460
70806W        W42532   4.773  21.245  14.948
70807W        W42533  27.728  37.451  14.957
70808W        W42534  35.485  22.553   4.616
70809W        W42535  32.209  13.634   2.225
70810W        W42536  37.041  25.714  10.293
70811W        W42537  22.184  24.965  10.264
70812W        W42538   9.761  30.800  11.272
70813W        W42539  10.259  11.366  13.302
70814W        W42540  21.471  22.523  12.504
70815W        W42541  23.974  32.437   2.258
70816W        W42542  28.633  30.372  12.713
70817W        W42543  29.052  17.556   1.291
70818W        W42544  28.103  31.934   3.666
70819W        W42545   0.757  37.594   2.324
70820W        W42546   9.544  43.700   4.849
70821W        W42547  42.036  38.745  10.132
70822W        W42548  36.009  33.853  12.553
70823W        W42549   8.727   4.212  14.465
70824W        W42550  32.184  23.855   4.198
70825W        W42551   5.678   8.072   4.250
70826W        W42552  44.414  31.866  14.831
70827W        W42553  29.930   3.323  12.230
70828W        W42554  22.857  17.596   3.701
70829W        W42555  41.488   3.319  11.539
70830W        W42556  18.565   2.908   1.638
70831W        W42557   7.677   9.094   2.291
70832W        W42558  17.299  25.747  13.012
70833W        W42559  37.851  24.242   0.860
70834W        W42560  17.191  30.140   1.987
70835W        W42561  21.042  21.270  11.558
70836W        W42562  44.751   8.267   0.248
70837W        W42563   0.347  17.281  11.366
70838W        W42564  37.060  41.073   2.198
70839W        W42565  24.268  18.289   1.023
70840W        W42566  27.423   0.068   0.445
70841W        W42567  12.607  12.628   3.285
70842W        W42568  22.170   2.264  10.701
70843W        W42569  36.965  36.608   0.520
70844W        W42570  41.371  18.326  14.818
70845W        W42571  17.574  34.634  14.410
70846W        W42572  43.427  18.901   4.139
70847W        W42573  34.101  33.634  13.981
70848W        W42574  42.337  26.146   4.040
70849W        W42575   4.394  42.489   4.379
70850W        W42576  29.963  36.059  14.955
70851W        W42577   2.612  34.095   0.125
70852W        W42578   1.238  35.815   0.952
70853W        W42579   1.679  41.565   0.847
70854W        W42580  21.950  11.850  12.045
70855W        W42581  20.783  15.063   2.288
70856W        W42582  26.054   4.814  10.411
70857W        W42583  24.028   2.429  14.861
70858W        W42584  38.418  38.492   4.370
70859W        W42585   7.706  40.729   0.809
70860W        W42586  15.633  15.225   3.795
70861W        W42587  21.537   0.566   2.231
70862W        W42588   8.796  34.929  12.448
70863W        W42589  44.807  32.773  10.566
70864W        W42590  43.224  22.107  14.882
70865W        W42591  36.858  31.417   0.281
70866W        W42592  15.706   2.850  12.547
70867W        W42593  26.994  31.582  13.224
70868W        W42594  30.642   7.381   0.893
70869W        W42595  26.120   8.128  12.399
70870W        W42596  17.176   3.852   3.346
70871W        W42597  23.579  42.981   3.338
70872W        W42598   7.092   3.445   1.410
70873W        W42599   3.869  38.550   4.905
70874W        W42600  14.717  19.310  13.954
70875W        W42601  44.514   3.659   1.824
70876W        W42602  31.871   4.735  11.052
70877W        W42603  26.774  32.445   2.914
70878W        W42604   7.402  37.595  14.833
70879W        W42605   1.066  38.992   1.468
70880W        W42606  25.964  24.711   4.262
70881W        W42607  24.440  26.816  11.083
70882W        W42608  19.099  29.669  11.373
70883W        W42609  35.855  24.143  12.294
70884W        W42610   0.821  42.245   0.044
70885W        W42611  24.269  38.112  11.599
70886W        W42612  40.096   6.452  12.668
70887W        W42613  32.354  11.174   1.884
70888W        W42614   0.790  44.906  14.373
70889W        W42615   3.934  42.355   0.404
70890W        W42616   7.198  31.173  10.595
70891W        W42617  20.110  36.469  10.689
70892W        W42618  20.250  22.468  14.891
70893W        W42619   0.147  26.991   1.477
70894W        W42620  43.964  41.462  13.093
70895W        W42621  26.638  37.511   0.098
70896W        W42622  28.433  24.066   2.675
70897W        W42623  16.603  30.124  12.981
70898W        W42624  28.046  35.126  14.759
70899W        W42625  22.156  41.973   4.130
70900W        W42626  25.022  17.240   2.762
70901W        W42627  22.587  43.006   3.261
70902W        W42628  43.967  36.088   0.400
70903W        W42629  34.093   9.332  13.571
70904W        W42630  25.822  14.631  12.461
70905W        W42631  18.741   9.853  14.305
70906W        W42632  13.845  14.389  13.034
70907W        W42633  33.575  22.169   4.167
70908W        W42634   2.690   9.202   1.000
70909W        W42635  20.211   2.372  12.511
70910W        W42636   9.054  14.680   2.456
70911W        W42637  19.723  37.926  13.821
70912W        W42638   7.656  38.936  12.491
70913W        W42639  37.493  26.149   4.574
70914W        W42640  44.925  22.124   3.763
70915W        W42641   1.880   7.628  12.390
70916W        W42642  21.195  20.067   1.726
70917W        W42643  34.845  44.396   0.030
70918W        W42644   0.008  25.604   4.761
70919W        W42645  44.548  39.866  14.059
70920W        W42646   4.896  14.280   3.697
70921W        W42647  22.540  19.045  10.509
70922W        W42648  36.916  36.827   0.994
70923W        W42649  23.524   7.937  13.782
70924W        W42650  41.825   8.875   2.041
70925W        W42651   2.785  22.695   0.693
70926W        W42652   1.107  19.688  11.272
70927W        W42653   7.017  17.693  11.368
70928W        W42654  42.871  40.104  11.116
70929W        W42655  12.146  39.142   4.545
70930W        W42656  11.999  40.423  12.975
70931W        W42657  37.109   8.528   3.270
70932W        W42658  19.592   0.424   2.765
70933W        W42659   4.700   2.217   0.513
70934W        W42660   1.831   0.216   3.544
70935W        W42661   8.173  24.254   3.737
70936W        W42662  40.821  31.027   0.370
70937W        W42663  28.996  19.075   3.036
70938W        W42664  33.925  43.003  14.010
70939W        W42665   1.789  36.154   0.512
70940W        W42666   7.289  42.782   4.073
70941W        W42667   2.016  29.613   0.973
70942W        W42668  41.023  32.819  10.743
70943W        W42669  28.651   0.392   0.225
70944W        W42670  36.928  40.082  12.990
70945W        W42671   8.708  11.615  12.884
70946W        W42672  12.916   3.383  11.199
70947W        W42673  14.818  14.796   2.464
70948W        W42674  13.340  44.748  11.167
70949W        W42675  42.988  14.251  14.069
70950W        W42676  29.944   7.893   3.689
70951W        W42677  12.660   7.811   2.659
70952W        W42678   0.976  32.161  10.971
70953W        W42679  27.564  41.654   1.695
70954W        W42680  41.003  42.778  11.346
70955W        W42681  11.092  44.329  14.881
70956W        W42682  43.422  17.156   1.004
70957W        W42683  29.911   8.466  13.453
70958W        W42684  23.559  25.386   0.339
70959W        W42685   1.674  23.626   4.141
70960W        W42686  17.120  23.565   1.038
70961W        W42687  19.189  43.296  12.033
70962W        W42688   3.478  13.359  13.745
70963W        W42689   7.391  22.188   1.717
70964W        W42690  14.817  16.215  14.388
70965W        W42691  36.349  38.035  12.086
70966W        W42692  30.119  20.278  11.507
70967W        W42693  37.883  25.271   5.098
70968W        W42694  10.222  41.320  14.390
70969W        W42695  17.197  25.925   1.870
70970W        W42696   8.712  25.157   1.608
70971W        W42697   8.149  36.344  14.806
70972W        W42698   6.154  33.489   2.835
70973W        W42699  23.484   4.652   1.641
70974W        W42700   9.389  15.495  10.736
70975W        W42701   0.979  22.956  14.455
70976W        W42702  43.340  27.622   4.107
70977W        W42703  27.320  36.065   3.547
70978W        W42704  17.526  28.642  14.093
70979W        W42705  42.747  29.331   0.276
70980W        W42706   9.738   5.816   0.256
70981W        W42707  44.304  20.781  11.474
70982W        W42708  21.978  38.145   0.921
70983W        W42709  43.574  40.660  10.253
70984W        W42710  41.946  37.513   2.806
70985W        W42711   0.657  21.074  12.985
70986W        W42712  40.958  36.937   3.745
70987W        W42713  32.371  35.615  14.572
70988W        W42714   5.833  44.465   1.146
70989W        W42715  24.438   0.793  14.282
70990W        W42716   3.444  20.240  14.531
70991W        W42717  40.869   7.180  10.805
70992W        W42718  20.692  39.774  12.006
70993W        W42719  30.007   6.290  14.738
70994W        W42720   4.229  44.943   2.683
70995W        W42721  35.292  28.795  11.500
70996W        W42722  30.368  18.798  13.617
70997W        W42723  30.585   4.002  12.456
70998W        W42724  18.502   2.419   3.717
70999W        W42725  15.265   0.689  13.361
71000W        W42726  36.930   0.702  13.250
71001W        W42727  26.528  33.448   2.391
71002W        W42728  27.896  43.402   0.265
71003W        W42729  38.557  25.089  10.722
71004W        W42730  24.710  34.413  13.350
71005W        W42731  25.995  43.820   1.664
71006W        W42732  24.526  17.998   4.065
71007W        W42733  16.660  26.132  11.169
71008W        W42734  22.530   0.762   3.761
71009W        W42735  13.855  38.837   4.850
71010W        W42736  27.997  35.318   1.276
71011W        W42737  27.254  43.241   3.967
71012W        W42738  36.053   9.398   0.286
71013W        W42739  22.028  32.022  13.321
71014W        W42740   4.954  19.133   4.732
71015W        W42741  18.162  41.068   3.407
71016W        W42742  24.166  31.206   3.145
71017W        W42743  33.448   9.345  12.280
71018W        W42744   9.959  17.742  10.623
71019W        W42745  19.645  29.946   3.324
71020W        W42746  26.321  10.803  14.151
71021W        W42747   3.149  30.106  12.484
71022W        W42748  22.217  15.139   2.424
71023W        W42749   0.088  19.055   4.629
71024W        W42750   2.719   0.445  11.937
71025W        W42751   9.289  10.849  13.476
71026W        W42752  22.656  21.927   0.447
71027W        W42753  25.480  17.257  13.502
71028W        W42754   0.617  28.145   0.713
71029W        W42755   4.235  22.992   4.120
71030W        W42756  40.335  40.277  13.527
71031W        W42757  25.448  35.104  13.921
71032W        W42758  30.642   6.695  13.492
71033W        W42759  34.967  31.488  11.612
71034W        W42760  28.463   8.719   0.552
71035W        W42761  13.320  18.851   3.189
71036W        W42762  34.592   6.999   2.897
71037W        W42763  42.506  10.850  10.624
71038W        W42764  28.910  41.476   2.598
71039W        W42765   4.176  22.472  14.793
71040W        W42766  23.777  29.574   2.301
71041W        W42767   7.007  19.492   3.412
71042W        W42768   7.203  20.827   1.619
71043W        W42769   9.631   9.540   4.157
71044W        W42770  10.240  39.061  13.534
71045W        W42771   1.779  43.323   4.782
71046W        W42772   8.347   1.234  14.831
71047W        W42773   1.297  38.331  14.708
71048W        W42774  17.175   9.854   4.632
71049W        W42775  14.706  41.832   2.369
71050W        W42776  42.431   9.746   0.239
71051W        W42777  44.209  40.764  13.107
71052W        W42778  32.106  10.325   0.876
71053W        W42779  26.702  44.270   3.578
71054W        W42780  26.073   1.814   3.855
71055W        W42781  37.553   6.204   2.219
71056W        W42782  10.378   2.704   1.433
71057W        W42783  19.464  38.086   0.666
71058W        W42784  35.457   2.922   1.227
71059W        W42785   4.849  42.405  14.891
71060W        W42786  14.234  17.092   2.599
71061W        W42787  17.263  33.400   4.727
71062W        W42788  19.114   1.377   0.131
71063W        W42789   9.895  13.227   2.279
71064W        W42790  41.958  11.075  11.093
71065W        W42791  33.004  39.968   0.387
71066W        W42792  10.334   9.584  10.692
71067W        W42793   1.310   5.737   1.194
71068W        W42794   2.505  30.808   2.274
71069W        W42795   0.434  12.240  14.477
71070W        W42796  38.087   6.258   0.364
71071W        W42797  28.422  27.456   0.151
71072W        W42798  34.377  43.680  14.681
71073W        W42799   8.257  31.587  10.653
71074W        W42800   6.260  27.002   1.169
71075W        W42801  13.860  16.568  12.414
71076W        W42802   2.961  41.472   0.847
71077W        W42803  20.732  23.567  10.647
71078W        W42804  31.902  35.971   1.371
71079W        W42805  20.268  17.614   1.313
71080W        W42806  28.057  38.062   0.768
71081W        W42807  10.087  41.027  10.326
71082W        W42808  24.175  13.165   3.696
71083W        W42809   2.878  24.648   3.811
71084W        W42810  20.000   5.284   4.678
71085W        W42811  17.599   4.255   3.256
71086W        W42812  38.874  32.138  11.168
71087W        W42813  34.712  33.600   4.216
71088W        W42814  40.500   3.345  11.842
71089W        W42815  23.652   1.460  13.221
71090W        W42816   5.319   1.178  13.614
71091W        W42817  30.330  15.739  13.691
71092W        W42818   2.780  20.655   1.966
71093W        W42819  34.396  20.601  11.135
71094W        W42820  15.156  26.927   3.303
71095W        W42821  39.477  24.687  12.524
71096W        W42822   9.523   9.843   3.672
71097W        W42823  33.384  10.096   4.213
71098W        W42824  26.883  12.316  12.550
71099W        W42825   0.333  20.962  13.915
71100W        W42826  23.514   1.006  10.547
71101W        W42827  16.880  28.117   4.544
71102W        W42828   5.961  19.341  11.360
71103W        W42829  29.889   5.297   3.125
71104W        W42830  37.299  16.632  13.867
71105W        W42831  32.997  33.518   3.631
71106W        W42832   4.919  33.544  11.528
71107W        W42833   7.654  11.105   1.472
71108W        W42834  18.231  37.127  12.979
71109W        W42835  22.203  11.622  11.681
71110W        W42836   7.399  25.014   4.129
71111W        W42837   4.920  41.101  11.567
71112W        W42838   6.735   1.145  14.405
71113W        W42839   6.373  21.006  12.968
71114W        W42840  41.740  43.190   4.595
71115W        W42841  20.230  40.077  12.095
71116W        W42842   7.175   2.430   0.460
71117W        W42843  41.053  11.363   2.342
71118W        W42844  19.241  32.101  14.949
71119W        W42845   8.830  14.515  13.576
71120W        W42846  19.511  23.133  10.635
71121W        W42847  27.650  24.723   2.309
71122W        W42848  27.685  41.920   4.900
71123W        W42849  16.258  41.993  11.974
71124W        W42850  18.607  41.700   0.538
71125W        W42851  13.910  11.577   0.099
71126W        W42852  17.589  44.323   2.349
71127W        W42853  40.584  44.619  12.117
71128W        W42854  26.753   1.372   5.395
71129W        W42855  30.179  39.865   3.698
71130W        W42856   8.214  43.767   3.965
71131W        W42857  40.913  16.893   3.512
71132W        W42858  13.282  43.331  10.926
71133W        W42859   7.320  25.136   2.344
71134W        W42860   6.477  13.772  10.632
71135W        W42861  33.807  32.429   1.674
71136W        W42862  34.039   5.266   0.398
71137W        W42863  26.555  44.877  11.119
71138W        W42864  27.466  42.854   4.867
71139W        W42865  16.792  20.589   1.359
71140W        W42866  43.253  18.571  13.939
71141W        W42867  19.166  16.508   1.762
71142W        W42868  39.428   0.210   1.181
71143W        W42869   8.918  16.815   3.370
71144W        W42870  28.219  38.684  10.814
71145W        W42871  36.081   3.500   2.812
71146W        W42872  30.748  20.698  14.898
71147W        W42873  17.410  38.008  13.635
71148W        W42874  19.198  20.949   1.227
71149W        W42875  42.390  38.544   2.190
71150W        W42876  38.411   3.810   1.587
71151W        W42877  17.637  21.754  11.042
71152W        W42878   8.794   3.010  13.350
71153W        W42879   5.099  29.701  14.940
71154W        W42880   5.046   5.002  10.539
71155W        W42881  42.744  40.308  14.835
71156W        W42882  37.133   7.748  10.668
71157W        W42883  30.211  17.993   2.696
71158W        W42884  35.934  34.055   0.945
71159W        W42885  26.539  22.973  13.332
71160W        W42886   1.632  21.962   3.352
71161W        W42887  41.862  41.218   0.367
71162W        W42888   8.543  43.736  12.444
71163W        W42889  43.483  17.207  14.004
71164W        W42890   8.515  19.348   2.228
71165W        W42891  34.542  23.063  11.256
71166W        W42892   7.190  19.175   0.939
71167W        W42893  28.593  43.862   3.579
71168W        W42894  27.987  12.697  10.819
71169W        W42895  15.644  11.219   2.364
71170W        W42896  16.633   1.927  13.063
71171W        W42897  11.780  43.588  14.717
71172W        W42898  35.988  24.199   3.152
71173W        W42899   1.778   4.911   2.776
71174W        W42900   9.788  12.200  14.492
71175W        W42901  40.503   7.711   1.378
71176W        W42902  34.398  10.203  13.891
71177W        W42903  32.404   9.174  12.821
71178W        W42904   9.830   5.478  12.930
71179W        W42905  41.296   5.211   1.561
71180W        W42906  34.392   8.089  14.033
71181W        W42907  13.889  37.019   1.417
71182W        W42908   9.710  36.443  11.628
71183W        W42909  28.546  39.486   0.859
71184W        W42910  22.968  42.991  12.995
71185W        W42911  31.860   6.248  12.857
71186W        W42912  24.493  10.441   5.045
71187W        W42913  10.483   5.401   4.116
71188W        W42914   3.670  25.111  12.052
71189W        W42915  42.917  31.197   0.847
71190W        W42916  15.275  37.742  12.491
71191W        W42917  16.146  23.623  12.924
71192W        W42918  25.361  14.166   3.361
71193W        W42919  44.967  17.274  14.133
71194W        W42920  24.174  37.212   1.901
71195W        W42921  40.251  36.775  13.389
71196W        W42922  41.969  21.915   2.887
71197W        W42923  18.296  28.939   3.756
71198W        W42924  23.435   8.350  12.095
71199W        W42925  25.467  21.585  13.551
71200W        W42926  44.528  25.772  12.366
71201W        W42927  43.571  30.869   3.164
71202W        W42928  11.171  10.272  13.035
71203W        W42929   5.819  32.110  13.939
71204W        W42930  15.036  11.206  11.675
71205W        W42931   1.266   2.825   3.069
71206W        W42932  20.411  37.809  14.534
71207W        W42933  25.997  25.923   1.438
71208W        W42934  44.481  23.187  13.023
71209W        W42935  33.413   8.877  10.366
71210W        W42936  11.809  36.470  11.880
71211W        W42937   6.919  24.579   1.279
71212W        W42938  18.698  23.627   3.698
71213W        W42939   4.359  38.400  12.816
71214W        W42940  14.948   3.772   3.411
71215W        W42941  27.534  33.855  13.328
71216W        W42942  35.344   8.488   2.130
71217W        W42943   0.678  22.394   5.205
71218W        W42944  15.224  22.179  11.725
71219W        W42945  44.204  11.201   2.313
71220W        W42946   2.806  28.303   2.806
71221W        W42947  14.177   0.511   0.977
71222W        W42948   3.532   4.139   2.020
71223W        W42949   8.685  17.634   4.290
71224W        W42950  44.309  33.990   4.753
71225W        W42951   3.976  17.421   1.460
71226W        W42952  33.640  44.005   0.406
71227W        W42953  23.417   2.132  12.121
71228W        W42954  18.059  41.325  11.201
71229W        W42955   0.761  11.178   3.796
71230W        W42956  29.527  22.783  12.012
71231W        W42957  32.572  10.629  11.612
71232W        W42958   0.623  29.569   2.897
71233W        W42959  38.642  13.181   1.365
71234W        W42960  31.109   9.551  14.937
71235W        W42961   1.834  43.364   4.217
71236W        W42962  35.677  28.695   4.296
71237W        W42963  30.581  34.379  13.549
71238W        W42964  18.066  18.754   2.571
71239W        W42965  40.725   9.577   4.756
71240W        W42966  39.532   1.899   0.390
71241W        W42967   9.835  30.208  12.820
71242W        W42968  10.727  11.374  11.949
71243W        W42969   2.814  36.548   4.343
71244W        W42970  20.324   1.897   4.596
71245W        W42971   4.884  25.625   3.927
71246W        W42972  12.551  19.943  10.677
71247W        W42973  41.910  20.183   1.679
71248W        W42974  22.920  20.189  10.620
71249W        W42975  21.036  15.723   9.930
71250W        W42976  25.597  17.384   2.178
71251W        W42977  17.071  18.004   3.690
71252W        W42978   0.482   1.098   1.408
71253W        W42979  32.108  15.643  14.703
71254W        W42980  44.816  33.765  10.797
71255W        W42981  13.055   7.815  14.687
71256W        W42982  38.860  43.272   1.206
71257W        W42983   3.236  26.998   0.228
71258W        W42984  28.048  32.272   1.305
71259W        W42985  19.233   8.539  10.604
71260W        W42986  12.070  43.235   2.874
71261W        W42987   8.440  39.860  14.039
71262W        W42988   4.847  13.068   4.122
71263W        W42989  25.743   2.497  14.812
71264W        W42990  40.031  36.624   0.590
71265W        W42991  38.979   4.019  14.521
71266W        W42992  32.134  31.057  11.727
71267W        W42993  27.984  33.118   3.393
71268W        W42994  27.410  20.503   3.467
71269W        W42995   2.493  34.512   3.240
71270W        W42996  25.953  31.001   0.052
71271W        W42997   6.474  43.888  14.556
71272W        W42998   6.955  41.922   2.221
71273W        W42999  17.575  27.136  10.993
71274W        W43000  19.113  20.720  13.815
71275W        W43001  42.523  19.102  12.245
71276W        W43002   0.970  17.403   9.885
71277W        W43003  10.894  39.961  11.586
71278W        W43004  20.663  32.052   0.863
71279W        W43005  34.972   5.007  12.532
71280W        W43006  33.007  44.400  12.465
71281W        W43007  32.025  20.047   3.076
71282W        W43008  17.668  21.511  14.894
71283W        W43009  38.946  23.660  12.968
71284W        W43010  23.551  35.021   1.622
71285W        W43011  42.359  14.871   3.373
71286W        W43012   4.519  26.160   2.216
71287W        W43013  37.353  27.596  13.924
71288W        W43014  20.681  26.208  12.495
71289W        W43015   0.013  18.513   1.766
71290W        W43016  18.270  40.319  12.130
71291W        W43017   8.806  42.091   4.921
71292W        W43018  32.610  10.841  14.221
71293W        W43019  37.394  12.568   2.329
71294W        W43020   5.227  38.111  11.965
71295W        W43021  30.032  19.538  11.113
71296W        W43022  14.772  40.881   0.581
71297W        W43023  25.694  11.423  11.138
71298W        W43024   6.742   7.373  13.447
71299W        W43025  36.412  23.638  10.527
71300W        W43026  10.005  12.856   3.980
71301W        W43027  22.789  24.026   3.623
71302W        W43028  13.822  34.475   1.372
71303W        W43029  15.107   1.231   2.207
71304W        W43030   2.954  33.880  14.773
71305W        W43031  41.766   3.886   4.936
71306W        W43032  31.141  44.195  13.376
71307W        W43033   0.305  27.778  14.293
71308W        W43034  20.349   8.735  11.993
71309W        W43035  39.506  22.056  10.504
71310W        W43036  43.402  35.853  12.504
71311W        W43037  10.322  13.481  11.094
71312W        W43038  14.208  13.440   0.907
71313W        W43039  29.876  43.241   0.042
71314W        W43040  39.031  29.934   3.736
71315W        W43041  15.092  34.809  11.226
71316W        W43042  34.826  23.993  12.426
71317W        W43043  43.295  27.918   4.625
71318W        W43044  15.701  17.796   4.684
71319W        W43045  36.435  32.469  14.263
71320W        W43046  25.550  26.005  14.515
71321W        W43047  10.866  22.802  11.633
71322W        W43048  12.423  32.355  12.879
71323W        W43049  32.026  42.208   3.384
71324W        W43050   8.104  27.047  12.368
71325W        W43051  22.711  39.333  13.335
71326W        W43052  19.091  33.953   1.251
71327W        W43053  24.915  36.870  12.413
71328W        W43054  38.578  34.011  12.899
71329W        W43055  19.197   5.453   4.399
71330W        W43056   8.228  35.812  12.398
71331W        W43057  30.014   9.359  13.464
71332W        W43058  36.715  35.130  13.110
71333W        W43059  44.510   8.908   4.213
71334W        W43060  19.355   9.706  12.450
71335W        W43061  13.520  38.275   2.617
71336W        W43062  39.855  30.966  12.723
71337W        W43063  26.803  26.417   0.261
71338W        W43064  17.152  39.884  14.955
71339W        W43065  23.936   5.857   3.134
71340W        W43066  34.381  38.914  10.803
71341W        W43067  21.601  32.078  13.985
71342W        W43068  27.070  16.204   1.457
71343W        W43069  43.339  25.719   4.146
71344W        W43070  44.552   1.880  11.627
71345W        W43071  23.625  43.413  10.943
71346W        W43072   5.048   6.952  12.948
71347W        W43073  44.072  29.621   2.452
71348W        W43074  18.060  11.140   1.390
71349W        W43075  27.555  14.551   2.378
71350W        W43076   1.041  42.891  12.877
71351W        W43077  36.096  28.072   0.329
71352W        W43078   8.079   8.699   0.355
71353W        W43079  17.624  22.617  12.527
71354W        W43080  17.973  34.639   3.283
71355W        W43081  37.977  25.020  12.710
71356W        W43082  41.312  21.479  14.939
71357W        W43083  38.952   3.014   0.691
71358W        W43084  12.143  39.653   4.479
71359W        W43085   7.348  23.001   3.656
71360W        W43086   1.258  18.002  14.001
71361W        W43087  35.608  11.589  11.546
71362W        W43088   3.335  44.372   4.573
71363W        W43089  18.582  35.366   2.497
71364W        W43090  43.002   8.642   9.959
71365W        W43091  41.538  40.948   3.377
71366W        W43092   9.362  18.665  13.448
71367W        W43093  20.737  29.852  11.586
71368W        W43094  25.261  32.892  13.944
71369W        W43095   9.942  21.596  10.578
71370W        W43096  26.649   7.157   3.214
71371W        W43097  12.620  18.011   2.320
71372W        W43098  20.220  10.462   4.119
71373W        W43099  32.029  20.758   0.290
71374W        W43100  18.540   2.456   2.870
71375W        W43101  39.446  15.243   1.299
71376W        W43102  35.450  44.756   4.591
71377W        W43103   7.625  23.918   5.020
71378W        W43104  37.297  38.259  14.414
71379W        W43105  24.027  16.061  11.587
71380W        W43106  21.199  29.832   1.366
71381W        W43107  27.682  31.367  13.762
71382W        W43108   5.929  23.128  14.842
71383W        W43109  39.933  37.467  13.397
71384W        W43110  30.601  20.102  11.568
71385W        W43111   2.850  22.841  14.262
71386W        W43112  10.268  37.417  10.276
71387W        W43113   3.650  43.729  10.809
71388W        W43114  40.823  15.039  13.923
71389W        W43115  31.887  28.240  12.517
71390W        W43116  35.519  41.315   1.844
71391W        W43117  36.252  17.184  12.815
71392W        W43118  12.607  39.571   1.289
71393W        W43119  39.514  17.720  12.879
71394W        W43120  41.367  19.281   4.717
71395W        W43121  10.251   0.216  11.618
71396W        W43122   9.267  24.685   2.493
71397W        W43123  12.722  27.113   0.381
71398W        W43124  37.627  31.286   4.569
71399W        W43125   6.107  41.445  11.878
71400W        W43126  21.826   0.972  13.424
71401W        W43127  35.877  17.887   0.017
71402W        W43128  33.010  39.357   4.596
71403W        W43129   0.493  43.106  13.979
71404W        W43130  12.903  37.815  13.267
71405W        W43131  11.321  34.562  12.406
71406W        W43132  18.716   1.702   3.161
71407W        W43133   6.065  31.620  11.946
71408W        W43134  11.724  30.382  10.691
71409W        W43135  20.598  23.444  13.018
71410W        W43136  25.204  22.508   9.911
71411W        W43137  30.563   8.890  12.102
71412W        W43138   3.857  25.494   4.893
71413W        W43139  39.216  17.179  14.940
71414W        W43140  18.240   8.650   3.420
71415W        W43141  16.072  34.085   1.887
71416W        W43142  37.922  29.199   0.291
71417W        W43143  10.749  20.426   2.885
71418W        W43144   7.633  20.653   1.274
71419W        W43145   5.843  35.556  14.045
71420W        W43146  22.643   0.449   4.768
71421W        W43147  37.017  31.204  10.970
71422W        W43148  11.283  11.601  11.554
71423W        W43149  33.695   0.619   1.840
71424W        W43150   5.477  37.359  12.625
71425W        W43151  14.242  43.311   4.667
71426W        W43152  21.198  10.955  12.511
71427W        W43153  42.040  44.632   4.623
71428W        W43154   7.205  19.834   4.936
71429W        W43155   9.355  24.049  11.399
71430W        W43156  40.073  23.065   4.124
71431W        W43157  14.876  42.984  14.311
71432W        W43158  32.100  26.969  10.956
71433W        W43159  16.224  24.892   2.319
71434W        W43160  39.415  31.413   4.235
71435W        W43161  10.847  38.755  12.343
71436W        W43162  11.794  22.220   2.247
71437W        W43163  16.102  16.190   1.655
71438W        W43164  32.187  17.489   4.685
71439W        W43165   4.306  16.731  11.344
71440W        W43166  15.586   8.837   3.177
71441W        W43167  29.361  20.262  12.947
71442W        W43168  15.663   6.383   0.840
71443W        W43169  41.558  33.534   1.279
71444W        W43170  41.523  10.046   4.248
71445W        W43171  28.938  34.364   2.936
71446W        W43172   9.430  38.799   4.134
71447W        W43173  18.777  43.232  13.616
71448W        W43174  23.303  18.311  12.299
71449W        W43175   6.354   6.894  10.106
71450W        W43176  31.553  12.326  14.257
71451W        W43177   0.474   9.805   4.907
71452W        W43178  34.769  37.490  13.909
71453W        W43179  18.109  18.060   1.874
71454W        W43180  11.670   2.270  11.549
71455W        W43181  20.466   6.444  11.167
71456W        W43182  33.076  41.884   1.106
71457W        W43183   7.207  26.376  14.856
71458W        W43184   4.669  42.574   0.899
71459W        W43185   0.277  10.615   3.175
71460W        W43186  34.092   3.789   4.426
71461W        W43187  27.395  30.108  14.203
71462W        W43188  12.108  27.731  11.097
71463W        W43189  35.565  33.564   4.806
71464W        W43190  25.619  28.411  10.565
71465W        W43191  37.854  15.638  12.482
71466W        W43192  12.281  42.375   2.284
71467W        W43193  35.369  10.252  12.660
71468W        W43194  11.380   8.640   0.903
71469W        W43195  34.591   3.819  13.939
71470W        W43196  11.374  37.353   0.774
71471W        W43197  33.483  39.109  11.623
71472W        W43198  44.277  13.338  13.374
71473W        W43199  14.265  34.046   0.887
71474W        W43200  34.903   7.327   2.134
71475W        W43201  19.533   4.236   2.952
71476W        W43202  25.654   3.299   0.498
71477W        W43203  12.679  10.900   4.630
71478W        W43204   7.612  37.444  13.891
71479W        W43205  20.419  26.508   4.636
71480W        W43206  44.696  11.941   4.611
71481W        W43207   9.636  33.390  14.869
71482W        W43208  20.795   2.938  11.450
71483W        W43209   8.297  17.775   0.483
71484W        W43210  42.267   7.139   0.520
71485W        W43211   1.912  15.664  15.000
71486W        W43212   9.339  22.531   4.129
71487W        W43213  40.930  14.696  11.190
71488W        W43214  25.493  22.227  14.142
71489W        W43215  38.992  21.077  11.632
71490W        W43216  44.904  27.967  13.957
71491W        W43217   8.706  39.575  14.387
71492W        W43218  18.344   2.467   0.471
71493W        W43219  12.409   9.385  14.310
71494W        W43220  32.571  15.492   3.848
71495W        W43221  25.133  13.724   3.225
71496W        W43222  19.132  43.745  12.290
71497W        W43223  14.733  29.532   3.411
71498W        W43224   1.192  16.319  13.360
71499W        W43225  12.191  23.547   2.395
71500W        W43226   5.688  23.255  12.830
71501W        W43227  41.788  40.976   0.855
71502W        W43228  34.470  34.520   0.512
71503W        W43229  44.048  32.639  14.354
71504W        W43230  44.073  34.779  13.513
71505W        W43231  23.835  30.685   2.700
71506W        W43232  28.605  39.526  10.874
71507W        W43233  14.474  44.448   0.737
71508W        W43234  22.227  38.340   2.385
71509W        W43235  10.252  37.770  11.270
71510W        W43236  24.474  19.993   0.796
71511W        W43237  13.279  27.151   4.660
71512W        W43238  21.245  38.949   1.340
71513W        W43239   7.309  32.224   5.158
71514W        W43240  36.333  24.473   4.531
71515W        W43241  32.076  22.579  10.729
71516W        W43242  35.105  38.842   1.806
71517W        W43243   8.467  41.793   3.301
71518W        W43244   7.842  43.394   4.376
71519W        W43245   2.431  19.304   2.752
71520W        W43246  25.552   8.896   0.269
71521W        W43247   5.788  43.233  10.849
71522W        W43248  16.158   9.439   2.396
71523W        W43249  18.817  37.918  10.889
71524W        W43250  15.323   1.850   0.457
71525W        W43251  30.421  17.520   4.548
71526W        W43252  21.039  19.533  11.237
71527W        W43253  38.047  15.434  10.937
71528W        W43254   9.658  28.617   1.932
71529W        W43255  23.781  14.596  13.754
71530W        W43256   6.557  43.305  12.030
71531W        W43257  33.834  32.889  10.100
71532W        W43258  33.873  13.220   1.020
71533W        W43259  20.706   3.497   1.578
71534W        W43260  12.761  20.989  10.703
71535W        W43261  34.643  16.215   0.036
71536W        W43262  19.609  39.916  13.490
71537W        W43263   2.724  11.302  12.041
71538W        W43264  37.313  16.338   4.553
71539W        W43265  19.483  31.891  12.004
71540W        W43266  26.914  12.603  13.038
71541W        W43267  20.264  17.074   1.283
71542W        W43268   1.713  13.367   3.695
71543W        W43269  32.990  17.186   2.757
71544W        W43270  35.682  38.024   4.232
71545W        W43271   0.564  38.157  14.102
71546W        W43272  23.578  13.509   0.305
71547W        W43273  40.922   9.647  10.703
71548W        W43274  29.209  32.983   3.888
71549W        W43275  34.491  17.127   1.630
71550W        W43276  38.999  11.107   0.982
71551W        W43277  38.486  44.203  14.501
71552W        W43278  29.669   1.244   4.096
71553W        W43279   4.344  39.630   3.663
71554W        W43280  35.828  27.249   3.774
71555W        W43281  36.563  10.306   0.051
71556W        W43282  25.566  23.058  11.575
71557W        W43283  24.185   2.995  14.023
71558W        W43284  44.552  41.446  10.515
71559W        W43285  29.430  43.345   0.322
71560W        W43286   8.370  37.892   3.116
71561W        W43287  40.576  37.137  14.561
71562W        W43288  42.648   4.854   0.203
71563W        W43289  44.400  31.640  14.367
71564W        W43290  30.969  12.624   4.190
71565W        W43291   6.318  35.469  13.851
71566W        W43292  27.627  32.548   1.369
71567W        W43293  24.910  10.282  13.945
71568W        W43294   7.713  32.442   2.158
71569W        W43295  35.359   4.699   1.761
71570W        W43296   9.011   5.239  14.817
71571W        W43297  35.092  26.878   1.386
71572W        W43298  43.350  33.055   1.300
71573W        W43299  40.603  26.410  10.408
71574W        W43300  20.023   6.210   2.813
71575W        W43301   8.760   1.443   2.215
71576W        W43302  38.859  22.782   0.715
71577W        W43303  31.630   3.860   4.039
71578W        W43304  11.766  19.490   5.061
71579W        W43305  27.389   0.170  14.081
71580W        W43306   9.819  23.709   2.295
71581W        W43307  14.179  35.859   4.546
71582W        W43308   2.223  41.536  11.545
71583W        W43309  38.992  30.197  10.767
71584W        W43310  10.433  35.095  13.460
71585W        W43311   0.989  38.187   0.898
71586W        W43312  17.251  36.920  14.279
71587W        W43313  11.581   7.315  11.876
71588W        W43314  11.475  32.152   4.513
71589W        W43315  33.151  32.494   2.346
71590W        W43316   4.858  19.813  12.502
71591W        W43317  23.592  14.266  10.010
71592W        W43318   7.193  34.645  11.883
71593W        W43319  34.755  19.166   2.754
71594W        W43320  26.737  33.725   0.939
71595W        W43321  18.452  25.715  12.423
71596W        W43322  30.549  22.637  10.715
71597W        W43323   9.495  29.661   3.310
71598W        W43324  32.564  41.556  11.224
71599W        W43325   9.080  39.052  13.939
71600W        W43326  40.906   3.329  12.988
71601W        W43327  19.031   4.185   2.959
71602W        W43328   5.774   7.426   4.547
71603W        W43329  31.552  39.309   1.225
71604W        W43330  40.779   7.788  12.811
71605W        W43331  28.203  11.304   3.187
71606W        W43332  26.679   7.691   3.897
71607W        W43333  26.304   8.082   1.858
71608W        W43334  29.889   0.733   3.196
71609W        W43335  42.582  16.797  10.679
71610W        W43336   4.368  44.301  11.668
71611W        W43337  26.650  42.901  12.502
71612W        W43338  43.377  28.688   2.769
71613W        W43339  28.122  31.425   2.899
71614W        W43340  26.179  26.958   0.725
71615W        W43341  22.304  42.863  11.263
71616W        W43342  24.541  31.989   4.525
71617W        W43343  20.117  17.795   2.294
71618W        W43344  36.427   6.769   0.241
71619W        W43345  31.925  14.754  11.389
71620W        W43346  44.667  22.344   5.084
71621W        W43347   8.878  41.173  12.096
71622W        W43348  39.493  29.590   1.947
71623W        W43349  28.641   4.788   4.649
71624W        W43350  32.571   0.545   3.737
71625W        W43351   6.442  35.582   4.539
71626W        W43352  40.561  36.428  12.573
71627W        W43353  17.276   0.497   3.424
71628W        W43354   3.307  43.863   1.907
71629W        W43355   8.978  22.766   2.355
71630W        W43356   3.411  30.999   4.200
71631W        W43357  44.918   5.695  14.546
71632W        W43358  36.915  40.928  14.843
71633W        W43359  12.490  24.600   4.876
71634W        W43360  13.877  28.395   3.136
71635W        W43361  43.939  36.384  14.953
71636W        W43362  30.447  21.786   4.613
71637W        W43363  24.619  38.075  12.856
71638W        W43364   3.413  31.121  12.016
71639W        W43365  11.610  24.419   3.682
71640W        W43366  38.592  35.318   3.205
71641W        W43367  34.952  11.074   1.439
71642W        W43368  16.051  30.110   1.600
71643W        W43369  31.069  20.065   4.962
71644W        W43370  36.175  15.810  10.720
71645W        W43371   0.866  14.007  12.504
71646W        W43372  43.471  36.841  12.455
71647W        W43373  43.105  15.320   1.799
71648W        W43374  11.458  27.650  13.797
71649W        W43375  19.530  24.106  13.533
71650W        W43376  26.144  13.120   3.484
71651W        W43377  28.125   5.834   3.162
71652W        W43378  18.964  38.557  11.384
71653W        W43379  24.607  16.840  11.050
71654W        W43380  38.189  33.626  12.874
71655W        W43381   9.392  31.708  11.144
71656W        W43382  10.508  33.722  14.797
71657W        W43383  11.369  31.628   0.373
71658W        W43384  38.495  26.345   4.609
71659W        W43385  31.440  30.001   0.772
71660W        W43386  41.637  33.312  12.994
71661W        W43387  13.271  31.015  11.475
71662W        W43388  44.005  32.493   3.045
71663W        W43389  34.444  39.329  13.025
71664W        W43390  15.146  28.681   4.659
71665W        W43391  30.670  22.075   0.692
71666W        W43392  31.879  31.095   3.395
71667W        W43393  41.285  34.602  12.665
71668W        W43394  31.844  27.422   1.356
71669W        W43395  22.215  36.176   3.223
71670W        W43396  43.485  44.839   3.551
71671W        W43397  10.085  27.125  12.076
71672W        W43398   9.837  25.397  13.531
71673W        W43399  43.672  22.430  12.861
71674W        W43400  31.154  28.984   3.210
71675W        W43401  12.332  25.769  12.119
71676W        W43402  20.286  44.167  10.204
71677W        W43403  16.567   0.714   3.684
71678W        W43404   6.785  24.222   2.436
71679W        W43405   0.001   0.225  13.033
71680W        W43406  13.838   8.562   0.774
71681W        W43407  29.743  28.987  10.324
71682W        W43408  14.549  44.806   1.510
71683W        W43409   7.786  18.555  11.056
71684W        W43410  26.044  17.241   2.523
71685W        W43411   0.333  37.017   3.081
71686W        W43412  34.144  18.634  11.387
71687W        W43413  25.569   6.557  13.189
71688W        W43414  26.808  19.924   0.899
71689W        W43415  40.114  37.644  11.992
71690W        W43416   1.028  19.642  13.030
71691W        W43417  24.567  10.876   1.709
71692W        W43418  22.542   2.443  14.720
71693W        W43419  37.831  38.552  12.981
71694W        W43420  27.967  44.529   2.081
71695W        W43421  42.536   2.472  10.785
71696W        W43422  31.118  25.285   2.498
71697W        W43423   0.070   1.793   2.666
71698W        W43424  21.702  37.816  10.504
71699W        W43425  38.506  17.369   3.807
71700W        W43426  38.952  15.127  14.827
71701W        W43427  16.747   2.430  13.141
71702W        W43428  40.938  11.157   1.867
71703W        W43429  21.138  19.467  12.049
71704W        W43430  25.456  20.614   0.389
71705W        W43431  19.031   1.473   4.820
71706W        W43432   5.958  33.147  12.900
71707W        W43433  20.532  15.689   1.727
71708W        W43434  40.518  17.763   4.491
71709W        W43435  14.824  11.574   2.933
71710W        W43436  42.024  32.542  11.570
71711W        W43437  19.227  10.071  11.532
71712W        W43438  13.570  19.762   3.184
71713W        W43439  21.502  37.467  13.125
71714W        W43440   7.506  33.670  11.630
71715W        W43441   8.341  22.999   1.895
71716W        W43442  44.726   6.234   3.254
71717W        W43443  14.747  11.913  14.377
71718W        W43444  34.360   9.087  10.761
71719W        W43445   7.885  16.905  13.934
71720W        W43446  17.238  44.277   2.746
71721W        W43447  31.549  13.278   3.257
71722W        W43448   8.482  36.090   5.045
71723W        W43449  31.000  38.574   0.532
71724W        W43450  18.463  39.068   2.320
71725W        W43451  37.089  12.757   2.739
71726W        W43452  13.626  16.175  13.142
71727W        W43453  43.986  13.523   3.880
71728W        W43454  36.264  28.577   0.761
71729W        W43455   7.723  34.967   4.034
71730W        W43456  32.473  42.610  13.710
71731W        W43457  35.936  38.893  10.672
71732W        W43458  28.638  19.550   3.672
71733W        W43459  40.081  32.329   1.733
71734W        W43460   1.310  30.479   4.593
71735W        W43461  39.883  11.658   4.301
71736W        W43462   8.885  39.007   0.506
71737W        W43463   6.427  38.993   4.242
71738W        W43464  27.903  40.640  13.843
71739W        W43465  13.793  18.245  11.023
71740W        W43466  15.455  25.509  12.454
71741W        W43467  38.061  32.708  13.943
71742W        W43468   7.134  22.718   0.860
71743W        W43469  37.059  43.875   0.439
71744W        W43470   5.817   2.253  11.430
71745W        W43471  15.069  39.310   0.279
71746W        W43472  29.959  41.984  13.483
71747W        W43473  23.256  16.827   2.622
71748W        W43474  20.988  18.603  11.260
71749W        W43475  36.064  13.138  14.386
71750W        W43476  29.192   4.822  11.668
71751W        W43477  13.856  37.609   2.116
71752W        W43478  33.255   9.100   2.600
71753W        W43479   3.504  35.041  12.117
71754W        W43480  25.273  13.239   4.665
71755W        W43481   0.697  32.453   2.482
71756W        W43482  31.458  32.335  11.057
71757W        W43483  31.178  29.229   2.745
71758W        W43484  18.068   4.005   3.236
71759W        W43485  20.082  35.675  11.237
71760W        W43486  25.039  26.216  12.673
71761W        W43487  38.505  26.591  14.237
71762W        W43488   2.662  21.730   4.173
71763W        W43489   6.372  11.278   3.000
71764W        W43490  39.934  23.157  11.665
71765W        W43491  27.001  19.773  12.102
71766W        W43492  23.193  10.613  11.606
71767W        W43493  32.567  24.252   3.669
71768W        W43494  34.925  16.638   2.869
71769W        W43495  18.294  34.063  13.417
71770W        W43496  12.655   2.806  12.481
71771W        W43497  40.736  34.200  12.046
71772W        W43498  38.239   4.211  12.319
71773W        W43499  19.775  40.196   0.540
71774W        W43500  10.936  38.569   0.182
71775W        W43501  16.752  16.922   0.690
71776W        W43502   9.392   9.620   3.152
71777W        W43503  29.549  42.529  10.509
71778W        W43504  26.199  28.455  12.448
71779W        W43505  25.990  34.897  12.995
71780W        W43506   1.901   5.387  12.616
71781W        W43507  19.212  25.137  14.256
71782W        W43508  19.635  31.968  12.502
71783W        W43509  17.770  14.823  12.083
71784W        W43510  10.356   4.957  13.738
71785W        W43511  30.044  18.335   3.608
71786W        W43512  38.481  38.036  10.932
71787W        W43513  18.579  43.945  10.709
71788W        W43514  25.125  37.652   0.263
71789W        W43515  12.030  11.635  14.728
71790W        W43516  16.832  37.717   0.890
71791W        W43517  16.874  27.880   1.827
71792W        W43518  43.891  43.082   2.298
71793W        W43519  29.407  24.723   5.423
71794W        W43520  28.746  29.242  11.573
71795W        W43521  33.868  20.651   3.652
71796W        W43522  18.167   6.912  13.568
71797W        W43523  27.219  32.829  12.974
71798W        W43524   4.952  38.545  12.104
71799W        W43525  40.826  13.002   4.115
71800W        W43526  40.558  13.813   3.728
71801W        W43527  22.035   6.907   2.619
71802W        W43528   2.984  38.761  12.660
71803W        W43529  20.956  34.550  12.835
71804W        W43530  35.048  43.161  13.107
71805W        W43531  15.723   0.335  12.969
71806W        W43532  22.080   2.820   0.694
71807W        W43533  24.566   1.860  10.655
71808W        W43534  40.011   6.392   1.778
71809W        W43535  21.516  11.307   3.295
71810W        W43536  44.289  31.844  12.453
71811W        W43537  44.741  43.143   3.665
71812W        W43538   4.658  40.822  11.129
71813W        W43539  20.693   7.863   1.321
71814W        W43540   2.910  40.242  12.556
71815W        W43541  34.436   2.990   2.354
71816W        W43542  17.991  19.042  11.525
71817W        W43543  30.616  30.972   0.614
71818W        W43544  10.163  12.386   0.813
71819W        W43545  39.453  25.698   2.371
71820W        W43546  29.290  39.823  11.519
71821W        W43547  15.637   8.168   0.114
71822W        W43548  31.017   1.531   0.900
71823W        W43549  11.550  12.201   3.677
71824W        W43550  40.877  22.137   2.197
71825W        W43551   3.722  40.538  11.362
71826W        W43552   2.333  20.390   2.155
71827W        W43553  31.391   2.273   2.049
71828W        W43554  41.527  43.210   5.058
71829W        W43555  39.556  10.181   4.122
71830W        W43556  40.607  19.094   3.117
71831W        W43557  16.636  21.207  11.088
71832W        W43558  37.939   6.346  11.465
71833W        W43559  40.342  19.105  11.226
71834W        W43560  38.432  12.358  12.509
71835W        W43561   1.370  13.824   0.918
71836W        W43562  44.776  26.894   3.695
71837W        W43563  42.027  20.059  13.999
71838W        W43564  36.160   1.878  12.962
71839W        W43565  31.847  22.142  10.500
71840W        W43566  12.774  33.967  14.753
71841W        W43567  10.974  14.072  13.100
71842W        W43568  16.301   6.406   2.875
71843W        W43569  38.334  36.129   0.308
71844W        W43570  44.434   4.629  13.462
71845W        W43571  25.600  10.716  10.620
71846W        W43572  33.848   3.410   1.896
71847W        W43573  37.322  27.492   4.129
71848W        W43574  37.062   4.295  10.588
71849W        W43575  18.330  26.618   2.814
71850W        W43576  26.503  10.270  12.956
71851W        W43577  39.944  19.562  13.139
71852W        W43578  27.116  35.060   3.369
71853W        W43579  33.525  10.211  11.368
71854W        W43580  37.055  27.450  14.344
71855W        W43581   5.323  34.754  13.276
71856W        W43582  12.039  41.112  12.293
71857W        W43583  34.560  30.941   4.750
71858W        W43584   8.465   0.469  12.093
71859W        W43585   5.030  15.409   0.968
71860W        W43586  20.655  15.666  10.295
71861W        W43587  27.908  26.115   4.622
71862W        W43588  40.452   2.375  13.757
71863W        W43589  17.031   3.409  14.356
71864W        W43590  38.445  21.998   0.956
71865W        W43591  36.836  36.089   0.524
71866W        W43592  35.359  16.019   2.344
71867W        W43593  36.128  32.795  11.045
71868W        W43594  43.583  29.751  11.151
71869W        W43595  17.137  12.037   3.715
71870W        W43596   3.473  39.253   0.018
71871W        W43597  42.041  35.334  12.379
71872W        W43598  29.141  23.480  12.968
71873W        W43599  37.771  36.311   1.365
71874W        W43600  35.554   0.065   2.699
71875W        W43601   2.351  29.006   0.730
71876W        W43602  20.852  32.158   4.687
71877W        W43603  33.610  10.793   1.747
71878W        W43604  39.427  35.311  11.513
71879W        W43605  21.621  43.252  14.935
71880W        W43606  15.594  28.902   0.360
71881W        W43607  36.670  23.987  13.863
71882W        W43608  36.350   2.413  10.701
71883W        W43609  16.242  20.327  14.893
71884W        W43610  42.918  30.535  12.326
71885W        W43611  26.193   2.365   2.701
71886W        W43612   0.805   3.487   4.150
71887W        W43613  27.040  28.546  13.020
71888W        W43614  39.408  44.887  13.637
71889W        W43615  24.826  22.479  13.450
71890W        W43616  18.480   9.847   1.103
71891W        W43617   0.873  37.996  14.859
71892W        W43618  27.063  30.239   1.741
71893W        W43619  43.857  34.419  11.861
71894W        W43620  23.982   0.419   0.990
71895W        W43621  15.943   6.603  11.134
71896W        W43622  12.627  22.907  13.166
71897W        W43623  20.105   1.810   4.110
71898W        W43624   8.836  27.429   2.049
71899W        W43625  23.728  39.512  13.476
71900W        W43626  25.181   4.711   0.448
71901W        W43627  35.364  26.941   0.049
71902W        W43628  13.713  25.647   4.226
71903W        W43629  23.857  16.573   4.031
71904W        W43630  43.251  20.018   1.239
71905W        W43631  39.711   0.688  12.916
71906W        W43632   9.516   0.464  12.131
71907W        W43633   6.518  34.677  11.106
71908W        W43634  18.123  24.221   0.253
71909W        W43635  34.413  19.815   2.246
71910W        W43636  29.756  21.514  14.877
71911W        W43637  37.402  42.244  10.653
71912W        W43638  42.280   8.618  12.628
71913W        W43639  19.971  21.655  10.780
71914W        W43640   0.170  26.328   4.913
71915W        W43641  19.344  34.370  13.812
71916W        W43642  12.148   4.828  13.012
71917W        W43643   1.848  38.521   1.387
71918W        W43644  25.839  25.446  14.255
71919W        W43645  44.917  29.024   4.426
71920W        W43646  12.222  25.506  12.545
71921W        W43647  42.890  39.991  12.526
71922W        W43648  33.881   6.263   2.811
71923W        W43649  15.432  21.331   4.229
71924W        W43650   0.462  17.231   4.145
71925W        W43651   4.780  17.239   4.546
71926W        W43652  26.081  41.726   4.040
71927W        W43653  31.894   0.035   2.207
71928W        W43654   7.193  11.868  11.181
71929W        W43655  10.685  21.151   0.326
71930W        W43656  22.525   0.066   4.259
71931W        W43657  29.371  16.425   1.113
71932W        W43658  19.002   4.816   4.481
71933W        W43659   0.488  28.376   1.499
71934W        W43660   0.480  42.625  11.203
71935W        W43661  35.946  44.741   1.798
71936W        W43662  10.661  21.138  10.338
71937W        W43663  22.050  13.724   0.100
71938W        W43664   2.488   5.766  10.994
71939W        W43665  38.956   1.006   1.700
71940W        W43666  43.780  26.594  12.928
71941W        W43667  34.361  39.010   2.421
71942W        W43668   5.759  29.409   1.143
71943W        W43669  18.492  18.806  11.038
71944W        W43670   9.758  43.195   4.014
71945W        W43671  22.115  16.625   1.233
71946W        W43672  32.018  37.908  13.034
71947W        W43673  41.028  19.831   1.474
71948W        W43674   5.414  13.625  14.779
71949W        W43675   0.412  25.887   0.415
71950W        W43676  16.018  41.423   3.309
71951W        W43677  27.720  38.877  14.284
71952W        W43678  28.188  12.969   3.763
71953W        W43679  13.254  25.923   4.095
71954W        W43680  32.004  30.655   3.173
71955W        W43681  42.255  12.136   0.449
71956W        W43682  15.218   5.171   4.115
71957W        W43683  12.096  41.849   2.432
71958W        W43684  36.066   1.044  10.767
71959W        W43685  44.039   7.405   0.911
71960W        W43686   4.464   9.362   3.760
71961W        W43687  22.196  21.786   2.220
71962W        W43688  37.015  16.585   3.933
71963W        W43689  43.464  38.983   0.552
71964W        W43690  31.856  26.021  10.299
71965W        W43691  13.093  39.433   0.874
71966W        W43692  33.320  36.466  11.158
71967W        W43693  12.763   2.505   1.314
71968W        W43694  24.693  35.395   4.085
71969W        W43695   2.860  25.466  14.512
71970W        W43696   8.240  24.984  13.417
71971W        W43697  21.594  21.091  12.168
71972W        W43698  32.053  17.142  12.383
71973W        W43699  42.210   8.123  13.604
71974W        W43700  28.883  23.837   3.962
71975W        W43701  35.171  27.085  11.437
71976W        W43702  18.261  18.026   1.006
71977W        W43703  36.820   0.714   0.740
71978W        W43704  43.788  39.332  11.922
71979W        W43705  12.759  30.560   4.042
71980W        W43706  18.630  26.634   4.153
71981W        W43707   3.976  10.928   0.799
71982W        W43708  20.734  35.047  11.583
71983W        W43709  10.224  25.268   4.252
71984W        W43710   6.830  13.843  10.257
71985W        W43711  32.154  43.422   3.328
71986W        W43712  20.584  25.300  13.305
71987W        W43713  41.283  21.010   2.187
71988W        W43714  37.489  23.045   1.183
71989W        W43715  39.128  29.075  13.417
71990W        W43716  41.595   8.231   3.316
71991W        W43717  14.877  37.889   3.279
71992W        W43718  44.449  14.093  14.957
71993W        W43719  44.957  35.439   1.764
71994W        W43720  28.467  18.041   1.835
71995W        W43721  18.668  40.133  10.769
71996W        W43722  13.076  28.957   2.277
71997W        W43723   0.532  39.103   2.247
71998W        W43724   6.571   6.247   1.439
71999W        W43725  37.515  41.355  12.450
72000W        W43726  31.595  41.588  14.942
72001W        W43727   3.966  18.361   1.723
72002W        W43728  14.401  25.572   0.565
72003W        W43729  16.032  39.830  12.627
72004W        W43730  32.960  40.396  12.949
72005W        W43731  10.031  14.276  13.233
72006W        W43732  41.042  14.460  13.957
72007W        W43733  26.303  13.746   4.152
72008W        W43734   8.904  18.685  11.925
72009W        W43735  41.864   8.294  11.089
72010W        W43736  31.023  38.900   4.462
72011W        W43737  22.654  14.311  11.651
72012W        W43738  41.856  10.798  13.622
72013W        W43739  22.757  25.446   3.901
72014W        W43740  16.291  33.225  14.281
72015W        W43741   7.437  28.046  10.688
72016W        W43742  23.119  35.283   3.365
72017W        W43743  12.732  28.664  11.560
72018W        W43744   5.695  24.491  12.501
72019W        W43745  12.785  41.854  11.598
72020W        W43746   6.821   0.775  11.338
72021W        W43747  20.659   0.256  12.320
72022W        W43748  29.703   6.191   2.697
72023W        W43749  21.009  41.350  14.180
72024W        W43750  20.427  31.556  11.991
72025W        W43751  26.400   8.954  10.048
72026W        W43752   7.140  38.033   0.066
72027W        W43753  32.406  40.427  10.426
72028W        W43754  22.551   0.368   3.419
72029W        W43755  19.603  16.615   3.980
72030W        W43756  44.926   5.487   4.279
72031W        W43757   6.830   5.850  11.121
72032W        W43758   0.887  42.922   2.718
72033W        W43759  28.181  39.318   1.187
72034W        W43760  28.036  32.882   1.926
72035W        W43761  18.712   0.254  12.463
72036W        W43762  33.208   6.853  11.682
72037W        W43763  40.570  34.582  11.730
72038W        W43764  19.385  18.866   4.513
72039W        W43765  13.256   2.091   9.931
72040W        W43766  43.274   6.695   1.715
72041W        W43767  42.086  39.718  12.104
72042W        W43768  18.056  34.105   3.735
72043W        W43769  33.664  41.998   4.633
72044W        W43770  33.416  40.127   2.705
72045W        W43771   5.974   2.865  12.057
72046W        W43772  38.442  22.948  14.492
72047W        W43773  13.497  29.418  12.712
72048W        W43774  30.563  13.203  13.382
72049W        W43775  21.793   1.208   1.880
72050W        W43776  13.880  40.993  12.030
72051W        W43777  33.169  24.749   1.691
72052W        W43778  18.182  32.463   4.524
72053W        W43779  22.224   3.269   0.449
72054W        W43780  39.930  22.340  11.821
72055W        W43781  25.730  36.487   3.345
72056W        W43782  24.498   5.141  11.204
72057W        W43783  11.753  20.012   1.795
72058W        W43784  44.777  32.994   2.352
72059W        W43785   7.811   4.421   0.431
72060W        W43786  11.925  21.028  13.820
72061W        W43787  25.982  27.902  12.369
72062W        W43788  25.746  35.548   2.252
72063W        W43789   9.890  18.051  12.974
72064W        W43790  41.015   9.412  13.535
72065W        W43791   4.187  39.396   4.294
72066W        W43792  16.242  25.237  12.842
72067W        W43793  23.338  42.627   3.639
72068W        W43794  21.554   7.670  11.203
72069W        W43795  20.507  22.578  11.585
72070W        W43796  36.432   3.730   4.576
72071W        W43797   5.338   7.150   1.041
72072W        W43798  19.552   0.238  11.309
72073W        W43799  30.106  36.933   4.189
72074W        W43800  32.588  42.702  11.104
72075W        W43801   8.231  25.522  11.859
72076W        W43802  12.925  18.318  13.007
72077W        W43803  14.323  25.764   1.057
72078W        W43804  30.612  15.163   3.544
72079W        W43805  32.418  37.971   3.706
72080W        W43806  38.487  40.070   0.236
72081W        W43807  29.679   1.295   3.071
72082W        W43808  25.821  43.793   2.683
72083W        W43809   4.815  35.609  14.937
72084W        W43810  43.037  42.438  14.024
72085W        W43811  43.332   7.435  11.889
72086W        W43812  19.164  17.766   3.730
72087W        W43813  20.659  42.697  11.927
72088W        W43814  16.702  40.779  12.723
72089W        W43815  15.611  16.066  13.085
72090W        W43816  35.040   9.177  14.482
72091W        W43817  15.595  10.247   2.823
72092W        W43818  32.494  23.880  10.384
72093W        W43819  11.130  38.468  14.561
72094W        W43820   4.912  36.711   1.329
72095W        W43821  42.104  15.229   1.807
72096W        W43822  34.205   0.825   2.831
72097W        W43823  37.845  12.252   3.617
72098W        W43824   1.262  41.239  12.426
72099W        W43825  39.899  28.066   1.915
72100W        W43826  26.955  29.134   4.418
72101W        W43827  35.573   8.102  14.360
72102W        W43828   6.777  16.776   1.840
72103W        W43829  24.155   4.416  12.446
72104W        W43830   7.254  12.373  13.421
72105W        W43831  30.009  13.077  10.742
72106W        W43832   2.757  32.670  11.273
72107W        W43833  34.009  20.674  13.959
72108W        W43834   5.300   1.501  14.019
72109W        W43835  12.961   5.876  11.150
72110W        W43836  33.986  39.782  11.578
72111W        W43837  31.054   1.139  10.986
72112W        W43838  14.295   1.816   4.138
72113W        W43839  36.062  24.293   0.451
72114W        W43840  38.939   5.031  11.509
72115W        W43841  26.966  20.174   0.405
72116W        W43842  43.069   0.808   5.241
72117W        W43843  11.545  27.114   2.260
72118W        W43844  27.692  30.428   0.262
72119W        W43845  17.539   1.290  12.311
72120W        W43846  36.464  39.952   1.411
72121W        W43847  33.145  24.392  11.789
72122W        W43848  11.827  38.587   1.598
72123W        W43849   9.858  13.299  12.916
72124W        W43850  31.725  32.805  13.927
72125W        W43851  31.983  19.486   1.776
72126W        W43852   9.722   4.488  10.738
72127W        W43853   4.081  44.205   3.153
72128W        W43854  38.896  27.093   2.950
72129W        W43855  30.434  12.408   4.571
72130W        W43856  25.401  38.848   1.370
72131W        W43857   4.746  38.994  11.209
72132W        W43858  30.613  38.769   4.092
72133W        W43859  13.188   0.259  12.943
72134W        W43860  12.357  25.068  13.554
72135W        W43861   0.825  42.358   0.567
72136W        W43862  10.899  31.142  11.513
72137W        W43863  34.426  35.683  11.205
72138W        W43864  34.943  24.962   3.609
72139W        W43865  43.873  30.270  11.826
72140W        W43866  19.698  39.761   0.822
72141W        W43867  12.239  15.747  13.317
72142W        W43868  38.085   5.855   1.923
72143W        W43869  20.411  16.862   0.455
72144W        W43870  33.464  31.254  13.619
72145W        W43871  19.191  16.810  14.932
72146W        W43872   9.403  32.378   1.956
72147W        W43873  29.324  22.112   3.317
72148W        W43874   7.927  25.593   4.521
72149W        W43875  39.769  41.782  14.749
72150W        W43876  34.532  25.591   0.835
72151W        W43877  16.614  30.827  10.734
72152W        W43878  17.312  23.054  14.903
72153W        W43879  25.420  17.133   4.869
72154W        W43880  20.540  13.333   1.680
72155W        W43881   4.431  16.786   0.914
72156W        W43882  10.243  23.495   2.040
72157W        W43883  38.390  39.707   0.956
72158W        W43884  10.439   8.716  11.094
72159W        W43885  17.153  28.414   1.428
72160W        W43886  17.180  29.862   3.451
72161W        W43887  19.688   8.857  11.395
72162W        W43888  23.206  19.299  13.816
72163W        W43889   9.372  23.997  11.921
72164W        W43890   1.387  20.067  12.067
72165W        W43891  24.129  10.292   1.424
72166W        W43892   0.294  28.573  11.615
72167W        W43893  20.198  42.852  11.676
72168W        W43894  29.944  15.525  12.857
72169W        W43895   2.871  25.528   3.645
72170W        W43896   6.763  25.859  10.578
72171W        W43897  40.744  19.093  12.150
72172W        W43898  30.104  43.933   5.323
72173W        W43899  38.959  13.322   4.413
72174W        W43900  41.336   6.881   4.391
72175W        W43901  22.258  28.041   3.570
72176W        W43902   9.669  19.436  13.513
72177W        W43903   0.649  27.780   3.056
72178W        W43904  29.455  29.981  14.440
72179W        W43905  14.099  30.555   3.638
72180W        W43906  29.254  23.106   3.192
72181W        W43907  22.769  17.131   3.160
72182W        W43908  39.759  36.080  11.620
72183W        W43909   3.594  36.849  12.468
72184W        W43910   5.951  24.701  14.338
72185W        W43911   2.744   8.211   0.801
72186W        W43912  44.203  39.515  12.607
72187W        W43913   3.396   3.704  10.681
72188W        W43914  20.235  16.054  12.916
72189W        W43915  33.881  30.593   0.192
72190W        W43916  37.095  20.370  14.889
72191W        W43917  14.205  25.069  12.276
72192W        W43918  16.353  22.167   2.872
72193W        W43919  44.732  34.749  12.005
72194W        W43920  32.358  18.956  13.417
72195W        W43921  33.147  30.159   1.809
72196W        W43922  11.573  21.712   3.406
72197W        W43923   3.435  21.772   2.693
72198W        W43924  33.152   2.503  11.143
72199W        W43925   6.545  16.299   1.284
72200W        W43926  35.508  41.017  13.585
72201W        W43927  37.274  19.695   0.166
72202W        W43928   1.340  36.941   4.854
72203W        W43929  40.735  42.963  10.456
72204W        W43930  14.258  22.969   2.096
72205W        W43931   1.271  44.639  11.595
72206W        W43932  17.604  19.812  13.310
72207W        W43933   2.267  19.138   1.721
72208W        W43934  11.158  12.624  11.445
72209W        W43935  16.833  28.703   3.335
72210W        W43936  26.324  16.045   4.984
72211W        W43937   5.403  21.463   4.103
72212W        W43938   3.825   8.091  12.113
72213W        W43939  41.968  36.161  11.087
72214W        W43940  40.569  25.437  11.408
72215W        W43941   6.195  16.672   1.220
72216W        W43942  19.625  12.809   4.415
72217W        W43943  13.577   9.844   2.739
72218W        W43944   4.023   3.243   5.101
72219W        W43945  36.550  15.542   4.655
72220W        W43946  24.670  14.660  11.553
72221W        W43947  17.546  44.795   0.298
72222W        W43948  35.322  42.411  10.677
72223W        W43949  11.310   2.765  12.505
72224W        W43950   7.870  38.503  11.326
72225W        W43951  39.191   0.066   1.626
72226W        W43952  41.355  21.587  12.564
72227W        W43953  40.946   3.422   3.753
72228W        W43954   1.484  12.555  14.409
72229W        W43955  41.558  43.344  12.516
72230W        W43956  44.252  31.032  12.252
72231W        W43957  35.115  25.177  10.705
72232W        W43958  38.898   3.195  13.311
72233W        W43959  13.135  26.403  12.444
72234W        W43960  35.180  13.746   0.406
72235W        W43961  24.180  24.157   4.531
72236W        W43962  29.427  32.474  12.785
72237W        W43963  10.687  13.133  13.876
72238W        W43964  42.970  41.075   3.729
72239W        W43965  19.160  41.346  14.395
72240W        W43966  34.796   1.676  10.487
72241W        W43967  14.863   8.452  11.213
72242W        W43968  44.929  41.719   3.760
72243W        W43969   6.010  26.013  11.856
72244W        W43970   7.980   5.519   0.553
72245W        W43971   2.407   7.617  13.523
72246W        W43972  36.879  35.846   1.446
72247W        W43973  40.454   5.748   1.325
72248W        W43974  42.616   2.152  12.991
72249W        W43975  36.035   1.024   3.194
72250W        W43976   7.728  11.558   4.313
72251W        W43977  15.657   4.626   0.184
72252W        W43978  44.298  19.488   2.803
72253W        W43979  13.645  10.649   1.752
72254W        W43980  21.172  27.133   0.494
72255W        W43981   5.406  22.222   1.771
72256W        W43982   9.757  41.984   3.655
72257W        W43983  18.919  42.541  12.963
72258W        W43984   7.271  38.774  12.812
72259W        W43985  36.146  43.456   3.074
72260W        W43986  15.288  40.289   2.842
72261W        W43987  25.899  35.566  14.661
72262W        W43988   5.172  14.051  10.261
72263W        W43989  40.849  41.141  14.969
72264W        W43990  33.388  39.811  14.333
72265W        W43991  16.882   7.757  12.017
72266W        W43992  30.826  44.489  12.800
72267W        W43993   3.005  23.445  10.646
72268W        W43994  14.724  42.768  11.104
72269W        W43995   1.479  10.606  12.992
72270W        W43996  19.092  23.355   2.482
72271W        W43997   9.175   8.927  14.350
72272W        W43998  44.812  33.997   4.740
72273W        W43999   1.866   0.416  13.936
72274W        W44000  29.466  10.787  13.394
72275W        W44001  26.245   9.371  10.365
72276W        W44002  42.025   2.919   1.436
72277W        W44003  17.198  44.861   4.458
72278W        W44004   0.946  31.386  12.526
72279W        W44005  34.551  37.858  14.399
72280W        W44006  35.219  40.988  14.561
72281W        W44007  18.157   7.899  14.841
72282W        W44008   4.242  12.557  10.962
72283W        W44009  23.688  19.496   2.382
72284W        W44010  15.378   1.698  13.487
72285W        W44011  14.283  34.980   1.925
72286W        W44012  26.975   3.910  13.403
72287W        W44013  33.908  24.920  11.150
72288W        W44014  21.040   7.648  11.158
72289W        W44015   9.722   3.176  12.956
72290W        W44016  38.608  28.543  11.809
72291W        W44017  43.316  27.160   3.776
72292W        W44018  18.787  32.643  13.450
72293W        W44019  44.035  43.815   0.818
72294W        W44020  39.868  42.409  12.551
72295W        W44021   3.234  17.346  11.599
72296W        W44022  39.976  24.557  11.539
72297W        W44023  13.780  44.051  14.030
72298W        W44024  31.113  33.960  14.556
72299W        W44025   5.097  18.716   3.685
72300W        W44026  39.775  25.709  14.028
72301W        W44027  15.087   5.783  11.549
72302W        W44028   0.887  33.466  12.279
72303W        W44029  10.109  17.239   2.342
72304W        W44030  23.802  18.519   3.311
72305W        W44031  37.154  28.876   0.037
72306W        W44032  33.949   6.436   3.287
72307W        W44033  34.009  40.831   2.799
72308W        W44034  36.369  22.310   9.580
72309W        W44035   9.865   9.474   5.056
72310W        W44036  14.164  19.294   0.317
72311W        W44037  17.798  33.347   4.464
72312W        W44038   8.267   9.231   4.962
72313W        W44039  13.020   2.689   2.654
72314W        W44040  19.280  43.352  13.504
72315W        W44041   9.908  34.533   5.051
72316W        W44042   4.917   6.633   5.472
72317W        W44043  16.798  25.916  12.672
72318W        W44044  37.360  43.595  14.595
72319W        W44045  29.686   6.801   3.658
72320W        W44046  10.707   8.661  14.813
72321W        W44047  37.817  33.146   0.416
72322W        W44048   5.081   0.984  14.346
72323W        W44049  35.524  39.541  12.363
72324W        W44050   5.132  22.520   3.216
72325W        W44051  18.628  17.145  12.084
72326W        W44052  11.045  20.734  13.776
72327W        W44053  16.035  18.691   1.236
72328W        W44054   3.253   8.306   0.901
72329W        W44055  11.764   0.359   3.949
72330W        W44056  41.305   9.157   2.846
72331W        W44057  39.149  38.081  11.919
72332W        W44058   4.267  25.671   2.152
72333W        W44059  34.024   9.628   3.984
72334W        W44060  22.319  29.070  12.414
72335W        W44061  34.519  20.717  13.853
72336W        W44062  35.769  24.466  12.860
72337W        W44063  11.926  44.859   4.515
72338W        W44064  11.045  23.736  10.587
72339W        W44065  12.848   5.758   1.678
72340W        W44066   8.716  20.622  11.424
72341W        W44067   0.853  13.333  10.349
72342W        W44068  44.332  13.189   4.037
72343W        W44069  42.897   8.218  10.929
72344W        W44070  11.134  20.035   2.957
72345W        W44071  22.587  30.389   4.684
72346W        W44072  27.202  39.092   0.496
72347W        W44073  37.862   1.663   1.662
72348W        W44074   5.813  17.220  13.779
72349W        W44075   3.485   8.899  11.922
72350W        W44076   2.173  27.462   0.339
72351W        W44077  21.728  34.406  14.303
72352W        W44078  27.450  43.371  11.361
72353W        W44079  41.439  41.740   1.235
72354W        W44080  42.833  25.919   4.231
72355W        W44081   7.934  44.218   0.330
72356W        W44082  39.745  26.546   2.674
72357W        W44083  13.044  15.128   1.469
72358W        W44084   0.442   0.589   4.461
72359W        W44085  22.153  31.497   0.039
72360W        W44086  36.974  23.423  11.252
72361W        W44087  28.618   5.474   3.021
72362W        W44088   4.964  21.743  12.788
72363W        W44089  36.343  20.064   0.878
72364W        W44090  40.712  44.998   3.636
72365W        W44091  18.641  24.253   3.724
72366W        W44092  28.086   5.674  10.791
72367W        W44093  37.787  32.464   1.132
72368W        W44094  36.411  34.908   3.579
72369W        W44095   5.718  15.745   0.431
72370W        W44096   4.514   0.834  13.047
72371W        W44097  18.994  28.030   0.867
72372W        W44098   6.825   3.402  13.065
72373W        W44099  34.626   4.229   4.027
72374W        W44100   9.828   5.668   4.964
72375W        W44101  37.358  35.474  14.990
72376W        W44102  36.493  38.102  14.890
72377W        W44103  40.270   6.891  14.863
72378W        W44104   8.175  17.811  10.495
72379W        W44105  40.084  17.577  13.884
72380W        W44106  33.899   8.218  13.890
72381W        W44107  17.751  19.278   0.549
72382W        W44108   6.919  24.733   4.120
72383W        W44109   1.499  37.958   2.780
72384W        W44110  14.490  14.043   4.327
72385W        W44111  41.523  38.985  12.525
72386W        W44112   0.512   9.136  11.330
72387W        W44113  19.039  11.766  12.569
72388W        W44114  13.291  40.757  13.544
72389W        W44115   0.961  19.140   3.585
72390W        W44116   4.397   8.425   4.578
72391W        W44117  43.821  19.250   4.368
72392W        W44118  12.262   0.773   2.371
72393W        W44119  43.840  23.112  11.183
72394W        W44120  13.452  19.533   1.733
72395W        W44121   0.844  13.020  12.858
72396W        W44122   4.456   6.820   3.713
72397W        W44123  28.453   7.789  14.924
72398W        W44124  29.444   3.838  13.876
72399W        W44125  34.115   1.807  11.696
72400W        W44126  20.996  34.960   1.809
72401W        W44127  28.403  19.739  13.468
72402W        W44128  33.589  26.710   1.066
72403W        W44129  19.107  26.711  14.248
72404W        W44130  18.801  27.546  12.011
72405W        W44131  31.364  31.962   2.187
72406W        W44132  29.221  23.689  14.816
72407W        W44133  12.260  21.399   2.613
72408W        W44134   7.704  14.883   2.537
72409W        W44135  21.794  15.906   2.913
72410W        W44136  23.469  18.247  12.783
72411W        W44137   8.164  27.143   4.496
72412W        W44138  39.291   1.991   3.179
72413W        W44139  37.215  22.496   1.911
72414W        W44140  22.093  21.740   4.052
72415W        W44141  40.231  32.839  13.904
72416W        W44142  16.758   5.933   1.910
72417W        W44143  19.213   7.893   2.898
72418W        W44144  37.496   5.750   4.107
72419W        W44145  42.806  20.318   1.403
72420W        W44146  43.891  24.436  11.115
72421W        W44147  13.320   1.539   3.871
72422W        W44148   2.847  19.703  11.601
72423W        W44149  44.962  33.447   3.635
72424W        W44150  34.360  21.122  12.598
72425W        W44151  11.893  20.095  10.291
72426W        W44152  27.548   9.877   0.039
72427W        W44153  23.148   2.172  12.548
72428W        W44154   3.982  35.927  14.179
72429W        W44155   7.474  23.181  11.157
72430W        W44156  14.347   7.064   1.176
72431W        W44157  15.827  20.563   3.247
72432W        W44158  39.168   8.209   4.191
72433W        W44159  39.564  31.474   2.643
72434W        W44160  30.207  29.910  14.474
72435W        W44161  13.792   1.434  12.523
72436W        W44162  30.224  10.659  11.614
72437W        W44163  11.784  23.358   1.269
72438W        W44164   8.489  14.396   3.888
72439W        W44165  30.112  20.802  10.788
72440W        W44166  17.203   0.222  13.277
72441W        W44167  27.666  43.926  13.849
72442W        W44168  16.599   3.257  14.131
72443W        W44169  14.152  15.858  11.103
72444W        W44170   1.385  24.071   2.701
72445W        W44171  13.195  43.909  13.431
72446W        W44172  13.455  22.797  14.294
72447W        W44173  24.492  13.224   5.011
72448W        W44174   7.915  20.467   2.275
72449W        W44175   0.864   0.740  10.936
72450W        W44176   4.490   2.731  11.688
72451W        W44177  20.742  41.149  12.538
72452W        W44178   0.482  12.898   2.275
72453W        W44179   2.863  18.616   1.278
72454W        W44180  11.307  33.962   4.219
72455W        W44181  30.153  35.891  14.383
72456W        W44182  40.499  23.032   0.623
72457W        W44183  23.246  33.896   1.298
72458W        W44184   8.209  42.830   1.828
72459W        W44185  39.288  42.753  10.999
72460W        W44186  40.397  41.683  13.450
72461W        W44187   2.321  29.113   2.324
72462W        W44188  16.104  21.295   1.157
72463W        W44189  35.892  10.360  10.715
72464W        W44190   4.029  37.464   4.605
72465W        W44191   2.197  32.876   3.110
72466W        W44192  37.629  13.986  13.815
72467W        W44193  35.041  37.230  11.199
72468W        W44194   4.308  21.075  12.851
72469W        W44195  14.224  38.901   5.560
72470W        W44196  18.267  30.842  13.518
72471W        W44197  20.709  30.374  11.503
72472W        W44198  27.025   7.238   2.347
72473W        W44199  34.916  21.884   0.263
72474W        W44200  42.359  42.117   0.257
72475W        W44201  39.066  11.152   0.473
72476W        W44202   2.081  15.853   1.482
72477W        W44203  18.438  17.399  10.542
72478W        W44204   8.378  23.460   4.148
72479W        W44205   2.016  28.941   1.652
72480W        W44206  32.411  22.117  10.609
72481W        W44207  35.619  23.250  13.007
72482W        W44208  39.861  22.283  14.226
72483W        W44209  11.654  26.277   0.918
72484W        W44210  33.379  13.096   4.123
72485W        W44211  13.273  29.409   4.008
72486W        W44212  37.445  16.713  14.369
72487W        W44213  20.164  18.813   3.839
72488W        W44214  16.237   9.825  14.455
72489W        W44215  19.375   2.946   0.318
72490W        W44216   8.224   1.107   2.880
72491W        W44217   6.213  42.449   4.711
72492W        W44218   9.881  23.710   5.127
72493W        W44219   9.716  34.162   3.222
72494W        W44220  34.769  41.884   3.333
72495W        W44221  35.159  40.411   0.758
72496W        W44222   4.285  26.537  13.035
72497W        W44223  13.764  44.565  13.853
72498W        W44224  19.126  39.535   0.413
72499W        W44225  14.285   9.468  11.673
72500W        W44226  39.507   8.809  12.870
72501W        W44227  13.179  15.073   3.122
72502W        W44228  25.162  11.694  11.543
72503W        W44229  10.225  25.668  14.820
72504W        W44230  25.414  20.236   4.707
72505W        W44231   0.411  20.054  12.168
72506W        W44232  26.415  36.998  10.633
72507W        W44233  22.974   2.102   1.403
72508W        W44234  35.839  18.029   1.395
72509W        W44235  25.390  13.188   1.662
72510W        W44236  16.568  41.199   5.395
72511W        W44237  37.738  37.919   0.286
72512W        W44238  31.532  27.614   3.290
72513W        W44239   3.456  29.130   2.734
72514W        W44240  20.033  28.616   2.287
72515W        W44241  41.464   6.895  14.259
72516W        W44242  13.323  32.852  12.883
72517W        W44243   1.335  44.869   3.530
72518W        W44244  43.962  32.457  13.493
72519W        W44245  15.275   1.697   2.469
72520W        W44246   1.230  28.598   0.432
72521W        W44247  11.749  36.887  10.146
72522W        W44248  18.646  42.836   5.138
72523W        W44249   4.945  37.510  14.732
72524W        W44250  17.298  34.496   1.821
72525W        W44251   7.323  18.252  13.865
72526W        W44252  26.480   1.672   3.165
72527W        W44253  19.836  32.188  13.882
72528W        W44254  38.867   4.021   0.047
72529W        W44255  14.261  38.649   5.104
72530W        W44256  26.034  16.079   2.702
72531W        W44257  28.480  19.298  10.867
72532W        W44258  22.570  41.395  10.323
72533W        W44259  34.627  42.569   0.500
72534W        W44260  13.884  36.920   4.654
72535W        W44261  43.579   5.837   0.152
72536W        W44262  16.813  42.824   1.998
72537W        W44263  27.989  20.724   1.536
72538W        W44264  42.494  29.090   4.149
72539W        W44265  39.613   3.745  13.640
72540W        W44266  11.967  40.118  12.490
72541W        W44267  32.009  38.914  14.692
72542W        W44268  18.326  13.190  10.889
72543W        W44269  15.787  26.649   0.640
72544W        W44270   7.682   7.819  10.693
72545W        W44271  20.680  40.675  12.367
72546W        W44272  17.694   6.997   2.945
72547W        W44273   2.811  35.508  13.981
72548W        W44274  19.464  35.154  11.187
72549W        W44275  12.398  11.795   3.815
72550W        W44276  10.281  42.164  13.381
72551W        W44277  13.545  11.593   4.475
72552W        W44278  34.504   1.083  13.576
72553W        W44279  24.657  10.682   0.681
72554W        W44280  15.640  39.376   1.689
72555W        W44281  23.561  13.881  10.484
72556W        W44282  33.164   2.516   3.247
72557W        W44283   3.453  42.866  13.865
72558W        W44284  16.816  10.395   0.385
72559W        W44285   9.221   2.411  13.891
72560W        W44286   7.149  10.970   2.629
72561W        W44287  40.084  20.641  14.937
72562W        W44288  31.616  26.496   2.755
72563W        W44289   7.155  34.337   0.016
72564W        W44290   6.021  14.266   4.291
72565W        W44291  15.281  29.476  10.655
72566W        W44292  36.128  12.349  13.762
72567W        W44293  22.962  17.260   2.689
72568W        W44294   4.517  16.163   4.806
72569W        W44295   9.047   3.514   5.011
72570W        W44296  38.580  20.070   3.742
72571W        W44297  31.214   3.520   1.572
72572W        W44298  23.585  16.333   4.821
72573W        W44299  14.450  29.675  14.225
72574W        W44300  30.941  15.121   4.674
72575W        W44301  10.870  38.123  13.833
72576W        W44302   8.405  25.791   4.637
72577W        W44303  44.258   2.942   0.368
72578W        W44304   5.690  24.205   0.382
72579W        W44305  28.134  17.409   4.102
72580W        W44306   9.104  21.426   2.798
72581W        W44307  40.870  37.846   1.488
72582W        W44308  31.981  12.284  11.034
72583W        W44309   7.392  30.993  13.293
72584W        W44310  18.083   7.012  11.313
72585W        W44311   0.348  10.030  11.577
72586W        W44312  24.316  24.322  13.242
72587W        W44313  38.475  40.368   4.910
72588W        W44314  21.359  43.456   3.500
72589W        W44315   6.403  22.330   4.520
72590W        W44316  42.466  29.482  13.544
72591W        W44317  18.599  24.889   1.835
72592W        W44318  35.676  31.025  12.004
72593W        W44319  32.467   7.833   2.001
72594W        W44320  17.362  16.623  10.294
72595W        W44321  25.686  10.475  14.341
72596W        W44322  16.704  19.573  11.410
72597W        W44323  25.218  31.498  12.712
72598W        W44324  10.157   5.713   3.186
72599W        W44325  23.725  11.867  11.326
72600W        W44326  32.535  43.440   1.052
72601W        W44327  11.408  20.412   3.273
72602W        W44328  32.379  14.344  13.048
72603W        W44329   8.987  42.677  11.056
72604W        W44330  32.635  30.841   4.694
72605W        W44331  36.114  22.082   2.374
72606W        W44332  21.161  17.546   2.970
72607W        W44333  41.314  40.785   3.806
72608W        W44334  19.675  16.797   2.916
72609W        W44335  30.446  13.770  14.330
72610W        W44336   3.411  27.769  12.514
72611W        W44337  25.889  12.211  11.538
72612W        W44338  19.711  43.585   2.968
72613W        W44339  37.557  11.859   2.786
72614W        W44340   1.162  10.788  13.372
72615W        W44341  36.167  29.151   2.390
72616W        W44342  30.007  35.851  12.565
72617W        W44343  37.314  16.567   1.811
72618W        W44344  40.953  20.309  13.887
72619W        W44345  41.064  28.515   1.760
72620W        W44346  17.781  36.571   0.959
72621W        W44347   5.225  14.246   4.093
72622W        W44348  43.036  38.599   2.928
72623W        W44349  35.379   1.347  13.476
72624W        W44350  12.728  10.285   3.354
72625W        W44351  22.103  33.507  13.338
72626W        W44352  35.490  12.280   1.098
72627W        W44353  29.893  27.414  11.137
72628W        W44354   0.088  24.429   2.354
72629W        W44355  12.444  20.596   3.117
72630W        W44356  13.876  28.157   4.569
72631W        W44357  24.959  28.991  11.539
72632W        W44358  35.560  18.047  12.427
72633W        W44359  20.052  33.003   1.494
72634W        W44360  26.076  34.500   0.511
72635W        W44361  26.618  24.873  13.299
72636W        W44362  43.051  41.842  12.951
72637W        W44363  18.697   0.074   4.254
72638W        W44364   7.899  41.674   0.529
72639W        W44365  36.127  40.783   1.218
72640W        W44366   7.885  42.754  12.534
72641W        W44367  21.023  22.269  10.345
72642W        W44368  26.689  35.529  14.039
72643W        W44369  13.666  20.682  14.586
72644W        W44370  15.650  29.154  10.524
72645W        W44371  17.273  29.526  14.008
72646W        W44372  11.632  19.282  12.009
72647W        W44373   1.889  23.094   4.559
72648W        W44374  22.492   8.834  14.270
72649W        W44375  16.817  42.439   3.553
72650W        W44376   8.708  31.832   3.570
72651W        W44377   8.443  15.230  13.760
72652W        W44378  29.162  39.396   3.098
72653W        W44379  29.024   4.278  14.448
72654W        W44380   8.319  34.271   2.273
72655W        W44381   6.164  41.984   3.313
72656W        W44382  17.676  21.265   2.409
72657W        W44383   7.009  31.486   0.030
72658W        W44384  22.580   1.550  11.122
72659W        W44385   2.694   0.055  10.350
72660W        W44386  27.396  19.285   1.322
72661W        W44387  25.452  30.871  11.024
72662W        W44388  25.807  21.531   2.806
72663W        W44389   3.155  37.442  14.375
72664W        W44390  17.981  17.157  14.223
72665W        W44391  37.498  39.465  11.858
72666W        W44392  23.233  37.773   3.308
72667W        W44393  27.169   6.934  11.145
72668W        W44394  12.407  17.754  13.833
72669W        W44395  44.866  23.745   4.220
72670W        W44396  27.528   0.530  12.600
72671W        W44397   6.321  32.301   0.177
72672W        W44398  41.458  23.216  13.508
72673W        W44399  43.181  34.082  11.503
72674W        W44400   3.289  37.392  14.898
72675W        W44401  11.126  16.349  14.343
72676W        W44402  33.960  36.817  13.523
72677W        W44403  11.689  39.928  12.931
72678W        W44404  27.673  40.814   0.623
72679W        W44405  11.875  33.521   1.367
72680W        W44406   1.010  28.981  11.080
72681W        W44407  39.909   8.857  10.391
72682W        W44408   6.066  27.976   1.716
72683W        W44409   0.361  42.917  13.433
72684W        W44410  38.874  17.052   0.318
72685W        W44411  34.595  18.860   0.214
72686W        W44412  27.267  30.535   4.621
72687W        W44413  19.488  42.973  10.974
72688W        W44414  34.051  26.510   0.084
72689W        W44415  10.625  36.354   4.323
72690W        W44416  14.316  42.503  10.924
72691W        W44417  26.127  44.759  13.285
72692W        W44418  24.498  14.661   3.567
72693W        W44419  29.829  33.398  14.008
72694W        W44420   6.970   8.069  10.520
72695W        W44421  30.477  42.754   0.477
72696W        W44422  23.128   5.141  11.697
72697W        W44423  38.287  10.808   3.134
72698W        W44424  34.503   0.861  12.588
72699W        W44425  39.524   4.282  10.574
72700W        W44426  40.335  36.838   3.288
72701W        W44427  40.942  43.078   4.977
72702W        W44428  10.770  27.052   2.903
72703W        W44429  43.907   2.469   1.285
72704W        W44430   9.827  36.750   5.317
72705W        W44431  35.023  10.840  13.461
72706W        W44432  16.821  36.527   4.431
72707W        W44433  13.315  17.785   3.678
72708W        W44434  43.000  29.149   2.615
72709W        W44435  20.556  40.841   4.923
72710W        W44436  35.842   5.716   0.417
72711W        W44437  13.929   4.672   3.564
72712W        W44438  40.111   0.868  14.334
72713W        W44439  26.687  27.042   3.221
72714W        W44440  13.171  25.813   1.024
72715W        W44441   5.314  36.001  10.679
72716W        W44442  13.323   8.296  12.550
72717W        W44443  27.051  44.862  10.188
72718W        W44444  20.569  17.184  13.903
72719W        W44445  31.024  22.691   1.787
72720W        W44446   3.010   6.879   3.620
72721W        W44447  10.585   7.613   1.219
72722W        W44448  35.878  39.361  11.118
72723W        W44449  30.159   2.929   0.950
72724W        W44450  24.805   9.422   4.083
72725W        W44451  39.380  13.010  11.128
72726W        W44452  22.940   6.782   3.037
72727W        W44453   4.184  35.711   2.257
72728W        W44454  40.076   4.720   4.127
72729W        W44455  14.279  16.294   4.898
72730W        W44456  27.599  12.861  12.467
72731W        W44457   1.453   2.720   1.765
72732W        W44458  30.116   6.755  10.765
72733W        W44459  18.601  31.081   4.371
72734W        W44460  24.686   1.897  12.503
72735W        W44461  42.640  31.391   2.974
72736W        W44462   6.836  29.463   4.931
72737W        W44463  14.668  40.820   1.419
72738W        W44464   6.280  19.161   3.895
72739W        W44465  26.910  38.972   3.246
72740W        W44466  31.554  32.904   4.569
72741W        W44467  39.581  26.267   0.409
72742W        W44468  38.433  17.351  10.492
72743W        W44469  33.605   4.670   1.222
72744W        W44470   0.872   1.736   2.328
72745W        W44471  24.346  19.583   4.175
72746W        W44472  30.579  31.671  11.140
72747W        W44473  19.759  32.955  10.959
72748W        W44474  36.289  30.426  14.474
72749W        W44475  42.059  34.530  13.031
72750W        W44476  44.579  34.162   1.879
72751W        W44477  31.939   3.892   1.156
72752W        W44478  33.763  30.688  10.722
72753W        W44479  23.665  24.049   4.603
72754W        W44480   6.629  10.172  14.940
72755W        W44481  32.867  35.365  14.678
72756W        W44482  22.128  25.968  12.565
72757W        W44483  18.325  18.605   4.550
72758W        W44484  31.194  17.273   1.444
72759W        W44485  42.455   1.197   3.317
72760W        W44486  23.686  34.385  10.748
72761W        W44487  17.487  44.433   4.405
72762W        W44488  14.759  27.444   1.715
72763W        W44489  21.017  43.809   3.354
72764W        W44490  16.063  29.957  14.870
72765W        W44491  27.578  33.227  14.264
72766W        W44492  10.725  14.818  12.613
72767W        W44493   5.702  28.968  14.397
72768W        W44494  20.090  13.850  13.618
72769W        W44495  25.416  25.689  14.922
72770W        W44496  13.877  16.189  14.042
72771W        W44497   0.050  16.328  10.917
72772W        W44498  43.492  29.926   0.855
72773W        W44499  37.353  25.230  12.253
72774W        W44500  29.090  12.665  14.798
72775W        W44501  31.093   5.009   2.798
72776W        W44502  10.241  26.704  11.572
72777W        W44503  27.186   4.945  13.490
72778W        W44504  21.777  29.987  12.555
72779W        W44505   4.949  26.166  14.735
72780W        W44506  29.517  18.686  14.532
72781W        W44507  20.189  32.470  11.537
72782W        W44508  15.486   1.058  11.937
72783W        W44509  44.073  36.091   4.573
72784W        W44510  13.855  17.290   3.350
72785W        W44511  27.454  29.861  13.335
72786W        W44512  20.339   1.362   4.065
72787W        W44513   8.065  26.878  11.120
72788W        W44514  44.740   7.312   2.603
72789W        W44515  22.258  20.823   0.820
72790W        W44516  16.329  44.269   0.766
72791W        W44517   6.001  39.658  13.912
72792W        W44518   9.678  10.204  13.812
72793W        W44519  23.815   9.891  11.935
72794W        W44520  23.509  10.374  13.895
72795W        W44521   8.369  15.107   1.275
72796W        W44522  24.457  10.264   3.284
72797W        W44523  12.086  30.463  12.620
72798W        W44524   1.459   1.349   1.682
72799W        W44525  28.682  41.849  11.573
72800W        W44526  33.721  37.437   1.864
72801W        W44527   9.303  33.672  11.221
72802W        W44528  13.851  24.778   1.304
72803W        W44529   2.722   7.142   0.263
72804W        W44530   5.702  19.590   2.204
72805W        W44531  28.001   1.267  12.492
72806W        W44532   7.347  44.048  11.642
72807W        W44533  19.460  26.130   4.311
72808W        W44534  15.377   1.271   1.757
72809W        W44535  37.883   5.048  12.877
72810W        W44536  42.774  19.395   4.717
72811W        W44537  15.734  14.996  11.159
72812W        W44538   2.929  25.042   1.136
72813W        W44539   2.513   9.392  12.022
72814W        W44540  35.378  31.725  10.445
72815W        W44541  44.893   5.402   1.378
72816W        W44542   7.861  23.979  12.604
72817W        W44543  14.773  40.699   5.056
72818W        W44544  39.455  18.933   3.791
72819W        W44545  25.127  20.623   0.872
72820W        W44546  42.232  24.644   0.901
72821W        W44547  36.618  33.599   3.733
72822W        W44548  43.138  27.641   3.636
72823W        W44549  11.636  21.908   0.968
72824W        W44550   5.679  15.613  11.364
72825W        W44551   4.391   0.454   2.392
72826W        W44552  33.920  16.455  11.462
72827W        W44553  40.302  16.280  12.976
72828W        W44554  31.512  39.013  13.931
72829W        W44555  22.119  42.693   1.719
72830W        W44556   9.897  29.892  13.210
72831W        W44557  39.038   5.826  14.437
72832W        W44558  24.901  12.173   1.173
72833W        W44559  43.793   7.282   0.155
72834W        W44560   8.249  42.000  13.060
72835W        W44561  10.973   8.735  11.086
72836W        W44562  34.079   2.818   0.304
72837W        W44563   2.974  43.517   2.200
72838W        W44564  29.594  26.108  14.580
72839W        W44565  31.963   4.620  13.404
72840W        W44566  23.149  31.496   0.826
72841W        W44567  18.240   0.604   4.790
72842W        W44568  23.735  28.169   1.576
72843W        W44569  40.012   9.469  13.813
72844W        W44570   9.288   1.241  11.598
72845W        W44571  10.122  13.931  11.598
72846W        W44572   0.829  10.041   2.514
72847W        W44573  44.486  40.574   1.742
72848W        W44574   0.993   5.621   2.416
72849W        W44575  36.611   8.290   1.974
72850W        W44576  20.025   9.991   4.231
72851W        W44577  27.521  26.844  13.504
72852W        W44578  29.904  37.025  13.808
72853W        W44579  34.608   9.875   0.636
72854W        W44580  36.781  10.094   5.099
72855W        W44581  39.437  40.466  13.059
72856W        W44582  23.508  30.346   0.009
72857W        W44583  44.426   7.226  14.405
72858W        W44584  37.920  12.193   0.784
72859W        W44585   7.256  21.687   1.691
72860W        W44586  42.450   5.309   2.350
72861W        W44587  18.926   5.490  11.933
72862W        W44588  28.955  14.392  12.229
72863W        W44589  34.653  36.388   3.681
72864W        W44590  37.946  35.985  14.746
72865W        W44591  35.593  44.043   1.346
72866W        W44592  11.636  10.663  11.598
72867W        W44593  29.036  43.761  14.146
72868W        W44594  31.159  13.011  12.505
72869W        W44595   1.342  17.485   2.851
72870W        W44596  26.277  26.217  14.934
72871W        W44597  17.008  17.689   2.183
72872W        W44598  38.013  14.112   2.440
72873W        W44599  23.365  18.314   4.590
72874W        W44600  44.991  15.084   3.674
72875W        W44601  30.865  16.808   4.072
72876W        W44602   3.978  39.259   0.062
72877W        W44603  29.872  37.917  13.511
72878W        W44604  33.000  13.046   1.946
72879W        W44605  28.429  42.089   3.323
72880W        W44606  26.501  37.321   3.669
72881W        W44607   6.013  34.177  13.717
72882W        W44608  43.550  42.266  11.871
72883W        W44609  12.056   9.652  14.802
72884W        W44610   3.303  30.881   4.680
72885W        W44611  42.571   6.550   2.912
72886W        W44612  11.121   3.213  11.600
72887W        W44613   4.085  14.550   2.138
72888W        W44614   8.983  10.632   2.005
72889W        W44615  17.253  39.902  13.431
72890W        W44616  14.656  18.994  12.516
72891W        W44617  30.607   5.663   1.611
72892W        W44618   7.162   3.366  10.788
72893W        W44619  34.869  23.202  11.986
72894W        W44620  41.470  20.137  11.888
72895W        W44621  40.035  14.705  13.962
72896W        W44622   8.243  27.432   0.330
72897W        W44623  32.971  30.899   2.416
72898W        W44624   3.466  34.678  10.394
72899W        W44625   6.976   4.104  12.319
72900W        W44626   8.752  28.551   3.660
72901W        W44627   6.992  30.601  12.589
72902W        W44628   0.264   1.398  14.491
72903W        W44629   2.818  23.514   1.289
72904W        W44630  32.454  26.000  13.773
72905W        W44631  32.445  36.875  11.132
72906W        W44632   3.683  15.972  14.018
72907W        W44633  19.500  39.762   1.327
72908W        W44634   3.648  18.143   0.380
72909W        W44635  36.930  10.815   1.893
72910W        W44636   1.483  17.154   3.208
72911W        W44637  26.800  40.986   5.117
72912W        W44638   9.327   5.880  13.419
72913W        W44639  13.236  33.331  13.878
72914W        W44640   3.716   9.058   3.187
72915W        W44641  35.128  40.053   0.332
72916W        W44642   5.295  19.197   0.768
72917W        W44643  17.296  22.548  13.458
72918W        W44644  24.284   0.785  11.083
72919W        W44645  29.548  44.768  10.422
72920W        W44646  20.492  24.672   3.739
72921W        W44647  44.764   3.025  14.407
72922W        W44648   8.670  31.517  11.542
72923W        W44649  34.049   0.998  13.343
72924W        W44650   2.665  38.657   2.689
72925W        W44651  11.431  25.188   0.095
72926W        W44652  31.897  42.953   4.539
72927W        W44653  40.599  24.176   3.205
72928W        W44654  23.019  23.741   4.189
72929W        W44655  13.337   4.729   1.775
72930W        W44656  13.622  36.563   1.356
72931W        W44657  25.161  43.418  13.887
72932W        W44658  25.619  36.529   3.860
72933W        W44659   0.381   0.341  13.415
72934W        W44660  17.363  36.000   0.448
72935W        W44661  14.297   8.770   1.023
72936W        W44662  22.101   6.569  13.112
72937W        W44663  31.538  12.523   2.435
72938W        W44664  39.621  23.602   1.824
72939W        W44665   6.029   1.336   2.765
72940W        W44666   2.798  29.392  12.047
72941W        W44667   0.263  10.629  10.755
72942W        W44668  14.132   5.372  14.372
72943W        W44669  26.200  33.044   2.609
72944W        W44670  39.327  16.991   2.827
72945W        W44671  39.796   5.871   1.808
72946W        W44672   7.059  39.093  11.044
72947W        W44673  23.703   2.002  12.521
72948W        W44674  17.725  26.173  12.329
72949W        W44675  23.685  22.314  10.715
72950W        W44676   3.868   8.125  12.648
72951W        W44677  43.532  28.197   2.874
72952W        W44678  15.644  38.293  13.589
72953W        W44679  10.245  21.008  14.340
72954W        W44680  36.604  37.437   1.470
72955W        W44681  40.920  16.415   3.715
72956W        W44682   4.778   2.694   0.274
72957W        W44683  40.588  13.499  13.015
72958W        W44684  22.799  28.728   0.862
72959W        W44685  11.100  17.497   3.253
72960W        W44686   1.237  39.114   3.163
72961W        W44687  13.793  21.303   4.325
72962W        W44688   1.847   2.695  13.826
72963W        W44689  27.742  43.019  13.941
72964W        W44690  41.930   6.211   0.712
72965W        W44691  44.222  39.719   4.876
72966W        W44692  15.137  12.101   4.582
72967W        W44693  25.990  43.022   0.325
72968W        W44694  25.730   8.953   4.576
72969W        W44695  18.729  32.325  11.459
72970W        W44696  11.626  27.520   0.419
72971W        W44697   0.486  21.177   2.747
72972W        W44698  11.242   9.302  11.883
72973W        W44699  17.513  21.387   3.726
72974W        W44700  19.192  23.040   3.623
72975W        W44701   1.442  21.043  13.404
72976W        W44702  19.904  33.346   0.783
72977W        W44703   7.811  43.225   0.452
72978W        W44704   3.761   9.503   0.892
72979W        W44705  34.516  11.937  12.906
72980W        W44706  15.288  44.355  12.862
72981W        W44707  27.530  18.755   2.363
72982W        W44708   3.353   3.401  13.796
72983W        W44709  13.126  26.251  14.606
72984W        W44710  27.178  22.991  14.473
72985W        W44711  23.287  32.486  13.296
72986W        W44712   0.805  32.905   2.253
72987W        W44713  35.568  35.398  10.584
72988W        W44714  11.875  20.048  12.502
72989W        W44715  29.621  18.786  11.968
72990W        W44716  30.726  11.194  10.851
72991W        W44717   0.722  29.391  10.947
72992W        W44718  10.981  37.309   1.274
72993W        W44719  29.216   4.759   4.609
72994W        W44720  44.303  10.398  11.653
72995W        W44721  34.831  33.893   3.206
72996W        W44722  39.364  10.487  14.468
72997W        W44723  44.293  20.087   4.024
72998W        W44724  43.500   3.343   3.685
72999W        W44725   4.883  35.881  12.129
73000W        W44726  35.673  32.156   2.154
73001W        W44727  14.860  37.982   4.952
73002W        W44728   4.896  22.137   4.417
73003W        W44729   5.202  36.547  13.902
73004W        W44730  43.267   1.704  10.292
73005W        W44731  18.798  18.042   2.612
73006W        W44732   2.414  35.166  13.952
73007W        W44733  16.703  38.187   2.919
73008W        W44734   1.994  39.218  12.438
73009W        W44735  15.269  16.510   2.150
73010W        W44736  22.325  31.643   0.541
73011W        W44737  23.990   4.466  11.579
73012W        W44738   2.753   8.442  12.013
73013W        W44739   1.997  33.979   1.760
73014W        W44740   8.776  40.909   3.942
73015W        W44741  11.149   0.857   4.308
73016W        W44742   4.505  14.555  13.473
73017W        W44743  12.294  21.096   4.480
73018W        W44744  41.938  16.619  13.488
73019W        W44745  23.760  24.613   1.120
73020W        W44746  43.874  16.786  13.425
73021W        W44747  42.787  23.913  13.655
73022W        W44748   2.737  32.336  11.681
73023W        W44749  20.127  28.020  13.570
73024W        W44750  18.075  38.710   3.149
73025W        W44751   5.706  40.986   0.968
73026W        W44752  43.652  35.516  11.188
73027W        W44753  30.756  33.830  14.947
73028W        W44754  22.158  16.848   0.748
73029W        W44755  23.748  16.826  13.963
73030W        W44756  40.546  31.129   4.617
73031W        W44757  40.225   0.803   4.583
73032W        W44758  13.156  19.320  11.108
73033W        W44759  34.757  33.504   1.259
73034W        W44760  36.929  34.201   1.844
73035W        W44761  42.833  25.942   0.681
73036W        W44762   3.730  41.025   2.127
73037W        W44763  39.295  42.326  13.967
73038W        W44764  31.364   3.206   4.646
73039W        W44765  19.672  20.209   3.405
73040W        W44766  36.892  44.476  14.863
73041W        W44767  39.868   4.504   3.712
73042W        W44768   4.526  28.476   2.563
73043W        W44769  23.381   0.293   5.241
73044W        W44770  42.369  26.938   1.377
73045W        W44771   1.918  40.559   2.325
73046W        W44772  11.538  23.449   3.581
73047W        W44773  35.988  22.593  14.545
73048W        W44774  42.333   0.443   0.305
73049W        W44775  40.197  31.928  14.009
73050W        W44776  17.376   4.026  12.509
73051W        W44777  29.944  40.863  13.558
73052W        W44778  25.137  10.923   0.941
73053W        W44779   2.664  25.655   3.185
73054W        W44780  41.812  31.686  14.453
73055W        W44781  39.918  39.533  12.911
73056W        W44782  43.523  40.870   0.415
73057W        W44783  30.352  27.992   1.409
73058W        W44784  38.567  17.568  13.036
73059W        W44785   3.817  33.570   3.686
73060W        W44786  23.429  11.684  14.267
73061W        W44787   2.474   1.532  12.397
73062W        W44788  14.277  43.219  14.940
73063W        W44789  38.451  15.715   1.391
73064W        W44790  37.819  34.432   0.826
73065W        W44791   6.188  12.137   3.622
73066W        W44792  20.347  39.520  12.931
73067W        W44793   6.041   5.959  14.470
73068W        W44794  33.466   8.311   2.331
73069W        W44795  21.585   7.495   0.289
73070W        W44796  35.147   6.244  11.113
73071W        W44797  15.382  29.964   4.128
73072W        W44798   8.674  33.409   4.659
73073W        W44799  11.377  43.811  10.589
73074W        W44800  12.168  25.892   0.259
73075W        W44801  43.202   0.346   1.423
73076W        W44802  37.763  24.772   0.882
73077W        W44803   9.126   2.238   5.087
73078W        W44804  24.218  23.735  11.104
73079W        W44805  14.226  43.964  11.452
73080W        W44806  35.190  39.464  13.943
73081W        W44807   1.699  43.880   3.914
73082W        W44808  25.113  30.680   2.410
73083W        W44809  24.697  25.294  13.160
73084W        W44810  12.928  14.294  14.295
73085W        W44811  17.802  17.591  14.431
73086W        W44812  23.988   2.503  11.602
73087W        W44813  38.189  36.647  12.479
73088W        W44814  29.035  38.033  14.307
73089W        W44815  22.098  44.876   0.573
73090W        W44816   3.217  22.475   4.555
73091W        W44817  15.225  22.782   3.160
73092W        W44818   7.883  34.108  13.085
73093W        W44819  10.063  30.530  14.943
73094W        W44820  35.879  31.546  14.479
73095W        W44821   1.005  43.445  12.010
73096W        W44822  24.533  34.938   4.825
73097W        W44823  36.639   7.230  11.734
73098W        W44824   9.184  28.428  10.721
73099W        W44825   9.484   3.795  14.277
73100W        W44826  18.814  11.903   0.381
73101W        W44827   6.729  32.202   9.991
73102W        W44828  21.961  15.602   2.515
73103W        W44829  43.026   9.969  14.454
73104W        W44830  25.128  17.828  12.500
73105W        W44831  12.543  44.419  11.132
73106W        W44832  32.644   1.913   0.273
73107W        W44833   8.453  35.518   4.142
73108W        W44834  13.048  26.173   4.514
73109W        W44835  36.950  11.785  13.050
73110W        W44836  44.539   3.434   2.311
73111W        W44837  11.267  42.951   4.406
73112W        W44838  33.471  29.380   1.813
73113W        W44839  28.490  41.004   0.266
73114W        W44840  12.839  34.544  13.944
73115W        W44841   4.397  14.578  11.920
73116W        W44842  10.351  16.866   0.741
73117W        W44843  35.473   4.320   2.691
73118W        W44844  24.194  20.737   4.854
73119W        W44845  42.342  36.503   4.291
73120W        W44846  43.906  32.968  13.472
73121W        W44847  10.915  39.712  13.940
73122W        W44848  20.267  20.116  12.080
73123W        W44849  44.465  28.561  12.673
73124W        W44850  30.464  29.962   1.382
73125W        W44851   1.430  10.757  14.744
73126W        W44852  28.885  11.159   1.274
73127W        W44853   9.807  31.303  12.730
73128W        W44854  44.446   5.951   1.923
73129W        W44855   3.761  12.277   4.615
73130W        W44856  41.026  31.359   3.801
73131W        W44857   5.889  40.915   4.279
73132W        W44858  10.402  36.917  11.455
73133W        W44859   6.417  39.116  10.174
73134W        W44860  22.086  20.244  10.996
73135W        W44861  39.637   9.329   2.771
73136W        W44862   3.240  18.182   4.794
73137W        W44863  13.811  23.227  13.970
73138W        W44864  25.489  31.609   2.972
73139W        W44865  14.145  21.372   5.126
73140W        W44866  22.232  11.909  13.884
73141W        W44867  42.168   7.876   3.632
73142W        W44868  38.516  43.787  10.588
73143W        W44869  24.188  42.452  11.735
73144W        W44870  32.411  38.920   0.832
73145W        W44871   4.856  43.385   1.317
73146W        W44872  40.827  33.488  13.575
73147W        W44873  27.662  29.547  13.745
73148W        W44874   1.703  16.329  11.667
73149W        W44875  30.481  35.908   3.714
73150W        W44876  32.153  39.167  12.895
73151W        W44877  38.534  38.466   4.876
73152W        W44878  12.068  36.549   3.200
73153W        W44879  30.462   6.495   2.312
73154W        W44880   9.172  35.551   0.757
73155W        W44881  37.391  16.166  12.964
73156W        W44882  42.477  42.514  12.039
73157W        W44883  37.156  25.964   2.747
73158W        W44884  16.359   5.900  10.869
73159W        W44885  33.939  14.061   0.717
73160W        W44886  14.578  24.692  14.984
73161W        W44887  40.292  11.668   3.216
73162W        W44888  43.956  24.974   4.033
73163W        W44889  17.244  38.073   4.569
73164W        W44890  27.749   5.389  10.515
73165W        W44891  10.110  24.469  13.351
73166W        W44892   2.168  42.070  13.408
73167W        W44893  32.480   6.192  11.517
73168W        W44894   3.794  16.944   1.483
73169W        W44895  19.053  26.170  11.194
73170W        W44896   7.727  14.272  10.633
73171W        W44897  37.556  27.890  12.838
73172W        W44898   1.957  19.304  11.663
73173W        W44899   1.247  39.820  11.981
73174W        W44900  42.916  12.227   0.689
73175W        W44901  12.434  14.248   2.114
73176W        W44902   3.922  23.213  12.154
73177W        W44903   8.751  32.365  11.340
73178W        W44904  10.229  12.161   4.535
73179W        W44905  12.264   6.970   1.862
73180W        W44906  10.853  29.735  12.128
73181W        W44907  24.877  29.886   3.117
73182W        W44908  12.940  41.662   1.832
73183W        W44909  12.611  34.859   1.443
73184W        W44910  25.207  17.764  11.180
73185W        W44911  29.707  29.413  10.651
73186W        W44912  15.351  24.176  14.852
73187W        W44913  33.959  15.588   3.701
73188W        W44914   7.126  42.346  12.705
73189W        W44915  17.466  19.680  14.822
73190W        W44916  12.855  35.113   4.821
73191W        W44917   6.214  38.021   1.361
73192W        W44918   8.076  19.542   1.966
73193W        W44919  29.212  22.770  12.405
73194W        W44920  38.355  37.195   3.650
73195W        W44921  14.578  11.228  13.963
73196W        W44922  33.576   4.895  12.185
73197W        W44923  37.038   3.295   0.980
73198W        W44924  14.024   7.871   3.666
73199W        W44925  31.960   5.160  10.687
73200W        W44926   4.936  33.829   5.020
73201W        W44927  19.052  20.008   0.413
73202W        W44928   9.385  24.800  14.023
73203W        W44929  10.106  25.171   0.996
73204W        W44930  30.979  19.524   0.759
73205W        W44931  30.419   9.072   4.219
73206W        W44932  44.460  27.155   0.776
73207W        W44933  22.323  17.384  14.004
73208W        W44934  17.771  32.829   4.322
73209W        W44935  12.442  43.111  10.492
73210W        W44936  21.746  44.166   4.111
73211W        W44937  25.257   2.380  12.105
73212W        W44938  33.654  17.691   4.613
73213W        W44939  41.915  40.965  13.390
73214W        W44940  18.355  38.180  12.874
73215W        W44941  17.782  26.558  11.608
73216W        W44942  27.451  20.590   2.953
73217W        W44943  29.404   8.180  14.278
73218W        W44944  40.190  39.825   1.766
73219W        W44945  37.592  17.365  14.906
73220W        W44946  29.048   0.265  11.214
73221W        W44947  25.547  29.252   0.719
73222W        W44948  20.658   9.310   0.326
73223W        W44949  21.085  29.681   2.771
73224W        W44950  39.394  38.580   0.229
73225W        W44951  17.329  31.585  14.998
73226W        W44952  14.216   1.426  11.368
73227W        W44953   7.909  10.882  12.284
73228W        W44954  41.129  36.424   3.782
73229W        W44955   2.711  35.419   2.906
73230W        W44956  16.941  36.283   0.368
73231W        W44957  29.509  23.877   5.054
73232W        W44958  29.622  17.958  11.662
73233W        W44959  15.669  38.136  11.101
73234W        W44960   8.186   6.915   1.886
73235W        W44961  39.994   5.552   1.448
73236W        W44962  34.079  34.319  14.545
73237W        W44963  31.823   1.649   1.320
73238W        W44964  37.517  32.030  10.778
73239W        W44965  42.223   5.047   2.914
73240W        W44966  24.063  29.064   3.419
73241W        W44967  22.080  29.536   3.281
73242W        W44968  20.518   6.806  13.925
73243W        W44969  13.716  34.680  14.526
73244W        W44970  17.785  13.885   0.291
73245W        W44971  41.354  43.787  14.646
73246W        W44972  37.000  21.752  13.546
73247W        W44973  26.448  37.100   0.454
73248W        W44974   9.914   8.187  10.621
73249W        W44975  23.013  12.870  11.947
73250W        W44976  29.103  20.561  10.686
73251W        W44977  40.462   1.350  12.162
73252W        W44978   8.347   2.493  14.493
73253W        W44979  30.398  18.121  14.879
73254W        W44980   3.791  27.917   1.287
73255W        W44981   0.248  38.561  14.815
73256W        W44982  36.406   8.350   2.830
73257W        W44983  14.314  31.662  12.134
73258W        W44984  40.339  28.106   0.643
73259W        W44985   8.801  12.113  10.586
73260W        W44986   9.259  43.814   3.288
73261W        W44987  31.141  31.061  10.778
73262W        W44988  43.040  20.022   0.706
73263W        W44989  32.469  40.563  12.124
73264W        W44990  21.560  43.425  12.835
73265W        W44991  33.226  19.340  11.537
73266W        W44992  38.762  37.338   4.026
73267W        W44993  35.366  36.780  14.229
73268W        W44994  23.650  33.900   0.529
73269W        W44995  32.979   3.798  12.103
73270W        W44996  18.726  22.025   1.894
73271W        W44997  10.067   1.263   0.038
73272W        W44998   6.168  26.504  11.421
73273W        W44999  42.832  11.075  10.235
73274W        W45000  12.744  33.651   3.575
73275W        W45001  42.802  10.730  13.370
73276W        W45002   5.411  40.831   2.224
73277W        W45003  37.824  37.443  14.132
73278W        W45004  14.999  30.261  13.582
73279W        W45005  21.206  41.826  14.868
73280W        W45006  44.805  40.393  13.913
73281W        W45007   4.971  41.612  11.487
73282W        W45008  12.680  30.955   4.403
73283W        W45009   8.408  43.915   1.775
73284W        W45010   0.331  29.592   4.409
73285W        W45011  31.372  21.179   2.334
73286W        W45012   2.829   2.831   1.774
73287W        W45013  32.988   0.428  11.315
73288W        W45014  37.975  14.312   4.276
73289W        W45015  41.312   6.385   4.713
73290W        W45016  28.420   9.821  13.823
73291W        W45017  15.741  34.011  14.421
73292W        W45018  19.063   3.193  13.931
73293W        W45019  22.589  15.305  13.916
73294W        W45020  35.039  37.030  13.789
73295W        W45021  43.773  36.987  14.314
73296W        W45022  28.635  15.070  13.394
73297W        W45023  38.122  26.689   0.418
73298W        W45024  27.139  25.691   2.392
73299W        W45025  32.009  40.990   0.301
73300W        W45026  42.253   0.867   4.649
73301W        W45027  13.291   5.919  14.774
73302W        W45028   5.267  27.793  14.759
73303W        W45029  23.758  23.168  10.745
73304W        W45030  25.607  25.107   3.693
73305W        W45031  22.510  17.178  12.486
73306W        W45032   1.763  35.307   4.628
73307W        W45033   7.982  10.354   3.994
73308W        W45034  41.835  19.811  11.226
73309W        W45035  14.755  17.535  10.466
73310W        W45036  38.541  29.948   3.037
73311W        W45037   3.245  28.247  12.395
73312W        W45038  28.386  39.014  12.523
73313W        W45039   0.725  22.803  13.072
73314W        W45040  36.986  17.409   3.297
73315W        W45041   6.359  14.597   2.505
73316W        W45042  38.577   4.716   1.963
73317W        W45043  16.031   2.519   4.791
73318W        W45044   9.016  18.249  12.986
73319W        W45045   7.897  44.047  12.979
73320W        W45046  12.342  21.666   4.622
73321W        W45047  32.861  32.259  11.133
73322W        W45048  17.914  41.721  10.919
73323W        W45049  14.252  11.874  13.833
73324W        W45050  10.618  31.404   0.897
73325W        W45051  33.922  27.389  11.150
73326W        W45052   5.233   3.451   4.052
73327W        W45053  42.333  21.084   4.998
73328W        W45054  33.832  37.848   4.302
73329W        W45055   0.728  24.859   2.680
73330W        W45056  18.466  13.921   4.762
73331W        W45057  18.779   3.417   0.801
73332W        W45058  26.120  19.113   2.204
73333W        W45059  37.305  43.397   0.481
73334W        W45060   0.498  30.474   2.436
73335W        W45061   7.118  37.772   1.872
73336W        W45062  41.111  37.580   1.863
73337W        W45063  43.067   3.810  13.246
73338W        W45064  22.407  36.389  11.706
73339W        W45065   9.825  33.921   3.674
73340W        W45066  37.535   8.394   2.048
73341W        W45067  34.561  24.254  12.810
73342W        W45068  38.843   4.279  12.481
73343W        W45069  42.417  37.536  10.679
73344W        W45070  11.734  14.408   4.528
73345W        W45071  12.831  26.652  13.726
73346W        W45072  34.452   6.680  11.991
73347W        W45073  22.473  29.987  13.527
73348W        W45074  25.106   9.802   4.242
73349W        W45075  13.818  12.333  11.561
73350W        W45076  18.592  27.543  13.867
73351W        W45077   2.356   5.918  11.483
73352W        W45078   5.338  28.219   4.092
73353W        W45079  39.979   0.329   0.381
73354W        W45080  36.606  22.997  11.567
73355W        W45081   4.718  32.352   1.293
73356W        W45082   2.266   1.189  11.999
73357W        W45083   5.715  27.300   2.846
73358W        W45084  40.791  28.413  11.266
73359W        W45085  26.591  36.366   4.345
73360W        W45086   2.763  40.765  14.411
73361W        W45087  16.879  43.743  13.513
73362W        W45088  26.365  42.391   3.367
73363W        W45089  19.601  19.040   0.928
73364W        W45090   7.575   9.298  11.616
73365W        W45091  39.578  22.288   2.785
73366W        W45092   9.823  33.460  14.002
73367W        W45093  20.315  22.363  14.270
73368W        W45094  43.515  38.051   2.993
73369W        W45095  20.119  28.186  10.947
73370W        W45096  17.132   7.698   3.305
73371W        W45097   5.824  34.561  14.953
73372W        W45098  40.500  25.566   0.406
73373W        W45099  44.703   8.451   1.265
73374W        W45100  44.080  24.718   0.583
73375W        W45101  14.266  15.847  14.271
73376W        W45102  36.427   0.512   0.997
73377W        W45103  10.108   1.857   0.855
73378W        W45104  44.431  42.562   2.623
73379W        W45105  18.223  26.696   1.433
73380W        W45106  26.176  35.008  10.956
73381W        W45107  42.590  10.269   0.997
73382W        W45108  22.239  24.313   1.295
73383W        W45109  23.453  31.826   2.244
73384W        W45110  38.686  25.244   5.034
73385W        W45111  36.169  20.504  14.387
73386W        W45112   8.941  41.459   3.713
73387W        W45113  22.467  36.517   4.998
73388W        W45114   7.627   3.799   0.938
73389W        W45115   5.375  16.763  10.620
73390W        W45116   3.641  14.710   1.181
73391W        W45117  33.162   1.845   0.258
73392W        W45118   0.840  22.877   4.487
73393W        W45119  19.037  22.966   2.155
73394W        W45120   5.652  14.283  14.061
73395W        W45121  43.225  37.843   4.786
73396W        W45122  44.444  11.783  11.603
73397W        W45123  36.369  16.744   1.800
73398W        W45124   4.253  37.464  12.391
73399W        W45125  31.021   1.478   2.394
73400W        W45126  14.915  44.792  12.909
73401W        W45127  43.902  42.396   1.244
73402W        W45128  33.540  15.924   5.368
73403W        W45129   2.389  16.642  13.468
73404W        W45130  19.974  35.329   2.761
73405W        W45131   2.885  42.845   4.146
73406W        W45132  33.692  19.987   1.706
73407W        W45133  19.179  20.244   3.607
73408W        W45134  30.879  22.807  13.041
73409W        W45135  15.509  24.162  13.515
73410W        W45136  39.387  11.970   3.404
73411W        W45137  27.580   1.467   0.336
73412W        W45138  23.621  14.690  13.278
73413W        W45139   7.277   4.351   3.333
73414W        W45140  28.542   5.909  10.852
73415W        W45141  36.491  12.010   2.641
73416W        W45142   4.178  24.694   4.020
73417W        W45143  14.806  34.863   2.022
73418W        W45144  19.655  22.522  11.705
73419W        W45145  33.382  13.610  13.343
73420W        W45146  31.972  26.711  14.031
73421W        W45147  42.994  30.746   3.850
73422W        W45148  33.953  33.325  11.900
73423W        W45149  41.314  23.932   1.265
73424W        W45150  13.017   4.638   0.165
73425W        W45151  30.103   3.989  10.930
73426W        W45152  42.046  24.598   4.664
73427W        W45153   3.904   9.178  14.963
73428W        W45154  38.504  28.194   3.097
73429W        W45155  27.979  41.249   0.480
73430W        W45156  21.528  11.946  11.769
73431W        W45157  43.581  10.313  12.144
73432W        W45158   0.233  38.914  10.394
73433W        W45159   9.726  15.977  14.055
73434W        W45160  36.414  39.575   4.347
73435W        W45161  20.564   7.790  10.561
73436W        W45162  26.466  10.144   4.574
73437W        W45163  28.697  18.870  11.384
73438W        W45164  13.145  32.989  10.734
73439W        W45165  41.781  44.675  14.358
73440W        W45166  17.981  17.587   1.083
73441W        W45167   3.870   4.337   2.383
73442W        W45168  24.312  44.561   2.348
73443W        W45169  40.414   6.911   2.873
73444W        W45170  23.662   9.630  10.983
73445W        W45171   4.484   8.760  13.180
73446W        W45172  29.957  43.973   4.339
73447W        W45173  43.393  27.748  12.311
73448W        W45174  40.580  26.504  13.723
73449W        W45175  40.774  40.634   4.572
73450W        W45176  43.305  25.970  11.508
73451W        W45177  17.181  40.855  12.073
73452W        W45178  17.794  22.683  13.468
73453W        W45179  25.361  38.964   0.052
73454W        W45180  34.769  21.082   2.686
73455W        W45181   1.729  19.678   0.367
73456W        W45182  26.442  14.176   1.891
73457W        W45183  13.849  42.120   0.829
73458W        W45184  30.851  22.059  13.514
73459W        W45185   3.518  36.922  11.136
73460W        W45186  23.074  16.405  10.906
73461W        W45187   7.161  26.098   3.378
73462W        W45188  16.275   1.424  11.622
73463W        W45189   4.748  14.864   4.560
73464W        W45190  19.576  21.028   2.233
73465W        W45191  23.680  22.949   1.380
73466W        W45192  38.129  25.007  13.216
73467W        W45193  22.201  22.599   4.692
73468W        W45194  18.878  19.497  12.879
73469W        W45195  25.939  20.071   1.897
73470W        W45196  21.684  20.283   1.849
73471W        W45197  33.914  39.889   1.825
73472W        W45198   5.315  16.590   4.988
73473W        W45199  27.778  36.050  12.885
73474W        W45200   1.421  38.055  10.657
73475W        W45201   6.882  43.118   3.142
73476W        W45202  15.598  22.640  11.501
73477W        W45203   9.773  35.141   2.335
73478W        W45204  24.081  44.838  10.211
73479W        W45205  32.136  14.831   1.886
73480W        W45206   5.464  31.404   3.304
73481W        W45207   6.325  34.007   4.681
73482W        W45208  19.994  30.961  14.061
73483W        W45209  25.507  40.895   3.071
73484W        W45210  35.371   0.723  12.602
73485W        W45211  30.506  27.945  12.465
73486W        W45212   7.314   6.536  14.083
73487W        W45213   7.428  33.846   3.795
73488W        W45214  11.893   4.888   3.091
73489W        W45215  42.859   3.005  12.869
73490W        W45216   0.326  17.672  14.039
73491W        W45217  10.667  28.976  12.453
73492W        W45218  30.878  23.759  10.205
73493W        W45219  42.549  27.457   1.312
73494W        W45220  36.316  35.956  13.533
73495W        W45221   0.198  32.312   3.696
73496W        W45222   0.262  11.213   0.885
73497W        W45223  37.400   1.024   2.898
73498W        W45224  16.756  20.671  12.941
73499W        W45225  37.411  41.738  10.710
73500W        W45226  13.065  34.216  13.263
73501W        W45227  14.233  27.205  13.435
73502W        W45228  15.194  17.264   3.100
73503W        W45229  20.110  11.029  11.271
73504W        W45230  10.179  23.635   0.342
73505W        W45231  31.465  34.586  10.499
73506W        W45232  33.133   6.298   0.663
73507W        W45233  26.967   2.007  11.051
73508W        W45234  38.590   1.772  13.475
73509W        W45235  29.902   2.144   3.579
73510W        W45236  34.719  43.358  14.913
73511W        W45237  13.389  27.679  13.587
73512W        W45238  33.668  37.843  14.851
73513W        W45239  24.501   7.691  12.700
73514W        W45240  23.047  14.499   2.256
73515W        W45241  27.676  27.447   3.853
73516W        W45242   8.394  31.574   1.999
73517W        W45243  32.805  16.358   1.736
73518W        W45244  34.280  30.796  10.713
73519W        W45245   8.249  19.297  12.861
73520W        W45246   6.354  29.421  12.399
73521W        W45247  40.465  26.954   4.441
73522W        W45248  18.571   4.448   4.527
73523W        W45249  23.548  28.081  11.137
73524W        W45250   0.040   2.858   1.825
73525W        W45251  12.709  12.121   2.805
73526W        W45252  39.884   4.251   4.217
73527W        W45253  21.008   7.905  12.459
73528W        W45254  19.124  28.252  13.010
73529W        W45255  39.874  40.028  13.598
73530W        W45256  28.283  29.661   1.818
73531W        W45257  17.222  43.358   1.557
73532W        W45258   8.475   9.901   2.171
73533W        W45259  11.624   8.364   2.511
73534W        W45260  34.935   1.922   5.112
73535W        W45261  43.802  37.473   4.226
73536W        W45262  32.139  29.654   3.622
73537W        W45263  10.761   2.910   0.501
73538W        W45264  35.517  30.242  13.848
73539W        W45265  10.384  23.081   3.276
73540W        W45266  42.585  44.975  14.018
73541W        W45267  40.465  15.136   2.334
73542W        W45268  36.227  42.787  10.649
73543W        W45269  28.130  30.757   0.925
73544W        W45270  35.505   1.729  12.517
73545W        W45271   0.739  20.806   0.697
73546W        W45272   9.689   1.548   0.774
73547W        W45273  15.667   0.546  12.494
73548W        W45274  40.436  10.212  11.114
73549W        W45275  14.983   1.694   5.043
73550W        W45276  15.722   0.751  10.728
73551W        W45277   9.569  12.817   1.291
73552W        W45278  32.486  12.665  14.998
73553W        W45279  40.440   9.106   2.269
73554W        W45280  30.099   5.758  13.840
73555W        W45281   4.626  29.478  13.893
73556W        W45282   7.801   9.588  11.996
73557W        W45283  32.937  37.437   1.453
73558W        W45284  15.776  37.637  14.479
73559W        W45285  32.643  28.074  10.689
73560W        W45286  40.084  12.326  11.393
73561W        W45287   0.586  33.611   0.227
73562W        W45288  40.496  24.574  11.482
73563W        W45289  14.327  40.725   1.806
73564W        W45290  38.282   9.236  14.471
73565W        W45291  33.418  27.510  13.862
73566W        W45292  33.689  23.989   4.639
73567W        W45293   0.098  20.694   1.964
73568W        W45294  38.091   3.243  13.385
73569W        W45295  11.934   3.348  14.442
73570W        W45296  33.055  16.567  14.607
73571W        W45297  37.914  36.555  12.000
73572W        W45298  25.219  36.806   4.686
73573W        W45299  22.239  44.769  14.494
73574W        W45300   5.629   0.091  11.625
73575W        W45301  12.532  15.163  13.502
73576W        W45302  38.758   3.292  13.796
73577W        W45303   4.291  36.788  13.622
73578W        W45304  18.628  11.837   2.192
73579W        W45305  16.855  40.343  13.493
73580W        W45306   2.442  39.613   2.027
73581W        W45307   7.200  21.606   4.796
73582W        W45308  40.499  40.001   4.088
73583W        W45309   4.284  22.815   2.386
73584W        W45310  25.892  43.283  11.497
73585W        W45311   4.001  11.727  10.407
73586W        W45312  35.342  36.160  10.700
73587W        W45313  35.178  28.178   1.346
73588W        W45314  41.402  12.773  14.745
73589W        W45315  32.670  32.898  14.163
73590W        W45316   0.688   3.529   0.479
73591W        W45317  27.901  10.678   0.307
73592W        W45318  31.183  29.236  14.483
73593W        W45319  40.473  18.164   5.179
73594W        W45320  31.126  27.916  10.660
73595W        W45321   1.053  25.526  11.583
73596W        W45322  28.498  16.546   3.325
73597W        W45323  25.280  42.319   1.981
73598W        W45324   3.212   3.320  12.273
73599W        W45325  34.095  30.554  11.126
73600W        W45326  31.334  20.276   3.460
73601W        W45327  32.047  21.678   2.159
73602W        W45328  28.153   7.454   3.208
73603W        W45329   4.823  39.418   3.564
73604W        W45330   1.508  19.534   4.467
73605W        W45331   3.659  44.463  10.392
73606W        W45332  21.517  40.424  10.696
73607W        W45333  35.332  17.296   1.258
73608W        W45334  31.675  16.711  11.945
73609W        W45335  40.951  13.742   0.692
73610W        W45336  22.201  30.673   2.246
73611W        W45337  14.273  25.049  13.773
73612W        W45338  19.827   1.345  14.480
73613W        W45339   9.463  42.765   1.484
73614W        W45340  25.934  31.113   3.800
73615W        W45341  12.314   9.263   3.677
73616W        W45342  29.001  40.078   4.424
73617W        W45343   5.717  23.021  11.529
73618W        W45344  41.719  26.709  14.449
73619W        W45345   3.335  19.836  11.468
73620W        W45346   1.752  40.021  14.045
73621W        W45347  40.503  14.773  14.271
73622W        W45348   7.912   4.442  13.178
73623W        W45349   0.859  10.873  11.556
73624W        W45350  29.870  24.726  10.260
73625W        W45351  44.317   6.610   3.226
73626W        W45352   0.031   6.670   2.066
73627W        W45353  33.971  36.056  11.487
73628W        W45354  31.425  21.675   4.653
73629W        W45355   7.344  36.957   4.623
73630W        W45356  19.316  10.308   2.832
73631W        W45357  17.082  35.171  10.734
73632W        W45358  19.901  32.770   2.411
73633W        W45359  33.669  19.046   1.016
73634W        W45360  44.761  18.288  12.092
73635W        W45361  26.483  33.618   0.153
73636W        W45362  14.081  10.980  11.458
73637W        W45363  41.559  12.845  10.882
73638W        W45364  42.051  26.143   3.179
73639W        W45365  36.831  35.372   4.112
73640W        W45366   9.949  20.148  14.490
73641W        W45367  27.047   4.394   3.348
73642W        W45368   0.955   7.134   1.650
73643W        W45369  28.101  12.300  10.503
73644W        W45370  34.931  28.688   2.692
73645W        W45371  38.045  29.960   2.913
73646W        W45372  44.426  20.258   0.348
73647W        W45373  35.634  37.473  10.538
73648W        W45374  14.640  18.068   3.718
73649W        W45375  25.539  32.499  11.650
73650W        W45376  29.577  19.021  12.424
73651W        W45377  39.185   8.088  13.025
73652W        W45378  30.613  20.161  10.716
73653W        W45379  33.699  30.721   1.318
73654W        W45380   8.579  11.597   3.370
73655W        W45381   1.727   6.656  10.793
73656W        W45382  38.327  34.407  12.076
73657W        W45383  13.311  34.607   4.250
73658W        W45384  42.361  28.177   2.807
73659W        W45385  16.168  10.739  12.361
73660W        W45386   2.041  14.870   0.432
73661W        W45387  39.507   3.740  11.597
73662W        W45388   3.337  39.417  12.554
73663W        W45389  28.613   8.752   0.066
73664W        W45390  30.013  20.548   2.347
73665W        W45391   1.805  39.329   1.741
73666W        W45392  31.579   3.872   3.124
73667W        W45393  23.126   8.970  13.477
73668W        W45394  14.695  29.498   2.408
73669W        W45395  42.938  30.165   4.593
73670W        W45396  30.897  14.823   0.112
73671W        W45397  18.084  15.961   0.312
73672W        W45398  27.581  41.500   2.207
73673W        W45399   8.702  28.298  14.739
73674W        W45400   6.467  26.918  11.569
73675W        W45401  16.998  10.023  12.860
73676W        W45402   5.222   8.211   4.569
73677W        W45403  26.687   7.887  14.921
73678W        W45404  11.771   6.390   1.204
73679W        W45405  10.450   2.518  12.222
73680W        W45406   3.854  44.871  11.155
73681W        W45407   3.271  31.259   1.766
73682W        W45408  10.169  28.207  12.051
73683W        W45409  20.725  33.012   0.865
73684W        W45410  37.271  35.021  11.200
73685W        W45411  13.768  23.641   3.643
73686W        W45412   4.385  19.287  12.358
73687W        W45413  25.636  32.869  12.611
73688W        W45414  38.312  31.591  10.763
73689W        W45415   7.657  40.913  12.986
73690W        W45416   7.761  44.054   3.688
73691W        W45417  43.544  22.025   3.815
73692W        W45418  36.117  13.797  12.500
73693W        W45419  26.900  43.417   3.078
73694W        W45420  25.617  40.199   1.775
73695W        W45421  15.821   9.616  13.510
73696W        W45422   6.851  40.990   0.605
73697W        W45423   3.185  14.298  14.828
73698W        W45424  29.775  35.613  14.161
73699W        W45425  22.104  38.954   0.927
73700W        W45426   6.213  24.372   3.247
73701W        W45427  24.558  13.735  14.895
73702W        W45428  15.616  23.215   2.796
73703W        W45429  30.959  23.231  13.710
73704W        W45430  30.129  21.365  14.025
73705W        W45431   0.381  18.275  12.765
73706W        W45432  33.496   8.319   0.722
73707W        W45433  33.328  36.945   3.480
73708W        W45434  16.987  44.966  14.408
73709W        W45435  43.613  42.327  10.962
73710W        W45436  31.881   5.944   1.887
73711W        W45437   3.283  19.150   2.678
73712W        W45438   7.799  23.998   1.038
73713W        W45439   6.820   4.233   3.113
73714W        W45440  25.493  28.533   4.630
73715W        W45441   1.683  18.296   3.062
73716W        W45442  44.975  43.816  14.410
73717W        W45443  28.100  33.201  14.904
73718W        W45444  44.101  44.953  12.547
73719W        W45445  33.179   4.774   0.351
73720W        W45446  43.065   0.460  10.178
73721W        W45447  14.641   8.378  10.743
73722W        W45448  40.303  28.530  11.126
73723W        W45449  34.442   6.663  13.299
73724W        W45450  18.220  27.760  11.032
73725W        W45451  29.416   5.174   1.271
73726W        W45452  35.050  35.661   0.784
73727W        W45453   2.204  25.180   1.498
73728W        W45454  22.797  32.641  13.459
73729W        W45455  19.103   0.544   4.856
73730W        W45456  11.193  16.781   1.123
73731W        W45457  14.093   3.784  12.680
73732W        W45458  31.504  28.318   1.882
73733W        W45459   2.272  44.560  14.390
73734W        W45460  23.370  10.260  14.363
73735W        W45461  14.837  44.048   3.768
73736W        W45462  18.750  38.691   0.959
73737W        W45463  20.523  40.578   3.260
73738W        W45464  30.778  15.627  13.961
73739W        W45465  25.277   2.531  10.637
73740W        W45466  28.653  22.067   4.871
73741W        W45467  28.632  19.783   2.324
73742W        W45468  27.836  13.164  14.777
73743W        W45469  40.570  33.144  13.303
73744W        W45470  42.913  35.325   0.947
73745W        W45471   1.505  33.452  11.516
73746W        W45472  22.282  23.301  12.591
73747W        W45473  40.995  16.283   1.008
73748W        W45474  14.091   3.152   1.887
73749W        W45475   8.797   5.656   0.730
73750W        W45476  22.825  31.929  11.916
73751W        W45477   1.972  21.961   4.635
73752W        W45478   6.980  40.477   3.628
73753W        W45479  25.619   0.906   2.429
73754W        W45480  15.714  31.102  13.815
73755W        W45481  36.464  37.050   3.202
73756W        W45482  15.715  12.829   0.994
73757W        W45483   2.928  20.233  14.468
73758W        W45484  20.939  25.568   2.195
73759W        W45485   5.328   1.551   0.584
73760W        W45486  10.727  14.111   1.235
73761W        W45487  26.541  25.663   0.763
73762W        W45488   8.057  12.321   0.841
73763W        W45489  33.923  44.919   4.322
73764W        W45490  10.073   4.201   3.344
73765W        W45491   2.207  44.303   2.313
73766W        W45492  41.411  20.180  13.456
73767W        W45493  33.487  39.520  13.112
73768W        W45494  18.788  32.376  14.798
73769W        W45495  42.996  25.405   4.347
73770W        W45496  44.920  19.765   0.064
73771W        W45497  38.948  16.759   0.752
73772W        W45498  24.008  18.712   0.851
73773W        W45499  32.503   5.176   4.105
73774W        W45500  14.868  27.859  10.229
73775W        W45501  21.028   6.651   0.672
73776W        W45502  17.104  40.092  13.885
73777W        W45503  14.350   3.295   4.542
73778W        W45504  17.078   5.670  13.990
73779W        W45505  28.230  13.385   3.452
73780W        W45506  42.344  16.766   4.054
73781W        W45507  20.056  40.826  14.402
73782W        W45508  30.174  18.880   1.504
73783W        W45509  37.787  32.398  11.111
73784W        W45510  27.928  10.746  11.096
73785W        W45511  43.026   5.262   0.789
73786W        W45512  24.739  23.628   1.791
73787W        W45513   0.905  27.436   0.027
73788W        W45514  42.424  16.596   3.551
73789W        W45515  17.358  27.650   2.849
73790W        W45516  18.184  44.950   2.002
73791W        W45517  42.359  27.653   2.904
73792W        W45518  37.361   9.822  14.051
73793W        W45519  16.306  31.923  13.183
73794W        W45520  10.161  36.654  10.301
73795W        W45521   9.130   1.436   4.549
73796W        W45522  32.583  38.429   4.502
73797W        W45523  21.624   2.298  13.849
73798W        W45524   1.944  35.455   0.807
73799W        W45525  11.160  34.567   0.836
73800W        W45526   0.583  30.197  11.132
73801W        W45527  12.340  21.571  13.562
73802W        W45528   1.330  18.214   3.699
73803W        W45529  21.213  43.230  14.041
73804W        W45530   3.547  38.269  11.590
73805W        W45531   4.428   6.289   0.356
73806W        W45532  36.396  28.661  12.482
73807W        W45533  43.333  12.823  12.581
73808W        W45534   9.910  33.989  14.079
73809W        W45535   6.622  15.018   5.431
73810W        W45536  42.926  12.185   2.635
73811W        W45537  32.093  13.213  12.792
73812W        W45538   9.704  40.730   2.981
73813W        W45539   8.329  36.283   1.298
73814W        W45540  22.848  35.652   3.045
73815W        W45541   2.339   7.677   0.013
73816W        W45542  15.568  19.170  13.349
73817W        W45543   1.892  32.046   0.192
73818W        W45544  20.119   0.828  13.388
73819W        W45545  37.717  16.092  11.623
73820W        W45546  24.586   6.281   3.741
73821W        W45547   9.378  43.479  11.162
73822W        W45548  43.695  34.046  11.541
73823W        W45549  16.255  21.592  10.995
73824W        W45550  35.063  33.464  11.618
73825W        W45551  22.223   9.740  11.945
73826W        W45552  20.069   9.407  14.594
73827W        W45553  37.079   5.373   1.310
73828W        W45554  14.189  13.153   1.827
73829W        W45555  36.410  30.056   2.623
73830W        W45556  11.790  35.059   2.976
73831W        W45557  25.107  33.005   1.139
73832W        W45558  26.144   2.136  11.574
73833W        W45559  16.467   3.839   2.066
73834W        W45560  10.980  40.531   3.793
73835W        W45561   3.183  36.586   2.188
73836W        W45562  40.977  11.152   3.581
73837W        W45563  23.888  12.065   0.013
73838W        W45564  44.497   4.822   3.270
73839W        W45565  27.014  10.859  13.534
73840W        W45566   1.846  44.844  12.792
73841W        W45567  16.802  21.031  13.924
73842W        W45568  44.491  32.301  12.642
73843W        W45569   9.121   0.053   2.773
73844W        W45570  33.685  36.910   0.918
73845W        W45571   9.826  11.317   4.575
73846W        W45572   4.118  41.498  12.618
73847W        W45573  20.270  32.787   1.929
73848W        W45574  30.994  16.542   4.515
73849W        W45575  24.554  36.365   4.474
73850W        W45576  20.695  32.058  14.066
73851W        W45577  28.163  26.188   1.668
73852W        W45578  37.119   2.871  12.889
73853W        W45579  43.787  44.513   1.223
73854W        W45580  42.799   1.535   2.585
73855W        W45581  19.620  27.951   3.056
73856W        W45582  11.666  33.371   2.345
73857W        W45583  18.727  20.599   4.606
73858W        W45584   3.267  35.412  12.620
73859W        W45585  32.841  34.495  11.226
73860W        W45586  12.149  38.200  14.464
73861W        W45587   5.135  20.738   4.807
73862W        W45588  14.780   4.742  10.657
73863W        W45589   6.417  11.102   5.000
73864W        W45590  16.131   2.961   3.501
73865W        W45591   9.056  37.897  11.961
73866W        W45592  33.153  22.025   1.811
73867W        W45593  24.003   1.307  12.000
73868W        W45594  17.116  38.989   2.162
73869W        W45595   6.695   1.973   3.865
73870W        W45596  18.098  24.198  12.012
73871W        W45597  11.053  23.301   3.653
73872W        W45598  43.825  39.804  14.708
73873W        W45599  37.869  30.148  10.687
73874W        W45600  34.930   6.419   4.553
73875W        W45601  16.730   1.562   1.812
73876W        W45602   3.758  41.007  12.028
73877W        W45603  34.902  28.960   0.494
73878W        W45604  32.866   8.804  12.889
73879W        W45605   6.171  39.014   3.812
73880W        W45606  33.102  20.001  12.138
73881W        W45607  29.043  21.734   0.317
73882W        W45608  14.735  21.277  13.976
73883W        W45609  10.819  44.509  12.948
73884W        W45610  41.600  36.413  11.380
73885W        W45611  11.100   0.496  13.638
73886W        W45612  14.989  27.021   4.519
73887W        W45613  20.762  32.337   0.397
73888W        W45614  13.095  18.110  14.906
73889W        W45615  17.773  20.716   0.478
73890W        W45616  25.296   8.807  13.310
73891W        W45617  21.245  43.099  14.595
73892W        W45618  18.234  34.418  10.860
73893W        W45619  26.288   8.451  11.579
73894W        W45620  35.964   5.094  14.409
73895W        W45621  23.214  11.177  13.376
73896W        W45622   2.871  11.136  14.888
73897W        W45623  41.542  17.557  13.325
73898W        W45624  12.800  43.118  10.871
73899W        W45625  26.129  22.542   0.840
73900W        W45626  36.645  44.413   4.028
73901W        W45627  29.974  13.257   1.413
73902W        W45628  26.590  25.853  13.568
73903W        W45629   6.407  37.381   2.240
73904W        W45630  36.858  39.029   1.405
73905W        W45631  19.070   2.245   3.790
73906W        W45632  33.665  24.857   4.103
73907W        W45633   0.479  22.712   4.846
73908W        W45634  43.986  38.491  14.293
73909W        W45635  41.118  39.107  14.913
73910W        W45636  16.152  41.835  13.459
73911W        W45637  37.002  33.478   3.277
73912W        W45638   8.223  39.158   3.654
73913W        W45639  32.832  40.036  14.244
73914W        W45640   2.228   7.607  11.994
73915W        W45641  22.245  13.275  13.872
73916W        W45642  16.507  16.583  11.929
73917W        W45643  43.749  22.057  14.968
73918W        W45644   2.381  36.943   1.304
73919W        W45645  34.945  33.866  14.444
73920W        W45646  23.553   3.405   2.913
73921W        W45647   1.536  44.420   3.717
73922W        W45648  30.918  42.089  12.619
73923W        W45649   7.147  19.020   1.830
73924W        W45650  36.672  26.910  10.427
73925W        W45651   4.119  32.181   5.041
73926W        W45652  41.085  11.358  13.844
73927W        W45653  26.978  23.957  12.490
73928W        W45654  17.413  23.191  14.407
73929W        W45655   2.450  44.767   4.847
73930W        W45656  14.902  22.051  14.490
73931W        W45657  34.614  10.299   3.361
73932W        W45658  42.573  35.404  10.621
73933W        W45659   0.865  42.283  12.524
73934W        W45660   1.392  10.681   2.691
73935W        W45661  19.315  14.650   0.481
73936W        W45662  37.385  35.905   3.234
73937W        W45663  32.110  40.986   2.673
73938W        W45664   4.723  41.504   4.653
73939W        W45665  12.090  37.553  11.064
73940W        W45666  30.845   1.119  11.444
73941W        W45667   0.972  17.583   3.212
73942W        W45668  11.685   7.076  10.117
73943W        W45669  16.703   5.870  11.648
73944W        W45670   6.082  23.737   4.611
73945W        W45671  38.403   8.641  12.814
73946W        W45672  24.245  25.071  13.040
73947W        W45673  37.058  42.693   4.667
73948W        W45674  16.861   1.205  11.540
73949W        W45675  35.044   6.165   0.024
73950W        W45676  34.184  35.989   0.081
73951W        W45677  37.954  23.186  12.873
73952W        W45678  22.128  29.041  11.915
73953W        W45679  11.250   9.802  14.293
73954W        W45680  42.001   5.158   4.485
73955W        W45681   2.313   3.191  13.030
73956W        W45682  33.116  18.277   3.849
73957W        W45683   6.024   3.504  14.929
73958W        W45684   5.404  43.379   0.037
73959W        W45685   3.428  21.008   4.571
73960W        W45686  19.803  20.169  11.030
73961W        W45687  31.998  25.813   3.257
73962W        W45688  29.657  30.563   1.144
73963W        W45689   7.516  30.476   5.056
73964W        W45690   3.890  39.754  11.035
73965W        W45691  44.429  44.847  14.462
73966W        W45692   9.417  25.644  13.274
73967W        W45693  41.460  13.590  11.650
73968W        W45694   7.383  21.196   2.333
73969W        W45695   9.987  28.827   0.259
73970W        W45696  23.500  26.685  14.901
73971W        W45697   1.071  28.220  11.172
73972W        W45698  26.526  28.957  12.553
73973W        W45699  11.633  16.646   1.910
73974W        W45700   6.719  33.841  14.397
73975W        W45701   7.638  27.466  11.196
73976W        W45702   8.853   5.181  11.165
73977W        W45703  41.023   2.935   3.692
73978W        W45704  31.006  24.220  13.970
73979W        W45705  14.353  27.247   2.344
73980W        W45706  22.661  29.497   0.305
73981W        W45707  41.503  27.374  14.192
73982W        W45708  16.150   0.798  12.461
73983W        W45709  16.616  13.859   1.438
73984W        W45710  39.898  16.233  10.696
73985W        W45711  17.081  40.268   4.081
73986W        W45712  39.338   4.895  13.440
73987W        W45713  19.679  37.544   3.948
73988W        W45714  10.239   3.910  11.434
73989W        W45715   7.834  19.936   2.283
73990W        W45716   4.772  13.719  13.339
73991W        W45717  10.281  33.190  13.044
73992W        W45718  42.529  15.829   4.186
73993W        W45719  15.556   1.924   9.731
73994W        W45720   0.547  27.772  12.553
73995W        W45721  31.576  17.833  12.687
73996W        W45722  26.900   0.103  11.506
73997W        W45723  16.454  21.498   0.326
73998W        W45724  20.505   6.829   0.726
73999W        W45725   9.168  36.546   4.541
74000W        W45726  24.079  42.502  12.227
74001W        W45727   6.836   3.363   0.008
74002W        W45728  28.648  31.544   1.367
74003W        W45729  13.329  39.870  13.852
74004W        W45730  14.072  38.788   2.202
74005W        W45731  44.547  35.360   4.575
74006W        W45732   5.352  31.850  13.876
74007W        W45733  31.829   5.646   3.132
74008W        W45734  30.390   0.294  12.663
74009W        W45735  30.515   7.232   2.805
74010W        W45736  40.087  42.533   1.645
74011W        W45737  36.215  32.449   4.168
74012W        W45738  19.521  21.163  13.946
74013W        W45739  13.418  24.468  10.606
74014W        W45740   3.224   1.674  13.337
74015W        W45741  36.547  44.458  12.958
74016W        W45742  30.517  31.403   2.390
74017W        W45743  26.018   9.606  14.420
74018W        W45744  19.733  28.956   4.307
74019W        W45745  17.716  43.894   0.427
74020W        W45746  25.940  19.469  13.555
74021W        W45747   4.241  41.001   3.621
74022W        W45748  17.717  42.974  14.906
74023W        W45749  18.123   2.962  14.713
74024W        W45750  23.660  21.171   0.011
74025W        W45751  22.641  44.443   3.622
74026W        W45752  41.713  41.596  14.859
74027W        W45753  17.584  15.376   0.489
74028W        W45754  34.711  26.153   2.436
74029W        W45755  11.562  11.154   4.044
74030W        W45756   5.916   4.548  10.500
74031W        W45757  14.557  32.087   2.666
74032W        W45758  41.541  21.643   4.150
74033W        W45759  15.186  39.360   1.164
74034W        W45760  37.277  11.632  13.953
74035W        W45761  19.547  32.009  10.970
74036W        W45762  43.778   8.426  13.983
74037W        W45763  24.940  39.964   0.389
74038W        W45764  27.195  42.390  12.881
74039W        W45765   9.664   3.312  13.473
74040W        W45766  32.917  27.429   1.373
74041W        W45767  27.485   0.465  10.298
74042W        W45768   2.848  15.688   0.822
74043W        W45769   9.684  31.667   1.328
74044W        W45770  19.264  27.469  11.276
74045W        W45771  39.048  15.072  13.893
74046W        W45772   9.211  38.245   3.867
74047W        W45773  39.838  37.034  11.536
74048W        W45774  24.206  17.058  14.076
74049W        W45775  28.437  35.951   1.941
74050W        W45776   7.870  26.901  14.418
74051W        W45777  11.533  30.759   0.827
74052W        W45778  41.078  31.416   1.841
74053W        W45779  15.867  28.882  11.662
74054W        W45780  18.164  29.743  12.555
74055W        W45781  36.149  12.303  12.394
74056W        W45782  16.118  29.114   3.741
74057W        W45783  19.373  37.328   0.944
74058W        W45784   6.060  15.272  13.103
74059W        W45785   4.297  14.692   3.781
74060W        W45786   7.305  25.025  13.840
74061W        W45787   6.399   4.808   1.232
74062W        W45788  21.182   8.590   1.457
74063W        W45789   8.816   7.836  10.705
74064W        W45790  13.426  33.575  11.864
74065W        W45791   5.811  20.605   2.967
74066W        W45792  44.514  36.965  13.363
74067W        W45793  14.357   5.749   4.175
74068W        W45794  36.080  25.528   0.425
74069W        W45795  16.346  29.101  11.198
74070W        W45796  43.852  33.068  14.571
74071W        W45797  22.631  21.607   3.343
74072W        W45798   1.243  10.193   2.810
74073W        W45799  22.939  29.959   1.288
74074W        W45800  16.334  21.265  13.924
74075W        W45801  26.525  17.326  14.950
74076W        W45802   5.130  26.664   1.805
74077W        W45803  30.185  25.585   1.248
74078W        W45804   1.891  12.766   2.423
74079W        W45805   2.817   8.070  11.166
74080W        W45806  27.459  34.539  11.933
74081W        W45807   4.688  25.508   1.331
74082W        W45808   2.388  30.186  10.967
74083W        W45809  37.420  33.829   0.459
74084W        W45810   8.002  14.244   3.790
74085W        W45811   8.394  11.928   3.821
74086W        W45812  25.709   2.716   1.418
74087W        W45813  22.584  21.176  11.161
74088W        W45814   3.493  16.812   3.749
74089W        W45815  36.410  29.053  14.061
74090W        W45816  29.718  40.911  10.643
74091W        W45817   5.850  15.549  14.957
74092W        W45818   5.757  16.246   3.980
74093W        W45819  40.916  36.331   4.242
74094W        W45820  30.945  10.415   2.860
74095W        W45821  10.674  29.988   3.591
74096W        W45822   6.602  22.490   0.469
74097W        W45823  37.527  16.763  14.905
74098W        W45824  35.948   7.880  14.050
74099W        W45825   6.720   5.263   4.670
74100W        W45826  30.065  20.254  10.760
74101W        W45827  26.654   6.654  11.184
74102W        W45828   9.900   7.182  14.156
74103W        W45829  22.474  25.859   4.102
74104W        W45830   3.469  36.576   4.574
74105W        W45831  13.401  24.015   3.585
74106W        W45832  36.758  38.550  12.978
74107W        W45833   0.912  30.377   2.719
74108W        W45834  15.781   3.804   4.649
74109W        W45835  24.979  13.237  12.092
74110W        W45836  20.709  41.523   3.350
74111W        W45837   4.845  30.362   1.702
74112W        W45838  18.155  24.434   3.807
74113W        W45839  37.914   1.794   2.153
74114W        W45840  34.101  28.544  12.195
74115W        W45841  13.280  24.560  11.627
74116W        W45842  30.673   2.940   4.002
74117W        W45843  16.532  11.371   4.599
74118W        W45844  42.530  26.637  11.867
74119W        W45845   3.875  25.487  12.864
74120W        W45846  23.026  25.202  11.646
74121W        W45847  38.748  28.318  13.006
74122W        W45848  42.552  17.123   2.306
74123W        W45849  41.391  11.365   0.225
74124W        W45850  27.089  44.356  12.643
74125W        W45851  41.160  18.337   0.960
74126W        W45852  12.650   5.448  12.486
74127W        W45853   7.874   3.690   3.385
74128W        W45854  36.542  34.901  14.358
74129W        W45855  39.181   2.425  11.802
74130W        W45856   9.811  22.194   9.811
74131W        W45857   3.950   0.651   3.082
74132W        W45858  27.048  23.077  12.609
74133W        W45859  15.605   1.185   4.473
74134W        W45860  24.960  28.981  13.911
74135W        W45861  43.846   0.422  12.442
74136W        W45862  28.520  29.700  13.352
74137W        W45863  22.558  34.100  14.981
74138W        W45864   7.381  24.549  10.594
74139W        W45865  32.967   5.005   3.873
74140W        W45866   4.642  16.223   3.732
74141W        W45867  43.765  30.973  12.359
74142W        W45868  30.555  29.500  14.498
74143W        W45869  33.880  42.352   2.923
74144W        W45870  27.909  37.306  10.520
74145W        W45871  35.125   0.579  11.434
74146W        W45872  27.860  23.398  14.734
74147W        W45873   4.773  23.854   4.210
74148W        W45874  41.412  26.985   0.981
74149W        W45875  12.310  18.219   0.442
74150W        W45876  16.544  12.615  14.378
74151W        W45877  37.324  31.719   2.934
74152W        W45878  23.920   4.539  14.975
74153W        W45879  37.483  13.929  12.461
74154W        W45880   0.833  22.016  13.481
74155W        W45881   5.282   3.359  10.686
74156W        W45882   1.419  23.959  13.964
74157W        W45883  16.801  24.073   2.715
74158W        W45884   3.807  40.059  11.602
74159W        W45885  23.510   7.981  11.692
74160W        W45886  41.621   8.833  10.636
74161W        W45887   1.254  14.578  13.152
74162W        W45888  31.374   6.584   4.300
74163W        W45889  15.052   8.504   0.351
74164W        W45890  43.225  20.118  12.797
74165W        W45891  44.035  44.332   3.619
74166W        W45892   9.700  14.226   1.336
74167W        W45893  32.185  17.696   0.322
74168W        W45894   9.683  10.416  11.994
74169W        W45895  36.632  33.714  13.854
74170W        W45896  14.576   8.983  14.769
74171W        W45897  11.056  22.590  14.289
74172W        W45898  41.396   8.410   1.419
74173W        W45899  33.848  13.109   4.358
74174W        W45900  28.034  17.135   3.188
74175W        W45901  28.645  32.979  12.966
74176W        W45902  10.183  37.394  14.094
74177W        W45903   6.037  26.535   0.260
74178W        W45904  26.768  22.646   3.105
74179W        W45905  37.613  43.270   4.188
74180W        W45906  22.886  38.472   0.803
74181W        W45907  15.738  17.843  10.164
74182W        W45908  30.242  26.640   5.152
74183W        W45909  31.054  39.337   1.887
74184W        W45910  14.194  18.727   4.765
74185W        W45911  43.926  30.037   1.708
74186W        W45912   3.330  16.542  11.279
74187W        W45913  39.935  18.617  13.934
74188W        W45914  34.765  38.072  11.046
74189W        W45915  28.837  13.800  10.605
74190W        W45916  10.896  24.860  12.815
74191W        W45917   2.898   7.277  12.550
74192W        W45918  42.544  14.065   1.295
74193W        W45919   8.194  42.092   2.562
74194W        W45920  27.806  27.518  11.272
74195W        W45921   7.885  36.330   4.252
74196W        W45922  20.311  11.866  10.991
74197W        W45923   2.399  35.660   0.742
74198W        W45924  23.145  15.363   9.779
74199W        W45925   7.703  25.067  10.672
74200W        W45926  43.862  16.340  11.957
74201W        W45927   3.550   9.455  11.928
74202W        W45928  26.418   1.442   4.997
74203W        W45929   9.353   7.942  11.439
74204W        W45930  18.118   3.752   1.709
74205W        W45931   2.122  18.587   4.141
74206W        W45932  31.658  39.608  10.559
74207W        W45933  17.725   0.313  14.508
74208W        W45934   0.481  40.070  14.418
74209W        W45935   0.430  26.666  12.040
74210W        W45936  15.788   3.043  14.494
74211W        W45937  25.535  26.501  14.836
74212W        W45938  16.779  41.322  10.670
74213W        W45939  39.743  13.126  14.955
74214W        W45940  17.007  32.176   3.803
74215W        W45941  40.818  37.629   4.113
74216W        W45942   7.014  41.823  11.717
74217W        W45943  27.060   2.276  10.452
74218W        W45944  22.961  30.638   4.959
74219W        W45945  19.307  14.053   3.362
74220W        W45946  41.908  42.923   0.931
74221W        W45947  14.604  23.358  11.379
74222W        W45948  21.431  20.562  14.838
74223W        W45949   3.241  32.340  13.725
74224W        W45950  43.501   8.598   0.244
74225W        W45951   5.328  26.442   2.240
74226W        W45952  18.535   4.018   1.441
74227W        W45953  26.719  31.602   1.921
74228W        W45954  30.406  21.068  10.411
74229W        W45955  25.515  18.793  14.534
74230W        W45956  29.825  38.404   1.158
74231W        W45957   4.794  14.792   3.607
74232W        W45958  35.992  19.329   4.553
74233W        W45959  27.580  22.749   0.797
74234W        W45960  32.856  42.066   5.363
74235W        W45961   7.712   7.115  11.246
74236W        W45962   5.081  36.227   1.307
74237W        W45963   7.267  25.004   1.382
74238W        W45964  10.297   2.897   3.757
74239W        W45965  24.986  15.623  14.530
74240W        W45966  25.401   5.830  12.047
74241W        W45967   4.609  32.925  11.430
74242W        W45968  41.942  32.683   3.835
74243W        W45969  44.421  33.657   1.305
74244W        W45970  25.706  20.178   0.302
74245W        W45971   1.317   5.667  13.522
74246W        W45972  39.616   6.453  13.907
74247W        W45973  21.644   4.473   1.400
74248W        W45974  23.125  17.521   3.158
74249W        W45975   2.169  36.439   3.688
74250W        W45976  18.228  42.520  14.459
74251W        W45977  37.587  32.862  10.959
74252W        W45978  31.084  15.614   3.704
74253W        W45979   2.876  16.227   4.158
74254W        W45980  19.586  14.484   3.873
74255W        W45981  25.044  31.048   1.981
74256W        W45982  27.228   6.131  12.547
74257W        W45983  36.804  29.233  11.969
74258W        W45984  17.008  17.287   3.289
74259W        W45985   3.379  31.012   2.226
74260W        W45986  29.418  44.213   2.081
74261W        W45987  11.093  25.780  10.876
74262W        W45988  40.004  11.724   1.873
74263W        W45989  42.406  41.447   4.910
74264W        W45990  15.719   0.928   2.563
74265W        W45991  35.000  32.523  11.619
74266W        W45992  25.199  13.523  13.857
74267W        W45993  39.830  25.062  11.456
74268W        W45994   1.311   3.651   4.282
74269W        W45995  37.580  43.331  13.177
74270W        W45996  21.527  30.390  13.374
74271W        W45997   9.745  14.971  13.784
74272W        W45998  42.855  11.823  10.596
74273W        W45999  28.412  25.508   2.848
74274W        W46000   0.790  31.901  12.530
74275W        W46001   8.372  20.366   4.562
74276W        W46002  20.210  42.402  12.856
74277W        W46003   0.231  30.086   2.253
74278W        W46004  41.250  16.781   3.949
74279W        W46005   0.837  33.526  13.316
74280W        W46006  44.514   8.831  11.708
74281W        W46007   1.186   7.979  11.182
74282W        W46008  44.123   0.100   0.437
74283W        W46009  16.493  28.824  13.903
74284W        W46010  16.369  20.903   1.384
74285W        W46011  12.660  30.704   2.222
74286W        W46012  32.346  23.693  13.114
74287W        W46013  12.418  37.889   1.053
74288W        W46014  15.765  28.774   1.250
74289W        W46015  38.613  18.566  11.617
74290W        W46016   1.284  39.322  11.957
74291W        W46017  17.234  14.775   0.039
74292W        W46018  41.619  12.305  14.849
74293W        W46019  22.254  24.988  12.904
74294W        W46020   1.416   7.166   1.407
74295W        W46021  42.798   6.391   4.083
74296W        W46022  23.944  28.505   2.720
74297W        W46023  24.037   3.546   2.929
74298W        W46024  23.791   1.024   3.033
74299W        W46025  44.718   0.822   3.117
74300W        W46026  32.424  17.769  14.861
74301W        W46027  28.766  42.325  11.091
74302W        W46028  25.050  19.995  12.116
74303W        W46029  17.072  29.363   4.323
74304W        W46030  19.529  13.838  12.936
74305W        W46031  13.406   7.727  14.310
74306W        W46032  43.929  12.531   3.624
74307W        W46033  17.144  28.551  14.946
74308W        W46034   0.521   0.755  11.928
74309W        W46035  13.753  14.706   4.154
74310W        W46036  22.040  19.689   4.506
74311W        W46037   1.850  39.540  14.239
74312W        W46038  17.110  25.006  13.370
74313W        W46039  21.335  18.650  14.237
74314W        W46040   8.643  31.005   1.702
74315W        W46041  18.136  16.423  10.762
74316W        W46042  26.604  19.624   4.811
74317W        W46043  39.380  35.380  10.457
74318W        W46044   1.718   6.284   4.415
74319W        W46045  35.232   2.729   2.064
74320W        W46046  11.360  40.837   1.934
74321W        W46047   0.939  20.747  12.685
74322W        W46048  35.660  40.851  14.357
74323W        W46049  13.012   3.814  13.591
74324W        W46050   9.888   5.346   2.437
74325W        W46051   7.670  41.971   1.776
74326W        W46052  37.085  21.652  11.471
74327W        W46053  21.583  14.554   9.851
74328W        W46054  25.478  24.158  12.133
74329W        W46055  12.248  23.038  10.711
74330W        W46056  21.713  42.037  14.222
74331W        W46057   6.215  11.575   0.875
74332W        W46058  22.962  22.275   0.242
74333W        W46059  37.878  36.594   4.708
74334W        W46060  40.171  43.919  11.496
74335W        W46061   3.255  35.025   4.533
74336W        W46062  23.132  18.772   0.301
74337W        W46063  23.118  40.886  10.832
74338W        W46064  31.478  38.724   4.647
74339W        W46065  33.578  38.803   1.626
74340W        W46066  10.653  27.552  14.068
74341W        W46067  42.342  11.100   0.455
74342W        W46068  15.213  14.894   3.768
74343W        W46069  12.320  31.182   2.673
74344W        W46070  38.812  37.551   2.783
74345W        W46071  35.810  38.889  13.808
74346W        W46072  32.956  43.194   0.901
74347W        W46073  42.817   0.878  12.947
74348W        W46074   3.264   9.353   0.772
74349W        W46075  17.226   9.907   0.006
74350W        W46076  40.097  29.581  11.595
74351W        W46077   0.843  12.358  11.717
74352W        W46078  41.991   2.783  12.956
74353W        W46079  38.938  24.618   3.262
74354W        W46080   1.231  38.508  11.580
74355W        W46081  33.164   5.801  10.730
74356W        W46082  37.428   9.570  13.094
74357W        W46083  25.167  31.474   1.662
74358W        W46084  16.677  32.874   1.336
74359W        W46085  14.340  42.970  13.493
74360W        W46086   3.262  14.947  13.927
74361W        W46087  17.624   5.099  11.137
74362W        W46088   4.208  31.748  12.449
74363W        W46089  35.492  22.266  12.523
74364W        W46090   2.793  31.196  14.020
74365W        W46091  40.494  14.847  13.296
74366W        W46092  40.460  34.538  11.230
74367W        W46093   4.510   3.766   5.014
74368W        W46094  37.964  41.052   3.249
74369W        W46095  29.016  37.422   2.848
74370W        W46096  39.263  10.314   3.657
74371W        W46097  32.556   8.317   1.736
74372W        W46098  33.582  32.562  10.667
74373W        W46099  44.850  15.748   4.824
74374W        W46100   5.758  38.475   2.691
74375W        W46101  13.836  44.414  12.562
74376W        W46102  17.900  11.500   2.820
74377W        W46103  20.490   1.798  13.019
74378W        W46104  26.666   0.365  14.765
74379W        W46105  12.308  36.309   1.859
74380W        W46106   2.827  31.331  11.447
74381W        W46107  28.628   0.240   1.859
74382W        W46108  15.699  14.856  10.669
74383W        W46109   4.653  28.499   0.102
74384W        W46110  40.827   4.270   0.377
74385W        W46111  15.563  42.142   5.067
74386W        W46112  41.362  20.129   1.755
74387W        W46113  22.644  32.423   3.667
74388W        W46114   2.178   0.895   1.776
74389W        W46115  11.318  44.723   2.327
74390W        W46116  44.984  40.229  11.105
74391W        W46117  13.806  10.759   2.605
74392W        W46118  15.477  14.285  11.918
74393W        W46119  20.082  43.703   3.733
74394W        W46120  28.931  20.757   1.403
74395W        W46121  32.325  35.363   0.882
74396W        W46122   4.379   4.184   2.298
74397W        W46123   6.549  13.337   1.464
74398W        W46124  38.562  27.744   1.231
74399W        W46125  19.028  31.856   2.247
74400W        W46126  28.569  15.636  14.178
74401W        W46127  26.899  32.151  11.042
74402W        W46128  26.148  38.554  11.701
74403W        W46129  25.573  33.969   2.233
74404W        W46130   0.847   0.528  13.587
74405W        W46131  39.614  39.047   4.395
74406W        W46132  17.958  20.720   4.613
74407W        W46133  36.506  30.356   2.174
74408W        W46134  17.678   4.942  10.256
74409W        W46135  42.237  18.535   2.746
74410W        W46136  22.618  34.691   4.585
74411W        W46137  16.648  14.739  13.566
74412W        W46138   5.730  11.837   4.101
74413W        W46139  11.220  28.637  10.971
74414W        W46140   6.449  22.213   1.153
74415W        W46141   6.712  20.655   3.649
74416W        W46142  43.014  18.102  13.781
74417W        W46143  35.952  21.514   0.260
74418W        W46144   6.636  30.320   0.762
74419W        W46145  11.166  21.169  14.401
74420W        W46146  30.718  25.085  11.591
74421W        W46147  17.808  20.348  12.439
74422W        W46148  32.243  43.862  11.535
74423W        W46149  39.832  28.888   2.381
74424W        W46150  41.374  35.962  11.188
74425W        W46151  35.730  21.672  11.575
74426W        W46152  30.481  16.589  14.868
74427W        W46153  10.114   8.101  12.068
74428W        W46154  27.523  25.171  14.273
74429W        W46155  18.125  18.308  11.000
74430W        W46156  42.312  35.818   3.298
74431W        W46157  40.282  37.277  12.335
74432W        W46158  31.641  44.034  12.828
74433W        W46159   2.775  13.294  12.457
74434W        W46160  31.261  16.708  14.882
74435W        W46161  36.423  20.613  12.037
74436W        W46162  23.239  28.439   1.827
74437W        W46163  30.087   6.785  13.028
74438W        W46164  32.976   6.202   2.355
74439W        W46165  41.665   2.627   0.155
74440W        W46166  37.841  17.103  12.105
74441W        W46167  33.434  30.513  10.354
74442W        W46168  33.351  16.462   0.029
74443W        W46169  28.887   5.760   2.688
74444W        W46170  29.559   6.818   0.942
74445W        W46171  36.993  21.659   0.300
74446W        W46172   7.236  27.606  12.101
74447W        W46173  34.324   3.041  12.250
74448W        W46174  35.090  32.993  10.700
74449W        W46175  30.564   0.907  14.325
74450W        W46176  14.071  25.988   4.530
74451W        W46177   8.965  24.654  10.601
74452W        W46178  26.584  29.637  10.785
74453W        W46179  16.140  30.093  11.978
74454W        W46180  33.951  16.154  12.449
74455W        W46181  13.040  44.339  11.069
74456W        W46182  10.743  26.669   1.083
74457W        W46183  24.594   2.690   2.193
74458W        W46184  19.709   9.415   1.797
74459W        W46185  15.030  34.983  12.381
74460W        W46186  10.899  16.990   3.254
74461W        W46187  10.033  17.853   3.475
74462W        W46188  19.952  24.639   3.601
74463W        W46189   4.868  36.954  13.970
74464W        W46190   3.462  23.725  14.463
74465W        W46191  34.331  15.265  10.837
74466W        W46192  18.546  36.914   0.851
74467W        W46193   0.040   8.300   1.642
74468W        W46194  14.243   9.370  14.014
74469W        W46195   1.698   6.919  11.661
74470W        W46196  14.423  31.674  11.070
74471W        W46197  15.639  33.819   1.747
74472W        W46198   0.528  34.346  14.371
74473W        W46199   4.244  22.968  14.956
74474W        W46200   8.813  10.244  13.704
74475W        W46201  10.918  39.472  12.839
74476W        W46202  23.527   6.303  14.432
74477W        W46203  15.752  40.072   2.790
74478W        W46204  34.852  24.974   0.270
74479W        W46205  16.817  10.238  11.120
74480W        W46206  36.947   1.824   4.194
74481W        W46207  37.346  41.864  14.520
74482W        W46208  35.529   3.567  11.950
74483W        W46209  15.855  25.323  11.502
74484W        W46210  19.280  13.202  10.402
74485W        W46211   5.485   6.302   0.458
74486W        W46212  34.575  29.674  14.861
74487W        W46213  18.825   1.491   1.897
74488W        W46214   7.899  18.768  13.365
74489W        W46215   7.393   8.003   2.245
74490W        W46216   8.870  21.611   1.035
74491W        W46217  32.017  37.240   5.032
74492W        W46218   4.918  36.906   4.654
74493W        W46219  33.085   4.287  14.430
74494W        W46220  15.345  19.002   2.953
74495W        W46221   1.912  42.881   5.092
74496W        W46222   9.179  10.377  10.049
74497W        W46223   5.746  14.710   4.305
74498W        W46224  42.948  33.418   1.178
74499W        W46225  16.156  13.150   3.632
74500W        W46226  23.200  10.426   2.393
74501W        W46227  30.424  41.940   4.348
74502W        W46228   9.897  43.839  13.566
74503W        W46229  36.125  25.451   2.664
74504W        W46230  16.477  11.239   3.198
74505W        W46231  44.616   0.525  12.847
74506W        W46232  37.867  20.815  11.140
74507W        W46233  21.195  28.708  11.189
74508W        W46234  25.600  23.167  10.694
74509W        W46235  38.436  35.830  12.920
74510W        W46236  35.486  36.402  13.403
74511W        W46237  42.623  16.727  11.174
74512W        W46238  35.419  39.241  11.957
74513W        W46239  28.093  31.320   4.839
74514W        W46240  35.670  23.903  13.557
74515W        W46241  26.622  11.326  14.829
74516W        W46242  27.486  22.258  12.223
74517W        W46243  30.499  27.079   2.210
74518W        W46244  23.292  25.494  11.318
74519W        W46245  36.956  34.389   3.098
74520W        W46246  13.313  23.520   3.417
74521W        W46247  34.647   7.050  14.058
74522W        W46248   4.816  17.710   0.985
74523W        W46249  13.144  11.298   0.767
74524W        W46250   9.461  14.521  11.910
74525W        W46251  43.847  31.654   4.170
74526W        W46252  17.829  35.565  13.592
74527W        W46253   2.595  22.726   4.216
74528W        W46254  44.400  40.879  14.430
74529W        W46255  28.682  12.181   4.964
74530W        W46256  16.871  37.421  12.545
74531W        W46257  10.318   7.291  14.963
74532W        W46258  43.643  27.561   3.687
74533W        W46259  32.411   3.670   3.809
74534W        W46260   3.072  30.017   4.935
74535W        W46261   4.926  16.246   9.743
74536W        W46262  32.144   5.091   2.155
74537W        W46263  31.995   2.633   5.141
74538W        W46264   2.644  37.043   4.223
74539W        W46265   4.807  43.550  11.352
74540W        W46266  18.165  39.357  12.937
74541W        W46267   7.974   9.207   0.851
74542W        W46268  18.870  21.911  12.767
74543W        W46269  24.011  38.578   1.310
74544W        W46270  11.889  35.986  11.752
74545W        W46271  19.560  32.637   2.831
74546W        W46272  12.699  43.488  11.576
74547W        W46273  17.765  26.688  10.685
74548W        W46274  39.644  37.555  10.021
74549W        W46275  11.671  28.986   0.357
74550W        W46276  41.837   8.927   3.731
74551W        W46277  20.797  25.106  14.307
74552W        W46278  16.846  40.371  10.677
74553W        W46279  24.108  10.919  14.314
74554W        W46280  42.381  37.406  12.026
74555W        W46281  15.603  14.496  11.054
74556W        W46282   9.406  25.911  12.427
74557W        W46283   3.825   2.531  12.889
74558W        W46284  23.428  27.622  14.814
74559W        W46285  43.348  14.784  12.414
74560W        W46286  23.491  19.773   1.782
74561W        W46287  35.475  32.285  13.893
74562W        W46288  13.039   7.214   2.384
74563W        W46289  16.284  15.373   3.217
74564W        W46290  34.174   8.612  11.080
74565W        W46291   1.688  22.750   1.805
74566W        W46292   1.381   1.218   2.162
74567W        W46293  31.432   3.447  10.727
74568W        W46294  41.874  16.017   3.910
74569W        W46295  30.541  12.122   0.206
74570W        W46296  13.111  43.477   2.793
74571W        W46297  33.200  17.759   3.839
74572W        W46298  44.979  36.088   0.319
74573W        W46299   2.793   0.124  14.007
74574W        W46300  32.547  36.591  10.719
74575W        W46301   3.656  21.021   2.361
74576W        W46302  40.227  19.854   1.003
74577W        W46303  10.284  23.990  13.376
74578W        W46304  42.509   3.415  10.607
74579W        W46305  39.525  43.524  13.217
74580W        W46306  11.517  44.585   3.236
74581W        W46307  22.479  33.439  10.462
74582W        W46308  34.885   8.166   4.706
74583W        W46309  40.209  44.969  12.994
74584W        W46310  25.064  41.111   0.299
74585W        W46311  16.083  25.101   5.009
74586W        W46312   2.429  26.802   4.650
74587W        W46313  17.993  19.720  12.883
74588W        W46314  29.819  19.996  11.185
74589W        W46315   2.927  38.364   3.466
74590W        W46316  37.891  11.681  11.594
74591W        W46317  30.141  25.950  11.982
74592W        W46318  28.904  33.979  12.872
74593W        W46319  31.634  33.267  14.167
74594W        W46320  17.261  21.530  13.557
74595W        W46321   6.895  30.868   2.350
74596W        W46322  30.090  14.980   4.425
74597W        W46323  36.494  12.773   1.474
74598W        W46324  14.749  24.577  13.274
74599W        W46325  38.430   0.276  11.141
74600W        W46326  32.111   5.793  13.048
74601W        W46327  30.710  29.525   1.551
74602W        W46328   0.052  40.278   3.627
74603W        W46329   2.944  33.887  14.250
74604W        W46330  11.758  29.675   2.860
74605W        W46331  33.968  30.337   1.143
74606W        W46332   3.455  38.163  10.328
74607W        W46333   1.468  44.386   1.084
74608W        W46334   4.687  31.994  12.544
74609W        W46335   1.733  15.202   4.076
74610W        W46336  23.171  31.426  10.993
74611W        W46337   0.569  18.531   1.098
74612W        W46338   4.244  21.198   0.021
74613W        W46339  21.716  44.872   4.563
74614W        W46340  28.747  17.409   3.781
74615W        W46341  42.850  38.029   3.642
74616W        W46342  18.167  31.890  12.490
74617W        W46343  23.195  34.813   2.970
74618W        W46344  26.615  20.065  14.585
74619W        W46345   3.762  39.213   3.345
74620W        W46346  18.647  18.328  11.145
74621W        W46347  43.351  35.479   3.373
74622W        W46348  17.897   4.301   1.270
74623W        W46349  26.024  42.321   0.766
74624W        W46350   2.824  23.604   2.329
74625W        W46351  14.125  43.478  11.654
74626W        W46352  29.198  27.570   2.252
74627W        W46353   7.895  16.680   1.946
74628W        W46354  17.269  34.940   4.450
74629W        W46355  31.373  19.694   2.024
74630W        W46356  29.404  16.026   0.488
74631W        W46357  43.572  36.882   3.148
74632W        W46358  39.411  27.887   1.213
74633W        W46359  33.593  12.349   0.682
74634W        W46360  22.992  29.211  11.640
74635W        W46361  13.118   7.851  11.278
74636W        W46362   0.023  10.161  13.011
74637W        W46363  42.959  44.705   0.833
74638W        W46364   6.546  18.599  11.901
74639W        W46365   9.630  36.045   4.923
74640W        W46366  26.887  22.670  10.513
74641W        W46367  23.520  19.734   4.645
74642W        W46368  24.360   6.739   3.866
74643W        W46369   7.605  22.973   3.203
74644W        W46370  16.014  32.455  10.958
74645W        W46371  41.794  27.653   1.973
74646W        W46372  34.946  24.503  13.532
74647W        W46373  38.976  41.444  10.627
74648W        W46374  19.709  26.756  12.127
74649W        W46375  23.624  22.424   4.675
74650W        W46376  12.386  29.530  11.510
74651W        W46377   4.225  24.195   3.832
74652W        W46378   1.719  30.430  14.380
74653W        W46379  32.663   0.588  14.931
74654W        W46380  10.872  25.844  11.431
74655W        W46381  17.140  40.934   0.341
74656W        W46382  13.102  22.244  11.031
74657W        W46383  16.318  18.739  12.621
74658W        W46384   4.433   1.781   0.807
74659W        W46385  27.043   9.049   1.918
74660W        W46386  13.588  43.537   1.345
74661W        W46387   6.195  33.621  14.540
74662W        W46388  41.064  37.531   3.657
74663W        W46389  37.038  23.009  13.983
74664W        W46390   8.389   8.154  14.914
74665W        W46391  30.571  31.165   1.100
74666W        W46392  24.207  25.461   3.186
74667W        W46393  35.381  30.180  12.882
74668W        W46394  14.184  37.484  14.992
74669W        W46395  26.533  21.304  11.680
74670W        W46396  14.058  36.946   3.707
74671W        W46397  13.821   8.844   1.229
74672W        W46398  35.201  11.794   5.148
74673W        W46399  21.573  22.797  14.962
74674W        W46400  30.028  18.101   1.306
74675W        W46401  11.803   3.675   0.003
74676W        W46402  16.244  27.917  14.863
74677W        W46403  24.585   7.214   5.013
74678W        W46404   2.195  30.493   2.000
74679W        W46405  37.053   1.436   2.881
74680W        W46406  17.549  22.518  13.024
74681W        W46407   2.802  22.129  14.810
74682W        W46408  28.493   0.461   1.195
74683W        W46409  30.528  34.214  12.950
74684W        W46410   5.864  43.566  13.053
74685W        W46411  40.953   8.982   1.725
74686W        W46412   0.775  42.469  12.997
74687W        W46413  28.460  29.592   4.787
74688W        W46414  28.126  20.208   1.692
74689W        W46415   6.943  27.437  14.279
74690W        W46416   0.831  35.637   2.295
74691W        W46417  24.317   9.518   4.233
74692W        W46418  19.808  36.527   1.091
74693W        W46419  20.214  31.480  10.971
74694W        W46420  33.049  35.114  12.890
74695W        W46421   4.858  34.303   0.356
74696W        W46422  42.705  13.960  11.780
74697W        W46423   2.370  31.537  11.513
74698W        W46424  15.130  41.534   2.377
74699W        W46425  18.244   1.724  12.677
74700W        W46426  23.632  30.100  11.909
74701W        W46427  21.729   1.853   2.734
74702W        W46428   9.420  11.855  14.942
74703W        W46429  16.889   6.611  13.906
74704W        W46430  20.550  21.663   1.766
74705W        W46431  34.654  44.668   4.091
74706W        W46432  34.990  17.516  13.213
74707W        W46433   5.255  15.848  11.539
74708W        W46434  30.154   7.492   1.100
74709W        W46435  21.341   3.229   4.893
74710W        W46436  32.463  42.703  12.774
74711W        W46437   7.358  14.817   1.701
74712W        W46438  43.692  43.514  11.931
74713W        W46439   9.780  27.169  12.499
74714W        W46440  32.925  39.497   3.684
74715W        W46441   0.845  42.968   3.233
74716W        W46442  39.354  33.771  11.441
74717W        W46443  30.481  18.428   2.545
74718W        W46444  32.307  21.244   0.396
74719W        W46445  28.006   8.821   0.269
74720W        W46446  34.435  25.707   4.135
74721W        W46447  35.996  29.121   4.444
74722W        W46448  32.004  25.043   3.784
74723W        W46449  13.534   7.656   0.990
74724W        W46450  32.402  26.986   3.369
74725W        W46451  31.041  26.847  12.405
74726W        W46452  19.584  26.937   3.284
74727W        W46453  16.732  36.109   2.282
74728W        W46454   5.989   7.595  12.270
74729W        W46455  39.085  44.228   1.335
74730W        W46456  34.874  10.657   3.660
74731W        W46457  21.149   6.857   2.677
74732W        W46458  41.252  20.658  13.521
74733W        W46459  34.362   8.231   2.545
74734W        W46460  29.072  33.376   3.124
74735W        W46461  41.098   2.274   0.173
74736W        W46462  38.069  28.972  14.288
74737W        W46463  10.251  44.303   0.780
74738W        W46464  15.324  43.868   3.880
74739W        W46465  34.882  11.088  11.664
74740W        W46466  25.115   1.788   2.313
74741W        W46467  20.686  39.305  14.897
74742W        W46468  30.473  23.917   1.770
74743W        W46469  35.978   0.512   1.326
74744W        W46470  40.337  15.633   2.252
74745W        W46471  34.412  42.960  14.734
74746W        W46472   2.867  44.149  10.690
74747W        W46473   5.948  28.620  11.013
74748W        W46474  32.896  43.699   0.763
74749W        W46475  19.321  20.332   0.851
74750W        W46476   1.383  28.353  13.918
74751W        W46477  10.358   4.212   1.383
74752W        W46478   9.546  33.486   2.468
74753W        W46479  37.999   3.291   2.744
74754W        W46480   7.343  10.253   0.526
74755W        W46481  13.122  26.245  11.130
74756W        W46482  27.962  12.368   1.152
74757W        W46483  43.465  19.506   3.325
74758W        W46484  27.190  41.296   1.827
74759W        W46485  43.071  22.802  14.940
74760W        W46486   3.877   7.643  12.415
74761W        W46487  30.586  39.359   0.814
74762W        W46488   2.763  29.378   2.212
74763W        W46489   0.392  27.539  13.843
74764W        W46490  37.966  17.302   2.868
74765W        W46491  21.558   1.734   0.955
74766W        W46492  10.446  33.445   0.254
74767W        W46493  39.806  30.380  10.733
74768W        W46494  21.558  31.593   0.866
74769W        W46495  26.944  35.103  13.851
74770W        W46496  11.737  21.513  13.997
74771W        W46497  32.529   0.846  12.126
74772W        W46498  35.534  35.130   3.474
74773W        W46499  13.598  19.575  14.424
74774W        W46500  31.538  35.124   1.281
74775W        W46501  14.078  43.290   1.314
74776W        W46502   5.179   7.168  13.404
74777W        W46503  29.348  34.207   1.495
74778W        W46504  12.576  18.233  11.100
74779W        W46505  11.551  20.291  12.162
74780W        W46506  29.052  14.867   2.439
74781W        W46507  23.240  22.633  14.953
74782W        W46508  24.036  30.900   1.711
74783W        W46509  27.507   9.022  11.414
74784W        W46510   7.258  10.104  10.071
74785W        W46511  23.500  43.422  14.399
74786W        W46512  12.189  13.614  10.755
74787W        W46513  34.849   6.845   1.449
74788W        W46514  36.397  42.277   3.791
74789W        W46515   6.159  12.285  11.142
74790W        W46516  22.971  37.061   2.479
74791W        W46517  33.592  43.551   1.332
74792W        W46518  40.097  42.355  12.078
74793W        W46519  21.292   8.469   0.435
74794W        W46520  35.316  42.490   0.033
74795W        W46521  34.375  35.900   0.553
74796W        W46522  35.144  31.394   3.391
74797W        W46523  10.859  28.559  14.090
74798W        W46524  21.995  44.359  11.038
74799W        W46525  30.189   9.383   4.557
74800W        W46526  24.475  30.562  11.457
74801W        W46527   4.644   8.364  13.831
74802W        W46528  16.121  33.815   1.263
74803W        W46529  20.878   1.626   1.576
74804W        W46530  30.910  25.281   0.992
74805W        W46531  36.184  25.515   0.932
74806W        W46532  10.725   3.418   0.320
74807W        W46533  29.761  37.697   0.975
74808W        W46534  24.083  16.175  10.737
74809W        W46535  29.432  31.890  10.699
74810W        W46536  33.474  34.982  12.625
74811W        W46537  27.976  27.145  13.498
74812W        W46538   6.640  26.102   2.218
74813W        W46539  27.276  25.605  14.413
74814W        W46540  38.432   7.650  11.136
74815W        W46541   9.162   4.938   4.019
74816W        W46542   0.480  41.797  14.608
74817W        W46543  27.499  18.473  10.665
74818W        W46544  33.496  19.522   0.318
74819W        W46545   1.890  11.744   0.419
74820W        W46546  29.996  19.505   0.877
74821W        W46547   6.368  38.968   1.501
74822W        W46548  38.683  30.543  11.249
74823W        W46549   5.813   0.905   0.659
74824W        W46550  44.823  25.172   0.488
74825W        W46551   9.764  24.353   0.051
74826W        W46552  24.280  41.478   5.312
74827W        W46553  17.528  23.710   2.243
74828W        W46554  15.232  31.482  13.455
74829W        W46555   7.611   3.915   1.890
74830W        W46556  10.774  18.320   1.970
74831W        W46557  44.980   1.660  12.962
74832W        W46558  17.807  10.319   3.297
74833W        W46559  43.915  17.066   4.132
74834W        W46560   6.760  15.095   0.703
74835W        W46561  22.939  11.039  11.607
74836W        W46562  16.627  24.963  11.579
74837W        W46563   6.365  26.485   2.417
74838W        W46564  32.018   1.884   2.593
74839W        W46565  22.187   2.223  12.009
74840W        W46566  13.808  30.001  10.697
74841W        W46567  10.830  37.384   4.092
74842W        W46568  13.889  43.861   0.298
74843W        W46569  42.279  20.970   3.282
74844W        W46570  26.720   3.086  13.664
74845W        W46571   5.894  33.162  14.499
74846W        W46572  44.020   4.895   1.450
74847W        W46573  30.705  44.258  11.919
74848W        W46574  19.694  44.084  12.886
74849W        W46575  31.939   9.617  14.592
74850W        W46576  28.017  43.849  14.302
74851W        W46577  27.610  10.133   2.367
74852W        W46578  28.931  22.833   3.678
74853W        W46579  33.552  32.063   4.530
74854W        W46580  32.083  40.853   0.810
74855W        W46581   1.021   3.417  10.330
74856W        W46582  14.396  11.211   4.095
74857W        W46583  16.197   9.832   0.532
74858W        W46584   2.831  40.995   1.857
74859W        W46585  28.168  31.284   0.944
74860W        W46586   4.011  24.088  11.339
74861W        W46587  33.095  29.929  14.860
74862W        W46588  26.039  39.905  12.269
74863W        W46589  17.503  16.086   4.556
74864W        W46590  20.275  12.888   2.535
74865W        W46591  27.956  21.694  12.825
74866W        W46592   7.345  21.712  12.391
74867W        W46593  20.964   9.840   0.309
74868W        W46594  39.284  37.099   2.698
74869W        W46595  34.412   6.696   3.308
74870W        W46596  28.243  17.237  14.070
74871W        W46597  25.214  21.392  12.010
74872W        W46598  10.686   0.733  13.842
74873W        W46599  39.971  42.865  13.920
74874W        W46600  39.304  10.931  13.541
74875W        W46601   3.492  25.054   1.102
74876W        W46602  30.928  32.365  10.589
74877W        W46603   4.603  38.842  10.735
74878W        W46604  26.427  29.919  13.199
74879W        W46605  10.672  38.834   4.566
74880W        W46606  34.203  18.172   0.779
74881W        W46607   0.802  29.041  14.000
74882W        W46608  34.028   7.185   1.922
74883W        W46609   5.139  22.960  13.899
74884W        W46610  20.538  15.789  12.600
74885W        W46611  12.965  40.530   4.947
74886W        W46612  41.427  39.323   4.158
74887W        W46613  36.624  20.540  11.143
74888W        W46614  42.802  10.231   3.719
74889W        W46615   6.724  17.108  14.021
74890W        W46616  16.409  30.266   4.172
74891W        W46617  19.304  32.920  12.999
74892W        W46618   3.388   3.915  13.824
74893W        W46619   0.432  44.282   4.014
74894W        W46620   3.224   7.771  14.844
74895W        W46621  30.919  36.110  11.106
74896W        W46622  16.247  33.420   3.249
74897W        W46623   0.521  29.726  11.914
74898W        W46624  19.736   3.706  10.382
74899W        W46625  43.016   9.332   2.725
74900W        W46626   5.247  23.123   2.180
74901W        W46627   4.856   8.935   3.251
74902W        W46628  41.586  35.475   1.202
74903W        W46629  14.299   1.760   0.401
74904W        W46630  37.035  30.473  12.647
74905W        W46631  36.295  42.904   1.326
74906W        W46632  15.098  25.388   1.573
74907W        W46633  23.074   3.747   4.031
74908W        W46634  13.916  24.071  12.277
74909W        W46635   4.193  16.629   1.391
74910W        W46636  28.423  29.993  14.869
74911W        W46637   9.634   2.324   1.255
74912W        W46638  18.563  43.514   0.499
74913W        W46639   3.686  37.867   3.289
74914W        W46640  22.128   5.277  10.581
74915W        W46641  44.016   6.290  12.017
74916W        W46642  26.355   7.701  14.542
74917W        W46643   3.248  44.839   3.921
74918W        W46644  17.601  10.214  12.421
74919W        W46645  37.771  35.757  13.492
74920W        W46646  28.669  12.907  12.463
74921W        W46647  35.846  18.739  11.191
74922W        W46648  26.307  26.562   0.380
74923W        W46649  11.788  12.971   2.199
74924W        W46650  17.520  37.629  13.286
74925W        W46651  39.496   3.729   3.668
74926W        W46652  27.979  44.716  12.550
74927W        W46653  18.178  34.532  12.208
74928W        W46654  28.929   0.972  10.628
74929W        W46655  35.929  43.424  12.982
74930W        W46656  37.527  36.514   1.794
74931W        W46657  22.709   3.126   0.347
74932W        W46658  20.762  43.818   1.531
74933W        W46659  31.504   2.065   3.742
74934W        W46660  41.456  30.392   1.220
74935W        W46661  39.428   2.845   3.605
74936W        W46662  25.485  29.900  12.385
74937W        W46663  26.062  16.288   0.348
74938W        W46664  15.864   1.543  13.571
74939W        W46665  24.592  14.652  10.683
74940W        W46666  40.548   5.884   4.539
74941W        W46667   9.949   8.228   4.721
74942W        W46668  11.773  39.429  10.625
74943W        W46669  38.911  41.319   3.710
74944W        W46670  14.167  37.185   2.005
74945W        W46671   2.323  38.273  10.564
74946W        W46672  32.921  29.425   1.302
74947W        W46673  21.614  27.033   0.267
74948W        W46674  19.208  11.667  14.748
74949W        W46675  11.434  36.145  14.345
74950W        W46676  12.846  39.919  14.506
74951W        W46677  36.109   9.797  14.349
74952W        W46678   9.417  28.651   4.137
74953W        W46679   7.731  35.616   5.016
74954W        W46680  31.493   2.689   4.774
74955W        W46681  33.896  17.097   3.732
74956W        W46682   9.211  32.040   2.357
74957W        W46683  19.044  34.676  14.723
74958W        W46684  19.729  32.814   0.904
74959W        W46685  25.758  14.577   2.254
74960W        W46686  20.572   9.405  14.424
74961W        W46687  38.591   9.848   2.150
74962W        W46688  12.993  30.558  10.332
74963W        W46689  41.526  30.583  12.624
74964W        W46690  28.962  34.316  10.767
74965W        W46691  38.364  43.346   2.293
74966W        W46692  39.079  22.898  11.775
74967W        W46693  23.032  33.196  11.107
74968W        W46694  16.691  24.193   1.087
74969W        W46695  22.530  36.936   2.710
74970W        W46696  26.771  39.012  12.139
74971W        W46697  22.050  44.761   2.450
74972W        W46698  21.915  25.268   0.235
74973W        W46699  14.181  43.911  10.915
74974W        W46700  14.805  44.306  11.637
74975W        W46701  24.439  13.912  11.057
74976W        W46702   3.978  14.242   9.766
74977W        W46703  44.529  27.188   1.329
74978W        W46704  37.324   5.991  14.674
74979W        W46705   1.848  15.192   2.132
74980W        W46706  31.743  16.409   2.428
74981W        W46707   1.940  42.127  11.169
74982W        W46708  38.937  31.608   1.366
74983W        W46709   7.328   4.569  11.387
74984W        W46710  41.105   1.371  11.035
74985W        W46711   9.436   3.381  14.568
74986W        W46712  19.288  32.842   3.287
74987W        W46713  40.126  19.289  10.787
74988W        W46714  11.625   3.233  12.465
74989W        W46715  29.190  42.668  14.858
74990W        W46716  39.929  23.174   1.836
74991W        W46717  17.216   8.223  13.136
74992W        W46718  11.163  10.391   0.832
74993W        W46719  13.983  33.829   2.338
74994W        W46720   0.547   1.937  11.613
74995W        W46721  42.365   3.246  12.169
74996W        W46722  33.993   9.776  13.320
74997W        W46723  12.491  11.838  12.111
74998W        W46724  15.326  41.865   4.660
74999W        W46725  12.176  25.684  11.149
75000W        W46726  43.814  41.257  14.944
75001W        W46727   0.628  31.796   3.603
75002W        W46728  30.066  44.276   0.899
75003W        W46729  17.044   3.283  10.298
75004W        W46730  15.584  37.725   9.797
75005W        W46731  38.774   4.126   4.645
75006W        W46732   2.375  37.885   0.946
75007W        W46733   7.779  23.041  10.727
75008W        W46734  29.667  43.267   0.801
75009W        W46735   8.806   1.393  11.427
75010W        W46736   1.889  34.362  13.558
75011W        W46737  26.392  25.153  10.759
75012W        W46738  38.339  31.667  12.122
75013W        W46739  15.849  41.279   2.229
75014W        W46740   3.508  11.508   1.365
75015W        W46741   1.911  41.156  12.813
75016W        W46742  22.969  34.300   2.804
75017W        W46743  44.044  38.573   4.469
75018W        W46744   4.780  42.870  12.548
75019W        W46745   8.741   1.698  14.079
75020W        W46746   4.465  44.072  13.307
75021W        W46747   1.688  27.620   4.097
75022W        W46748  29.100  23.575  12.052
75023W        W46749   3.930  24.259  12.296
75024W        W46750  16.175  11.851   4.140
75025W        W46751   8.679  23.939   2.858
75026W        W46752  27.581  18.067   1.810
75027W        W46753  31.817  39.265   3.299
75028W        W46754  26.092  33.532   3.190
75029W        W46755  10.890   7.361   1.622
75030W        W46756  44.447  33.384   2.284
75031W        W46757  13.104  39.020  11.110
75032W        W46758  22.708  11.442   5.055
75033W        W46759  32.641  18.523   1.356
75034W        W46760   8.646  21.859  12.796
75035W        W46761  16.880  40.094  14.371
75036W        W46762   5.439  10.102   1.957
75037W        W46763   0.267  18.098  13.760
75038W        W46764  44.979  35.442  13.823
75039W        W46765  29.342  22.462   3.713
75040W        W46766  35.084  39.703  11.194
75041W        W46767  16.720   1.703  14.013
75042W        W46768  39.423  11.196   2.719
75043W        W46769  29.849  38.781   5.130
75044W        W46770  39.573   8.968  13.359
75045W        W46771  23.595   4.095  14.703
75046W        W46772   3.037  38.581  12.177
75047W        W46773  12.188  21.722  11.916
75048W        W46774  31.453  39.083   0.747
75049W        W46775   8.899  29.086  13.008
75050W        W46776  25.621  40.531   1.165
75051W        W46777  42.771  10.728   2.778
75052W        W46778  16.054  11.597   4.601
75053W        W46779   0.849   6.720   1.904
75054W        W46780   2.928  10.926   3.377
75055W        W46781  10.863  29.674  14.988
75056W        W46782  14.157  24.044   4.257
75057W        W46783  23.119  41.799   4.439
75058W        W46784  10.903  13.743  12.018
75059W        W46785   8.391  42.874   4.972
75060W        W46786   5.885  16.795  10.559
75061W        W46787  37.523  29.501  10.706
75062W        W46788  38.605  39.524   1.426
75063W        W46789  24.950  30.516   1.915
75064W        W46790  40.836  32.717   1.297
75065W        W46791  30.169   7.185   4.154
75066W        W46792  16.620  13.698   1.954
75067W        W46793  15.643   8.925  10.166
75068W        W46794  32.023  23.133  11.547
75069W        W46795   9.519  23.513   3.058
75070W        W46796   9.090  14.165  14.799
75071W        W46797   3.027   4.783   0.019
75072W        W46798  13.476  16.253   0.857
75073W        W46799  21.140  41.585  11.389
75074W        W46800  39.853  32.096   2.156
75075W        W46801  35.987  44.185   3.653
75076W        W46802  43.027   4.004   0.326
75077W        W46803   3.373  13.575   3.991
75078W        W46804   1.968  20.107   3.894
75079W        W46805  28.348  38.954   1.626
75080W        W46806  13.078  16.784  11.133
75081W        W46807   3.368  26.166  13.393
75082W        W46808  27.091  20.289  12.910
75083W        W46809  27.691  21.702  14.528
75084W        W46810  29.936  21.182  14.499
75085W        W46811  33.309   9.219   0.067
75086W        W46812   0.407  15.454   3.636
75087W        W46813  20.919  16.717  12.424
75088W        W46814  10.355  42.564   4.129
75089W        W46815   2.822  35.601  12.417
75090W        W46816  10.724  15.350   2.933
75091W        W46817  33.332   0.825   3.619
75092W        W46818   0.175  42.170   3.360
75093W        W46819   1.592  30.623  11.411
75094W        W46820  15.597   2.846   2.190
75095W        W46821  39.896  38.147  14.036
75096W        W46822  12.187  44.201  13.516
75097W        W46823   2.248   2.342   4.544
75098W        W46824   6.700  37.970  11.442
75099W        W46825  32.422   8.811   4.293
75100W        W46826  33.089  38.811   1.794
75101W        W46827  11.802  22.787   1.297
75102W        W46828   0.893  24.485   4.788
75103W        W46829   6.354  26.044   2.860
75104W        W46830  34.021  22.555   1.806
75105W        W46831  10.796  30.018   1.868
75106W        W46832  24.000   3.140   0.387
75107W        W46833  15.839  41.442   0.278
75108W        W46834  30.354  37.435  11.492
75109W        W46835  16.343  22.181   1.705
75110W        W46836  40.382  28.917   2.201
75111W        W46837  41.692   4.428   0.433
75112W        W46838   4.969  19.724  14.153
75113W        W46839  39.559  36.884  14.942
75114W        W46840  11.902  29.552  12.789
75115W        W46841  24.073   0.785   2.426
75116W        W46842  18.629  12.198  14.555
75117W        W46843   8.315   2.232   3.743
75118W        W46844  40.350  29.778  11.194
75119W        W46845  42.898   1.440   0.700
75120W        W46846  23.594  41.421   2.264
75121W        W46847   9.723  27.106  10.964
75122W        W46848   7.111  34.156  13.482
75123W        W46849  24.221  17.217   2.346
75124W        W46850  26.704  16.841   0.849
75125W        W46851  11.245  36.089  14.855
75126W        W46852  18.662  25.145   0.451
75127W        W46853  38.660  41.283   4.582
75128W        W46854  38.567   5.517   2.081
75129W        W46855  36.665   7.163  10.726
75130W        W46856  25.012  20.213   3.806
75131W        W46857  18.693   1.742  10.452
75132W        W46858  39.016  32.131   3.667
75133W        W46859  14.860  24.212  12.622
75134W        W46860  30.533   1.456   4.104
75135W        W46861  29.819  22.644   3.617
75136W        W46862  22.410   2.706   0.298
75137W        W46863  32.955  36.064   1.482
75138W        W46864  21.763   8.480   0.221
75139W        W46865  42.552  24.622   4.749
75140W        W46866  30.388   5.079   2.370
75141W        W46867  19.821  36.572  11.129
75142W        W46868   3.904  43.753   4.040
75143W        W46869   9.915  33.316   2.788
75144W        W46870  29.949  23.091   0.807
75145W        W46871  30.650   0.309   1.894
75146W        W46872  35.082  31.387   2.227
75147W        W46873  40.133  35.599   2.627
75148W        W46874   0.002  14.831   4.119
75149W        W46875  35.004  19.426   5.022
75150W        W46876   6.249  28.068  14.370
75151W        W46877  39.393  10.792   3.834
75152W        W46878   8.761  33.985   5.346
75153W        W46879   2.019  42.797  11.551
75154W        W46880  37.606  11.371   2.700
75155W        W46881  31.458   3.889   1.833
75156W        W46882  13.173  18.158   0.846
75157W        W46883  44.256  37.817   0.855
75158W        W46884  24.995  31.506   2.826
75159W        W46885  23.659  43.261   2.511
75160W        W46886  41.352   7.397   3.779
75161W        W46887  17.534  36.541  14.517
75162W        W46888  20.577  10.233   2.562
75163W        W46889  18.496  32.033   4.577
75164W        W46890  28.971  38.275  12.945
75165W        W46891  44.290   5.743   1.208
75166W        W46892  24.927   7.350   2.869
75167W        W46893   1.554  15.755   3.333
75168W        W46894  20.320   5.197  13.434
75169W        W46895  41.906  24.929   1.683
75170W        W46896   2.064   3.024  14.673
75171W        W46897  38.456  10.820  12.320
75172W        W46898   5.869  22.246   3.545
75173W        W46899  31.062  15.295  14.954
75174W        W46900  24.787  11.702   0.797
75175W        W46901  10.910   0.288   3.756
75176W        W46902   5.922   4.875   0.319
75177W        W46903  18.267  33.722  11.483
75178W        W46904  16.109  39.099  10.552
75179W        W46905   5.913  32.137  11.183
75180W        W46906  11.170  24.185   1.065
75181W        W46907  10.345  22.011   2.245
75182W        W46908   9.438   9.846  13.164
75183W        W46909  40.626  33.576   2.870
75184W        W46910  40.321  41.939   1.041
75185W        W46911  20.385  21.157   1.714
75186W        W46912  25.235  22.180  10.699
75187W        W46913  22.766  43.145   0.884
75188W        W46914  28.044  23.155   4.618
75189W        W46915  32.550  28.827   0.441
75190W        W46916  42.421  26.872  12.722
75191W        W46917   1.255  16.985  10.697
75192W        W46918  38.575  10.136   3.389
75193W        W46919  43.392   0.479   2.778
75194W        W46920  29.058   4.275  13.427
75195W        W46921  33.913  40.167  11.170
75196W        W46922   6.201  38.010  14.891
75197W        W46923  14.395  41.015   3.963
75198W        W46924  43.068  15.971  12.925
75199W        W46925  11.648  27.984  11.930
75200W        W46926  15.852  11.225  10.210
75201W        W46927   0.945  37.317  13.523
75202W        W46928  44.505  34.569  14.810
75203W        W46929  33.954  22.047  12.453
75204W        W46930  20.894  27.978  12.087
75205W        W46931   0.950  29.672   1.821
75206W        W46932  20.470  29.966  11.145
75207W        W46933  29.751  40.740  12.305
75208W        W46934  40.926  14.956  11.649
75209W        W46935   9.736  39.600   2.223
75210W        W46936  21.762   9.961  12.887
75211W        W46937  23.004   0.878   3.588
75212W        W46938  11.086   9.742   4.574
75213W        W46939  24.486  43.459   4.558
75214W        W46940  20.456  14.258  11.831
75215W        W46941  33.647  29.656  11.414
75216W        W46942  29.370  37.005   3.511
75217W        W46943   7.362  41.357  12.965
75218W        W46944  15.888  34.482   1.155
75219W        W46945  30.476   7.474  13.145
75220W        W46946   8.351  14.322  12.423
75221W        W46947  39.668   0.497   0.773
75222W        W46948  19.295  14.180  12.601
75223W        W46949  28.499  28.864  12.386
75224W        W46950  24.463   4.306  10.976
75225W        W46951  19.714  16.747  14.908
75226W        W46952  14.737  29.551   0.969
75227W        W46953  13.166   4.853   0.631
75228W        W46954  10.832   2.976   1.483
75229W        W46955   9.630   2.108   0.749
75230W        W46956   7.832  25.214   2.376
75231W        W46957  14.214  36.370   0.935
75232W        W46958  13.193  24.017  11.799
75233W        W46959  24.661  14.780   3.084
75234W        W46960  41.754  18.404   0.856
75235W        W46961  33.127  10.907  12.458
75236W        W46962  14.372  23.996  10.729
75237W        W46963  19.269  33.115  12.216
75238W        W46964   3.135  40.259   5.284
75239W        W46965   4.260  12.331   2.735
75240W        W46966   3.206   9.482   1.724
75241W        W46967   2.771  37.132  11.578
75242W        W46968  14.044  27.923  10.748
75243W        W46969  19.511  12.770  12.074
75244W        W46970   9.823  26.093   3.895
75245W        W46971   4.406  37.096  10.306
75246W        W46972  13.147  33.880  11.555
75247W        W46973  38.011  27.935  11.061
75248W        W46974  33.409  25.103  14.524
75249W        W46975  17.338  14.370   4.246
75250W        W46976  12.268  33.932   1.748
75251W        W46977  22.211  35.980   0.291
75252W        W46978  11.892  24.158  13.452
75253W        W46979   6.665  33.879  13.443
75254W        W46980  34.354   3.537   0.622
75255W        W46981   4.127  21.695   4.231
75256W        W46982  38.543  18.676   4.654
75257W        W46983  39.046  33.821   1.776
75258W        W46984   5.313  35.612  11.049
75259W        W46985  18.402  18.833  11.905
75260W        W46986   2.788   8.268   3.086
75261W        W46987  23.237  43.293   0.722
75262W        W46988  10.665  29.656  12.987
75263W        W46989  41.559  15.348  11.524
75264W        W46990  11.697  11.245   3.552
75265W        W46991  23.673  26.634   3.752
75266W        W46992  22.950  10.410  12.295
75267W        W46993  25.172   0.994   5.448
75268W        W46994   4.369  21.091  11.005
75269W        W46995  26.972  15.653   4.574
75270W        W46996  23.115  34.174   2.277
75271W        W46997  20.745  36.867   0.725
75272W        W46998   5.435   5.508  14.455
75273W        W46999   1.353  11.649   2.653
75274W        W47000   1.728  13.210  14.222
75275W        W47001  32.866  43.282   1.444
75276W        W47002  32.170   2.142   3.813
75277W        W47003  29.641  22.639  14.391
75278W        W47004  34.472  10.962   3.787
75279W        W47005  22.704  16.141  14.971
75280W        W47006   2.473   4.788   3.312
75281W        W47007   4.165  12.685   2.045
75282W        W47008  15.646   2.832   3.639
75283W        W47009   7.462  32.606  14.024
75284W        W47010  42.648  15.245   0.044
75285W        W47011  34.281  12.375  10.696
75286W        W47012  22.025   5.744  11.638
75287W        W47013   0.800  43.378  12.888
75288W        W47014  30.662  41.995   0.165
75289W        W47015   6.955   5.192  12.324
75290W        W47016  18.264   7.741   3.855
75291W        W47017  33.550  28.465   0.851
75292W        W47018  34.451  17.695  13.861
75293W        W47019  15.751  11.402  12.951
75294W        W47020  40.240   5.990  14.117
75295W        W47021   6.325  37.725  13.984
75296W        W47022   6.797  11.581  11.046
75297W        W47023   8.165   6.427   5.139
75298W        W47024  12.127  41.438   0.040
75299W        W47025  21.793  14.870   1.241
75300W        W47026  16.266   7.346   0.345
75301W        W47027  16.632   9.232   3.921
75302W        W47028  32.555  12.083  13.158
75303W        W47029  37.330  40.404  12.914
75304W        W47030  43.795  34.874  14.834
75305W        W47031  38.432  25.355   0.959
75306W        W47032  42.960   0.109  14.434
75307W        W47033  10.669  17.215   1.489
75308W        W47034   5.545   3.754  12.102
75309W        W47035  19.143  11.339   4.047
75310W        W47036  33.450  40.796   0.019
75311W        W47037  18.659  27.649   1.947
75312W        W47038  33.891  16.627  10.461
75313W        W47039  23.868  26.470   3.291
75314W        W47040  44.851  22.503  13.379
75315W        W47041  17.787  20.414  14.020
75316W        W47042  12.137  25.984  13.499
75317W        W47043   7.930  17.643   3.764
75318W        W47044  21.130   4.165   2.505
75319W        W47045  37.782  36.854   2.612
75320W        W47046  24.306  44.519  14.003
75321W        W47047  11.778  42.387   3.261
75322W        W47048  43.091   4.595   1.482
75323W        W47049  40.796  37.193   4.927
75324W        W47050   2.777  11.307   1.825
75325W        W47051   8.384  16.198  13.329
75326W        W47052  34.826  23.713   4.568
75327W        W47053  43.273  38.719   4.196
75328W        W47054  44.270  38.832  13.965
75329W        W47055   5.351  20.204   0.467
75330W        W47056  32.111  13.137   3.744
75331W        W47057  37.007   5.690   0.899
75332W        W47058   5.788  40.281   2.782
75333W        W47059  34.840  22.779  11.683
75334W        W47060  22.746  32.628   2.796
75335W        W47061  32.866  25.937   1.233
75336W        W47062  10.230  24.423   1.966
75337W        W47063  11.093  18.362  10.949
75338W        W47064  12.318   1.848   1.330
75339W        W47065   0.372  41.561  12.817
75340W        W47066  24.508  28.025   3.840
75341W        W47067   8.906   3.728   2.820
75342W        W47068  28.006   6.167   2.139
75343W        W47069   5.678  41.365  10.922
75344W        W47070  39.315  19.120   0.811
75345W        W47071  25.212  18.665   2.723
75346W        W47072  33.997   8.275   3.664
75347W        W47073  43.433   3.357   1.412
75348W        W47074   8.239  10.301  13.010
75349W        W47075  20.118  43.103  12.103
75350W        W47076  18.226   4.920  12.191
75351W        W47077  35.401  32.606  13.465
75352W        W47078   8.851  33.603   0.290
75353W        W47079  35.229  13.210   1.892
75354W        W47080  32.775  12.223   3.533
75355W        W47081   5.765  43.075   3.233
75356W        W47082  42.882  19.863   1.644
75357W        W47083  15.886  39.904  12.114
75358W        W47084  25.044  32.391  13.002
75359W        W47085   2.006  21.491  12.901
75360W        W47086   8.714   4.010   2.418
75361W        W47087  30.178  35.359  14.339
75362W        W47088  30.969   3.234  13.720
75363W        W47089  14.260  18.253   4.516
75364W        W47090   6.752  26.845   1.358
75365W        W47091  26.961  35.889  14.545
75366W        W47092  14.223  37.031  14.738
75367W        W47093  40.455  44.047  14.632
75368W        W47094  37.441   4.750  13.935
75369W        W47095  32.859   9.484   2.851
75370W        W47096   7.431   1.163  12.369
75371W        W47097  29.815  14.080  13.305
75372W        W47098  23.684  35.321  14.975
75373W        W47099  42.746  24.705  12.129
75374W        W47100   2.551  32.557  12.973
75375W        W47101  21.432  38.924   0.403
75376W        W47102   5.795  31.067  14.861
75377W        W47103   4.724  40.457   0.354
75378W        W47104   2.287  31.878   9.850
75379W        W47105  30.180  14.881  13.551
75380W        W47106  30.971   0.425  11.513
75381W        W47107   2.621  44.938  14.454
75382W        W47108  14.212  41.273  10.580
75383W        W47109   5.343  43.019  10.716
75384W        W47110  32.947  37.865   3.871
75385W        W47111  27.396  29.113   0.767
75386W        W47112   0.675  27.489  12.947
75387W        W47113  39.891  25.793  12.013
75388W        W47114  18.153  31.352   3.183
75389W        W47115  14.613  27.164   4.185
75390W        W47116  40.968   5.360  12.163
75391W        W47117  25.466   9.523  14.454
75392W        W47118   5.415  37.999  11.470
75393W        W47119  43.154  30.504   0.734
75394W        W47120  35.823  16.170  11.934
75395W        W47121   3.933  30.822  11.141
75396W        W47122  25.634  28.555   0.032
75397W        W47123   2.220  36.517   2.228
75398W        W47124  42.401  25.122   1.702
75399W        W47125   7.885  28.138  12.891
75400W        W47126   4.197  37.967   3.198
75401W        W47127   8.320  14.383  13.111
75402W        W47128  17.402   5.315   2.139
75403W        W47129  12.309   7.866   4.475
75404W        W47130  41.477  14.560  14.247
75405W        W47131   9.932  11.898  14.948
75406W        W47132   1.249  11.701   1.273
75407W        W47133  14.858   2.474  14.398
75408W        W47134  27.467  23.319  11.043
75409W        W47135   3.000   8.277  14.678
75410W        W47136   8.645   5.281   4.573
75411W        W47137  30.699  38.270  12.434
75412W        W47138  21.705  21.186  10.651
75413W        W47139   1.714  13.809  11.200
75414W        W47140   5.068  27.861  11.956
75415W        W47141   5.508  25.951  11.683
75416W        W47142   6.144  30.285   1.281
75417W        W47143   1.009  20.129  11.509
75418W        W47144  33.129  38.524  14.403
75419W        W47145  19.791  35.621   3.165
75420W        W47146   9.702  11.229   2.417
75421W        W47147  39.910  42.286   3.739
75422W        W47148  27.621  17.970  10.634
75423W        W47149  15.811   3.807   3.179
75424W        W47150  12.792  24.748  13.415
75425W        W47151  28.923  34.568   4.642
75426W        W47152  29.401  15.191  12.248
75427W        W47153  32.856  10.874   2.860
75428W        W47154  43.784  32.217   4.052
75429W        W47155   2.864  23.484  13.378
75430W        W47156  14.865   7.954   4.537
75431W        W47157  36.023  22.141  10.719
75432W        W47158  22.761  42.326  14.356
75433W        W47159  25.601   4.552   3.817
75434W        W47160  14.705  37.878   9.813
75435W        W47161  34.373  25.942   2.780
75436W        W47162  10.258  16.418   1.184
75437W        W47163  42.501   5.213   3.328
75438W        W47164  10.753  17.577  13.305
75439W        W47165  11.926  14.711  14.654
75440W        W47166   3.482  20.458  14.006
75441W        W47167   8.839   8.824   2.344
75442W        W47168  22.455  41.558   3.286
75443W        W47169   9.555  41.715  11.896
75444W        W47170   2.773   9.119  11.059
75445W        W47171  13.082  43.175  10.459
75446W        W47172   2.212  26.282  14.401
75447W        W47173  22.974  29.593   4.896
75448W        W47174  26.138  13.871   0.486
75449W        W47175  33.045   0.929   0.339
75450W        W47176   1.015  37.059  10.616
75451W        W47177   9.132  38.623   1.222
75452W        W47178  44.751  29.393  11.655
75453W        W47179  39.554   2.748  10.691
75454W        W47180   2.373  27.755  13.607
75455W        W47181  20.728  15.252   4.642
75456W        W47182  29.989  14.559  13.198
75457W        W47183  25.296  10.157   3.933
75458W        W47184  29.332  28.470  13.398
75459W        W47185  39.303  27.640   3.785
75460W        W47186  40.298   6.034  14.913
75461W        W47187   3.417  18.235   1.743
75462W        W47188  40.133   3.757   4.272
75463W        W47189   8.739   2.020   2.114
75464W        W47190   9.996  23.193  11.145
75465W        W47191  41.983   0.081   3.267
75466W        W47192  39.620  23.471  13.014
75467W        W47193  29.594  31.637  14.470
75468W        W47194  31.223  40.842  14.049
75469W        W47195  32.444  33.488  13.474
75470W        W47196  31.027  37.936  10.635
75471W        W47197   6.717  38.965  14.887
75472W        W47198  17.049  41.307  11.113
75473W        W47199  14.273  13.523  12.719
75474W        W47200   4.661  31.385   0.518
75475W        W47201  32.088  25.532   2.833
75476W        W47202   9.347   4.469   4.798
75477W        W47203   7.432  33.804  10.887
75478W        W47204  42.771  31.957  14.360
75479W        W47205  13.038  38.647  14.528
75480W        W47206  26.015  20.057   3.698
75481W        W47207  35.548   1.739  13.780
75482W        W47208   3.147   8.075  12.008
75483W        W47209  12.291  43.027   0.220
75484W        W47210  26.631  21.663   0.131
75485W        W47211   7.061  10.636   2.999
75486W        W47212  30.284  11.747  11.532
75487W        W47213  12.683   3.924  14.500
75488W        W47214  11.563  25.657  14.826
75489W        W47215  27.260  35.185  12.970
75490W        W47216   5.407  39.861  14.436
75491W        W47217   7.802  14.855   3.897
75492W        W47218  42.736  38.469   3.888
75493W        W47219  25.451  38.507  14.322
75494W        W47220  16.592   1.499  11.231
75495W        W47221  14.071   8.458   3.677
75496W        W47222  38.379  13.316   0.914
75497W        W47223  38.005  14.309   3.374
75498W        W47224  43.219   2.540   1.913
75499W        W47225  26.469  34.605   0.829
75500W        W47226  22.810  16.634  14.863
75501W        W47227  33.540   7.312   2.143
75502W        W47228  13.839  22.061  10.492
75503W        W47229  15.775  20.295  11.200
75504W        W47230   9.966   2.396  12.339
75505W        W47231  25.477   1.948   0.643
75506W        W47232  20.634  18.779   2.715
75507W        W47233  42.052  31.721  14.985
75508W        W47234  16.779   5.661  12.522
75509W        W47235  24.728   5.123   2.303
75510W        W47236   9.323   9.747  10.757
75511W        W47237  19.295  17.117   1.178
75512W        W47238   0.492  25.674   1.762
75513W        W47239  10.876  24.188   0.664
75514W        W47240  31.194  24.722   3.153
75515W        W47241   7.116  18.151   1.777
75516W        W47242  43.733  24.704  13.352
75517W        W47243  14.355  41.978  13.422
75518W        W47244  30.631  13.767  10.694
75519W        W47245   3.959   9.741   4.839
75520W        W47246  31.442   7.553   1.894
75521W        W47247  30.619  37.018   0.011
75522W        W47248  23.633  40.593  14.384
75523W        W47249   3.155  44.378  13.528
75524W        W47250  12.382  34.071  10.856
75525W        W47251   3.817  35.119   1.684
75526W        W47252   3.228   4.887   2.789
75527W        W47253   4.183   7.211   3.294
75528W        W47254   7.418   9.656   4.547
75529W        W47255  43.446  20.597  14.054
75530W        W47256  39.611   9.794   2.427
75531W        W47257   5.147   7.598   0.939
75532W        W47258  32.392  44.216   0.779
75533W        W47259  31.405  19.879  11.110
75534W        W47260  11.279  40.516   3.344
75535W        W47261  22.509  20.680  11.232
75536W        W47262  27.814  33.397   0.261
75537W        W47263   8.690   2.503   3.361
75538W        W47264  38.576  26.028  12.022
75539W        W47265  13.691  41.006  13.284
75540W        W47266  39.354  31.089  14.789
75541W        W47267  12.070  43.499   0.191
75542W        W47268  38.364  18.032  10.924
75543W        W47269  44.326   4.157   1.936
75544W        W47270  15.806  23.209   1.807
75545W        W47271   0.039  41.467  10.741
75546W        W47272  26.224  14.132  14.279
75547W        W47273   9.785  16.576   1.415
75548W        W47274  28.006  30.072   1.629
75549W        W47275  26.605  44.958   2.659
75550W        W47276  41.006  14.256  10.717
75551W        W47277   4.915   0.671  14.884
75552W        W47278  12.164  44.484  12.394
75553W        W47279  32.451  26.252   5.012
75554W        W47280  13.438  18.081  11.576
75555W        W47281   8.507   0.744  14.971
75556W        W47282  15.865  26.759  10.262
75557W        W47283  16.863  14.828  14.074
75558W        W47284  33.438   1.311  14.600
75559W        W47285   3.855  16.234   3.077
75560W        W47286  19.537  31.245   4.043
75561W        W47287  21.096   9.427  14.508
75562W        W47288  33.047  14.092  14.046
75563W        W47289  23.048  13.554   3.860
75564W        W47290  35.587  39.422   3.811
75565W        W47291  27.089  27.918   4.941
75566W        W47292  28.112  23.949   0.870
75567W        W47293  32.066  34.799   2.441
75568W        W47294  18.096  41.602   4.269
75569W        W47295   9.102  16.548  11.996
75570W        W47296  39.755  23.222   4.518
75571W        W47297  34.148  32.372   1.278
75572W        W47298  23.766  31.916  12.841
75573W        W47299  14.339  32.629  12.691
75574W        W47300  14.383   5.403  12.946
75575W        W47301  29.849  24.189   2.847
75576W        W47302  15.275  13.593   1.839
75577W        W47303   5.801  25.645   3.385
75578W        W47304  19.890  16.747   0.399
75579W        W47305  29.903  28.722   2.448
75580W        W47306   6.974  21.114  11.503
75581W        W47307   4.959  20.479  12.001
75582W        W47308  43.475   6.716  13.593
75583W        W47309  22.596   3.430  13.531
75584W        W47310  10.603  33.703  12.423
75585W        W47311   5.616  42.615   1.345
75586W        W47312  36.872  23.588  14.814
75587W        W47313   5.096  20.725  14.852
75588W        W47314  26.641  40.475  14.917
75589W        W47315   5.676  32.858  14.864
75590W        W47316   7.895   5.275   1.407
75591W        W47317  31.389  16.086   3.659
75592W        W47318   7.680  22.879   4.089
75593W        W47319   5.407  19.099  10.603
75594W        W47320  26.269  29.055  13.009
75595W        W47321  37.358   6.656  11.165
75596W        W47322   9.956  18.263   3.126
75597W        W47323  34.011  43.328  12.605
75598W        W47324  30.964  28.109  14.697
75599W        W47325  18.048  32.183   4.968
75600W        W47326  36.531  19.869  11.534
75601W        W47327  23.918  36.072  10.623
75602W        W47328  40.897  25.312   2.288
75603W        W47329  13.725   4.340  13.493
75604W        W47330   7.923  30.402   1.364
75605W        W47331  22.907   1.316   0.327
75606W        W47332  30.903  13.737   3.314
75607W        W47333  23.477   2.442  11.154
75608W        W47334  43.366   9.585   1.297
75609W        W47335  38.556  30.915  11.623
75610W        W47336  43.533  42.363  14.838
75611W        W47337  39.936   3.708   2.374
75612W        W47338  44.838  31.673  12.148
75613W        W47339  28.066  29.198   3.690
75614W        W47340   2.971  43.973   0.501
75615W        W47341  13.302  41.450  12.133
75616W        W47342  26.485  25.629  12.872
75617W        W47343  27.343  21.317  14.427
75618W        W47344  21.807  12.758  12.467
75619W        W47345  21.496  41.944   2.878
75620W        W47346  22.135  20.017   3.682
75621W        W47347  13.266  24.766  13.628
75622W        W47348  35.846  30.058   0.176
75623W        W47349  15.176  41.208   4.562
75624W        W47350   2.138  25.737  14.893
75625W        W47351  30.489  32.939   1.038
75626W        W47352  13.533  24.998   1.819
75627W        W47353   8.733  14.645  12.542
75628W        W47354  10.320  35.908   3.322
75629W        W47355   9.293   8.864   9.936
75630W        W47356  10.756  26.105   0.795
75631W        W47357   2.038  34.853  13.716
75632W        W47358  20.533   7.732  13.034
75633W        W47359  44.024  44.584   0.369
75634W        W47360   6.234  19.920  11.826
75635W        W47361  33.354  19.278   1.356
75636W        W47362   5.272  30.070  11.582
75637W        W47363  17.307   7.468  12.696
75638W        W47364  44.346   2.707  14.414
75639W        W47365   0.399  15.281  12.405
75640W        W47366  21.674  20.058   4.463
75641W        W47367  22.858  17.137  13.054
75642W        W47368   5.823  21.139   0.895
75643W        W47369   8.911   8.740  12.507
75644W        W47370  42.611  33.632  13.798
75645W        W47371  20.610  19.091  12.352
75646W        W47372  11.826  34.140  14.940
75647W        W47373  27.130  28.840  10.781
75648W        W47374  19.839  18.166   4.116
75649W        W47375  44.772  42.230   3.762
75650W        W47376  13.066   7.709  12.561
75651W        W47377  38.533  17.978   0.880
75652W        W47378  38.310  42.845  12.978
75653W        W47379  32.876  40.937   1.228
75654W        W47380  11.694  43.500   2.664
75655W        W47381  29.672  31.353  14.880
75656W        W47382  27.091  39.516   0.190
75657W        W47383  16.260   7.285  12.546
75658W        W47384  10.009  29.734   5.026
75659W        W47385   9.800  19.589  10.760
75660W        W47386  40.354  10.344   2.946
75661W        W47387  42.998  26.657   0.668
75662W        W47388  13.284   2.254   0.507
75663W        W47389   3.639   4.869  12.429
75664W        W47390  42.435  38.539  13.415
75665W        W47391  28.711  29.564  11.134
75666W        W47392   8.977  44.215   9.718
75667W        W47393   0.759  29.744  13.282
75668W        W47394  33.730  16.090   0.223
75669W        W47395   8.022   7.758  11.096
75670W        W47396  30.979  29.470   3.171
75671W        W47397  11.606  27.893  10.961
75672W        W47398   4.197  17.809  11.705
75673W        W47399  26.505  23.678   1.455
75674W        W47400  10.861   7.644  14.830
75675W        W47401  43.561  19.558   1.385
75676W        W47402   8.191  44.765  13.456
75677W        W47403  44.930  27.451  14.426
75678W        W47404  27.226  32.175  12.149
75679W        W47405  14.342  14.375  12.868
75680W        W47406  41.794   8.297  13.914
75681W        W47407  18.269   8.575   4.465
75682W        W47408  42.825  37.399   0.812
75683W        W47409  19.333   1.461  12.613
75684W        W47410  33.600  35.514   0.911
75685W        W47411   1.980  29.532   2.854
75686W        W47412  31.028   9.972  10.674
75687W        W47413  13.546  44.576  10.726
75688W        W47414  25.610  27.235   2.319
75689W        W47415  29.940   8.689   2.641
75690W        W47416  29.748  29.863  11.579
75691W        W47417  34.546  11.235  14.871
75692W        W47418   8.319  21.019   0.222
75693W        W47419  32.655   1.857  13.904
75694W        W47420  37.579  15.590   2.809
75695W        W47421  28.432   8.272   0.234
75696W        W47422   9.260  19.795  10.675
75697W        W47423  37.204  39.511   2.829
75698W        W47424  14.241  35.014   0.803
75699W        W47425  26.578   2.575  13.630
75700W        W47426  12.162  42.443   0.894
75701W        W47427  44.925  21.061  10.598
75702W        W47428  15.123  12.676  14.407
75703W        W47429  11.351  43.961   0.752
75704W        W47430  25.281  34.878   2.653
75705W        W47431  38.488  27.023  11.890
75706W        W47432  35.385  20.102  11.485
75707W        W47433  44.201  15.228   1.358
75708W        W47434  40.718  31.001  11.747
75709W        W47435  41.996  28.403   0.701
75710W        W47436  15.031   6.170   0.933
75711W        W47437   3.026   2.670   2.746
75712W        W47438   3.019  10.803  11.628
75713W        W47439  28.712  42.867  13.056
75714W        W47440  14.451  16.572  13.003
75715W        W47441   8.865   3.762   1.486
75716W        W47442  13.168  15.445  14.134
75717W        W47443  12.258  25.540   1.173
75718W        W47444  26.965   5.140  12.470
75719W        W47445  28.513  41.032  14.343
75720W        W47446   4.774  14.245  12.642
75721W        W47447  16.207  33.088  13.435
75722W        W47448  30.329   8.211   3.902
75723W        W47449  11.720  41.378  11.756
75724W        W47450  17.569  23.382   0.311
75725W        W47451  21.600  37.976   0.238
75726W        W47452  42.000   2.758   0.526
75727W        W47453  22.573  44.891   0.357
75728W        W47454  10.664  23.120  10.315
75729W        W47455   8.760  15.563  12.067
75730W        W47456  19.607  23.219   3.348
75731W        W47457  10.662  40.775   0.778
75732W        W47458  17.444  12.558  14.299
75733W        W47459   6.310  28.334  13.741
75734W        W47460  37.956  23.618  14.368
75735W        W47461  36.922   4.520  10.015
75736W        W47462  27.369  26.506   4.098
75737W        W47463  20.798   4.649  12.332
75738W        W47464  25.263   0.943   2.051
75739W        W47465  13.671  43.307   4.908
75740W        W47466  44.278   8.414  11.172
75741W        W47467  19.453  33.325  12.670
75742W        W47468  40.265  41.152  11.281
75743W        W47469  44.777  31.863  12.626
75744W        W47470   9.794  25.086   2.858
75745W        W47471  40.539  10.363   5.168
75746W        W47472  33.849  28.005   4.425
75747W        W47473  31.488  29.489   0.994
75748W        W47474   1.502  31.507   4.785
75749W        W47475  11.604  43.987   2.821
75750W        W47476   5.403  21.970  11.157
75751W        W47477  30.840   1.601  11.223
75752W        W47478   9.678  35.922  14.722
75753W        W47479   6.468  42.824   2.192
75754W        W47480  15.522   9.356   0.375
75755W        W47481  43.796  12.205  12.260
75756W        W47482  32.097  34.478  12.744
75757W        W47483   1.846  15.223   2.665
75758W        W47484  33.426   2.253  14.353
75759W        W47485  20.951  27.618   0.844
75760W        W47486  23.818  18.172  11.075
75761W        W47487  14.582  21.129  14.467
75762W        W47488  40.426  36.014   2.758
75763W        W47489  13.097  22.627   2.329
75764W        W47490  15.629  29.531   4.322
75765W        W47491  44.034  12.826   1.376
75766W        W47492  26.234  20.364  14.379
75767W        W47493  38.692   0.003   1.744
75768W        W47494   4.986  11.299  11.167
75769W        W47495  25.466  30.094  10.672
75770W        W47496  29.899  42.342   0.877
75771W        W47497  36.996  18.010  11.636
75772W        W47498  23.079   4.651  14.265
75773W        W47499  44.267  26.619   3.727
75774W        W47500  22.303  16.608  14.902
75775W        W47501  25.708  18.032   3.184
75776W        W47502  23.425  40.379  11.581
75777W        W47503   6.715  43.810  12.943
75778W        W47504  26.284  28.117  11.161
75779W        W47505  17.331  19.226   4.189
75780W        W47506  32.348   9.760   1.131
75781W        W47507  29.421  31.221   4.067
75782W        W47508  42.078   2.864  13.478
75783W        W47509   4.752  22.417  13.369
75784W        W47510   1.361  33.752   4.861
75785W        W47511  11.267  35.583  10.258
75786W        W47512  29.420  13.878   0.358
75787W        W47513  44.733  15.265   4.156
75788W        W47514  17.741  36.528  11.244
75789W        W47515  19.212  36.330   1.457
75790W        W47516   9.263  34.487  14.452
75791W        W47517  18.253  32.573   1.840
75792W        W47518  34.596  12.667  12.613
75793W        W47519   7.391  16.244   3.502
75794W        W47520  27.979  32.110  14.054
75795W        W47521  12.212  10.544  10.227
75796W        W47522   8.645  21.630  13.552
75797W        W47523   7.316  37.151  13.388
75798W        W47524  27.996  26.626  13.336
75799W        W47525  37.309  15.592   3.233
75800W        W47526   2.442  36.849  14.806
75801W        W47527  24.889  31.030  11.557
75802W        W47528  35.712   6.264   4.103
75803W        W47529  22.290  24.089  12.061
75804W        W47530   5.234  31.026   1.021
75805W        W47531  40.062  13.763   3.675
75806W        W47532  25.415   6.010   0.887
75807W        W47533  40.208   4.128   2.275
75808W        W47534  23.241  35.085   0.897
75809W        W47535  18.894   0.737   1.327
75810W        W47536  44.550   6.226   0.951
75811W        W47537   4.134  44.542  13.454
75812W        W47538   8.672  24.623   1.618
75813W        W47539  41.966  21.055   2.886
75814W        W47540   4.771  10.442  10.669
75815W        W47541  11.729  39.969   2.274
75816W        W47542  36.773  23.456  13.965
75817W        W47543  39.063  29.215  14.396
75818W        W47544  19.097  29.392   1.642
75819W        W47545  37.817  24.622  12.996
75820W        W47546  18.001  24.171   3.348
75821W        W47547  36.759  10.542   2.321
75822W        W47548  40.027   2.351   0.915
75823W        W47549  17.718  13.298  13.937
75824W        W47550  11.329   2.336  13.446
75825W        W47551   2.404  15.890  12.426
75826W        W47552  38.843  35.538   1.232
75827W        W47553  39.009  39.996   3.090
75828W        W47554   3.270   5.242  14.255
75829W        W47555  20.737  43.488  14.003
75830W        W47556  11.343  22.537   1.354
75831W        W47557  12.560  42.214  13.458
75832W        W47558   8.051   0.323  11.793
75833W        W47559   7.957  24.440   2.861
75834W        W47560  21.845  40.009   4.061
75835W        W47561  10.383  13.763  14.943
75836W        W47562  29.934   7.660   4.158
75837W        W47563  22.507  10.372   3.131
75838W        W47564   7.157  14.748   0.723
75839W        W47565   2.260   1.388  10.527
75840W        W47566  18.785   0.345  10.638
75841W        W47567   9.710  12.845  11.673
75842W        W47568   0.557  19.766  13.484
75843W        W47569   4.933  33.952  11.204
75844W        W47570  13.622  16.888   0.645
75845W        W47571  24.717  27.525  10.609
75846W        W47572   3.473  30.485   2.711
75847W        W47573  34.685  40.362   2.180
75848W        W47574  36.868  37.665   2.767
75849W        W47575  14.892   3.013  11.513
75850W        W47576  29.874  26.820  12.083
75851W        W47577  33.585  17.081   1.630
75852W        W47578  40.862  43.461  14.987
75853W        W47579  24.012  42.293  13.577
75854W        W47580  23.156  12.382   3.278
75855W        W47581  44.228  21.135  11.868
75856W        W47582  40.463  28.670  13.871
75857W        W47583   2.458  17.497   4.909
75858W        W47584   0.184  38.878   0.962
75859W        W47585  23.444  39.395  13.900
75860W        W47586   7.505  27.941  11.484
75861W        W47587  24.260  40.832   3.228
75862W        W47588  21.820  37.595  14.387
75863W        W47589  26.478  17.722   2.328
75864W        W47590   7.456  19.029  11.710
75865W        W47591  41.010  28.888   1.345
75866W        W47592   0.813  14.440  11.133
75867W        W47593   6.075  34.365   2.867
75868W        W47594  19.467  23.737  12.999
75869W        W47595  17.965  31.357   0.471
75870W        W47596  20.087  26.182   2.815
75871W        W47597  15.740  24.839  11.608
75872W        W47598  16.298  41.082  12.957
75873W        W47599   6.507  14.601  10.220
75874W        W47600  42.078  29.428   2.475
75875W        W47601   3.186  35.778   4.193
75876W        W47602  43.480   3.340   4.532
75877W        W47603  18.641  40.111  12.916
75878W        W47604  44.119  33.398   3.170
75879W        W47605  22.449  28.405   3.273
75880W        W47606   5.810  42.420  13.774
75881W        W47607  29.545   9.227  14.403
75882W        W47608  34.349  41.089  13.213
75883W        W47609  26.212   4.305   1.250
75884W        W47610  43.441   2.179  10.454
75885W        W47611   1.258  38.824  13.771
75886W        W47612  23.953  24.633  13.091
75887W        W47613  19.979  37.730  14.262
75888W        W47614  28.657  41.943  14.114
75889W        W47615  38.926  39.997  12.011
75890W        W47616  14.587  41.839  12.962
75891W        W47617  17.674  19.543   2.440
75892W        W47618  28.722  14.696  13.044
75893W        W47619  31.574  25.008   0.257
75894W        W47620  15.292  44.392  11.483
75895W        W47621  26.985  12.847   0.419
75896W        W47622   6.751  12.526   1.005
75897W        W47623  33.483  44.643   4.952
75898W        W47624  13.302  27.586   3.341
75899W        W47625  15.601  28.622   3.886
75900W        W47626  18.978  13.376   1.313
75901W        W47627  14.590  42.444  12.538
75902W        W47628  14.159  26.487  11.015
75903W        W47629   3.738  17.702   0.119
75904W        W47630  34.685  32.740   3.667
75905W        W47631  28.233  13.321   0.861
75906W        W47632   5.667  26.562  10.565
75907W        W47633  36.771  44.835   2.251
75908W        W47634  11.561   7.209   0.796
75909W        W47635   2.131  33.041   0.853
75910W        W47636   8.847  33.825  13.371
75911W        W47637  34.079  23.404  13.530
75912W        W47638  22.202  31.496   4.375
75913W        W47639   4.797  17.215   4.033
75914W        W47640  42.967   5.861  12.527
75915W        W47641  31.635  23.141   4.133
75916W        W47642  38.521   8.249  13.552
75917W        W47643  27.657  34.962  12.717
75918W        W47644  21.212   4.237  14.850
75919W        W47645  33.125  23.688   5.077
75920W        W47646  11.432  12.702   3.823
75921W        W47647   0.727  24.549  12.099
75922W        W47648  33.860   8.675  10.661
75923W        W47649  32.079   2.207  11.080
75924W        W47650  26.520  31.055   1.661
75925W        W47651   6.783  18.113   1.363
75926W        W47652  37.243  44.040  14.880
75927W        W47653  11.701  35.176   1.679
75928W        W47654  26.793  17.873   3.659
75929W        W47655  40.850  43.310   2.432
75930W        W47656   8.235  37.444  12.039
75931W        W47657  39.017   9.881  12.305
75932W        W47658  38.016  41.351  13.405
75933W        W47659  26.974  31.153  12.963
75934W        W47660  30.903  41.809  11.753
75935W        W47661  40.266  15.779  13.505
75936W        W47662  15.090  32.206   3.971
75937W        W47663  30.077   0.737  11.865
75938W        W47664  16.524  29.835  12.181
75939W        W47665  29.511   2.916   0.262
75940W        W47666  23.059  41.320  10.541
75941W        W47667   0.742  29.885  10.722
75942W        W47668  36.494  39.773   2.264
75943W        W47669  16.740  32.698   1.816
75944W        W47670  23.106  30.625  14.819
75945W        W47671  41.309  17.219   1.384
75946W        W47672  41.942   5.678   3.251
75947W        W47673   3.337  11.976   1.313
75948W        W47674  24.716  12.301  14.614
75949W        W47675   4.228   3.812   1.272
75950W        W47676  33.204  43.829   3.996
75951W        W47677  43.922  27.488  14.379
75952W        W47678  35.647  17.285   0.712
75953W        W47679  33.878  43.360   2.871
75954W        W47680  15.554   6.490  14.290
75955W        W47681  34.665  28.254   1.462
75956W        W47682  23.266   0.281   2.293
75957W        W47683  40.764  32.704  11.179
75958W        W47684  16.803  19.802   4.028
75959W        W47685  17.100  34.598   2.307
75960W        W47686   2.649  22.572   1.702
75961W        W47687  28.381   8.381  14.331
75962W        W47688  19.027  25.079  12.783
75963W        W47689  29.731  40.097   1.123
75964W        W47690  38.425   6.631  11.095
75965W        W47691  40.627  42.086   4.928
75966W        W47692  18.299   9.433   0.743
75967W        W47693  23.006  32.923  13.974
75968W        W47694  36.676  13.320   4.110
75969W        W47695  40.988  18.334   0.478
75970W        W47696  35.392  11.771  11.131
75971W        W47697   5.278  13.012  10.160
75972W        W47698   4.383  22.663  10.906
75973W        W47699  12.325  42.397  10.605
75974W        W47700  11.451  25.121  13.534
75975W        W47701  24.070   5.225   1.839
75976W        W47702  33.597   5.194   1.953
75977W        W47703  30.504   6.298  14.413
75978W        W47704  16.166   5.459   4.072
75979W        W47705  22.746  22.620   5.375
75980W        W47706  21.051  30.887  12.398
75981W        W47707  43.439  38.016   0.369
75982W        W47708  31.046   8.344   4.147
75983W        W47709  13.740  30.693  12.879
75984W        W47710  12.325   2.690  13.488
75985W        W47711  41.283  37.916  13.840
75986W        W47712  24.734   9.800  14.009
75987W        W47713  16.204  34.617   1.881
75988W        W47714   6.688  19.566   3.821
75989W        W47715  15.042  24.070  14.451
75990W        W47716  21.248  42.396   3.330
75991W        W47717  14.638  13.187  13.931
75992W        W47718  23.097  43.750   4.224
75993W        W47719  20.596  40.956   3.949
75994W        W47720  16.776  43.212  11.020
75995W        W47721   2.905   9.669  14.063
75996W        W47722  11.581  33.474  13.608
75997W        W47723  38.545  42.367  14.686
75998W        W47724   8.728  24.742  11.512
75999W        W47725  29.562  37.286   4.865
76000W        W47726   3.229   1.769   3.659
76001W        W47727  37.682  14.324  14.202
76002W        W47728  15.730  38.576  10.175
76003W        W47729  34.022  38.510  10.754
76004W        W47730   0.417   6.638   2.697
76005W        W47731  34.384  38.153   4.575
76006W        W47732  32.369  34.187  10.628
76007W        W47733   3.380  42.191   1.562
76008W        W47734   2.932  29.106  13.899
76009W        W47735  29.411  24.377  13.040
76010W        W47736  29.976  39.758  12.967
76011W        W47737  29.546  38.009   1.358
76012W        W47738  30.398   8.771   0.873
76013W        W47739  31.017  41.445   3.823
76014W        W47740  15.109  28.051  10.661
76015W        W47741  19.716  19.033  12.340
76016W        W47742   0.328  21.812   3.766
76017W        W47743  33.450  22.313  10.747
76018W        W47744  13.725   8.127  11.669
76019W        W47745  35.983  15.774   2.282
76020W        W47746   3.512   0.760  13.064
76021W        W47747   0.516   3.836   3.857
76022W        W47748  32.046  19.220  14.430
76023W        W47749  42.260  40.390  14.993
76024W        W47750  12.262  28.038   2.388
76025W        W47751  16.036  41.939  10.644
76026W        W47752   6.157  38.017  13.051
76027W        W47753  11.202   1.984   3.731
76028W        W47754   4.268   2.036   1.220
76029W        W47755  43.245  42.616  10.537
76030W        W47756  35.555  11.762   0.844
76031W        W47757  16.070  22.542  10.644
76032W        W47758  26.120   0.905  10.743
76033W        W47759  43.517  17.352  12.608
76034W        W47760  28.149  19.635  10.603
76035W        W47761  33.962   3.362   0.308
76036W        W47762  33.196  44.881  12.158
76037W        W47763   5.016  36.382  11.989
76038W        W47764  23.208  33.200   2.413
76039W        W47765  27.888  20.399   3.649
76040W        W47766  32.294  42.564  10.651
76041W        W47767   6.397  27.631  12.533
76042W        W47768  10.798  17.006  11.990
76043W        W47769  32.097  18.658  14.713
76044W        W47770   3.701   7.375  14.979
76045W        W47771   2.872  29.144   0.773
76046W        W47772  15.178   1.645  13.011
76047W        W47773  22.048  32.524  11.732
76048W        W47774   9.459  17.185   3.944
76049W        W47775   1.063  24.614  14.787
76050W        W47776  18.993   7.171   0.651
76051W        W47777  18.186   3.911   4.109
76052W        W47778  42.006  43.648   3.095
76053W        W47779  34.696   7.402  13.547
76054W        W47780  19.684  23.086  14.505
76055W        W47781   7.805  39.086   1.316
76056W        W47782  36.585  15.621   1.462
76057W        W47783  19.278  15.717   4.730
76058W        W47784  34.075   2.793   4.757
76059W        W47785  32.605   4.583   1.932
76060W        W47786  21.668  31.613   3.711
76061W        W47787  20.361   5.148  10.588
76062W        W47788  21.655  13.558   2.270
76063W        W47789   0.182  12.087   0.990
76064W        W47790  10.213  34.178  14.460
76065W        W47791  42.768  27.862  11.034
76066W        W47792  25.061   7.219   2.375
76067W        W47793  13.089  17.276   0.424
76068W        W47794   2.690  21.571  13.436
76069W        W47795  17.815   7.744   1.862
76070W        W47796  27.222  31.123  11.408
76071W        W47797  12.944   3.908   3.202
76072W        W47798  43.975  26.563  10.206
76073W        W47799  23.696   5.192  11.956
76074W        W47800  26.292  36.765   4.518
76075W        W47801  44.812  34.501   0.306
76076W        W47802  19.267  40.409   2.706
76077W        W47803  44.762  17.257  10.492
76078W        W47804  26.022  25.449  12.875
76079W        W47805  28.473  25.666  14.072
76080W        W47806  16.766   2.459  14.509
76081W        W47807  13.929   5.071  13.156
76082W        W47808   3.463  31.953   3.660
76083W        W47809  17.579   4.005   3.704
76084W        W47810  36.403  16.574   4.611
76085W        W47811  10.638  42.701  11.105
76086W        W47812  37.376  38.924   2.377
76087W        W47813  30.481  27.465  13.524
76088W        W47814  42.150  44.955  11.125
76089W        W47815   3.956  24.047  13.302
76090W        W47816  17.571  31.010   3.815
76091W        W47817  24.584  23.037   4.575
76092W        W47818  10.640  14.928   1.606
76093W        W47819   4.840  21.549  12.335
76094W        W47820   5.125  30.334   4.199
76095W        W47821  37.378  37.363  12.531
76096W        W47822  25.148   2.784  12.828
76097W        W47823  13.200  42.804  10.859
76098W        W47824  38.824   8.228  11.186
76099W        W47825  18.092  15.358   1.796
76100W        W47826  24.718  37.468   4.115
76101W        W47827  37.722  14.376   1.933
76102W        W47828  11.850   7.658   0.887
76103W        W47829  18.705   8.697  10.289
76104W        W47830  30.019   9.099  10.537
76105W        W47831  10.709  27.487   2.267
76106W        W47832  16.495   0.748  14.258
76107W        W47833  20.782  14.662  10.276
76108W        W47834  32.969  25.424  12.021
76109W        W47835  37.074  19.001  11.394
76110W        W47836  40.069  19.632   1.829
76111W        W47837  10.151  30.632   0.771
76112W        W47838   3.037  28.655   0.836
76113W        W47839  37.340  39.506   3.791
76114W        W47840   8.154   7.105  11.519
76115W        W47841   8.776  37.168   4.262
76116W        W47842  33.038   3.164   2.168
76117W        W47843   5.062  39.018   3.828
76118W        W47844   8.889  37.602   5.039
76119W        W47845   0.302  29.484  10.655
76120W        W47846  37.039  34.446   3.610
76121W        W47847  12.665  21.277  10.233
76122W        W47848   1.413  44.110  12.922
76123W        W47849  39.454  36.413  10.662
76124W        W47850   1.440  19.317  11.987
76125W        W47851  27.390  19.307   0.412
76126W        W47852   2.730   8.879   0.376
76127W        W47853  27.521  27.083  10.698
76128W        W47854  10.303  37.299   2.758
76129W        W47855   2.484  22.762  11.076
76130W        W47856   8.709  28.134  10.761
76131W        W47857  20.488  23.000   4.257
76132W        W47858   2.716  38.568   1.011
76133W        W47859  19.748  37.858   0.275
76134W        W47860  37.242  24.178  11.009
76135W        W47861  41.860  30.595   0.550
76136W        W47862  18.818   9.158   3.167
76137W        W47863  17.666  33.522   2.665
76138W        W47864  16.673  36.440   0.798
76139W        W47865   8.687  38.827   4.565
76140W        W47866   3.521  23.434   0.503
76141W        W47867   4.545  39.703  10.452
76142W        W47868  24.958  22.285   2.172
76143W        W47869  33.900  33.538   4.620
76144W        W47870  11.524  12.529   4.297
76145W        W47871  16.815  17.232   0.264
76146W        W47872  29.099  17.692  11.133
76147W        W47873  18.336   1.361  10.515
76148W        W47874  32.993  38.818  10.930
76149W        W47875  44.778   7.760  12.229
76150W        W47876  18.419  18.622   1.768
76151W        W47877  35.939   6.720  14.006
76152W        W47878  38.976  38.493   2.120
76153W        W47879  23.786   3.711   4.668
76154W        W47880  37.152  28.919   0.821
76155W        W47881  19.801  35.855  14.398
76156W        W47882  33.832  18.243  14.857
76157W        W47883  19.618   8.649  14.944
76158W        W47884   5.512  34.138   3.686
76159W        W47885  17.402  21.139   1.454
76160W        W47886  12.152  15.666  14.222
76161W        W47887  25.604  24.435   4.523
76162W        W47888  32.749  37.418  11.516
76163W        W47889  37.069   0.558  12.531
76164W        W47890  21.436  15.551   2.678
76165W        W47891   0.580  25.365   2.682
76166W        W47892  39.422  19.073   2.043
76167W        W47893   7.566  18.155   4.457
76168W        W47894  39.695   8.792   2.815
76169W        W47895  39.955  12.794   3.682
76170W        W47896  14.743  27.770  12.824
76171W        W47897  17.703  18.085  12.972
76172W        W47898  36.402  41.794  14.556
76173W        W47899  14.980  26.261   1.240
76174W        W47900  23.039  13.393   4.747
76175W        W47901  12.618   3.840  13.964
76176W        W47902  36.131  44.298   1.956
76177W        W47903  32.080  17.675  11.077
76178W        W47904  42.603  29.260   3.665
76179W        W47905   0.950  11.827  10.410
76180W        W47906   5.607   9.915   1.286
76181W        W47907  35.116   6.922   3.765
76182W        W47908   0.752   8.275  13.134
76183W        W47909   1.871   2.852  10.926
76184W        W47910  18.682  33.593   0.290
76185W        W47911  43.009  14.742   4.797
76186W        W47912   1.669   7.352   2.726
76187W        W47913  29.396   3.645  12.900
76188W        W47914  31.002  37.124  12.818
76189W        W47915  38.264   6.288  10.599
76190W        W47916  20.656  37.159   3.118
76191W        W47917   0.390  20.467   0.467
76192W        W47918  15.517  29.112  11.962
76193W        W47919   3.591  36.293  14.937
76194W        W47920   8.762   8.791   4.843
76195W        W47921  44.871  43.775   0.996
76196W        W47922  32.409  33.585   1.912
76197W        W47923   1.748  36.813   4.550
76198W        W47924  33.939  30.435   4.626
76199W        W47925  25.697  33.028   2.454
76200W        W47926  30.184  32.519   0.977
76201W        W47927  25.011   8.867   1.058
76202W        W47928   9.472  10.099   1.257
76203W        W47929  19.582   4.806   0.841
76204W        W47930  40.418  36.895   3.794
76205W        W47931  20.237   3.237   0.396
76206W        W47932  16.711  19.639  12.425
76207W        W47933  33.749  28.602   3.308
76208W        W47934  37.835  32.637   0.364
76209W        W47935  44.615  37.088  12.040
76210W        W47936  35.590  22.253  13.560
76211W        W47937   7.380  34.151   2.461
76212W        W47938  33.076  11.362  10.625
76213W        W47939  38.091  12.417  14.876
76214W        W47940  34.670  35.869   1.901
76215W        W47941  17.560  22.107  11.477
76216W        W47942  35.124  19.221  11.642
76217W        W47943  42.554  27.926  13.535
76218W        W47944  12.721  22.560  10.767
76219W        W47945  20.541  20.642   4.645
76220W        W47946  10.834  36.017   4.011
76221W        W47947  27.413   6.337   4.593
76222W        W47948  34.299  28.189  14.883
76223W        W47949  35.094  14.224   4.603
76224W        W47950  14.730  10.391   1.323
76225W        W47951  40.245  14.981  14.689
76226W        W47952  39.605   2.326  14.799
76227W        W47953  17.658  28.213  11.545
76228W        W47954  15.279  19.928  14.978
76229W        W47955  24.153  31.064   2.202
76230W        W47956  17.080  22.130  11.687
76231W        W47957  12.176  21.067   1.727
76232W        W47958  30.647  25.731  12.087
76233W        W47959  10.866  33.314   3.184
76234W        W47960  21.006  41.258   4.191
76235W        W47961  31.528  34.279   0.854
76236W        W47962  17.009  24.700  12.893
76237W        W47963   8.634   5.825   3.255
76238W        W47964   9.647   3.904   2.058
76239W        W47965  30.727  24.587  13.710
76240W        W47966   3.338   9.720  14.401
76241W        W47967   6.648   1.497   0.807
76242W        W47968   6.416  31.419  10.996
76243W        W47969   8.669  24.927   2.058
76244W        W47970  15.083  30.328   3.906
76245W        W47971  32.616   4.944   2.282
76246W        W47972  20.785  25.004   4.279
76247W        W47973  25.253  37.347  13.126
76248W        W47974  27.666  26.572  10.570
76249W        W47975   0.214   4.219   3.660
76250W        W47976  14.631   6.526  14.160
76251W        W47977  12.854  39.521   0.412
76252W        W47978  41.864   1.968  13.914
76253W        W47979  11.718   7.339   4.586
76254W        W47980  21.311   5.287  10.856
76255W        W47981  25.414  32.771   4.529
76256W        W47982   3.412  38.967  12.322
76257W        W47983  10.726  26.479  11.956
76258W        W47984  39.805  10.765  12.998
76259W        W47985  39.548  35.134   3.672
76260W        W47986   5.304  17.721  14.224
76261W        W47987  16.236  33.957  11.035
76262W        W47988   1.839  27.539  14.903
76263W        W47989  16.289   2.771  14.504
76264W        W47990  31.280  19.070  11.309
76265W        W47991  42.399  23.723   4.401
76266W        W47992   3.439  21.464   2.225
76267W        W47993   3.700  36.375  11.710
76268W        W47994  25.557   7.372  14.492
76269W        W47995   0.427  31.426  11.506
76270W        W47996  40.050  38.146  12.159
76271W        W47997   0.909  19.124  10.585
76272W        W47998   1.974  34.955   0.978
76273W        W47999  17.334  11.759   4.632
76274W        W48000  37.077  10.695   2.834
76275W        W48001  18.059  26.263   0.353
76276W        W48002  20.616  23.582   1.710
76277W        W48003  19.789  42.046   1.926
76278W        W48004   7.774  21.568  10.521
76279W        W48005   7.221  34.796   3.832
76280W        W48006   2.970  27.511  12.552
76281W        W48007  44.006  14.397  14.052
76282W        W48008  42.238   4.915  12.972
76283W        W48009  26.639  26.714   0.776
76284W        W48010  24.611   1.449   2.698
76285W        W48011  27.528  27.590  10.850
76286W        W48012   5.846  42.880   0.048
76287W        W48013  10.250   6.403   4.714
76288W        W48014  43.871  39.522   4.013
76289W        W48015   8.962  42.027   3.182
76290W        W48016   1.408  44.238   4.170
76291W        W48017  44.348  18.160   0.906
76292W        W48018   1.426   6.320  12.587
76293W        W48019   7.923   0.936   1.454
76294W        W48020  44.050   3.627   2.841
76295W        W48021   7.168  39.997  13.166
76296W        W48022  17.607   1.786   1.246
76297W        W48023   2.346  22.947   0.020
76298W        W48024  37.047  32.932   1.387
76299W        W48025  17.690  37.055   2.138
76300W        W48026  12.229  13.621  13.530
76301W        W48027  41.741   3.026   4.155
76302W        W48028  24.125  10.739  11.606
76303W        W48029   0.843   9.251  12.206
76304W        W48030  11.203  12.726   4.679
76305W        W48031  32.476  23.566   2.273
76306W        W48032  23.803   0.448  13.593
76307W        W48033  27.013  16.799   0.432
76308W        W48034  36.952  40.399   4.180
76309W        W48035  22.685  43.966  12.867
76310W        W48036   2.353  42.517  14.544
76311W        W48037  42.977   3.120   1.485
76312W        W48038  30.759  21.031   4.824
76313W        W48039  44.556   6.895   2.865
76314W        W48040   4.293   6.314  11.981
76315W        W48041  30.977  14.566   4.553
76316W        W48042   2.398   8.010   1.807
76317W        W48043  39.125  36.398  11.483
76318W        W48044  40.038  34.846  12.422
76319W        W48045  40.419  33.635   1.969
76320W        W48046  18.600   1.577   4.067
76321W        W48047  11.641  23.761   5.071
76322W        W48048  14.394  39.771  11.455
76323W        W48049  11.953  16.071   2.357
76324W        W48050  12.366  21.504   4.126
76325W        W48051  41.431  36.349  12.970
76326W        W48052  33.358   0.310  12.407
76327W        W48053   2.943  29.944  14.382
76328W        W48054  21.076  11.179   2.380
76329W        W48055   9.816  22.497   4.556
76330W        W48056  39.774  35.604   2.225
76331W        W48057   2.802  15.068   2.677
76332W        W48058  19.109  43.527   1.815
76333W        W48059  11.237   1.225   2.936
76334W        W48060  12.849  22.105  11.529
76335W        W48061  22.271   2.371   3.420
76336W        W48062  10.564   0.367  11.179
76337W        W48063  21.682  33.383  10.022
76338W        W48064  23.642  32.369   1.703
76339W        W48065   5.498  24.610  10.510
76340W        W48066  25.603  15.543   1.269
76341W        W48067  27.690  20.314   1.413
76342W        W48068  30.561   0.703  12.400
76343W        W48069  34.636  27.559  12.905
76344W        W48070  41.649  10.684   1.780
76345W        W48071  17.691  22.187  13.461
76346W        W48072  39.211  36.966  13.001
76347W        W48073  31.658  24.259  10.238
76348W        W48074  27.193   5.694  11.615
76349W        W48075  44.549   6.845  14.747
76350W        W48076  32.031  14.279   4.504
76351W        W48077  17.098  10.349  12.462
76352W        W48078   0.357  39.512  13.109
76353W        W48079  14.488  33.979   2.343
76354W        W48080  25.183  28.583   0.288
76355W        W48081   3.571   0.957   3.268
76356W        W48082  14.349  37.556   2.293
76357W        W48083  33.877   6.821  11.157
76358W        W48084  24.846  16.157   3.308
76359W        W48085   1.247  18.591  14.386
76360W        W48086  14.446   6.101  11.265
76361W        W48087  31.883  32.615   1.751
76362W        W48088  33.549  30.485   3.167
76363W        W48089  44.461  15.170  13.912
76364W        W48090  10.478   1.860  14.423
76365W        W48091  13.926  31.867  11.885
76366W        W48092   0.930  16.829  14.911
76367W        W48093   5.543   2.735  14.460
76368W        W48094  19.291  12.824   0.416
76369W        W48095   1.809  33.918  10.631
76370W        W48096  40.256   3.208  12.264
76371W        W48097  26.729  36.584  11.559
76372W        W48098  22.960   9.450  13.339
76373W        W48099  41.465  43.701   2.990
76374W        W48100  38.614  24.913   1.115
76375W        W48101  16.857   8.063   0.245
76376W        W48102  27.075   3.114  10.566
76377W        W48103   8.668  27.719   0.486
76378W        W48104  15.917   8.831  14.006
76379W        W48105  27.257   8.421   3.600
76380W        W48106  29.149  39.175   0.296
76381W        W48107  13.701  10.065   0.918
76382W        W48108  26.981  17.561   2.249
76383W        W48109  28.129   4.734   4.619
76384W        W48110  26.347  11.742  12.071
76385W        W48111  20.823   8.090  10.914
76386W        W48112  42.696  15.823   2.692
76387W        W48113  21.984  25.084   3.083
76388W        W48114   5.646  22.526  11.620
76389W        W48115  32.075  18.547  14.226
76390W        W48116  35.502  11.279   1.055
76391W        W48117   9.146   3.388  13.555
76392W        W48118  27.480  19.579   0.860
76393W        W48119  10.404  16.753  14.897
76394W        W48120   2.670  23.018   1.441
76395W        W48121  37.839   2.413  14.627
76396W        W48122  31.648   5.088  13.440
76397W        W48123  10.936  30.236   2.317
76398W        W48124  30.061   2.475  14.894
76399W        W48125  30.695  12.571  14.919
76400W        W48126  12.238  26.716  14.935
76401W        W48127  24.487   6.821   0.345
76402W        W48128  18.349  42.023   0.217
76403W        W48129   2.962  11.656  14.287
76404W        W48130  31.192  43.266  14.612
76405W        W48131  25.790  42.346   3.532
76406W        W48132  25.182  20.610  12.683
76407W        W48133   3.394  40.476   4.886
76408W        W48134  19.793  44.568  13.063
76409W        W48135  43.171  31.157   4.109
76410W        W48136  17.764  16.755  11.648
76411W        W48137  33.774   8.952  13.473
76412W        W48138  27.450   0.992  12.015
76413W        W48139  33.837   2.400   4.522
76414W        W48140  29.903  23.271  11.603
76415W        W48141   0.525  36.202  10.632
76416W        W48142  43.046  33.590  11.511
76417W        W48143  31.570  22.610   3.884
76418W        W48144  43.985  40.467   4.960
76419W        W48145   5.634   4.012  13.496
76420W        W48146  25.982   8.368   0.887
76421W        W48147  13.812  17.514  14.455
76422W        W48148  21.052  15.281  11.141
76423W        W48149  12.912  44.863   0.508
76424W        W48150  39.403  42.524  11.627
76425W        W48151  11.782  40.006   0.785
76426W        W48152  32.008  15.309   1.020
76427W        W48153   2.794  28.377   3.823
76428W        W48154   1.748  14.608   3.645
76429W        W48155   0.921  20.298   3.662
76430W        W48156   8.405  23.246  12.077
76431W        W48157  30.730   6.251   2.744
76432W        W48158  33.897  16.740   2.820
76433W        W48159   7.324  17.592   0.049
76434W        W48160  17.663  20.180  14.693
76435W        W48161  37.435   4.892  11.206
76436W        W48162  17.710  24.636  13.543
76437W        W48163  38.682  11.456   0.699
76438W        W48164  43.209   8.820   2.014
76439W        W48165  22.195   9.821   4.257
76440W        W48166  18.776   8.249   1.279
76441W        W48167   5.337  21.805   3.723
76442W        W48168  32.295   5.843   4.893
76443W        W48169  30.728   0.900  14.849
76444W        W48170  11.325  32.576  11.937
76445W        W48171  15.862   1.916  12.498
76446W        W48172  41.859  26.104   3.747
76447W        W48173  42.195  19.553  10.472
76448W        W48174  26.598   9.153  13.840
76449W        W48175  35.611  20.058   2.395
76450W        W48176   2.871   4.336   4.169
76451W        W48177  31.098  21.254  11.155
76452W        W48178  17.855  39.109   0.731
76453W        W48179  22.079  28.181  10.618
76454W        W48180  14.381   4.841  14.701
76455W        W48181  22.113   0.116   3.381
76456W        W48182   9.950  35.413  12.032
76457W        W48183  42.839  25.266  10.996
76458W        W48184  22.815  34.517   0.201
76459W        W48185  36.791  25.051   3.854
76460W        W48186  22.210  31.561  13.515
76461W        W48187  29.132  37.506  14.315
76462W        W48188  37.420  11.287  10.035
76463W        W48189  30.593  10.286  11.532
76464W        W48190  30.713  28.261  13.389
76465W        W48191  43.369  43.764  12.818
76466W        W48192   9.811  38.606   4.450
76467W        W48193  24.022  33.960  10.669
76468W        W48194  12.653  13.618  12.574
76469W        W48195  11.769  22.226   1.374
76470W        W48196  30.234  31.067  13.369
76471W        W48197  17.055  19.996   1.010
76472W        W48198  29.545  10.051   0.940
76473W        W48199  11.360   5.181  10.812
76474W        W48200   9.573  30.916   3.101
76475W        W48201  32.103  12.755  12.493
76476W        W48202  43.457   6.927  12.587
76477W        W48203  16.358  36.083  12.199
76478W        W48204   8.135  36.820   2.626
76479W        W48205  37.618   7.141  10.305
76480W        W48206  43.877  35.170  13.119
76481W        W48207  33.615  40.254   5.018
76482W        W48208  35.462   3.950   1.407
76483W        W48209  21.499  20.153  12.676
76484W        W48210   2.924  30.560   1.352
76485W        W48211  33.616  20.032   4.359
76486W        W48212  44.288  18.241  12.314
76487W        W48213  25.551  12.851  14.829
76488W        W48214  40.438  33.347   3.705
76489W        W48215  26.200  27.430   4.355
76490W        W48216  19.051   4.297  10.689
76491W        W48217  27.651   4.389   1.305
76492W        W48218  20.783  11.548  13.870
76493W        W48219  34.015   9.630   2.830
76494W        W48220   7.833  34.545   5.097
76495W        W48221  14.020   1.389   0.670
76496W        W48222   3.458  44.879   4.937
76497W        W48223   2.157  32.103   4.165
76498W        W48224  37.587  28.155   0.392
76499W        W48225  16.297   1.732  14.381
76500W        W48226  16.675  22.275   3.812
76501W        W48227  44.848  13.883  13.793
76502W        W48228  10.787   6.940   4.892
76503W        W48229  17.526  43.431  12.891
76504W        W48230  27.579  16.693   4.550
76505W        W48231   1.705  41.489  12.467
76506W        W48232  15.508  31.532   1.344
76507W        W48233  23.502  24.607  14.875
76508W        W48234   3.147   1.262   3.211
76509W        W48235   0.368  44.496   0.502
76510W        W48236  30.000  23.500  12.048
76511W        W48237  10.367   9.829   3.245
76512W        W48238  18.765  17.505  10.935
76513W        W48239  15.636  43.799  10.881
76514W        W48240  10.919  21.768  12.519
76515W        W48241  17.670  17.284   1.423
76516W        W48242  41.082  22.048  13.565
76517W        W48243  19.303  42.410   4.545
76518W        W48244  24.387  36.143  13.939
76519W        W48245  19.587   3.774  12.297
76520W        W48246  33.656   6.271  13.885
76521W        W48247  28.233  28.429  11.439
76522W        W48248   3.436  16.184   1.230
76523W        W48249  34.023  28.381   0.661
76524W        W48250  12.928  26.771  13.245
76525W        W48251  19.286   0.196  13.439
76526W        W48252   9.923  39.864  13.318
76527W        W48253  31.886  18.693   4.066
76528W        W48254  36.903  17.787  10.741
76529W        W48255   8.780  11.333   2.957
76530W        W48256   4.456  12.634   0.293
76531W        W48257  20.416  27.061  11.219
76532W        W48258  24.506  14.913  11.135
76533W        W48259   9.858   0.477  12.516
76534W        W48260  21.596  14.024  10.061
76535W        W48261   7.937   8.411   2.866
76536W        W48262  44.302  42.276  11.596
76537W        W48263   8.253  15.806   4.655
76538W        W48264  15.367  38.905  11.766
76539W        W48265  27.909  34.674  14.924
76540W        W48266  15.215  32.474   1.869
76541W        W48267  25.493  13.360  13.443
76542W        W48268  31.564  36.864  11.677
76543W        W48269   6.434   8.782  14.271
76544W        W48270   2.017  31.338   1.352
76545W        W48271  41.926  32.445   4.851
76546W        W48272  33.482   8.368   3.698
76547W        W48273  12.736  34.684   2.274
76548W        W48274   1.838  39.474  11.717
76549W        W48275  32.450  29.077   0.933
76550W        W48276  13.124  20.130   2.644
76551W        W48277  36.385  11.696   4.067
76552W        W48278  32.934  23.040   1.681
76553W        W48279  12.777  16.566   0.486
76554W        W48280  16.110   3.851   2.433
76555W        W48281   9.132  22.576  10.994
76556W        W48282   5.451  41.109  12.075
76557W        W48283   0.746  38.301  11.685
76558W        W48284  38.927   5.347  14.529
76559W        W48285  13.048   0.169  11.159
76560W        W48286  32.499   8.242   0.313
76561W        W48287  42.486  15.294  10.664
76562W        W48288  24.586   5.703  13.568
76563W        W48289  44.395   4.548   4.699
76564W        W48290  28.356   0.785   3.834
76565W        W48291  28.113  22.520   4.616
76566W        W48292  34.275  18.181   4.726
76567W        W48293   6.091  35.201  13.030
76568W        W48294  19.590  22.456  11.214
76569W        W48295   2.019  10.463   3.332
76570W        W48296   8.073   2.317  11.175
76571W        W48297   0.835  22.207   0.758
76572W        W48298  11.414  35.953  12.771
76573W        W48299  14.869  43.910   0.409
76574W        W48300  38.897  37.688  13.621
76575W        W48301  16.118  11.766  14.438
76576W        W48302  27.189   7.187  11.597
76577W        W48303  11.412  37.617  13.031
76578W        W48304  34.353  23.609  13.106
76579W        W48305  12.432  25.534   3.557
76580W        W48306  13.358   7.170   9.576
76581W        W48307  13.228  29.272  11.788
76582W        W48308  25.865  37.795   0.741
76583W        W48309  33.835  36.359  11.102
76584W        W48310  19.856  34.569   0.707
76585W        W48311  26.506  32.464  11.717
76586W        W48312  21.967  23.012  12.906
76587W        W48313  29.589  39.371  14.484
76588W        W48314  34.817  16.138  10.591
76589W        W48315  38.686  42.502  11.937
76590W        W48316   0.957   4.948  11.144
76591W        W48317  13.893  44.549   2.841
76592W        W48318  26.684  35.460   2.449
76593W        W48319   0.214  44.114   0.807
76594W        W48320  10.057  31.983  12.659
76595W        W48321   0.684  39.916  11.090
76596W        W48322  12.035  23.023   1.686
76597W        W48323  31.687  15.792   2.206
76598W        W48324  11.389   9.642   3.254
76599W        W48325  33.647  17.387  13.279
76600W        W48326   7.823   8.418  12.558
76601W        W48327   1.917  19.625   1.213
76602W        W48328  20.661  43.379  11.184
76603W        W48329  12.758  35.095  12.484
76604W        W48330  33.947  36.077  12.861
76605W        W48331  38.668  40.105  12.918
76606W        W48332  14.559  44.458  14.432
76607W        W48333  34.140  24.216   3.398
76608W        W48334  23.110  27.314  12.601
76609W        W48335  25.187  12.354   3.442
76610W        W48336  42.388  18.291  11.826
76611W        W48337  36.327  39.839   0.926
76612W        W48338  21.062   7.322  10.326
76613W        W48339  32.977  27.238  13.926
76614W        W48340  33.520  24.978   0.422
76615W        W48341  41.983  31.950   1.876
76616W        W48342  43.667   5.304  12.426
76617W        W48343   2.677  16.686   4.142
76618W        W48344  11.987  25.569   2.691
76619W        W48345  28.827  25.164  12.063
76620W        W48346  16.271  16.569  13.549
76621W        W48347  32.897   8.303  11.461
76622W        W48348  26.043  10.886   2.659
76623W        W48349  14.557  39.926  10.691
76624W        W48350  19.087  23.428  14.569
76625W        W48351  17.687   0.814   4.598
76626W        W48352   1.667  22.104   1.186
76627W        W48353   6.423  13.603  12.935
76628W        W48354  23.242  24.112  14.075
76629W        W48355  15.772   2.057  13.543
76630W        W48356  15.649  27.010   2.055
76631W        W48357  26.784  32.867   4.641
76632W        W48358  34.854  41.294   0.308
76633W        W48359  12.836  12.853  11.009
76634W        W48360  10.538  43.683  14.429
76635W        W48361  34.790  26.027   1.480
76636W        W48362  20.569  12.699   4.594
76637W        W48363  28.043  20.812  12.086
76638W        W48364  10.099  13.117  11.984
76639W        W48365  44.444  38.677   1.923
76640W        W48366  17.509  31.996   0.258
76641W        W48367   2.836  13.887   3.296
76642W        W48368   8.079  23.664   5.013
76643W        W48369  24.527   2.985   4.422
76644W        W48370  43.921  18.313   3.983
76645W        W48371  27.077  19.692   1.454
76646W        W48372   0.750  36.343  12.232
76647W        W48373   4.751   8.295   2.712
76648W        W48374  22.485  39.499   1.469
76649W        W48375   8.749  31.539  12.475
76650W        W48376  22.105  25.488   2.718
76651W        W48377  37.884  22.693  10.657
76652W        W48378  26.929  25.905   0.436
76653W        W48379  42.894  24.536  12.632
76654W        W48380  23.571  29.563  14.596
76655W        W48381  35.507  22.044  10.720
76656W        W48382  18.338  22.608   0.980
76657W        W48383  42.784   2.294   1.864
76658W        W48384  26.661  27.241  10.495
76659W        W48385  33.469  28.471  13.424
76660W        W48386  41.031  34.286  14.391
76661W        W48387  29.890  20.682  14.552
76662W        W48388  42.149  42.993   0.175
76663W        W48389  34.870   6.156  12.778
76664W        W48390  42.020   1.440  12.442
76665W        W48391  18.552  42.406   1.884
76666W        W48392  44.159  25.693  12.977
76667W        W48393  16.239  15.886   3.184
76668W        W48394  25.632   9.648   3.110
76669W        W48395   6.339  31.197   0.476
76670W        W48396  31.468  10.853   1.821
76671W        W48397  41.391  32.319   0.937
76672W        W48398  17.511  28.921  12.064
76673W        W48399   6.819   3.825  12.734
76674W        W48400   7.029  38.414  13.841
76675W        W48401  13.362  16.730  11.552
76676W        W48402   7.265  10.389  11.164
76677W        W48403  19.295  13.768   1.247
76678W        W48404   4.380   5.740  10.724
76679W        W48405  26.001  22.253   1.263
76680W        W48406  31.808  44.134   9.837
76681W        W48407  42.680  19.609   3.643
76682W        W48408  22.969  40.012   1.395
76683W        W48409  22.792  19.370  12.522
76684W        W48410   1.840  31.707   3.594
76685W        W48411  15.391   6.227   4.505
76686W        W48412  38.429  41.192   3.116
76687W        W48413  40.683  22.633  14.962
76688W        W48414  13.812  29.613   3.297
76689W        W48415  21.762  36.323   4.897
76690W        W48416   0.494  33.393   1.548
76691W        W48417   6.170   0.935  11.608
76692W        W48418  13.789  38.883   1.112
76693W        W48419   8.292  16.087  11.521
76694W        W48420  17.228  40.640  12.545
76695W        W48421   6.178  33.864  10.724
76696W        W48422  25.379  11.210  10.775
76697W        W48423  40.659   1.956  14.404
76698W        W48424   8.075  32.776   3.703
76699W        W48425  34.128  34.159   1.513
76700W        W48426  35.824  36.767  11.714
76701W        W48427  41.305  42.933  14.216
76702W        W48428   6.709   6.687   5.014
76703W        W48429  12.472  36.985   1.209
76704W        W48430  25.156  28.697   1.654
76705W        W48431  24.627  25.683  11.886
76706W        W48432   2.210  13.539   1.472
76707W        W48433  30.702   2.295   3.646
76708W        W48434  25.982  21.769   4.127
76709W        W48435  42.002   1.669   4.608
76710W        W48436  38.494  24.575  12.379
76711W        W48437  44.838  28.566   0.810
76712W        W48438  30.463  15.339   4.614
76713W        W48439  19.042  28.580   2.087
76714W        W48440   1.216  32.626  11.137
76715W        W48441  14.095  29.381   5.115
76716W        W48442   8.464  21.062   1.697
76717W        W48443  29.288   5.160  14.959
76718W        W48444  26.381  32.058   0.389
76719W        W48445   1.275  36.240   3.764
76720W        W48446  28.244  27.991  13.023
76721W        W48447  41.113  16.607  12.861
76722W        W48448  34.718  44.296  11.238
76723W        W48449  36.938  39.018  11.581
76724W        W48450  40.719  15.148   0.241
76725W        W48451  17.493  40.224   5.057
76726W        W48452  43.233  11.978   1.012
76727W        W48453   4.014  29.270   1.813
76728W        W48454   2.979  17.108   4.111
76729W        W48455  44.022  28.640   1.152
76730W        W48456  31.106  26.500   3.791
76731W        W48457  37.625  18.343   0.838
76732W        W48458  22.136  15.605  10.498
76733W        W48459  16.740  34.397   3.766
76734W        W48460  28.833  24.059  10.893
76735W        W48461  38.077  42.945  14.014
76736W        W48462   0.759   3.825   2.132
76737W        W48463  32.566  32.799   0.910
76738W        W48464  33.143  16.604   4.044
76739W        W48465  24.613  13.553   1.293
76740W        W48466  16.800  19.108  12.117
76741W        W48467  36.487  32.580   1.833
76742W        W48468  12.420  15.036   4.339
76743W        W48469  42.738   9.625  12.889
76744W        W48470  19.633  25.079   1.882
76745W        W48471  44.975  26.054  13.037
76746W        W48472   2.102   3.438  14.349
76747W        W48473   6.815  13.509  11.090
76748W        W48474  43.654  14.913  11.173
76749W        W48475  29.402  39.535  13.125
76750W        W48476  12.490   6.125  14.016
76751W        W48477  10.695  14.534   4.306
76752W        W48478  37.612  37.831  12.463
76753W        W48479  14.270   3.032  14.925
76754W        W48480  34.201  37.886  14.806
76755W        W48481  22.284   0.314   0.388
76756W        W48482   7.115  18.981  14.666
76757W        W48483  15.591  13.851  12.506
76758W        W48484  10.491   5.452  13.908
76759W        W48485  41.904  11.883  14.733
76760W        W48486  18.579  39.336   4.634
76761W        W48487  37.930   2.198   1.771
76762W        W48488  41.311   2.260   4.162
76763W        W48489  15.373   1.124  10.738
76764W        W48490   4.271  12.209  12.565
76765W        W48491  16.629  42.546   3.076
76766W        W48492   2.148   5.026  12.353
76767W        W48493  14.582   6.764   0.710
76768W        W48494  13.706  39.873  12.600
76769W        W48495  22.281  34.416   0.299
76770W        W48496   7.328   6.007   2.172
76771W        W48497   3.714  10.433   0.955
76772W        W48498  19.260   4.288   3.632
76773W        W48499  20.975  32.660  13.557
76774W        W48500  41.426  36.857  11.166
76775W        W48501  12.764   3.695  14.957
76776W        W48502   5.641   7.790   5.194
76777W        W48503  15.069  32.733   0.782
76778W        W48504  30.401   3.186   1.744
76779W        W48505  31.642   8.279   4.633
76780W        W48506  39.976   6.679   4.601
76781W        W48507  38.564  18.221  14.346
76782W        W48508  16.987  27.072   0.500
76783W        W48509  24.949   3.437   2.825
76784W        W48510  21.143  26.209   9.923
76785W        W48511  43.578  15.925   0.097
76786W        W48512  39.476  39.612   1.504
76787W        W48513  38.119  12.201   4.347
76788W        W48514  40.337  22.059   3.734
76789W        W48515  38.877  12.208   0.293
76790W        W48516  25.010  44.923   2.852
76791W        W48517  16.179  44.423   1.290
76792W        W48518  32.944  36.531   1.871
76793W        W48519  15.937  43.345   1.792
76794W        W48520   0.761   0.650  14.943
76795W        W48521  41.951  28.786  12.411
76796W        W48522   6.979  25.466   0.321
76797W        W48523  27.917  10.843   3.182
76798W        W48524  22.150  44.602   3.452
76799W        W48525  44.671  31.902  11.713
76800W        W48526  35.912  27.437  11.470
76801W        W48527  18.694  39.043  14.414
76802W        W48528  37.685   1.391   3.296
76803W        W48529  32.168  28.701   3.512
76804W        W48530   1.371  32.131  12.280
76805W        W48531  29.970  12.847  12.968
76806W        W48532  23.823  15.547   4.525
76807W        W48533  40.388  20.192  12.718
76808W        W48534  33.767   9.246  11.854
76809W        W48535  20.200  12.637   0.694
76810W        W48536   6.641   0.626  14.505
76811W        W48537  35.319  20.744   4.638
76812W        W48538  11.598   9.484   0.249
76813W        W48539  27.468  37.062  10.695
76814W        W48540  39.432   9.778  11.930
76815W        W48541   6.234  17.686  10.880
76816W        W48542   4.857  38.555  13.535
76817W        W48543  26.873  32.118  12.522
76818W        W48544  11.813  33.073   2.777
76819W        W48545  38.066  38.853   4.505
76820W        W48546  16.548   5.205  13.965
76821W        W48547  33.443  41.699  14.529
76822W        W48548   3.551  17.741   3.702
76823W        W48549  16.079  27.450  11.939
76824W        W48550  27.471  44.398  14.722
76825W        W48551  18.783  32.255  10.295
76826W        W48552  18.560  42.816   0.846
76827W        W48553  21.811  30.581  12.910
76828W        W48554   1.977  13.682   0.208
76829W        W48555   2.260   9.662  11.529
76830W        W48556  29.729  12.201  12.167
76831W        W48557   8.146   8.379  11.719
76832W        W48558  22.483   2.461  11.076
76833W        W48559  42.448   6.122  11.521
76834W        W48560  29.647  15.017   2.752
76835W        W48561  41.220  43.105  13.738
76836W        W48562  27.001  40.429   1.991
76837W        W48563   1.908  40.964   3.465
76838W        W48564   5.357  40.430   2.544
76839W        W48565  11.024  44.896   4.111
76840W        W48566   5.643   0.509  14.214
76841W        W48567  40.015  31.961  10.510
76842W        W48568   8.124  33.962   1.407
76843W        W48569  26.991  37.268   2.260
76844W        W48570   6.401  23.758  14.319
76845W        W48571  21.498  32.893  14.461
76846W        W48572  11.196  11.297   3.680
76847W        W48573   8.229  28.499  13.376
76848W        W48574  34.141  17.300  13.085
76849W        W48575  20.799  35.463   1.142
76850W        W48576  44.892  23.038  13.340
76851W        W48577  43.703  32.921   4.453
76852W        W48578   7.826  35.533  10.217
76853W        W48579  40.589  38.272  14.027
76854W        W48580   1.474   1.855  11.671
76855W        W48581  32.056  42.063   2.362
76856W        W48582  42.484   7.280   1.879
76857W        W48583   0.386  13.474   3.289
76858W        W48584  24.258  21.916  12.855
76859W        W48585   5.665  39.561   4.590
76860W        W48586  10.901  15.827   0.693
76861W        W48587   8.148  34.141   0.893
76862W        W48588  23.346  14.260  13.149
76863W        W48589   3.545  11.017   1.470
76864W        W48590  29.212  37.510  14.885
76865W        W48591  40.284  25.639  14.939
76866W        W48592  31.884  17.618   3.234
76867W        W48593  24.419  21.945  14.888
76868W        W48594   9.399  43.548   4.130
76869W        W48595  13.285  44.386  12.472
76870W        W48596  12.448   3.261  14.323
76871W        W48597  17.065  10.164  14.224
76872W        W48598  15.687  42.221   2.333
76873W        W48599  23.848  14.480   5.038
76874W        W48600  26.205  23.978  12.025
76875W        W48601  30.630  36.084  10.687
76876W        W48602  32.647  19.360   4.140
76877W        W48603   1.719   0.858  13.722
76878W        W48604   5.214  16.781  12.988
76879W        W48605   2.066  21.584  14.812
76880W        W48606  41.130  17.602   2.713
76881W        W48607  32.415  41.585  13.183
76882W        W48608  13.134  21.228  11.946
76883W        W48609  32.105   5.311   4.803
76884W        W48610  19.314  41.932   3.271
76885W        W48611  35.139   9.806  12.828
76886W        W48612  13.256   8.917  14.015
76887W        W48613  34.388  24.739  12.757
76888W        W48614  15.635  34.649   4.341
76889W        W48615  14.720   3.293  13.882
76890W        W48616  28.546   4.827   1.752
76891W        W48617  29.118  44.945  14.043
76892W        W48618  38.962  15.650   1.783
76893W        W48619  29.555  24.771   2.856
76894W        W48620  22.386  41.964  11.115
76895W        W48621   9.626   3.370  11.422
76896W        W48622   2.450  28.078   1.156
76897W        W48623  28.571  12.176  11.019
76898W        W48624  23.622  25.983  12.476
76899W        W48625   1.184   9.742  14.861
76900W        W48626  14.412  12.993  11.400
76901W        W48627   9.628  19.488  11.611
76902W        W48628   0.335   9.686   4.394
76903W        W48629  40.586  11.658  14.411
76904W        W48630  13.015   7.387  11.976
76905W        W48631  28.104   6.197  12.027
76906W        W48632  36.092  22.138   1.446
76907W        W48633  39.537  43.055   0.454
76908W        W48634  29.183  28.715  13.810
76909W        W48635   2.529  40.869  13.956
76910W        W48636  42.091  14.291   4.366
76911W        W48637   9.214  40.282   1.761
76912W        W48638  37.367  27.483   2.709
76913W        W48639  39.502  43.062   0.981
76914W        W48640  40.531  15.987   1.671
76915W        W48641   2.745  15.131  10.671
76916W        W48642  29.861  11.397  12.284
76917W        W48643  43.277  12.756   2.812
76918W        W48644  32.656  36.995  14.815
76919W        W48645   3.001  37.550   2.255
76920W        W48646  11.143  15.797   0.233
76921W        W48647  44.367  19.621  12.082
76922W        W48648  44.986   1.284   4.252
76923W        W48649  12.869  15.590   1.346
76924W        W48650  28.331  30.104   1.217
76925W        W48651  42.395  14.358   3.385
76926W        W48652   3.867  33.414  10.679
76927W        W48653  17.418  33.525   5.233
76928W        W48654  43.045  43.045   1.863
76929W        W48655  35.316  11.416   1.562
76930W        W48656   5.411  24.647   0.430
76931W        W48657  10.270  24.668  13.884
76932W        W48658   8.595   3.989  12.763
76933W        W48659  28.922   1.513   1.843
76934W        W48660  38.274  33.060   4.070
76935W        W48661   0.667  22.995  10.771
76936W        W48662  16.142  16.984  10.980
76937W        W48663  34.440  26.164  11.557
76938W        W48664  17.125  27.916   2.321
76939W        W48665  11.412  38.260   3.169
76940W        W48666  41.051  30.174   0.970
76941W        W48667  36.401   2.998  11.920
76942W        W48668  37.003  21.230  13.560
76943W        W48669  34.986  12.375  12.426
76944W        W48670  30.731  36.040   2.250
76945W        W48671  30.347  30.655  12.019
76946W        W48672  22.966  21.218  10.796
76947W        W48673   9.861  27.909   3.842
76948W        W48674  18.267  36.855   3.379
76949W        W48675  33.459  11.722   2.336
76950W        W48676  13.590  15.552  14.870
76951W        W48677  11.094  22.512  12.006
76952W        W48678  33.877  36.526   1.830
76953W        W48679  24.485  18.319  12.116
76954W        W48680  28.880  37.916   2.685
76955W        W48681  26.619  29.564  13.808
76956W        W48682  29.502  17.063   5.025
76957W        W48683  31.010   7.320  12.999
76958W        W48684   4.080  17.059  10.709
76959W        W48685  18.521  17.586   0.933
76960W        W48686  32.416  15.764   0.381
76961W        W48687  23.540  34.348  12.083
76962W        W48688  37.337  21.657   1.268
76963W        W48689  24.104  38.058   2.357
76964W        W48690  41.917   5.977  12.437
76965W        W48691  41.928  43.909  11.107
76966W        W48692  15.550  18.224  13.815
76967W        W48693  40.102  43.884  14.300
76968W        W48694  10.062  21.303   3.729
76969W        W48695   7.298   2.773   0.052
76970W        W48696  16.613  35.830  12.919
76971W        W48697  21.772  28.226   3.627
76972W        W48698  26.110  35.487   4.078
76973W        W48699  25.844  25.201   4.133
76974W        W48700  37.502  33.636  14.511
76975W        W48701   9.666   8.949  13.524
76976W        W48702  37.103  22.732   3.677
76977W        W48703  43.789  19.791   2.146
76978W        W48704  35.852   3.048   4.116
76979W        W48705  34.386  39.389  11.052
76980W        W48706  13.050  11.617   2.165
76981W        W48707   7.745  12.662   0.481
76982W        W48708  21.845  21.429  14.863
76983W        W48709  36.167   2.185  13.388
76984W        W48710  23.270  27.099  10.771
76985W        W48711  16.305  40.472   4.557
76986W        W48712  24.067   1.037  11.538
76987W        W48713  20.766  10.319   0.312
76988W        W48714  34.190  35.103   4.979
76989W        W48715  40.695   3.248   2.824
76990W        W48716  18.667  44.783   1.830
76991W        W48717  22.989  18.659   3.869
76992W        W48718  21.343   7.226  13.892
76993W        W48719  26.318  25.008   3.994
76994W        W48720  41.304  36.210   2.596
76995W        W48721  21.028  17.236  12.402
76996W        W48722  28.204  11.399   2.296
76997W        W48723  12.808  31.869   0.351
76998W        W48724  26.645  28.559   4.172
76999W        W48725  29.723   1.880   0.714
77000W        W48726  42.480  19.124  10.450
77001W        W48727  20.999  27.159  12.507
77002W        W48728   4.391  30.122   0.051
77003W        W48729  31.869  37.339   3.314
77004W        W48730  38.432  20.060   4.909
77005W        W48731  37.468   8.667  11.460
77006W        W48732  39.977  10.736  10.598
77007W        W48733   2.401  19.290  13.749
77008W        W48734  42.434  11.296  14.983
77009W        W48735  38.485  31.729  12.987
77010W        W48736  20.289  32.390  14.010
77011W        W48737  39.403  35.113   4.165
77012W        W48738   4.137  21.479  11.895
77013W        W48739  13.016   1.969  13.304
77014W        W48740  26.678  22.532   0.880
77015W        W48741  22.465   5.878   3.348
77016W        W48742   5.611  20.911   1.490
77017W        W48743  40.559  36.338  11.287
77018W        W48744  20.176  27.215   4.820
77019W        W48745  19.833   8.641  13.110
77020W        W48746  28.389  18.263   1.385
77021W        W48747  18.515  23.780   2.196
77022W        W48748  29.210  28.956  12.894
77023W        W48749  13.404   7.210   2.746
77024W        W48750  31.055  25.934  11.856
77025W        W48751  14.606   8.832   0.262
77026W        W48752   6.006  10.717  13.541
77027W        W48753  15.874  10.692   2.814
77028W        W48754  32.969  25.580   0.019
77029W        W48755   2.417  42.271  11.085
77030W        W48756  17.635   3.379  11.570
77031W        W48757  32.113   3.875   3.144
77032W        W48758   3.022   2.166  14.939
77033W        W48759   9.273  37.119  13.558
77034W        W48760   8.760  18.574   4.381
77035W        W48761  42.814  12.200   4.567
77036W        W48762   5.445  19.724  14.902
77037W        W48763  17.559  29.602   0.281
77038W        W48764  17.096  15.192   0.412
77039W        W48765  36.173   2.924  10.581
77040W        W48766  29.646  27.406   1.817
77041W        W48767  31.901  40.494   0.395
77042W        W48768  44.475  20.665   3.157
77043W        W48769  31.093  35.576   1.610
77044W        W48770  27.109  31.697  11.250
77045W        W48771  43.653  31.101  10.594
77046W        W48772  17.808  25.317   3.412
77047W        W48773  27.635  14.164  11.878
77048W        W48774  19.244   5.921   4.148
77049W        W48775  19.811   5.286  13.388
77050W        W48776  38.140  12.600  12.007
77051W        W48777  39.055  35.344   4.527
77052W        W48778  24.256  29.761   4.634
77053W        W48779  15.522   3.871   1.222
77054W        W48780  32.381  23.484  11.726
77055W        W48781  20.103  34.392   1.921
77056W        W48782  39.780  27.361   2.483
77057W        W48783  27.547  13.975  14.528
77058W        W48784  18.855  27.379  13.024
77059W        W48785  13.841  15.583   4.607
77060W        W48786  43.046  44.760  11.136
77061W        W48787   8.179   7.611  14.076
77062W        W48788   0.936  21.070  13.402
77063W        W48789  43.324  15.224  12.086
77064W        W48790  44.797  31.964  11.191
77065W        W48791   9.766  16.499   3.309
77066W        W48792   4.466  10.626  14.454
77067W        W48793  26.977   2.740  13.979
77068W        W48794   4.324  33.198   4.822
77069W        W48795  12.299  22.338   3.814
77070W        W48796  25.688  30.106   1.531
77071W        W48797   7.719  24.982   9.742
77072W        W48798  11.320  10.187   3.726
77073W        W48799   0.422  21.509   0.029
77074W        W48800   5.929   0.707  10.408
77075W        W48801  16.056   9.719  13.012
77076W        W48802  33.674   3.955   3.305
77077W        W48803  44.036  31.937   3.706
77078W        W48804  43.862   0.246   2.701
77079W        W48805  30.996  27.980   0.717
77080W        W48806  35.089  35.048   2.693
77081W        W48807  30.569  14.013   3.595
77082W        W48808  18.629   8.879   3.674
77083W        W48809  11.858  10.410   0.335
77084W        W48810   2.753   8.488  14.237
77085W        W48811  12.492  28.602  14.834
77086W        W48812  36.492   5.546  12.284
77087W        W48813  30.245  36.013  11.611
77088W        W48814  24.562  14.272  14.827
77089W        W48815  36.395   7.211   5.076
77090W        W48816  15.282  24.431   0.337
77091W        W48817   1.224  37.087  14.396
77092W        W48818  39.883   9.765   4.081
77093W        W48819   3.863  43.955  14.230
77094W        W48820  10.326  23.900   1.236
77095W        W48821  37.194  43.294   1.783
77096W        W48822  38.756   0.004   4.699
77097W        W48823  29.957  27.159   2.821
77098W        W48824  24.081  30.387  11.122
77099W        W48825  37.680  43.754  12.839
77100W        W48826  10.337  27.614   3.765
77101W        W48827   6.801  40.856  13.416
77102W        W48828  29.264  34.529   5.087
77103W        W48829  21.321   9.354  10.819
77104W        W48830  26.933  39.969  13.366
77105W        W48831  33.900  28.683  13.142
77106W        W48832  27.561  12.595   1.947
77107W        W48833  14.131  19.436   2.365
77108W        W48834  18.275  22.134   3.287
77109W        W48835  16.095  44.974  11.563
77110W        W48836  10.222   6.236   3.228
77111W        W48837   7.909   7.027  11.957
77112W        W48838   0.099  29.914  13.946
77113W        W48839  26.922  36.030  13.994
77114W        W48840  18.804  15.176  13.893
77115W        W48841  38.603  39.146   2.820
77116W        W48842  17.074  27.305  11.639
77117W        W48843  40.850   6.616   0.435
77118W        W48844   3.995  13.561   3.142
77119W        W48845  24.491  26.544  12.414
77120W        W48846   6.407  26.112  11.224
77121W        W48847  14.356  33.382  10.182
77122W        W48848  12.605  18.592  13.343
77123W        W48849  24.402   9.144  12.511
77124W        W48850   5.092  15.752   9.710
77125W        W48851   5.847  29.161  13.821
77126W        W48852   4.738  44.970   0.972
77127W        W48853  20.067  22.038   3.302
77128W        W48854  29.448  16.918   1.307
77129W        W48855  41.986  29.785  12.194
77130W        W48856  42.858  17.848   3.201
77131W        W48857  38.418  20.536   1.769
77132W        W48858  28.959  10.226  14.056
77133W        W48859   9.838  26.054  12.863
77134W        W48860  31.457  11.209   0.058
77135W        W48861   7.887   9.048  12.797
77136W        W48862  31.730  30.079  14.271
77137W        W48863  37.800  37.349   1.005
77138W        W48864  36.053   6.185  11.886
77139W        W48865  37.073   9.569   2.189
77140W        W48866  11.908   0.710  14.646
77141W        W48867  32.647  43.954   0.389
77142W        W48868   5.803  41.223  10.420
77143W        W48869   1.607  13.653  13.929
77144W        W48870   4.151  37.385  14.272
77145W        W48871  44.193  16.554   4.192
77146W        W48872  17.723  39.491  11.053
77147W        W48873  30.046  35.509   1.878
77148W        W48874  23.315  17.258  10.996
77149W        W48875   9.297   0.845  10.738
77150W        W48876  10.615  34.371  10.572
77151W        W48877   2.701  19.997  14.013
77152W        W48878  32.687   8.674   3.220
77153W        W48879  22.995   2.334   0.963
77154W        W48880  27.071  13.171  10.751
77155W        W48881  19.756   6.374  12.907
77156W        W48882  31.102   9.279   0.371
77157W        W48883   9.377  13.513  14.503
77158W        W48884   1.433  30.352  13.949
77159W        W48885  44.622  37.477  11.656
77160W        W48886  29.094  12.320   2.445
77161W        W48887  33.957  17.028   2.354
77162W        W48888  42.880  17.325  10.522
77163W        W48889  36.129  19.232  11.063
77164W        W48890   3.672   0.281   3.837
77165W        W48891  26.424  23.850   2.407
77166W        W48892  42.858  26.568  10.377
77167W        W48893  26.143  16.077  10.240
77168W        W48894  19.642  26.556   5.032
77169W        W48895  41.394  41.922   2.390
77170W        W48896  19.492  37.289   3.557
77171W        W48897   3.887  18.687   1.246
77172W        W48898  27.482  12.702  13.927
77173W        W48899   3.266  37.032   2.873
77174W        W48900  28.935  42.354  12.029
77175W        W48901  16.332   9.442  10.454
77176W        W48902  37.534  22.936  13.813
77177W        W48903  22.615  27.454   5.189
77178W        W48904  41.475  13.671   4.705
77179W        W48905  15.905   6.094  11.153
77180W        W48906  16.018   8.385   1.767
77181W        W48907   4.139  29.643   0.870
77182W        W48908  37.822  15.615  14.447
77183W        W48909  31.939  21.147  14.340
77184W        W48910  31.849  35.412  11.529
77185W        W48911  24.145  27.026   5.147
77186W        W48912  16.925  36.479  12.547
77187W        W48913  39.419  27.952  14.784
77188W        W48914  10.420   1.010  14.753
77189W        W48915  20.326  13.332  14.857
77190W        W48916  42.953  11.402  14.123
77191W        W48917  39.323  40.718   3.112
77192W        W48918   8.084  37.070   4.097
77193W        W48919  17.134  32.534   1.443
77194W        W48920  32.434  11.259  13.044
77195W        W48921  13.207  19.126   1.938
77196W        W48922  21.215  24.154  14.427
77197W        W48923  10.658  15.001  14.322
77198W        W48924  24.439  16.419  12.139
77199W        W48925  13.200   8.632  14.488
77200W        W48926  37.656  37.898  13.828
77201W        W48927  26.652  42.744   3.726
77202W        W48928  26.120   9.151  12.552
77203W        W48929   9.091  44.144   4.928
77204W        W48930  27.736  27.105  13.027
77205W        W48931  29.659  33.988   0.862
77206W        W48932  30.551  21.766  13.217
77207W        W48933  43.405   6.423  12.777
77208W        W48934  21.741   3.220   0.864
77209W        W48935  20.513   2.960   2.331
77210W        W48936   2.451  23.715  11.930
77211W        W48937  14.820  37.524  12.595
77212W        W48938  36.075  15.356   1.894
77213W        W48939   9.780  32.883  14.854
77214W        W48940  23.701   8.104  14.821
77215W        W48941  36.402  25.612  12.507
77216W        W48942  33.059  10.367  10.697
77217W        W48943  24.209  44.006  11.331
77218W        W48944  28.639  13.708   2.121
77219W        W48945  28.442  24.132   1.657
77220W        W48946   5.274  38.031   0.370
77221W        W48947  14.009   1.947   3.726
77222W        W48948   0.030  43.780   2.467
77223W        W48949  38.614  38.016  11.939
77224W        W48950  26.576  20.397  12.784
77225W        W48951  44.848  10.242   0.472
77226W        W48952   8.402  32.931  12.781
77227W        W48953  26.579  25.438   4.132
77228W        W48954  26.629  44.249  12.822
77229W        W48955   2.582   4.950  14.794
77230W        W48956  25.161  15.196  12.515
77231W        W48957   7.485   2.412   2.646
77232W        W48958  32.912   9.063  14.489
77233W        W48959  11.716  44.416  12.117
77234W        W48960  42.364  31.530   1.442
77235W        W48961  29.963  24.302   1.240
77236W        W48962  17.491   0.331   1.405
77237W        W48963  25.135  23.527  14.888
77238W        W48964  38.473  34.658   4.191
77239W        W48965   5.218  11.217  10.688
77240W        W48966  36.015  11.352  10.757
77241W        W48967   4.432  37.733   4.740
77242W        W48968  32.513   3.672   2.839
77243W        W48969  14.391   7.871  14.356
77244W        W48970  15.775  43.713   2.246
77245W        W48971  10.342  27.913   0.403
77246W        W48972  18.492  27.881   0.937
77247W        W48973  34.457  31.396   2.780
77248W        W48974  20.685  11.358  14.351
77249W        W48975   5.482  21.059   3.133
77250W        W48976  37.163  10.240  13.625
77251W        W48977  42.565  20.460  11.200
77252W        W48978  44.965   7.452   1.311
77253W        W48979  32.868  16.244  11.601
77254W        W48980   0.030  17.146   0.146
77255W        W48981   7.954  41.967  14.346
77256W        W48982  19.643  25.534  14.290
77257W        W48983  41.414  15.137   4.723
77258W        W48984  36.669   1.148   2.687
77259W        W48985   1.816  11.459  12.107
77260W        W48986  14.577  27.941  10.688
77261W        W48987   7.272  12.837   0.268
77262W        W48988  39.526  20.119   0.440
77263W        W48989  12.762  29.820   0.964
77264W        W48990  44.616   2.287   1.395
77265W        W48991   2.735  34.567   0.407
77266W        W48992  17.092  29.454   1.208
77267W        W48993  16.832   7.753   0.752
77268W        W48994  36.034  34.534  13.984
77269W        W48995   0.295  34.111   0.060
77270W        W48996  38.935  27.449  10.628
77271W        W48997  34.434  17.756   3.331
77272W        W48998  16.372  21.647   0.819
77273W        W48999   7.199  30.084   1.245
77274W        W49000  26.114  31.576  13.468
77275W        W49001   6.117   6.823  10.547
77276W        W49002  28.615  18.252   0.432
77277W        W49003   5.811  44.943   2.741
77278W        W49004  42.511  16.663  12.949
77279W        W49005  24.887  41.216  11.557
77280W        W49006   3.638  13.765  10.868
77281W        W49007  16.536  16.486   0.895
77282W        W49008  43.884  15.298  11.985
77283W        W49009  32.069  31.672  10.957
77284W        W49010  35.325  26.387   4.593
77285W        W49011   9.628  32.535   2.390
77286W        W49012   8.238   0.466   4.550
77287W        W49013  44.378  15.909  14.451
77288W        W49014   9.751  20.474   0.934
77289W        W49015  25.501  43.378   2.739
77290W        W49016  32.432  36.073   1.362
77291W        W49017  42.757  26.710   2.401
77292W        W49018   2.239  11.586   1.344
77293W        W49019   1.375  22.682   3.112
77294W        W49020  26.700   9.304  10.977
77295W        W49021  40.615  26.051   4.310
77296W        W49022   6.466  19.180   4.704
77297W        W49023  28.463  33.830  14.762
77298W        W49024  41.477  42.292   2.767
77299W        W49025  32.298  44.869   3.685
77300W        W49026  41.446  18.705   3.630
77301W        W49027   3.505  15.226  12.022
77302W        W49028  38.791  23.892  14.593
77303W        W49029  25.196  11.900   3.140
77304W        W49030  17.102  38.557   4.717
77305W        W49031  41.816  22.310  12.615
77306W        W49032  44.257  25.771   3.161
77307W        W49033   6.993   9.728  12.452
77308W        W49034  33.063  25.234   3.171
77309W        W49035  17.699  16.293  11.992
77310W        W49036  20.126  11.752  10.516
77311W        W49037  14.287  35.435   2.627
77312W        W49038  17.106  14.361  14.266
77313W        W49039  17.591  24.184  13.326
77314W        W49040  26.537  33.391   3.427
77315W        W49041  11.950  18.667   0.841
77316W        W49042  16.404  31.125  12.053
77317W        W49043  37.004  18.580   4.619
77318W        W49044  28.990  29.033   0.244
77319W        W49045  24.648  28.494   3.005
77320W        W49046  20.109  15.861   0.292
77321W        W49047  28.985  30.588   3.365
77322W        W49048  26.796  43.817  10.304
77323W        W49049  39.082  43.854  13.093
77324W        W49050  36.986  25.492   2.584
77325W        W49051  33.500  20.973   0.900
77326W        W49052  27.116  39.942   3.178
77327W        W49053  24.686  15.497  13.529
77328W        W49054  38.360  12.594  10.694
77329W        W49055  20.259  27.959   4.280
77330W        W49056  12.786  42.447  13.854
77331W        W49057  39.010  24.564   0.151
77332W        W49058  40.380  44.548  14.744
77333W        W49059  17.177  32.087  13.150
77334W        W49060  21.427  24.615  12.834
77335W        W49061  41.410   8.416  14.317
77336W        W49062  20.232  34.063  10.989
77337W        W49063   4.882  22.229   2.873
77338W        W49064  21.761  22.315  14.412
77339W        W49065  24.996  43.371   4.579
77340W        W49066  43.706  36.196   1.918
77341W        W49067  24.678  10.274   2.306
77342W        W49068  34.822  42.375   2.942
77343W        W49069  16.138  11.262  10.643
77344W        W49070   7.786  28.709   3.759
77345W        W49071  16.097  28.596   4.469
77346W        W49072  33.830  39.990   4.582
77347W        W49073  40.783  11.205  14.247
77348W        W49074  42.644  29.525   1.781
77349W        W49075   0.282  14.856   2.697
77350W        W49076  27.181  25.986   4.187
77351W        W49077   5.459   7.006   4.594
77352W        W49078  17.872   1.532   1.801
77353W        W49079  33.517  37.108   4.874
77354W        W49080  24.788  40.933   2.305
77355W        W49081  15.089   2.758   1.287
77356W        W49082  12.077  20.093   0.495
77357W        W49083   3.855  39.129  13.055
77358W        W49084  28.610   9.668  13.363
77359W        W49085   3.358  33.323   3.761
77360W        W49086  40.404  23.086  11.459
77361W        W49087  40.284  40.375   0.454
77362W        W49088  33.638   2.960   0.078
77363W        W49089  23.247  12.731  11.008
77364W        W49090  42.939   5.946  11.601
77365W        W49091  14.609  12.751   4.608
77366W        W49092   5.348  28.657  12.672
77367W        W49093   7.362  33.833  12.203
77368W        W49094  27.609  37.794   0.926
77369W        W49095  35.816  33.984  11.163
77370W        W49096  43.330  12.829  11.238
77371W        W49097  38.370  19.900   4.336
77372W        W49098   1.159  22.162   1.177
77373W        W49099  35.081  34.571   3.587
77374W        W49100  37.794   7.689   0.768
77375W        W49101   8.870  24.730   0.344
77376W        W49102   0.873  18.593   2.211
77377W        W49103  43.529   5.191   4.191
77378W        W49104   4.423  24.457  12.078
77379W        W49105  26.078  16.819  10.616
77380W        W49106  13.802  28.485  10.751
77381W        W49107  27.227  43.959   2.233
77382W        W49108  22.158  19.695   2.755
77383W        W49109  36.304  39.018   1.414
77384W        W49110  25.178  33.668  14.473
77385W        W49111  10.998  44.830  14.215
77386W        W49112  22.867  20.043   0.785
77387W        W49113   4.954  14.651  12.885
77388W        W49114   6.373  41.219   3.432
77389W        W49115  44.310  29.539  10.850
77390W        W49116  35.476  29.994   4.666
77391W        W49117  11.311  34.194   0.375
77392W        W49118   6.238  39.888  13.154
77393W        W49119   1.952  10.879  12.965
77394W        W49120  21.246  43.402   3.992
77395W        W49121  18.623  31.209  14.392
77396W        W49122   8.891  36.985  13.873
77397W        W49123  36.895   1.268   4.628
77398W        W49124  35.456  29.472   2.286
77399W        W49125  43.260  36.438  11.168
77400W        W49126  30.612   8.279  12.921
77401W        W49127   2.788   6.796  11.482
77402W        W49128  22.083  12.818  14.872
77403W        W49129  26.414   2.562   4.314
77404W        W49130  17.128  12.079  12.873
77405W        W49131  44.861  36.959  11.573
77406W        W49132  29.275  42.410  11.136
77407W        W49133  33.320  18.284  14.861
77408W        W49134   4.576   2.193  11.878
77409W        W49135   3.046  14.130  13.461
77410W        W49136  29.172  25.386  14.503
77411W        W49137  15.482  13.029   1.422
77412W        W49138  43.709  27.626   4.477
77413W        W49139   0.378  23.199  13.126
77414W        W49140   3.790  28.247  10.837
77415W        W49141  21.636  10.261   2.576
77416W        W49142  24.528   5.328  11.715
77417W        W49143  38.035  38.115  14.908
77418W        W49144  19.189  24.806  10.498
77419W        W49145  36.696  25.499   1.480
77420W        W49146  15.513  33.567  11.443
77421W        W49147   6.934  34.247  11.614
77422W        W49148  24.699  38.385  11.558
77423W        W49149  33.009  23.532  12.973
77424W        W49150  40.888  23.742   3.198
77425W        W49151  41.452   3.209   0.787
77426W        W49152  33.537  32.117   0.653
77427W        W49153  22.854  28.791   9.532
77428W        W49154  38.235   9.302   1.828
77429W        W49155  23.238  30.738  14.333
77430W        W49156  40.298  18.547  14.330
77431W        W49157  32.618  33.365   0.415
77432W        W49158  16.491   8.734  12.879
77433W        W49159   3.457  43.978  13.406
77434W        W49160  12.848   9.092  14.262
77435W        W49161  41.764  34.980   2.656
77436W        W49162  14.986  11.540  12.051
77437W        W49163  35.085  44.819   2.751
77438W        W49164   6.352  12.207   1.385
77439W        W49165  43.898   8.480   4.760
77440W        W49166  23.912   4.477   2.893
77441W        W49167  12.631  31.464   4.630
77442W        W49168  33.062  14.579  13.858
77443W        W49169  20.578  37.652  14.030
77444W        W49170  26.506  35.110   2.115
77445W        W49171  26.623  27.740  12.078
77446W        W49172   1.886  40.455  14.324
77447W        W49173  32.882   8.961   4.059
77448W        W49174  43.049  19.052   4.445
77449W        W49175  39.015   8.764  14.663
77450W        W49176   7.321  24.714  12.353
77451W        W49177  44.917  26.618  11.923
77452W        W49178  13.291  10.282   4.453
77453W        W49179  14.416  44.423   4.099
77454W        W49180  40.034  34.494  14.544
77455W        W49181  36.530   4.864   2.674
77456W        W49182   9.261   8.002   0.783
77457W        W49183  26.885  40.435   3.908
77458W        W49184   8.427   5.562   2.833
77459W        W49185   6.541   7.548   4.210
77460W        W49186  42.399  43.949  12.441
77461W        W49187  42.460   9.459   1.395
77462W        W49188   9.781  29.205  11.946
77463W        W49189  23.043   2.447  12.096
77464W        W49190  12.168   2.849   3.565
77465W        W49191  27.737  42.837  11.566
77466W        W49192  13.749  32.808  12.030
77467W        W49193   6.362   3.974  13.987
77468W        W49194  33.908   3.421  10.750
77469W        W49195  24.499  36.350  11.843
77470W        W49196  29.005  14.079   1.848
77471W        W49197   8.017  20.810  12.162
77472W        W49198   0.875  26.092  13.008
77473W        W49199  11.256  32.404  12.888
77474W        W49200  28.125  10.137   3.671
77475W        W49201  24.797  24.716  11.140
77476W        W49202  34.810  19.513   2.366
77477W        W49203  43.646  12.884  12.995
77478W        W49204  15.028  41.066   2.632
77479W        W49205  26.568  37.059  14.035
77480W        W49206  43.452  40.357   0.247
77481W        W49207  41.825  11.007  10.214
77482W        W49208  23.842  41.305   0.454
77483W        W49209  24.161  44.593   4.089
77484W        W49210  37.885  22.631  11.542
77485W        W49211  33.978  42.917  11.456
77486W        W49212   1.200  26.334   3.351
77487W        W49213  37.732  41.069  11.019
77488W        W49214   8.625  24.493   3.721
77489W        W49215  43.796   1.962   0.226
77490W        W49216   3.949   6.123   0.154
77491W        W49217   6.461  13.849   1.596
77492W        W49218  32.376  14.980   0.711
77493W        W49219  12.244  21.138   0.438
77494W        W49220   5.342  35.686   3.756
77495W        W49221  27.234  12.253  13.966
77496W        W49222  27.433   2.884   4.775
77497W        W49223   1.045  17.530   0.945
77498W        W49224  27.680  29.949   0.455
77499W        W49225  16.914  35.039   1.174
77500W        W49226   4.479  26.979   3.304
77501W        W49227   2.131  17.533   1.909
77502W        W49228  22.198   5.274  13.796
77503W        W49229  44.337  42.763   1.322
77504W        W49230  25.013  27.566  12.832
77505W        W49231  38.258   3.570  12.947
77506W        W49232  24.185  38.944  12.977
77507W        W49233  42.691   0.301   1.433
77508W        W49234  18.664  44.375  11.876
77509W        W49235  31.023   8.319  10.644
77510W        W49236  11.383  31.379  14.540
77511W        W49237  39.982  24.052  11.657
77512W        W49238  28.055  27.938  11.442
77513W        W49239  20.812  41.982  13.100
77514W        W49240   5.764  14.356  10.967
77515W        W49241  26.539  19.927   2.187
77516W        W49242  10.144   7.277  10.614
77517W        W49243  18.984   8.140   0.833
77518W        W49244  11.124   2.782  14.591
77519W        W49245   2.781  11.722   3.605
77520W        W49246  17.846  19.726   4.100
77521W        W49247  11.119   5.677   0.521
77522W        W49248  29.237  11.237   3.144
77523W        W49249  30.081   5.334  14.768
77524W        W49250  32.093  27.178   4.693
77525W        W49251  18.277  26.440  13.519
77526W        W49252  15.793  18.406   0.808
77527W        W49253  26.180   2.643  10.716
77528W        W49254   4.352  25.996  13.916
77529W        W49255  33.956   8.257  11.976
77530W        W49256  32.651  25.104   1.244
77531W        W49257  22.033  26.291  14.918
77532W        W49258  27.699  32.693  11.484
77533W        W49259   8.593  32.969   0.858
77534W        W49260   8.917  26.539   4.556
77535W        W49261  16.846  20.626   0.453
77536W        W49262  30.889  33.010   2.288
77537W        W49263  30.901   6.883   0.350
77538W        W49264  44.420  43.679  11.182
77539W        W49265  12.565  41.283  12.268
77540W        W49266  11.308   5.193  11.339
77541W        W49267  24.301  30.172  14.993
77542W        W49268   6.320   0.997   0.306
77543W        W49269  16.364  30.143  14.315
77544W        W49270   4.846   0.456   3.223
77545W        W49271  10.712  31.967   5.001
77546W        W49272  44.876  13.845  14.812
77547W        W49273  35.031  35.925  14.342
77548W        W49274  35.784  39.459   1.994
77549W        W49275  12.722  42.378   3.402
77550W        W49276  30.520   8.766  13.130
77551W        W49277  11.768  27.142  12.496
77552W        W49278  12.111  14.356   1.129
77553W        W49279  30.609   9.586  14.775
77554W        W49280  34.019  17.315   1.375
77555W        W49281   4.898  24.537   3.631
77556W        W49282   9.560   6.217   1.477
77557W        W49283  14.803   2.263   3.630
77558W        W49284  15.617  23.757  13.838
77559W        W49285   1.556  40.094   1.772
77560W        W49286  31.897  22.619  11.660
77561W        W49287  18.093  22.549  11.947
77562W        W49288   6.187  40.452  10.660
77563W        W49289  29.282  39.040  10.806
77564W        W49290  24.832  37.858   1.889
77565W        W49291   7.923  39.444   1.918
77566W        W49292  39.324   6.417  12.515
77567W        W49293  19.802  41.381   3.337
77568W        W49294  28.112  22.982   1.961
77569W        W49295   9.295  34.042   5.473
77570W        W49296  39.406  17.016   0.897
77571W        W49297  14.989  24.140  13.559
77572W        W49298  29.154  19.530  14.492
77573W        W49299  31.530   8.970   0.278
77574W        W49300  21.756   5.710   1.191
77575W        W49301  15.898   5.743   3.272
77576W        W49302  33.092  44.975   4.868
77577W        W49303  19.385  40.315  12.415
77578W        W49304  31.541   5.508  10.691
77579W        W49305  11.662  12.607   2.894
77580W        W49306  12.295  24.544  12.717
77581W        W49307  13.184  27.989  13.979
77582W        W49308  20.784  23.222   0.300
77583W        W49309  40.862  25.023  12.549
77584W        W49310  18.666  30.144   4.290
77585W        W49311  24.103   2.090   2.444
77586W        W49312   7.285  26.687   5.055
77587W        W49313   7.749   3.997   2.410
77588W        W49314  37.307  23.276   2.619
77589W        W49315  36.458  38.322  12.540
77590W        W49316  16.480   7.861  10.735
77591W        W49317  15.654   8.342  13.932
77592W        W49318  31.087   0.687   1.243
77593W        W49319   5.413  38.236  14.295
77594W        W49320  13.765  34.172   2.661
77595W        W49321  10.723  21.629   0.933
77596W        W49322  27.494  22.787   1.844
77597W        W49323  44.363   9.875  11.551
77598W        W49324  24.565  30.990   4.393
77599W        W49325  25.409  31.967   1.353
77600W        W49326  41.431  38.912  14.021
77601W        W49327  25.546  36.480   4.377
77602W        W49328   3.068   0.366   2.310
77603W        W49329  34.559  24.596   2.136
77604W        W49330  38.233   6.728   1.916
77605W        W49331  19.154   9.109  14.109
77606W        W49332  31.517  28.209   0.361
77607W        W49333  40.611  10.246  12.623
77608W        W49334  25.594  11.944   2.784
77609W        W49335  44.118  11.607  13.417
77610W        W49336  13.869  15.420  11.090
77611W        W49337  19.560  39.946  10.667
77612W        W49338  18.081  22.329  12.436
77613W        W49339  44.459  33.548   4.994
77614W        W49340  27.668  11.205  11.159
77615W        W49341  44.685  44.677  11.937
77616W        W49342  38.930  25.427  13.039
77617W        W49343  40.989  38.874   1.358
77618W        W49344   5.796   7.397   1.098
77619W        W49345  38.109  26.966   3.388
77620W        W49346  26.980  34.510  13.103
77621W        W49347  36.809  15.334   3.267
77622W        W49348  18.802  27.730  13.420
77623W        W49349   2.955  34.628  10.467
77624W        W49350   3.203  32.614  14.152
77625W        W49351  25.277  33.881   4.348
77626W        W49352   6.907  36.963   3.237
77627W        W49353  16.249  30.662  14.325
77628W        W49354  19.342  24.608   1.235
77629W        W49355  13.704  12.268   1.720
77630W        W49356  39.843  18.395   1.222
77631W        W49357  16.713   3.462   1.446
77632W        W49358   0.728  16.283   1.228
77633W        W49359  44.238   5.641  13.367
77634W        W49360  19.285   5.989   1.412
77635W        W49361   2.350  25.459  13.779
77636W        W49362  40.418  24.524  14.267
77637W        W49363   4.751  39.830  14.812
77638W        W49364  44.865  27.694   3.187
77639W        W49365  23.418  41.380   3.238
77640W        W49366  34.394  25.221   4.918
77641W        W49367  33.129  10.169   0.856
77642W        W49368  19.108  43.802  13.265
77643W        W49369   3.274   8.202   3.404
77644W        W49370  10.702  14.366   3.822
77645W        W49371  23.164   7.757   4.331
77646W        W49372   5.534  23.659   4.552
77647W        W49373  11.424  10.523   3.370
77648W        W49374  30.240  32.584  11.446
77649W        W49375  20.021  29.600  12.292
77650W        W49376  10.199   9.325  11.141
77651W        W49377  20.691  42.059  12.568
77652W        W49378  20.233  11.053   4.881
77653W        W49379  24.491  44.095   2.325
77654W        W49380  39.480  18.214  13.324
77655W        W49381  28.004  41.857   3.535
77656W        W49382  15.778   7.851   3.393
77657W        W49383  28.174   8.551  14.854
77658W        W49384  44.831  35.857  12.502
77659W        W49385   1.822  10.944   2.648
77660W        W49386  16.095   2.048   3.609
77661W        W49387  38.415  15.299  13.533
77662W        W49388  26.280  20.039   4.133
77663W        W49389  22.661  43.314  10.582
77664W        W49390  22.311  43.364   0.873
77665W        W49391  41.149  44.011   3.719
77666W        W49392   2.763  24.175   0.486
77667W        W49393  38.737  28.417  10.304
77668W        W49394   0.886  41.722  14.952
77669W        W49395  33.982  44.974   2.289
77670W        W49396  10.166  30.006   2.697
77671W        W49397  19.537  39.635   4.599
77672W        W49398  40.825   6.964  12.323
77673W        W49399   1.731  12.836  11.264
77674W        W49400   9.575   8.092  14.338
77675W        W49401  11.140  16.584  11.113
77676W        W49402  40.512   3.141  12.701
77677W        W49403  24.365  36.981   1.468
77678W        W49404  22.192  31.379   2.787
77679W        W49405   8.210  23.399  11.599
77680W        W49406  27.956  24.744   2.751
77681W        W49407  41.812  33.748  12.082
77682W        W49408   0.653  38.135  12.152
77683W        W49409  16.644  35.588  14.858
77684W        W49410   8.545  35.407   1.820
77685W        W49411  24.227  21.280   2.818
77686W        W49412  33.418   8.806   4.826
77687W        W49413   0.874   0.210  12.653
77688W        W49414  20.734  20.809   4.178
77689W        W49415   7.590  18.074  11.152
77690W        W49416  27.495  17.286   4.853
77691W        W49417  24.526   2.213  11.061
77692W        W49418  30.198  29.346   1.427
77693W        W49419  20.474  28.175   3.229
77694W        W49420   7.695  24.400   3.732
77695W        W49421  43.394  34.199   3.282
77696W        W49422   3.779   7.661  13.445
77697W        W49423  23.672  16.279  13.981
77698W        W49424  43.431  44.898  14.363
77699W        W49425  12.972  18.682   2.085
77700W        W49426  22.202  32.681   3.699
77701W        W49427  26.685  11.143  13.876
77702W        W49428  39.958  17.105  13.207
77703W        W49429   9.860  40.008   4.696
77704W        W49430  21.128  39.578  14.933
77705W        W49431  39.963   0.959   0.676
77706W        W49432  43.749  32.486  13.957
77707W        W49433  44.821  25.531   2.920
77708W        W49434  13.891  40.437   2.877
77709W        W49435  43.541  14.116   0.912
77710W        W49436  19.800  23.558  10.464
77711W        W49437  43.425   4.046   3.227
77712W        W49438  13.076  26.360  10.357
77713W        W49439  18.323   7.845   1.992
77714W        W49440  44.328  39.351  14.074
77715W        W49441  37.793  13.591   4.893
77716W        W49442  22.207  36.317  12.222
77717W        W49443   1.778  18.018  14.046
77718W        W49444  14.778   4.368   4.674
77719W        W49445  28.597  20.293   2.409
77720W        W49446  22.525   9.766  13.376
77721W        W49447  30.656  19.612  10.805
77722W        W49448  36.063   3.701   2.334
77723W        W49449  32.303  35.767   0.543
77724W        W49450  36.819  17.714  12.518
77725W        W49451  31.658   5.266  14.889
77726W        W49452  12.562  41.468   0.325
77727W        W49453   4.651  24.715  11.559
77728W        W49454  34.158  41.547  13.079
77729W        W49455  29.531  26.167  11.473
77730W        W49456  28.472  20.551   1.488
77731W        W49457  28.747   1.279   0.960
77732W        W49458  35.599   0.808  10.805
77733W        W49459   9.125  35.969   2.341
77734W        W49460  37.320  17.614  11.635
77735W        W49461   1.092   9.375  14.482
77736W        W49462   5.413  43.160  12.293
77737W        W49463  30.255  14.901  12.253
77738W        W49464  21.384   5.776  11.200
77739W        W49465  18.191  26.599  14.002
77740W        W49466  24.636  44.480  14.402
77741W        W49467  19.946   3.837   1.551
77742W        W49468   0.210   9.580  13.295
77743W        W49469  11.333  35.488  14.923
77744W        W49470   2.461  14.665   1.800
77745W        W49471  35.440  12.768  13.543
77746W        W49472  37.294  42.230   4.628
77747W        W49473  35.748  38.837  11.962
77748W        W49474   2.288  11.839   4.416
77749W        W49475  20.781  34.758   0.132
77750W        W49476  30.326  44.420  14.518
77751W        W49477  24.217  43.353   2.950
77752W        W49478  32.996   1.419   2.432
77753W        W49479  37.374   4.448  14.936
77754W        W49480  42.022  30.207  14.748
77755W        W49481  17.532   7.751   3.638
77756W        W49482  32.102  41.273   4.152
77757W        W49483   1.890  38.097   0.988
77758W        W49484  34.730  30.951   3.610
77759W        W49485   9.760  40.277  13.947
77760W        W49486  34.053  32.104   0.694
77761W        W49487  36.596  10.020  12.042
77762W        W49488  37.721  18.696   1.233
77763W        W49489  25.869  32.211  14.061
77764W        W49490  10.118  18.676   0.942
77765W        W49491  37.579  35.513   1.721
77766W        W49492  36.790  28.685  11.139
77767W        W49493  10.199  12.894  12.949
77768W        W49494   8.731  23.591  11.241
77769W        W49495   7.484  20.141  14.317
77770W        W49496  19.347  20.754  11.168
77771W        W49497   6.967  26.526   0.290
77772W        W49498  34.737  37.041   0.633
77773W        W49499   7.443   3.410   0.633
77774W        W49500  20.986  44.492  13.111
77775W        W49501  29.298  12.108   3.329
77776W        W49502  12.780  32.673   2.772
77777W        W49503   4.788  11.664   1.208
77778W        W49504   2.093  42.532  12.012
77779W        W49505  17.478  28.508  13.120
77780W        W49506  11.163  27.721   1.063
77781W        W49507  41.031  18.068  14.010
77782W        W49508  17.049  11.439  10.568
77783W        W49509  20.766  12.225  12.908
77784W        W49510  15.130  14.323  11.128
77785W        W49511  32.869  37.443  12.471
77786W        W49512  20.879  20.469  13.747
77787W        W49513  17.520   1.884  12.867
77788W        W49514  37.810  36.969  14.965
77789W        W49515  33.476  11.659   1.371
77790W        W49516   3.494  20.273  13.421
77791W        W49517  10.602  29.607   1.624
77792W        W49518   5.160  22.429  10.257
77793W        W49519  35.441  35.178   1.156
77794W        W49520  29.040  37.432   3.370
77795W        W49521  20.086  10.386   3.273
77796W        W49522   8.815  43.540  12.019
77797W        W49523   3.702  13.615  14.738
77798W        W49524  14.918   2.366   1.891
77799W        W49525  11.829  11.199   4.889
77800W        W49526   6.143   1.733  14.032
77801W        W49527  17.318  21.153  10.717
77802W        W49528  10.023  33.195   1.727
77803W        W49529  41.805  29.600  10.772
77804W        W49530  32.123  40.441  12.498
77805W        W49531  14.266  27.897  11.684
77806W        W49532  36.443   5.665   3.899
77807W        W49533  25.415  33.401  10.697
77808W        W49534  14.797  41.315   0.267
77809W        W49535  32.611   7.225   4.522
77810W        W49536  28.184  35.577   0.846
77811W        W49537   4.525  40.009   2.457
77812W        W49538   7.297  11.575   3.269
77813W        W49539   4.887  41.209  10.654
77814W        W49540  39.345  18.346   1.376
77815W        W49541  30.203  29.694  13.457
77816W        W49542  32.372  26.378   0.331
77817W        W49543  43.831  10.367   2.252
77818W        W49544  17.766  23.190  13.512
77819W        W49545   7.478  27.039  10.777
77820W        W49546   4.829  24.350   2.688
77821W        W49547  44.316  13.539  11.571
77822W        W49548  34.322  11.639   2.387
77823W        W49549  34.016   3.336  13.477
77824W        W49550  42.816  39.348   3.833
77825W        W49551  43.023  29.677  14.036
77826W        W49552  26.737  22.967   2.658
77827W        W49553   4.475   0.862  11.865
77828W        W49554  44.955  23.021   3.397
77829W        W49555  30.120  30.366   1.293
77830W        W49556  38.406  13.573   3.127
77831W        W49557  35.009  40.423  11.548
77832W        W49558  19.361  33.232   1.980
77833W        W49559  10.262   8.374   1.250
77834W        W49560  11.436   5.117  13.770
77835W        W49561  37.081  34.961   0.186
77836W        W49562  20.764  22.630  14.681
77837W        W49563  36.640  42.977   4.604
77838W        W49564  30.856  41.847  13.642
77839W        W49565  40.348  37.174  11.817
77840W        W49566  15.082  14.831  13.503
77841W        W49567  30.581  42.977  14.838
77842W        W49568  15.041  13.510   2.341
77843W        W49569  32.521  30.457  14.146
77844W        W49570  44.833   9.141   2.784
77845W        W49571  27.979   7.892  12.510
77846W        W49572  27.260  28.065  12.907
77847W        W49573  28.478   4.333  12.124
77848W        W49574  25.209  31.463   4.803
77849W        W49575  41.268   4.104  13.874
77850W        W49576   5.856  36.628   3.707
77851W        W49577   5.086  22.632  11.580
77852W        W49578  22.067  31.177   2.290
77853W        W49579  32.861  35.335  11.557
77854W        W49580  15.807  23.625  14.801
77855W        W49581  33.504  14.828   4.506
77856W        W49582   4.986  38.937   1.467
77857W        W49583   6.714  28.602  11.517
77858W        W49584  22.758  20.930  11.639
77859W        W49585  29.727   5.014  13.569
77860W        W49586  35.486  23.191  14.959
77861W        W49587  43.400  28.718  11.165
77862W        W49588  19.776  44.201   2.334
77863W        W49589  10.629  11.642   4.181
77864W        W49590   7.382  24.275  12.663
77865W        W49591  32.910  15.761   4.158
77866W        W49592   8.846  19.598  11.954
77867W        W49593   5.787   5.812   0.431
77868W        W49594  17.453  15.189   3.659
77869W        W49595  36.916  14.752  12.873
77870W        W49596  36.578  39.049  11.992
77871W        W49597  38.514  11.548   4.529
77872W        W49598  40.824  17.831  10.711
77873W        W49599  20.136   2.395  11.087
77874W        W49600  40.021  11.849  13.537
77875W        W49601  38.553  12.505   4.195
77876W        W49602  33.536  25.101   3.313
77877W        W49603  44.919  25.443  11.021
77878W        W49604  22.165  15.489   0.523
77879W        W49605  11.180  23.099   0.065
77880W        W49606   0.587  16.019   4.347
77881W        W49607  44.868   2.416   4.387
77882W        W49608  31.558   9.206  13.516
77883W        W49609  16.941   8.037  11.604
77884W        W49610   0.929   4.295  14.740
77885W        W49611  34.545  35.185  11.214
77886W        W49612  25.598  19.736  12.645
77887W        W49613  28.023   4.726  14.553
77888W        W49614  42.910   0.405   0.544
77889W        W49615   2.967   6.457   4.383
77890W        W49616   1.038  38.081   3.684
77891W        W49617  28.139  42.892   2.489
77892W        W49618  38.890  23.477  11.975
77893W        W49619   1.223   9.813   4.226
77894W        W49620  18.811  11.910  11.172
77895W        W49621  43.349  12.235   4.254
77896W        W49622  30.393  26.262  12.875
77897W        W49623  44.037  24.541   1.260
77898W        W49624  33.154   5.005  12.451
77899W        W49625   2.548  21.778   1.879
77900W        W49626  23.444  12.241  11.082
77901W        W49627   1.954  16.917   3.459
77902W        W49628  23.552  18.100   3.187
77903W        W49629  39.523  42.829   1.504
77904W        W49630  17.056  22.388   1.059
77905W        W49631  17.835  37.440   2.449
77906W        W49632  15.385  20.719   0.342
77907W        W49633   3.641  28.653   2.860
77908W        W49634  14.536  41.193   1.779
77909W        W49635  37.951  14.382  13.763
77910W        W49636   3.224  37.860   4.694
77911W        W49637  30.150  28.055   4.916
77912W        W49638  40.940  16.238   1.521
77913W        W49639   6.827  39.019  10.585
77914W        W49640  13.199  18.788   0.282
77915W        W49641  38.881  36.675  13.330
77916W        W49642  30.081   3.671  13.802
77917W        W49643  14.072  32.653  14.400
77918W        W49644  24.758  16.459   4.187
77919W        W49645  23.473  11.601   4.086
77920W        W49646  41.968  44.552   2.648
77921W        W49647  16.535  32.790  10.741
77922W        W49648  25.565   0.696   2.880
77923W        W49649   0.339  14.078   0.030
77924W        W49650  31.125  32.298  12.838
77925W        W49651  43.243  29.451  10.877
77926W        W49652   3.948  14.437   2.840
77927W        W49653  14.723   8.619   0.741
77928W        W49654  20.055   4.581   0.874
77929W        W49655  20.412  12.619  11.168
77930W        W49656   4.006  43.692   3.183
77931W        W49657   3.402  44.868   4.407
77932W        W49658   3.874  29.948  13.807
77933W        W49659  15.284  10.883  11.345
77934W        W49660  17.842   1.497  10.499
77935W        W49661  12.113  34.911   1.524
77936W        W49662   6.925  42.059  13.461
77937W        W49663  23.805  19.675   5.075
77938W        W49664  36.365  39.331  12.837
77939W        W49665  22.615  33.867  10.726
77940W        W49666   7.139  32.902   4.126
77941W        W49667  10.420  29.577   0.925
77942W        W49668  13.765  41.560   4.727
77943W        W49669  32.216  13.809  12.168
77944W        W49670  22.480  44.329   3.142
77945W        W49671  44.480  27.686   2.293
77946W        W49672  39.868  33.011  12.677
77947W        W49673  37.484   4.950   4.502
77948W        W49674  44.281   6.630   5.044
77949W        W49675   8.363  33.930  13.157
77950W        W49676  13.835  19.536   1.363
77951W        W49677  20.116  19.786  12.564
77952W        W49678  37.997  18.703   1.689
77953W        W49679   1.913  22.621  10.746
77954W        W49680  33.521  20.964  11.113
77955W        W49681  28.490  18.490  13.900
77956W        W49682  17.690  11.122  11.736
77957W        W49683  41.138  16.135   2.334
77958W        W49684  25.789  38.252  12.023
77959W        W49685   8.688  18.379   0.936
77960W        W49686  43.160  26.636   1.146
77961W        W49687  27.475   9.055  13.093
77962W        W49688   3.913  18.788   2.859
77963W        W49689  24.422  21.581   4.863
77964W        W49690  38.323   3.418  10.763
77965W        W49691  24.587  35.013  12.955
77966W        W49692  17.729  23.611   4.775
77967W        W49693  43.676  19.823  12.697
77968W        W49694  44.904  17.572   1.867
77969W        W49695  28.889  34.500  12.953
77970W        W49696  28.146  28.493  14.341
77971W        W49697  12.694  42.024   1.579
77972W        W49698  20.738  42.936  13.303
77973W        W49699   2.395  13.718  12.774
77974W        W49700  11.352  18.645  13.632
77975W        W49701  23.732   9.913  14.289
77976W        W49702   8.454  32.389   0.363
77977W        W49703  39.784  24.933   2.760
77978W        W49704  21.546  32.396  10.643
77979W        W49705  40.909  15.718   1.397
77980W        W49706  25.069   5.753   4.230
77981W        W49707   7.491   9.790   0.375
77982W        W49708  15.836  27.486  10.890
77983W        W49709  43.864   9.908  11.402
77984W        W49710  15.823  33.285  10.569
77985W        W49711  34.478  33.143  12.552
77986W        W49712   7.868  26.378   0.349
77987W        W49713  32.582  18.996   0.309
77988W        W49714  41.951  41.028  11.551
77989W        W49715  28.608  44.278   3.896
77990W        W49716  16.694   5.099   2.813
77991W        W49717  26.012  25.877   3.591
77992W        W49718  42.081  16.761   1.782
77993W        W49719  19.576  36.573  10.679
77994W        W49720  13.855  19.592  12.861
77995W        W49721  28.038  34.784  12.382
77996W        W49722  41.885  23.660  12.881
77997W        W49723  16.245  33.379   2.316
77998W        W49724  22.901  20.763   0.257
77999W        W49725  19.196  15.480   0.002
78000W        W49726  10.586   5.238  12.484
78001W        W49727  33.654  21.606   0.477
78002W        W49728  10.083  12.330  14.065
78003W        W49729  43.210  38.425  10.631
78004W        W49730   0.978  33.290   3.719
78005W        W49731   1.802  12.626   1.011
78006W        W49732  17.662  32.413   4.622
78007W        W49733  12.608  32.331  11.246
78008W        W49734   9.757  35.089   3.254
78009W        W49735  13.784  31.091  10.773
78010W        W49736   0.319  15.364   0.451
78011W        W49737   9.877  28.219   2.977
78012W        W49738  33.466  22.559  11.217
78013W        W49739   8.068   0.193  11.264
78014W        W49740  13.693  32.311  11.923
78015W        W49741   8.852   6.758   2.239
78016W        W49742   5.398  10.286  11.030
78017W        W49743  27.133  16.553   0.940
78018W        W49744  12.236  16.525   3.263
78019W        W49745  14.657  42.002   3.384
78020W        W49746   3.176  38.808   3.224
78021W        W49747  18.143   9.775   4.630
78022W        W49748  11.655   1.556   2.829
78023W        W49749   4.826  21.337  10.978
78024W        W49750   4.753  19.035   2.789
78025W        W49751  28.975  20.546  13.161
78026W        W49752  14.122   6.149  12.532
78027W        W49753  24.985  25.454   1.943
78028W        W49754  11.584  11.697  11.116
78029W        W49755  42.908  44.403  13.910
78030W        W49756  20.195  27.214  12.981
78031W        W49757   6.854  23.121   3.615
78032W        W49758  28.407  31.071   4.091
78033W        W49759  39.103  28.432   1.844
78034W        W49760  28.545   1.211  11.988
78035W        W49761  36.577  41.464  12.408
78036W        W49762  21.957   3.290  14.084
78037W        W49763  34.421   9.905   1.678
78038W        W49764   8.244  32.567   4.305
78039W        W49765  28.537  22.269   3.954
78040W        W49766  14.561   3.456  10.647
78041W        W49767   9.409  32.778   3.215
78042W        W49768  16.650  11.896  12.997
78043W        W49769  23.752  17.754  12.445
78044W        W49770  38.628  44.799  10.873
78045W        W49771   1.763  32.915   2.306
78046W        W49772  17.405   5.869   0.890
78047W        W49773   1.489   4.324  10.673
78048W        W49774  28.508   5.400  10.980
78049W        W49775  12.328  33.623  10.587
78050W        W49776  23.717  22.021   0.445
78051W        W49777  33.930  21.630   2.260
78052W        W49778  29.897  32.075  10.187
78053W        W49779  15.299   0.845   3.875
78054W        W49780  43.344  10.596   2.248
78055W        W49781  23.233  28.977   1.685
78056W        W49782  22.569  27.599   9.933
78057W        W49783  31.880  42.361   0.487
78058W        W49784   7.851  14.370  11.547
78059W        W49785  30.687  27.196   3.577
78060W        W49786  33.344  11.342   2.738
78061W        W49787  31.418   1.569   3.697
78062W        W49788  23.088  11.987   4.144
78063W        W49789  40.250   1.410  14.570
78064W        W49790  10.391  38.488   2.168
78065W        W49791  27.537  40.808   1.131
78066W        W49792   6.330  39.426   1.770
78067W        W49793  34.934  24.560   1.757
78068W        W49794  13.326  15.706   3.699
78069W        W49795  39.427   8.371  13.721
78070W        W49796  39.850  11.201   1.973
78071W        W49797  22.972   2.496  11.201
78072W        W49798   9.731   7.186   3.255
78073W        W49799  37.336  28.230   5.061
78074W        W49800  29.643  38.019  13.064
78075W        W49801  24.444  20.803   2.777
78076W        W49802  19.012  39.857  12.581
78077W        W49803  11.946   4.433  13.792
78078W        W49804   1.243  40.610   0.467
78079W        W49805  27.457  30.231  10.744
78080W        W49806  44.572  24.617   3.638
78081W        W49807   6.531  40.053  10.645
78082W        W49808  20.090  38.508   3.185
78083W        W49809  41.841  20.540   3.673
78084W        W49810  39.311  19.719   1.137
78085W        W49811  20.748  14.429   5.471
78086W        W49812  29.037  35.563   4.611
78087W        W49813  41.614  17.712  11.498
78088W        W49814  26.480   4.472   5.075
78089W        W49815  32.366  36.940  13.024
78090W        W49816  41.768  32.765  13.885
78091W        W49817  12.548   8.265  12.116
78092W        W49818  28.160   7.837   4.478
78093W        W49819  22.137  29.973   4.649
78094W        W49820  43.551  16.098   4.316
78095W        W49821   7.951  13.720   3.754
78096W        W49822  43.705  19.755   2.661
78097W        W49823  27.404   6.223   2.749
78098W        W49824  35.017  32.012  11.618
78099W        W49825  25.047  22.226   2.692
78100W        W49826  43.597  39.091   4.425
78101W        W49827  26.051  33.136  13.543
78102W        W49828  29.202   8.426  12.561
78103W        W49829  42.665  32.550  14.935
78104W        W49830  27.132   5.651   2.280
78105W        W49831   5.810  41.822   2.788
78106W        W49832  44.796  27.435  11.246
78107W        W49833  15.846  39.091   2.745
78108W        W49834  44.261   0.462  10.925
78109W        W49835   6.306  32.670  14.383
78110W        W49836  33.790  39.393   1.899
78111W        W49837  25.360  36.501  13.574
78112W        W49838   9.184  42.742   3.485
78113W        W49839  21.229   6.977  12.952
78114W        W49840  28.876  42.340   3.206
78115W        W49841  14.235  12.896  14.055
78116W        W49842   6.168   0.229  11.100
78117W        W49843  17.171  33.808   2.897
78118W        W49844   4.183  33.414  12.894
78119W        W49845  31.043  38.002  13.806
78120W        W49846   1.058  19.097   0.130
78121W        W49847  28.571  22.291  14.462
78122W        W49848   9.740   9.202  11.623
78123W        W49849  42.506  22.784  11.922
78124W        W49850   9.494  19.987  11.503
78125W        W49851  25.144  36.356  14.033
78126W        W49852   3.227  13.978  11.749
78127W        W49853  32.503  28.007   4.680
78128W        W49854  38.171  11.483   4.933
78129W        W49855  16.494  37.077   2.944
78130W        W49856  43.269  34.360  12.490
78131W        W49857  21.597  20.115   0.507
78132W        W49858  23.925   3.038  12.537
78133W        W49859  20.684   8.867   2.363
78134W        W49860  18.560  22.986  11.034
78135W        W49861  44.427  14.536   0.898
78136W        W49862  18.225   1.801  11.550
78137W        W49863  15.986   7.125  11.149
78138W        W49864  25.016  24.562  14.338
78139W        W49865  18.740  34.500   4.558
78140W        W49866   8.206  26.690   4.740
78141W        W49867  29.675  44.758  11.437
78142W        W49868  37.859  18.260  12.081
78143W        W49869  16.621  25.468   2.813
78144W        W49870  24.769   0.917  13.872
78145W        W49871  33.975  29.442   1.743
78146W        W49872  24.601  40.385  11.468
78147W        W49873  19.725  28.183  14.339
78148W        W49874  12.251   1.021  14.879
78149W        W49875  28.402  12.451  12.481
78150W        W49876   9.586   7.671   3.381
78151W        W49877  41.372  28.930  10.648
78152W        W49878  15.641   4.686  13.445
78153W        W49879  11.831  21.504   2.906
78154W        W49880   9.239  41.296  14.887
78155W        W49881  16.836  18.475   3.886
78156W        W49882  20.597  43.455   4.599
78157W        W49883  12.070  44.231   4.768
78158W        W49884   1.324  41.267   4.529
78159W        W49885  33.602   2.760  11.546
78160W        W49886   1.861  33.082   3.858
78161W        W49887  41.503  28.184  13.539
78162W        W49888  33.430  31.514  10.682
78163W        W49889  38.696  28.929   1.796
78164W        W49890  36.777  42.303   4.469
78165W        W49891  33.085  38.850  10.414
78166W        W49892  15.798   2.358   2.219
78167W        W49893  27.194   8.412  11.991
78168W        W49894  12.937  23.022  12.378
78169W        W49895  37.101   7.070  11.428
78170W        W49896  37.571   6.129   5.182
78171W        W49897  17.055   0.525  10.805
78172W        W49898  24.170  42.338   0.404
78173W        W49899  33.251  23.795  13.391
78174W        W49900   4.529  38.535  11.343
78175W        W49901  20.146  36.338   0.407
78176W        W49902  28.143  13.378   2.929
78177W        W49903  11.345   0.483  14.937
78178W        W49904  27.253  14.537  13.846
78179W        W49905  22.538  15.801   0.324
78180W        W49906  36.570  30.293  12.494
78181W        W49907  36.970   4.854   1.794
78182W        W49908  22.166  41.772   2.190
78183W        W49909  24.396  26.484   3.199
78184W        W49910  43.726  20.273  14.994
78185W        W49911   4.471  24.747   2.565
78186W        W49912   7.322  43.487  14.977
78187W        W49913   7.799  41.829   3.272
78188W        W49914  35.338   9.125   3.273
78189W        W49915  27.214  29.871  12.876
78190W        W49916  26.427   5.460  13.273
78191W        W49917  41.397  26.634  12.035
78192W        W49918  27.132  25.027  13.364
78193W        W49919  27.735  17.203  14.155
78194W        W49920  31.327  14.825   4.801
78195W        W49921  22.270   2.070  13.359
78196W        W49922  33.434  26.397  10.157
78197W        W49923  44.706  25.492   3.931
78198W        W49924  28.025  26.101  13.479
78199W        W49925   3.769   0.950  14.424
78200W        W49926  31.587  42.836  12.438
78201W        W49927  27.538  35.550  11.519
78202W        W49928  36.250   0.465   3.691
78203W        W49929  11.780  25.718   4.070
78204W        W49930   2.592  24.300   3.279
78205W        W49931  18.439  15.313   1.371
78206W        W49932  41.738  29.602   2.856
78207W        W49933  21.540  18.229  14.912
78208W        W49934  27.389  32.408   4.253
78209W        W49935  30.556   6.872   3.369
78210W        W49936  44.499  11.664   0.850
78211W        W49937  36.428  12.340   1.161
78212W        W49938  12.788  29.700   3.329
78213W        W49939  28.487  27.023  11.178
78214W        W49940  36.384   4.785  11.209
78215W        W49941  28.318  44.766   0.465
78216W        W49942  10.788  43.809   0.655
78217W        W49943  25.076  18.958   3.428
78218W        W49944  27.116  11.248   2.407
78219W        W49945  24.803  13.436   2.941
78220W        W49946  19.496  25.296   5.075
78221W        W49947  15.645  43.320  11.637
78222W        W49948  15.118   8.564   2.469
78223W        W49949  39.951  33.617   1.366
78224W        W49950  33.307   7.812   1.849
78225W        W49951  36.126  15.251   1.366
78226W        W49952  36.612   3.740  13.123
78227W        W49953   8.174  36.934  11.860
78228W        W49954   5.038  25.255   0.807
78229W        W49955  34.822  33.164  10.259
78230W        W49956   7.214  34.199  12.558
78231W        W49957  11.355  26.607   1.445
78232W        W49958   4.806  24.141  12.307
78233W        W49959  17.209  10.864   1.941
78234W        W49960  14.303   3.715   4.252
78235W        W49961  37.892  38.928   1.492
78236W        W49962  21.801  21.297   2.825
78237W        W49963   4.982   5.463   3.630
78238W        W49964   0.013  44.348  11.652
78239W        W49965  41.280  18.719  12.907
78240W        W49966   4.181  16.328   0.814
78241W        W49967  17.233  33.514  14.942
78242W        W49968  36.364   7.400   2.880
78243W        W49969  31.201  14.695   0.520
78244W        W49970   1.918  17.564   2.442
78245W        W49971  29.732   6.768  13.967
78246W        W49972  34.506  36.118  12.113
78247W        W49973  36.096  16.362  11.501
78248W        W49974  14.775  37.244   1.356
78249W        W49975  26.823  11.752   2.089
78250W        W49976  35.064  36.741   2.839
78251W        W49977  28.984  43.458   2.338
78252W        W49978  11.633  32.495  13.228
78253W        W49979   2.284  28.232  11.057
78254W        W49980   2.060   7.114  12.057
78255W        W49981  36.592  10.793  11.643
78256W        W49982  15.200  41.562   1.437
78257W        W49983  38.050   5.866   3.396
78258W        W49984  16.806  16.747  14.928
78259W        W49985   3.836  31.717  12.836
78260W        W49986  24.492  13.773   1.764
78261W        W49987  34.989  44.501   0.873
78262W        W49988  33.839   6.853  12.563
78263W        W49989   5.647  18.026  13.504
78264W        W49990  30.128  14.162  11.598
78265W        W49991  24.532  31.197  14.874
78266W        W49992  18.602  37.499   4.960
78267W        W49993  28.385   3.010  11.454
78268W        W49994  43.969   3.290  11.463
78269W        W49995  29.749  12.966   5.085
78270W        W49996  42.797  13.542   3.120
78271W        W49997  28.711  42.347   3.702
78272W        W49998  14.228  31.192   4.216
78273W        W49999   9.826  34.519  11.079
78274W        W50000   9.902   1.766  12.140
78275W        W50001  16.673  17.570  12.170
78276W        W50002  17.752  40.748  10.556
78277W        W50003   3.109  15.539  12.029
78278W        W50004  44.928   1.730  14.745
78279W        W50005  35.846  38.008  12.234
78280W        W50006  13.769  17.123  14.135
78281W        W50007  34.571   0.458   3.610
78282W        W50008  17.082  12.246   0.753
78283W        W50009  35.622   6.916  13.660
78284W        W50010  35.543  17.163  12.491
78285W        W50011  37.322  28.554  13.925
78286W        W50012  17.565  24.217   1.348
78287W        W50013   0.751  10.369  10.759
78288W        W50014   3.279  18.850  10.683
78289W        W50015  41.701  16.988   3.778
78290W        W50016  26.176  25.516   3.209
78291W        W50017   0.135  29.089  14.968
78292W        W50018  28.482  43.712   1.740
78293W        W50019  19.001   6.787   2.299
78294W        W50020  41.357   7.717   5.303
78295W        W50021   3.595  14.353   3.208
78296W        W50022  32.547  28.975  14.059
78297W        W50023  12.653  30.437   1.759
78298W        W50024  37.880  32.552   1.627
78299W        W50025  44.879  27.358   2.257
78300W        W50026  33.416  31.588   1.850
78301W        W50027  16.502  15.512   4.994
78302W        W50028  24.707  42.494  11.650
78303W        W50029  39.574  17.726   4.488
78304W        W50030   4.302  38.443  10.887
78305W        W50031  17.820  38.411   9.649
78306W        W50032  24.942   6.772   2.155
78307W        W50033  23.186   6.173  13.432
78308W        W50034  27.520  12.862  11.681
78309W        W50035  30.683  41.891   2.681
78310W        W50036  40.888  39.386   4.229
78311W        W50037  22.897  22.735   0.442
78312W        W50038  27.558  13.684   4.853
78313W        W50039  30.929  31.785  12.377
78314W        W50040   3.540  32.959  10.722
78315W        W50041   9.616   7.820   1.431
78316W        W50042  25.535  28.699   0.682
78317W        W50043  16.286  32.487  14.898
78318W        W50044  30.652  34.849  12.108
78319W        W50045   2.888   5.294   0.800
78320W        W50046  38.095  28.465  11.928
78321W        W50047  17.518   5.158   1.342
78322W        W50048  22.583  31.317  13.833
78323W        W50049  38.910  20.568  11.564
78324W        W50050   1.914  18.318  12.905
78325W        W50051  13.960  14.559  12.546
78326W        W50052  43.069   5.801   0.250
78327W        W50053  38.290  27.967  11.917
78328W        W50054  40.980  34.282  12.948
78329W        W50055  13.180  29.232   2.711
78330W        W50056   5.245  38.233  13.385
78331W        W50057   7.902  35.235   9.649
78332W        W50058  15.563  44.035  13.694
78333W        W50059  12.671  33.650  11.616
78334W        W50060  16.340  36.937  14.278
78335W        W50061  21.495   3.996   2.167
78336W        W50062  15.856  10.372  12.091
78337W        W50063  36.195   2.841  13.906
78338W        W50064   1.065  24.242  13.495
78339W        W50065   8.834  11.263  14.301
78340W        W50066  28.405  22.614  13.812
78341W        W50067  11.319  33.907  11.597
78342W        W50068   2.513   8.520   1.761
78343W        W50069  24.749  17.827   0.380
78344W        W50070  10.296  44.396   2.614
78345W        W50071  36.548  44.919  11.256
78346W        W50072  32.265  40.865  10.662
78347W        W50073  17.280  37.513  11.511
78348W        W50074  22.595  27.054   3.271
78349W        W50075   8.309   2.277   0.966
78350W        W50076  40.462  30.822  14.750
78351W        W50077   5.798  24.313  11.288
78352W        W50078  17.203   4.624  14.907
78353W        W50079  18.302  29.135  12.943
78354W        W50080  34.846  25.423   4.331
78355W        W50081  40.336  31.152  11.447
78356W        W50082  14.797  30.842   1.167
78357W        W50083  12.317  22.729  14.814
78358W        W50084  32.013  18.097  12.825
78359W        W50085   3.172  27.086  13.405
78360W        W50086  22.701  19.475   4.299
78361W        W50087   2.504  38.181   2.579
78362W        W50088   5.910  37.318  11.540
78363W        W50089  11.250   2.438  14.147
78364W        W50090   6.892  34.833   1.124
78365W        W50091  34.007   8.721  14.902
78366W        W50092   2.256  30.310   4.405
78367W        W50093  36.798   2.314   0.345
78368W        W50094  35.913   1.359   3.629
78369W        W50095  39.505  15.057  11.155
78370W        W50096  37.894  14.384   2.877
78371W        W50097  33.462   4.260  12.414
78372W        W50098  44.513  32.636  10.006
78373W        W50099   7.311  35.312  10.992
78374W        W50100  16.603  12.157   1.922
78375W        W50101  22.728  22.950   1.237
78376W        W50102  37.393  41.720   1.075
78377W        W50103   2.424  16.765  13.991
78378W        W50104  43.595  35.383   2.688
78379W        W50105  35.405  12.985  13.074
78380W        W50106   2.192  31.711  11.079
78381W        W50107  22.844  36.375  11.441
78382W        W50108   2.880  31.372  10.870
78383W        W50109  11.912  13.788  13.939
78384W        W50110   4.694  24.061   3.701
78385W        W50111  27.911  27.851  14.887
78386W        W50112  24.924  36.703  14.347
78387W        W50113   4.766  32.854   2.851
78388W        W50114  38.909  16.538   0.274
78389W        W50115  20.098  42.870   2.960
78390W        W50116  12.323  16.530   4.204
78391W        W50117   1.846   6.794  13.438
78392W        W50118  41.659   3.621  11.157
78393W        W50119   6.357  15.328   5.072
78394W        W50120  14.371   6.908  12.974
78395W        W50121   4.371  29.623  10.739
78396W        W50122  15.609  11.320   4.584
78397W        W50123   2.799   9.365   0.523
78398W        W50124  27.051  12.049   4.826
78399W        W50125  27.251  10.101  13.408
78400W        W50126  44.430  37.558   1.258
78401W        W50127  23.294  22.245   3.292
78402W        W50128  40.570  15.698   4.512
78403W        W50129   3.999   2.246  13.272
78404W        W50130   7.246  11.331   0.459
78405W        W50131   0.754   0.990   3.177
78406W        W50132  13.315   9.294  12.748
78407W        W50133  34.354  34.328  12.842
78408W        W50134   2.710  12.580   4.218
78409W        W50135  33.050  28.492   0.712
78410W        W50136   5.826  36.832   4.553
78411W        W50137  16.597  35.018  10.633
78412W        W50138  13.314  23.595   4.456
78413W        W50139  10.088  39.970   9.853
78414W        W50140  11.228   2.954  14.127
78415W        W50141  21.117  27.167  11.983
78416W        W50142  33.447  27.196   0.210
78417W        W50143  25.501   9.206   2.797
78418W        W50144  23.547  15.749   2.653
78419W        W50145   0.344  13.591   1.706
78420W        W50146  42.503  32.490   1.409
78421W        W50147   3.473   5.467   1.747
78422W        W50148  24.779  30.476  12.642
78423W        W50149  10.934   0.334   1.762
78424W        W50150  34.875  31.484  14.208
78425W        W50151  41.536   4.239   4.636
78426W        W50152  26.876   4.198  14.314
78427W        W50153   7.215  44.415   1.374
78428W        W50154  10.582  23.129   3.735
78429W        W50155  30.146  23.775   2.814
78430W        W50156  30.379   3.344   2.244
78431W        W50157  36.115  20.208   1.339
78432W        W50158  31.869  25.642   2.198
78433W        W50159  29.694  13.733  12.917
78434W        W50160  32.537  17.914   2.974
78435W        W50161  36.550  30.551   3.065
78436W        W50162   7.711  38.820  14.702
78437W        W50163   5.669  13.315  14.445
78438W        W50164  28.691   3.323  13.511
78439W        W50165  37.524   7.654  11.216
78440W        W50166  16.558  41.921  14.386
78441W        W50167  12.702  44.440   0.226
78442W        W50168  43.722  33.812   3.623
78443W        W50169  29.313  14.311   5.101
78444W        W50170  19.719  16.612   2.444
78445W        W50171  12.726   6.980   0.284
78446W        W50172   6.153  22.545   0.722
78447W        W50173   4.816  22.978   1.335
78448W        W50174   5.223   7.159   3.323
78449W        W50175  28.892  33.356  13.400
78450W        W50176  38.567  28.833   4.612
78451W        W50177  10.408  24.666  12.033
78452W        W50178  28.764  18.605   1.373
78453W        W50179  33.684   5.863  12.629
78454W        W50180  29.182  10.306   3.335
78455W        W50181  22.993  33.950   3.547
78456W        W50182  24.185  40.338  11.152
78457W        W50183  36.312  30.129  10.534
78458W        W50184  11.322  30.061   1.970
78459W        W50185   3.017  37.380   4.590
78460W        W50186  29.390   8.878  13.817
78461W        W50187   6.712  14.965  14.832
78462W        W50188   1.724  10.116   1.408
78463W        W50189  44.960  44.256  12.668
78464W        W50190  11.558  37.320   2.839
78465W        W50191   6.328  42.604  11.513
78466W        W50192  23.114  18.745   4.344
78467W        W50193   6.752  18.752  13.823
78468W        W50194  30.554  33.512   0.373
78469W        W50195  25.237   0.297   0.503
78470W        W50196  16.176  23.541  10.458
78471W        W50197   8.242  14.206  13.593
78472W        W50198  44.319  30.221  10.024
78473W        W50199  29.525  31.917   4.557
78474W        W50200  15.435  30.049   0.384
78475W        W50201  16.536   3.367  10.449
78476W        W50202  10.090  25.657  13.913
78477W        W50203  26.051   5.509   1.059
78478W        W50204   6.304  21.446   2.628
78479W        W50205  18.017  28.554  12.179
78480W        W50206  25.996  26.458   2.263
78481W        W50207  30.415   2.934  11.551
78482W        W50208   2.467  13.714   2.802
78483W        W50209  17.660  18.055  10.956
78484W        W50210  33.027   4.004  12.571
78485W        W50211  10.622  12.151   4.155
78486W        W50212  40.611  35.828  13.283
78487W        W50213  43.837  13.272   0.770
78488W        W50214  29.530  17.502  13.519
78489W        W50215  17.672   4.295  14.272
78490W        W50216  44.119  30.740   3.071
78491W        W50217  37.764   9.060   0.849
78492W        W50218  32.305   4.814   4.829
78493W        W50219  34.577  40.434   0.757
78494W        W50220   3.165  32.948  13.758
78495W        W50221  18.569   0.845  13.146
78496W        W50222  36.631   2.364   1.490
78497W        W50223  20.260  20.273   2.223
78498W        W50224  34.947   0.026   4.692
78499W        W50225  37.905  15.599   3.794
78500W        W50226  35.914  15.480   0.748
78501W        W50227  11.807   9.247   4.849
78502W        W50228  15.720  12.771  11.873
78503W        W50229  22.016  10.079   1.722
78504W        W50230   3.309  29.493   2.131
78505W        W50231  18.815  39.475   2.343
78506W        W50232  23.650  31.267   1.905
78507W        W50233  23.707  38.339  12.408
78508W        W50234  41.577  32.006  10.248
78509W        W50235   1.475   1.680   0.714
78510W        W50236  24.208  41.653  12.809
78511W        W50237  25.204  19.325  12.473
78512W        W50238  38.473  25.232   1.512
78513W        W50239  43.382  11.924   1.932
78514W        W50240  39.493  36.093   4.375
78515W        W50241  44.552  12.521  13.063
78516W        W50242  27.939   6.667   1.927
78517W        W50243  30.602  24.663   0.052
78518W        W50244  43.544   7.661  11.477
78519W        W50245   7.937   6.735   1.423
78520W        W50246  16.331  18.256  10.635
78521W        W50247  23.288  23.075   1.844
78522W        W50248  26.480  37.674  12.333
78523W        W50249  26.932  32.067   0.380
78524W        W50250   3.640  29.894  12.426
78525W        W50251   7.357   9.362   1.772
78526W        W50252   7.725  35.009  11.004
78527W        W50253  18.495  34.848  10.670
78528W        W50254  39.338  33.852   2.276
78529W        W50255  11.605  28.372  11.203
78530W        W50256   5.756  18.289  11.456
78531W        W50257  41.170  16.173  13.448
78532W        W50258  19.284  26.310  13.282
78533W        W50259  15.663  44.825  13.860
78534W        W50260  18.031  31.571  13.049
78535W        W50261  19.726  43.771   4.579
78536W        W50262  32.990  33.411  10.718
78537W        W50263  31.447   1.735  13.537
78538W        W50264  40.295   5.953   1.820
78539W        W50265   8.365   1.113   1.240
78540W        W50266   7.450   8.686   4.791
78541W        W50267  30.795  31.223  12.808
78542W        W50268  42.417  36.308  10.809
78543W        W50269   1.686   1.806   1.671
78544W        W50270   0.423  41.110  13.779
78545W        W50271  35.953  11.247  14.804
78546W        W50272   7.613  36.092   2.320
78547W        W50273  25.101   9.729   4.745
78548W        W50274  31.428  16.277  11.716
78549W        W50275  19.034  36.397   4.431
78550W        W50276  35.462  25.527   3.309
78551W        W50277  13.742  34.863   4.124
78552W        W50278  15.825  30.722   4.761
78553W        W50279  35.257  13.300  14.954
78554W        W50280   6.210  42.695   3.851
78555W        W50281  12.692  42.043  10.595
78556W        W50282  18.781  12.114   3.660
78557W        W50283   4.879  23.428  13.461
78558W        W50284   3.683  43.323   4.780
78559W        W50285  11.343  32.877   0.825
78560W        W50286  10.856  23.871   1.322
78561W        W50287   5.779  30.992   3.169
78562W        W50288  21.595  25.694   0.516
78563W        W50289  26.728   6.931   2.693
78564W        W50290  22.657  10.217   0.481
78565W        W50291  26.522  41.275   2.441
78566W        W50292  34.911  35.890  11.896
78567W        W50293  36.440  44.906  14.705
78568W        W50294  13.570  30.490  13.915
78569W        W50295  44.885  17.195   2.841
78570W        W50296   6.369  37.090   1.815
78571W        W50297  40.406  15.562  12.508
78572W        W50298  38.129   3.264   4.440
78573W        W50299   3.198  43.446   3.601
78574W        W50300  25.518  16.556  14.473
78575W        W50301  34.936  10.612   3.114
78576W        W50302  18.590  35.454   4.227
78577W        W50303   8.261   8.126  14.015
78578W        W50304  17.611  29.900  12.860
78579W        W50305   1.682  12.196  12.502
78580W        W50306  40.803   7.713  14.792
78581W        W50307  27.070  11.266   1.352
78582W        W50308  32.504  43.716  11.114
78583W        W50309   0.935  38.301  13.392
78584W        W50310  41.790  38.090  13.917
78585W        W50311  18.320  40.615   1.916
78586W        W50312  42.230  23.136  11.619
78587W        W50313  33.160  40.019   2.253
78588W        W50314  21.527  39.945   0.224
78589W        W50315   4.779   4.654  13.099
78590W        W50316  40.334  12.280   0.373
78591W        W50317  39.984  20.099   2.313
78592W        W50318   2.763  22.549   3.736
78593W        W50319  16.534  39.533   0.884
78594W        W50320  32.449  18.265  14.006
78595W        W50321  30.398  24.231  12.827
78596W        W50322   3.520  35.945  11.970
78597W        W50323  37.940   5.009  11.112
78598W        W50324  43.165  17.221   3.655
78599W        W50325  35.819  28.662   1.677
78600W        W50326  11.813  36.869  12.537
78601W        W50327  14.362  22.105   2.197
78602W        W50328   9.773   8.874  14.805
78603W        W50329  13.597  14.199   4.971
78604W        W50330  19.676  20.717  13.104
78605W        W50331  17.630   4.865  11.614
78606W        W50332  44.641  36.097  13.032
78607W        W50333  43.917  31.351   2.115
78608W        W50334  43.948  17.079  14.267
78609W        W50335  24.106   9.871  11.157
78610W        W50336  16.671   6.359  10.767
78611W        W50337   0.389  22.340   3.848
78612W        W50338  14.148  39.045  13.764
78613W        W50339  29.530  40.625  12.754
78614W        W50340  22.480  40.351  13.322
78615W        W50341  38.382   8.195   0.912
78616W        W50342  36.251  10.583   3.684
78617W        W50343   0.332   2.649   3.694
78618W        W50344   8.798  32.158  13.137
78619W        W50345  23.527  14.601   2.024
78620W        W50346   6.313  28.057   1.272
78621W        W50347   9.455  19.236   0.436
78622W        W50348  14.862  37.502   2.154
78623W        W50349  14.797  18.232   2.310
78624W        W50350   4.174  19.082  11.144
78625W        W50351   9.235  23.950  13.338
78626W        W50352  40.532  13.244  12.532
78627W        W50353  36.828  10.799   0.433
78628W        W50354  18.865   5.028   3.189
78629W        W50355   0.126  38.725  13.882
78630W        W50356  31.010   5.642  14.040
78631W        W50357  13.759  44.036  13.104
78632W        W50358  19.308   8.200   1.238
78633W        W50359  39.137   6.719  12.953
78634W        W50360  28.717  35.839  12.000
78635W        W50361  33.753  17.544  12.805
78636W        W50362  12.152  26.561   2.872
78637W        W50363   5.718  35.885   2.983
78638W        W50364   9.123   7.742   4.668
78639W        W50365  37.821  16.652  10.952
78640W        W50366  13.423  39.496   3.588
78641W        W50367   5.058  14.252   2.180
78642W        W50368  43.335  23.992  12.163
78643W        W50369  21.547   3.959   3.590
78644W        W50370  24.537  32.395  10.742
78645W        W50371  30.942  24.092   2.320
78646W        W50372  29.495  28.048  14.554
78647W        W50373   3.371  15.600   1.504
78648W        W50374   5.745  22.757   0.479
78649W        W50375  11.613  10.161  10.613
78650W        W50376  19.749  13.792   3.283
78651W        W50377   8.636  26.446  11.886
78652W        W50378  12.067  22.574   4.205
78653W        W50379  12.048  33.089  13.373
78654W        W50380  20.481  17.596   4.410
78655W        W50381  38.536  27.617  14.277
78656W        W50382  28.059  33.344   1.719
78657W        W50383  27.350  16.144   4.567
78658W        W50384   6.230   1.042  10.702
78659W        W50385  19.989  24.751   2.654
78660W        W50386   2.174  21.260  12.039
78661W        W50387  12.586   4.178   0.823
78662W        W50388  16.693  14.820  10.662
78663W        W50389   8.452  24.097   2.384
78664W        W50390  11.060  26.678  13.916
78665W        W50391  29.618   1.277  13.273
78666W        W50392  30.903   0.836  12.856
78667W        W50393  32.809  12.683  11.362
78668W        W50394  10.433  14.782  12.069
78669W        W50395  37.977  17.338   3.765
78670W        W50396   5.927  12.810   5.479
78671W        W50397  16.663  12.619   3.312
78672W        W50398  12.303  44.690   4.855
78673W        W50399  12.886  17.809  12.916
78674W        W50400  10.651  17.607   0.339
78675W        W50401  38.875  39.585  10.724
78676W        W50402  22.008  24.291   0.837
78677W        W50403  10.422  40.865   0.335
78678W        W50404  21.054  18.161   2.367
78679W        W50405   5.945  21.321   3.280
78680W        W50406  16.040  25.664  13.095
78681W        W50407   5.581  22.700   2.367
78682W        W50408  29.888  18.140  11.218
78683W        W50409  22.448  30.823  13.925
78684W        W50410  37.098  42.087   0.719
78685W        W50411  11.786   1.153   1.152
78686W        W50412  34.152   3.932   3.933
78687W        W50413  15.674  24.823   4.714
78688W        W50414   7.354  13.666   4.695
78689W        W50415  20.013   9.820  13.469
78690W        W50416  41.957  28.637   3.101
78691W        W50417  31.505   8.885  10.783
78692W        W50418  10.637  28.385   0.892
78693W        W50419  41.710  18.749  12.076
78694W        W50420  21.842   4.798   0.021
78695W        W50421  42.207  37.865   4.662
78696W        W50422  22.693  35.867   2.028
78697W        W50423  17.306  43.324  12.286
78698W        W50424  18.262  44.949  14.899
78699W        W50425   4.349   4.500  12.870
78700W        W50426  11.729  21.509   1.901
78701W        W50427  41.085  13.116   2.717
78702W        W50428  37.993  22.430  11.083
78703W        W50429  21.434  24.705   1.791
78704W        W50430  16.629  26.870  12.423
78705W        W50431  37.380  22.275   3.725
78706W        W50432  35.690  11.350   0.561
78707W        W50433  42.271  42.830  14.441
78708W        W50434  13.347   1.713  10.872
78709W        W50435  16.832  35.304  14.468
78710W        W50436  15.184  29.562   2.622
78711W        W50437   8.175  37.849   2.151
78712W        W50438  16.300  29.981  10.686
78713W        W50439  23.663  30.589  14.591
78714W        W50440  30.184  19.083  14.041
78715W        W50441  42.531  36.559   0.184
78716W        W50442   8.302  30.950  14.859
78717W        W50443  26.101  23.177  13.512
78718W        W50444  11.821  36.577   3.657
78719W        W50445  24.810  13.522   0.793
78720W        W50446   7.803   9.647   1.752
78721W        W50447  44.108  26.884   1.417
78722W        W50448  24.581  21.004  14.751
78723W        W50449  31.258   4.910   2.291
78724W        W50450  22.076  31.668  11.684
78725W        W50451  16.244  29.488  14.748
78726W        W50452   9.946  19.061  14.745
78727W        W50453  33.859  41.670  13.539
78728W        W50454  13.134  34.166   0.453
78729W        W50455  40.383   4.070  12.561
78730W        W50456  36.483   6.853   1.884
78731W        W50457  31.934  40.876  11.587
78732W        W50458  19.989  17.344   3.673
78733W        W50459   3.266  44.042  11.000
78734W        W50460  28.190  43.962  11.040
78735W        W50461  18.334  29.061   0.804
78736W        W50462  16.960  29.440  14.425
78737W        W50463   1.422  27.302   3.143
78738W        W50464   8.216  27.759  12.092
78739W        W50465  13.759   9.090   0.767
78740W        W50466  41.052   1.903   3.819
78741W        W50467  22.412  33.478   5.256
78742W        W50468  37.985  27.646  10.652
78743W        W50469   0.719  11.879  11.652
78744W        W50470   8.419  40.123   1.909
78745W        W50471  10.631   5.882   3.372
78746W        W50472  44.540  16.974   9.865
78747W        W50473  22.001  34.004   4.433
78748W        W50474  28.915  28.159   3.597
78749W        W50475  32.534  38.705   0.263
78750W        W50476  29.573   2.667  14.817
78751W        W50477  23.720   0.889  11.897
78752W        W50478  17.101  19.566   1.871
78753W        W50479  11.340  26.056  13.963
78754W        W50480   9.393  13.313   3.358
78755W        W50481  30.020  12.353  13.089
78756W        W50482  30.084  18.621  11.212
78757W        W50483  13.670  32.853   4.425
78758W        W50484  20.692  25.627   0.016
78759W        W50485   5.430  13.063   4.624
78760W        W50486   4.670  32.990   3.857
78761W        W50487  16.270  33.478  12.508
78762W        W50488   3.481  27.113   2.243
78763W        W50489   2.819  33.667   3.087
78764W        W50490  39.350  41.448   3.958
78765W        W50491   5.298  25.717  10.771
78766W        W50492   9.940  29.097  10.647
78767W        W50493  30.603  40.984   1.298
78768W        W50494  38.586  37.572  14.413
78769W        W50495  29.820  22.190   2.291
78770W        W50496  11.726  43.118  14.958
78771W        W50497  28.618  39.039   1.184
78772W        W50498   5.104  33.084  11.513
78773W        W50499   2.686  44.518   0.234
78774W        W50500  10.719  42.278  12.275
78775W        W50501  37.245  25.756  11.083
78776W        W50502  23.209   7.806  12.061
78777W        W50503  16.714  38.800  14.368
78778W        W50504  17.984  36.048  11.203
78779W        W50505  24.067   0.671   1.465
78780W        W50506  16.794  21.264  11.595
78781W        W50507  14.584  35.975  14.409
78782W        W50508  12.648   7.489   4.313
78783W        W50509   8.779  40.478   2.014
78784W        W50510   7.204  37.136   1.273
78785W        W50511  36.395  38.105  10.813
78786W        W50512   3.776  27.735  12.922
78787W        W50513  18.072  35.858  14.926
78788W        W50514   9.373  31.006  11.650
78789W        W50515  17.750  20.056   2.419
78790W        W50516  34.349  16.708  11.600
78791W        W50517  39.093  28.202  11.668
78792W        W50518   3.370  28.105  11.894
78793W        W50519   7.542  41.508   4.171
78794W        W50520  35.635  11.334   1.953
78795W        W50521  31.345  21.460   1.734
78796W        W50522  17.879  29.433  12.869
78797W        W50523  20.645   6.319   1.514
78798W        W50524   6.696  35.382   1.041
78799W        W50525  11.637   8.930   3.983
78800W        W50526  38.975   7.193  13.081
78801W        W50527  39.493  41.468   0.045
78802W        W50528  31.566  23.704  14.068
78803W        W50529  24.065  26.255   2.845
78804W        W50530  44.277   9.327  14.036
78805W        W50531  37.467  18.396   2.248
78806W        W50532  13.813  16.770   4.192
78807W        W50533  35.039  34.440   1.350
78808W        W50534  43.445   2.314  10.948
78809W        W50535  11.234  14.279   4.592
78810W        W50536  35.948  40.805   3.887
78811W        W50537  27.213  13.716   4.452
78812W        W50538  15.285  39.047   4.653
78813W        W50539  24.938  20.145   1.015
78814W        W50540  23.187  12.113   9.636
78815W        W50541  17.741  35.044  13.506
78816W        W50542  36.490  11.538  11.073
78817W        W50543  34.001  25.556   4.849
78818W        W50544   2.942  19.672  12.453
78819W        W50545  44.344  27.650   0.678
78820W        W50546  28.072  36.956   3.148
78821W        W50547  36.322   4.909   1.727
78822W        W50548   1.944  37.939  10.724
78823W        W50549  30.472  17.286  10.752
78824W        W50550  22.771  32.929   2.122
78825W        W50551   3.677  38.488   1.245
78826W        W50552   0.570  16.866  12.880
78827W        W50553  12.900  22.173  14.121
78828W        W50554  14.748  39.869   0.347
78829W        W50555  33.163  24.454  13.995
78830W        W50556   2.058   6.095   4.056
78831W        W50557   5.890  19.661  13.142
78832W        W50558   9.683  20.421  11.700
78833W        W50559   7.624  23.574  14.379
78834W        W50560  19.582  13.779  12.415
78835W        W50561  41.441  28.388  10.702
78836W        W50562  35.392  32.308   0.779
78837W        W50563  23.451  14.598  11.919
78838W        W50564  23.721  38.578   2.304
78839W        W50565  30.060   3.665   4.290
78840W        W50566  20.908  22.192  11.229
78841W        W50567   0.681  34.020  13.340
78842W        W50568  12.155  36.736  13.454
78843W        W50569  10.827  32.391   2.652
78844W        W50570  44.800  14.187  10.987
78845W        W50571   1.801  19.063  10.707
78846W        W50572  41.760   3.748   3.257
78847W        W50573   1.962   7.791   0.555
78848W        W50574  15.776  30.122  12.742
78849W        W50575  29.509  24.112  11.422
78850W        W50576  36.572  15.722  12.177
78851W        W50577   4.295   4.751  14.242
78852W        W50578  16.648  17.225  12.555
78853W        W50579   1.784  16.800   3.907
78854W        W50580  29.603  36.967  11.241
78855W        W50581  37.037  29.416   0.745
78856W        W50582   1.007   6.472  14.705
78857W        W50583  10.830  41.846  14.539
78858W        W50584  28.007  21.725  10.612
78859W        W50585  35.206   3.827   4.802
78860W        W50586  16.548  29.473  10.912
78861W        W50587   7.892  29.958   4.286
78862W        W50588  25.036  42.423  13.361
78863W        W50589  41.038  25.942   4.041
78864W        W50590  12.151  38.336  10.786
78865W        W50591  23.763  37.211  14.765
78866W        W50592  40.161  44.516   0.949
78867W        W50593  17.720  23.988   3.736
78868W        W50594  12.591  40.489  11.914
78869W        W50595  17.485  35.295  12.186
78870W        W50596  43.055   2.502  12.154
78871W        W50597  39.017  37.821  14.969
78872W        W50598  37.101   8.292   1.805
78873W        W50599  37.385  15.328   4.511
78874W        W50600  28.666   3.845   0.843
78875W        W50601  18.648  27.878   3.235
78876W        W50602  12.099  28.958  13.493
78877W        W50603  20.176  39.561   0.767
78878W        W50604   0.694  26.905  12.428
78879W        W50605  15.685   4.909   3.681
78880W        W50606  29.737  28.974  11.675
78881W        W50607  30.282  20.020   3.753
78882W        W50608   3.896  27.775   1.781
78883W        W50609  15.934  24.463  10.572
78884W        W50610   7.363  37.340   0.300
78885W        W50611  37.366  19.969   4.755
78886W        W50612  43.381  13.820  13.388
78887W        W50613   3.115  44.895  12.400
78888W        W50614  22.643  29.968  13.005
78889W        W50615  29.936  13.231   2.940
78890W        W50616  28.012  34.645  10.051
78891W        W50617  41.274  40.726   1.949
78892W        W50618  37.139  25.850  14.379
78893W        W50619  33.462   0.437   1.409
78894W        W50620   9.587  13.284  14.946
78895W        W50621  15.572   0.413   3.808
78896W        W50622   3.306  29.159  11.394
78897W        W50623   6.378  35.162  13.440
78898W        W50624  25.473  28.687  11.970
78899W        W50625   5.402  26.283   2.849
78900W        W50626  25.437   3.247   9.920
78901W        W50627  13.218  24.297   0.725
78902W        W50628  42.082  18.729   4.297
78903W        W50629   3.135   3.695   0.584
78904W        W50630  20.953  15.249  10.245
78905W        W50631  40.553   4.929   1.877
78906W        W50632  39.535  14.093   1.754
78907W        W50633  20.618  42.917   1.615
78908W        W50634  18.408  31.159  10.707
78909W        W50635   4.230   4.796  11.683
78910W        W50636  37.058  10.117  10.673
78911W        W50637  37.539  29.600   3.666
78912W        W50638  25.793  26.622   0.394
78913W        W50639  29.468  22.209  11.167
78914W        W50640  15.050   8.203   2.860
78915W        W50641  18.091  15.295  14.272
78916W        W50642  43.831  43.255   0.018
78917W        W50643  35.563  29.693  13.983
78918W        W50644  21.081  13.685  12.215
78919W        W50645  13.560  44.426  14.291
78920W        W50646  42.470  20.773  12.997
78921W        W50647  15.869  14.640   0.186
78922W        W50648   2.390  28.498  13.287
78923W        W50649   9.802  42.676   4.177
78924W        W50650  24.052  28.707  14.307
78925W        W50651  40.066  39.779  11.920
78926W        W50652  21.270  18.135  14.404
78927W        W50653   7.622  32.067  10.467
78928W        W50654  41.517   5.509   4.522
78929W        W50655  18.070  20.674   0.883
78930W        W50656  15.622  30.452   3.830
78931W        W50657  31.951  33.525  10.946
78932W        W50658  29.346  44.910   2.620
78933W        W50659   0.590  41.302  14.773
78934W        W50660  40.400  36.979   0.514
78935W        W50661  39.898   3.519   4.677
78936W        W50662  24.214  37.372   4.117
78937W        W50663  22.664  30.377  14.764
78938W        W50664  24.250  29.882   1.640
78939W        W50665  15.234  19.769  11.632
78940W        W50666  42.012  31.215  14.784
78941W        W50667  24.502  43.543  12.293
78942W        W50668  15.567   7.399  11.179
78943W        W50669  31.641  11.273   1.012
78944W        W50670  29.279   9.579   1.798
78945W        W50671   0.496   8.723   3.279
78946W        W50672   0.777   8.703   1.980
78947W        W50673  34.564  28.136   0.339
78948W        W50674  39.101  11.802  13.349
78949W        W50675  14.911   4.208   3.822
78950W        W50676  33.394  26.938  12.474
78951W        W50677  37.580  26.214  14.539
78952W        W50678  24.146   7.460  10.785
78953W        W50679   3.719  29.125   2.259
78954W        W50680  15.698  14.736  11.989
78955W        W50681  22.617   0.034  12.140
78956W        W50682   2.402  43.542  11.251
78957W        W50683  29.050  17.114  11.970
78958W        W50684  38.036  41.879  13.424
78959W        W50685  10.901  28.697  14.578
78960W        W50686  11.772  22.809  13.659
78961W        W50687  12.065  31.042   1.685
78962W        W50688  15.657  11.326   2.889
78963W        W50689   2.171  27.329  12.653
78964W        W50690  26.564  12.586   0.278
78965W        W50691  44.354  33.600  14.494
78966W        W50692  43.477  10.328   2.723
78967W        W50693  39.043  13.671   0.008
78968W        W50694   0.891  38.906   0.991
78969W        W50695  24.272  28.921  12.072
78970W        W50696  27.867   4.285   4.675
78971W        W50697  11.584   0.452  11.092
78972W        W50698  43.400  17.216   2.738
78973W        W50699  14.321  28.371   2.781
78974W        W50700   6.170  17.265   2.924
78975W        W50701  22.450  25.594  13.986
78976W        W50702  42.779  19.847   1.131
78977W        W50703  41.934   0.968  14.809
78978W        W50704  13.092  43.403  13.565
78979W        W50705  36.217  11.858   5.017
78980W        W50706  34.819  36.943   3.253
78981W        W50707   1.120  21.991   2.767
78982W        W50708  10.578  23.745  14.983
78983W        W50709  42.777  20.352  12.942
78984W        W50710  43.807  23.980   1.398
78985W        W50711  36.860  39.392   4.162
78986W        W50712  34.657  24.028   1.339
78987W        W50713   4.921  19.811   1.927
78988W        W50714   1.654  24.584   1.773
78989W        W50715   6.876  12.174   1.387
78990W        W50716   8.713  36.798  13.415
78991W        W50717  39.128  38.460  14.305
78992W        W50718   8.143   9.489  14.518
78993W        W50719  33.211  32.453   4.599
78994W        W50720   3.668  26.100   0.276
78995W        W50721  17.482  14.864   4.540
78996W        W50722  33.895  28.045  14.410
78997W        W50723   6.420  34.552  12.373
78998W        W50724  40.562   4.161  14.946
78999W        W50725   1.092   5.848   4.188
79000W        W50726  18.866  43.395  14.959
79001W        W50727  31.938  23.509  14.404
79002W        W50728  29.951  32.018  12.435
79003W        W50729  19.482  29.467   1.984
79004W        W50730  29.770   7.824  10.724
79005W        W50731  32.928   5.378  10.574
79006W        W50732  18.054  20.719  12.199
79007W        W50733  20.067  40.893   3.268
79008W        W50734  23.290  25.613   5.144
79009W        W50735  31.371  43.747   4.606
79010W        W50736  11.108  36.634   2.320
79011W        W50737  11.151  28.337  10.503
79012W        W50738  39.953   8.650   0.346
79013W        W50739   2.028  28.223   2.301
79014W        W50740   2.260  41.338   3.410
79015W        W50741   8.952  38.398   4.681
79016W        W50742   5.436  38.882   2.586
79017W        W50743  29.625  29.120  11.200
79018W        W50744  27.604  14.654   3.773
79019W        W50745  24.096   8.097   3.547
79020W        W50746  19.141  15.346  12.409
79021W        W50747  24.914  20.937   3.325
79022W        W50748  21.698   0.263  14.900
79023W        W50749  24.161   9.926  14.545
79024W        W50750  41.844  44.755   3.674
79025W        W50751   7.312  42.338   2.192
79026W        W50752  14.414  20.814   2.277
79027W        W50753  29.025  40.503  12.578
79028W        W50754   9.478  20.278   3.643
79029W        W50755   4.398  32.901   1.559
79030W        W50756  12.248  39.273  12.476
79031W        W50757  28.898   9.382   0.703
79032W        W50758  26.168   9.939  12.014
79033W        W50759  33.876   4.229   1.453
79034W        W50760   1.332  34.047  14.328
79035W        W50761  40.269  31.226  11.942
79036W        W50762  32.685   7.114  10.187
79037W        W50763  28.678  18.016  13.863
79038W        W50764  10.582  40.821   2.398
79039W        W50765   5.270   8.328   2.678
79040W        W50766  34.884  11.727  11.178
79041W        W50767  18.067  37.836   0.962
79042W        W50768   7.840   3.014   2.347
79043W        W50769  40.806  25.568   1.261
79044W        W50770  37.111  10.605  12.559
79045W        W50771  19.749  29.777   2.835
79046W        W50772  18.891  26.544   4.621
79047W        W50773   0.924  28.740   4.135
79048W        W50774   5.392  32.460  12.882
79049W        W50775  16.650  20.153  14.321
79050W        W50776  35.833   0.178   3.566
79051W        W50777  19.544  12.167  10.980
79052W        W50778  28.091  32.533   0.446
79053W        W50779  35.944  15.996   0.816
79054W        W50780  38.740  16.201   3.524
79055W        W50781  41.014  11.701   3.626
79056W        W50782  32.687  40.729   4.655
79057W        W50783  26.432   8.493   1.587
79058W        W50784  44.582  22.646  11.168
79059W        W50785  12.109   1.646   1.751
79060W        W50786  32.079   2.869   2.772
79061W        W50787  21.752  41.317   4.168
79062W        W50788  21.142  11.945  11.449
79063W        W50789  24.695   0.921   3.113
79064W        W50790  19.215   7.723  11.198
79065W        W50791  39.092  28.986   2.735
79066W        W50792  16.248  13.613   4.762
79067W        W50793  29.563  13.550  11.963
79068W        W50794   8.918   2.920   3.579
79069W        W50795  11.627  44.819  11.321
79070W        W50796   3.867  31.484  10.603
79071W        W50797  26.875  11.149  13.054
79072W        W50798   7.750  13.997  14.368
79073W        W50799  16.241   3.290   1.268
79074W        W50800  17.478  16.402   0.498
79075W        W50801  30.097   4.737  11.568
79076W        W50802  43.711  38.189  13.882
79077W        W50803  43.428   8.840  13.700
79078W        W50804  19.984  11.272  12.125
79079W        W50805  24.905  10.447   1.808
79080W        W50806  19.365  17.395  10.605
79081W        W50807  44.945   4.053  10.972
79082W        W50808  27.611  12.717  14.929
79083W        W50809   5.799  31.708   1.351
79084W        W50810  27.011  10.412   1.605
79085W        W50811  26.701   7.823  13.249
79086W        W50812  33.006   3.195   4.057
79087W        W50813  39.367  32.495   1.555
79088W        W50814  42.266  42.081   2.139
79089W        W50815   7.442   3.677  11.103
79090W        W50816  44.766   5.479   2.772
79091W        W50817  36.488   3.285  14.842
79092W        W50818  31.119  19.630  14.697
79093W        W50819  19.166  25.887   1.247
79094W        W50820   7.674  12.901  14.688
79095W        W50821  18.179  23.343   2.695
79096W        W50822  25.244  34.321  11.593
79097W        W50823  41.697  18.060  13.378
79098W        W50824  43.677  36.228   2.862
79099W        W50825   2.300   4.052   1.885
79100W        W50826  10.192  10.751  11.424
79101W        W50827  14.396  12.283   4.429
79102W        W50828  33.587  13.938  11.682
79103W        W50829  29.134  16.511  13.346
79104W        W50830  29.992  10.364  12.484
79105W        W50831  44.848   6.365   1.403
79106W        W50832   1.010  34.282  11.693
79107W        W50833  28.439  20.129   0.292
79108W        W50834  20.081  42.628  12.335
79109W        W50835  42.720  29.209  11.819
79110W        W50836  41.463   5.144  12.869
79111W        W50837  21.906   5.780  13.238
79112W        W50838  39.944  44.339   0.033
79113W        W50839  33.040  36.743  13.908
79114W        W50840   4.187   0.842  10.662
79115W        W50841   7.930  17.525   0.755
79116W        W50842  44.943  39.016   4.521
79117W        W50843  41.965  18.052   2.695
79118W        W50844   0.966  35.020   3.037
79119W        W50845  32.828   6.363  12.927
79120W        W50846  22.649   1.693   0.036
79121W        W50847  15.570   9.272   0.886
79122W        W50848  22.592  26.140  10.854
79123W        W50849  30.239  30.763  12.892
79124W        W50850  18.276   0.203   1.137
79125W        W50851   5.902  44.381   2.194
79126W        W50852   6.189  18.956  11.972
79127W        W50853  22.682   9.333  10.667
79128W        W50854  44.586   5.555   5.110
79129W        W50855  42.035  15.833   4.370
79130W        W50856  31.708  31.891   1.287
79131W        W50857  21.977  23.130  14.855
79132W        W50858  21.262  26.661   0.687
79133W        W50859  40.844  34.526  12.427
79134W        W50860  18.658   2.084   4.078
79135W        W50861  12.085  33.430  12.409
79136W        W50862  37.874  34.048   0.288
79137W        W50863  28.413   7.841  12.206
79138W        W50864  36.129  10.955  12.464
79139W        W50865  37.565  44.847  10.392
79140W        W50866  44.014  38.981   4.128
79141W        W50867  34.736  11.070   2.993
79142W        W50868  25.488  18.296   3.565
79143W        W50869  14.630  14.178  11.195
79144W        W50870  24.024  30.065  13.560
79145W        W50871  19.570  18.945  14.302
79146W        W50872  14.391  13.406  14.316
79147W        W50873   6.183  13.197   2.845
79148W        W50874  31.896  36.036   4.609
79149W        W50875   4.836  19.641  13.183
79150W        W50876  43.774  31.514   0.590
79151W        W50877   8.140  25.908  13.518
79152W        W50878  43.928   3.134  14.943
79153W        W50879  38.018  25.268  11.478
79154W        W50880  14.897   0.901  10.813
79155W        W50881   2.193   0.228   2.066
79156W        W50882   2.890  19.159  14.504
79157W        W50883  29.657  17.169  10.150
79158W        W50884  43.110  20.504   2.875
79159W        W50885  41.713  13.205   4.527
79160W        W50886  40.594   4.337   4.965
79161W        W50887  35.403  12.472  13.091
79162W        W50888  24.440  10.067  10.362
79163W        W50889  32.107  31.446  12.599
79164W        W50890  30.101   9.649  11.716
79165W        W50891  21.371  27.925  13.097
79166W        W50892  28.261  34.324   3.227
79167W        W50893  27.545  21.265  11.288
79168W        W50894  27.885   9.946   3.245
79169W        W50895   4.174   6.085   1.628
79170W        W50896  42.313  16.705   0.278
79171W        W50897  22.106  40.399   1.383
79172W        W50898  24.158  38.420  12.630
79173W        W50899  23.026  19.719  10.813
79174W        W50900  12.272   8.123  11.235
79175W        W50901  24.077  41.989  11.065
79176W        W50902   5.344   0.451  12.782
79177W        W50903   6.357  24.693  11.759
79178W        W50904  44.406  23.208  13.559
79179W        W50905  41.888  16.274  10.432
79180W        W50906  22.935  28.287   3.150
79181W        W50907  43.660  40.561   3.664
79182W        W50908   0.923  10.100  11.218
79183W        W50909   9.788  31.550  10.828
79184W        W50910  23.803  39.275   0.558
79185W        W50911   3.899  25.644  11.104
79186W        W50912  33.823  22.994   2.918
79187W        W50913  13.137  42.604   0.577
79188W        W50914  36.921  13.690   0.180
79189W        W50915   1.403  31.610   4.266
79190W        W50916  17.590  20.469   0.917
79191W        W50917  32.484   0.998  10.805
79192W        W50918  26.653  17.532  14.486
79193W        W50919  22.794  10.807   3.173
79194W        W50920  42.624  23.763  10.188
79195W        W50921  18.246  42.607  11.850
79196W        W50922  28.198  23.333   4.146
79197W        W50923  25.673  19.376   0.826
79198W        W50924  27.575   7.669   1.826
79199W        W50925  39.272  35.265   1.401
79200W        W50926  43.771  10.899   2.264
79201W        W50927  34.265  44.312  11.930
79202W        W50928  14.200   3.101  13.246
79203W        W50929  28.468   2.976   2.126
79204W        W50930  23.636  37.441   1.924
79205W        W50931   4.643  43.973  11.966
79206W        W50932  22.284  22.559  12.098
79207W        W50933  44.194  44.717  12.093
79208W        W50934   3.446  36.924   1.871
79209W        W50935  37.105  38.766   3.682
79210W        W50936  23.657  40.519   4.105
79211W        W50937   1.236  27.976  14.319
79212W        W50938   2.854  37.336   2.702
79213W        W50939  11.760   5.452  10.652
79214W        W50940  39.299  19.065  14.762
79215W        W50941  10.898   1.647  11.996
79216W        W50942  33.956  36.358  13.304
79217W        W50943   3.443  37.996  12.719
79218W        W50944  21.858  18.276  12.578
79219W        W50945  11.888  24.942  13.306
79220W        W50946  25.006   5.561  13.317
79221W        W50947  12.893  20.222  11.152
79222W        W50948  30.070  14.539   4.685
79223W        W50949  14.789  33.972  10.968
79224W        W50950   2.480  35.014   2.579
79225W        W50951  13.604  39.910   1.054
79226W        W50952  26.938   5.577   3.846
79227W        W50953  28.499   4.250  13.432
79228W        W50954  15.393  42.738   0.186
79229W        W50955  26.996   2.328  14.324
79230W        W50956  17.144  11.608   1.322
79231W        W50957  22.214  37.954   3.674
79232W        W50958  43.470  17.404   4.044
79233W        W50959  41.804  35.601  11.967
79234W        W50960  28.720   0.982   2.189
79235W        W50961  14.772  32.120   1.309
79236W        W50962  21.007  34.869  14.266
79237W        W50963  26.368   5.008   1.739
79238W        W50964  18.949   3.199  11.136
79239W        W50965  27.830  31.672   3.292
79240W        W50966  35.878  16.233  10.613
79241W        W50967  13.533   3.858  12.613
79242W        W50968  14.367  19.098   4.433
79243W        W50969  40.554   3.598  12.496
79244W        W50970  41.402  15.224  12.970
79245W        W50971  40.470  23.236   1.759
79246W        W50972   3.915  43.179   2.337
79247W        W50973  18.048  38.684   2.458
79248W        W50974  41.975  25.587   3.770
79249W        W50975   9.779  24.655   2.295
79250W        W50976   1.285  12.101  14.304
79251W        W50977  43.749  30.582   1.992
79252W        W50978  24.970  35.906   0.772
79253W        W50979  10.814  23.719  10.130
79254W        W50980  12.318  27.941   0.810
79255W        W50981  13.815  44.825   0.710
79256W        W50982  31.009  43.668  14.305
79257W        W50983  15.759  13.331  10.632
79258W        W50984  43.326  36.523   2.230
79259W        W50985   6.826  10.837   1.206
79260W        W50986  30.027  20.848  14.076
79261W        W50987  30.599  23.615  10.610
79262W        W50988  29.218  24.725   2.448
79263W        W50989  40.583   6.245   1.446
79264W        W50990  41.003   3.374   0.991
79265W        W50991  11.897  40.399  11.151
79266W        W50992   4.124  10.152  11.535
79267W        W50993  11.378  32.291   2.643
79268W        W50994   0.359  43.483   0.792
79269W        W50995  43.498  20.195   1.953
79270W        W50996  20.538  40.927  14.005
79271W        W50997  34.272  33.475  14.811
79272W        W50998  19.477  14.217  12.121
79273W        W50999  17.414  25.134  11.604
79274W        W51000  33.418  14.280  10.407
79275W        W51001  28.072  34.890   3.688
79276W        W51002  25.354  26.951  10.461
79277W        W51003  26.464  33.693  13.850
79278W        W51004  41.797  24.076   1.236
79279W        W51005  40.349  31.581  10.651
79280W        W51006   7.149  44.744   0.651
79281W        W51007  19.299  17.170  12.859
79282W        W51008  27.635  14.285   0.970
79283W        W51009  28.127  28.454   1.143
79284W        W51010  30.159  38.360   1.618
79285W        W51011   9.373  39.914   4.859
79286W        W51012   0.926  34.005   0.258
79287W        W51013   1.343  21.633   3.713
79288W        W51014   0.881   3.714  13.903
79289W        W51015  36.567  43.460   0.962
79290W        W51016  35.623  23.080   4.536
79291W        W51017  12.641  28.025  14.426
79292W        W51018  23.887  27.297   5.517
79293W        W51019  20.676  26.095  14.812
79294W        W51020   0.342  25.146  13.137
79295W        W51021  25.300  32.525   0.874
79296W        W51022  16.682  27.544  13.624
79297W        W51023  30.926  43.942  14.752
79298W        W51024   2.816  16.794  13.175
79299W        W51025  28.943  32.905   2.979
79300W        W51026  24.421  24.530  13.696
79301W        W51027   8.817   0.102  10.878
79302W        W51028  38.550  26.767   2.176
79303W        W51029  32.701  33.035  13.683
79304W        W51030   9.673  40.793   0.799
79305W        W51031   4.780   3.574   3.340
79306W        W51032  28.449  31.942   2.349
79307W        W51033  41.401   6.207   0.848
79308W        W51034  22.249  13.120   4.937
79309W        W51035  22.990  10.470   4.815
79310W        W51036   9.777  36.663  10.639
79311W        W51037   9.846  21.989   3.075
79312W        W51038   2.770  44.418  14.311
79313W        W51039  36.023  13.269  10.801
79314W        W51040  13.792  26.408   0.409
79315W        W51041  32.231  23.451   5.491
79316W        W51042  23.364  12.573  14.460
79317W        W51043  28.555   6.307  12.654
79318W        W51044   5.944  19.655  12.632
79319W        W51045  25.149  22.616   1.213
79320W        W51046  10.306  38.471   4.560
79321W        W51047  15.232   6.778  14.578
79322W        W51048   0.461  13.108  14.525
79323W        W51049  24.818  35.457   1.957
79324W        W51050  40.474   6.159  13.074
79325W        W51051  19.800  30.447  11.598
79326W        W51052  36.848  41.479   1.869
79327W        W51053  27.211  29.698   4.036
79328W        W51054  44.707  12.285   2.652
79329W        W51055  29.155   2.377  14.707
79330W        W51056  25.626  30.613   0.211
79331W        W51057  18.646  21.709  14.059
79332W        W51058  27.135  19.643  13.203
79333W        W51059  27.770   2.230   4.239
79334W        W51060  26.001  37.352   3.745
79335W        W51061   2.025   1.902   3.735
79336W        W51062   3.726  38.097  14.119
79337W        W51063  16.717  18.146  12.131
79338W        W51064  24.592   1.942   0.426
79339W        W51065  33.100  21.816   1.319
79340W        W51066   9.314   4.857  13.505
79341W        W51067  43.506  15.417   0.167
79342W        W51068  11.834   8.616  13.471
79343W        W51069  40.001  14.805  12.026
79344W        W51070  12.850  10.367  14.943
79345W        W51071  14.791  40.772   3.337
79346W        W51072  42.470   2.517  13.352
79347W        W51073  25.997   9.906   1.835
79348W        W51074  31.596  37.918   2.381
79349W        W51075  21.149  34.460  11.271
79350W        W51076  15.689  41.182  12.142
79351W        W51077  20.812  23.166  11.957
79352W        W51078  14.111  39.872   0.974
79353W        W51079  23.588   2.735   4.316
79354W        W51080  27.446  11.759   3.304
79355W        W51081  18.123  30.783   3.046
79356W        W51082   1.847  10.234  13.572
79357W        W51083  27.442  25.986   0.287
79358W        W51084  13.189  42.206  14.733
79359W        W51085  43.765  13.070  11.165
79360W        W51086  17.244   6.324   4.665
79361W        W51087  11.227  27.884   1.602
79362W        W51088  31.477  18.227  10.519
79363W        W51089  14.735  17.978  14.254
79364W        W51090  29.312  38.413  14.918
79365W        W51091  37.382  36.661   0.832
79366W        W51092   0.067  29.509  12.079
79367W        W51093  20.587  40.091   3.140
79368W        W51094  15.268  40.645   2.462
79369W        W51095   5.713  33.901  11.624
79370W        W51096  20.783  30.588   1.662
79371W        W51097  18.228  10.909  12.151
79372W        W51098  16.536  15.227  13.420
79373W        W51099   1.797  25.332  13.177
79374W        W51100  11.735   7.281   1.265
79375W        W51101  17.701  44.708  11.560
79376W        W51102  24.497   4.906   1.891
79377W        W51103  23.836  39.986   2.387
79378W        W51104  18.238  43.525  10.640
79379W        W51105   9.261  43.518   2.874
79380W        W51106   6.813  25.070  11.563
79381W        W51107  26.238  44.383   2.215
79382W        W51108  37.985  36.116   4.494
79383W        W51109  15.318  20.245   4.833
79384W        W51110   8.722  26.009   0.565
79385W        W51111  43.851   0.331  13.340
79386W        W51112  29.987  35.376  11.735
79387W        W51113  20.301   8.192  11.578
79388W        W51114  23.797   0.840  10.957
79389W        W51115  38.785  35.098   1.492
79390W        W51116  10.875  30.529  14.447
79391W        W51117  40.465   3.399   4.514
79392W        W51118  20.483  24.551  13.703
79393W        W51119  31.736   1.914  12.200
79394W        W51120  19.740  25.998  12.509
79395W        W51121  37.586   5.346   2.251
79396W        W51122  16.777  31.582  11.290
79397W        W51123  38.091  31.990   3.807
79398W        W51124  21.620  43.067  13.243
79399W        W51125  38.042  20.830   4.218
79400W        W51126   7.149  31.039  12.838
79401W        W51127  23.306  39.407   0.458
79402W        W51128  20.805   6.975  14.357
79403W        W51129   4.357  42.277   4.916
79404W        W51130  36.873  31.439   3.638
79405W        W51131  16.242  15.582  12.564
79406W        W51132  15.789  27.666  13.077
79407W        W51133   2.438  33.883  12.082
79408W        W51134   9.408  24.272  13.844
79409W        W51135  17.774  41.372   2.889
79410W        W51136   9.147  24.481   3.768
79411W        W51137  33.925   3.611   3.613
79412W        W51138  10.670  32.720   3.039
79413W        W51139  43.980   9.890   3.409
79414W        W51140  11.324  35.537   9.323
79415W        W51141   6.407  42.211  13.474
79416W        W51142   5.106   3.360  12.947
79417W        W51143  35.788  37.348   3.686
79418W        W51144  13.659  10.652  13.464
79419W        W51145  44.254   1.878   3.131
79420W        W51146  36.404   1.817   5.083
79421W        W51147  32.708   5.188   4.590
79422W        W51148  28.264  14.444   5.053
79423W        W51149  23.993   4.040  14.268
79424W        W51150  39.412  27.448   4.970
79425W        W51151  35.460  18.709   2.404
79426W        W51152  21.446  24.266   4.512
79427W        W51153  42.643   1.436   4.858
79428W        W51154  19.852  37.427   2.664
79429W        W51155  24.983  37.541   4.584
79430W        W51156  12.020  11.568  13.890
79431W        W51157  37.318  24.203   2.718
79432W        W51158   2.947   7.391   2.932
79433W        W51159   7.242  42.404  13.222
79434W        W51160  30.044  23.182  13.490
79435W        W51161  36.463  16.430   2.706
79436W        W51162  25.024  34.544   3.594
79437W        W51163  41.018  43.905  12.426
79438W        W51164  22.742  32.905  11.585
79439W        W51165  44.853  37.354  13.487
79440W        W51166  24.613  18.046   4.571
79441W        W51167  32.896  27.485   2.309
79442W        W51168  34.480  30.180   4.096
79443W        W51169  29.359  28.220  11.224
79444W        W51170  42.764  24.492   3.938
79445W        W51171   4.128  30.557  14.926
79446W        W51172   5.728  30.468   3.128
79447W        W51173  24.552  26.761   4.123
79448W        W51174  44.247   1.048   1.715
79449W        W51175   3.122  39.857  10.937
79450W        W51176  33.034   5.455   3.668
79451W        W51177  18.587   4.354   2.762
79452W        W51178  13.829   6.186  12.086
79453W        W51179  24.408  19.604   3.302
79454W        W51180  35.720  11.821  10.757
79455W        W51181   9.603  14.658   3.133
79456W        W51182   5.725   5.238   3.236
79457W        W51183  38.426   4.431   3.363
79458W        W51184  29.306  16.662  12.039
79459W        W51185  33.600   0.971  14.962
79460W        W51186  11.624  38.879  11.776
79461W        W51187  26.703  29.512   4.072
79462W        W51188  41.480  30.806   0.878
79463W        W51189  40.669  38.850   3.243
79464W        W51190  42.687   2.898   4.570
79465W        W51191  25.763  43.875   1.214
79466W        W51192  29.501  43.963   4.597
79467W        W51193   7.624  27.090   4.943
79468W        W51194   9.963  25.395   0.166
79469W        W51195   1.805  29.700  14.914
79470W        W51196  10.277  29.075  11.945
79471W        W51197  44.876   8.693   4.593
79472W        W51198   3.004  44.305  14.745
79473W        W51199  11.886  29.446   1.184
79474W        W51200  39.213  14.260   3.637
79475W        W51201  29.576   0.919  12.030
79476W        W51202  18.299  22.090  11.972
79477W        W51203   8.337  43.319   4.227
79478W        W51204  34.476  41.806   0.741
79479W        W51205  37.409  33.611   0.944
79480W        W51206  43.737  11.418   2.236
79481W        W51207  28.461  40.504  12.533
79482W        W51208  30.375  32.637  14.553
79483W        W51209  41.251  33.397  12.657
79484W        W51210  13.894  27.098   4.656
79485W        W51211  11.598   9.287  12.886
79486W        W51212   5.451   1.919  11.295
79487W        W51213  11.328  27.904   4.066
79488W        W51214   8.693  27.399   2.530
79489W        W51215   7.151  26.918  14.939
79490W        W51216  27.586   1.782   2.413
79491W        W51217  16.520  21.566  13.049
79492W        W51218  35.129  40.416   4.675
79493W        W51219  36.114  26.155  11.842
79494W        W51220  30.067   3.715   0.154
79495W        W51221   7.466  35.951  11.506
79496W        W51222  44.906   2.230  12.066
79497W        W51223  29.490  41.109  13.525
79498W        W51224   2.064  43.436   1.747
79499W        W51225  37.818  33.044  13.638
79500W        W51226  23.656  12.113  14.542
79501W        W51227  17.638   8.385  11.184
79502W        W51228  37.615  27.961  11.377
79503W        W51229  26.890  19.192   1.449
79504W        W51230   8.256  13.846   0.231
79505W        W51231   9.264  23.080   5.506
79506W        W51232   2.904  39.251   4.561
79507W        W51233  25.657  15.000   1.221
79508W        W51234   5.849  36.887  14.034
79509W        W51235  20.247  26.219  11.465
79510W        W51236  42.227  18.696  12.951
79511W        W51237   3.249   6.352   0.229
79512W        W51238   8.618  26.415   2.286
79513W        W51239  42.427  31.669  10.673
79514W        W51240  25.037  23.025  14.896
79515W        W51241  37.465  11.850  13.017
79516W        W51242   4.185   7.275   2.454
79517W        W51243  26.601  34.691  10.990
79518W        W51244   4.660  27.703  12.964
79519W        W51245  17.286  15.794  13.299
79520W        W51246  31.459  16.239   4.499
79521W        W51247  41.725  34.085   1.662
79522W        W51248  42.824   7.280  14.511
79523W        W51249  26.925  28.082   2.375
79524W        W51250  40.432  36.711  10.932
79525W        W51251  30.633   3.165   0.804
79526W        W51252  13.164  26.784  11.163
79527W        W51253  13.076   6.990  11.125
79528W        W51254  40.490  14.170  12.529
79529W        W51255  36.115  40.436  14.786
79530W        W51256   8.720  19.141  12.140
79531W        W51257  19.050  38.687  13.584
79532W        W51258  39.126  18.689   2.289
79533W        W51259   4.885  12.398  11.552
79534W        W51260  33.012  37.397   0.933
79535W        W51261  30.855   5.074  11.954
79536W        W51262  26.450  39.834  10.316
79537W        W51263  30.029  26.642  10.108
79538W        W51264  35.378   6.668   4.138
79539W        W51265  25.648  10.176   2.156
79540W        W51266  24.798  30.121  10.831
79541W        W51267  18.693   9.324  14.229
79542W        W51268  44.304  42.576  12.486
79543W        W51269  33.585   0.088   1.765
79544W        W51270  10.857   7.922   0.311
79545W        W51271  30.856  22.078  14.419
79546W        W51272  39.588  41.367   2.021
79547W        W51273  13.169  43.689   1.705
79548W        W51274  19.175  33.771  11.017
79549W        W51275   2.867  12.027   1.448
79550W        W51276   8.321  33.351  11.029
79551W        W51277  44.322   2.466   0.013
79552W        W51278  21.748  15.727  10.156
79553W        W51279  44.751  28.925  13.835
79554W        W51280  24.146  28.076   2.456
79555W        W51281  20.444  30.548  10.543
79556W        W51282  26.043  18.125   4.123
79557W        W51283  14.049  19.823  14.505
79558W        W51284  36.988  11.367  14.767
79559W        W51285  31.065   6.621   0.811
79560W        W51286   2.460  38.098  14.217
79561W        W51287  40.464   5.344  10.391
79562W        W51288   3.262   8.943   4.524
79563W        W51289  18.494  15.681  10.385
79564W        W51290  34.568  22.498  12.029
79565W        W51291  13.119  13.325   5.049
79566W        W51292  30.926  33.744  12.307
79567W        W51293   5.704  14.616  14.921
79568W        W51294  33.306  16.374  10.787
79569W        W51295  32.255  42.294  11.094
79570W        W51296  33.057  42.010  12.099
79571W        W51297  10.888  17.735   4.683
79572W        W51298  14.969  42.058  14.451
79573W        W51299  37.904  10.608  14.064
79574W        W51300  26.024  43.679   5.076
79575W        W51301  40.110   9.085   2.692
79576W        W51302  28.120  19.233  14.286
79577W        W51303  29.031  16.834   4.988
79578W        W51304   3.450  24.702  14.435
79579W        W51305   6.393  40.882  11.028
79580W        W51306   6.271   6.332   3.601
79581W        W51307  13.614   9.925  11.973
79582W        W51308   8.200  32.011   5.110
79583W        W51309  20.826  30.022  14.010
79584W        W51310  23.201   2.193  13.404
79585W        W51311  13.128  16.860  12.087
79586W        W51312  26.009  11.295   4.514
79587W        W51313  23.829  26.933  11.604
79588W        W51314  15.760  40.302   3.692
79589W        W51315   8.748   9.228   1.734
79590W        W51316  24.617   5.993   4.224
79591W        W51317  22.590   8.554  10.555
79592W        W51318   4.162  18.331  13.467
79593W        W51319  24.102  16.101   2.152
79594W        W51320  18.688  43.289   2.473
79595W        W51321  29.761   3.086   0.679
79596W        W51322  16.827   1.559  10.769
79597W        W51323   0.344  21.324   5.089
79598W        W51324  31.219  32.259  11.497
79599W        W51325  19.307  27.170  12.100
79600W        W51326  40.513  12.263   4.767
79601W        W51327  17.155  22.170  14.227
79602W        W51328  34.926  32.563   0.780
79603W        W51329  20.743   1.656  13.440
79604W        W51330   6.774  36.614  14.601
79605W        W51331  11.901   1.414  12.075
79606W        W51332   5.404   0.709  13.800
79607W        W51333  34.784  18.232  10.824
79608W        W51334  12.253  28.064   2.914
79609W        W51335  21.474  40.948   3.953
79610W        W51336  41.775  28.098  11.719
79611W        W51337  29.419  22.243   0.352
79612W        W51338  17.199  36.807  14.816
79613W        W51339  44.374  29.602   1.336
79614W        W51340  33.943   7.386   0.928
79615W        W51341  24.496   6.523  12.032
79616W        W51342  22.995  30.279  14.367
79617W        W51343  19.227   3.982   4.123
79618W        W51344   7.317   6.662  10.469
79619W        W51345  16.202   8.808  12.457
79620W        W51346   1.769  34.046   0.529
79621W        W51347  17.303  36.578  10.989
79622W        W51348   5.326  24.021  11.128
79623W        W51349   4.529  13.844   3.239
79624W        W51350  41.504   5.240   1.101
79625W        W51351  27.383  16.638  14.473
79626W        W51352  33.897   4.741  14.501
79627W        W51353  38.579  35.530  14.005
79628W        W51354  40.040  17.112   3.436
79629W        W51355   6.656   6.793   1.213
79630W        W51356  34.320   0.828   3.896
79631W        W51357  17.621  11.357   0.424
79632W        W51358  42.923  14.677   0.854
79633W        W51359  31.577  25.698  14.449
79634W        W51360  30.835  18.748  14.826
79635W        W51361   6.319  36.325  14.549
79636W        W51362  15.878  42.001  12.340
79637W        W51363  41.621  42.635   4.346
79638W        W51364  15.876  43.373   3.669
79639W        W51365  31.055  25.171   4.150
79640W        W51366  16.518  18.804  10.825
79641W        W51367  37.960  10.826  13.060
79642W        W51368  30.281  29.045  10.420
79643W        W51369  31.810  31.013   5.389
79644W        W51370  10.296  11.371   1.704
79645W        W51371  14.921  12.240   1.410
79646W        W51372  29.752  21.317   1.289
79647W        W51373  33.879  21.135  12.812
79648W        W51374  11.583   1.261  14.291
79649W        W51375   1.912  17.302  12.971
79650W        W51376  10.457  26.133   9.985
79651W        W51377  22.966  30.126  13.604
79652W        W51378  30.023  15.179   1.485
79653W        W51379  21.568   6.279  12.027
79654W        W51380  33.950  13.181  11.597
79655W        W51381  12.168  24.208   4.610
79656W        W51382  22.667  22.117  10.503
79657W        W51383  14.248  35.547  14.394
79658W        W51384  25.266   3.954   4.899
79659W        W51385   4.902  14.932   0.810
79660W        W51386  32.430  25.080   4.257
79661W        W51387  43.925  38.766   1.421
79662W        W51388  28.150  21.476   1.657
79663W        W51389  11.222  27.678  11.875
79664W        W51390  42.816   8.741  12.038
79665W        W51391  29.728   5.952  12.572
79666W        W51392  33.494  20.623  14.004
79667W        W51393   8.872  40.247  10.713
79668W        W51394  27.729   5.774   0.744
79669W        W51395   9.738  26.974   3.875
79670W        W51396   1.097  43.432   2.454
79671W        W51397  16.358  35.510  10.629
79672W        W51398   1.698   5.282  13.498
79673W        W51399  19.497   1.367   4.577
79674W        W51400  42.026   1.358   2.632
79675W        W51401  25.770   2.904  13.356
79676W        W51402  39.340   0.419   3.322
79677W        W51403  27.541  34.122  11.604
79678W        W51404   3.478  14.416   5.204
79679W        W51405  24.291  12.294   0.316
79680W        W51406  25.399   2.305  14.457
79681W        W51407  36.222  35.666  11.933
79682W        W51408  40.330  30.883   0.737
79683W        W51409  38.864  13.017  10.702
79684W        W51410  24.283  24.181   2.771
79685W        W51411  38.996  30.969   4.173
79686W        W51412  17.355  15.678  14.693
79687W        W51413  31.000  44.717   3.098
79688W        W51414   7.421  35.590   3.461
79689W        W51415   7.356  43.388  14.001
79690W        W51416   0.200   8.780  11.134
79691W        W51417  36.137  26.708  14.545
79692W        W51418  16.063   8.346   4.613
79693W        W51419  30.523   9.389  11.957
79694W        W51420  14.105  35.266  11.081
79695W        W51421   1.478  37.849  13.938
79696W        W51422  22.064  15.318  10.087
79697W        W51423   1.946  21.152   2.767
79698W        W51424  43.021  22.692   3.642
79699W        W51425   9.809   8.684  11.590
79700W        W51426  24.733  42.827   0.789
79701W        W51427  17.482   1.154  10.633
79702W        W51428   8.699  14.325  10.638
79703W        W51429   5.439  25.038   4.185
79704W        W51430  22.023  16.527  14.468
79705W        W51431  36.600   1.324  11.612
79706W        W51432  42.289  43.410   4.067
79707W        W51433  28.888  14.277   0.907
79708W        W51434  36.497  16.054   4.582
79709W        W51435  28.924  28.916  10.700
79710W        W51436  38.285  39.835   1.732
79711W        W51437  14.444   1.800  11.617
79712W        W51438  36.293  27.949  12.238
79713W        W51439  37.538  39.908  14.366
79714W        W51440  22.109  15.632   0.035
79715W        W51441  29.190   5.213   2.627
79716W        W51442   2.284   2.453  12.462
79717W        W51443  14.513  19.190  13.495
79718W        W51444  22.700  38.482  12.301
79719W        W51445  24.045  17.623  14.243
79720W        W51446   4.283  18.366   1.287
79721W        W51447   7.583   3.846  13.997
79722W        W51448  44.301  23.238  12.138
79723W        W51449   4.467  25.534   3.602
79724W        W51450   8.667  41.875   0.834
79725W        W51451  19.006  10.840   0.402
79726W        W51452   1.947  12.784  14.962
79727W        W51453  31.511  37.432  13.062
79728W        W51454  21.739  39.050   4.557
79729W        W51455  33.957  16.765   4.674
79730W        W51456  43.850   9.299   1.389
79731W        W51457   9.752   0.806   4.088
79732W        W51458  29.615  14.855   0.219
79733W        W51459   5.362  39.491   1.339
79734W        W51460   8.601  36.010   2.316
79735W        W51461  34.516  29.651   0.863
79736W        W51462  35.846  43.712  11.160
79737W        W51463   2.959  12.619   3.727
79738W        W51464  30.098  16.451  14.310
79739W        W51465  14.642   1.332  13.863
79740W        W51466  22.787  12.383   4.997
79741W        W51467  31.666  27.165  14.428
79742W        W51468  20.182  38.134  12.970
79743W        W51469  18.736  22.117  13.278
79744W        W51470  13.953  39.503   2.801
79745W        W51471  39.438   7.588  11.546
79746W        W51472   0.764  37.676   3.824
79747W        W51473  35.325  14.540  12.906
79748W        W51474   4.651  23.790  13.969
79749W        W51475   6.369  31.092  13.600
79750W        W51476  16.766  29.408  12.417
79751W        W51477  31.587  20.813   4.284
79752W        W51478   9.412   3.742  10.343
79753W        W51479  11.069  37.415  14.431
79754W        W51480  25.576   8.938  11.436
79755W        W51481  19.135  18.303   0.966
79756W        W51482  11.224  28.542   1.358
79757W        W51483  42.871   1.743   3.124
79758W        W51484  29.137  18.147  14.044
79759W        W51485  42.998   5.632   1.632
79760W        W51486  30.910  43.615   5.392
79761W        W51487  39.561  10.264   4.635
79762W        W51488  44.386   5.229   3.561
79763W        W51489  44.085  42.485   3.007
79764W        W51490  30.080  31.822  11.037
79765W        W51491  38.221  14.569   1.717
79766W        W51492   9.399  38.402   0.352
79767W        W51493  17.214  40.473   1.593
79768W        W51494  38.918   1.948  12.405
79769W        W51495   0.228  22.123   3.340
79770W        W51496   7.287  36.035   2.749
79771W        W51497  16.856  34.787  11.018
79772W        W51498  11.593  30.106   3.707
79773W        W51499  20.053  44.915  13.820
79774W        W51500   3.484  22.243  12.108
79775W        W51501  14.782  38.047  12.573
79776W        W51502   9.822  14.052   0.358
79777W        W51503  26.016  42.927  13.933
79778W        W51504  24.112   4.651  12.917
79779W        W51505  29.092  21.315   3.744
79780W        W51506  40.937  23.658   0.105
79781W        W51507  28.614  13.780  12.699
79782W        W51508   7.410   7.205  10.591
79783W        W51509   3.863  38.618  12.939
79784W        W51510  29.063  40.450   0.782
79785W        W51511   7.224  30.415  11.262
79786W        W51512  40.612  24.080   4.971
79787W        W51513   2.656   1.419   4.725
79788W        W51514  16.214  37.572   0.501
79789W        W51515  29.022   7.869   4.075
79790W        W51516  32.432  41.680   4.729
79791W        W51517  23.054   7.664   3.847
79792W        W51518  27.067  31.032   4.637
79793W        W51519  39.019  28.921  11.171
79794W        W51520  33.861  20.658   4.882
79795W        W51521   0.764  39.335   3.172
79796W        W51522  17.706   4.226  10.802
79797W        W51523  24.239  34.942  14.434
79798W        W51524   6.503   9.098  13.836
79799W        W51525   7.592  39.763  11.391
79800W        W51526  44.714   3.314   1.146
79801W        W51527  34.889  16.288  11.861
79802W        W51528  24.016   4.962  11.564
79803W        W51529  19.209  31.114  13.552
79804W        W51530  18.866  40.072   4.546
79805W        W51531  42.769  23.148  11.617
79806W        W51532  12.819  36.986   1.622
79807W        W51533  40.985  13.330   1.010
79808W        W51534  31.551  20.093   4.761
79809W        W51535  38.870  37.957   0.929
79810W        W51536  20.606  38.362   4.248
79811W        W51537   2.927  32.676   3.300
79812W        W51538  41.999   8.337   4.682
79813W        W51539  35.502  42.370   4.785
79814W        W51540   3.205  43.925   0.965
79815W        W51541  44.550   6.723  11.247
79816W        W51542   9.358  25.290  11.061
79817W        W51543  10.956  17.493   2.378
79818W        W51544   6.293   2.506  10.701
79819W        W51545   9.221  13.855  12.571
79820W        W51546   5.343  19.536   1.807
79821W        W51547  40.847  24.800   0.918
79822W        W51548  18.151  43.291  13.729
79823W        W51549  23.247   5.921  13.877
79824W        W51550  14.752  36.321   2.123
79825W        W51551  44.545  24.711  14.738
79826W        W51552  31.359   7.689  12.834
79827W        W51553  23.515  38.575   4.102
79828W        W51554  34.081  30.397   0.638
79829W        W51555  38.818  35.875  13.463
79830W        W51556  17.650   9.292   2.741
79831W        W51557  30.170   2.058  13.632
79832W        W51558  14.825  26.222   4.185
79833W        W51559  18.303  27.904   2.828
79834W        W51560  10.085  37.911  14.969
79835W        W51561  27.154  22.094  13.373
79836W        W51562  25.453  11.744  14.949
79837W        W51563  16.403  43.570  12.733
79838W        W51564  15.630  20.260   0.467
79839W        W51565  27.064  43.537  10.663
79840W        W51566   8.450   1.670   4.933
79841W        W51567  26.441  24.607  12.877
79842W        W51568  38.516  42.430   2.209
79843W        W51569  39.793  34.481  11.987
79844W        W51570  38.885  29.140   1.362
79845W        W51571  16.602  29.438  13.366
79846W        W51572  37.067  26.171  12.121
79847W        W51573  29.108  36.898   0.729
79848W        W51574  26.787  14.237   3.696
79849W        W51575  12.061  31.518  13.872
79850W        W51576  14.271  39.315  12.371
79851W        W51577  18.719  12.617  11.637
79852W        W51578  14.800  33.830  10.471
79853W        W51579  17.564  26.191   1.619
79854W        W51580  39.600  32.058   1.698
79855W        W51581   7.400  24.726   4.735
79856W        W51582  28.605  11.928   1.653
79857W        W51583  20.092   7.162  13.445
79858W        W51584  27.475  30.398  13.407
79859W        W51585  32.501  17.213  10.057
79860W        W51586  44.518  29.358  13.462
79861W        W51587  26.661  34.649  11.917
79862W        W51588   2.819  24.162   4.421
79863W        W51589  28.483   5.481  12.016
79864W        W51590  24.515  36.348   1.929
79865W        W51591   8.379  14.784   4.637
79866W        W51592  20.558  30.416  14.217
79867W        W51593  39.115  21.545   0.303
79868W        W51594   8.252   3.677   3.734
79869W        W51595  25.703  34.435  14.345
79870W        W51596  39.906   5.913   4.156
79871W        W51597  16.853   3.454  12.897
79872W        W51598  30.852   8.809  14.300
79873W        W51599  35.985   3.346  11.517
79874W        W51600  24.371  42.918   2.722
79875W        W51601  31.890   7.297   1.832
79876W        W51602  25.493  42.077  11.140
79877W        W51603  28.971   3.626   4.561
79878W        W51604   4.415   4.662   0.571
79879W        W51605  24.800  38.806   2.802
79880W        W51606  14.232  37.448   3.747
79881W        W51607   6.918  27.372   0.268
79882W        W51608  20.815  39.746   4.122
79883W        W51609  36.401  44.986   0.898
79884W        W51610  31.141  32.279  12.335
79885W        W51611  41.257  12.611   1.625
79886W        W51612  34.434   3.448   3.718
79887W        W51613   7.178  20.256   4.531
79888W        W51614  42.865   6.322   0.702
79889W        W51615  38.820  27.035   4.701
79890W        W51616  16.414  14.559  13.993
79891W        W51617  13.979   1.883   0.861
79892W        W51618   3.325  40.709  13.391
79893W        W51619  33.659  37.798   2.252
79894W        W51620   2.316  40.126  11.588
79895W        W51621   5.183  39.298  11.477
79896W        W51622  29.867  15.868   4.389
79897W        W51623  17.596  32.541   0.386
79898W        W51624  38.919  32.633  11.358
79899W        W51625  39.001   0.833   3.166
79900W        W51626  32.170  31.568   2.613
79901W        W51627  28.678  37.108  13.439
79902W        W51628   8.431  42.466  14.916
79903W        W51629   4.432  11.858   1.530
79904W        W51630  23.729   9.864   3.682
79905W        W51631  12.924  25.629  10.664
79906W        W51632  29.398  30.625  12.977
79907W        W51633  42.844  10.862  14.240
79908W        W51634  21.074  27.860  10.659
79909W        W51635  18.467  38.654  13.071
79910W        W51636  11.084   6.737   0.008
79911W        W51637  17.813  44.459  11.124
79912W        W51638  24.528  10.339  13.014
79913W        W51639  14.221   2.429   4.809
79914W        W51640  22.052  41.304   3.080
79915W        W51641   2.905  41.281  14.441
79916W        W51642  35.592  35.472   0.727
79917W        W51643   5.177  23.268   3.692
79918W        W51644  25.528  29.580  11.966
79919W        W51645   9.259  27.032  11.516
79920W        W51646  37.124  30.761   4.048
79921W        W51647  22.647   1.249  11.548
79922W        W51648  20.020   8.853  12.366
79923W        W51649   3.882  38.256   2.266
79924W        W51650  20.746  25.113  10.937
79925W        W51651  21.618  42.517  14.039
79926W        W51652  27.906  33.540  10.234
79927W        W51653  36.095  21.966   0.115
79928W        W51654   1.482   7.023   3.122
79929W        W51655  29.186  32.207  11.969
79930W        W51656  10.332  28.673  11.415
79931W        W51657   3.747  15.608   9.997
79932W        W51658  17.784  15.828  11.363
79933W        W51659   1.764  24.113   1.959
79934W        W51660  40.631   5.519   3.709
79935W        W51661   8.383  44.868  11.029
79936W        W51662  29.071  16.917  12.476
79937W        W51663  38.319  27.151   4.704
79938W        W51664  26.394  34.541   1.413
79939W        W51665  37.521  16.283  14.688
79940W        W51666  34.387  43.682  13.444
79941W        W51667  31.833  24.664   1.460
79942W        W51668  20.319   5.333   2.841
79943W        W51669   2.219  30.894   1.173
79944W        W51670   2.313  34.570  12.620
79945W        W51671  27.601  34.973   3.198
79946W        W51672  35.530  12.681   3.902
79947W        W51673   3.720  34.116   2.585
79948W        W51674  18.527  12.574   3.580
79949W        W51675   5.320  37.343  12.153
79950W        W51676   7.193  15.929   2.697
79951W        W51677  22.225  21.026   1.731
79952W        W51678   6.933   3.728   3.122
79953W        W51679  21.938  34.472   0.747
79954W        W51680  30.222  23.421   5.396
79955W        W51681  39.118   9.236   0.480
79956W        W51682  26.975  43.310  12.436
79957W        W51683  21.414  39.610  14.293
79958W        W51684  28.922   4.749   0.570
79959W        W51685  34.705  37.993   0.739
79960W        W51686   5.375  10.731  14.328
79961W        W51687  17.253  15.718   4.191
79962W        W51688  31.253  36.404  12.339
79963W        W51689  27.568  32.162  14.420
79964W        W51690   8.025  40.841  13.907
79965W        W51691   1.566  15.702   4.133
79966W        W51692  43.370   4.502  12.776
79967W        W51693  18.673   7.161  12.627
79968W        W51694  19.642   8.497   3.204
79969W        W51695  16.698  42.923   0.856
79970W        W51696  33.602   4.454  13.102
79971W        W51697  43.718  23.132   0.908
79972W        W51698  32.591  23.499   4.218
79973W        W51699  28.930  30.353   4.702
79974W        W51700   4.411  24.112  13.085
79975W        W51701   6.690  13.142  12.509
79976W        W51702   3.818   0.741  12.619
79977W        W51703  30.558  16.220   1.480
79978W        W51704  20.125  15.657  11.158
79979W        W51705  37.487   9.269  13.863
79980W        W51706  12.165  22.812  12.454
79981W        W51707  35.554  23.956   1.370
79982W        W51708   2.418  39.418   4.591
79983W        W51709  35.167  37.404  12.963
79984W        W51710  36.108  43.647   3.580
79985W        W51711   8.729  42.078   3.651
79986W        W51712  33.892   3.209  11.588
79987W        W51713  42.542  35.481  11.502
79988W        W51714  36.911  37.914  14.398
79989W        W51715  44.804   7.946   1.321
79990W        W51716  41.432   5.235  10.873
79991W        W51717  39.737  21.520   4.947
79992W        W51718   6.767   6.266   3.766
79993W        W51719  32.983  16.941  12.628
79994W        W51720  13.373  38.829   3.262
79995W        W51721  13.138  15.513  12.391
79996W        W51722   7.750  39.799  14.773
79997W        W51723  26.923  42.032  12.132
79998W        W51724  38.435  41.477  10.599
79999W        W51725  44.924  29.655  13.341
80000W        W51726  30.183  20.924   3.685
80001W        W51727  37.535  25.700   0.790
80002W        W51728  33.669  44.860  12.395
80003W        W51729  22.160   3.715   2.758
80004W        W51730   8.867  10.657   1.500
80005W        W51731  36.674  25.962   3.494
80006W        W51732   4.923  36.900   3.762
80007W        W51733  21.621   5.751   4.494
80008W        W51734  27.950  23.442   3.694
80009W        W51735  16.253   3.843  13.358
80010W        W51736  33.202   5.453   2.814
80011W        W51737  13.666  44.506  14.782
80012W        W51738  18.501  26.101  13.880
80013W        W51739  41.773  33.115   0.803
80014W        W51740   3.670  27.696   0.769
80015W        W51741  10.674  33.853  13.317
80016W        W51742  31.442  18.743  11.891
80017W        W51743  16.367  14.270  13.005
80018W        W51744  31.334  10.207  11.942
80019W        W51745  33.195  21.753  14.344
80020W        W51746  41.976  39.288  11.232
80021W        W51747   4.831   5.776  11.739
80022W        W51748  26.007  34.330  13.071
80023W        W51749  30.646  38.477  12.906
80024W        W51750  43.994  17.237  10.961
80025W        W51751  17.569  20.684  13.603
80026W        W51752  14.727  10.727   4.566
80027W        W51753   4.108  31.939   4.499
80028W        W51754  37.472   5.718   0.674
80029W        W51755  30.459  23.745  11.958
80030W        W51756  21.704   4.221   3.180
80031W        W51757  25.922  22.516   4.627
80032W        W51758  21.858  11.832   0.294
80033W        W51759  17.852  39.299   3.092
80034W        W51760  44.758  17.597   1.338
80035W        W51761  40.453  10.826   0.936
80036W        W51762  11.603   3.856  13.627
80037W        W51763   1.279   3.921   2.016
80038W        W51764   9.162  39.852  10.911
80039W        W51765  40.941  11.090   0.414
80040W        W51766  39.066   7.343  10.189
80041W        W51767  11.210  26.941  14.889
80042W        W51768  34.975  21.723   2.867
80043W        W51769   1.712  41.098  11.083
80044W        W51770  32.963   2.873   1.730
80045W        W51771  31.167   1.806   1.839
80046W        W51772  31.896   0.963   0.816
80047W        W51773  36.975  36.325   0.963
80048W        W51774  17.658  35.770  12.141
80049W        W51775  11.685  39.016   0.750
80050W        W51776  33.155  15.301  11.207
80051W        W51777   2.672  27.533   3.280
80052W        W51778  15.587  39.934  14.962
80053W        W51779  40.548  18.496   2.151
80054W        W51780  11.076  31.595   2.419
80055W        W51781  28.151  22.465   1.905
80056W        W51782  34.818  36.879  11.546
80057W        W51783  16.694  10.828   1.264
80058W        W51784   9.945   4.247  11.165
80059W        W51785  25.460  30.432   4.191
80060W        W51786  26.225  42.553   1.849
80061W        W51787  19.525   1.424   0.449
80062W        W51788   4.407  11.915   3.746
80063W        W51789   2.149  38.622  10.143
80064W        W51790   5.580  22.724   4.333
80065W        W51791  21.033   0.484   2.220
80066W        W51792  28.479   0.439   4.182
80067W        W51793  13.308  22.993  13.832
80068W        W51794  38.749  41.078   0.931
80069W        W51795  10.797  20.370  14.777
80070W        W51796  39.899   3.790  10.724
80071W        W51797   8.728  39.275   1.654
80072W        W51798  26.170  14.344  12.102
80073W        W51799   4.751  38.042  13.532
80074W        W51800  20.040  24.697   1.790
80075W        W51801  28.425  25.420   2.302
80076W        W51802  38.300  12.184   3.849
80077W        W51803  17.459  15.765   2.909
80078W        W51804  29.538   6.392   4.067
80079W        W51805  23.445  17.967   1.480
80080W        W51806  12.167   3.069   2.503
80081W        W51807   2.381   8.610   3.537
80082W        W51808  10.687  37.428  13.510
80083W        W51809  12.372   8.995   0.867
80084W        W51810  41.286  29.902  14.373
80085W        W51811   2.387  37.246   2.877
80086W        W51812  19.219  42.541  11.074
80087W        W51813  43.719  38.518  10.682
80088W        W51814  10.890   4.748   0.915
80089W        W51815  32.639  40.304  12.540
80090W        W51816  38.716  41.893  10.768
80091W        W51817  14.613   4.669  11.673
80092W        W51818   1.296  13.331   0.745
80093W        W51819  10.803  31.023   4.776
80094W        W51820   2.746   9.247  12.468
80095W        W51821   2.439  12.499  14.029
80096W        W51822  42.258   3.103   1.880
80097W        W51823  36.407  26.493   4.639
80098W        W51824  38.470  27.240   1.252
80099W        W51825  13.262   5.868   4.187
80100W        W51826   8.119  23.508  12.483
80101W        W51827  40.834  28.947  12.085
80102W        W51828  15.083  28.664  14.553
80103W        W51829  44.533  44.390  11.517
80104W        W51830  43.004  15.242  10.740
80105W        W51831  24.469  13.123   0.709
80106W        W51832  13.382  39.341  12.853
80107W        W51833  34.488  39.026  11.401
80108W        W51834   2.190  17.024   1.391
80109W        W51835  19.023  27.121  11.661
80110W        W51836   8.315  24.988   4.296
80111W        W51837  24.184  26.437  12.027
80112W        W51838  10.845  30.123  13.825
80113W        W51839  42.789  22.812  10.957
80114W        W51840  40.274  20.066   2.757
80115W        W51841   7.399   5.655   3.648
80116W        W51842  42.001  17.407  13.128
80117W        W51843  41.853  37.281   0.795
80118W        W51844   6.760  14.949  12.072
80119W        W51845  35.987   2.168  14.351
80120W        W51846  44.760  14.265  10.473
80121W        W51847   0.257  28.068  11.531
80122W        W51848  34.465  29.185   0.649
80123W        W51849  29.077  21.085   0.534
80124W        W51850   0.212   7.290   2.840
80125W        W51851  35.832  38.668   3.533
80126W        W51852  10.710   7.442   0.297
80127W        W51853   6.835   7.822   3.378
80128W        W51854  36.875  14.186  14.910
80129W        W51855   0.863  29.866  14.483
80130W        W51856  22.915  33.889  13.817
80131W        W51857  34.317  36.868  11.529
80132W        W51858  32.981  14.599  10.490
80133W        W51859  33.484   5.724  11.683
80134W        W51860  15.130  31.958   1.785
80135W        W51861  20.522   6.922  10.957
80136W        W51862  44.230  41.764   3.655
80137W        W51863  15.262  36.334  14.401
80138W        W51864  29.333  15.309  14.487
80139W        W51865  39.358  23.219  14.883
80140W        W51866   1.287   7.221   3.765
80141W        W51867  28.543  29.131   1.185
80142W        W51868  44.590  28.321  13.659
80143W        W51869  29.239   9.803  14.280
80144W        W51870  21.173  12.745   2.445
80145W        W51871  22.955  25.304  13.327
80146W        W51872  21.227   6.119  14.894
80147W        W51873  30.998  15.267  10.917
80148W        W51874  25.224  16.347   1.520
80149W        W51875  21.073  29.409   0.925
80150W        W51876  13.151  27.142   0.037
80151W        W51877  39.562  18.714  13.544
80152W        W51878  39.130  11.907   3.849
80153W        W51879  21.336   1.563   2.934
80154W        W51880   5.149  21.190   2.750
80155W        W51881  26.262  20.638  14.811
80156W        W51882  31.709  10.762   4.261
80157W        W51883   6.959  26.151   4.906
80158W        W51884  43.493  39.027   0.017
80159W        W51885  30.093  37.419   1.312
80160W        W51886  37.829  18.065  13.879
80161W        W51887  41.507   8.209   3.857
80162W        W51888   8.215  44.576   1.236
80163W        W51889  15.813  43.183   5.065
80164W        W51890  33.845  13.196   3.843
80165W        W51891  43.778  25.723   4.675
80166W        W51892  10.357   6.815  13.549
80167W        W51893   1.069  18.311  11.184
80168W        W51894  26.468   0.742   1.312
80169W        W51895   7.418  23.948   1.397
80170W        W51896   4.846  43.927   3.522
80171W        W51897  43.257   9.219  14.005
80172W        W51898  18.935  17.655  10.474
80173W        W51899  25.446  40.267  14.203
80174W        W51900  44.988   4.270   4.620
80175W        W51901  23.063  26.641   3.751
80176W        W51902  26.959  39.062  14.931
80177W        W51903  35.150  27.365   2.245
80178W        W51904  19.601   4.731   3.748
80179W        W51905  24.721  26.244  14.996
80180W        W51906  24.586  31.194   0.413
80181W        W51907  35.674  20.023   1.528
80182W        W51908  17.045  35.846   0.082
80183W        W51909  10.768  44.567   3.256
80184W        W51910  25.756  30.422  14.745
80185W        W51911  32.651  43.536  11.609
80186W        W51912   5.298  44.691   3.468
80187W        W51913  28.006  25.747  13.839
80188W        W51914  10.101  32.188  10.791
80189W        W51915  33.569  22.673  14.643
80190W        W51916  24.044  43.330   0.342
80191W        W51917  28.873   9.450   2.083
80192W        W51918  27.199   5.976  13.380
80193W        W51919  13.802  18.306  10.491
80194W        W51920  14.900  16.722   4.163
80195W        W51921  34.382  37.130   4.142
80196W        W51922  43.452  26.123  13.370
80197W        W51923  43.408   9.078   1.223
80198W        W51924  22.014  34.014  14.140
80199W        W51925  10.178  38.952   2.288
80200W        W51926  14.714  33.829  11.990
80201W        W51927  22.136  12.688  14.345
80202W        W51928  40.863  34.726   3.940
80203W        W51929   3.914  28.154   3.230
80204W        W51930  33.635  17.266   0.606
80205W        W51931  35.315  36.160   0.927
80206W        W51932   3.263  26.681   5.047
80207W        W51933  39.261   0.453  12.889
80208W        W51934  21.093  41.680   1.430
80209W        W51935  44.965  19.168   3.616
80210W        W51936  42.102  29.450   9.852
80211W        W51937  32.751  44.386  13.585
80212W        W51938   9.774  21.019  11.972
80213W        W51939  10.850  31.946   0.843
80214W        W51940  12.899  41.103   2.895
80215W        W51941  22.726  40.443   3.814
80216W        W51942  32.364  12.748  14.267
80217W        W51943  14.758   8.774   2.159
80218W        W51944  18.602   9.323  12.129
80219W        W51945  43.649  38.028  12.002
80220W        W51946  23.566  36.266  14.581
80221W        W51947   3.773  19.283   2.660
80222W        W51948  31.201   6.905  14.313
80223W        W51949  19.620  33.629   4.204
80224W        W51950  14.327  15.824   1.381
80225W        W51951  36.726  14.859  14.422
80226W        W51952  37.544   1.897  11.677
80227W        W51953  36.653   7.674  10.929
80228W        W51954  32.337  13.895  13.471
80229W        W51955   4.454  22.688  10.378
80230W        W51956  33.705  34.643  14.450
80231W        W51957   9.946   4.332   2.226
80232W        W51958   1.047  19.603  10.788
80233W        W51959   3.717  44.832   0.959
80234W        W51960  39.352  20.699  13.263
80235W        W51961  33.780   9.742   2.307
80236W        W51962   3.219  21.160   0.874
80237W        W51963  38.842  30.094   0.701
80238W        W51964  19.369   8.262   4.437
80239W        W51965   1.192  17.625  11.354
80240W        W51966   3.944  20.251  10.747
80241W        W51967  35.465  34.123   0.246
80242W        W51968  39.529  23.703   4.526
80243W        W51969  33.394  43.269   4.234
80244W        W51970  18.606   3.731  13.532
80245W        W51971  41.480  20.631  11.585
80246W        W51972   1.657   5.339   1.445
80247W        W51973  37.896  17.614   3.341
80248W        W51974  29.746  18.467  11.581
80249W        W51975  34.987  36.537  10.767
80250W        W51976  44.057  10.282   0.951
80251W        W51977  29.030  40.915   3.236
80252W        W51978  17.864   9.640  11.569
80253W        W51979  29.449   5.362   2.167
80254W        W51980   0.351  12.268  13.960
80255W        W51981  11.294  35.855   1.211
80256W        W51982   5.822   6.605   0.744
80257W        W51983  25.652  17.151   0.238
80258W        W51984  13.502  18.626  10.763
80259W        W51985  11.250  40.774  11.775
80260W        W51986   1.873  37.175  11.516
80261W        W51987   9.779  26.106   4.870
80262W        W51988  10.216  33.214  10.647
80263W        W51989  32.598  16.680  10.846
80264W        W51990  28.153  24.655  11.036
80265W        W51991  29.175  10.790   2.214
80266W        W51992  15.600  40.256   2.288
80267W        W51993  39.781  16.733  14.193
80268W        W51994   3.059  32.006   2.855
80269W        W51995  38.906  13.356   0.913
80270W        W51996  30.678  40.966   2.598
80271W        W51997  17.608   6.095   2.761
80272W        W51998  24.430  26.096   3.548
80273W        W51999  15.147  28.676  13.378
80274W        W52000   4.161  20.574  12.847
80275W        W52001  39.036  22.280  13.623
80276W        W52002  20.520  17.072  12.476
80277W        W52003  32.820  23.090  13.808
80278W        W52004  44.209   7.261  13.950
80279W        W52005  17.114  21.525   1.684
80280W        W52006  17.403  44.779  13.039
80281W        W52007  13.773  42.820  11.084
80282W        W52008  25.504  21.537   3.329
80283W        W52009   1.261  15.276  12.032
80284W        W52010  44.912  43.745  12.862
80285W        W52011   3.832  42.283   4.774
80286W        W52012  32.837  42.292   0.866
80287W        W52013   1.289  11.650  10.766
80288W        W52014  13.139  38.501  13.982
80289W        W52015  18.247  34.377   2.877
80290W        W52016  15.627  21.290  11.126
80291W        W52017  30.163   7.709   3.236
80292W        W52018  44.433   7.722   2.587
80293W        W52019  27.877  19.652  11.830
80294W        W52020   9.382  41.314   3.446
80295W        W52021  39.410  29.141  12.968
80296W        W52022   2.982  12.217   2.907
80297W        W52023  28.101  20.196  14.209
80298W        W52024  30.667  21.779   2.175
80299W        W52025   8.244  32.317  12.010
80300W        W52026  32.952  30.494   0.541
80301W        W52027  27.014  15.177   1.297
80302W        W52028  42.308   2.903   0.951
80303W        W52029  16.028   1.439   1.396
80304W        W52030  43.823  25.700  13.830
80305W        W52031  24.102  12.684   4.198
80306W        W52032  31.110  27.324  11.471
80307W        W52033  43.416  11.248  12.081
80308W        W52034  25.203  18.422   0.005
80309W        W52035  41.007  13.890   1.691
80310W        W52036   7.851  44.688   3.239
80311W        W52037  27.721  15.823  13.231
80312W        W52038  42.719  41.569  14.477
80313W        W52039  33.647  42.855   0.788
80314W        W52040  32.061   6.029  12.444
80315W        W52041  16.647   4.903   1.998
80316W        W52042  17.262  41.784  11.115
80317W        W52043  15.780  13.197  14.664
80318W        W52044   9.794  27.480   4.562
80319W        W52045  21.275  37.194  11.081
80320W        W52046  39.294   4.177   3.384
80321W        W52047  40.830  26.133   1.239
80322W        W52048   8.703   1.641  14.756
80323W        W52049  31.452   1.373   1.760
80324W        W52050  27.074  29.107  12.295
80325W        W52051   6.291  36.575  11.493
80326W        W52052  16.220  26.487   0.889
80327W        W52053  42.247  34.404   0.027
80328W        W52054   6.645  38.906  12.986
80329W        W52055  23.923  19.821   3.313
80330W        W52056   8.853  26.550   1.830
80331W        W52057  31.663  22.477  13.593
80332W        W52058  14.102  32.914  14.857
80333W        W52059   9.829   9.648   1.847
80334W        W52060  18.563  33.591  12.558
80335W        W52061  19.490  29.092  14.432
80336W        W52062  32.927  17.099   2.244
80337W        W52063  44.070  24.305  10.436
80338W        W52064  39.862   3.842   1.866
80339W        W52065  37.110  16.644  12.961
80340W        W52066  28.642   1.344   3.234
80341W        W52067  28.424  19.230   1.138
80342W        W52068  44.508  29.907  14.851
80343W        W52069  37.329  33.483  10.377
80344W        W52070  18.641  23.214  13.131
80345W        W52071  29.448   4.862   2.350
80346W        W52072  20.718   5.954   3.113
80347W        W52073   7.846  11.188  13.560
80348W        W52074  12.475   0.240   1.694
80349W        W52075  17.270  29.933   2.466
80350W        W52076  20.499   7.983  12.543
80351W        W52077  16.289   0.039   3.564
80352W        W52078   8.369  24.579  13.094
80353W        W52079  28.095  15.059  10.122
80354W        W52080  40.269  32.884   3.869
80355W        W52081  40.259   8.845  10.793
80356W        W52082  29.027  37.330   1.836
80357W        W52083  21.822  17.798  12.833
80358W        W52084  15.602  11.281   0.460
80359W        W52085  29.156  35.569  12.079
80360W        W52086  35.112  44.459  14.116
80361W        W52087  25.168  25.196   4.855
80362W        W52088  16.186  23.967   1.927
80363W        W52089   9.030  40.749  14.315
80364W        W52090  16.675  12.180  13.504
80365W        W52091  11.116  41.381   4.059
80366W        W52092   5.282  11.400   2.640
80367W        W52093  37.518  15.203  14.280
80368W        W52094   3.953  30.511  11.562
80369W        W52095  26.540  29.212   4.728
80370W        W52096  31.617  31.429  13.783
80371W        W52097  41.985  10.264   4.186
80372W        W52098  15.288   6.007   2.251
80373W        W52099  21.726  26.367  11.109
80374W        W52100  28.470   5.437   0.254
80375W        W52101  32.611  43.525   3.757
80376W        W52102  44.381  36.858  14.978
80377W        W52103  12.329  43.768   3.792
80378W        W52104  29.002  30.068   3.244
80379W        W52105  37.876  17.026   0.187
80380W        W52106  13.214  34.836   2.302
80381W        W52107   1.668  38.679  14.991
80382W        W52108   7.160  17.613   3.134
80383W        W52109  35.962  41.955  11.966
80384W        W52110  29.354   3.022   4.392
80385W        W52111  14.197   1.543   4.572
80386W        W52112  29.733  24.661   9.769
80387W        W52113  42.046  26.568   3.594
80388W        W52114  37.874  20.551  11.574
80389W        W52115  44.890  31.095   0.752
80390W        W52116   1.116  32.548   4.629
80391W        W52117   5.752   1.773   2.783
80392W        W52118   7.211   0.378  11.197
80393W        W52119  15.763  15.532  13.980
80394W        W52120  33.446   3.962  11.966
80395W        W52121  18.006  30.647  13.109
80396W        W52122   7.848  44.328  11.637
80397W        W52123  31.593   2.868   4.289
80398W        W52124  14.726  44.312  13.043
80399W        W52125   2.899  23.098   0.983
80400W        W52126  43.087  28.517   1.485
80401W        W52127  11.858  13.934   3.825
80402W        W52128   3.621  26.160  14.340
80403W        W52129  13.816  42.299  11.156
80404W        W52130  41.325  21.953   2.447
80405W        W52131  36.972  32.995  14.486
80406W        W52132  20.658  12.916  14.499
80407W        W52133  38.882  18.402   9.911
80408W        W52134   1.025   4.755  14.523
80409W        W52135  26.617   2.939   0.900
80410W        W52136   4.430  29.000  13.894
80411W        W52137  19.889  22.812  12.825
80412W        W52138   6.944  16.131   3.268
80413W        W52139  23.608  19.032  13.994
80414W        W52140  34.360  43.586   2.764
80415W        W52141   9.632  33.832   4.469
80416W        W52142   1.027  39.226  14.414
80417W        W52143  16.334   0.184   1.752
80418W        W52144   6.810   5.398  14.822
80419W        W52145  32.651  24.213  10.004
80420W        W52146   5.196  26.679  10.365
80421W        W52147   2.360  19.002   4.702
80422W        W52148   6.358  33.950  14.036
80423W        W52149   9.617  15.308  11.148
80424W        W52150  27.928  19.549  13.604
80425W        W52151  34.424   4.860   3.288
80426W        W52152  13.336  39.944  11.989
80427W        W52153  26.661   8.837  13.292
80428W        W52154  12.996  11.245  13.984
80429W        W52155  28.664  12.929  13.763
80430W        W52156   6.139   3.802  14.448
80431W        W52157  37.480  18.559   1.714
80432W        W52158  23.989  25.978   2.323
80433W        W52159  19.676  27.951  13.025
80434W        W52160  19.783  40.360   2.707
80435W        W52161   6.552  27.612   2.851
80436W        W52162   1.835  27.553   4.623
80437W        W52163  37.903  14.391  10.949
80438W        W52164  13.166  13.780   0.390
80439W        W52165  16.135  31.160  11.113
80440W        W52166  32.388  26.177  14.790
80441W        W52167   4.531  31.608  14.392
80442W        W52168  15.089  20.726   4.792
80443W        W52169  21.075   9.364   2.591
80444W        W52170   1.989  44.582  11.997
80445W        W52171  33.887  12.286   4.607
80446W        W52172  12.890  19.728  12.525
80447W        W52173  37.547   5.677   3.231
80448W        W52174  29.126   6.862   1.268
80449W        W52175  27.773   4.981  10.215
80450W        W52176   7.925   6.130  10.187
80451W        W52177  38.319  19.787  10.672
80452W        W52178  42.539  22.843  14.845
80453W        W52179  29.889  14.169   2.690
80454W        W52180  27.691   2.912   0.884
80455W        W52181  40.486  25.005   2.260
80456W        W52182  10.472  18.771   3.144
80457W        W52183  15.180  30.653   0.453
80458W        W52184  15.803   5.954   1.820
80459W        W52185  11.702  24.587  14.002
80460W        W52186  34.477  29.029   2.145
80461W        W52187  18.992  35.825  13.865
80462W        W52188  36.735  35.956  11.104
80463W        W52189   0.707  31.542   0.840
80464W        W52190  43.527  14.213  11.649
80465W        W52191  26.771  13.377   3.420
80466W        W52192  34.937  44.586  13.134
80467W        W52193   7.988   3.742   4.327
80468W        W52194  28.425  38.568   2.823
80469W        W52195   1.713  35.992   1.932
80470W        W52196  42.694  25.064  11.477
80471W        W52197  17.633  23.211   2.077
80472W        W52198  15.091  25.767   1.187
80473W        W52199  17.276   8.080   1.375
80474W        W52200  19.750  26.522   1.671
80475W        W52201  43.812   0.799   3.658
80476W        W52202  22.583   7.717  12.616
80477W        W52203  28.051   7.120   0.179
80478W        W52204  12.831   1.541  11.998
80479W        W52205  17.765   3.414   0.797
80480W        W52206  42.966  14.169   0.979
80481W        W52207  18.684  13.758  14.462
80482W        W52208  11.270   1.716   4.238
80483W        W52209  38.397   5.791  13.838
80484W        W52210  22.704   9.633  12.898
80485W        W52211  14.571  13.399  11.699
80486W        W52212  34.544  24.609  14.798
80487W        W52213  33.427  42.557   3.078
80488W        W52214  10.654  15.385  13.335
80489W        W52215  27.103  15.586  13.938
80490W        W52216  43.179   8.354   1.758
80491W        W52217   6.899  44.239   2.316
80492W        W52218   5.293  35.399  14.914
80493W        W52219   9.777  43.897  11.583
80494W        W52220  15.169   7.487  10.468
80495W        W52221   0.735  31.280   3.654
80496W        W52222  26.955   8.821  11.053
80497W        W52223  21.080   9.358  11.691
80498W        W52224  37.782  38.902  11.483
80499W        W52225   4.261  33.792   3.789
80500W        W52226  44.229  41.602   0.900
80501W        W52227  27.696  40.358   0.284
80502W        W52228   1.290   2.487  12.434
80503W        W52229  21.227  21.422  13.865
80504W        W52230  40.284  22.582   4.085
80505W        W52231  41.817   4.243   3.831
80506W        W52232  11.651   4.614   2.211
80507W        W52233  14.579  17.653  10.935
80508W        W52234  21.427  20.060  13.181
80509W        W52235   9.662  18.621   2.842
80510W        W52236   2.208  20.651   3.921
80511W        W52237  44.766  43.941  11.476
80512W        W52238  35.869  11.757   0.280
80513W        W52239  35.543  12.697  14.037
80514W        W52240  43.446  11.529  13.997
80515W        W52241  23.969  27.386   3.165
80516W        W52242  40.614  10.315  10.237
80517W        W52243  31.280  15.332  12.384
80518W        W52244   9.260  17.645   1.413
80519W        W52245  24.499  21.517  12.624
80520W        W52246  18.515  27.870   2.376
80521W        W52247  36.756   1.677  10.658
80522W        W52248   8.846  25.279  11.033
80523W        W52249  44.258  26.612  12.669
80524W        W52250   8.850  41.854   0.360
80525W        W52251  23.947  11.686   1.944
80526W        W52252  36.415  14.558  13.968
80527W        W52253   3.903   8.603  12.034
80528W        W52254  21.735  33.430   2.213
80529W        W52255  13.679   2.781   1.916
80530W        W52256  13.341   1.134  13.192
80531W        W52257   2.801  28.556  14.059
80532W        W52258   7.722   5.042  14.407
80533W        W52259  26.167  20.073   1.395
80534W        W52260  16.227  44.465  10.999
80535W        W52261  19.614   9.897   3.945
80536W        W52262   5.284  23.538  12.549
80537W        W52263  37.417  34.973   1.963
80538W        W52264  27.579  28.555  12.942
80539W        W52265  25.001  36.373  12.103
80540W        W52266  11.309   8.761  10.703
80541W        W52267  10.201  35.419   4.466
80542W        W52268   7.368  39.841   3.231
80543W        W52269  27.815   6.715   3.620
80544W        W52270  22.306  37.015   4.291
80545W        W52271   8.323  15.905  11.056
80546W        W52272  35.636  22.772  12.840
80547W        W52273  41.833  42.702   4.825
80548W        W52274   1.614  44.787  10.801
80549W        W52275  30.797  37.424   4.614
80550W        W52276  20.634  32.057   1.776
80551W        W52277   7.646  12.207  12.658
80552W        W52278   9.416  41.721   2.183
80553W        W52279  35.635   3.647   1.795
80554W        W52280  42.415   7.430   3.619
80555W        W52281   7.677   2.370   3.137
80556W        W52282  31.851  18.080  12.330
80557W        W52283  10.284  37.974  14.289
80558W        W52284  13.563  39.063   1.524
80559W        W52285  12.911  21.579  13.837
80560W        W52286  31.516  34.836  13.477
80561W        W52287   8.261  15.214   0.764
80562W        W52288  32.512  17.654  12.366
80563W        W52289  37.381  25.164   4.426
80564W        W52290   9.692   5.898  13.831
80565W        W52291  10.303  44.708  10.686
80566W        W52292   4.346  11.063  13.123
80567W        W52293  37.479   0.697   2.432
80568W        W52294   9.606   3.307  10.910
80569W        W52295  32.358  26.593   2.263
80570W        W52296   6.110  44.774  12.549
80571W        W52297  26.526  16.846  11.529
80572W        W52298  12.914  32.193   1.895
80573W        W52299  14.013   3.635  13.891
80574W        W52300  25.274  11.351   0.220
80575W        W52301   6.472   4.226  14.916
80576W        W52302   4.262  28.460  11.358
80577W        W52303  22.646  36.771   2.168
80578W        W52304  37.342  41.290   0.269
80579W        W52305  37.597  14.763  11.193
80580W        W52306   4.927  27.577  14.434
80581W        W52307  34.570   7.867   0.034
80582W        W52308  37.476  36.988   3.029
80583W        W52309  20.657  37.518   2.259
80584W        W52310  40.358  43.197  13.850
80585W        W52311  13.988  28.515  13.796
80586W        W52312  36.866  11.717  10.783
80587W        W52313  44.027   8.422   3.469
80588W        W52314  13.599   5.852   1.254
80589W        W52315  12.595  17.820   1.205
80590W        W52316   7.331  15.210  10.100
80591W        W52317  23.900  32.069   3.243
80592W        W52318   3.378  24.160   3.640
80593W        W52319  22.985  38.923   0.522
80594W        W52320   4.760  42.865   1.450
80595W        W52321  19.626  23.963  10.975
80596W        W52322  36.426   5.382   4.803
80597W        W52323  23.858  37.133   1.494
80598W        W52324  43.956   4.240   2.321
80599W        W52325  23.911  20.208   3.650
80600W        W52326   6.907   8.774  14.045
80601W        W52327  15.244  20.314   3.882
80602W        W52328  26.084   9.403  11.459
80603W        W52329  12.897  41.346  12.864
80604W        W52330  29.007  32.453   3.759
80605W        W52331  28.238   5.422  12.939
80606W        W52332   1.286   3.949  10.962
80607W        W52333   9.668  26.091  10.156
80608W        W52334  24.912  30.507  11.718
80609W        W52335  34.664  11.217  13.550
80610W        W52336  12.368   8.864  14.272
80611W        W52337  40.884   0.502  13.830
80612W        W52338   7.294  24.685   1.806
80613W        W52339  23.212  25.688  12.371
80614W        W52340  27.982  35.679   2.263
80615W        W52341  28.591  22.443   2.652
80616W        W52342  35.682  21.821  12.963
80617W        W52343   6.443   9.872  12.479
80618W        W52344  13.334  14.805   1.230
80619W        W52345  40.252  19.627   3.723
80620W        W52346  40.598  37.564   1.900
80621W        W52347  44.849  28.392  14.905
80622W        W52348  28.618  11.786   4.562
80623W        W52349  34.577  30.642  12.397
80624W        W52350  30.592  25.528   5.031
80625W        W52351  41.228  31.391  13.080
80626W        W52352   2.342  36.382  10.751
80627W        W52353   5.305  27.278  14.723
80628W        W52354  18.697   3.043   1.155
80629W        W52355  15.422   8.068  11.557
80630W        W52356  15.025   2.547   2.715
80631W        W52357  36.192  26.881   3.692
80632W        W52358   9.861  44.214  12.039
80633W        W52359  34.194   6.682   2.824
80634W        W52360  25.520  39.060  13.460
80635W        W52361  28.502   8.108   4.122
80636W        W52362  27.113  36.410  12.492
80637W        W52363  22.017   1.919  12.915
80638W        W52364  12.615  25.430   2.106
80639W        W52365  18.724  13.051   3.656
80640W        W52366  13.061  31.918  12.344
80641W        W52367  38.910   0.152   4.136
80642W        W52368   6.687  10.777   4.404
80643W        W52369   8.276  33.004  14.738
80644W        W52370  24.039  29.507  10.771
80645W        W52371  42.528  38.887  12.109
80646W        W52372  14.430  30.289   0.487
80647W        W52373  18.665  39.423  12.587
80648W        W52374  24.684  22.541   0.899
80649W        W52375  34.017  34.840  11.790
80650W        W52376  32.165  32.767  14.192
80651W        W52377  27.488  18.258  11.873
80652W        W52378  30.562  33.923   4.592
80653W        W52379  17.311  19.684  13.862
80654W        W52380  10.320  26.156  13.895
80655W        W52381  21.841  18.725  14.209
80656W        W52382  14.643  35.738   4.327
80657W        W52383  36.002   4.236  11.930
80658W        W52384  10.926  22.998  10.744
80659W        W52385   2.766  32.594  13.852
80660W        W52386  18.743  27.616   0.500
80661W        W52387   2.446  30.136  13.404
80662W        W52388  39.978   2.824  12.497
80663W        W52389  44.447  15.092   0.904
80664W        W52390   3.778  32.618   0.325
80665W        W52391  44.743  29.094   0.872
80666W        W52392  31.113  10.589  10.207
80667W        W52393  30.427   9.467   3.284
80668W        W52394  22.941  31.824   1.429
80669W        W52395   8.683  20.133   3.210
80670W        W52396  33.818  38.856   9.864
80671W        W52397  35.631  40.808   2.292
80672W        W52398  44.726  16.273   4.644
80673W        W52399  10.787  19.024  13.826
80674W        W52400  31.552  43.152  12.966
80675W        W52401   1.631   6.028  12.059
80676W        W52402  10.888   2.771  11.473
80677W        W52403  10.812   8.419   0.260
80678W        W52404  13.852  43.975   1.494
80679W        W52405   7.796  23.449   5.406
80680W        W52406  18.343  30.210  12.619
80681W        W52407  10.418  33.235   3.981
80682W        W52408  13.798  27.610  12.353
80683W        W52409  26.009   5.283   0.076
80684W        W52410  12.606  35.448  13.942
80685W        W52411   2.396  35.441  12.999
80686W        W52412  18.334  25.568  11.443
80687W        W52413   7.231   7.038  13.963
80688W        W52414  40.673   2.194   1.482
80689W        W52415  30.623  29.727   3.427
80690W        W52416   9.760   1.740  14.101
80691W        W52417  21.089  12.440   4.605
80692W        W52418  32.557   4.699   3.829
80693W        W52419   2.261  13.214   1.855
80694W        W52420  28.110   6.322  13.526
80695W        W52421  20.825  20.990   5.014
80696W        W52422  16.378  15.816  14.975
80697W        W52423  24.425  36.453  14.669
80698W        W52424  44.401  18.617  12.951
80699W        W52425  36.152  15.830   3.711
80700W        W52426  43.048  30.643  14.003
80701W        W52427   5.963  28.158  11.983
80702W        W52428  42.339  28.606  13.989
80703W        W52429  11.202  25.674  11.811
80704W        W52430  34.030  38.627   1.409
80705W        W52431   5.000  39.361  14.830
80706W        W52432  31.912  28.590   3.099
80707W        W52433  19.595  26.594  10.664
80708W        W52434  30.619   0.352   0.429
80709W        W52435  23.901  25.570  13.957
80710W        W52436  33.878  22.166   4.638
80711W        W52437  18.692  26.116  10.695
80712W        W52438  33.532   7.648  10.374
80713W        W52439   1.349  12.391  12.137
80714W        W52440  36.775  32.665  13.097
80715W        W52441  40.472  26.975   3.890
80716W        W52442  31.434   5.002  14.499
80717W        W52443  42.575   6.034   2.863
80718W        W52444  24.554  13.248   1.752
80719W        W52445  40.972  17.967   4.642
80720W        W52446   7.197   6.677   1.963
80721W        W52447   0.327  20.097  12.669
80722W        W52448  13.667  31.829   2.457
80723W        W52449  22.286  17.504  12.809
80724W        W52450  17.549   4.824  13.017
80725W        W52451   9.826  31.494   4.132
80726W        W52452  17.177  24.728   3.663
80727W        W52453  32.569  43.051  14.040
80728W        W52454  10.810  11.702  12.387
80729W        W52455   2.170   1.941   1.768
80730W        W52456  43.114  21.828  12.914
80731W        W52457   3.987  23.490  14.348
80732W        W52458  39.283   9.352  10.728
80733W        W52459  40.543  39.918  10.651
80734W        W52460  32.080   8.915  13.999
80735W        W52461   3.933   5.680  14.923
80736W        W52462  44.237  22.835   3.775
80737W        W52463   6.691  13.644   5.474
80738W        W52464   0.853   7.876   1.845
80739W        W52465  22.314  18.342  14.402
80740W        W52466   7.562  12.183  11.044
80741W        W52467  20.222  40.086  12.924
80742W        W52468  16.232  38.765  11.495
80743W        W52469  31.915  33.386   5.137
80744W        W52470  38.640   3.477  11.584
80745W        W52471  24.625  28.008   2.725
80746W        W52472  36.387   1.215   4.550
80747W        W52473  22.606   9.717   4.572
80748W        W52474  32.563  44.729   0.796
80749W        W52475  13.222  18.183  12.042
80750W        W52476  41.081  29.859  13.026
80751W        W52477   4.712   4.982  14.052
80752W        W52478  16.590  27.592  11.909
80753W        W52479  33.919   9.044  11.029
80754W        W52480  34.628  21.977  12.130
80755W        W52481  20.200   2.525   2.337
80756W        W52482  29.524   9.411   1.340
80757W        W52483  28.370  39.915  10.622
80758W        W52484  35.215  36.391   4.726
80759W        W52485  29.332  32.149   1.913
80760W        W52486   7.369  36.386   0.236
80761W        W52487  31.866   7.783  12.888
80762W        W52488  28.674  27.091  12.839
80763W        W52489   4.538  25.987   2.819
80764W        W52490  19.704  32.458  12.712
80765W        W52491  27.637  35.827   1.891
80766W        W52492  16.193  32.379  13.962
80767W        W52493  23.977  14.713   1.796
80768W        W52494  36.116  40.942   2.891
80769W        W52495  33.423  39.659   4.636
80770W        W52496  10.878  21.286   1.803
80771W        W52497   3.804  36.397  14.422
80772W        W52498  16.815  17.532   3.727
80773W        W52499   6.185  17.652   0.275
80774W        W52500  16.183  19.709  13.598
80775W        W52501   7.287   3.229   2.268
80776W        W52502  25.422   0.863   1.383
80777W        W52503  15.367  37.502   2.309
80778W        W52504  16.621  41.990   3.764
80779W        W52505   7.553  35.108  10.004
80780W        W52506   7.166  38.744   2.545
80781W        W52507  36.868  30.043   4.456
80782W        W52508  17.200   7.150  11.788
80783W        W52509  17.274  32.412   4.998
80784W        W52510   9.646  42.293   4.510
80785W        W52511   1.032  16.728  11.340
80786W        W52512  29.620  22.510  13.621
80787W        W52513   7.945  32.707  13.848
80788W        W52514  16.796  40.431   1.269
80789W        W52515  16.737  43.595   1.572
80790W        W52516   6.686  42.123  11.456
80791W        W52517  17.798  41.257  10.692
80792W        W52518  26.475  39.341  10.981
80793W        W52519  37.030  10.947   4.715
80794W        W52520   9.262   2.974   0.692
80795W        W52521  23.280  33.109  12.639
80796W        W52522  38.033  34.499   3.246
80797W        W52523  43.667  37.325   1.049
80798W        W52524  34.514   2.543  10.596
80799W        W52525  13.285  42.349   3.593
80800W        W52526  37.249  29.615   2.700
80801W        W52527  43.987  11.207   3.279
80802W        W52528   0.627  13.615  11.861
80803W        W52529   3.455   6.855   2.832
80804W        W52530  19.708  43.638  12.598
80805W        W52531  28.197   8.688  13.509
80806W        W52532  33.122  10.315  13.791
80807W        W52533  41.046  19.102  10.735
80808W        W52534  34.141  25.087  12.465
80809W        W52535   9.903   4.730  14.705
80810W        W52536  35.057  14.644  13.434
80811W        W52537  27.169   6.258   2.198
80812W        W52538   3.849  36.868  11.546
80813W        W52539   9.855  34.752   0.313
80814W        W52540  36.942  14.113   0.463
80815W        W52541  35.965  38.046   4.668
80816W        W52542  37.215  42.129   2.386
80817W        W52543   9.457  27.273  13.893
80818W        W52544   0.924  36.315  13.500
80819W        W52545  12.613  38.400  14.296
80820W        W52546  27.785   6.494   4.969
80821W        W52547  40.805  35.481   0.753
80822W        W52548  26.211  14.154   1.406
80823W        W52549  33.557  29.950   0.967
80824W        W52550  17.654  30.397   3.087
80825W        W52551  28.370  11.798  12.024
80826W        W52552  19.323  28.930   0.844
80827W        W52553  27.622   2.085  12.471
80828W        W52554  31.223   5.448  13.521
80829W        W52555   7.194  34.459   1.767
80830W        W52556   2.395  41.601   1.627
80831W        W52557  42.262  42.367   1.435
80832W        W52558  25.171  17.963  14.088
80833W        W52559  23.017  18.192  10.460
80834W        W52560  10.829  34.205  12.354
80835W        W52561   6.022  14.666   1.288
80836W        W52562   1.917   1.348   2.792
80837W        W52563  12.479  22.595   2.826
80838W        W52564   0.868  33.915  12.850
80839W        W52565  29.867  20.166  14.709
80840W        W52566  20.312  11.635  12.332
80841W        W52567  22.575   6.533  11.845
80842W        W52568  38.293  33.366   1.469
80843W        W52569   8.802   6.963  13.305
80844W        W52570  23.658  42.008  10.766
80845W        W52571  39.577   2.783   4.104
80846W        W52572  13.053  25.028  11.527
80847W        W52573  15.001  41.368   1.894
80848W        W52574  16.156  24.448   1.722
80849W        W52575   0.528  43.866  11.596
80850W        W52576   7.493  23.053   1.967
80851W        W52577  17.204  35.051  12.568
80852W        W52578  17.688  40.413   4.634
80853W        W52579  25.095  38.209  12.652
80854W        W52580  44.836  38.848   2.730
80855W        W52581  26.475  22.598  14.118
80856W        W52582  36.238   6.879   4.526
80857W        W52583  26.944  14.750  13.483
80858W        W52584  23.507  29.022   2.145
80859W        W52585  20.140  31.962  12.606
80860W        W52586  44.612  41.794   1.221
80861W        W52587  26.056  21.142   2.202
80862W        W52588  20.053  38.932  10.223
80863W        W52589   8.931   2.255   1.688
80864W        W52590   3.665  18.639   3.852
80865W        W52591  36.542   9.619   2.212
80866W        W52592  12.459  16.019   4.163
80867W        W52593   4.761  33.859  12.476
80868W        W52594  26.582  26.028   2.738
80869W        W52595  23.815  42.050   0.903
80870W        W52596  24.978  38.570   0.272
80871W        W52597   5.510   1.923  13.174
80872W        W52598  42.769  14.268  13.552
80873W        W52599  38.838  19.099   4.626
80874W        W52600  14.047   8.332  12.137
80875W        W52601  17.212  21.018   0.453
80876W        W52602  16.695   6.344   2.247
80877W        W52603  43.385  43.050   4.245
80878W        W52604   2.315  12.276  11.884
80879W        W52605  40.757   9.313   0.928
80880W        W52606  25.994   2.831   4.478
80881W        W52607  14.604  17.466   0.470
80882W        W52608  14.918  36.154   4.178
80883W        W52609  13.973  19.803   4.036
80884W        W52610  14.864   3.468  13.422
80885W        W52611  25.798  32.955  11.577
80886W        W52612  38.286  42.974   3.868
80887W        W52613  11.726  35.962   4.038
80888W        W52614  16.162  25.674   4.625
80889W        W52615  30.017  10.401   0.905
80890W        W52616  28.029   8.070  14.932
80891W        W52617  37.963  31.917  10.971
80892W        W52618  28.113  37.029  14.912
80893W        W52619  27.918  34.367   1.412
80894W        W52620  34.440  14.728   2.281
80895W        W52621  44.707   5.364   2.257
80896W        W52622  23.778   0.343   0.086
80897W        W52623  15.107  19.707   0.411
80898W        W52624   8.435  11.027   2.683
80899W        W52625   4.814  31.558  11.601
80900W        W52626  34.144  41.796   0.118
80901W        W52627  19.120  15.022   4.302
80902W        W52628   0.015  18.851   0.226
80903W        W52629  28.866  40.647  10.857
80904W        W52630   1.756  30.609   0.327
80905W        W52631  26.280  14.734  10.794
80906W        W52632   1.445  10.213  11.216
80907W        W52633  27.689  26.054   4.149
80908W        W52634  19.081   0.432   3.167
80909W        W52635   1.512   6.887  14.046
80910W        W52636  34.048  14.549  13.441
80911W        W52637  23.921   0.594   3.338
80912W        W52638   8.362  19.077  13.321
80913W        W52639  27.175   4.350   0.646
80914W        W52640  25.157  31.862   3.311
80915W        W52641  42.015  18.911   2.253
80916W        W52642   4.630  43.346   0.201
80917W        W52643  19.745  38.003  13.293
80918W        W52644   4.641  31.748  12.090
80919W        W52645  34.727  12.103  13.349
80920W        W52646  10.414  16.809  12.335
80921W        W52647  13.894   3.409  11.433
80922W        W52648  11.618   5.866  14.860
80923W        W52649  28.240  16.281   1.920
80924W        W52650   3.480  18.684  12.955
80925W        W52651   3.209  39.865  14.338
80926W        W52652  26.238  30.572  10.698
80927W        W52653  42.031   2.285   0.290
80928W        W52654  40.769  15.745  14.282
80929W        W52655  10.290   2.193   5.051
80930W        W52656   0.211  12.768  12.044
80931W        W52657  26.795  39.437  13.373
80932W        W52658  41.702   5.697  14.874
80933W        W52659   1.343  14.890   3.915
80934W        W52660  25.993  22.716   2.676
80935W        W52661  17.724   0.363  12.472
80936W        W52662  34.450   3.268  12.677
80937W        W52663  26.638  40.284  10.570
80938W        W52664  22.983  29.123   2.117
80939W        W52665  30.032  15.222   0.991
80940W        W52666  21.233   7.104  12.059
80941W        W52667  34.460  41.974  14.286
80942W        W52668  28.826   4.337   0.866
80943W        W52669  29.116   4.729  10.635
80944W        W52670   8.242  31.525  12.499
80945W        W52671   2.188  33.415  13.031
80946W        W52672  38.039  44.234   0.320
80947W        W52673  30.570   9.699   0.776
80948W        W52674  12.850  29.186  11.446
80949W        W52675   0.191  34.655   2.576
80950W        W52676  34.304  34.188  11.083
80951W        W52677  36.879  21.363  12.065
80952W        W52678   0.229  17.947  10.585
80953W        W52679  21.568  10.519   4.480
80954W        W52680   5.420  27.148  13.926
80955W        W52681  19.891  42.036  11.085
80956W        W52682  32.654   3.204   3.629
80957W        W52683  24.154   9.874   3.138
80958W        W52684   7.381  14.399   0.346
80959W        W52685   5.036  28.468   2.525
80960W        W52686   2.862  34.807   4.125
80961W        W52687  21.273  44.072  13.136
80962W        W52688  38.292  19.986  13.735
80963W        W52689  18.737  17.589  13.936
80964W        W52690  20.568  32.171  14.952
80965W        W52691   8.795  44.300   0.057
80966W        W52692   2.738  31.473   1.748
80967W        W52693  33.086  36.942  11.917
80968W        W52694  43.978   4.360   0.741
80969W        W52695  41.687   5.657  11.018
80970W        W52696  12.577   4.458   0.385
80971W        W52697   7.565  27.045   0.709
80972W        W52698   9.423  31.992  13.871
80973W        W52699  41.862  18.010   3.658
80974W        W52700  36.030  26.065  13.388
80975W        W52701  23.602  31.521  13.551
80976W        W52702  35.193  38.768  11.145
80977W        W52703  25.201   8.842   4.642
80978W        W52704  26.694  18.472  12.516
80979W        W52705  17.319   8.185   4.155
80980W        W52706  24.117  44.340  10.135
80981W        W52707  30.178  27.643  14.953
80982W        W52708   9.386  24.365  10.977
80983W        W52709  31.095  21.045   0.812
80984W        W52710  30.705  17.093  12.942
80985W        W52711   9.218  14.189   1.173
80986W        W52712  29.225   0.534  12.140
80987W        W52713  26.684  26.451   1.773
80988W        W52714   7.899   0.824  11.541
80989W        W52715  12.697  44.007  10.840
80990W        W52716  22.668  24.987  13.809
80991W        W52717  31.117  13.830  10.889
80992W        W52718  37.158  34.627   1.666
80993W        W52719  17.703  37.448   0.916
80994W        W52720  33.834  34.813   2.308
80995W        W52721  17.817  32.835   2.181
80996W        W52722  24.111  16.234   2.692
80997W        W52723  40.239  41.098   3.761
80998W        W52724  44.251  10.410  10.783
80999W        W52725   9.282  12.056   2.180
81000W        W52726  36.138   7.882   2.854
81001W        W52727   0.749  28.592  11.335
81002W        W52728  28.123  37.417   3.424
81003W        W52729   5.744  18.672   1.668
81004W        W52730  28.433  39.913  11.150
81005W        W52731  39.397  27.111   0.784
81006W        W52732  21.421  36.288   0.595
81007W        W52733  13.108  19.778  14.343
81008W        W52734   8.857  29.989   1.306
81009W        W52735  43.477  42.558   4.323
81010W        W52736  17.655  39.228   5.019
81011W        W52737  25.223  15.617  14.030
81012W        W52738   8.890  25.574   0.796
81013W        W52739  33.009  21.212  12.799
81014W        W52740  37.874   3.674   4.665
81015W        W52741   8.383  25.496   3.227
81016W        W52742  36.832  43.894   0.892
81017W        W52743  22.664   5.819   2.857
81018W        W52744  15.074  13.910  12.463
81019W        W52745  22.243  30.946  10.630
81020W        W52746  41.261   9.385   1.832
81021W        W52747  17.550  39.011   1.164
81022W        W52748  42.171  31.494  12.132
81023W        W52749   0.469   3.522  12.425
81024W        W52750  44.315  19.659   2.120
81025W        W52751  16.614  10.278   3.817
81026W        W52752  23.651  10.830  12.321
81027W        W52753   5.382  24.741   3.748
81028W        W52754  42.965   9.268  11.568
81029W        W52755  23.731  13.594  14.411
81030W        W52756  30.607  37.117   1.447
81031W        W52757  40.039  41.074   3.214
81032W        W52758  19.548  10.238   3.550
81033W        W52759  35.849  30.739   3.604
81034W        W52760  24.737  29.126  12.877
81035W        W52761   8.806  13.156   0.396
81036W        W52762  10.210  31.964  12.139
81037W        W52763  22.151   8.740  14.902
81038W        W52764   6.939   7.458   0.748
81039W        W52765  23.394   2.437   1.327
81040W        W52766   2.274  10.814   1.751
81041W        W52767   6.893  29.904   4.180
81042W        W52768  27.253  22.721  12.287
81043W        W52769  16.168   3.252  13.364
81044W        W52770  27.251  30.432  14.981
81045W        W52771   3.949  23.461   4.410
81046W        W52772  10.163  29.946  10.956
81047W        W52773   2.166  15.414  12.400
81048W        W52774  31.545   7.327   0.995
81049W        W52775  40.476  13.111  11.658
81050W        W52776  35.003  25.441  12.950
81051W        W52777  36.476  11.261  14.685
81052W        W52778  21.337  16.249   3.170
81053W        W52779   8.154  36.587   5.489
81054W        W52780  31.170  19.125   4.946
81055W        W52781  38.358  10.429  10.536
81056W        W52782  37.011  24.599   3.708
81057W        W52783  28.668  36.478   1.213
81058W        W52784  29.315  28.960   3.295
81059W        W52785  20.750   7.344   1.408
81060W        W52786   4.167  13.617   4.598
81061W        W52787  17.046  40.501  13.022
81062W        W52788   1.567   6.108  11.080
81063W        W52789   3.188   4.303   4.943
81064W        W52790  15.082  42.255   0.398
81065W        W52791  42.326   9.438  12.022
81066W        W52792  36.282  13.667  11.940
81067W        W52793  32.631  11.772   2.492
81068W        W52794   8.602  13.585  11.733
81069W        W52795   1.921  38.500  10.865
81070W        W52796  38.793  39.030  13.402
81071W        W52797  38.072  20.734   1.426
81072W        W52798  10.205  28.559   1.217
81073W        W52799  19.281  16.882  11.442
81074W        W52800  36.110  16.629  13.066
81075W        W52801   7.851  27.105  11.522
81076W        W52802  17.551  20.708  12.689
81077W        W52803  24.595  31.457  13.451
81078W        W52804   6.315  37.108   4.563
81079W        W52805  15.051  21.564   1.878
81080W        W52806  15.363  10.765   4.157
81081W        W52807   8.309  15.784  10.244
81082W        W52808  13.085  18.755  13.206
81083W        W52809  23.501   1.684   2.366
81084W        W52810  12.948  28.542  12.582
81085W        W52811  40.277   2.833   0.973
81086W        W52812  34.995  14.480   4.132
81087W        W52813  22.124  20.510   1.711
81088W        W52814  31.666  33.102   1.717
81089W        W52815  16.130  10.766  14.932
81090W        W52816  17.571   8.320  12.110
81091W        W52817  28.935  18.717   0.893
81092W        W52818  10.977  13.609   1.243
81093W        W52819  41.668  36.908  11.650
81094W        W52820  12.626  34.416  11.967
81095W        W52821  38.861  30.937  14.512
81096W        W52822  41.307   8.418  13.398
81097W        W52823  20.799  21.889   1.387
81098W        W52824  14.171  39.391   1.499
81099W        W52825  34.998  30.923  12.451
81100W        W52826  24.325  42.084   1.737
81101W        W52827   7.231  10.310  12.656
81102W        W52828   9.664  32.238  12.443
81103W        W52829  41.441   5.310  11.908
81104W        W52830   7.140  17.900   4.184
81105W        W52831  20.846  13.563  10.551
81106W        W52832  33.831   2.915   1.261
81107W        W52833  30.672  15.773   1.235
81108W        W52834   1.547  17.589  13.848
81109W        W52835  10.733  18.075  13.442
81110W        W52836  36.508  35.313   3.150
81111W        W52837  14.819  18.267   0.819
81112W        W52838  39.370  16.886  12.489
81113W        W52839   6.311  16.365   2.720
81114W        W52840  27.133  15.537  14.894
81115W        W52841  21.613  27.904  10.513
81116W        W52842  15.206   3.161   3.763
81117W        W52843   2.515  38.928  12.867
81118W        W52844  15.744  25.649  13.886
81119W        W52845   6.341  41.891   0.285
81120W        W52846  18.363  38.302   1.081
81121W        W52847  19.170  44.683  13.347
81122W        W52848   0.272   9.331   2.486
81123W        W52849  13.826  38.008  11.435
81124W        W52850   0.830  24.161   3.878
81125W        W52851  27.172  38.246  13.973
81126W        W52852  28.723  18.962  13.845
81127W        W52853  11.656  35.507  12.623
81128W        W52854  20.023  12.363   1.256
81129W        W52855  11.689  10.678   0.826
81130W        W52856  35.085  12.806  10.340
81131W        W52857  24.747  39.440  12.059
81132W        W52858  41.435  16.715   3.446
81133W        W52859   3.334  24.562   4.639
81134W        W52860  10.644  33.495  10.574
81135W        W52861  44.370  43.589   4.044
81136W        W52862  44.544  22.027  10.349
81137W        W52863  32.533  29.152   2.930
81138W        W52864  22.989  36.752   3.297
81139W        W52865  11.090  43.378  11.541
81140W        W52866   7.344   4.339   5.546
81141W        W52867   7.599  34.404   0.324
81142W        W52868  29.465  26.136  10.522
81143W        W52869  37.442  29.373   3.178
81144W        W52870  12.785   5.350   2.420
81145W        W52871  25.689  27.171   3.109
81146W        W52872   5.382   3.287  11.614
81147W        W52873  32.890  14.405  14.455
81148W        W52874   9.343  16.987   3.046
81149W        W52875  27.042  39.977   0.773
81150W        W52876   3.928  39.577   2.579
81151W        W52877  20.274   4.422   4.635
81152W        W52878  35.668   6.794   4.625
81153W        W52879  24.612  30.922  12.481
81154W        W52880  27.707  28.618  11.423
81155W        W52881  19.842  12.924   3.344
81156W        W52882  21.801  14.901  10.165
81157W        W52883  25.945  40.839  12.914
81158W        W52884  15.093  10.522   0.093
81159W        W52885  42.272  39.795  13.536
81160W        W52886  30.450   9.856   0.277
81161W        W52887   9.613  30.618   4.292
81162W        W52888  11.397   2.750  10.686
81163W        W52889  28.570  43.804  14.409
81164W        W52890   8.193  22.315  11.858
81165W        W52891  17.267  16.761   4.163
81166W        W52892   2.527  33.428   2.164
81167W        W52893   6.530  24.941  10.459
81168W        W52894  28.746  19.507  13.835
81169W        W52895  26.385  19.580  13.804
81170W        W52896   0.250   0.409  14.827
81171W        W52897   3.319   3.489   3.365
81172W        W52898  18.706   8.611   4.154
81173W        W52899  30.123   4.279   4.518
81174W        W52900  40.455   0.727  12.536
81175W        W52901  20.013  11.949  12.586
81176W        W52902  32.989  10.168  12.025
81177W        W52903   7.248  10.329  12.153
81178W        W52904  19.929  14.060   0.881
81179W        W52905  26.110  15.559   4.153
81180W        W52906   4.379  31.487  10.708
81181W        W52907   6.867  16.805  11.546
81182W        W52908   7.171  14.645  11.936
81183W        W52909   2.913  10.389   0.313
81184W        W52910   4.715  11.261   3.737
81185W        W52911   1.723  21.275   0.996
81186W        W52912  27.167  22.507   4.478
81187W        W52913  35.394  29.987  12.129
81188W        W52914  19.167  44.109   3.624
81189W        W52915  33.405  21.951  11.130
81190W        W52916   8.651  33.076   1.367
81191W        W52917  33.293   6.068   1.684
81192W        W52918  20.027  40.542   0.952
81193W        W52919  36.554  23.753  11.994
81194W        W52920  17.644  30.547  10.998
81195W        W52921  38.490   9.904  10.740
81196W        W52922  35.843  25.917   4.151
81197W        W52923   9.064   9.841   0.342
81198W        W52924  15.621  15.206  12.173
81199W        W52925  24.329  29.348   2.666
81200W        W52926  34.493   4.780  12.536
81201W        W52927  18.087  21.439  13.287
81202W        W52928  25.797  16.305   3.143
81203W        W52929  14.368  16.755   4.233
81204W        W52930  37.981  32.316  10.640
81205W        W52931  12.862   9.640   3.314
81206W        W52932   1.279   0.245  13.465
81207W        W52933  17.631  25.716  12.612
81208W        W52934   3.725  18.825   1.724
81209W        W52935   1.943  44.776   2.149
81210W        W52936  30.502  29.960  12.564
81211W        W52937  31.223  38.521  13.989
81212W        W52938  22.587  32.018  11.485
81213W        W52939  28.024  12.697  13.868
81214W        W52940   1.909   6.939  14.854
81215W        W52941   6.374  12.589   5.334
81216W        W52942  41.828  35.916  12.468
81217W        W52943   2.787  15.584   2.671
81218W        W52944  19.593  13.674  13.821
81219W        W52945  29.619  33.890   3.488
81220W        W52946  26.606   3.246  10.343
81221W        W52947  40.959  39.034  13.818
81222W        W52948  44.927   0.315  12.488
81223W        W52949  28.991  34.512   1.180
81224W        W52950  41.355  40.185  10.420
81225W        W52951  38.902  25.954  13.320
81226W        W52952  10.793   4.610  14.876
81227W        W52953  17.550  31.972   4.861
81228W        W52954  32.532  16.970   2.587
81229W        W52955  23.676  25.548   4.355
81230W        W52956  30.371  14.400   1.784
81231W        W52957  34.880  17.655   1.038
81232W        W52958  37.322  28.176   2.301
81233W        W52959  10.881  40.487  11.477
81234W        W52960  10.175  16.080   2.712
81235W        W52961   2.408  14.368   1.359
81236W        W52962  21.602  36.821  14.751
81237W        W52963   3.190  44.458   0.196
81238W        W52964  14.853  24.878   4.171
81239W        W52965   7.759  24.933  12.530
81240W        W52966  31.703  10.714  13.760
81241W        W52967  14.756   4.391  13.329
81242W        W52968   9.369  16.769  14.383
81243W        W52969  35.921   5.015  11.117
81244W        W52970  21.079   9.357  12.651
81245W        W52971  43.960   9.100   2.733
81246W        W52972  12.454  19.436  10.751
81247W        W52973  32.263   7.371  14.010
81248W        W52974  36.372  33.913   3.354
81249W        W52975  44.721   0.864   4.074
81250W        W52976   0.397  32.994   3.652
81251W        W52977   7.260  18.108  14.378
81252W        W52978  16.307  30.512  13.377
81253W        W52979  34.359  35.471   2.474
81254W        W52980  15.000  39.062   4.176
81255W        W52981  21.605  29.052  14.270
81256W        W52982   0.429   6.763   4.637
81257W        W52983  44.446   3.682  11.153
81258W        W52984  21.248  12.380   1.731
81259W        W52985  24.235  15.699  12.876
81260W        W52986  18.704  44.106  13.130
81261W        W52987  21.556  27.130   1.839
81262W        W52988  31.178  19.040   3.175
81263W        W52989  38.491  32.144  14.129
81264W        W52990  33.161  31.398   0.804
81265W        W52991  20.049  24.184   2.263
81266W        W52992   0.900  35.786  14.343
81267W        W52993  37.545  11.770   4.733
81268W        W52994  21.423  11.735   4.611
81269W        W52995  25.182  36.402  10.480
81270W        W52996  21.773   8.336  14.366
81271W        W52997  31.547  17.772   1.292
81272W        W52998  28.954  44.980   2.272
81273W        W52999  43.448  13.333  13.164
81274W        W53000  36.078  33.616  11.410
81275W        W53001  33.458  25.310   0.006
81276W        W53002  26.583  40.601  13.904
81277W        W53003   4.830  18.007   2.805
81278W        W53004  35.578  44.533  11.556
81279W        W53005  33.331  30.609  11.639
81280W        W53006   1.419   7.705   0.066
81281W        W53007  15.633  37.372  13.512
81282W        W53008  41.488  32.418  12.352
81283W        W53009  34.049   8.671   2.559
81284W        W53010  36.259  14.230   3.642
81285W        W53011   7.611  15.985  10.497
81286W        W53012  43.755  12.195  11.278
81287W        W53013  44.829  17.646  13.780
81288W        W53014   6.326  13.678  11.117
81289W        W53015  22.578  29.545   3.104
81290W        W53016  38.817  12.199  13.518
81291W        W53017   8.183   9.631   3.603
81292W        W53018  23.073  20.557   1.679
81293W        W53019  23.740  12.817   2.715
81294W        W53020  23.036  14.034   3.704
81295W        W53021  28.148  29.442  13.580
81296W        W53022  23.008  23.122   0.807
81297W        W53023   5.301  37.494   2.885
81298W        W53024  30.283  21.567   0.764
81299W        W53025  43.707  28.745   1.571
81300W        W53026   9.210  34.806  12.680
81301W        W53027  24.964   2.353  12.575
81302W        W53028  37.911  16.610   3.516
81303W        W53029  19.039  29.137   4.756
81304W        W53030  22.200  35.809  14.797
81305W        W53031  29.060  26.680   4.605
81306W        W53032  14.165   9.281  11.195
81307W        W53033  14.750  24.551   4.555
81308W        W53034   4.353   8.372  11.983
81309W        W53035   9.400  39.228  12.057
81310W        W53036  19.781  25.611   3.060
81311W        W53037  39.058  14.030  14.018
81312W        W53038  11.316  43.732   3.230
81313W        W53039  39.608  33.625  11.852
81314W        W53040  32.853  34.330  10.740
81315W        W53041  21.699  31.902  10.601
81316W        W53042  33.126  32.550  10.380
81317W        W53043  40.731  30.241  12.517
81318W        W53044   3.448  27.139   1.713
81319W        W53045  44.533  37.319  10.277
81320W        W53046  44.605  28.528   4.626
81321W        W53047  42.188  43.366   2.144
81322W        W53048  19.713  18.632   2.187
81323W        W53049  40.784  43.920   4.083
81324W        W53050  44.212  35.940  14.941
81325W        W53051   0.456   6.218  14.869
81326W        W53052   7.290   6.744   2.853
81327W        W53053   5.510  34.531  12.835
81328W        W53054   2.669  34.971   1.761
81329W        W53055  44.465  12.252  11.101
81330W        W53056  29.796   8.941   2.204
81331W        W53057  36.268  10.471   1.000
81332W        W53058  23.663  42.224   2.779
81333W        W53059  33.514  23.258  12.549
81334W        W53060  31.167  23.571   9.821
81335W        W53061  44.224  32.315   2.441
81336W        W53062   5.390  14.715   2.286
81337W        W53063  39.811  19.169   2.421
81338W        W53064  20.733  14.402   1.701
81339W        W53065  17.175   0.758  14.790
81340W        W53066  20.397  28.938   2.849
81341W        W53067  27.204  20.749   4.714
81342W        W53068  43.732   9.392  14.936
81343W        W53069  10.056  20.056   4.273
81344W        W53070  27.048   8.169  12.416
81345W        W53071  15.777  30.694  14.825
81346W        W53072  24.177  20.512  12.038
81347W        W53073  10.668   0.395   4.836
81348W        W53074  10.280  37.956  10.366
81349W        W53075   1.942   0.318  12.939
81350W        W53076  11.953   3.973   3.187
81351W        W53077  32.345  18.138  12.431
81352W        W53078   0.003   0.324   4.307
81353W        W53079  43.946  19.720   4.147
81354W        W53080  24.556  39.251  14.021
81355W        W53081  40.455  27.218   0.963
81356W        W53082  35.627  18.399   0.002
81357W        W53083  22.942   8.859  11.536
81358W        W53084  26.296  29.926  13.998
81359W        W53085  36.620  12.733  13.572
81360W        W53086  20.800  19.161   0.434
81361W        W53087   8.539  23.099  14.334
81362W        W53088  37.841  31.044  11.041
81363W        W53089  28.929  35.929   0.536
81364W        W53090  22.032  29.609  11.776
81365W        W53091   5.306  43.227   3.057
81366W        W53092  34.378  16.316  14.367
81367W        W53093  37.088  19.528  10.205
81368W        W53094   4.882  28.555  12.499
81369W        W53095  27.426  32.647   1.853
81370W        W53096  43.465  40.487   4.191
81371W        W53097   8.882  12.327   2.503
81372W        W53098  28.885  17.652   3.353
81373W        W53099  28.436  33.604   1.440
81374W        W53100  25.061  41.751  14.341
81375W        W53101  17.242   9.839   4.068
81376W        W53102  31.489   0.607   2.804
81377W        W53103  25.303  10.642   4.188
81378W        W53104  15.240  39.997   0.882
81379W        W53105   1.902  31.590   0.492
81380W        W53106  18.536  16.044   2.253
81381W        W53107  29.184  14.111   1.337
81382W        W53108  40.093  30.028   1.253
81383W        W53109  13.566   8.412  10.779
81384W        W53110  38.078  27.608  14.020
81385W        W53111  34.127   5.313   4.700
81386W        W53112  37.666  42.407   4.183
81387W        W53113   0.260   6.304  13.975
81388W        W53114  11.584  16.014   0.027
81389W        W53115   2.500  11.419  11.103
81390W        W53116  28.651  37.777   5.037
81391W        W53117  36.090   5.679  11.947
81392W        W53118   1.547   1.997   1.223
81393W        W53119  18.074  26.199  14.801
81394W        W53120  17.572   2.951   1.990
81395W        W53121   5.166  40.914  11.140
81396W        W53122  13.150  24.029  14.001
81397W        W53123  15.271  19.486   4.359
81398W        W53124  40.561  34.508  14.483
81399W        W53125  25.337   0.062   0.999
81400W        W53126  30.820  43.419   3.258
81401W        W53127  16.959  32.591  11.111
81402W        W53128   5.928  10.296  10.955
81403W        W53129  12.685  20.020  14.995
81404W        W53130  12.013  26.912   3.738
81405W        W53131   4.945  19.141   0.382
81406W        W53132  18.077  27.439  13.730
81407W        W53133  33.375  33.113   5.277
81408W        W53134  10.441  23.608  13.058
81409W        W53135   4.185  20.902  14.166
81410W        W53136   8.634  21.481  11.954
81411W        W53137  21.850  24.762   0.465
81412W        W53138   1.317  29.895   0.748
81413W        W53139  26.587   3.731  12.117
81414W        W53140  44.260  14.578  12.533
81415W        W53141  17.052   5.802  14.987
81416W        W53142  29.002  38.854  14.906
81417W        W53143  10.981   1.798  14.502
81418W        W53144   2.386  26.435  13.022
81419W        W53145  32.551  44.334   4.321
81420W        W53146   3.724  13.541   4.373
81421W        W53147  30.017  31.028  13.968
81422W        W53148  28.929   2.887  13.100
81423W        W53149  19.769  18.703   1.626
81424W        W53150   9.541  14.136  13.946
81425W        W53151  31.640  44.804   4.225
81426W        W53152  26.064  19.445  11.512
81427W        W53153  24.099  38.108   1.507
81428W        W53154  19.109  28.994   1.327
81429W        W53155  35.538  41.559  10.940
81430W        W53156  39.479   6.722  12.120
81431W        W53157  39.544  31.386   4.756
81432W        W53158  22.737  20.995  13.460
81433W        W53159  42.880   5.949  14.341
81434W        W53160  18.675  40.577  11.982
81435W        W53161  34.167  11.158  12.108
81436W        W53162  36.043  38.587   1.273
81437W        W53163  32.799  13.120  13.804
81438W        W53164  20.025  23.637  12.384
81439W        W53165   1.297  44.938  12.565
81440W        W53166  30.459  17.162   1.336
81441W        W53167   8.167  38.637   3.680
81442W        W53168   8.881   6.567  12.961
81443W        W53169  36.113  20.807  11.666
81444W        W53170  37.368  44.801   0.934
81445W        W53171   9.217  19.316  12.851
81446W        W53172  41.518  29.152   2.741
81447W        W53173  34.985  11.487   4.152
81448W        W53174   5.954  26.542  12.593
81449W        W53175  28.657   4.001   3.364
81450W        W53176   5.382  34.965  10.689
81451W        W53177  30.234  38.032   4.501
81452W        W53178  26.346   2.705  12.091
81453W        W53179  19.139   8.883  10.970
81454W        W53180  40.638  16.088   3.365
81455W        W53181  28.252  39.876  11.636
81456W        W53182  10.711  43.596   0.171
81457W        W53183   8.550  27.693   4.333
81458W        W53184  17.263   2.070  11.590
81459W        W53185   6.345  43.485  14.900
81460W        W53186  35.614  11.606  13.398
81461W        W53187   6.658  44.413  12.092
81462W        W53188  18.088  28.038  14.442
81463W        W53189  35.819  36.364   1.023
81464W        W53190  38.858  33.000  10.200
81465W        W53191  30.045  41.214  12.774
81466W        W53192  37.945  22.265   0.884
81467W        W53193  24.071  16.141  13.687
81468W        W53194   7.311  35.171  12.028
81469W        W53195  33.028  25.505   9.843
81470W        W53196  14.209  13.059  14.682
81471W        W53197   9.660  38.202  14.934
81472W        W53198  25.674  14.135   1.405
81473W        W53199   0.271   6.696  12.054
81474W        W53200  16.015  43.297   3.175
81475W        W53201  19.778  44.264  11.130
81476W        W53202   8.384  20.023   1.838
81477W        W53203  32.429  38.418  14.822
81478W        W53204  44.328  37.159  12.513
81479W        W53205  29.452  12.651  12.058
81480W        W53206  32.087  14.063   2.645
81481W        W53207   7.328  33.636   0.629
81482W        W53208  19.659  22.096  10.692
81483W        W53209  32.114   4.842   4.069
81484W        W53210  11.111   2.280  11.645
81485W        W53211  33.987   9.651   1.791
81486W        W53212  12.006  11.897   4.666
81487W        W53213   3.872  41.465  11.779
81488W        W53214  15.629  33.979   1.256
81489W        W53215   9.869  23.253  12.116
81490W        W53216   6.956  39.385  12.895
81491W        W53217   9.813  38.032  14.475
81492W        W53218  19.118  14.629   2.031
81493W        W53219  18.933  10.744   4.943
81494W        W53220  12.041  39.053  11.210
81495W        W53221   9.391  40.512  12.366
81496W        W53222  23.088   9.371  10.349
81497W        W53223   8.167  17.072   2.742
81498W        W53224  18.230  32.903  13.992
81499W        W53225  28.682  28.665  12.945
81500W        W53226   6.244  43.416  11.014
81501W        W53227  23.656  36.046  11.340
81502W        W53228  28.378  12.208   0.186
81503W        W53229   9.226  21.405  12.719
81504W        W53230  31.539   8.580   1.860
81505W        W53231  40.485  39.357   0.653
81506W        W53232  38.390   4.910   4.639
81507W        W53233   5.503  34.608   1.350
81508W        W53234  15.442   0.860   1.429
81509W        W53235   0.264   8.235  14.893
81510W        W53236  14.842  40.781   3.857
81511W        W53237  24.543  21.684  10.815
81512W        W53238  17.956   7.520  11.473
81513W        W53239  42.931  19.990  13.846
81514W        W53240  42.408   6.316   0.957
81515W        W53241  35.515  18.899  14.884
81516W        W53242   8.632  34.209   9.902
81517W        W53243  14.867  40.086  13.538
81518W        W53244   2.564  12.817  10.715
81519W        W53245  39.980   2.986  14.337
81520W        W53246  33.534   9.981  13.890
81521W        W53247  15.654  37.601   2.762
81522W        W53248  15.614  18.610   0.320
81523W        W53249   2.856  29.645   0.591
81524W        W53250  18.690  22.343   5.074
81525W        W53251  16.746  43.828   0.792
81526W        W53252  32.389  34.310  13.943
81527W        W53253  31.581   2.930   2.233
81528W        W53254   7.097  29.092   1.319
81529W        W53255  12.548  41.721   4.546
81530W        W53256  20.022  30.885   1.723
81531W        W53257   1.918  12.273   2.248
81532W        W53258  29.962  28.069  11.657
81533W        W53259  28.832  28.444  12.085
81534W        W53260  32.871   2.042  11.172
81535W        W53261  15.951  34.331   4.099
81536W        W53262  32.994   1.412   1.914
81537W        W53263   9.191   9.608   4.576
81538W        W53264  10.746  32.248   1.263
81539W        W53265  10.413   3.800   3.327
81540W        W53266  10.175  26.917   4.656
81541W        W53267  26.040   1.303   4.534
81542W        W53268  21.647  31.406  10.716
81543W        W53269   3.319  28.561  14.297
81544W        W53270  22.712  42.551  13.051
81545W        W53271  16.001   2.824  13.633
81546W        W53272  16.105  29.211  10.765
81547W        W53273  22.640  15.464   5.180
81548W        W53274  40.691  31.098   1.966
81549W        W53275  13.511  12.085   4.624
81550W        W53276  41.393  19.193   0.946
81551W        W53277  37.284   5.762   2.224
81552W        W53278  22.116  29.621  13.737
81553W        W53279  44.011  36.049   3.723
81554W        W53280  22.798  27.513  11.119
81555W        W53281  40.867  39.516   0.124
81556W        W53282  37.334  43.722   4.090
81557W        W53283  32.355  14.962  11.242
81558W        W53284  17.710  30.074  13.469
81559W        W53285  27.367  37.047   2.701
81560W        W53286  14.622  19.552   4.594
81561W        W53287  14.405  41.520  14.266
81562W        W53288  40.078   5.291   0.536
81563W        W53289   4.723  18.526  11.786
81564W        W53290   6.750   8.229   3.096
81565W        W53291   6.950   8.904   4.756
81566W        W53292  31.454  32.149   2.657
81567W        W53293  36.039   0.820   4.517
81568W        W53294  22.514  42.066   3.262
81569W        W53295  30.725   8.845  13.616
81570W        W53296  13.749  15.004   3.727
81571W        W53297  43.991  43.517   3.172
81572W        W53298  32.584  34.819   0.486
81573W        W53299  15.693  28.955  13.490
81574W        W53300  21.598   5.250   1.323
81575W        W53301  31.982  21.635  11.709
81576W        W53302  41.264  16.804  12.400
81577W        W53303  29.588  36.448   3.698
81578W        W53304  32.011  20.990   0.742
81579W        W53305  43.397  13.569   0.934
81580W        W53306  16.646  10.898  12.052
81581W        W53307  26.666  44.784  12.941
81582W        W53308  19.887  40.444   5.069
81583W        W53309   7.404  30.092  13.073
81584W        W53310  10.643  28.472   3.489
81585W        W53311  32.095   3.374   2.855
81586W        W53312   5.377  21.139  14.999
81587W        W53313  27.000  29.989   0.826
81588W        W53314  23.006  16.653   3.120
81589W        W53315   1.291   2.672  13.653
81590W        W53316  33.374  21.968   4.612
81591W        W53317  37.029   8.819  12.109
81592W        W53318   7.139  15.139   5.433
81593W        W53319   9.440  19.213   1.307
81594W        W53320  35.654  42.834   0.237
81595W        W53321  42.613  31.261  12.114
81596W        W53322  14.009   4.845  14.318
81597W        W53323  10.661   8.795   3.726
81598W        W53324   7.351   2.858  13.922
81599W        W53325  19.608  44.726   0.012
81600W        W53326   5.499  14.263   5.067
81601W        W53327  19.148  31.508   0.898
81602W        W53328  24.681  37.131   2.925
81603W        W53329   0.208   8.885  12.210
81604W        W53330  11.369  42.467   4.123
81605W        W53331  38.495  20.733  14.954
81606W        W53332  29.209  16.955  14.974
81607W        W53333   8.289  38.459   0.770
81608W        W53334  37.640  41.043  13.571
81609W        W53335  26.855  21.115  10.637
81610W        W53336  32.533  22.402   0.746
81611W        W53337  35.548  17.264  14.503
81612W        W53338   4.745  35.009   2.463
81613W        W53339  40.219  19.188   2.749
81614W        W53340  12.717  18.118  13.542
81615W        W53341  27.502  36.096   1.014
81616W        W53342  12.384  19.540  11.555
81617W        W53343  26.736  32.980  11.626
81618W        W53344  13.673  43.184   4.397
81619W        W53345  37.117  15.705  13.017
81620W        W53346  30.922  15.677   0.368
81621W        W53347  29.272  17.617   3.700
81622W        W53348  36.067  32.115  10.751
81623W        W53349  34.972  19.216   3.395
81624W        W53350   3.861  27.591   3.207
81625W        W53351  22.620  31.840  13.752
81626W        W53352  40.023  36.810  11.968
81627W        W53353  36.883  16.318  13.838
81628W        W53354  42.741  11.258  11.452
81629W        W53355  30.512  30.559   4.141
81630W        W53356   6.743  34.670  14.976
81631W        W53357  11.116  10.030  10.660
81632W        W53358  33.841  25.697   0.060
81633W        W53359  11.904  36.083   0.682
81634W        W53360  42.730  36.005  12.338
81635W        W53361  24.890  34.996   3.363
81636W        W53362  30.584  18.178  12.189
81637W        W53363  16.063  37.112   1.756
81638W        W53364  32.127  39.399  13.368
81639W        W53365  37.626  33.862  14.015
81640W        W53366   7.678  35.627   0.721
81641W        W53367   8.135  27.049  13.502
81642W        W53368  17.612   2.932  13.821
81643W        W53369  32.532  31.761  14.242
81644W        W53370  25.196  24.282   4.149
81645W        W53371  25.886  39.007   1.296
81646W        W53372  12.683   2.716   4.377
81647W        W53373  16.796  10.056   4.250
81648W        W53374  10.632  25.419  14.680
81649W        W53375  12.868  42.526   4.916
81650W        W53376   9.299  37.590   1.374
81651W        W53377  26.731  10.331  11.478
81652W        W53378  42.263  14.329  13.367
81653W        W53379   1.749  19.735  11.906
81654W        W53380  27.862  38.787  11.168
81655W        W53381  42.072  31.192  10.580
81656W        W53382  25.296  32.152  14.502
81657W        W53383  34.394  28.540   4.663
81658W        W53384   3.724  24.514  13.326
81659W        W53385  41.549  34.531  11.656
81660W        W53386  27.375  33.424  10.161
81661W        W53387  25.052  40.328   0.755
81662W        W53388  40.823  30.985   3.470
81663W        W53389  24.754   8.409   2.016
81664W        W53390   4.992   4.999   2.383
81665W        W53391  19.502  38.519   2.022
81666W        W53392  35.068  35.345  12.453
81667W        W53393  28.639  41.795   1.664
81668W        W53394  44.239  11.155   3.735
81669W        W53395  34.911   8.341   2.881
81670W        W53396  22.471  14.726  14.969
81671W        W53397  28.986  24.616   2.004
81672W        W53398  43.429   5.363  13.231
81673W        W53399  14.651  21.014  12.289
81674W        W53400  24.333  30.998  13.593
81675W        W53401  28.526  37.196  11.481
81676W        W53402  35.361  42.542   1.300
81677W        W53403  16.724  17.803   4.652
81678W        W53404  37.432   2.401  14.294
81679W        W53405  17.240  15.257  13.956
81680W        W53406  17.723  21.777  14.447
81681W        W53407  21.792   0.926  12.517
81682W        W53408   9.863   6.592   0.696
81683W        W53409  31.701  27.835   5.250
81684W        W53410  37.889  13.405  10.714
81685W        W53411  38.410  31.936  11.689
81686W        W53412  24.541  23.512  12.658
81687W        W53413  37.946  32.979   4.935
81688W        W53414  40.634  13.310  11.214
81689W        W53415  31.939  12.606  11.404
81690W        W53416  18.284  27.440   2.604
81691W        W53417  37.553  34.156   2.308
81692W        W53418  38.794   0.505   1.687
81693W        W53419  27.582  39.291   3.643
81694W        W53420  43.222  33.928  14.999
81695W        W53421   4.548  10.167  14.238
81696W        W53422   1.737  43.304  10.631
81697W        W53423  18.735  39.071  12.195
81698W        W53424   7.384   6.767   0.496
81699W        W53425  41.074   6.126  14.251
81700W        W53426   2.795  20.151  12.585
81701W        W53427  19.442  43.979   3.200
81702W        W53428  37.471   0.443  12.107
81703W        W53429  13.731   5.113  11.398
81704W        W53430  24.944  33.965   0.780
81705W        W53431  39.798  41.515   3.083
81706W        W53432  23.769   7.283   1.530
81707W        W53433  38.854   4.634   2.382
81708W        W53434  23.248  44.235   4.154
81709W        W53435  41.870  38.572   3.851
81710W        W53436  32.512  43.987   2.829
81711W        W53437  24.271  14.421   1.472
81712W        W53438  24.663  28.817  12.411
81713W        W53439   8.835  29.419   4.689
81714W        W53440   6.428   4.523  13.887
81715W        W53441   7.841  24.563  11.478
81716W        W53442  29.781  42.945  12.921
81717W        W53443   5.159   9.857   4.160
81718W        W53444  16.672  29.444  11.899
81719W        W53445  25.701  13.111   0.467
81720W        W53446  35.289  23.477  11.884
81721W        W53447  22.599  37.591  13.764
81722W        W53448   1.785  29.645   1.892
81723W        W53449   9.659  35.420   3.658
81724W        W53450   4.705   4.964  13.516
81725W        W53451  36.519  35.181   0.758
81726W        W53452  21.439  16.930  13.612
81727W        W53453  10.386  40.916   1.773
81728W        W53454  13.909  14.407  10.943
81729W        W53455  31.175  23.384   2.855
81730W        W53456  37.961  31.845  10.448
81731W        W53457   5.317  26.390  11.444
81732W        W53458  33.882  38.935  12.135
81733W        W53459  44.728  40.895  13.070
81734W        W53460   7.667  19.041   1.870
81735W        W53461  38.045  18.283   1.984
81736W        W53462  14.521  22.656   2.734
81737W        W53463  24.567  28.219  11.122
81738W        W53464  38.163  13.531  11.141
81739W        W53465  42.043  23.666   4.771
81740W        W53466  44.866  12.280  13.416
81741W        W53467  40.780  22.587  12.402
81742W        W53468  14.682  15.022   4.638
81743W        W53469   8.887  16.632   0.814
81744W        W53470  35.237  22.168  14.864
81745W        W53471   8.485   2.097   1.468
81746W        W53472  44.817  37.594   3.270
81747W        W53473  42.910  30.624   4.340
81748W        W53474  16.521   5.688  13.025
81749W        W53475   5.793  34.043  14.689
81750W        W53476  38.489   1.912  11.685
81751W        W53477  41.497  44.471  13.122
81752W        W53478  38.794  33.640  12.276
81753W        W53479   8.786  40.045  11.194
81754W        W53480  32.526  29.712  10.678
81755W        W53481  14.016  30.938   4.599
81756W        W53482  38.030  16.265  11.237
81757W        W53483  18.530  17.816   0.299
81758W        W53484  12.275  27.736   3.368
81759W        W53485  34.154  18.837  13.909
81760W        W53486  15.788  27.667  14.854
81761W        W53487  31.557  10.007   2.889
81762W        W53488   1.774   1.772  12.729
81763W        W53489   6.491  38.509   1.696
81764W        W53490  26.585  39.841  10.822
81765W        W53491  37.587  18.834   0.342
81766W        W53492  11.952  22.435  13.978
81767W        W53493  19.469  44.485   3.390
81768W        W53494  40.367   3.996   1.794
81769W        W53495  30.374  21.350   2.024
81770W        W53496  19.984  38.352   1.819
81771W        W53497  42.369  16.304   1.428
81772W        W53498   6.720  27.748   1.210
81773W        W53499  43.963  40.554  10.600
81774W        W53500  23.081  14.937   4.538
81775W        W53501   5.821  17.155   4.081
81776W        W53502  20.456  21.751   2.712
81777W        W53503  32.993   8.309   0.540
81778W        W53504   5.493  12.129  13.166
81779W        W53505   5.945  38.466  14.924
81780W        W53506  37.285   8.095   2.375
81781W        W53507  31.173  42.110   1.197
81782W        W53508  18.669  21.717   2.405
81783W        W53509   0.792  28.607   1.859
81784W        W53510  38.311   2.851   4.710
81785W        W53511  20.143  17.787  12.085
81786W        W53512  14.614  10.294  11.453
81787W        W53513  25.083  41.423   0.783
81788W        W53514  26.852  18.177   1.312
81789W        W53515  35.853  40.426  12.092
81790W        W53516   3.930  16.187  11.252
81791W        W53517  22.564  21.885   1.807
81792W        W53518  40.504  44.192   3.719
81793W        W53519  24.072  17.514   3.586
81794W        W53520  20.280  25.950  13.587
81795W        W53521   5.642   7.982  10.571
81796W        W53522  14.556  16.153  12.338
81797W        W53523   9.823  44.922  13.031
81798W        W53524   7.667  21.420   4.975
81799W        W53525  41.432  21.013   2.735
81800W        W53526  29.887   1.692   3.325
81801W        W53527  13.689   2.801   0.012
81802W        W53528   5.902  16.489  14.472
81803W        W53529  10.296  17.861   1.211
81804W        W53530   4.288  14.700   4.821
81805W        W53531  22.580   9.199   2.275
81806W        W53532  34.114   4.259  14.373
81807W        W53533  14.519  14.835  11.657
81808W        W53534   8.774  20.853   4.138
81809W        W53535  20.895  21.323   1.893
81810W        W53536   4.849  25.753   1.878
81811W        W53537  27.608  44.004  11.995
81812W        W53538  34.535  23.803   4.113
81813W        W53539  12.179  35.866  14.801
81814W        W53540  18.150  13.049  12.967
81815W        W53541  25.561  21.653   0.770
81816W        W53542  28.227  43.073  14.829
81817W        W53543  44.413  17.052  11.355
81818W        W53544  20.781   7.599  11.615
81819W        W53545   6.280  32.990   4.574
81820W        W53546  22.747  26.025   5.105
81821W        W53547  43.412  30.795   0.376
81822W        W53548  38.936  43.079  10.265
81823W        W53549   9.142  37.083   2.756
81824W        W53550   4.304  29.331   4.894
81825W        W53551  41.459  19.576   1.321
81826W        W53552  10.219   3.744   2.378
81827W        W53553  13.206  29.889   4.147
81828W        W53554  33.699   3.557   4.704
81829W        W53555  37.416  11.218  10.957
81830W        W53556  29.485  38.153   0.863
81831W        W53557  33.641   6.385   0.839
81832W        W53558  24.543  43.572  10.523
81833W        W53559  30.822  26.695   9.768
81834W        W53560  15.277  36.595   4.759
81835W        W53561  10.319   0.679  13.001
81836W        W53562  19.723   6.818   4.101
81837W        W53563   5.933  38.099   4.277
81838W        W53564  25.890  31.059   1.346
81839W        W53565   7.707  35.289   2.694
81840W        W53566   5.928  13.403   0.861
81841W        W53567  12.860  21.090   4.051
81842W        W53568  30.417  41.888  13.287
81843W        W53569   4.256  42.569  11.040
81844W        W53570  14.641   0.818   1.224
81845W        W53571  33.306  24.780  14.955
81846W        W53572  30.323  25.982  14.049
81847W        W53573  35.651  21.287   3.080
81848W        W53574  39.440  23.274   1.411
81849W        W53575  38.924  26.012   4.597
81850W        W53576  26.062  29.726   1.392
81851W        W53577   2.797  29.925  12.122
81852W        W53578  21.095  17.211   2.164
81853W        W53579   2.694   3.423   0.485
81854W        W53580  37.929  21.475   3.689
81855W        W53581  39.658  22.737   2.002
81856W        W53582  28.461  28.635   4.746
81857W        W53583   5.669  10.728   2.764
81858W        W53584  20.272   0.811   1.811
81859W        W53585  21.215   0.909   4.430
81860W        W53586  43.526  44.493   4.191
81861W        W53587  23.034  11.497   4.303
81862W        W53588  23.640  34.887  14.705
81863W        W53589  22.781   8.450   0.399
81864W        W53590  35.494   1.050   1.801
81865W        W53591  41.821  26.371  14.929
81866W        W53592  41.684  32.628  10.947
81867W        W53593  16.719  30.569   0.491
81868W        W53594  22.563  12.648   3.326
81869W        W53595  18.261  44.205  11.074
81870W        W53596  10.031  28.244   4.208
81871W        W53597  44.608  15.564   1.232
81872W        W53598  32.106  29.870   4.724
81873W        W53599  28.051   5.041  11.445
81874W        W53600  14.198  18.775   0.329
81875W        W53601   9.168  36.644   1.315
81876W        W53602  33.843  28.578   4.641
81877W        W53603   8.851  25.523   4.634
81878W        W53604  17.004  39.004   1.338
81879W        W53605  36.373  29.279   0.228
81880W        W53606   9.871  26.527  13.123
81881W        W53607  10.264  27.242  11.620
81882W        W53608  13.460   1.816  11.407
81883W        W53609  29.522   8.035   4.844
81884W        W53610  22.633  20.192  11.220
81885W        W53611  39.627  38.338   4.938
81886W        W53612   6.433  12.673   1.941
81887W        W53613  12.837  35.682   2.571
81888W        W53614  15.373  10.722   1.347
81889W        W53615  30.118  26.583   4.617
81890W        W53616  21.204  25.040  13.980
81891W        W53617   8.218   8.962  14.478
81892W        W53618  16.255  32.728  14.409
81893W        W53619  40.831  11.272  13.401
81894W        W53620  21.342  38.556   2.902
81895W        W53621  18.741   4.477  13.276
81896W        W53622  32.203  22.969  11.074
81897W        W53623  31.672   3.680  13.396
81898W        W53624   1.193  21.058  12.130
81899W        W53625  43.420  43.772   3.686
81900W        W53626  17.588  37.139  13.446
81901W        W53627  18.860  31.537  11.453
81902W        W53628   7.503   7.397   5.001
81903W        W53629   5.718  42.792   3.693
81904W        W53630  36.657  12.783  10.803
81905W        W53631  22.703  22.188  11.004
81906W        W53632  27.619  24.983   3.681
81907W        W53633   5.880   4.231  11.471
81908W        W53634   5.809   3.822   1.270
81909W        W53635  32.484  40.034  10.758
81910W        W53636  20.741  43.000  13.805
81911W        W53637  35.831  14.607  14.148
81912W        W53638  27.977   8.312   2.743
81913W        W53639  27.666  28.171  11.680
81914W        W53640  19.046  10.860  11.579
81915W        W53641  37.821  13.380  12.981
81916W        W53642  19.050  26.945   3.234
81917W        W53643  41.588  44.985   4.566
81918W        W53644  10.112  38.233   1.078
81919W        W53645  24.220   5.713   3.982
81920W        W53646  22.239  21.272   2.236
81921W        W53647   1.957  22.249  11.123
81922W        W53648  44.272  34.396  12.147
81923W        W53649  14.014   2.639   4.143
81924W        W53650  25.017  24.038  14.938
81925W        W53651   5.218  32.433  10.966
81926W        W53652  22.463  20.130   2.766
81927W        W53653  24.460  14.724  12.007
81928W        W53654  42.473  27.101   0.016
81929W        W53655  40.354  11.413   2.802
81930W        W53656  33.561  43.878   3.155
81931W        W53657  28.320  23.966  11.113
81932W        W53658  28.592  43.713  11.937
81933W        W53659  18.616  21.091   0.784
81934W        W53660  33.984   5.649  13.011
81935W        W53661   3.211   4.451   1.724
81936W        W53662  44.521  27.493  11.685
81937W        W53663  30.098  37.075  14.916
81938W        W53664  12.929  20.049   4.374
81939W        W53665  13.140  23.602   0.297
81940W        W53666  23.684   9.943   4.559
81941W        W53667  17.707  16.714   3.339
81942W        W53668  35.098  26.177  10.670
81943W        W53669  27.064  21.134  14.901
81944W        W53670   2.722  24.735   1.917
81945W        W53671   6.844  25.050   2.533
81946W        W53672  44.845  38.581   2.238
81947W        W53673   0.965  23.451  12.001
81948W        W53674  24.976  23.811   2.254
81949W        W53675   3.469   2.662   1.098
81950W        W53676  27.464  19.555  12.131
81951W        W53677  42.222  19.614  10.977
81952W        W53678  11.289  35.900  13.910
81953W        W53679  43.212  34.407  13.345
81954W        W53680  28.917  12.619   1.669
81955W        W53681  34.373  31.287   3.769
81956W        W53682  41.537  18.124  13.868
81957W        W53683  16.911  24.387   3.370
81958W        W53684   6.855  41.474  14.098
81959W        W53685  25.461  16.196  12.043
81960W        W53686  13.623  18.276  14.861
81961W        W53687  29.442  32.682   2.843
81962W        W53688   5.863  29.684  12.000
81963W        W53689  27.966  20.910   0.779
81964W        W53690   9.336  11.426  13.516
81965W        W53691   1.705   9.724  12.796
81966W        W53692  30.565  30.402   2.531
81967W        W53693  37.319   9.816  11.512
81968W        W53694   9.235  36.491   2.336
81969W        W53695  21.169  30.354   1.406
81970W        W53696  37.939   7.257   3.536
81971W        W53697  18.600  18.104   1.721
81972W        W53698  16.388  34.655  11.566
81973W        W53699   0.168  39.487   4.027
81974W        W53700  10.177  33.653  14.386
81975W        W53701   8.702  18.882  10.886
81976W        W53702  19.338  33.786   2.200
81977W        W53703  16.745   6.627   2.737
81978W        W53704  14.447  34.297   4.155
81979W        W53705  23.068  21.483   3.621
81980W        W53706  33.036  34.156   2.839
81981W        W53707  39.458  22.125  13.903
81982W        W53708   4.149  40.428  11.664
81983W        W53709  18.380   5.236  11.469
81984W        W53710  34.644  29.459  11.432
81985W        W53711  38.123  42.977   1.686
81986W        W53712  36.402  28.585  13.510
81987W        W53713  29.862   6.156  11.534
81988W        W53714   4.004  17.128  12.382
81989W        W53715  31.727  44.491  10.208
81990W        W53716  43.133  43.844  14.561
81991W        W53717  41.703  26.199  14.431
81992W        W53718  31.393  13.635   0.403
81993W        W53719  14.207  29.007   0.393
81994W        W53720  23.580   0.082   2.721
81995W        W53721  10.315   3.085   0.274
81996W        W53722  36.448  18.233   5.173
81997W        W53723  35.889  38.102   0.348
81998W        W53724  40.799  36.536   3.335
81999W        W53725   4.652  28.636   0.675
82000W        W53726  34.004  18.030   2.501
82001W        W53727  28.138  44.002   4.741
82002W        W53728   6.510   1.524   2.701
82003W        W53729  42.147   8.605   2.342
82004W        W53730   9.936  26.527   2.750
82005W        W53731  40.950  15.112  12.556
82006W        W53732   9.858   6.590  11.938
82007W        W53733  36.532  26.141  13.427
82008W        W53734  29.177  36.564   0.348
82009W        W53735  38.110  12.048  14.013
82010W        W53736  21.607  30.508   4.171
82011W        W53737  39.309   2.908  13.120
82012W        W53738  29.026  30.371  14.425
82013W        W53739  33.532  28.873   1.806
82014W        W53740  30.899  40.308  12.915
82015W        W53741   5.667  22.196   2.217
82016W        W53742  17.976   2.639   0.838
82017W        W53743   3.538  10.317  14.387
82018W        W53744  13.316  17.067  10.738
82019W        W53745  35.815  34.010  14.115
82020W        W53746  13.679  34.170  14.484
82021W        W53747   9.214   2.238   2.397
82022W        W53748  16.994  15.441  14.376
82023W        W53749   4.276  27.766  11.328
82024W        W53750  35.906  14.014   4.016
82025W        W53751  13.683  25.172   0.031
82026W        W53752  28.473  34.563  10.773
82027W        W53753  34.475  10.337  12.266
82028W        W53754  32.079   7.839   2.339
82029W        W53755  39.377   1.928   1.946
82030W        W53756  28.001  22.563  11.016
82031W        W53757  26.831  30.405  11.526
82032W        W53758   3.838  32.615   3.350
82033W        W53759  29.921  38.509  14.403
82034W        W53760  40.604  44.797  13.891
82035W        W53761  26.763  21.131   0.552
82036W        W53762  34.953  42.988  13.895
82037W        W53763  34.043  14.540  11.635
82038W        W53764  21.314   0.987  11.181
82039W        W53765   3.495  29.097   1.804
82040W        W53766  21.503  21.221  12.636
82041W        W53767   3.344  39.990  12.405
82042W        W53768  26.747  28.127  12.909
82043W        W53769  16.858  29.199  13.951
82044W        W53770   4.440  41.329  11.612
82045W        W53771  38.030   4.928  11.610
82046W        W53772  17.797  28.054   0.170
82047W        W53773  12.597  42.954  14.803
82048W        W53774  16.203  33.001  12.014
82049W        W53775  18.129   7.383  13.869
82050W        W53776  29.595  15.578  14.867
82051W        W53777  33.170   5.430   0.773
82052W        W53778  14.292   0.435  13.393
82053W        W53779  24.428  39.839  12.002
82054W        W53780  17.480  35.934   1.786
82055W        W53781   4.429  30.128   1.525
82056W        W53782  38.355  12.845   1.646
82057W        W53783  26.173  33.308   4.067
82058W        W53784  43.570  34.099  12.177
82059W        W53785  15.354  25.249  11.987
82060W        W53786  24.999  43.202  12.097
82061W        W53787  17.118  22.630   0.168
82062W        W53788  18.979  35.888   1.657
82063W        W53789  18.461   5.682   1.900
82064W        W53790  32.909  21.773  11.158
82065W        W53791  17.626   6.479   4.110
82066W        W53792  31.806  23.523   4.638
82067W        W53793  21.674  11.152   0.934
82068W        W53794  32.663  33.958  13.485
82069W        W53795  18.118   6.311   4.425
82070W        W53796  39.102  37.591  14.484
82071W        W53797  21.176  10.682  12.052
82072W        W53798  23.061  27.428  10.163
82073W        W53799  42.885  39.497   3.341
82074W        W53800  37.507  30.613   3.760
82075W        W53801  11.751  40.775  13.852
82076W        W53802  25.734  18.566   4.353
82077W        W53803  11.623  31.917   2.932
82078W        W53804  21.879   9.085   2.752
82079W        W53805  21.160  15.781   3.392
82080W        W53806  24.664  38.034  14.449
82081W        W53807  29.420  16.882   3.169
82082W        W53808  43.420   8.745   0.761
82083W        W53809  10.536  34.622  11.853
82084W        W53810  17.349  10.286  14.661
82085W        W53811  28.414  43.689  13.462
82086W        W53812  17.175  34.586  12.910
82087W        W53813  10.547  37.210   4.528
82088W        W53814  30.972  18.252  13.337
82089W        W53815  28.953   3.253  14.369
82090W        W53816  15.907  26.954  14.643
82091W        W53817   8.701  28.990   1.016
82092W        W53818   5.224  30.712  12.390
82093W        W53819  38.372   7.539   3.319
82094W        W53820  36.425  31.374  11.543
82095W        W53821  28.552  10.291  13.084
82096W        W53822   1.821  17.151   0.881
82097W        W53823  32.691  23.102  12.956
82098W        W53824   8.954  23.823  14.783
82099W        W53825   2.684  33.552  13.102
82100W        W53826  22.259   8.434  14.485
82101W        W53827   4.440  32.890  10.390
82102W        W53828  34.124  25.216  11.518
82103W        W53829  43.994   8.209   4.311
82104W        W53830   1.189  33.828   3.738
82105W        W53831  17.141  16.883  12.978
82106W        W53832  15.185  20.174   1.318
82107W        W53833   8.854  30.174   3.344
82108W        W53834   7.211  39.431   0.685
82109W        W53835   3.684  25.976  12.998
82110W        W53836  39.214  24.182   5.113
82111W        W53837  17.967  28.699  14.867
82112W        W53838  43.973  19.426   3.367
82113W        W53839  11.603  36.401  12.632
82114W        W53840  11.477  14.725   3.272
82115W        W53841  27.672   7.675   3.736
82116W        W53842  25.235  13.066  13.095
82117W        W53843  22.290  27.230   2.684
82118W        W53844  37.996   8.643   3.763
82119W        W53845  41.281  14.800   4.153
82120W        W53846  27.773  16.105   1.732
82121W        W53847  25.652  16.673   1.474
82122W        W53848   4.360  32.769   0.093
82123W        W53849  15.071  42.727  13.717
82124W        W53850  27.635   7.533   3.228
82125W        W53851  35.818  11.691   1.280
82126W        W53852  44.418  32.045  10.870
82127W        W53853  41.389  38.313  11.974
82128W        W53854  20.750  26.329   1.333
82129W        W53855  29.328  16.690  11.498
82130W        W53856  14.584  29.434  12.400
82131W        W53857  35.235  19.684   3.294
82132W        W53858  27.575  39.522  11.802
82133W        W53859  11.288  30.425   3.221
82134W        W53860  24.545   3.253   1.614
82135W        W53861  42.467  41.313   3.308
82136W        W53862  43.084  35.397  10.659
82137W        W53863  44.619  13.135  11.445
82138W        W53864  35.787  25.061   2.767
82139W        W53865   3.263  18.352   2.261
82140W        W53866  13.171  16.358  11.875
82141W        W53867  21.535  12.074  14.929
82142W        W53868  17.234  18.471   1.916
82143W        W53869  20.054  18.241   0.791
82144W        W53870  38.055   7.291  10.572
82145W        W53871  28.715  23.359   4.147
82146W        W53872  26.290  22.905  14.523
82147W        W53873   8.178   7.598   3.165
82148W        W53874  27.971  33.835  11.433
82149W        W53875  43.452  22.174   4.329
82150W        W53876   1.819  37.092   0.586
82151W        W53877  30.984  31.697   4.602
82152W        W53878  18.609  26.217   0.544
82153W        W53879  43.933  40.555   4.441
82154W        W53880  13.208  15.882  11.389
82155W        W53881  38.071  34.779  14.409
82156W        W53882  36.481  37.652  10.568
82157W        W53883  12.460   2.266   0.964
82158W        W53884  17.651  21.235   1.893
82159W        W53885   7.229  43.729  12.985
82160W        W53886  43.299   0.655   3.258
82161W        W53887  28.150  10.627   1.882
82162W        W53888   9.945  12.120  13.529
82163W        W53889   6.686  26.831  13.549
82164W        W53890  22.083   5.174   1.115
82165W        W53891  27.610  32.636   2.861
82166W        W53892   2.888  30.730   3.285
82167W        W53893  24.047  13.628  14.914
82168W        W53894  34.187   3.164   0.956
82169W        W53895  14.451  13.067   0.162
82170W        W53896  43.688   8.222  14.882
82171W        W53897   4.277   8.382  12.481
82172W        W53898  22.581  28.410  13.316
82173W        W53899  40.067  13.245   2.357
82174W        W53900  27.117  11.909  13.578
82175W        W53901   4.066  32.202  12.618
82176W        W53902  24.142   0.925   1.032
82177W        W53903  34.356   1.607  13.564
82178W        W53904  35.455  39.696   1.630
82179W        W53905   9.815  25.663   4.576
82180W        W53906  20.703   3.138  14.806
82181W        W53907  13.325  38.018   0.893
82182W        W53908  35.278  12.103  10.679
82183W        W53909  14.765   1.218   0.905
82184W        W53910  27.599   2.911  13.541
82185W        W53911   3.469  35.906  11.475
82186W        W53912  35.904  42.262  12.398
82187W        W53913  19.531  41.980   0.781
82188W        W53914  22.648   6.471   0.233
82189W        W53915  20.256  36.978  14.828
82190W        W53916  23.722  15.788   3.714
82191W        W53917   5.262  15.732   1.398
82192W        W53918  16.227  26.776  11.593
82193W        W53919  16.857  21.761   2.218
82194W        W53920   4.602  37.097  12.559
82195W        W53921  18.080  38.190   0.583
82196W        W53922  44.748  10.353  12.411
82197W        W53923   5.059   5.811   1.271
82198W        W53924  44.482  19.787   1.249
82199W        W53925  18.640  31.074  11.569
82200W        W53926  31.344  12.814   3.365
82201W        W53927  27.029  36.360   3.995
82202W        W53928   8.420   6.612   3.612
82203W        W53929  28.920  32.629  11.883
82204W        W53930  35.430  39.698   4.825
82205W        W53931  34.070   9.432   1.252
82206W        W53932  32.462  39.153  14.336
82207W        W53933  24.993  42.591  12.064
82208W        W53934  11.206   4.267   0.373
82209W        W53935  44.059  41.837   4.713
82210W        W53936   7.239  24.043   4.428
82211W        W53937   0.866   3.749   2.624
82212W        W53938  33.159  24.788   4.067
82213W        W53939  33.030  11.365  12.643
82214W        W53940  14.224   2.264  14.429
82215W        W53941  41.883  40.560   3.302
82216W        W53942   1.606   4.463   4.806
82217W        W53943  44.516  24.777  12.944
82218W        W53944  27.515   6.319  13.617
82219W        W53945  40.392   0.440  14.505
82220W        W53946  25.154  11.643   3.600
82221W        W53947  23.521  15.137  13.519
82222W        W53948  25.015   0.040  13.782
82223W        W53949  35.538  16.177   4.510
82224W        W53950  14.238  12.706   4.131
82225W        W53951  39.587  23.756   0.485
82226W        W53952  19.688   5.937  12.032
82227W        W53953  34.780  28.652   3.203
82228W        W53954  44.929  41.963   1.983
82229W        W53955  27.635   1.071   5.041
82230W        W53956  23.105  21.754   3.169
82231W        W53957   9.744  36.953  10.164
82232W        W53958  36.881  16.353   3.493
82233W        W53959  23.437  33.860  13.908
82234W        W53960  10.086  44.279  13.331
82235W        W53961   2.251  12.818  11.136
82236W        W53962  11.215  34.424  13.846
82237W        W53963   3.716  19.297  13.427
82238W        W53964  36.981  40.036   1.397
82239W        W53965   1.899  25.464  14.028
82240W        W53966  27.261   7.223   1.878
82241W        W53967  26.076  27.511   3.103
82242W        W53968  32.568  14.678  11.634
82243W        W53969   9.332  10.752  14.892
82244W        W53970  26.961  33.990   1.340
82245W        W53971  23.627  10.909   4.647
82246W        W53972  14.683   1.434   4.377
82247W        W53973  31.504   9.134   5.150
82248W        W53974  44.935  42.381   0.041
82249W        W53975  35.517  39.403  11.496
82250W        W53976  13.583  15.315  12.566
82251W        W53977  25.969  20.831  14.433
82252W        W53978   3.654   1.188   4.595
82253W        W53979  40.515  18.294   2.648
82254W        W53980  17.767  23.124  11.647
82255W        W53981  21.652  13.118  14.711
82256W        W53982   8.413   8.900   0.716
82257W        W53983  41.282   3.784  11.469
82258W        W53984  40.466  23.424   2.272
82259W        W53985  40.520  36.034  13.745
82260W        W53986  16.840  22.483  12.035
82261W        W53987  26.400  27.539  13.917
82262W        W53988  14.873  17.692   0.013
82263W        W53989  24.831  43.799   1.414
82264W        W53990  22.987  26.314  12.572
82265W        W53991   9.415   6.425  12.993
82266W        W53992  16.086  35.064  10.675
82267W        W53993  31.072  26.476   2.850
82268W        W53994  17.743  38.900   4.648
82269W        W53995  10.839  41.451   1.364
82270W        W53996  23.178  27.657  12.066
82271W        W53997  11.540  20.651  13.926
82272W        W53998  44.284   6.267  13.053
82273W        W53999  23.193  37.841  11.684
82274W        W54000  42.262   0.377  13.441
82275W        W54001  26.584  11.566  12.946
82276W        W54002  42.407  23.800  12.081
82277W        W54003  10.807   8.934  12.586
82278W        W54004  34.269   0.032  11.714
82279W        W54005  15.042  19.124  13.280
82280W        W54006  30.162   0.112   1.886
82281W        W54007  10.858  22.776   4.644
82282W        W54008  31.344  24.206   4.234
82283W        W54009  18.703  26.085   1.062
82284W        W54010  44.852  10.368  11.644
82285W        W54011  38.361  28.540  13.254
82286W        W54012  29.481  14.544   2.764
82287W        W54013  17.773  20.260  11.133
82288W        W54014   6.917   5.281  13.804
82289W        W54015   5.065   2.867  11.569
82290W        W54016   2.362  43.352  12.247
82291W        W54017  37.400  35.274   0.461
82292W        W54018  13.651  32.149   2.857
82293W        W54019  22.334  22.302   2.255
82294W        W54020   1.862  27.865   5.111
82295W        W54021  31.519  17.603  11.681
82296W        W54022  31.873  28.400   1.150
82297W        W54023  39.445  34.793  11.654
82298W        W54024  32.322   1.952   3.305
82299W        W54025  30.587  36.737   4.149
82300W        W54026  38.791  36.382   0.477
82301W        W54027  23.588  12.076  13.547
82302W        W54028  24.157  41.435  13.821
82303W        W54029  33.878  40.929   1.043
82304W        W54030  32.583   4.255   4.111
82305W        W54031  24.507  40.970   3.663
82306W        W54032  15.304  11.685  11.679
82307W        W54033  35.001  19.678  10.289
82308W        W54034  33.987  15.859  11.112
82309W        W54035  43.332  28.619   3.665
82310W        W54036   8.760  19.745  14.362
82311W        W54037  19.136   1.803   0.447
82312W        W54038  34.771  13.752  11.956
82313W        W54039   1.783  30.639   1.739
82314W        W54040   6.848  15.207   5.004
82315W        W54041  35.870  24.987  13.840
82316W        W54042  42.542  18.285  12.850
82317W        W54043  28.408  14.163   3.780
82318W        W54044  42.861  15.930   5.116
82319W        W54045  26.668  17.830  12.866
82320W        W54046  31.460  19.118   1.357
82321W        W54047  28.927  12.866  14.273
82322W        W54048   5.691   5.341   2.341
82323W        W54049  11.829  32.857   0.592
82324W        W54050  10.226  21.512  12.688
82325W        W54051  22.599  13.182   4.530
82326W        W54052  18.276  20.252   2.395
82327W        W54053  23.190  22.941  12.001
82328W        W54054  22.267  22.651   1.257
82329W        W54055   6.679  19.878   3.401
82330W        W54056   6.716   0.526   2.786
82331W        W54057  23.418  26.960   0.708
82332W        W54058  37.044  17.546  12.065
82333W        W54059  30.709  43.210   2.808
82334W        W54060  31.419  16.207  14.837
82335W        W54061   9.255  44.261   0.877
82336W        W54062   2.779  39.598  10.676
82337W        W54063  17.440  25.730   2.274
82338W        W54064  34.792  35.784  12.393
82339W        W54065  16.150  20.127   3.173
82340W        W54066  15.772  34.642  14.231
82341W        W54067  25.135   0.404   1.362
82342W        W54068   6.902  17.803  11.846
82343W        W54069  26.381   5.787  11.861
82344W        W54070  44.430  41.278   0.350
82345W        W54071  17.871  16.185   0.836
82346W        W54072  16.701  32.642  12.039
82347W        W54073  22.457  36.428   0.405
82348W        W54074   0.542   8.117   4.949
82349W        W54075  32.352  34.024  11.608
82350W        W54076  33.534   3.481  12.857
82351W        W54077   0.036   3.752  13.312
82352W        W54078  34.843  13.529  11.490
82353W        W54079  20.676  29.081  10.559
82354W        W54080  36.759  25.135  13.595
82355W        W54081   9.238  23.302  12.920
82356W        W54082  33.651  37.483  11.257
82357W        W54083  42.867  28.503   0.047
82358W        W54084  33.160  26.181   4.029
82359W        W54085   5.202  20.448  11.178
82360W        W54086   0.440   8.773   2.370
82361W        W54087  17.679  33.598   0.241
82362W        W54088  42.900  12.808   0.001
82363W        W54089  38.797  28.475   0.881
82364W        W54090  32.834  20.900  14.262
82365W        W54091  43.538  42.799   0.096
82366W        W54092   5.395  31.396   1.322
82367W        W54093  17.693   8.848   0.761
82368W        W54094  20.794   9.869  14.420
82369W        W54095  16.015  26.681  11.118
82370W        W54096   0.422  28.176   2.752
82371W        W54097  40.602  43.466  11.264
82372W        W54098  26.435  21.892  10.346
82373W        W54099  14.861  34.443   1.313
82374W        W54100  11.290  20.718  11.958
82375W        W54101  29.567  18.514   1.716
82376W        W54102   6.166  13.155  14.446
82377W        W54103  21.501  40.399  11.612
82378W        W54104  36.351   1.543   0.806
82379W        W54105   7.555  42.894   4.505
82380W        W54106  42.350  25.481   0.191
82381W        W54107  27.162  28.781   1.661
82382W        W54108   8.448  30.116   3.039
82383W        W54109  31.969  12.545  11.901
82384W        W54110  14.118  26.497  10.025
82385W        W54111  43.636  18.316   4.989
82386W        W54112  14.195  23.058  11.228
82387W        W54113  11.272  25.099  12.079
82388W        W54114  21.560   9.294   1.840
82389W        W54115  13.673  24.593  13.347
82390W        W54116   8.163  31.834  13.925
82391W        W54117  41.365   8.189  11.952
82392W        W54118  35.822   5.756  10.720
82393W        W54119  38.367  18.182   1.331
82394W        W54120  39.363  32.850  10.374
82395W        W54121  31.425  33.336  12.377
82396W        W54122  34.636  40.319   4.535
82397W        W54123  13.951  20.659   3.436
82398W        W54124  21.993  19.569  12.619
82399W        W54125  20.271  10.324  13.487
82400W        W54126  44.197   7.294  14.848
82401W        W54127  34.141  27.690   4.118
82402W        W54128  12.821  15.592   2.336
82403W        W54129  20.814  13.548   1.282
82404W        W54130  44.665  34.893   2.426
82405W        W54131  15.929  35.481  13.380
82406W        W54132  10.351  31.153   2.310
82407W        W54133   9.549  25.479  11.491
82408W        W54134  25.443  22.823  11.062
82409W        W54135  19.754  35.670   4.082
82410W        W54136   2.795  40.494  14.979
82411W        W54137  26.071  24.035  10.986
82412W        W54138   3.013  35.507  14.931
82413W        W54139  32.362  10.372  14.404
82414W        W54140   3.077  28.082  14.519
82415W        W54141   6.452  14.143   2.777
82416W        W54142  42.318  11.433   4.888
82417W        W54143   7.756  10.941   1.950
82418W        W54144  42.393   4.381  10.940
82419W        W54145  22.713  38.873  11.456
82420W        W54146  14.894  42.709   4.111
82421W        W54147  31.907  28.174  14.172
82422W        W54148  34.032  19.619   4.522
82423W        W54149  28.403  15.625  11.165
82424W        W54150   3.791   4.665  14.967
82425W        W54151  14.186  19.796   0.437
82426W        W54152  26.518  19.048   3.166
82427W        W54153  41.306  43.469   0.571
82428W        W54154   3.438  14.723  12.169
82429W        W54155   6.550  22.789  14.306
82430W        W54156   9.083   0.727  13.753
82431W        W54157  14.261  14.712   2.190
82432W        W54158   2.004   8.144   4.717
82433W        W54159  40.995   9.901  12.500
82434W        W54160  35.980  21.472   4.877
82435W        W54161  12.470   2.651   2.642
82436W        W54162  34.558  18.113  12.935
82437W        W54163  20.121   2.354   4.743
82438W        W54164  36.978  31.222  13.089
82439W        W54165  42.518  21.700  11.611
82440W        W54166  37.819   2.281   3.416
82441W        W54167  14.563   9.470  14.968
82442W        W54168  18.773  23.409   4.202
82443W        W54169  44.260  24.705  13.381
82444W        W54170   0.716  10.550   2.368
82445W        W54171  41.232  19.228  14.496
82446W        W54172  25.748   1.537  11.255
82447W        W54173  32.914  15.715   0.481
82448W        W54174   5.228  15.375   3.740
82449W        W54175   7.428  35.343   3.894
82450W        W54176  16.683  13.773  10.759
82451W        W54177  30.847  15.671  13.110
82452W        W54178  44.753  18.966   1.649
82453W        W54179  19.783  18.273   0.356
82454W        W54180  18.327  33.867  11.001
82455W        W54181  38.266  38.513  14.677
82456W        W54182  18.766   1.812   4.519
82457W        W54183   5.204  40.387   3.970
82458W        W54184  25.916  28.425   0.986
82459W        W54185  13.600  17.824  12.075
82460W        W54186  23.716  12.786  14.791
82461W        W54187   1.015   6.758   3.839
82462W        W54188  40.571   8.141   4.840
82463W        W54189   4.717  11.328   4.635
82464W        W54190  36.524  44.074  12.084
82465W        W54191  40.363  21.519  13.320
82466W        W54192  40.595  36.583  13.053
82467W        W54193  10.898   3.851   3.159
82468W        W54194  27.185  24.487   2.388
82469W        W54195   1.453  33.398  10.634
82470W        W54196  43.738  17.219   1.817
82471W        W54197  10.131  14.855  14.578
82472W        W54198  24.478   9.686  12.568
82473W        W54199  22.485   7.808  11.120
82474W        W54200   8.070  31.850  11.918
82475W        W54201  37.767   5.998  13.017
82476W        W54202   2.377   3.420  13.486
82477W        W54203   0.166  44.956   2.871
82478W        W54204  32.534  17.155   4.408
82479W        W54205  16.579  44.799  13.332
82480W        W54206  35.274  44.895  14.359
82481W        W54207  41.455  23.893   4.099
82482W        W54208  17.983  44.812   3.739
82483W        W54209  18.729  22.120   0.840
82484W        W54210  24.021  22.732  10.684
82485W        W54211  18.757  35.686   3.331
82486W        W54212  31.595  12.206  12.467
82487W        W54213  29.180  16.921   2.697
82488W        W54214  14.679  33.577  13.969
82489W        W54215  17.644  14.048  12.535
82490W        W54216  28.069  22.244  10.563
82491W        W54217  28.118  23.337  10.717
82492W        W54218  31.903  18.272   3.697
82493W        W54219  16.629  37.002  13.425
82494W        W54220  32.754   6.683   1.330
82495W        W54221  36.845  38.800   4.126
82496W        W54222  28.914  22.257   0.280
82497W        W54223   0.200  16.721  14.847
82498W        W54224  40.463  42.723  14.102
82499W        W54225  31.948  16.247  10.428
82500W        W54226   6.093   7.497  14.793
82501W        W54227   9.699  44.047   3.416
82502W        W54228  41.046  36.067   3.423
82503W        W54229  44.555  39.312   4.750
82504W        W54230  40.597  39.138  14.841
82505W        W54231   2.248   8.631  10.769
82506W        W54232  40.291   2.402   4.015
82507W        W54233  32.546  31.565  11.129
82508W        W54234  19.339  40.050   4.361
82509W        W54235  22.637  23.738   2.800
82510W        W54236  23.995  22.846  14.237
82511W        W54237  21.612   1.215   0.951
82512W        W54238  31.930  32.538  12.007
82513W        W54239   6.737  20.681  12.188
82514W        W54240  23.629   9.888   3.156
82515W        W54241  21.738   7.726   0.725
82516W        W54242  42.644  25.895  12.986
82517W        W54243  24.057  26.302  13.391
82518W        W54244  38.640  25.160  12.008
82519W        W54245  10.138  20.208   2.507
82520W        W54246   0.205  34.531  12.033
82521W        W54247   7.375  15.161  10.608
82522W        W54248   0.889   5.838   4.679
82523W        W54249  18.719   5.916   0.452
82524W        W54250  14.207  12.131   1.790
82525W        W54251   4.120   9.634  13.057
82526W        W54252  29.978  42.979   0.493
82527W        W54253  24.660  29.251  13.445
82528W        W54254   6.385  15.079   2.319
82529W        W54255   9.139  41.835   2.720
82530W        W54256  12.664  25.721   0.286
82531W        W54257  14.742  23.585  13.283
82532W        W54258  12.797  27.591   4.271
82533W        W54259  13.160   7.595   4.146
82534W        W54260  25.032   9.791  12.673
82535W        W54261  23.751  29.058   1.664
82536W        W54262   9.975   1.978  14.505
82537W        W54263   8.458   3.820  11.798
82538W        W54264  43.338  19.544  14.370
82539W        W54265  42.525  44.293   3.648
82540W        W54266   4.847  24.999   5.174
82541W        W54267  40.439  38.469   2.422
82542W        W54268  22.517  21.466  10.706
82543W        W54269  40.988  23.745  11.981
82544W        W54270  31.689   5.666   2.294
82545W        W54271   6.670  40.002  11.514
82546W        W54272  30.482  13.562  13.835
82547W        W54273  12.437   6.739   3.693
82548W        W54274  40.733  16.138  12.141
82549W        W54275  11.115  33.450  10.826
82550W        W54276  40.525  21.754   0.321
82551W        W54277  35.011  38.311  12.396
82552W        W54278  22.661  36.312   0.855
82553W        W54279   6.812  26.602   4.700
82554W        W54280  22.643  18.768  11.665
82555W        W54281  21.759   8.239  10.997
82556W        W54282   3.265  15.591   5.020
82557W        W54283  44.868  37.083   3.326
82558W        W54284  22.009   9.790  13.326
82559W        W54285   5.726  33.042   1.783
82560W        W54286  13.621  14.809  14.326
82561W        W54287  24.781  27.770  11.088
82562W        W54288  34.448  42.192   2.588
82563W        W54289  17.815   2.565  14.529
82564W        W54290  37.578  30.232  14.407
82565W        W54291  43.836  44.757  10.643
82566W        W54292   2.015  12.904  13.899
82567W        W54293   6.724  24.589  14.795
82568W        W54294  23.502  30.498  12.786
82569W        W54295   7.329  30.522   3.093
82570W        W54296   5.666  28.385  13.442
82571W        W54297  28.472  35.489   2.176
82572W        W54298  12.769  12.685  12.627
82573W        W54299  23.221   4.586  13.065
82574W        W54300  31.795  19.675   4.553
82575W        W54301  35.610  28.827   0.048
82576W        W54302  41.842  21.011   1.943
82577W        W54303  33.166  10.307   3.132
82578W        W54304  16.610  11.222   0.042
82579W        W54305  11.062  37.356   3.609
82580W        W54306  26.249   1.231  13.460
82581W        W54307  26.881  20.127  12.469
82582W        W54308  11.875  14.297  12.823
82583W        W54309   9.841  37.365  12.017
82584W        W54310  40.848  27.919  14.375
82585W        W54311  19.647  12.688   1.446
82586W        W54312  10.843  22.064   2.065
82587W        W54313  12.950  15.689  13.712
82588W        W54314  44.682  40.419   1.285
82589W        W54315  21.694   7.270  11.923
82590W        W54316  12.365  18.641  14.249
82591W        W54317  13.131  16.753   4.522
82592W        W54318   4.708  28.937   4.172
82593W        W54319   1.414   5.867   4.595
82594W        W54320  14.187  21.970   3.190
82595W        W54321  35.564  38.282   3.286
82596W        W54322  28.919  37.409  12.489
82597W        W54323   9.097  23.090   4.672
82598W        W54324  36.535   0.972  11.164
82599W        W54325  34.488  14.745   1.596
82600W        W54326  21.158  25.969  14.485
82601W        W54327  27.730  38.394  14.851
82602W        W54328  19.149  32.626   4.030
82603W        W54329   7.604  10.688   0.470
82604W        W54330  31.796  11.101   1.476
82605W        W54331  17.356  22.787   1.245
82606W        W54332  23.962   8.336   2.431
82607W        W54333   5.664  30.906   4.800
82608W        W54334  33.903  33.305  11.042
82609W        W54335  29.052   3.803  12.531
82610W        W54336  11.709   4.534   0.328
82611W        W54337  27.036  16.925  11.602
82612W        W54338  17.901  13.568  13.527
82613W        W54339   3.297  42.496  11.178
82614W        W54340  11.739  31.781  10.687
82615W        W54341  27.980   1.693   1.849
82616W        W54342  23.200  14.820   2.785
82617W        W54343   6.356   9.127   1.722
82618W        W54344  34.154   5.507   0.829
82619W        W54345   5.216  36.521   3.533
82620W        W54346  27.702  12.340  10.149
82621W        W54347   9.149   8.409  14.290
82622W        W54348  33.456  39.204   4.874
82623W        W54349  39.525  37.579   0.252
82624W        W54350   1.485  43.849   1.342
82625W        W54351  44.742  22.640   1.754
82626W        W54352  24.405  20.132  14.779
82627W        W54353  34.535  40.123   3.244
82628W        W54354  16.752  40.590   0.371
82629W        W54355  22.235  40.777   1.030
82630W        W54356  11.527  15.062  13.333
82631W        W54357  23.226   0.733   0.843
82632W        W54358  28.035  24.773  14.049
82633W        W54359  41.487   5.878  14.443
82634W        W54360  11.293   3.708  12.907
82635W        W54361  30.685  25.517   2.733
82636W        W54362  16.301   3.270   0.281
82637W        W54363  29.365   0.801   4.136
82638W        W54364   3.839   3.219  11.062
82639W        W54365  30.455   3.912   1.327
82640W        W54366   3.747  22.214   2.783
82641W        W54367  18.983  38.810  10.941
82642W        W54368  30.407  28.183   3.668
82643W        W54369  17.809  11.771   3.266
82644W        W54370  44.953  31.508   4.532
82645W        W54371  15.252  20.488  11.124
82646W        W54372  40.283   6.169   2.390
82647W        W54373  16.266  33.507  11.972
82648W        W54374  33.448  20.191   2.887
82649W        W54375  24.726  16.141   1.328
82650W        W54376  26.284  32.978   4.532
82651W        W54377  36.412  38.058   1.956
82652W        W54378  36.875  14.573   0.256
82653W        W54379  12.144  33.956   1.248
82654W        W54380   5.857  29.079   2.737
82655W        W54381  25.933  13.876  11.159
82656W        W54382  33.795  12.088  10.755
82657W        W54383  19.109  16.072   0.449
82658W        W54384  25.463  22.205   2.272
82659W        W54385  22.280  40.455  11.086
82660W        W54386   8.194  34.122   4.124
82661W        W54387  30.062  12.049   4.399
82662W        W54388  12.314  15.620  14.730
82663W        W54389  42.553  44.616  11.203
82664W        W54390  41.784   2.344  11.647
82665W        W54391  17.096   6.648   2.352
82666W        W54392  35.008   3.710   1.345
82667W        W54393  34.778  10.166   2.894
82668W        W54394  34.471  36.050   3.326
82669W        W54395  30.915   7.841  11.573
82670W        W54396  20.931   5.671   0.778
82671W        W54397  42.597  37.007   4.229
82672W        W54398   6.598  35.915  13.818
82673W        W54399  21.068   4.267   0.961
82674W        W54400  38.909  17.970  10.222
82675W        W54401   6.419  12.853   3.846
82676W        W54402  42.453  13.850   3.367
82677W        W54403  37.865  30.516   1.297
82678W        W54404   8.699  17.204   2.675
82679W        W54405  32.603  13.642   2.568
82680W        W54406  22.723  29.849   3.813
82681W        W54407  41.372  31.647   4.069
82682W        W54408  24.302  35.362   5.027
82683W        W54409   7.269  24.983   2.820
82684W        W54410   6.889  27.911  14.448
82685W        W54411  21.453   9.334   3.756
82686W        W54412  36.395  12.838   0.427
82687W        W54413  21.322  31.102  13.364
82688W        W54414   2.279  35.797  13.367
82689W        W54415  24.914  28.067  11.521
82690W        W54416  13.338  25.368  12.437
82691W        W54417   0.381  28.134  12.890
82692W        W54418  35.181  40.948  13.194
82693W        W54419  39.939  41.336  11.669
82694W        W54420  29.003  12.048  11.231
82695W        W54421  12.144   2.842   0.205
82696W        W54422   8.603   1.325   3.825
82697W        W54423  26.681  15.884   1.769
82698W        W54424  29.369  43.359   2.699
82699W        W54425  34.397   1.720   4.219
82700W        W54426  19.273  35.064  14.957
82701W        W54427  39.278  34.527  12.056
82702W        W54428  37.523  27.090   1.420
82703W        W54429   1.536  10.724   3.626
82704W        W54430  29.499   0.097  14.865
82705W        W54431  32.387  12.997   3.212
82706W        W54432   4.853  36.341  11.512
82707W        W54433  24.196   1.298   0.064
82708W        W54434  44.539   5.738  10.445
82709W        W54435  13.606  14.308   4.470
82710W        W54436   4.787   4.925  11.925
82711W        W54437  16.030  13.397   4.309
82712W        W54438  14.751  40.303  13.075
82713W        W54439  26.532  21.088  12.150
82714W        W54440  21.944  13.085   2.628
82715W        W54441   0.958   7.321  13.486
82716W        W54442  29.512   9.048   2.623
82717W        W54443  31.611  26.504  12.929
82718W        W54444  16.246  23.527   0.731
82719W        W54445  18.325  29.061  14.873
82720W        W54446  14.360  37.299  11.013
82721W        W54447  19.932  14.221  14.520
82722W        W54448  21.500  36.180  11.170
82723W        W54449  23.710  33.854   2.264
82724W        W54450  29.040  22.006  11.952
82725W        W54451  27.226  23.050  10.659
82726W        W54452  22.783   7.232   1.235
82727W        W54453  29.498  32.181   4.998
82728W        W54454  18.329  39.969   0.900
82729W        W54455  43.563  31.506   4.612
82730W        W54456  14.760  24.215  14.037
82731W        W54457  10.742   3.411  10.259
82732W        W54458  27.665  23.746   2.253
82733W        W54459  29.162  34.063   1.020
82734W        W54460  23.670  36.869   0.122
82735W        W54461  21.731  42.580  14.547
82736W        W54462  11.496  11.522   1.417
82737W        W54463  42.954  22.428   4.118
82738W        W54464  28.381  21.263  12.107
82739W        W54465  42.478  44.486   0.426
82740W        W54466  25.004   6.052  13.657
82741W        W54467   0.215  34.019  10.587
82742W        W54468  21.658  39.780   1.658
82743W        W54469   1.873   9.959   3.314
82744W        W54470   3.390  34.748   4.107
82745W        W54471  32.380  24.555   0.378
82746W        W54472  37.981  42.507   0.776
82747W        W54473   6.002  17.087  13.304
82748W        W54474  30.069  24.659   2.847
82749W        W54475  16.216  44.738   2.632
82750W        W54476   2.780   5.148  12.969
82751W        W54477  12.863  37.930  14.327
82752W        W54478  22.153  12.227   0.638
82753W        W54479  28.984  32.976   1.448
82754W        W54480  26.089  36.076   2.321
82755W        W54481  31.068  35.109  11.849
82756W        W54482  42.525  20.650   0.332
82757W        W54483  30.951  18.411   3.802
82758W        W54484  42.861  29.569  14.843
82759W        W54485  39.243  31.399   0.201
82760W        W54486   8.190  41.369  12.012
82761W        W54487  38.352  16.551   4.211
82762W        W54488  37.382  24.000   1.846
82763W        W54489   0.512  13.643   3.738
82764W        W54490  10.763  42.047  13.104
82765W        W54491  28.398   9.651   4.576
82766W        W54492  29.304  30.853  12.113
82767W        W54493   6.132   1.768   2.435
82768W        W54494  29.385   4.913  12.664
82769W        W54495  37.457  12.338   1.848
82770W        W54496  36.529   9.304   1.391
82771W        W54497   6.029  31.458   0.121
82772W        W54498   3.855  12.042   2.598
82773W        W54499  30.683  38.645  10.637
82774W        W54500  21.036  24.022  11.513
82775W        W54501  18.450   6.854   3.369
82776W        W54502  41.060  34.554   0.500
82777W        W54503  13.294  31.198   2.681
82778W        W54504  27.158  40.011   2.260
82779W        W54505   2.173  41.519   4.340
82780W        W54506  37.848   5.794   0.327
82781W        W54507  26.937  25.717  13.950
82782W        W54508  33.820   2.838  13.422
82783W        W54509  15.697  17.822  13.527
82784W        W54510  12.174  41.849   3.841
82785W        W54511   5.224  37.040  10.702
82786W        W54512  16.681  28.159  11.603
82787W        W54513  32.126  41.929  12.340
82788W        W54514  28.170  20.209   2.954
82789W        W54515   2.861  18.671  14.275
82790W        W54516  22.607  44.528   4.175
82791W        W54517  40.663  18.207  12.442
82792W        W54518  10.783  24.649  13.971
82793W        W54519  40.499  21.290  12.397
82794W        W54520   4.756  33.068   5.103
82795W        W54521  40.025  29.988   3.913
82796W        W54522  23.151   0.528   4.842
82797W        W54523  39.607   6.345   0.227
82798W        W54524  23.445  40.765   2.706
82799W        W54525  17.523  26.263   2.140
82800W        W54526  41.591  29.440   2.325
82801W        W54527  32.532  41.280  13.568
82802W        W54528  13.240  20.173  11.543
82803W        W54529  38.851  12.379  14.377
82804W        W54530   3.376  21.289  12.407
82805W        W54531  22.767  34.735  13.419
82806W        W54532  44.791  38.596   3.240
82807W        W54533  30.349   4.034   4.109
82808W        W54534  18.747  40.288   1.742
82809W        W54535  30.526  12.047   2.273
82810W        W54536  40.599   7.940   3.704
82811W        W54537  29.581   2.645   3.761
82812W        W54538  10.205  19.829   0.476
82813W        W54539  16.032  24.743  12.877
82814W        W54540   4.897  10.055   0.179
82815W        W54541  23.513  33.305  12.100
82816W        W54542  35.493   8.216  12.189
82817W        W54543   8.490  35.566  12.020
82818W        W54544   3.154  39.312   4.121
82819W        W54545   3.600  43.601  14.529
82820W        W54546   5.795  13.174   0.428
82821W        W54547  14.622  12.759  11.811
82822W        W54548  24.302   2.420   1.733
82823W        W54549  39.942  39.426   4.597
82824W        W54550  12.534  27.946  10.884
82825W        W54551   0.186  14.487  14.347
82826W        W54552  16.453  43.327  12.021
82827W        W54553  18.149  16.713  12.802
82828W        W54554  28.996   2.498  11.562
82829W        W54555  29.028   5.708   3.226
82830W        W54556   1.966  43.003  12.487
82831W        W54557  20.671  26.594   2.527
82832W        W54558   5.082  32.505   4.589
82833W        W54559   7.750  17.490  10.483
82834W        W54560  22.311  14.179   2.859
82835W        W54561  31.046   2.067   0.958
82836W        W54562  13.791  31.374   2.665
82837W        W54563  18.177   3.717   2.260
82838W        W54564  33.376  40.835  11.086
82839W        W54565  34.067  39.828   4.095
82840W        W54566  40.591  16.054  12.621
82841W        W54567  31.077  10.572  14.970
82842W        W54568   4.396   4.645   5.426
82843W        W54569   7.301  12.265  13.923
82844W        W54570  12.261  16.898   2.885
82845W        W54571  20.151  29.883   1.648
82846W        W54572  31.498  29.900  12.894
82847W        W54573  21.289  10.194  13.725
82848W        W54574  17.760  29.057  12.486
82849W        W54575  12.278   9.470  11.186
82850W        W54576  44.945  44.425   3.665
82851W        W54577  26.282  41.069  14.455
82852W        W54578  38.604  36.283  11.589
82853W        W54579   6.285  14.728  14.072
82854W        W54580  30.677   8.424  12.311
82855W        W54581  38.634  38.931  11.280
82856W        W54582   4.422   1.931  10.487
82857W        W54583  36.470   5.776   0.192
82858W        W54584  12.601  18.327  11.991
82859W        W54585  11.705  18.580  11.494
82860W        W54586  13.913  25.407  12.548
82861W        W54587  36.005  15.694   0.254
82862W        W54588   2.920  26.576  12.554
82863W        W54589  16.220  11.569   3.720
82864W        W54590  19.289  34.802  12.564
82865W        W54591  37.476  17.285   0.419
82866W        W54592  24.762  27.201   4.331
82867W        W54593  14.690   6.572  14.660
82868W        W54594   3.938  34.326  11.031
82869W        W54595  23.236  29.952  13.220
82870W        W54596  22.938  18.704   3.356
82871W        W54597  43.795  11.879   4.423
82872W        W54598   0.922  38.649   4.968
82873W        W54599  41.451  17.596   4.590
82874W        W54600  11.240  16.809  12.898
82875W        W54601  11.289  22.768  10.414
82876W        W54602   5.340  11.382  13.609
82877W        W54603  32.442  39.541  10.593
82878W        W54604   9.699  27.035   3.376
82879W        W54605  20.719  24.756  12.352
82880W        W54606  18.605   1.463  11.393
82881W        W54607  16.470  20.162  10.642
82882W        W54608  39.063  22.984   4.140
82883W        W54609  27.681  12.241  13.008
82884W        W54610  29.091   5.487  14.005
82885W        W54611  44.814  33.061   1.227
82886W        W54612  42.300  26.705   2.642
82887W        W54613  27.567  16.864   3.109
82888W        W54614  22.459  13.645   4.775
82889W        W54615  43.791  30.139  13.381
82890W        W54616   4.235  36.277  13.656
82891W        W54617   3.303   0.740  12.610
82892W        W54618  22.107  20.246   2.165
82893W        W54619  41.005  29.814  13.733
82894W        W54620   9.448  24.744   0.553
82895W        W54621  33.202  24.890  10.612
82896W        W54622  13.003   1.234   4.640
82897W        W54623  43.338  10.422  13.452
82898W        W54624  35.455  27.423  11.733
82899W        W54625  10.729  18.371   4.109
82900W        W54626  16.764   2.027  13.561
82901W        W54627  18.183   2.012   1.880
82902W        W54628  21.914  30.039  13.073
82903W        W54629  14.122  31.244  11.170
82904W        W54630   4.984   1.043   5.027
82905W        W54631   6.599  32.820   3.522
82906W        W54632   9.136  38.975   2.157
82907W        W54633   1.883  26.360  12.929
82908W        W54634  42.733  30.702   0.959
82909W        W54635  16.157  19.031   3.973
82910W        W54636  27.597  33.628  11.789
82911W        W54637  18.323  27.542  10.571
82912W        W54638  21.835  12.377  13.616
82913W        W54639  19.483   1.703   1.321
82914W        W54640  29.562   8.674   1.826
82915W        W54641  16.522  26.696  11.151
82916W        W54642  26.114  28.645  10.587
82917W        W54643   9.439   1.855  13.451
82918W        W54644  26.720  27.126   3.731
82919W        W54645  21.653   0.682  13.820
82920W        W54646   4.937   1.717  12.548
82921W        W54647   3.857  20.853   4.287
82922W        W54648  43.104  42.197   4.265
82923W        W54649  12.239  30.449   3.254
82924W        W54650  38.380  26.718  10.660
82925W        W54651   8.688  34.146   4.069
82926W        W54652   2.154  42.049   0.225
82927W        W54653  27.372  28.053   0.729
82928W        W54654  32.153  43.978   4.168
82929W        W54655  29.204   5.903   2.273
82930W        W54656  17.240  24.622   4.600
82931W        W54657  11.119  29.242   2.239
82932W        W54658  28.958  15.542   1.371
82933W        W54659  36.578  13.107  14.402
82934W        W54660  34.972   6.854  14.421
82935W        W54661  33.517   9.608   4.331
82936W        W54662  37.359  36.784  10.756
82937W        W54663  10.694  35.460   4.665
82938W        W54664   2.958  42.937  11.594
82939W        W54665  14.649  37.980   5.429
82940W        W54666  30.148   7.782  14.627
82941W        W54667  12.978   8.679  11.105
82942W        W54668   1.422  14.891  14.075
82943W        W54669  20.318   7.887  13.525
82944W        W54670   3.491  30.559  10.201
82945W        W54671  44.193  19.151   1.907
82946W        W54672  37.443  19.194  10.664
82947W        W54673  43.809  37.837  14.237
82948W        W54674  13.041  13.063  12.407
82949W        W54675  13.821   5.201  11.882
82950W        W54676  16.902  37.154   4.449
82951W        W54677  10.901   2.491  10.806
82952W        W54678  14.210   6.445  14.456
82953W        W54679  31.026  10.817  14.474
82954W        W54680   5.749  27.604  14.744
82955W        W54681  36.314  11.873  13.851
82956W        W54682   0.240  31.422   3.663
82957W        W54683   0.757  37.250   4.144
82958W        W54684   4.270  13.837  11.520
82959W        W54685  34.676  39.515  13.949
82960W        W54686  30.856  42.695   3.721
82961W        W54687  43.254  39.875   3.327
82962W        W54688  18.301  25.368   0.778
82963W        W54689   7.271  36.894  12.252
82964W        W54690  13.811  18.010  14.384
82965W        W54691  29.321  36.773   2.126
82966W        W54692   1.998  29.544   2.348
82967W        W54693  37.553  24.255   4.085
82968W        W54694   5.134   0.041   3.092
82969W        W54695   0.422  34.496   1.783
82970W        W54696  24.247   1.461   1.856
82971W        W54697  30.908  33.138   4.142
82972W        W54698   8.720  27.030   2.897
82973W        W54699  18.672  22.996   1.793
82974W        W54700  30.060   0.959   0.705
82975W        W54701  35.155  18.385   5.124
82976W        W54702  22.847  33.796  11.602
82977W        W54703  37.866   9.905   3.787
82978W        W54704  19.985  28.360  14.858
82979W        W54705  18.040   4.226   3.700
82980W        W54706  12.133   6.688  12.813
82981W        W54707   3.599  34.169   1.957
82982W        W54708  18.533   1.326   4.535
82983W        W54709  27.753   4.802   4.957
82984W        W54710  33.546  16.627  11.172
82985W        W54711  16.172   9.389  10.947
82986W        W54712  35.576  36.566  10.932
82987W        W54713  35.884  26.241  12.915
82988W        W54714  31.491  29.616  14.288
82989W        W54715   6.955  32.638  13.920
82990W        W54716  29.700  24.548  14.953
82991W        W54717  11.976  15.730  10.798
82992W        W54718  22.405   0.707  14.265
82993W        W54719  35.290  37.461   1.771
82994W        W54720  38.529   2.653  11.157
82995W        W54721  42.020  39.979   3.976
82996W        W54722   9.346   9.083   1.310
82997W        W54723  38.643  42.007   2.477
82998W        W54724   7.257   5.925   1.300
82999W        W54725  34.485  20.050   3.105
83000W        W54726  25.049  18.713  14.255
83001W        W54727   7.261  21.996  12.836
83002W        W54728  25.693   0.586   2.019
83003W        W54729  42.602  43.340   3.098
83004W        W54730  36.184  43.427   1.894
83005W        W54731  31.635  39.703  11.627
83006W        W54732  28.419  23.709   3.720
83007W        W54733   5.341  41.937   0.414
83008W        W54734  14.593  41.038   2.937
83009W        W54735  25.911  33.962  14.475
83010W        W54736   0.505  14.950   3.696
83011W        W54737  10.204  11.689  14.310
83012W        W54738  43.242  33.998  10.664
83013W        W54739   1.860  32.870   1.425
83014W        W54740  38.379  22.523  12.424
83015W        W54741  42.918  29.159   3.154
83016W        W54742   1.911   8.635   2.153
83017W        W54743   3.178  22.496  11.727
83018W        W54744  20.948  33.719   0.062
83019W        W54745  14.743  21.804  12.913
83020W        W54746  22.441  30.870   0.546
83021W        W54747  24.922  11.246  11.033
83022W        W54748   9.433  41.782  14.341
83023W        W54749  23.454  42.459   0.826
83024W        W54750  13.262  14.670   4.337
83025W        W54751  35.602  24.032   0.387
83026W        W54752  12.253  39.046   2.361
83027W        W54753   4.228  24.484   1.713
83028W        W54754  22.151  23.908   0.499
83029W        W54755  20.831  18.686   1.201
83030W        W54756   1.412  28.841   0.844
83031W        W54757  28.169  33.033   0.914
83032W        W54758  26.064  36.174   0.792
83033W        W54759  16.116  19.294   3.544
83034W        W54760   5.422  41.891   2.457
83035W        W54761   6.597  44.936   2.363
83036W        W54762  12.416  29.036  11.664
83037W        W54763  20.966  13.851  13.791
83038W        W54764  25.928  26.458  12.026
83039W        W54765  16.011  39.538   0.914
83040W        W54766  30.000  29.228   2.475
83041W        W54767  23.906  35.729   1.508
83042W        W54768  16.921  35.475  11.537
83043W        W54769  30.997   4.657   4.162
83044W        W54770  30.625  18.108  10.735
83045W        W54771   1.737   1.458  10.588
83046W        W54772  22.761  19.698  11.254
83047W        W54773  26.726  15.079  11.642
83048W        W54774   5.703  16.859   4.814
83049W        W54775  25.137  19.694  11.421
83050W        W54776  23.974  22.984  11.170
83051W        W54777  39.964   3.984   2.829
83052W        W54778  38.259  24.093   0.510
83053W        W54779   7.110   3.656   0.928
83054W        W54780  33.636   0.200  13.311
83055W        W54781  22.067  43.062   1.291
83056W        W54782   8.915  43.386  14.950
83057W        W54783  20.685   6.669  11.605
83058W        W54784  19.093  12.261  12.430
83059W        W54785  43.835   0.923   1.415
83060W        W54786  15.855  43.297  11.149
83061W        W54787  23.725  29.486   4.080
83062W        W54788  18.245   7.156  12.266
83063W        W54789  42.970  33.490   0.148
83064W        W54790  16.353  40.092  14.384
83065W        W54791   2.409  16.188  12.860
83066W        W54792   6.249  24.451  14.709
83067W        W54793  15.777   8.205   2.445
83068W        W54794  24.922  33.968   1.692
83069W        W54795   3.856   1.798  13.897
83070W        W54796  32.438  36.044   3.827
83071W        W54797   4.907   6.225   4.320
83072W        W54798   8.663  10.543  11.281
83073W        W54799  23.448  38.286  10.754
83074W        W54800  42.076  40.529  11.550
83075W        W54801   1.915   9.417  10.759
83076W        W54802  37.804  29.391  11.140
83077W        W54803  21.804   7.218  11.404
83078W        W54804  11.812  23.062  10.984
83079W        W54805  32.348  21.711   1.723
83080W        W54806   1.171   9.675  11.060
83081W        W54807  39.261  43.956   3.213
83082W        W54808  19.263  24.824   2.180
83083W        W54809  20.327  29.966  13.928
83084W        W54810  34.956  35.958   1.251
83085W        W54811  19.000  40.990   3.486
83086W        W54812  24.227  24.205   0.377
83087W        W54813  34.405  36.564  13.405
83088W        W54814  29.778   2.999   4.100
83089W        W54815  16.632   6.405  11.663
83090W        W54816   0.575   6.662   3.593
83091W        W54817  14.494  35.891   5.137
83092W        W54818  32.593  39.326   2.272
83093W        W54819  25.909  16.225  13.617
83094W        W54820  36.892  35.518   2.860
83095W        W54821  37.430  31.460   1.320
83096W        W54822   6.217  15.903   1.724
83097W        W54823  21.165  27.183  13.560
83098W        W54824  22.047  28.330  11.870
83099W        W54825   9.786  42.100  12.565
83100W        W54826  30.212  33.078  13.703
83101W        W54827   2.196   5.277   0.403
83102W        W54828  30.165  27.742  13.906
83103W        W54829   7.657   4.766   5.627
83104W        W54830  40.638   9.340   4.289
83105W        W54831  40.924  41.370  11.627
83106W        W54832  25.000  12.686   1.227
83107W        W54833  39.930  37.002   0.257
83108W        W54834  17.301  40.980   1.742
83109W        W54835  21.515  10.633   2.253
83110W        W54836  39.506  42.972  11.412
83111W        W54837  16.322  13.777  14.796
83112W        W54838  23.804  17.558   1.439
83113W        W54839  16.722  12.502   1.040
83114W        W54840  32.123   2.452  14.903
83115W        W54841  27.538  27.749   4.777
83116W        W54842  40.429  34.136   1.160
83117W        W54843  41.010   5.339  11.649
83118W        W54844  37.962  36.861   4.308
83119W        W54845   8.695  26.934  13.531
83120W        W54846  10.621  26.109   3.286
83121W        W54847  10.275  36.058  11.754
83122W        W54848  34.939  39.967   2.858
83123W        W54849  36.378  26.746   4.160
83124W        W54850  15.404  12.396  12.159
83125W        W54851  15.687  12.367  14.056
83126W        W54852   2.798  32.153   3.296
83127W        W54853  29.290  25.623   0.497
83128W        W54854   4.690  19.038  14.928
83129W        W54855  24.439  29.475  13.888
83130W        W54856  18.475  23.592  12.856
83131W        W54857   0.447  44.460  11.428
83132W        W54858  31.059  31.547  11.003
83133W        W54859  13.324  20.686  13.348
83134W        W54860  17.896   8.104   2.203
83135W        W54861  14.189  23.732   4.974
83136W        W54862  39.399   2.584   2.163
83137W        W54863  26.087  40.783   1.189
83138W        W54864  28.200  24.087  11.969
83139W        W54865  12.095  31.544  12.976
83140W        W54866  17.685   4.726   0.124
83141W        W54867  27.190  37.734   0.383
83142W        W54868  12.591  11.406  12.341
83143W        W54869  18.579  24.735  12.514
83144W        W54870  32.981  25.673  14.512
83145W        W54871  35.763  24.264  11.033
83146W        W54872  17.702   3.802  13.502
83147W        W54873  31.499  38.203  12.410
83148W        W54874  41.257  40.270   3.829
83149W        W54875  16.256  22.261  12.331
83150W        W54876  11.123  23.873   5.535
83151W        W54877   3.267  24.211  14.530
83152W        W54878  10.177  26.408  12.577
83153W        W54879  19.211   5.714   0.310
83154W        W54880   7.232  12.463  12.916
83155W        W54881  33.020   0.867  13.425
83156W        W54882   4.512   6.989   5.433
83157W        W54883  42.109  27.451  11.963
83158W        W54884  14.621  31.398  14.045
83159W        W54885  26.688  26.446  13.013
83160W        W54886  32.665  13.330   4.094
83161W        W54887   7.598  24.227   9.794
83162W        W54888   6.059  38.043   2.848
83163W        W54889  40.305  23.510  13.943
83164W        W54890  16.074  40.576  14.454
83165W        W54891  27.174  33.429   0.856
83166W        W54892  39.561  37.383   3.698
83167W        W54893  41.442   5.513   3.319
83168W        W54894  16.337  38.441   2.148
83169W        W54895   5.101  22.980   4.117
83170W        W54896  30.359  42.671  11.936
83171W        W54897  25.943  27.870   3.458
83172W        W54898  30.521  10.107  14.832
83173W        W54899   3.743   6.281  13.951
83174W        W54900  13.850  36.361  12.991
83175W        W54901  14.638  43.322  12.596
83176W        W54902  15.253  33.854  10.752
83177W        W54903  24.315  20.274  12.535
83178W        W54904  37.486  44.416  12.029
83179W        W54905  31.941  36.295  10.224
83180W        W54906  44.095   4.704  11.209
83181W        W54907  33.004  10.937  11.572
83182W        W54908  42.328  11.903   0.933
83183W        W54909  11.245  40.356  14.564
83184W        W54910  37.344  29.430   5.008
83185W        W54911  33.090  34.573   0.260
83186W        W54912  43.743  11.211  14.769
83187W        W54913  26.635  35.511  13.519
83188W        W54914   9.938  42.959   2.802
83189W        W54915  19.780  26.527  12.598
83190W        W54916  26.546  27.431  11.635
83191W        W54917  21.588  27.095   1.315
83192W        W54918  23.260  35.997   4.218
83193W        W54919   1.398   3.180   4.740
83194W        W54920  14.286  42.085  11.236
83195W        W54921  22.076   9.432   2.376
83196W        W54922  34.257  17.505   3.782
83197W        W54923  43.270  29.763  12.380
83198W        W54924   6.868  30.429   1.443
83199W        W54925  17.186  11.607  13.040
83200W        W54926  44.434  21.947  12.600
83201W        W54927  32.654  44.490   5.320
83202W        W54928  44.367  27.715  11.191
83203W        W54929  19.493   6.959   2.351
83204W        W54930  11.332  15.573  14.808
83205W        W54931  17.510  25.738   0.465
83206W        W54932  31.348  38.287   1.195
83207W        W54933  14.332  29.888  10.755
83208W        W54934   3.254  31.525  12.446
83209W        W54935   9.909   7.474   3.715
83210W        W54936  37.171  27.498   0.728
83211W        W54937  43.357  16.070  13.583
83212W        W54938  17.666   7.342   3.925
83213W        W54939  40.345  12.928  12.108
83214W        W54940  35.069  27.689   0.821
83215W        W54941  30.192  42.338  14.755
83216W        W54942  26.182  28.457  13.882
83217W        W54943  23.244  26.492   2.454
83218W        W54944  36.306  18.228   1.254
83219W        W54945  42.865  18.589  11.579
83220W        W54946  25.735   2.699   2.813
83221W        W54947   2.774  28.228  11.234
83222W        W54948  41.849   1.329  11.455
83223W        W54949  13.216  19.803   3.582
83224W        W54950  38.291  27.499  11.059
83225W        W54951   7.186   1.198   4.328
83226W        W54952  13.099  33.384  11.525
83227W        W54953   7.495   6.280   3.013
83228W        W54954   6.646  37.106  14.569
83229W        W54955  27.197  23.196   1.677
83230W        W54956  36.965  12.166   1.874
83231W        W54957  10.118  20.246   1.710
83232W        W54958  42.669  30.625  14.875
83233W        W54959  10.124  44.924  12.597
83234W        W54960   0.694  44.342   4.702
83235W        W54961  34.489   1.475  11.462
83236W        W54962   1.036  21.495  14.537
83237W        W54963  11.774   1.205  13.808
83238W        W54964   6.772  19.486  13.332
83239W        W54965  10.147  21.773   1.801
83240W        W54966  10.446  34.901   3.239
83241W        W54967  16.465  43.231   1.832
83242W        W54968   9.689  15.292   4.681
83243W        W54969  32.071  41.400   0.840
83244W        W54970  20.320   3.249   3.689
83245W        W54971  15.297  24.478   3.453
83246W        W54972  36.583  22.590  11.219
83247W        W54973  19.719  17.617  14.941
83248W        W54974  12.325  20.508   2.280
83249W        W54975  40.345  11.689   1.477
83250W        W54976  43.872   0.007   3.185
83251W        W54977   3.661  30.437  13.046
83252W        W54978  25.970  36.021   0.305
83253W        W54979  33.347  29.748   4.557
83254W        W54980  16.439   7.772  11.644
83255W        W54981   4.258  26.822  14.439
83256W        W54982  31.698   2.757  12.161
83257W        W54983   8.068  12.228  14.961
83258W        W54984  34.873  16.632  14.806
83259W        W54985  26.412  21.412   4.886
83260W        W54986  21.697   4.892   2.149
83261W        W54987  24.733  25.433   1.505
83262W        W54988   6.856  11.534  11.945
83263W        W54989  26.621  13.351   0.719
83264W        W54990   0.479  18.872   3.196
83265W        W54991  36.838  32.510   2.734
83266W        W54992   9.824  34.163   4.114
83267W        W54993  34.564   9.295   1.416
83268W        W54994  42.559   6.746   2.445
83269W        W54995  22.042  12.557   2.629
83270W        W54996  41.901  17.268  10.281
83271W        W54997  35.035  37.598   2.287
83272W        W54998  25.821  25.297  10.473
83273W        W54999  35.494  12.204  14.607
83274W        W55000  20.937  25.061   0.449
83275W        W55001  30.980  34.009  12.798
83276W        W55002  21.265  13.075   0.077
83277W        W55003  39.938  21.079   4.747
83278W        W55004  33.121   5.251   1.281
83279W        W55005   8.959  16.058   2.365
83280W        W55006   6.351  10.681  13.103
83281W        W55007  22.919  39.972  12.141
83282W        W55008  23.652   4.337  12.925
83283W        W55009  44.080   5.670   0.225
83284W        W55010  34.825  27.587  13.563
83285W        W55011   0.247  34.797  14.436
83286W        W55012  29.150  38.796   3.838
83287W        W55013  40.233  19.987   1.492
83288W        W55014  19.855  24.181  13.129
83289W        W55015  42.398   5.344  10.961
83290W        W55016   0.284  29.948   3.125
83291W        W55017  35.663  11.304  11.135
83292W        W55018  34.519   7.129   4.237
83293W        W55019  17.591  27.717   1.008
83294W        W55020   1.167  20.224  14.826
83295W        W55021  21.545  25.407   9.808
83296W        W55022  44.432   5.569   4.529
83297W        W55023  19.613  28.218   1.462
83298W        W55024  19.145   6.210   0.479
83299W        W55025  24.167  44.207   2.720
83300W        W55026  14.473  31.941  14.867
83301W        W55027  28.127  24.561  13.546
83302W        W55028  38.063  36.516  14.835
83303W        W55029  25.619  44.932  12.117
83304W        W55030  43.523  43.818   0.863
83305W        W55031  37.747  37.535  12.857
83306W        W55032   6.252  25.154  13.562
83307W        W55033  21.517  11.016   0.414
83308W        W55034  41.051  39.928  12.152
83309W        W55035  43.256   9.834   2.684
83310W        W55036  17.591  29.913  12.017
83311W        W55037   4.457   8.807  14.538
83312W        W55038  25.984  35.417  12.894
83313W        W55039  24.766  40.900   3.147
83314W        W55040  16.820   9.230  10.507
83315W        W55041  38.902  28.100  12.526
83316W        W55042   0.478  21.667   3.269
83317W        W55043  26.678   9.456   3.116
83318W        W55044   9.618  26.912  11.958
83319W        W55045  16.260   8.386   2.354
83320W        W55046  17.902   8.804  12.884
83321W        W55047  24.004  42.780   1.273
83322W        W55048  28.038  23.590  12.038
83323W        W55049  24.294  23.145  13.873
83324W        W55050  41.767  28.088  13.111
83325W        W55051  11.887  24.592  11.631
83326W        W55052  42.564  37.488  12.868
83327W        W55053  14.836  21.088  11.300
83328W        W55054  34.339  22.169  11.201
83329W        W55055  38.620  32.404   0.794
83330W        W55056  17.699  21.167   3.288
83331W        W55057  40.091  26.700  14.657
83332W        W55058  30.684   5.886  11.635
83333W        W55059  32.554   6.645   2.727
83334W        W55060  24.721  11.945  11.667
83335W        W55061  11.906  29.934   2.187
83336W        W55062  26.428   4.540  13.292
83337W        W55063  22.532  18.543  13.946
83338W        W55064  41.052  23.506   4.484
83339W        W55065  25.643  33.968  10.685
83340W        W55066  25.112   6.668  12.969
83341W        W55067   9.789  25.044  11.128
83342W        W55068   9.461  34.427   0.415
83343W        W55069  27.594   5.334   4.183
83344W        W55070   0.224  24.861   0.376
83345W        W55071  33.456  43.442   9.967
83346W        W55072   6.330  23.323   4.323
83347W        W55073  15.898   2.818   2.634
83348W        W55074  35.287  24.132   2.748
83349W        W55075   2.305  36.403  14.530
83350W        W55076   3.179  12.992   3.406
83351W        W55077  34.796  36.854  13.311
83352W        W55078   5.354  30.146   0.002
83353W        W55079  33.167   5.771   3.273
83354W        W55080  18.990  17.698  13.461
83355W        W55081  10.198  41.251  10.780
83356W        W55082  29.404  37.860   2.722
83357W        W55083   0.786  42.565   4.624
83358W        W55084  28.590  19.303   2.082
83359W        W55085  23.979  37.958  14.800
83360W        W55086  32.047  17.654  12.583
83361W        W55087  23.551   0.013  13.432
83362W        W55088   6.808  43.806   3.751
83363W        W55089   2.467  32.612  14.820
83364W        W55090   5.236  21.479   0.918
83365W        W55091   0.005  35.453   0.382
83366W        W55092  36.346  24.919  14.079
83367W        W55093  37.054   3.605   2.282
83368W        W55094  32.570   0.097  12.652
83369W        W55095  38.874  16.977   3.190
83370W        W55096   3.011  15.072   4.458
83371W        W55097  15.414  17.157  10.715
83372W        W55098  27.134  23.627   0.964
83373W        W55099  38.796   2.262  14.391
83374W        W55100  22.698  37.305   4.652
83375W        W55101  38.309  26.217  14.953
83376W        W55102  41.912  14.288   3.538
83377W        W55103   1.423  27.468  12.377
83378W        W55104  10.184   9.438   1.436
83379W        W55105  39.501  38.978  12.620
83380W        W55106   3.300  10.411  14.874
83381W        W55107  32.019  29.453  13.492
83382W        W55108  25.359  35.141   3.121
83383W        W55109  24.767  32.772   1.456
83384W        W55110  32.329  10.596  11.159
83385W        W55111  17.544  31.985  14.749
83386W        W55112   5.367  27.524   0.207
83387W        W55113  15.707  17.567  12.438
83388W        W55114  30.224  44.186   1.414
83389W        W55115  13.834   7.790   1.397
83390W        W55116  35.574  12.497  11.561
83391W        W55117   7.685  29.214  12.887
83392W        W55118   3.363   0.850   1.024
83393W        W55119  32.150  24.614  13.369
83394W        W55120   6.135  24.979  13.082
83395W        W55121  29.744  33.977   4.015
83396W        W55122   2.445  41.014   1.423
83397W        W55123  36.819  38.969  14.533
83398W        W55124   7.389   7.768   2.693
83399W        W55125  32.685  13.737   0.907
83400W        W55126  19.017  36.366   3.898
83401W        W55127  22.764   4.674  14.958
83402W        W55128  26.050  15.292   2.332
83403W        W55129  41.567   7.162   1.673
83404W        W55130  34.131  15.819   0.401
83405W        W55131  30.134  25.240   5.008
83406W        W55132  30.255   5.376   2.766
83407W        W55133  26.980  40.761  12.470
83408W        W55134  25.619   6.677   4.159
83409W        W55135   9.938  40.971   3.405
83410W        W55136  39.837   2.837   2.305
83411W        W55137  16.961  35.192  12.024
83412W        W55138  21.614   3.949  11.043
83413W        W55139   0.823   1.160  10.668
83414W        W55140  31.991  26.174  13.962
83415W        W55141  44.351  20.266  11.570
83416W        W55142  37.618  31.925  13.783
83417W        W55143  42.327  18.618   0.209
83418W        W55144  24.667  12.129   4.740
83419W        W55145  28.143   8.439   3.233
83420W        W55146   3.757  40.575  13.098
83421W        W55147  35.695  12.061  13.072
83422W        W55148  11.277   6.224   1.248
83423W        W55149  21.476  35.093   1.617
83424W        W55150  35.063   1.987   2.766
83425W        W55151  38.942  11.245  12.971
83426W        W55152  11.309   1.435   2.449
83427W        W55153  20.427  31.900  11.185
83428W        W55154  21.991  29.243   1.300
83429W        W55155   2.540  33.953   3.413
83430W        W55156   0.841   0.030   0.978
83431W        W55157   9.094  28.944   2.854
83432W        W55158  14.780  18.763   2.186
83433W        W55159  41.837  29.887  11.674
83434W        W55160   9.136   1.464  14.332
83435W        W55161  37.053  11.978   4.619
83436W        W55162  13.276  12.652   0.083
83437W        W55163  41.850  38.192  12.144
83438W        W55164  20.336   5.947  11.178
83439W        W55165  10.852   1.565   2.134
83440W        W55166   4.994  24.010  11.495
83441W        W55167  36.567  17.358  10.630
83442W        W55168  10.081  22.801   0.711
83443W        W55169  19.236  14.885  14.037
83444W        W55170  21.704  23.527   1.012
83445W        W55171  14.119  26.483  14.968
83446W        W55172  39.433  43.817   4.503
83447W        W55173  26.805  29.968  14.140
83448W        W55174  44.004  36.696   2.915
83449W        W55175  12.873  43.531  13.126
83450W        W55176  17.761  34.371  14.803
83451W        W55177  17.227  31.093  10.027
83452W        W55178  14.853  37.411   3.640
83453W        W55179  24.811  43.351   0.672
83454W        W55180  14.089  16.135  10.680
83455W        W55181  14.194   1.844   1.848
83456W        W55182   5.736  25.552   4.923
83457W        W55183  10.781  20.576  11.080
83458W        W55184   9.462   2.346   1.746
83459W        W55185  34.370  39.080  14.907
83460W        W55186  21.001  16.620   2.969
83461W        W55187  35.088  34.065   4.348
83462W        W55188  13.684  28.566   4.928
83463W        W55189  22.275   4.980  14.767
83464W        W55190  29.797  10.671   1.299
83465W        W55191  11.723   4.482  11.430
83466W        W55192   0.731  42.579   3.761
83467W        W55193  43.165  42.802  13.661
83468W        W55194   8.888  21.496  13.109
83469W        W55195  27.521  41.971  10.779
83470W        W55196   1.210  34.506   2.987
83471W        W55197  38.024  17.291  13.509
83472W        W55198  42.405  19.797  14.990
83473W        W55199  19.283  25.548  12.892
83474W        W55200  31.633  15.085   2.739
83475W        W55201  37.367  25.107   2.606
83476W        W55202  19.704  43.750  13.996
83477W        W55203  28.778  20.326   4.148
83478W        W55204  43.464   1.317  11.977
83479W        W55205  17.602  37.479  11.913
83480W        W55206   0.856  26.912  10.311
83481W        W55207   5.533  30.083  12.024
83482W        W55208  11.694  23.932   4.549
83483W        W55209  12.779   7.936   4.099
83484W        W55210   0.005  38.125   3.320
83485W        W55211   2.494  37.934  11.634
83486W        W55212  29.435   9.919  10.821
83487W        W55213  36.777  30.479   2.600
83488W        W55214  17.613  34.822   2.339
83489W        W55215  41.008  18.547   3.868
83490W        W55216   6.261   0.784  12.608
83491W        W55217  20.784   5.323   0.380
83492W        W55218   1.496  35.252   0.951
83493W        W55219  10.325  33.102  13.559
83494W        W55220  21.670  43.991   1.365
83495W        W55221  22.809  24.204   4.478
83496W        W55222  39.362  17.882  12.398
83497W        W55223  14.895  11.315  13.522
83498W        W55224  22.049  31.138  13.911
83499W        W55225  15.120  23.954   0.252
83500W        W55226   4.878  31.885  11.214
83501W        W55227  15.165  32.532  10.699
83502W        W55228  37.703  26.820   3.119
83503W        W55229  23.816  36.414  11.022
83504W        W55230   8.669  20.578  12.756
83505W        W55231  29.508   0.391   2.878
83506W        W55232  34.322  16.357  10.604
83507W        W55233  10.868  20.344   1.294
83508W        W55234  36.517   2.016   0.929
83509W        W55235  13.768  17.502   3.848
83510W        W55236  13.795  15.716  13.338
83511W        W55237  24.771  19.024   1.008
83512W        W55238  25.043  19.380  13.465
83513W        W55239   2.705  19.172  11.476
83514W        W55240  23.008  38.711  11.930
83515W        W55241  12.401  41.440   2.325
83516W        W55242  36.624  22.171   0.954
83517W        W55243  24.474  19.127  13.012
83518W        W55244  27.047  29.691   0.412
83519W        W55245   7.258  19.190   3.751
83520W        W55246  23.954   2.014   3.222
83521W        W55247   5.391  42.475  13.489
83522W        W55248  44.901  38.861  10.017
83523W        W55249  43.642  27.531  12.799
83524W        W55250  37.733  11.628  10.581
83525W        W55251  34.066  38.148   2.303
83526W        W55252  38.606   5.374   0.401
83527W        W55253  20.546   9.124   4.695
83528W        W55254   8.888  12.279  11.468
83529W        W55255  16.316  38.294   4.237
83530W        W55256  10.940   3.265   4.584
83531W        W55257  29.937  23.737  14.361
83532W        W55258  25.869  18.531   3.836
83533W        W55259  39.473  15.935  11.515
83534W        W55260  12.613   3.226   4.269
83535W        W55261   6.386   4.732  11.362
83536W        W55262   4.400  36.592  12.678
83537W        W55263   3.643  30.997  10.743
83538W        W55264  25.131  32.630  14.438
83539W        W55265  30.112  32.613   4.610
83540W        W55266  18.547  31.572  13.107
83541W        W55267   6.824  21.466  12.431
83542W        W55268  22.643  21.029   4.257
83543W        W55269  16.868  39.094  13.941
83544W        W55270   2.521  18.328  14.045
83545W        W55271  29.588   8.501   4.576
83546W        W55272  38.816  30.184  12.509
83547W        W55273  13.390  12.581   4.573
83548W        W55274  43.918  30.925  13.737
83549W        W55275  36.649   3.450   3.107
83550W        W55276  29.131  15.112  11.383
83551W        W55277   9.749  41.507  10.682
83552W        W55278  33.892  38.335  13.841
83553W        W55279   8.981  24.032  11.037
83554W        W55280  43.982   0.979   2.363
83555W        W55281  26.103  33.649  13.458
83556W        W55282  29.078  13.301  11.103
83557W        W55283  41.523  29.137   3.716
83558W        W55284  37.173  25.773  12.903
83559W        W55285  41.826  33.685  11.186
83560W        W55286   3.847  23.621  13.047
83561W        W55287  29.841  11.397   3.788
83562W        W55288  42.459   8.927  11.326
83563W        W55289  28.194  23.196   1.469
83564W        W55290  14.872  10.882   1.348
83565W        W55291   8.130  31.627   1.208
83566W        W55292  27.520   1.502   1.938
83567W        W55293   4.238  40.065   3.310
83568W        W55294  23.120  25.656   2.291
83569W        W55295  27.522  33.810   4.231
83570W        W55296   1.332  36.393   0.288
83571W        W55297  35.787   7.620  11.110
83572W        W55298  13.158   9.677  11.867
83573W        W55299  30.451  13.852   4.709
83574W        W55300  25.022  10.946   0.432
83575W        W55301  33.897   7.691  10.759
83576W        W55302  22.579  33.599  12.095
83577W        W55303  31.423  39.901  13.354
83578W        W55304  44.268   2.672  11.210
83579W        W55305   1.520  36.097   4.878
83580W        W55306  12.235   4.352  11.383
83581W        W55307  11.636  40.394  12.161
83582W        W55308  29.502  13.354   1.711
83583W        W55309  24.617  38.023   3.303
83584W        W55310  41.122   6.781  13.793
83585W        W55311  12.753  14.335  14.782
83586W        W55312  22.088   4.375   4.591
83587W        W55313   9.289  39.954   0.918
83588W        W55314  20.099  43.913   0.779
83589W        W55315  36.626  23.781  12.959
83590W        W55316  14.197  32.600   2.225
83591W        W55317  24.735  21.208   2.888
83592W        W55318   7.625  41.489  13.403
83593W        W55319   2.290  31.563   4.871
83594W        W55320   8.770   0.576  12.554
83595W        W55321  19.221  25.292  10.343
83596W        W55322   3.070  27.493  10.707
83597W        W55323   1.813  32.120   1.905
83598W        W55324   5.185   5.837   2.784
83599W        W55325  22.725  43.880  14.200
83600W        W55326  42.812  30.363   0.310
83601W        W55327   9.414  42.924   1.003
83602W        W55328   8.383  18.239  10.747
83603W        W55329   9.949   6.338  14.714
83604W        W55330  43.758  11.168  14.205
83605W        W55331  25.818  23.984   3.129
83606W        W55332  26.574  12.741  12.575
83607W        W55333  19.355  10.431  12.328
83608W        W55334  27.698  10.736   4.411
83609W        W55335  42.352  21.409   3.009
83610W        W55336  20.559  34.987  10.705
83611W        W55337  15.653  35.309   0.027
83612W        W55338  39.917   2.867   0.357
83613W        W55339  16.803  15.291   0.901
83614W        W55340  40.970  43.889   3.261
83615W        W55341  27.912  36.542  14.874
83616W        W55342  13.182  44.223  10.594
83617W        W55343  13.808  23.718   2.199
83618W        W55344  36.471  35.889  14.332
83619W        W55345   0.663   8.192   0.253
83620W        W55346  30.044  31.719   2.455
83621W        W55347  43.347  10.815  14.910
83622W        W55348   4.377  38.496  13.328
83623W        W55349   7.237  24.815   5.237
83624W        W55350  16.068   8.920   2.247
83625W        W55351  33.461  22.180  11.594
83626W        W55352  14.604  10.135   0.882
83627W        W55353  32.710  18.054   4.043
83628W        W55354  13.316  43.506   0.829
83629W        W55355  20.506   1.236   2.380
83630W        W55356  26.610  36.930   3.333
83631W        W55357  30.105  22.623  13.436
83632W        W55358  29.151  16.471  14.779
83633W        W55359  31.264   2.322  11.720
83634W        W55360   9.222  42.654   2.419
83635W        W55361  37.535  23.736   2.804
83636W        W55362  31.008   8.628  11.962
83637W        W55363   2.798   7.322   2.440
83638W        W55364   5.701   1.356   0.908
83639W        W55365  15.858  33.735   2.228
83640W        W55366   0.948  11.338  12.573
83641W        W55367  12.668  36.903  13.556
83642W        W55368  14.260  27.763   3.671
83643W        W55369  26.473   9.721   1.730
83644W        W55370  18.722  38.768  13.971
83645W        W55371   9.145  42.925  13.800
83646W        W55372  28.433  10.539  13.536
83647W        W55373  31.372  37.301   0.493
83648W        W55374  42.855  38.648   1.360
83649W        W55375  16.151  43.303  11.594
83650W        W55376  28.299  34.509   2.293
83651W        W55377  18.176  13.543  13.085
83652W        W55378  38.095  12.632   3.994
83653W        W55379  17.646  13.590  14.350
83654W        W55380   7.668  16.090   1.891
83655W        W55381  17.165   8.160  11.158
83656W        W55382  39.093  36.615   2.856
83657W        W55383   2.100  11.393   0.013
83658W        W55384   3.957  30.032  13.274
83659W        W55385  31.862  26.223  14.870
83660W        W55386  11.351  34.470  10.062
83661W        W55387  41.467  11.262   3.340
83662W        W55388  23.120  29.568  10.722
83663W        W55389  37.251  40.883  11.194
83664W        W55390  44.414  39.834   0.456
83665W        W55391  31.344   2.233  12.214
83666W        W55392  13.788   2.983   1.456
83667W        W55393  40.402  43.494  11.722
83668W        W55394  25.504  24.668  11.997
83669W        W55395   1.558  19.187   0.228
83670W        W55396  11.404   7.075   0.296
83671W        W55397  14.341  36.190   3.283
83672W        W55398   3.341  37.693  12.307
83673W        W55399  26.742  16.317  14.751
83674W        W55400   2.368   3.554   3.298
83675W        W55401  37.850  41.805   1.358
83676W        W55402  11.753  28.679  13.850
83677W        W55403  38.958  22.527   0.269
83678W        W55404   4.859  16.654  10.057
83679W        W55405  31.215  11.602   5.133
83680W        W55406   6.408  37.002   3.691
83681W        W55407  30.602  30.974   5.119
83682W        W55408  22.089  15.640  11.396
83683W        W55409  33.043  40.462  14.967
83684W        W55410  31.408  30.670  13.389
83685W        W55411  26.680  20.171  11.972
83686W        W55412  20.233  19.550   1.919
83687W        W55413  30.583  11.565  11.910
83688W        W55414   3.860  27.545   4.838
83689W        W55415  20.819  14.654  11.863
83690W        W55416   1.744  17.215  10.933
83691W        W55417  28.065   1.431  13.330
83692W        W55418   7.104  14.223  12.219
83693W        W55419  40.524   6.380   2.852
83694W        W55420  42.081  11.854  12.389
83695W        W55421   4.079   5.673   9.802
83696W        W55422  14.874  27.164   2.132
83697W        W55423  32.196  14.325  11.634
83698W        W55424  21.795  39.759  12.931
83699W        W55425   4.452  15.075  11.136
83700W        W55426  38.548  37.818   3.177
83701W        W55427   8.328   9.175  11.208
83702W        W55428  27.055  16.279   2.818
83703W        W55429   9.961   5.884   2.703
83704W        W55430   5.756  25.898   0.904
83705W        W55431   6.158   1.752  14.841
83706W        W55432  33.121  42.377   1.309
83707W        W55433  42.342  17.499   4.764
83708W        W55434  37.588   8.419  11.905
83709W        W55435  14.609  20.102   0.312
83710W        W55436  22.722  30.715  14.354
83711W        W55437  43.252  44.973  12.008
83712W        W55438  28.050  30.388  14.858
83713W        W55439   9.691  26.128   0.851
83714W        W55440  18.774  30.405  14.788
83715W        W55441  29.894  18.000  12.091
83716W        W55442   7.286  43.908   4.367
83717W        W55443  34.853   0.258   3.203
83718W        W55444  33.827  23.741  11.844
83719W        W55445  36.836  36.838   2.333
83720W        W55446   7.186  14.599  14.900
83721W        W55447  16.075  32.496  12.059
83722W        W55448  30.473  21.341   3.393
83723W        W55449  44.747  24.837   1.652
83724W        W55450  14.657   2.780   3.794
83725W        W55451   0.529   4.261   4.681
83726W        W55452  43.789  37.538   0.565
83727W        W55453   9.413   4.863   1.954
83728W        W55454  44.778  24.404   1.911
83729W        W55455  17.151  32.028  13.893
83730W        W55456  28.916   7.136  12.610
83731W        W55457  27.418   3.313  11.713
83732W        W55458  30.514  17.764  11.521
83733W        W55459   7.224   4.874  13.508
83734W        W55460  42.489  33.608   1.366
83735W        W55461  20.356  15.697  12.129
83736W        W55462   2.678  23.715   4.163
83737W        W55463   8.250  29.068   0.166
83738W        W55464  12.665  39.793   2.410
83739W        W55465  35.347  23.630   4.570
83740W        W55466  16.569  37.476  10.365
83741W        W55467  34.855   9.359  10.781
83742W        W55468  25.117  42.804  12.987
83743W        W55469   5.756  31.354  13.339
83744W        W55470  16.073  36.605   1.866
83745W        W55471  37.098  37.109   0.584
83746W        W55472  13.319  20.034  12.479
83747W        W55473  11.948  35.516   4.143
83748W        W55474  35.020  41.775   4.195
83749W        W55475   5.267  14.295  12.482
83750W        W55476  20.272  19.587  11.666
83751W        W55477  32.068  30.694  13.948
83752W        W55478  13.279  44.004  11.527
83753W        W55479  29.012  31.389   3.795
83754W        W55480  30.698   1.903  12.080
83755W        W55481  42.261  26.153   2.689
83756W        W55482  23.192  44.099  11.489
83757W        W55483   7.754  32.733   4.385
83758W        W55484  10.607  19.592   1.279
83759W        W55485  19.782  32.660   0.161
83760W        W55486  19.864   8.883  11.878
83761W        W55487  32.123  26.021   9.862
83762W        W55488  15.901  25.285   1.435
83763W        W55489  43.688   9.779  12.860
83764W        W55490   4.383  40.765  14.248
83765W        W55491  28.402   4.275  11.193
83766W        W55492  26.698   5.778   4.759
83767W        W55493  30.807   3.844  14.178
83768W        W55494  23.567  33.820  13.007
83769W        W55495   3.836   1.707   0.406
83770W        W55496   0.046  10.519   4.902
83771W        W55497   1.769  34.611   1.737
83772W        W55498  39.417  13.559   4.577
83773W        W55499  12.778  42.842  14.343
83774W        W55500  15.600  13.713  11.578
83775W        W55501  17.100   2.973   0.728
83776W        W55502  27.574  41.844  13.501
83777W        W55503  31.491   2.842   0.770
83778W        W55504  26.536  20.476   2.886
83779W        W55505  37.893  37.517  11.711
83780W        W55506   4.754  21.132  12.629
83781W        W55507  15.716  16.768   2.037
83782W        W55508  16.310  34.530   2.788
83783W        W55509  17.777  38.484  11.906
83784W        W55510   6.720   7.235   3.157
83785W        W55511  31.952   3.868   1.665
83786W        W55512  21.041  12.491  13.777
83787W        W55513  22.311  14.052  10.441
83788W        W55514  35.359  33.151   4.526
83789W        W55515   9.397  17.176   0.626
83790W        W55516  20.703  24.970   2.352
83791W        W55517  25.514  35.108  13.077
83792W        W55518  34.166  40.826  11.534
83793W        W55519  21.540   7.344   1.692
83794W        W55520  20.139  30.613   2.363
83795W        W55521  27.603  33.146   0.653
83796W        W55522  12.827  18.106   4.807
83797W        W55523  30.353  42.785   3.705
83798W        W55524  25.938  26.695  11.187
83799W        W55525  44.802  20.553  10.619
83800W        W55526  12.346  27.502   1.153
83801W        W55527   3.882  34.960  11.725
83802W        W55528  24.149  23.469   3.088
83803W        W55529   5.029   7.768   2.731
83804W        W55530  14.679  14.580  10.434
83805W        W55531  43.853   0.751   2.778
83806W        W55532  32.095   2.546  11.463
83807W        W55533  10.880   3.698  12.568
83808W        W55534  10.646  35.871  12.584
83809W        W55535  30.730  31.695  14.020
83810W        W55536  42.457  39.305   1.296
83811W        W55537   9.300   4.508   1.353
83812W        W55538   9.339  12.817   0.831
83813W        W55539  33.508   5.892  13.125
83814W        W55540   5.228  17.173   4.891
83815W        W55541  16.146  19.799  14.925
83816W        W55542  39.460  44.302  10.730
83817W        W55543  42.531  26.688   3.369
83818W        W55544  18.865  12.206   1.855
83819W        W55545  41.411  30.953  11.150
83820W        W55546  38.454  32.407  10.461
83821W        W55547  37.030   1.152   1.734
83822W        W55548   9.952  14.070  11.124
83823W        W55549  25.140   1.218   9.836
83824W        W55550  19.506   7.731  12.993
83825W        W55551  20.091  30.684   5.083
83826W        W55552  15.548  27.965  11.581
83827W        W55553  19.532  42.310   3.554
83828W        W55554   9.385  34.630  14.954
83829W        W55555   4.551  19.941  14.427
83830W        W55556  29.615  44.779  12.925
83831W        W55557   8.853  39.882   3.673
83832W        W55558  16.997   2.552   4.503
83833W        W55559   1.712  14.662  14.419
83834W        W55560  43.054  40.706   0.306
83835W        W55561   4.471  40.962   2.636
83836W        W55562  34.836   5.708  11.865
83837W        W55563  26.207  43.284   0.918
83838W        W55564  35.364  34.123  14.305
83839W        W55565  21.777  23.226  12.475
83840W        W55566   0.815  34.449   0.520
83841W        W55567  39.047  28.914   0.924
83842W        W55568  22.741   9.815   3.604
83843W        W55569  36.132  27.752   4.620
83844W        W55570   2.954  26.896   3.917
83845W        W55571   3.698  13.265   4.817
83846W        W55572  44.693  16.695   2.908
83847W        W55573  11.272  36.110  11.429
83848W        W55574  37.161   2.808  13.399
83849W        W55575  40.793  38.670  14.966
83850W        W55576  17.682  34.013  12.162
83851W        W55577   5.853  26.994   1.475
83852W        W55578  12.334  18.768  11.968
83853W        W55579  20.967  31.579   0.891
83854W        W55580  33.928  36.645   0.534
83855W        W55581   8.468   0.654   2.796
83856W        W55582  15.704  37.156  12.028
83857W        W55583  27.464  27.545   3.410
83858W        W55584  36.608  44.557   1.836
83859W        W55585  38.218  27.453  11.924
83860W        W55586   2.430   7.168  11.226
83861W        W55587   6.360  23.373   4.861
83862W        W55588  25.767   5.769   0.264
83863W        W55589  28.468   2.454   2.189
83864W        W55590  11.702  14.767   2.155
83865W        W55591  26.633  13.920  13.951
83866W        W55592  30.649  38.126   1.423
83867W        W55593  37.089   4.622  11.471
83868W        W55594  13.554   2.351   3.243
83869W        W55595   4.943  31.873   0.169
83870W        W55596   6.117  27.625   4.093
83871W        W55597  11.830  21.566   4.696
83872W        W55598  16.716   5.598   2.798
83873W        W55599  10.651   7.767  11.929
83874W        W55600  29.151  38.551  10.649
83875W        W55601  36.954  36.517  11.069
83876W        W55602  15.197  18.037   1.904
83877W        W55603  44.043  24.578  14.765
83878W        W55604   5.126  44.979   2.386
83879W        W55605  20.167  29.574  10.907
83880W        W55606  31.823   5.817  10.016
83881W        W55607  30.672   1.857   0.267
83882W        W55608   5.146  12.922   5.060
83883W        W55609  20.222  13.077   2.040
83884W        W55610  36.784  28.578   2.806
83885W        W55611  27.193  43.979  14.862
83886W        W55612  41.049  19.827   2.050
83887W        W55613   2.068  14.169  11.126
83888W        W55614   0.866  41.645   1.329
83889W        W55615  28.159  17.158  14.653
83890W        W55616  42.312  22.718  13.862
83891W        W55617  20.463  26.011  11.069
83892W        W55618  23.893  40.846  12.518
83893W        W55619  41.318  29.639  14.811
83894W        W55620   3.356  24.239  10.738
83895W        W55621  22.941   5.319   2.489
83896W        W55622  41.857  44.885   2.256
83897W        W55623   5.685  26.608   0.688
83898W        W55624   0.719   7.283  13.991
83899W        W55625   1.740  18.964  11.201
83900W        W55626  33.164   7.587  14.250
83901W        W55627   4.189  34.955  13.939
83902W        W55628   4.016  39.756   1.750
83903W        W55629  37.925   8.670   1.889
83904W        W55630  17.611  38.780  12.472
83905W        W55631  21.792   1.172  14.734
83906W        W55632  26.538  30.453  11.084
83907W        W55633  24.454  37.591  14.231
83908W        W55634  32.501  22.753   2.561
83909W        W55635  13.935  36.488   3.385
83910W        W55636  41.550   0.338   2.130
83911W        W55637  41.464  29.379   0.815
83912W        W55638  13.859   0.803  14.307
83913W        W55639  30.104  33.920   3.636
83914W        W55640   0.562  16.400   2.774
83915W        W55641  37.149  21.615   0.791
83916W        W55642  27.479  33.139   2.620
83917W        W55643  20.284   8.678   4.638
83918W        W55644  10.902   4.313   2.796
83919W        W55645  34.028  26.766   1.425
83920W        W55646  23.509  21.807  11.604
83921W        W55647  40.345  10.635  11.871
83922W        W55648  20.637  39.813   0.795
83923W        W55649  21.955   5.847   3.368
83924W        W55650  27.700  33.474   3.848
83925W        W55651  21.930   3.935   4.337
83926W        W55652   7.976  10.210   1.196
83927W        W55653  37.503  17.507   2.683
83928W        W55654   3.701  11.201   4.512
83929W        W55655  41.573   9.713   2.082
83930W        W55656   1.179  28.519  11.616
83931W        W55657  32.656  42.114  14.415
83932W        W55658  37.798   0.725   1.160
83933W        W55659  17.801  27.658   2.555
83934W        W55660  26.048  44.731  11.251
83935W        W55661  14.179  33.422   2.613
83936W        W55662   7.472  20.268   2.065
83937W        W55663  15.745   8.413  11.312
83938W        W55664  16.629  24.160  11.061
83939W        W55665  15.686  24.209   1.627
83940W        W55666   8.139  12.753  12.833
83941W        W55667   9.331  39.003   2.702
83942W        W55668  12.968   1.740  11.544
83943W        W55669  21.054  43.318  12.927
83944W        W55670  11.195   7.197   1.191
83945W        W55671  36.321  35.416  12.844
83946W        W55672  16.193  19.467   2.729
83947W        W55673  44.509  19.119  14.290
83948W        W55674  12.427  35.993   2.459
83949W        W55675  20.829  31.819   0.426
83950W        W55676  11.691  22.417  14.878
83951W        W55677  31.639  11.193  10.383
83952W        W55678   4.482  35.106   2.909
83953W        W55679   0.254  28.447   0.541
83954W        W55680   1.246   2.143   4.640
83955W        W55681  34.596  21.609  14.376
83956W        W55682  37.772   5.278  14.497
83957W        W55683   7.007  30.543   0.280
83958W        W55684  27.265   1.164  14.804
83959W        W55685  22.281  19.669   4.060
83960W        W55686  24.016  22.982   3.115
83961W        W55687   5.882  13.457   1.807
83962W        W55688  24.644  40.276   1.406
83963W        W55689  26.597  31.555   2.894
83964W        W55690  26.751   6.254  13.059
83965W        W55691  35.008  15.276   4.244
83966W        W55692  19.268  21.110   4.106
83967W        W55693   0.705  39.871   4.253
83968W        W55694  17.789  11.734  11.130
83969W        W55695  15.853  13.877  12.033
83970W        W55696   7.846  22.007   1.480
83971W        W55697  31.927  41.823  14.622
83972W        W55698  40.702  40.094  12.873
83973W        W55699  24.100   8.989   2.391
83974W        W55700   7.155   3.871  14.307
83975W        W55701  25.186  11.398   2.255
83976W        W55702   1.259  29.930   0.161
83977W        W55703   6.960  28.588   0.904
83978W        W55704  39.459   1.918  12.053
83979W        W55705  33.607  19.651  14.823
83980W        W55706   6.603  20.635   1.282
83981W        W55707  20.308  27.722  14.005
83982W        W55708  10.205  28.535  10.923
83983W        W55709  25.728  10.707   2.254
83984W        W55710  12.197   3.873   2.716
83985W        W55711  24.125  19.287   2.203
83986W        W55712  33.566  33.530   1.885
83987W        W55713   9.660  31.879  12.992
83988W        W55714  38.492   2.919  13.503
83989W        W55715  10.696  21.322  12.654
83990W        W55716  39.110  11.831   5.283
83991W        W55717   2.875  42.555   2.378
83992W        W55718  18.685  43.419  11.908
83993W        W55719  18.287  32.038  13.929
83994W        W55720  34.557  15.917  14.610
83995W        W55721   4.373  27.442   1.714
83996W        W55722   3.464  17.854  13.922
83997W        W55723  30.931  25.059  13.820
83998W        W55724  11.626  36.865   4.286
83999W        W55725  21.500  18.664   3.377
84000W        W55726  25.713   6.079   2.311
84001W        W55727  31.708  19.851   0.414
84002W        W55728  23.233  26.234  13.009
84003W        W55729  26.799  37.587   0.903
84004W        W55730   3.826  34.570   0.988
84005W        W55731  40.344   7.222  11.559
84006W        W55732  32.575  19.476  12.405
84007W        W55733   4.578   9.461   2.761
84008W        W55734  27.840  21.113   1.847
84009W        W55735   9.394   6.734  11.590
84010W        W55736  42.804  24.096   1.364
84011W        W55737  18.976  44.229   4.123
84012W        W55738   4.205  18.587  14.609
84013W        W55739  31.328  35.297  13.590
84014W        W55740  43.860   7.669   0.506
84015W        W55741  23.721  35.931   3.109
84016W        W55742  23.608  42.003   4.601
84017W        W55743  29.637  20.768   4.042
84018W        W55744  40.556   1.466  13.060
84019W        W55745  16.692  35.857  13.798
84020W        W55746  14.865   8.351  12.531
84021W        W55747  11.244   7.573   3.821
84022W        W55748  21.264  14.235  14.656
84023W        W55749   6.929  10.799   2.184
84024W        W55750   9.775  16.857   2.370
84025W        W55751  20.280  44.974   3.249
84026W        W55752  22.659  41.011   4.176
84027W        W55753   4.325  26.507  14.052
84028W        W55754  37.794  32.535  12.081
84029W        W55755  33.605  34.096  14.471
84030W        W55756   7.912  40.560  11.021
84031W        W55757   1.483  27.531  11.493
84032W        W55758  43.394  20.672   4.675
84033W        W55759   2.757   8.988   2.444
84034W        W55760  21.037  29.726  13.384
84035W        W55761  40.554  11.819   5.046
84036W        W55762  43.187   7.352  14.878
84037W        W55763   1.072  22.625   3.708
84038W        W55764  16.631  23.432  10.676
84039W        W55765  22.972  42.355  12.102
84040W        W55766   7.596  22.367   4.144
84041W        W55767  36.869   6.210  14.771
84042W        W55768  18.014   5.916  11.114
84043W        W55769  41.711   3.615   0.942
84044W        W55770  25.350  13.713   3.749
84045W        W55771  29.670  29.615  11.118
84046W        W55772  15.666  38.147  14.549
84047W        W55773  38.024   9.876  11.126
84048W        W55774  11.388   5.337  12.913
84049W        W55775  35.020  16.288  11.038
84050W        W55776  30.117  10.152   3.186
84051W        W55777  22.056   5.222   2.345
84052W        W55778  42.479  25.461  10.639
84053W        W55779   9.140  30.112   2.576
84054W        W55780  14.719  20.244  11.170
84055W        W55781  21.654  29.933  14.679
84056W        W55782  41.313  33.121  11.626
84057W        W55783  17.169   9.653   1.420
84058W        W55784  26.053  27.214  11.659
84059W        W55785  35.239  21.500  11.613
84060W        W55786  26.221   2.715  14.897
84061W        W55787  40.744   4.028  13.895
84062W        W55788  24.230  19.446  11.041
84063W        W55789   4.981  14.247  11.307
84064W        W55790  32.099  35.676   3.669
84065W        W55791  37.681  22.716   1.956
84066W        W55792   0.394  10.346  14.292
84067W        W55793  20.499  44.259  14.424
84068W        W55794   4.388  19.370   0.219
84069W        W55795  29.486  13.114   1.253
84070W        W55796  21.691  30.888  11.485
84071W        W55797  38.574  36.903  14.028
84072W        W55798  31.987  24.791   4.252
84073W        W55799  29.448  35.096   3.941
84074W        W55800  24.998   9.393   0.978
84075W        W55801  12.181   3.495   4.230
84076W        W55802  27.067  14.672   3.707
84077W        W55803  43.780  29.480  10.757
84078W        W55804  33.391  22.292   1.411
84079W        W55805   9.535  35.251  14.289
84080W        W55806  35.874  41.815   1.196
84081W        W55807  14.588  14.275   4.900
84082W        W55808  19.325   6.917  11.522
84083W        W55809   8.946   7.926   5.156
84084W        W55810  12.112  41.417  11.134
84085W        W55811  13.921  15.106   0.351
84086W        W55812  34.096  26.381   1.061
84087W        W55813  33.165  35.084  11.182
84088W        W55814  42.638  26.602  11.374
84089W        W55815  30.022   3.806  10.429
84090W        W55816  30.441  36.963  14.006
84091W        W55817  29.130  28.740  11.160
84092W        W55818   4.314  35.544   3.677
84093W        W55819  36.487  12.129   4.653
84094W        W55820  20.235  24.630   0.364
84095W        W55821  12.046  16.109  14.470
84096W        W55822  20.519  33.684  11.920
84097W        W55823   0.251   6.982  11.616
84098W        W55824  28.935   2.303   2.463
84099W        W55825  17.631  12.025  12.649
84100W        W55826   6.459  16.671   3.797
84101W        W55827   0.899   6.733   4.865
84102W        W55828  18.559   0.987   2.710
84103W        W55829   9.163  41.430   0.371
84104W        W55830  24.727   5.790   3.752
84105W        W55831  14.504   4.978  14.166
84106W        W55832  10.108  34.599   0.830
84107W        W55833  25.286  25.075  14.818
84108W        W55834  39.897  21.740   0.775
84109W        W55835   3.966   6.722  13.044
84110W        W55836   8.849  38.709   3.316
84111W        W55837  36.128  27.482   0.066
84112W        W55838  13.715  32.368   2.288
84113W        W55839   6.305  24.263  11.480
84114W        W55840  10.329  43.403   0.464
84115W        W55841   3.705   1.842  14.802
84116W        W55842  14.837  14.271  13.108
84117W        W55843  41.491  31.408  11.393
84118W        W55844   6.294  42.936   0.278
84119W        W55845  12.868  36.681  13.008
84120W        W55846   4.709  36.430   2.629
84121W        W55847   5.567  35.953  13.824
84122W        W55848   8.843   3.597  12.509
84123W        W55849  19.705  10.076   3.084
84124W        W55850  17.830  12.817   3.139
84125W        W55851  37.608  31.496   0.811
84126W        W55852   0.733   1.918  12.083
84127W        W55853   4.501  19.708   1.006
84128W        W55854   0.334   6.861   3.158
84129W        W55855  18.625  21.310   2.800
84130W        W55856  22.243  10.742  14.306
84131W        W55857  42.923  26.462  13.482
84132W        W55858   8.127  17.147   1.825
84133W        W55859   5.355  43.207   2.539
84134W        W55860  39.676  21.756   2.792
84135W        W55861  14.754  25.894  12.081
84136W        W55862  32.853  39.352   3.159
84137W        W55863   2.771  22.718  12.902
84138W        W55864  11.368   8.689  13.265
84139W        W55865  29.460  21.618  13.555
84140W        W55866   0.373   0.230   1.699
84141W        W55867  23.592  23.753  14.373
84142W        W55868  36.124  28.437  11.554
84143W        W55869  23.062  21.478   1.279
84144W        W55870  21.053  35.947  12.977
84145W        W55871  26.721  21.225  13.901
84146W        W55872   6.735  25.603  14.890
84147W        W55873  24.424  20.579   0.435
84148W        W55874  16.573  17.381  11.651
84149W        W55875  14.683  13.233  13.434
84150W        W55876  22.507  38.577  14.830
84151W        W55877  33.477   4.205  13.529
84152W        W55878   0.748  27.454   4.292
84153W        W55879  32.026  29.503  10.703
84154W        W55880  24.012  20.587   1.753
84155W        W55881  29.673  12.064  12.874
84156W        W55882   9.927  17.186   4.216
84157W        W55883  28.982  35.361   1.280
84158W        W55884  10.607  29.486  12.497
84159W        W55885  31.704  27.846  12.894
84160W        W55886  26.548   7.381  12.313
84161W        W55887  39.877   4.935  14.904
84162W        W55888   2.827   9.953   2.373
84163W        W55889  11.306  21.318   4.616
84164W        W55890  39.599  26.588  14.922
84165W        W55891  41.854  18.502   3.881
84166W        W55892   6.189   4.682  10.906
84167W        W55893   5.800  44.686  14.774
84168W        W55894  25.963  24.437  12.012
84169W        W55895   4.842  34.609  13.470
84170W        W55896  13.260  41.061   4.133
84171W        W55897  40.934   9.419  14.096
84172W        W55898  33.379  29.045  12.529
84173W        W55899  44.505  40.777   0.352
84174W        W55900   1.908  42.732  12.941
84175W        W55901  20.682  38.262  12.842
84176W        W55902   8.266  21.621   0.733
84177W        W55903  35.885  24.153  14.421
84178W        W55904  11.753  14.794  12.552
84179W        W55905  24.079   2.999  11.532
84180W        W55906  33.990  31.176   2.672
84181W        W55907   3.685  12.284  11.096
84182W        W55908  42.369  24.678  13.553
84183W        W55909   8.896   3.479  13.094
84184W        W55910  16.126  37.770  11.524
84185W        W55911  42.380   1.189  14.983
84186W        W55912  30.694  39.508  10.749
84187W        W55913  26.213  19.264  12.131
84188W        W55914  32.440  26.499  13.930
84189W        W55915  28.360  34.973  14.087
84190W        W55916   0.383  44.504  12.371
84191W        W55917  18.271  10.802   1.731
84192W        W55918  44.266  37.698   1.730
84193W        W55919  30.488  14.656  11.878
84194W        W55920  20.487  43.735  14.379
84195W        W55921  42.445  32.464  13.374
84196W        W55922  27.111  37.934  10.289
84197W        W55923  42.861  43.361  10.564
84198W        W55924   2.267  43.238   3.453
84199W        W55925  18.149  34.093  11.889
84200W        W55926  38.781  41.894  13.976
84201W        W55927  29.205  32.004   3.334
84202W        W55928  26.701  16.167  10.978
84203W        W55929  30.187   1.198  13.352
84204W        W55930   5.659  36.438  10.656
84205W        W55931  16.731  11.863  11.620
84206W        W55932  43.331  43.507  14.215
84207W        W55933   3.796  25.928  10.669
84208W        W55934  26.648  34.459  13.494
84209W        W55935   5.651  39.150  10.950
84210W        W55936   3.283  16.833  12.841
84211W        W55937  38.062   5.334   0.438
84212W        W55938  31.432  30.445  12.884
84213W        W55939   4.767  31.034   3.752
84214W        W55940  38.161  11.284  12.327
84215W        W55941  33.434  14.489   0.195
84216W        W55942  13.798  13.134   0.866
84217W        W55943  44.718  26.530  13.384
84218W        W55944  10.424  35.125  11.582
84219W        W55945  16.248  41.735   1.132
84220W        W55946   3.427  22.757  13.432
84221W        W55947  43.854  18.238  12.034
84222W        W55948  13.306  18.297   2.843
84223W        W55949  17.248  37.787   4.986
84224W        W55950   8.892  35.152   0.904
84225W        W55951   2.356   5.506   2.823
84226W        W55952  19.739  24.802   0.368
84227W        W55953   3.283  25.801   2.761
84228W        W55954  27.947   7.951   3.265
84229W        W55955  34.420  24.165   2.726
84230W        W55956   1.375   1.320  13.473
84231W        W55957  36.216  34.319  12.632
84232W        W55958  35.326   1.470  10.457
84233W        W55959  42.387   7.968  11.908
84234W        W55960  32.636  28.857  12.158
84235W        W55961  10.427  28.264   3.034
84236W        W55962   8.509   2.512   2.819
84237W        W55963   5.493  32.542   1.822
84238W        W55964  23.135   2.771  10.753
84239W        W55965  28.579  18.304   2.658
84240W        W55966   9.190  30.618   2.728
84241W        W55967  17.872   9.294  14.476
84242W        W55968   6.669   8.929   0.176
84243W        W55969   5.297  41.869  12.201
84244W        W55970  24.249   8.175   2.009
84245W        W55971  44.469  33.414  11.610
84246W        W55972   1.642  20.133   2.927
84247W        W55973  29.579  15.027   4.189
84248W        W55974  16.062  23.582   0.256
84249W        W55975   8.982   4.180   3.683
84250W        W55976   0.021  42.242  11.031
84251W        W55977  39.874  19.091  12.909
84252W        W55978  27.727  22.049   3.812
84253W        W55979  34.070  39.521  13.858
84254W        W55980  42.604  28.416   1.303
84255W        W55981  31.047  44.575   4.192
84256W        W55982  42.799  10.595   4.584
84257W        W55983  20.530   4.196   2.788
84258W        W55984  23.302  24.143   2.224
84259W        W55985  34.104  36.783  11.071
84260W        W55986  31.113  42.479  12.916
84261W        W55987  14.678  23.608  14.291
84262W        W55988  39.111  44.284   2.234
84263W        W55989  34.483  38.453   2.309
84264W        W55990   2.410  17.123   3.265
84265W        W55991  34.174   1.740   2.834
84266W        W55992  34.061  31.164  12.031
84267W        W55993  22.430  15.047  14.354
84268W        W55994  11.547  14.387   2.451
84269W        W55995  23.919  26.273  11.623
84270W        W55996  33.202   1.298   1.450
84271W        W55997  14.716  28.244   0.409
84272W        W55998  23.555   2.995   3.872
84273W        W55999  15.147  25.324  12.855
84274W        W56000   7.231  42.354  14.766
84275W        W56001  34.559   5.846   3.320
84276W        W56002  31.852   2.076  13.491
84277W        W56003  42.864  31.159   5.082
84278W        W56004   7.175   5.849   5.051
84279W        W56005  42.990  31.260  12.949
84280W        W56006  39.986  29.983  12.887
84281W        W56007  39.081   3.486   0.866
84282W        W56008  13.168  28.253   0.868
84283W        W56009  30.865  31.451  10.549
84284W        W56010  42.354  27.064   3.694
84285W        W56011  18.928  35.490   2.868
84286W        W56012  39.142  25.092   3.397
84287W        W56013  39.567  35.738  12.542
84288W        W56014  29.874  20.686   4.487
84289W        W56015  15.278  34.850   4.031
84290W        W56016  42.999  30.409  14.500
84291W        W56017   9.992  28.991  14.420
84292W        W56018   8.972  25.618   0.277
84293W        W56019   8.055  31.019   3.285
84294W        W56020  16.049   4.501  11.663
84295W        W56021  35.452   7.781   0.743
84296W        W56022  14.811  11.175   0.908
84297W        W56023  16.589  21.732  12.556
84298W        W56024  15.007  16.870   1.357
84299W        W56025  18.999   9.337   0.405
84300W        W56026  37.476  19.987   0.550
84301W        W56027  22.560   7.471   3.717
84302W        W56028  30.843  32.198   0.256
84303W        W56029  21.555  10.242   1.912
84304W        W56030   8.362  43.300   3.262
84305W        W56031  20.251  25.668  11.583
84306W        W56032  20.091  31.970  14.936
84307W        W56033  12.440  10.302  11.492
84308W        W56034   2.656  30.594   0.477
84309W        W56035  43.327  20.603  12.105
84310W        W56036  43.089  13.185  12.320
84311W        W56037  16.090  36.439  14.932
84312W        W56038   5.612  23.794  13.876
84313W        W56039  41.489   8.275   4.378
84314W        W56040  36.781  33.111   3.566
84315W        W56041  44.770  34.335  12.293
84316W        W56042   9.961  14.582  12.075
84317W        W56043  10.833  26.225  13.883
84318W        W56044   9.885   1.459  12.919
84319W        W56045   0.755  20.290  11.095
84320W        W56046   7.636  34.170   3.319
84321W        W56047  19.849  18.615  11.446
84322W        W56048  12.696  36.838   3.824
84323W        W56049  22.153  33.043  11.573
84324W        W56050  40.464  25.094  12.208
84325W        W56051  33.487  29.175   2.754
84326W        W56052  31.703  27.533   4.223
84327W        W56053   8.621  17.079  11.032
84328W        W56054  16.824  10.780  13.543
84329W        W56055   2.154  12.283  13.360
84330W        W56056   4.275  15.091  13.491
84331W        W56057   5.991  20.040  14.400
84332W        W56058  13.270  34.482  14.739
84333W        W56059  14.695  15.302   2.353
84334W        W56060   9.394  43.968  11.981
84335W        W56061  38.331  31.985  12.565
84336W        W56062  28.310   4.108   0.001
84337W        W56063   6.710  41.895   1.744
84338W        W56064  40.393  17.341   9.726
84339W        W56065   2.851  39.343   1.847
84340W        W56066  35.638  14.277   2.710
84341W        W56067  29.088  13.769   2.436
84342W        W56068   0.177  44.740   1.525
84343W        W56069  12.796  30.370  12.987
84344W        W56070  28.832  41.043   1.868
84345W        W56071  34.242  22.119   1.613
84346W        W56072  42.427  34.197  12.885
84347W        W56073  17.284   2.157   4.327
84348W        W56074  11.198  44.562  11.059
84349W        W56075  44.296  35.931   1.424
84350W        W56076  29.406  21.703   1.135
84351W        W56077  38.347  14.887  11.530
84352W        W56078  12.302  11.419   4.672
84353W        W56079   2.457  12.623   3.760
84354W        W56080   9.435  26.430   3.836
84355W        W56081  37.745  24.765  11.107
84356W        W56082  33.567   9.779  12.069
84357W        W56083  23.201   4.174   3.194
84358W        W56084   9.530  14.206  10.150
84359W        W56085  39.425  34.874  10.289
84360W        W56086   2.478  35.059   1.221
84361W        W56087  41.272   6.563   3.407
84362W        W56088  24.536  43.416  14.635
84363W        W56089  22.585  17.874   2.433
84364W        W56090  28.940   0.247   2.773
84365W        W56091  37.091   9.854  12.019
84366W        W56092   4.043  22.488  12.669
84367W        W56093  20.167  28.243  14.059
84368W        W56094  21.259  31.540   2.777
84369W        W56095  29.318  37.519  11.569
84370W        W56096  37.783  35.615   0.361
84371W        W56097  41.355  20.895   3.622
84372W        W56098  44.751  11.242  14.002
84373W        W56099  43.766   4.402  10.936
84374W        W56100  14.172  25.791   3.694
84375W        W56101  10.886  14.336  12.654
84376W        W56102  43.889  30.633  10.645
84377W        W56103  19.305   9.588  11.692
84378W        W56104  30.684  26.197   4.619
84379W        W56105  43.563  28.847  11.617
84380W        W56106  28.655  35.543  13.537
84381W        W56107  14.321   6.283   3.745
84382W        W56108   4.887  17.090  13.837
84383W        W56109  14.888  40.786  11.983
84384W        W56110   5.675  44.511   4.863
84385W        W56111   6.369  11.565  11.770
84386W        W56112   6.203   3.417   0.963
84387W        W56113  27.292  26.234   3.329
84388W        W56114  42.724  32.966   4.179
84389W        W56115  31.151  26.966   2.697
84390W        W56116  21.846  42.796   3.573
84391W        W56117  17.771  17.167  12.368
84392W        W56118  42.585   1.241  12.494
84393W        W56119  34.625  27.174  13.783
84394W        W56120  14.238   8.912   4.521
84395W        W56121  35.483  41.556   4.129
84396W        W56122  31.253   9.080  14.844
84397W        W56123  15.331  29.004  10.941
84398W        W56124  19.359  10.011  12.027
84399W        W56125   8.139  13.462  12.520
84400W        W56126  32.475  23.740   2.763
84401W        W56127  15.162  38.074   9.711
84402W        W56128  24.093  23.257   4.612
84403W        W56129  29.666  10.136  14.496
84404W        W56130  31.622  30.868   0.275
84405W        W56131  32.683  24.274   5.537
84406W        W56132   4.517  43.041   0.618
84407W        W56133  41.178  28.000  13.933
84408W        W56134  41.407  41.796  12.545
84409W        W56135  34.843  42.579  10.681
84410W        W56136  33.489  24.090   1.940
84411W        W56137  32.626  21.007  12.518
84412W        W56138  31.926  24.570   4.784
84413W        W56139  18.828  28.363  10.904
84414W        W56140  37.106   6.941  13.095
84415W        W56141  26.144   5.827  10.883
84416W        W56142  35.168  32.937   3.723
84417W        W56143  15.696   1.513  12.220
84418W        W56144  26.723  15.402   2.871
84419W        W56145   7.267  11.593  14.912
84420W        W56146  29.535  30.330  13.384
84421W        W56147  24.715  11.950   3.752
84422W        W56148  41.613  22.559   0.835
84423W        W56149   8.785  18.518  10.519
84424W        W56150  27.233  32.358   2.605
84425W        W56151  41.400  21.652  11.659
84426W        W56152  35.890  40.755  12.950
84427W        W56153  22.319  12.748  12.493
84428W        W56154  11.390   3.745  10.599
84429W        W56155  20.571  27.634  14.488
84430W        W56156   1.950  24.783   3.657
84431W        W56157  38.982   8.373  12.633
84432W        W56158  22.732  28.819   3.347
84433W        W56159  34.615   2.434  13.386
84434W        W56160  21.111  30.055   2.411
84435W        W56161  40.696  33.242   1.364
84436W        W56162  37.910  35.303  10.718
84437W        W56163  39.628  39.496  13.379
84438W        W56164   9.421   8.914  11.315
84439W        W56165  36.384  37.914   0.377
84440W        W56166  11.909  16.007   0.509
84441W        W56167  37.401  23.530  11.613
84442W        W56168  25.478  20.707   4.514
84443W        W56169  18.772  42.975  12.155
84444W        W56170   7.169  31.933  11.844
84445W        W56171  42.533  39.949  13.954
84446W        W56172  10.643  41.582  11.643
84447W        W56173  11.217  42.896   3.898
84448W        W56174  26.484   0.447   2.646
84449W        W56175  21.210  37.823   4.581
84450W        W56176  15.265  42.480  10.443
84451W        W56177  28.455  43.769   2.619
84452W        W56178  23.594  27.398  11.562
84453W        W56179  13.317  19.769  10.324
84454W        W56180  20.233  13.983   3.284
84455W        W56181  33.802  22.490   2.920
84456W        W56182  31.542  31.677  13.336
84457W        W56183   2.325  39.781   0.693
84458W        W56184  28.545  41.534   1.237
84459W        W56185  22.966  17.370  14.909
84460W        W56186  39.581  19.249   3.405
84461W        W56187   7.447  38.868   3.397
84462W        W56188   1.509  44.455   1.792
84463W        W56189  30.016  42.541   2.766
84464W        W56190  11.056  37.965  12.043
84465W        W56191  41.302  21.024  11.881
84466W        W56192  43.659  33.412   9.959
84467W        W56193   9.356  18.017  12.220
84468W        W56194   1.056  43.010   4.571
84469W        W56195  33.629   9.316   1.553
84470W        W56196   9.219  18.146   1.852
84471W        W56197  10.309  24.224  10.968
84472W        W56198  18.306  41.417  10.756
84473W        W56199  18.053  21.843  10.721
84474W        W56200  35.058   2.913   0.839
84475W        W56201  35.058   2.358  14.318
84476W        W56202  42.822  29.646  13.188
84477W        W56203  12.650  15.111   1.078
84478W        W56204   1.421   1.878  13.096
84479W        W56205  36.599  42.760   2.167
84480W        W56206  38.950   5.201  12.440
84481W        W56207   9.770   3.721   4.529
84482W        W56208  26.561  24.078  11.121
84483W        W56209  36.848  37.545   1.925
84484W        W56210  23.061   5.486   1.212
84485W        W56211  14.658  15.008  13.780
84486W        W56212  40.859  29.003   4.933
84487W        W56213  26.270  33.602   0.689
84488W        W56214  12.321  22.864   3.815
84489W        W56215   9.850  26.542   4.165
84490W        W56216  27.952   0.012   4.573
84491W        W56217   0.549   4.300  11.983
84492W        W56218  15.556  18.667  10.532
84493W        W56219  33.055  36.931  13.427
84494W        W56220  20.694  27.200   4.245
84495W        W56221  31.045  36.371   1.170
84496W        W56222   3.094  29.567  14.724
84497W        W56223  32.915   3.962   2.690
84498W        W56224   5.287  18.971  14.371
84499W        W56225  36.435   7.387   4.603
84500W        W56226  37.856  15.702   3.282
84501W        W56227  39.898  40.527   4.576
84502W        W56228   3.654  18.086  14.394
84503W        W56229  36.281   9.901   0.356
84504W        W56230  14.047  44.754  10.590
84505W        W56231  15.276  36.333   1.275
84506W        W56232  32.050  39.453  11.353
84507W        W56233  29.497  24.160   5.481
84508W        W56234   1.207  43.536   3.720
84509W        W56235  20.027  16.213  13.797
84510W        W56236  40.030  32.482  14.999
84511W        W56237  29.169  20.780  12.178
84512W        W56238  23.263  17.829   0.010
84513W        W56239  32.982  20.792   0.480
84514W        W56240   8.854   1.345   1.305
84515W        W56241   3.203  26.579   1.439
84516W        W56242   8.102  30.423   4.110
84517W        W56243  40.902  37.038  12.912
84518W        W56244  24.945  39.448  13.148
84519W        W56245   6.044  34.493  11.080
84520W        W56246  37.879  39.488   0.841
84521W        W56247  14.094  29.393   4.093
84522W        W56248  32.355  12.683  11.084
84523W        W56249  15.692  42.534  14.791
84524W        W56250  10.226  30.606  12.901
84525W        W56251   5.197   6.255   2.461
84526W        W56252  16.323  30.401  14.769
84527W        W56253  31.138   3.689   2.868
84528W        W56254   3.092   3.149  11.787
84529W        W56255  27.152  43.883   3.149
84530W        W56256  14.819  18.717  13.506
84531W        W56257  29.401  14.078  12.088
84532W        W56258  28.615   6.870  11.120
84533W        W56259  41.353  26.043  11.719
84534W        W56260  39.432  24.940  14.263
84535W        W56261  16.851   9.073  11.504
84536W        W56262  40.556  10.163   1.480
84537W        W56263  14.310   4.899   0.660
84538W        W56264  22.551  30.643  12.593
84539W        W56265  31.130   0.569   2.151
84540W        W56266  28.721   2.359  12.453
84541W        W56267   3.818  29.601   0.316
84542W        W56268  10.334   9.729   4.186
84543W        W56269   6.036   7.819   2.806
84544W        W56270   8.379  10.696   4.751
84545W        W56271   0.364  16.003  14.386
84546W        W56272  27.469  21.995   2.884
84547W        W56273  14.126   7.108   3.297
84548W        W56274  12.132  27.503   0.593
84549W        W56275  12.170  39.929  11.096
84550W        W56276   1.449  21.002   2.858
84551W        W56277  30.618   1.358  14.091
84552W        W56278  14.051  31.108  12.965
84553W        W56279   3.798  33.037  12.090
84554W        W56280  44.190   2.307   1.704
84555W        W56281   0.216  15.711   2.273
84556W        W56282   1.550   2.925   2.634
84557W        W56283  19.438  40.512   0.311
84558W        W56284  19.763  25.182  10.730
84559W        W56285  20.923   8.236   0.743
84560W        W56286  20.982  23.184  11.283
84561W        W56287  31.346   9.689  10.329
84562W        W56288  29.630   4.712  11.338
84563W        W56289   9.288   0.998   4.273
84564W        W56290   4.334  39.949  13.491
84565W        W56291  31.207  13.436   3.627
84566W        W56292   2.928  28.046  10.765
84567W        W56293  31.465  25.702   3.689
84568W        W56294   4.428   7.451   2.890
84569W        W56295   0.174  32.344  13.815
84570W        W56296  19.035  23.528  11.646
84571W        W56297  43.471   9.582   2.265
84572W        W56298  20.034   5.285   2.428
84573W        W56299   5.385  25.062   3.305
84574W        W56300  10.142  42.477   2.809
84575W        W56301   8.197  23.991   1.943
84576W        W56302  30.132  27.262   0.860
84577W        W56303  35.755  36.735  12.457
84578W        W56304  24.471  25.429   1.960
84579W        W56305  37.748  27.505  10.217
84580W        W56306   8.252   0.439  14.007
84581W        W56307   0.243  30.487   3.837
84582W        W56308  16.884  35.594   4.799
84583W        W56309   4.785  19.090   1.478
84584W        W56310  21.435  37.344   4.651
84585W        W56311  44.791  10.689   2.934
84586W        W56312  34.079  26.559   2.859
84587W        W56313  28.776  31.009  12.940
84588W        W56314  35.555   1.278  14.015
84589W        W56315  37.870  20.569   0.661
84590W        W56316  19.003  30.659   0.980
84591W        W56317  20.561   1.279   1.868
84592W        W56318   8.508  31.456   1.507
84593W        W56319  25.776  44.716   3.147
84594W        W56320  30.600  30.077   4.380
84595W        W56321  11.161   0.279  11.570
84596W        W56322  18.505   6.743   0.820
84597W        W56323   1.870   1.147   1.361
84598W        W56324   9.838  21.128  12.942
84599W        W56325  18.104  39.576   2.716
84600W        W56326  33.127  44.252   9.930
84601W        W56327  44.876  39.559   4.437
84602W        W56328  13.801  30.151   1.430
84603W        W56329  23.281  21.699   0.359
84604W        W56330  17.603   5.209   3.377
84605W        W56331  24.540  32.342   2.263
84606W        W56332   2.460  19.462  12.545
84607W        W56333   9.820  42.923   1.820
84608W        W56334  19.993  17.180  14.849
84609W        W56335   2.438   2.769  14.913
84610W        W56336  38.411  33.175  13.117
84611W        W56337  32.685  17.493   4.782
84612W        W56338  43.338  37.869  13.037
84613W        W56339   4.835  12.486   0.732
84614W        W56340  26.649   1.729  11.360
84615W        W56341  26.294  31.033   4.205
84616W        W56342  20.781  21.444  12.946
84617W        W56343  44.723  23.611  13.481
84618W        W56344  25.530  43.799   3.124
84619W        W56345  29.500  21.255  10.155
84620W        W56346  19.535  15.517   1.768
84621W        W56347   7.720  12.401  13.160
84622W        W56348   2.705  39.439   1.349
84623W        W56349  15.696  28.961  14.444
84624W        W56350  12.484   3.761  13.470
84625W        W56351   5.296  20.907  12.055
84626W        W56352  40.834  19.490  12.964
84627W        W56353  39.495   8.105   1.814
84628W        W56354   6.332  14.826   1.866
84629W        W56355  14.305  33.597   1.148
84630W        W56356  14.158  12.260   2.774
84631W        W56357   7.342  18.641  11.359
84632W        W56358  37.401  42.913   4.983
84633W        W56359   5.360  17.119   0.540
84634W        W56360  24.797  34.958   0.756
84635W        W56361   1.004  31.131   2.198
84636W        W56362  29.037  36.100   3.266
84637W        W56363   1.443   1.474  12.444
84638W        W56364  42.004  29.773  14.067
84639W        W56365  10.808  17.557  11.152
84640W        W56366  21.638  15.603   3.316
84641W        W56367  34.011  44.441   2.229
84642W        W56368  19.964  26.143   4.214
84643W        W56369  44.153   1.739  10.854
84644W        W56370  30.542  43.949  11.116
84645W        W56371   8.386  36.886   2.175
84646W        W56372  37.356   3.742  13.755
84647W        W56373   9.723  34.307  10.624
84648W        W56374  29.543   3.707   1.896
84649W        W56375  28.343  25.855  11.622
84650W        W56376  13.802  30.368   0.853
84651W        W56377   3.886   1.278   1.380
84652W        W56378   3.358  28.900   0.482
84653W        W56379   3.500  42.481  12.033
84654W        W56380  24.019  40.921  13.995
84655W        W56381  23.434  27.107   3.599
84656W        W56382  33.062  18.062   2.983
84657W        W56383  39.255  15.214   2.897
84658W        W56384  26.082  20.017   2.404
84659W        W56385  21.687  16.829   0.440
84660W        W56386   7.276   4.852   3.463
84661W        W56387  38.944  27.041   1.387
84662W        W56388  44.432  43.936   4.506
84663W        W56389  33.349  13.116  13.133
84664W        W56390   3.895  21.033   4.859
84665W        W56391  38.002  20.598  13.635
84666W        W56392  36.539  36.806  11.170
84667W        W56393   3.346  19.683  10.443
84668W        W56394  41.035   6.297   2.933
84669W        W56395   6.895  33.888  10.879
84670W        W56396  24.427   3.132  13.330
84671W        W56397   1.942  44.549  14.773
84672W        W56398  14.571   1.267   3.354
84673W        W56399  43.882  28.550   4.392
84674W        W56400  20.909  37.808   0.751
84675W        W56401   4.110  16.082  10.773
84676W        W56402  24.913  10.291  12.074
84677W        W56403  29.903   3.788  12.971
84678W        W56404  13.473   3.783  11.628
84679W        W56405  29.982  43.005  12.185
84680W        W56406  40.012  44.357  14.086
84681W        W56407  13.724  18.547   3.761
84682W        W56408  29.951  19.268  10.698
84683W        W56409   5.757   6.763   0.253
84684W        W56410   9.574  39.039   3.677
84685W        W56411  32.127   4.860  12.960
84686W        W56412  36.831  19.504   4.181
84687W        W56413  20.108  19.459   5.051
84688W        W56414   2.006  35.943  12.951
84689W        W56415  31.360  21.664   2.915
84690W        W56416  14.795  32.641   3.785
84691W        W56417  15.832  17.355   0.922
84692W        W56418   5.403  21.127   0.562
84693W        W56419  32.204   1.299   1.301
84694W        W56420  13.763  37.379  13.045
84695W        W56421   3.041  44.317   1.894
84696W        W56422   3.664   6.950   0.266
84697W        W56423  18.447   5.346  14.299
84698W        W56424   3.774  42.854   3.594
84699W        W56425  39.542   5.827  12.985
84700W        W56426   1.027  37.457  11.197
84701W        W56427  15.866  22.512  13.513
84702W        W56428  40.640   3.401  13.976
84703W        W56429  21.304  41.920   1.877
84704W        W56430  41.516  41.564  10.785
84705W        W56431  29.404  15.465  13.997
84706W        W56432  20.154  42.815  10.792
84707W        W56433   3.972  24.755  11.123
84708W        W56434  30.679  12.391  12.444
84709W        W56435  32.381  22.251   1.725
84710W        W56436  16.409  25.555   4.118
84711W        W56437  12.093  25.121   3.434
84712W        W56438  35.989  17.156   4.451
84713W        W56439   1.215  34.042   1.281
84714W        W56440  41.027  30.688   1.133
84715W        W56441  22.019   8.668  11.065
84716W        W56442  44.591  32.135  12.169
84717W        W56443  44.503  33.141   2.778
84718W        W56444  11.647  26.942  14.536
84719W        W56445  44.556  44.516  12.962
84720W        W56446  31.484  42.138   0.786
84721W        W56447  14.050  16.038  12.442
84722W        W56448   2.300  38.331   1.235
84723W        W56449  17.713   0.028  11.971
84724W        W56450  26.189  22.047   3.719
84725W        W56451  37.966  32.039  11.460
84726W        W56452  44.408   9.858   5.038
84727W        W56453  44.527  37.026   0.458
84728W        W56454  16.614  10.515  12.419
84729W        W56455  41.513  32.128  10.764
84730W        W56456  44.441  11.051  12.933
84731W        W56457  13.866  39.612  12.072
84732W        W56458   5.319  37.537  11.257
84733W        W56459  17.719  17.149   2.327
84734W        W56460  32.504  19.292   1.951
84735W        W56461  14.779  15.840  14.051
84736W        W56462  14.119   5.074   3.281
84737W        W56463   1.324  35.958  13.518
84738W        W56464  40.295  44.381   4.583
84739W        W56465   4.000  30.556   0.457
84740W        W56466  42.118  19.608  13.658
84741W        W56467  23.228   7.234  11.945
84742W        W56468   7.180   3.092  14.636
84743W        W56469  23.294  19.141   0.665
84744W        W56470  13.605  14.381  12.163
84745W        W56471  23.720  40.413  12.017
84746W        W56472  19.573  38.293   0.076
84747W        W56473  39.950  15.028   1.443
84748W        W56474  40.273   5.249   2.252
84749W        W56475   2.834  44.591  13.180
84750W        W56476   1.475  24.414   1.198
84751W        W56477   8.595   2.325  12.154
84752W        W56478  25.383   5.212  12.782
84753W        W56479   1.169  39.528   4.025
84754W        W56480  26.358  11.859   1.636
84755W        W56481   0.381  43.810   1.190
84756W        W56482   7.631   3.906  10.673
84757W        W56483  18.034  44.332  12.427
84758W        W56484  42.757  27.192  12.987
84759W        W56485  21.234   3.708  14.746
84760W        W56486   8.618  34.891   1.714
84761W        W56487  13.168  14.736  12.098
84762W        W56488  20.001   6.874  13.896
84763W        W56489  21.194  27.991   3.947
84764W        W56490   2.749  26.302   1.306
84765W        W56491  25.604  23.190  12.104
84766W        W56492   1.620  29.040  13.537
84767W        W56493  43.881   2.354  11.200
84768W        W56494  22.122  20.787  12.939
84769W        W56495  36.949   3.248   1.843
84770W        W56496  10.809  36.839   0.449
84771W        W56497  39.314  32.231  13.058
84772W        W56498   0.503   3.377  13.958
84773W        W56499  40.304  12.206  12.536
84774W        W56500  33.909  32.611   0.889
84775W        W56501   1.970  42.452  12.505
84776W        W56502  37.417  25.510  13.765
84777W        W56503  25.053  44.694   3.724
84778W        W56504  30.416  23.907   4.024
84779W        W56505  22.923   7.709   1.448
84780W        W56506   9.013  37.558   4.538
84781W        W56507   0.731  36.781  12.605
84782W        W56508  20.147  26.253   1.323
84783W        W56509  42.823  27.476  14.251
84784W        W56510  31.597  15.719  14.815
84785W        W56511  31.523  23.623   0.686
84786W        W56512   8.222  32.901  13.262
84787W        W56513  33.690  37.308   1.352
84788W        W56514  22.499  44.527  11.075
84789W        W56515  10.740  14.030  14.290
84790W        W56516  31.438  39.894   4.118
84791W        W56517   5.684  25.744  12.940
84792W        W56518   5.737  16.156  13.542
84793W        W56519  28.535  34.174   2.629
84794W        W56520  41.010  34.704   2.326
84795W        W56521  24.933  27.883  14.735
84796W        W56522  18.086  30.405   1.290
84797W        W56523   0.351  29.120   4.150
84798W        W56524  17.014   2.411   2.802
84799W        W56525  24.620   5.965  11.549
84800W        W56526  33.852  11.960  11.945
84801W        W56527  37.615  24.039   2.312
84802W        W56528  35.277   8.313  13.936
84803W        W56529  17.175  43.297  13.276
84804W        W56530  15.587  18.759  13.872
84805W        W56531  44.070  32.994  12.121
84806W        W56532  41.286  31.489  11.881
84807W        W56533  34.046   0.515  13.501
84808W        W56534  15.093   1.282  11.132
84809W        W56535  13.311  17.871   3.137
84810W        W56536  37.278  13.131   1.436
84811W        W56537  35.022  38.624  14.326
84812W        W56538  37.593  27.698   2.263
84813W        W56539   2.103  24.055  12.095
84814W        W56540  32.356   3.194   4.610
84815W        W56541  19.500  17.150   1.686
84816W        W56542  11.782   0.283  13.994
84817W        W56543  21.524  29.559  14.347
84818W        W56544  26.145  38.021  10.516
84819W        W56545  10.992  16.722  11.586
84820W        W56546  44.931   4.050  10.464
84821W        W56547   6.922  19.589  11.101
84822W        W56548  11.576  19.532  13.754
84823W        W56549  18.161  24.599  13.792
84824W        W56550   4.372  42.163   3.982
84825W        W56551  41.776  19.258  12.101
84826W        W56552  32.603   5.881  12.831
84827W        W56553  32.598  22.605  10.779
84828W        W56554   1.450  25.451  11.118
84829W        W56555  17.546  41.900   2.706
84830W        W56556  23.958   3.277   3.739
84831W        W56557  41.089   6.516  12.416
84832W        W56558  32.577  27.166   2.786
84833W        W56559   6.833  30.915  13.409
84834W        W56560  25.689  27.623  11.610
84835W        W56561  24.811  38.520  13.042
84836W        W56562  16.817  19.285  10.762
84837W        W56563  39.075  31.075   3.663
84838W        W56564  27.907  11.850   1.339
84839W        W56565  11.406   1.787  11.611
84840W        W56566   1.780  32.589   4.034
84841W        W56567  20.075  12.443  12.458
84842W        W56568  23.059  25.440  10.683
84843W        W56569  43.734   2.853   4.528
84844W        W56570  25.274   1.582   0.946
84845W        W56571  38.596  13.738   2.653
84846W        W56572  23.009  14.689  14.972
84847W        W56573  33.293   2.214   2.275
84848W        W56574  23.643  39.518  11.979
84849W        W56575  27.858  12.265  14.799
84850W        W56576  20.103  32.490   1.109
84851W        W56577  10.234   3.654   1.374
84852W        W56578  18.805  11.019   4.514
84853W        W56579  27.110  44.321  10.180
84854W        W56580  30.062  17.509   4.104
84855W        W56581  23.651   0.899  13.251
84856W        W56582  20.863  33.960  11.569
84857W        W56583  44.885  38.509  11.449
84858W        W56584  31.758   9.277   4.686
84859W        W56585   8.769  29.399  14.491
84860W        W56586   1.508  19.684   1.920
84861W        W56587   6.199  18.574   3.128
84862W        W56588   7.376  11.479  13.097
84863W        W56589  11.245   7.075  10.947
84864W        W56590   1.011  26.473   1.908
84865W        W56591  35.329  12.609   2.496
84866W        W56592  41.630  35.860   2.793
84867W        W56593   2.764  43.102   0.812
84868W        W56594   4.967  31.090  13.821
84869W        W56595  42.302   8.733   3.732
84870W        W56596  36.116  40.104   0.531
84871W        W56597   6.875  27.988   2.087
84872W        W56598  42.028   2.255  14.363
84873W        W56599  21.976  18.716   3.162
84874W        W56600  16.863   1.906   0.466
84875W        W56601  22.623  22.709   2.332
84876W        W56602  10.850  43.899   3.587
84877W        W56603  40.765  16.343   2.012
84878W        W56604   1.731  23.103  13.712
84879W        W56605  32.549   4.901  13.960
84880W        W56606  39.361   1.751  11.562
84881W        W56607  12.177  37.393   1.132
84882W        W56608  31.210   4.393   2.220
84883W        W56609  27.677  40.822   2.177
84884W        W56610  31.057   2.757   3.720
84885W        W56611  16.799  30.372   4.609
84886W        W56612  14.450  26.236   1.270
84887W        W56613  41.468  22.000  12.847
84888W        W56614  13.641  21.982   0.303
84889W        W56615  16.615  23.630   1.962
84890W        W56616  42.117  17.203   0.182
84891W        W56617   8.361   7.396  11.936
84892W        W56618  10.017  30.497  13.730
84893W        W56619   3.751  25.901   1.128
84894W        W56620  31.639  21.121  11.975
84895W        W56621  28.899  18.373  12.048
84896W        W56622  22.040   0.267   0.895
84897W        W56623  23.180  43.168  11.703
84898W        W56624  33.497   5.153   3.723
84899W        W56625  32.279  33.588  11.328
84900W        W56626  38.782  19.319  12.789
84901W        W56627  15.605  35.421   3.247
84902W        W56628  39.490   7.841   2.860
84903W        W56629  16.999  37.875   2.646
84904W        W56630  29.141   1.148  11.508
84905W        W56631  41.888  32.118   0.933
84906W        W56632  26.491  16.595   1.254
84907W        W56633   9.849  11.558   1.923
84908W        W56634   7.820   8.055   4.403
84909W        W56635   5.179   9.611  13.962
84910W        W56636   1.426  25.701  13.372
84911W        W56637  39.846  20.847  14.368
84912W        W56638  34.865  43.721   1.831
84913W        W56639  28.416   5.933  14.455
84914W        W56640   3.430  40.484   2.850
84915W        W56641  33.948   8.466   2.100
84916W        W56642  30.380  18.557  14.073
84917W        W56643  42.616  10.290   4.211
84918W        W56644  44.902  23.264   4.371
84919W        W56645  41.396  39.869   3.119
84920W        W56646  22.282  33.156   4.337
84921W        W56647   7.304  28.147   0.473
84922W        W56648  20.530  18.057  14.855
84923W        W56649  25.117  32.456  11.941
84924W        W56650  22.732  41.788  14.496
84925W        W56651   4.039   4.258   1.902
84926W        W56652  23.626  16.388  11.529
84927W        W56653   0.153  13.838   4.076
84928W        W56654  25.672  33.364   3.708
84929W        W56655  10.722  39.100   1.140
84930W        W56656  26.172   2.198   4.643
84931W        W56657  36.068  23.442  11.301
84932W        W56658  14.314  11.400   0.889
84933W        W56659   0.497  22.498   4.347
84934W        W56660  41.895  24.597   0.512
84935W        W56661  40.517  29.906   3.670
84936W        W56662  32.664   0.298  13.544
84937W        W56663  28.192  26.957   3.428
84938W        W56664  18.748  22.849   4.913
84939W        W56665  22.948  11.042  10.351
84940W        W56666   5.641  32.039  12.084
84941W        W56667  17.653  13.607   4.057
84942W        W56668   3.912  34.524   0.475
84943W        W56669  20.493  22.504   4.014
84944W        W56670   0.091  40.613  11.423
84945W        W56671  44.281  37.960   2.655
84946W        W56672  40.614  33.672  11.931
84947W        W56673   4.808   3.059  11.957
84948W        W56674  10.338   2.815   2.474
84949W        W56675  21.208  20.265   4.587
84950W        W56676  36.090   8.297  12.938
84951W        W56677  31.662  20.060   3.807
84952W        W56678  29.898  44.320  12.932
84953W        W56679  35.091  10.633   1.715
84954W        W56680  35.680  25.231   1.403
84955W        W56681  13.265  35.640   4.264
84956W        W56682  33.309  35.238   3.913
84957W        W56683  14.619   2.964   1.436
84958W        W56684   8.757  31.472   2.387
84959W        W56685  38.046  20.582  12.517
84960W        W56686  43.318  33.315   2.773
84961W        W56687  22.769  24.256  14.282
84962W        W56688  16.515  40.050   2.225
84963W        W56689   5.474  23.280   1.713
84964W        W56690   3.645  41.459   4.222
84965W        W56691  12.385  29.118  14.972
84966W        W56692  17.519  38.248  11.533
84967W        W56693  25.234  27.763  11.916
84968W        W56694   6.634  25.741  12.018
84969W        W56695  25.611   8.889  12.452
84970W        W56696  25.953   0.461   3.148
84971W        W56697  42.347  40.762   3.180
84972W        W56698  41.471  44.569   2.867
84973W        W56699  17.679  17.575  14.946
84974W        W56700  31.866  20.655  14.464
84975W        W56701  18.298  22.982   3.648
84976W        W56702   7.838  33.587   0.428
84977W        W56703  16.640  11.623   4.129
84978W        W56704   6.247  12.179   1.893
84979W        W56705  43.373   2.489  11.447
84980W        W56706  15.421   6.996  14.115
84981W        W56707  29.212  36.737   3.929
84982W        W56708   6.516  26.769  14.396
84983W        W56709   0.516  34.583  14.868
84984W        W56710   7.723  29.543   0.390
84985W        W56711  33.870  41.203  13.323
84986W        W56712  28.083   2.318  12.566
84987W        W56713  36.396  29.209   3.347
84988W        W56714   2.528  29.824   4.295
84989W        W56715  41.519   6.434   0.395
84990W        W56716  39.329  13.221   2.705
84991W        W56717  18.551  10.119  13.919
84992W        W56718  21.776   1.802   3.876
84993W        W56719  14.138  43.549   3.662
84994W        W56720  36.386  38.360   4.581
84995W        W56721  21.092  38.348  12.039
84996W        W56722  40.123  41.899  13.836
84997W        W56723   6.680  38.896   3.803
84998W        W56724  29.364   0.442  13.493
84999W        W56725  27.161  20.633  13.328
85000W        W56726  23.997  35.021  12.104
85001W        W56727  18.703   1.987   2.710
85002W        W56728  39.044  34.217   1.337
85003W        W56729  40.339  43.355   2.161
85004W        W56730   0.275  19.408  11.085
85005W        W56731  32.909  33.621  14.765
85006W        W56732  23.271  19.504  12.874
85007W        W56733   8.204  31.516  13.507
85008W        W56734   6.615  31.590  11.745
85009W        W56735  20.244  44.784   0.763
85010W        W56736  12.617  26.184  13.354
85011W        W56737   9.715  26.179   1.899
85012W        W56738  10.727  26.537  14.296
85013W        W56739   0.383  43.213   3.292
85014W        W56740  21.025  39.514  11.415
85015W        W56741  16.233  40.233  11.511
85016W        W56742  32.899   1.784   0.733
85017W        W56743  21.295  35.850   4.946
85018W        W56744  32.934  41.780  14.670
85019W        W56745  33.931  15.989   3.188
85020W        W56746  40.226  21.298  10.453
85021W        W56747  16.384  39.949   4.476
85022W        W56748  41.963  30.536  12.347
85023W        W56749  36.133  42.896   4.570
85024W        W56750  31.128  26.183  13.625
85025W        W56751   6.123  16.055  12.078
85026W        W56752  21.025  18.965  12.101
85027W        W56753  42.852   3.330   0.461
85028W        W56754  10.828  43.221   4.591
85029W        W56755  33.010  23.756  12.064
85030W        W56756  34.569  34.526   3.459
85031W        W56757  37.686  35.328  12.408
85032W        W56758  29.225   6.234   4.450
85033W        W56759  23.600  34.775   3.296
85034W        W56760  11.920  12.274   0.407
85035W        W56761  43.737  40.380  12.963
85036W        W56762  29.481   6.435   0.544
85037W        W56763  10.139   8.616   3.227
85038W        W56764   8.789  11.356  13.371
85039W        W56765   1.844  36.898   3.734
85040W        W56766  43.983  11.395   4.130
85041W        W56767  24.230  10.967   0.762
85042W        W56768  24.012  44.714   1.769
85043W        W56769   1.919  24.580  12.834
85044W        W56770  25.118  35.129  14.336
85045W        W56771  30.183  29.823  11.262
85046W        W56772  24.762  17.614   1.685
85047W        W56773  44.009  35.169   1.921
85048W        W56774  34.150  26.052   0.293
85049W        W56775  15.361  38.344   1.196
85050W        W56776  38.840  11.145  11.113
85051W        W56777  19.486  30.085  13.511
85052W        W56778   1.928  23.710   0.032
85053W        W56779  43.703  19.296   1.977
85054W        W56780  35.318   0.298   3.433
85055W        W56781  13.990  32.418  12.335
85056W        W56782   0.432  43.855  12.809
85057W        W56783  19.164  41.377   2.699
85058W        W56784  35.896  24.024   0.887
85059W        W56785  31.162  33.936  13.582
85060W        W56786   2.028  20.390   4.780
85061W        W56787  18.788  27.966   4.603
85062W        W56788  29.471  28.658  12.515
85063W        W56789  19.733  19.720   4.602
85064W        W56790  40.444  25.516   4.798
85065W        W56791  35.432   9.690   2.664
85066W        W56792  13.356  27.744  10.956
85067W        W56793  34.360  41.411   0.422
85068W        W56794  30.169   4.170  12.751
85069W        W56795  22.121  15.608  14.518
85070W        W56796  33.363  34.087   0.825
85071W        W56797  32.122  34.017  12.185
85072W        W56798   8.406  25.666  12.868
85073W        W56799  43.562  35.594   0.325
85074W        W56800  26.820  24.796  13.766
85075W        W56801  12.395  26.575  10.691
85076W        W56802  30.121  11.841  13.083
85077W        W56803   5.250   5.015   1.904
85078W        W56804  29.621  33.979  12.128
85079W        W56805  26.718  18.737  13.522
85080W        W56806  36.614  30.439  14.892
85081W        W56807   8.460   4.274  10.794
85082W        W56808  43.841  39.226   0.799
85083W        W56809  35.155  14.325  14.693
85084W        W56810  13.716  39.453  10.668
85085W        W56811  35.505  39.881   3.584
85086W        W56812  23.836   3.744   0.100
85087W        W56813  16.064  33.423   1.822
85088W        W56814   9.916  42.265  13.026
85089W        W56815  40.965  16.958  14.914
85090W        W56816  10.804   5.261   0.701
85091W        W56817  12.664   9.455  11.538
85092W        W56818  15.282   2.207   2.257
85093W        W56819   4.217  20.792  11.389
85094W        W56820  40.124  35.891  11.934
85095W        W56821  38.344  22.564   4.545
85096W        W56822  31.510  29.387  12.910
85097W        W56823  40.942  28.005   2.768
85098W        W56824   9.201  23.520   1.671
85099W        W56825  37.813  25.013  12.222
85100W        W56826  21.174  11.251   4.493
85101W        W56827   2.043  35.442   4.227
85102W        W56828   2.856  38.988   3.752
85103W        W56829   5.840  15.743   5.579
85104W        W56830  38.756  21.687   4.688
85105W        W56831   7.181  10.636  14.786
85106W        W56832  25.634  26.672  11.617
85107W        W56833   7.772  21.467   0.820
85108W        W56834  36.449  38.816  11.555
85109W        W56835  44.092  40.003   5.298
85110W        W56836  14.007   1.786  13.508
85111W        W56837  36.166   5.365   0.243
85112W        W56838  23.047  34.073  14.735
85113W        W56839  40.748   1.338   0.611
85114W        W56840  20.738  35.931   1.442
85115W        W56841  25.982  30.532   2.008
85116W        W56842  14.235  18.498  14.018
85117W        W56843  12.680  31.058   3.899
85118W        W56844  17.994  24.436   1.160
85119W        W56845  30.116  34.927  12.057
85120W        W56846   4.729  25.272  14.881
85121W        W56847   1.446  26.473  12.015
85122W        W56848  24.177  42.256   3.732
85123W        W56849   1.927  37.960   0.482
85124W        W56850  23.778  29.981   4.785
85125W        W56851  31.982   5.688  12.075
85126W        W56852  30.993  20.694  11.880
85127W        W56853  40.008  13.295   0.376
85128W        W56854  42.906  24.956  14.428
85129W        W56855  11.395   3.341  14.846
85130W        W56856   0.285  29.943   0.934
85131W        W56857  29.624  28.909   0.895
85132W        W56858  23.510   5.438   0.315
85133W        W56859  39.061  44.390  13.824
85134W        W56860   3.192  11.163   1.106
85135W        W56861  43.322  23.095   1.323
85136W        W56862  14.740   4.257  10.874
85137W        W56863  13.675  24.532   0.825
85138W        W56864  30.630  24.780  11.161
85139W        W56865  21.461  27.726   3.589
85140W        W56866  24.248  18.418  12.631
85141W        W56867  18.532  21.592  10.849
85142W        W56868   3.314  32.306   3.267
85143W        W56869  35.777  33.398  12.439
85144W        W56870   0.278  19.120  14.736
85145W        W56871  22.982   5.477  12.468
85146W        W56872  43.776  36.961   1.753
85147W        W56873  34.826  38.593   0.250
85148W        W56874  34.892  17.507   3.789
85149W        W56875  21.134  11.588   4.091
85150W        W56876  11.315   9.758  12.116
85151W        W56877  26.459  20.775  10.500
85152W        W56878  25.411  40.769  12.943
85153W        W56879   2.852  17.493   2.205
85154W        W56880  33.648   2.864  10.686
85155W        W56881   8.196  12.403   3.557
85156W        W56882  26.208  18.681  14.887
85157W        W56883   5.336  40.425  14.251
85158W        W56884  14.805  27.197  11.032
85159W        W56885  22.637  14.071  11.211
85160W        W56886  29.033   3.880   3.697
85161W        W56887  25.131  32.011   4.664
85162W        W56888  25.112   4.907   5.088
85163W        W56889  37.714  19.950   2.693
85164W        W56890  23.447  20.312  11.516
85165W        W56891   8.273  40.808  14.381
85166W        W56892  31.106  12.821   2.421
85167W        W56893  13.611   4.329   2.185
85168W        W56894  14.203  40.599   0.271
85169W        W56895  27.513  39.957  13.015
85170W        W56896  32.470  34.375   0.744
85171W        W56897  39.403  27.135   3.759
85172W        W56898  29.620  18.162  10.795
85173W        W56899  27.739  19.140  11.952
85174W        W56900  13.913  25.761   0.712
85175W        W56901  32.180  33.591   4.224
85176W        W56902   4.263  13.132   0.289
85177W        W56903  26.928  44.006   0.916
85178W        W56904  36.190  34.724  12.293
85179W        W56905   3.335  19.177   1.791
85180W        W56906  30.586  42.422   2.370
85181W        W56907  13.883  29.163   3.669
85182W        W56908   6.658  43.385   0.875
85183W        W56909   1.380   6.881   4.166
85184W        W56910  36.053  40.468   2.125
85185W        W56911   7.743  44.548   2.745
85186W        W56912  33.150  17.299   1.796
85187W        W56913  41.271   0.981  10.697
85188W        W56914  42.592  39.298  10.580
85189W        W56915  11.362  26.639   2.406
85190W        W56916  22.567   7.397   1.696
85191W        W56917  37.949  15.405  13.313
85192W        W56918  25.482  14.325  13.363
85193W        W56919  18.231  33.634   0.018
85194W        W56920  42.193   4.655   0.485
85195W        W56921  13.663  19.053   3.673
85196W        W56922   8.503  29.246   1.991
85197W        W56923  29.605  13.630  14.009
85198W        W56924  21.532  24.105  11.610
85199W        W56925  41.207   4.683   3.646
85200W        W56926  42.884  27.609   0.329
85201W        W56927   7.870  18.176  10.717
85202W        W56928  11.897  10.683  12.925
85203W        W56929   2.843  23.596  12.301
85204W        W56930  30.399  14.389  13.491
85205W        W56931   4.028  25.230  12.410
85206W        W56932  44.165  39.625   0.051
85207W        W56933  15.668  41.342   4.693
85208W        W56934  37.907  35.254  11.925
85209W        W56935  24.657  14.989  13.512
85210W        W56936  15.364  16.300   4.939
85211W        W56937  44.869  17.767  11.260
85212W        W56938  13.563  40.411  11.845
85213W        W56939  41.484  10.609  10.440
85214W        W56940  40.280  40.823   1.996
85215W        W56941  28.029  26.687   3.018
85216W        W56942  19.578  28.963   3.266
85217W        W56943  32.074  16.760  11.611
85218W        W56944  42.345  26.894  14.419
85219W        W56945  40.031  30.442  13.996
85220W        W56946  13.380  22.212  12.914
85221W        W56947  20.672   1.483  13.951
85222W        W56948  40.081  38.168   4.175
85223W        W56949  35.906  44.437   0.064
85224W        W56950   5.945   1.971  13.446
85225W        W56951  17.769  41.536   0.898
85226W        W56952  41.386   8.262  12.908
85227W        W56953  20.473  10.588  13.925
85228W        W56954  26.162   7.038   1.320
85229W        W56955   3.301  19.172   4.612
85230W        W56956  35.275  18.143   4.670
85231W        W56957  42.403  28.684   0.841
85232W        W56958  42.225  13.114   1.381
85233W        W56959   1.334  36.943  13.524
85234W        W56960  10.387   1.576  12.039
85235W        W56961  31.397  12.740  14.511
85236W        W56962  42.932  27.760  13.851
85237W        W56963   0.458  14.999   4.439
85238W        W56964  31.971  42.358   5.027
85239W        W56965  33.028  18.224   4.763
85240W        W56966  10.742   9.504   2.346
85241W        W56967   9.205  27.720  12.118
85242W        W56968  17.670   1.264  11.433
85243W        W56969  22.578   0.363  13.607
85244W        W56970  26.690  11.717  14.485
85245W        W56971   1.290  17.088   0.979
85246W        W56972  25.293  27.080  10.960
85247W        W56973  11.416  38.525  12.827
85248W        W56974  19.042  38.405   1.772
85249W        W56975   9.408  33.851   3.979
85250W        W56976  23.721  36.682   3.788
85251W        W56977   6.209  21.240  11.124
85252W        W56978  22.254   7.128   3.500
85253W        W56979  37.819  33.521  11.580
85254W        W56980  11.740  41.894   4.125
85255W        W56981  18.583   2.858   4.587
85256W        W56982  21.738   5.331  12.954
85257W        W56983  12.207  30.625   1.944
85258W        W56984   4.700  27.631   2.125
85259W        W56985  10.285   4.515   0.020
85260W        W56986  20.937  30.679   0.402
85261W        W56987  39.099   7.425   2.975
85262W        W56988  22.640  12.385  13.092
85263W        W56989   4.329  12.591  14.226
85264W        W56990  33.324   4.889   1.645
85265W        W56991  36.836   2.242  11.635
85266W        W56992  43.026  39.791  13.988
85267W        W56993  40.296  26.293   0.912
85268W        W56994   2.192  38.703  11.916
85269W        W56995   1.957  11.466   3.627
85270W        W56996  19.326   7.711   0.835
85271W        W56997  13.880  33.962  14.939
85272W        W56998  35.188  10.823   2.706
85273W        W56999  35.270  38.414  13.925
85274W        W57000  26.852  17.441   0.922
85275W        W57001  12.814   5.355   3.438
85276W        W57002  35.891  28.924  14.045
85277W        W57003   4.521   0.293   4.196
85278W        W57004  24.810   6.990   4.050
85279W        W57005  33.098   3.307  12.053
85280W        W57006   8.116  41.394   3.392
85281W        W57007   8.249  29.895   1.247
85282W        W57008  17.119  20.444  13.480
85283W        W57009   4.616  37.067  11.144
85284W        W57010  31.391  19.773   4.229
85285W        W57011  11.144   8.193   0.740
85286W        W57012  38.015   6.641  14.424
85287W        W57013   4.406  24.037   1.912
85288W        W57014  43.589  35.366  14.102
85289W        W57015   7.929  36.406  12.501
85290W        W57016   6.228  41.994  13.028
85291W        W57017   3.408  35.036  10.791
85292W        W57018  40.450  17.342  10.332
85293W        W57019  25.227  13.853   5.195
85294W        W57020  14.692  43.910  12.503
85295W        W57021   7.425  18.729   4.471
85296W        W57022   6.413  43.953   2.231
85297W        W57023  38.040  22.895  13.673
85298W        W57024  22.215  42.468  14.351
85299W        W57025  24.430  40.750   1.375
85300W        W57026  41.581  38.140   4.016
85301W        W57027  13.995   2.443   0.698
85302W        W57028  35.832  17.099   3.952
85303W        W57029  24.007  37.883   1.051
85304W        W57030   7.361  25.273  12.468
85305W        W57031  18.502   7.729   3.378
85306W        W57032   7.885  15.805  13.044
85307W        W57033  37.639  37.045   0.625
85308W        W57034  27.887  15.655  11.064
85309W        W57035  14.846  28.995  14.897
85310W        W57036  26.834  35.328   2.941
85311W        W57037  25.520  27.930   0.338
85312W        W57038   9.388  13.108   2.221
85313W        W57039  35.378  39.070  13.583
85314W        W57040  44.341  21.188   0.925
85315W        W57041  21.945  41.090   3.720
85316W        W57042  34.162   7.818  11.197
85317W        W57043  33.070  28.471  14.698
85318W        W57044  18.939   7.236   2.566
85319W        W57045  34.644  13.781  13.992
85320W        W57046   5.030  16.063   4.046
85321W        W57047  31.154  16.245   3.244
85322W        W57048  35.088  16.257   4.755
85323W        W57049  16.897  29.614   4.747
85324W        W57050  11.996  12.386   1.297
85325W        W57051  12.102  16.883  11.140
85326W        W57052  38.863  18.041  11.091
85327W        W57053  30.185  11.309  10.965
85328W        W57054  34.045  27.730  11.560
85329W        W57055  13.347  25.818   2.010
85330W        W57056  15.720  38.923   3.239
85331W        W57057  14.048  36.737   0.434
85332W        W57058   1.620   3.286  14.422
85333W        W57059  13.184  18.232   1.830
85334W        W57060  36.343  42.471  11.433
85335W        W57061  20.586  37.909   2.767
85336W        W57062  42.252  38.287  13.855
85337W        W57063  21.374  28.965  13.800
85338W        W57064  25.990  18.474   3.339
85339W        W57065  24.343  29.247  11.118
85340W        W57066  31.510  19.761  12.089
85341W        W57067   0.369   9.669   1.154
85342W        W57068  25.961  17.612   3.358
85343W        W57069  24.631  10.219   1.275
85344W        W57070  29.635  30.431  13.878
85345W        W57071  27.186  21.200   4.420
85346W        W57072  38.145  39.552  12.407
85347W        W57073   2.808  26.063   4.356
85348W        W57074  21.991  10.373   3.008
85349W        W57075  11.124   7.352  10.535
85350W        W57076  23.021  37.403  10.473
85351W        W57077  17.615  10.237  10.726
85352W        W57078  20.142  21.798  11.566
85353W        W57079   7.692  11.820   2.871
85354W        W57080  36.010   3.240  14.168
85355W        W57081   1.088   8.149  13.590
85356W        W57082  25.108   9.475  11.879
85357W        W57083  42.968  18.214   3.814
85358W        W57084  42.259  23.249  13.884
85359W        W57085  25.572  34.380   3.730
85360W        W57086  13.000  12.222   4.640
85361W        W57087  41.521  13.681   0.007
85362W        W57088  15.658  20.416  10.452
85363W        W57089  30.344  19.721   1.700
85364W        W57090  14.754  35.658   2.644
85365W        W57091  39.547  17.601  12.019
85366W        W57092   1.274  29.461  12.574
85367W        W57093  23.452  11.804   2.108
85368W        W57094  21.911  37.008  14.306
85369W        W57095  38.860  31.476  12.028
85370W        W57096  28.655  15.192   2.668
85371W        W57097  18.267  36.486   2.625
85372W        W57098  44.543   9.359  14.487
85373W        W57099  14.645   4.483   4.178
85374W        W57100  35.340  17.975  11.158
85375W        W57101  35.057  18.069   0.337
85376W        W57102  24.950  11.129   2.679
85377W        W57103  11.774  27.257  13.019
85378W        W57104  21.593   0.412  14.354
85379W        W57105  36.833  10.189  12.466
85380W        W57106  19.144  40.407  11.983
85381W        W57107   2.109  34.012   0.910
85382W        W57108  43.296  37.026   1.942
85383W        W57109  15.713  13.785  13.024
85384W        W57110  11.639  35.207  11.820
85385W        W57111  37.507  14.868  14.875
85386W        W57112  23.458   7.035   1.859
85387W        W57113  28.689  36.777   0.378
85388W        W57114  40.390  43.442  13.395
85389W        W57115   9.307  17.469   2.820
85390W        W57116  39.822   4.008  14.085
85391W        W57117  14.827   0.505   4.359
85392W        W57118  35.443  12.794  14.918
85393W        W57119   1.679  36.382   1.263
85394W        W57120  44.021  29.485   4.173
85395W        W57121  40.836  42.970   2.864
85396W        W57122  27.017   3.279  14.703
85397W        W57123   2.980  12.684   2.670
85398W        W57124  23.598  29.224   2.621
85399W        W57125   5.517  36.595   4.102
85400W        W57126  18.464   8.147   0.775
85401W        W57127  23.826  28.099  11.608
85402W        W57128   6.403  28.513  12.815
85403W        W57129  31.692   6.857  13.417
85404W        W57130   2.614   2.194   1.709
85405W        W57131   2.844  27.028   4.409
85406W        W57132  15.339   7.806  14.596
85407W        W57133  26.437  12.788  13.923
85408W        W57134  25.162  13.448  14.783
85409W        W57135  41.715  42.764   2.609
85410W        W57136  29.845  43.032   2.312
85411W        W57137  21.437  12.585  11.051
85412W        W57138  43.285  10.295   0.452
85413W        W57139  24.106  38.696  13.509
85414W        W57140  26.748  22.058   0.451
85415W        W57141  22.782  30.167  11.024
85416W        W57142  39.083  36.782   0.294
85417W        W57143  16.793  34.027  10.932
85418W        W57144  35.421  34.153  11.948
85419W        W57145   1.968  44.040  10.721
85420W        W57146  39.824   6.029   2.666
85421W        W57147  36.870  40.826   3.851
85422W        W57148   4.526  30.588   3.832
85423W        W57149  27.977   3.727  13.321
85424W        W57150   6.966   8.608  14.873
85425W        W57151  12.096  27.756  12.051
85426W        W57152  15.334   3.908  10.404
85427W        W57153  24.944  15.344  14.993
85428W        W57154   1.686  24.184  13.048
85429W        W57155   3.770   9.570   2.991
85430W        W57156  31.900  21.566   3.793
85431W        W57157  10.199  18.278  14.404
85432W        W57158  13.193   1.389   2.241
85433W        W57159  14.402  31.867  14.004
85434W        W57160  42.318   9.742  11.142
85435W        W57161  34.033  43.300   1.374
85436W        W57162  44.716  32.066  13.907
85437W        W57163   3.613  29.548  14.773
85438W        W57164  28.203  10.824  13.901
85439W        W57165  23.228  13.151  10.718
85440W        W57166  21.126  44.543  11.098
85441W        W57167   2.379   1.286   1.460
85442W        W57168   7.150  19.900   1.187
85443W        W57169  21.146   8.352  12.787
85444W        W57170   5.870  10.936   3.207
85445W        W57171  29.913   9.737   1.395
85446W        W57172  25.655  12.190   0.062
85447W        W57173  10.335   7.763  10.579
85448W        W57174  38.044   1.742  13.406
85449W        W57175  24.024  21.844  14.385
85450W        W57176  28.613  27.118   2.545
85451W        W57177  29.107  23.874  11.638
85452W        W57178   0.877  10.224  13.479
85453W        W57179  19.130   4.992   1.034
85454W        W57180  29.224  11.373  14.461
85455W        W57181  41.556   0.376   3.138
85456W        W57182  36.532   3.347   2.110
85457W        W57183  22.610  12.689   5.398
85458W        W57184   2.722  16.179   1.899
85459W        W57185  32.386   2.233   0.914
85460W        W57186  40.630  30.966  14.274
85461W        W57187  25.444  39.572   4.035
85462W        W57188  22.489  43.394  14.348
85463W        W57189  29.896   2.376  11.152
85464W        W57190  12.181  23.688  14.704
85465W        W57191  25.669   9.462   3.603
85466W        W57192  10.828   5.172   3.762
85467W        W57193  11.334  16.683   0.578
85468W        W57194  10.856   1.423   1.183
85469W        W57195   6.083   4.287   1.062
85470W        W57196  34.248  19.706  10.706
85471W        W57197  38.534  18.771  10.719
85472W        W57198  23.686  35.903   2.110
85473W        W57199   9.182  25.070   2.144
85474W        W57200  43.390  33.641   0.431
85475W        W57201  20.618  39.373  13.806
85476W        W57202  23.985   4.916  12.493
85477W        W57203  43.575  44.473  11.522
85478W        W57204  17.717  13.305  13.087
85479W        W57205  20.696   0.239   1.304
85480W        W57206  24.936  26.890   1.881
85481W        W57207  19.583  38.887  12.798
85482W        W57208  22.974  11.114   0.729
85483W        W57209  42.069  11.388  13.971
85484W        W57210  40.965   5.764  12.465
85485W        W57211  15.845  22.314   9.943
85486W        W57212  23.087  11.634   1.708
85487W        W57213  34.832   4.499  11.623
85488W        W57214  15.638  40.427   3.207
85489W        W57215  34.880  26.930  14.850
85490W        W57216  12.859   5.466  12.020
85491W        W57217  37.398  34.029   4.198
85492W        W57218  16.571  37.786  10.777
85493W        W57219  32.668  41.474   1.840
85494W        W57220  13.876  14.416  14.582
85495W        W57221  30.775  33.388   2.796
85496W        W57222  35.533  12.274  11.096
85497W        W57223   7.659  32.428   0.803
85498W        W57224  24.615   5.185  13.455
85499W        W57225  31.551  35.559   3.676
85500W        W57226  21.887  25.721   0.974
85501W        W57227  35.061  33.354  14.414
85502W        W57228  31.996  29.496  11.611
85503W        W57229  32.125  12.275  14.968
85504W        W57230  34.853  36.936   4.172
85505W        W57231  15.290  13.128  10.679
85506W        W57232  20.777  26.303  14.365
85507W        W57233   8.270  37.029  12.353
85508W        W57234   9.328  23.448   2.213
85509W        W57235   5.899  37.485  14.437
85510W        W57236  40.405   7.151  13.354
85511W        W57237   3.935  21.243   3.930
85512W        W57238   8.912  44.866  11.803
85513W        W57239  10.366  16.919   3.246
85514W        W57240  40.820  38.498  13.115
85515W        W57241  39.866  39.352  10.730
85516W        W57242  22.731   1.330  13.348
85517W        W57243  25.025  39.006  14.117
85518W        W57244   6.832  26.234  10.927
85519W        W57245   4.772  26.612  14.471
85520W        W57246   2.199  41.284   0.714
85521W        W57247  10.040  34.498  11.899
85522W        W57248  36.734   7.607   0.822
85523W        W57249  30.708  21.120   1.158
85524W        W57250  21.015   8.561  11.100
85525W        W57251  25.043  11.198   4.666
85526W        W57252  44.872   0.070  10.440
85527W        W57253   4.849  19.508   0.008
85528W        W57254   5.139  39.961  13.049
85529W        W57255  10.735   3.881   1.231
85530W        W57256  23.795  17.070   4.138
85531W        W57257  39.962   8.184  12.429
85532W        W57258   6.805  35.456   4.865
85533W        W57259  10.876  35.079   2.843
85534W        W57260  35.523  10.914  14.976
85535W        W57261  30.647  23.957   1.243
85536W        W57262  18.999   1.562  13.460
85537W        W57263  30.231  27.817  12.039
85538W        W57264  43.170  28.925  11.962
85539W        W57265   4.068   3.550  12.001
85540W        W57266   1.748  24.124   4.278
85541W        W57267  22.467  32.833  14.380
85542W        W57268  28.060   7.168  10.695
85543W        W57269  12.091   6.744  14.708
85544W        W57270  40.486  17.718   0.975
85545W        W57271   2.263  36.726   2.843
85546W        W57272  20.797  36.537   4.754
85547W        W57273  40.701  35.911   3.797
85548W        W57274  15.626   0.436   0.340
85549W        W57275  39.592  26.648  11.642
85550W        W57276  34.938   6.010  13.614
85551W        W57277   0.995   2.002   5.072
85552W        W57278  30.492   4.414   0.495
85553W        W57279   9.111   5.920   1.446
85554W        W57280  26.799  11.748   5.195
85555W        W57281  19.083  34.984   1.931
85556W        W57282   3.555  10.887  12.296
85557W        W57283  29.147  37.342   3.932
85558W        W57284  43.068  18.607  12.497
85559W        W57285  14.681   8.816  12.550
85560W        W57286  37.596  34.987   5.193
85561W        W57287   4.926  36.966   1.826
85562W        W57288   1.902  24.739   1.338
85563W        W57289  27.014   5.022  10.381
85564W        W57290  42.809  15.574  11.154
85565W        W57291  40.443  21.552  11.693
85566W        W57292   5.809  25.587   4.424
85567W        W57293  22.267  11.610  13.463
85568W        W57294  27.490  44.340   1.960
85569W        W57295  22.353  17.248  11.997
85570W        W57296  42.279  40.042  11.733
85571W        W57297   6.389  40.330   4.494
85572W        W57298  17.850  42.803  12.122
85573W        W57299  33.059  13.584   4.826
85574W        W57300  14.034   5.647  12.599
85575W        W57301   1.376  15.053  10.731
85576W        W57302  38.471  12.924  12.477
85577W        W57303   3.438  10.386   4.111
85578W        W57304  41.396  44.848  12.293
85579W        W57305   1.936  21.142  12.500
85580W        W57306  18.002  26.483   2.303
85581W        W57307   4.582  21.546   5.060
85582W        W57308  25.663  43.349   2.243
85583W        W57309  42.089   9.088  12.582
85584W        W57310   6.359  39.089  14.446
85585W        W57311  16.472  31.514   1.294
85586W        W57312  28.004  40.581   1.166
85587W        W57313   9.810   0.321  10.742
85588W        W57314   6.265  42.715  13.476
85589W        W57315  20.537  21.947  12.904
85590W        W57316  25.498  12.642  12.959
85591W        W57317  22.688   8.303   2.815
85592W        W57318  18.504  30.640   3.559
85593W        W57319  29.310  20.749  13.882
85594W        W57320  10.407   1.320  11.156
85595W        W57321  39.047  15.529   4.576
85596W        W57322  39.039  31.615   3.316
85597W        W57323  41.655  44.555  12.635
85598W        W57324  13.458  20.643   3.295
85599W        W57325  29.950  26.606  12.952
85600W        W57326  17.457  33.099  10.694
85601W        W57327  21.148   9.296   4.815
85602W        W57328  41.769  12.253   1.306
85603W        W57329   0.800  37.512  10.721
85604W        W57330  28.761  39.534   3.402
85605W        W57331  35.169  39.796  12.653
85606W        W57332  21.750   9.585   3.361
85607W        W57333   0.909   4.694  10.683
85608W        W57334  18.455  15.617   0.427
85609W        W57335   2.519  33.995   1.888
85610W        W57336  37.844  31.032   0.905
85611W        W57337   6.255  16.322   0.821
85612W        W57338  38.321  41.604  13.777
85613W        W57339  12.172   5.255  13.723
85614W        W57340  13.518  43.423  14.527
85615W        W57341  25.223  23.500   1.895
85616W        W57342   6.982  42.782   0.849
85617W        W57343  22.129  44.857  11.163
85618W        W57344   7.235  16.239  12.568
85619W        W57345   0.329   1.885  11.170
85620W        W57346  28.692  14.717  11.093
85621W        W57347  39.572  24.851  13.019
85622W        W57348  10.700  28.598   1.392
85623W        W57349  12.541  37.470  14.057
85624W        W57350  43.928  23.554   3.259
85625W        W57351  32.365   7.461  13.493
85626W        W57352  39.766  37.403   4.151
85627W        W57353  14.344  32.441  14.826
85628W        W57354  39.913   3.736  11.242
85629W        W57355  43.756  30.686  14.985
85630W        W57356  10.677  11.680   3.254
85631W        W57357  34.801   7.217   0.317
85632W        W57358   4.408  29.638   2.874
85633W        W57359  30.420  24.551  12.412
85634W        W57360   5.117   7.393   2.374
85635W        W57361  27.554  19.056   0.854
85636W        W57362  31.261  43.952   9.915
85637W        W57363  11.903  39.926   0.284
85638W        W57364  24.121  19.031   1.706
85639W        W57365  16.649  35.897   1.242
85640W        W57366   5.719   5.659  13.060
85641W        W57367   0.980  32.028   1.237
85642W        W57368  11.673  35.827  14.687
85643W        W57369  29.343  24.795  11.416
85644W        W57370  10.650  41.255  13.511
85645W        W57371  36.332  37.983   3.285
85646W        W57372   8.714  11.112  12.637
85647W        W57373  37.083  23.139  11.680
85648W        W57374   8.108  34.299  10.008
85649W        W57375  13.248  15.885   2.382
85650W        W57376  29.188   0.782  11.109
85651W        W57377  28.495  16.517  11.162
85652W        W57378  35.979  32.555  14.775
85653W        W57379  34.944  11.683  13.082
85654W        W57380  26.360  36.992   4.037
85655W        W57381  13.776   2.666  11.996
85656W        W57382  32.246  33.495   3.713
85657W        W57383  41.096  41.821  12.130
85658W        W57384  21.133  32.585   4.535
85659W        W57385  37.576  10.868  11.375
85660W        W57386   5.315  17.038   4.102
85661W        W57387  40.346  39.508   0.182
85662W        W57388  19.272  39.237  10.935
85663W        W57389  25.904  22.772  10.798
85664W        W57390  28.604  42.873   1.663
85665W        W57391  38.948  32.990   3.081
85666W        W57392  17.636  39.051  13.392
85667W        W57393   2.352   5.793   2.394
85668W        W57394  35.043   7.387  14.868
85669W        W57395   9.677  34.386   4.585
85670W        W57396   7.277   0.991  13.655
85671W        W57397  17.025  33.342  13.477
85672W        W57398   8.128  25.844   2.785
85673W        W57399  30.382  40.289   2.379
85674W        W57400  34.366   2.366   4.640
85675W        W57401  10.139  25.990   3.052
85676W        W57402  21.509  43.926  10.644
85677W        W57403  14.831  18.700  13.004
85678W        W57404  20.928  16.874  13.567
85679W        W57405  36.933  12.761   2.249
85680W        W57406  14.194  41.010  13.493
85681W        W57407   5.710   4.613   0.741
85682W        W57408  28.969   6.791   4.343
85683W        W57409   9.650  32.922  13.923
85684W        W57410  14.902  32.608   2.295
85685W        W57411   8.490  38.272  12.433
85686W        W57412  20.161   8.778   2.128
85687W        W57413  25.596  32.884  13.484
85688W        W57414   2.043  40.084   3.171
85689W        W57415   7.191   8.833   0.284
85690W        W57416  35.394  14.725  11.391
85691W        W57417  42.550  26.206  11.066
85692W        W57418  30.571  34.802   4.572
85693W        W57419  14.113  43.845   0.757
85694W        W57420   0.744   1.938   3.243
85695W        W57421  37.412   7.450  13.888
85696W        W57422  36.561  10.392   4.135
85697W        W57423  40.499  18.280  14.801
85698W        W57424  25.084  17.765   4.646
85699W        W57425  20.192   1.339  10.853
85700W        W57426   5.396   6.292   4.626
85701W        W57427   8.872  18.578   2.394
85702W        W57428  26.107   0.721  11.665
85703W        W57429  19.439  36.615   3.314
85704W        W57430  19.017  34.300  11.430
85705W        W57431   6.326  40.925   1.305
85706W        W57432  38.820  24.971   3.818
85707W        W57433  14.217  21.463   3.261
85708W        W57434   2.991  14.289   4.963
85709W        W57435  23.637  23.184  14.467
85710W        W57436   9.407  24.253   2.241
85711W        W57437  24.127  23.737  12.472
85712W        W57438  42.527  35.808  13.448
85713W        W57439  39.975   5.233   1.039
85714W        W57440  19.997  41.048  11.953
85715W        W57441   2.552   5.274  11.153
85716W        W57442  29.943   8.912   4.491
85717W        W57443  41.439  41.039  14.517
85718W        W57444   4.833  13.606   1.481
85719W        W57445  20.546  19.009  13.355
85720W        W57446  11.764  22.163   4.138
85721W        W57447   0.287   2.403  14.973
85722W        W57448  38.011  15.373  11.847
85723W        W57449  25.217  25.236   0.768
85724W        W57450  38.884  31.538   2.281
85725W        W57451  22.509  25.185  12.407
85726W        W57452  33.092  24.927  11.908
85727W        W57453  19.676  19.526  12.452
85728W        W57454   6.436   1.959  13.614
85729W        W57455  30.089  35.582  14.790
85730W        W57456  37.793  29.983   2.465
85731W        W57457  28.350  27.505  13.795
85732W        W57458  40.623   6.420  12.646
85733W        W57459  40.579  29.989   4.193
85734W        W57460   4.513  29.429   1.770
85735W        W57461  24.950  44.016  10.279
85736W        W57462  38.579  24.139   2.330
85737W        W57463   0.910  13.626  14.073
85738W        W57464  43.942  16.063  11.535
85739W        W57465  17.013  16.079  12.076
85740W        W57466   3.016  14.572   2.666
85741W        W57467  26.622  16.724   4.044
85742W        W57468  11.187   4.241  10.598
85743W        W57469   8.744  22.567   2.764
85744W        W57470  35.912  40.924  12.009
85745W        W57471  24.425  38.039   2.816
85746W        W57472  31.354   4.215  11.169
85747W        W57473  24.572  18.464   2.310
85748W        W57474  23.147  36.582  13.341
85749W        W57475  20.024  17.648   3.113
85750W        W57476   9.709   9.872  11.935
85751W        W57477  24.256  27.412   1.921
85752W        W57478  27.353   6.531   3.729
85753W        W57479  17.290  11.797   3.270
85754W        W57480  21.688  23.288   4.705
85755W        W57481  13.980  12.249   4.076
85756W        W57482  21.290  39.184  13.068
85757W        W57483  36.955  12.273   1.355
85758W        W57484  34.154  13.512  12.327
85759W        W57485  29.560  40.405  10.639
85760W        W57486   3.330   8.226  11.179
85761W        W57487  31.562  17.006   2.750
85762W        W57488  17.252  18.615  14.974
85763W        W57489  16.161   0.878   3.292
85764W        W57490  18.962  22.417   2.201
85765W        W57491  42.096  14.443  14.874
85766W        W57492  11.146   1.304  13.328
85767W        W57493  27.058   4.370   1.665
85768W        W57494  44.032  39.838  13.139
85769W        W57495   4.269  28.213   1.329
85770W        W57496  15.962  34.895  14.947
85771W        W57497  24.417   8.272  12.044
85772W        W57498  35.059  29.987   0.918
85773W        W57499  40.430   8.451  11.828
85774W        W57500  37.722  12.804   3.686
85775W        W57501  29.047  13.065   1.869
85776W        W57502  36.799  21.243   1.886
85777W        W57503  34.393  34.972   0.213
85778W        W57504  14.661  36.364  13.325
85779W        W57505  38.535  10.698  11.338
85780W        W57506  24.275   3.514   3.405
85781W        W57507  33.654  33.823   0.436
85782W        W57508  24.651   7.207   1.332
85783W        W57509   4.815   0.701   4.136
85784W        W57510   7.001  12.883   3.148
85785W        W57511   0.744   2.768   3.080
85786W        W57512   5.872  23.158   4.499
85787W        W57513  39.305  14.103  14.840
85788W        W57514   8.801  26.113  10.502
85789W        W57515  34.377   1.459  10.704
85790W        W57516   2.259  29.886   0.167
85791W        W57517  19.014   5.888   2.780
85792W        W57518   8.229   4.752  13.472
85793W        W57519  18.762  26.941  14.786
85794W        W57520  33.193  37.502   1.894
85795W        W57521  36.000   5.448  13.365
85796W        W57522  42.765  40.291  10.624
85797W        W57523   9.222  19.337   3.841
85798W        W57524  10.762  28.488  13.394
85799W        W57525  29.043  44.931   1.729
85800W        W57526  17.310   8.826   1.717
85801W        W57527  44.868   6.219  13.267
85802W        W57528  35.902   0.058  12.014
85803W        W57529  26.218   9.134   1.498
85804W        W57530  35.500  31.086   0.370
85805W        W57531  20.566  43.380   1.348
85806W        W57532  28.178  43.357  12.369
85807W        W57533  23.528   0.244  14.591
85808W        W57534  37.945  16.273   1.287
85809W        W57535  43.244  10.698  12.056
85810W        W57536  44.462  28.162  10.250
85811W        W57537  27.428  11.142   3.755
85812W        W57538  40.494   4.160   1.296
85813W        W57539  17.112  19.489   3.694
85814W        W57540  28.833  32.170   4.225
85815W        W57541   4.094   7.463  10.069
85816W        W57542  41.824  33.918   4.762
85817W        W57543  39.681  40.887  13.470
85818W        W57544  26.936   4.382  12.004
85819W        W57545  39.962   0.879  13.430
85820W        W57546  11.677  35.095   3.979
85821W        W57547  37.382   1.903   4.564
85822W        W57548  11.121  23.175   2.719
85823W        W57549  43.474  39.877   2.608
85824W        W57550  12.217  16.217   0.885
85825W        W57551  24.768  12.948   2.727
85826W        W57552  22.081  25.760   0.038
85827W        W57553  12.702  33.700   2.719
85828W        W57554   8.216  11.253   2.265
85829W        W57555   9.963  26.412   1.244
85830W        W57556   4.159  43.973  12.840
85831W        W57557   0.548   3.287  13.021
85832W        W57558   6.572  39.767  11.072
85833W        W57559  15.501  33.439  10.933
85834W        W57560  42.008  20.057   3.594
85835W        W57561   1.699  20.235  13.948
85836W        W57562  21.240  42.410   2.822
85837W        W57563   8.548  31.474  13.900
85838W        W57564   4.860  42.796  13.959
85839W        W57565  33.861  29.423   1.224
85840W        W57566  44.218   9.182  14.917
85841W        W57567  35.400  39.746  10.392
85842W        W57568  37.469  20.844  11.451
85843W        W57569   5.184  14.112  11.998
85844W        W57570  33.555  29.519  12.634
85845W        W57571  38.022  37.884  10.705
85846W        W57572  39.020  14.285   2.226
85847W        W57573  37.882  20.054  10.651
85848W        W57574  12.596  30.111   1.354
85849W        W57575  39.524  35.903  14.038
85850W        W57576  43.855  28.515   2.588
85851W        W57577  42.533  20.259   0.943
85852W        W57578   0.504  37.537  11.116
85853W        W57579  31.350  13.589  13.331
85854W        W57580  39.779  37.031  14.266
85855W        W57581  34.698   3.337  11.193
85856W        W57582  37.585  13.427   4.394
85857W        W57583  12.182  13.712   4.199
85858W        W57584  28.814  42.014  10.676
85859W        W57585   2.546  26.411  13.576
85860W        W57586  42.384  19.149  12.758
85861W        W57587  43.434  23.747   1.738
85862W        W57588  27.160   5.928  12.086
85863W        W57589  15.730  16.054  13.952
85864W        W57590   7.604  17.179  14.808
85865W        W57591   8.993  15.081   0.032
85866W        W57592  24.178  27.983   0.929
85867W        W57593  23.639  11.621  14.733
85868W        W57594  34.648   8.901  13.790
85869W        W57595  16.773  44.990  12.429
85870W        W57596  14.813  32.414  10.338
85871W        W57597  35.972   9.778   4.606
85872W        W57598  38.956  13.148  12.541
85873W        W57599   2.374   2.873  12.173
85874W        W57600  40.162  22.717   1.993
85875W        W57601  39.441  44.266  11.641
85876W        W57602  23.486  25.138   1.832
85877W        W57603  37.014  26.904   4.069
85878W        W57604  38.242  28.409  11.042
85879W        W57605  33.963  22.693   4.749
85880W        W57606  10.677  40.258  12.440
85881W        W57607  33.068  29.966  13.096
85882W        W57608  23.867  43.778  14.359
85883W        W57609  24.103  40.496   1.704
85884W        W57610  28.628  31.052  11.160
85885W        W57611   4.167  18.024   2.180
85886W        W57612  14.746  34.942   0.912
85887W        W57613  17.846  42.056  13.222
85888W        W57614  12.448  20.054   4.166
85889W        W57615  40.423  42.321   3.747
85890W        W57616   4.351  40.454  13.816
85891W        W57617  10.294  43.183   1.538
85892W        W57618  29.753  22.606   2.590
85893W        W57619  39.434  27.271  10.639
85894W        W57620  32.582  40.310   4.971
85895W        W57621   9.191  43.376   1.135
85896W        W57622  31.156  21.965  14.810
85897W        W57623  15.045   7.671   0.879
85898W        W57624  14.606   0.280   2.287
85899W        W57625  11.595  24.017  13.875
85900W        W57626  27.706  22.176   4.584
85901W        W57627  26.779   1.162   2.236
85902W        W57628  41.863  19.549  11.676
85903W        W57629  12.217  12.122  13.280
85904W        W57630   4.030  37.236  11.974
85905W        W57631   5.649  44.984   4.141
85906W        W57632  26.766  17.650  12.113
85907W        W57633  22.052  22.019   3.594
85908W        W57634  17.627  10.238  14.241
85909W        W57635  29.612  38.289   0.377
85910W        W57636  16.656  43.878  11.609
85911W        W57637  36.501  29.108  11.132
85912W        W57638  28.053   8.156  11.916
85913W        W57639  22.648   5.794  12.903
85914W        W57640  37.604  42.154   0.876
85915W        W57641   6.469  23.250   1.873
85916W        W57642  36.313  15.324  12.382
85917W        W57643  33.408   3.020   0.966
85918W        W57644  17.294   3.338   4.110
85919W        W57645  37.422  26.650  11.412
85920W        W57646  42.001  33.628   2.759
85921W        W57647  28.344   9.623   1.706
85922W        W57648   4.318  42.409   2.969
85923W        W57649   8.767  27.877   2.355
85924W        W57650   9.911  38.559  13.021
85925W        W57651  35.946  26.547  13.550
85926W        W57652  30.579  27.417  14.042
85927W        W57653  40.483  18.686   3.411
85928W        W57654  32.500  26.204  11.226
85929W        W57655  43.041  10.609   1.824
85930W        W57656  22.197  14.291  12.471
85931W        W57657  44.065  19.815   0.888
85932W        W57658  24.014  12.120   3.782
85933W        W57659  41.499  29.703  13.947
85934W        W57660  44.691  21.170   4.841
85935W        W57661  43.555  17.505  10.971
85936W        W57662  18.306   9.382  11.728
85937W        W57663  39.380   1.931  10.627
85938W        W57664   2.118  32.522  10.642
85939W        W57665  15.714   2.409   1.242
85940W        W57666   3.348  22.191   4.149
85941W        W57667  40.495  28.936   4.578
85942W        W57668  10.750  33.702   9.671
85943W        W57669  41.902  26.188  12.459
85944W        W57670   9.071  20.726  10.400
85945W        W57671  10.615  24.299   1.092
85946W        W57672  32.352  33.796  13.908
85947W        W57673  22.092   6.165   3.734
85948W        W57674  27.246  36.071  11.964
85949W        W57675  17.271  17.098   2.801
85950W        W57676   5.739  14.108   2.658
85951W        W57677  35.425  37.934   2.367
85952W        W57678  33.496  34.609  14.929
85953W        W57679  38.327  19.152   4.729
85954W        W57680  13.203  39.294  10.675
85955W        W57681  41.213  25.407  12.614
85956W        W57682  44.448  29.635  13.924
85957W        W57683  34.467  16.628  12.119
85958W        W57684  39.958  35.593  14.022
85959W        W57685   6.374  29.707   0.430
85960W        W57686   2.208  33.879   3.791
85961W        W57687   1.649  23.026   1.357
85962W        W57688  32.507  19.729   2.863
85963W        W57689  16.133  15.414   4.110
85964W        W57690  16.212  19.640  12.365
85965W        W57691  16.545  12.728  13.417
85966W        W57692  15.995  21.559  13.183
85967W        W57693  41.309  17.454   0.923
85968W        W57694  29.897  42.481  12.071
85969W        W57695   3.236   8.817  12.524
85970W        W57696  44.245   1.432   4.092
85971W        W57697  31.007  38.424   4.707
85972W        W57698  40.871   5.793  11.912
85973W        W57699  12.958  22.731  14.159
85974W        W57700  13.671  29.088   4.172
85975W        W57701   4.414   6.501  11.517
85976W        W57702  37.906  33.268  12.594
85977W        W57703  16.909  15.718   3.184
85978W        W57704  29.137   5.636  14.857
85979W        W57705   7.088   0.954  10.500
85980W        W57706  35.558  13.789  13.379
85981W        W57707  20.165  10.078   2.853
85982W        W57708  16.286  29.226  12.566
85983W        W57709  32.888   5.885   1.939
85984W        W57710  35.862   7.321   3.737
85985W        W57711  19.295   5.958   3.239
85986W        W57712  27.753  29.048  12.886
85987W        W57713  13.865  24.179  10.697
85988W        W57714  44.891  25.538   3.449
85989W        W57715  20.318   7.639   3.838
85990W        W57716  20.099   9.157  10.612
85991W        W57717  28.049   4.808   1.940
85992W        W57718  40.839   3.721  10.761
85993W        W57719  36.552  41.000   1.436
85994W        W57720  30.598  26.756  12.142
85995W        W57721  31.551  43.506   3.804
85996W        W57722  19.863  14.178   0.032
85997W        W57723  14.574  30.021   0.065
85998W        W57724   9.234  44.474   5.340
85999W        W57725  24.523  23.023   3.809
86000W        W57726  18.596  28.394  11.372
86001W        W57727  33.232  14.208  11.425
86002W        W57728  20.071  18.219  11.741
86003W        W57729   7.200  29.932  14.085
86004W        W57730  44.550  23.644   4.694
86005W        W57731  26.708  40.041   4.223
86006W        W57732  44.450  15.654  10.712
86007W        W57733  21.086  11.420   3.591
86008W        W57734  29.547  11.606   4.858
86009W        W57735  37.838  25.978   0.006
86010W        W57736  26.201  16.836   2.208
86011W        W57737  30.580  32.994   3.793
86012W        W57738  23.109  20.646  12.821
86013W        W57739  27.466  32.056   3.881
86014W        W57740  10.463  32.483   2.063
86015W        W57741  29.204  38.651   0.368
86016W        W57742  10.960   6.284   4.136
86017W        W57743  39.422  30.985  11.426
86018W        W57744  11.659  33.662  12.597
86019W        W57745  26.967  17.048   2.312
86020W        W57746   0.817   8.227  12.619
86021W        W57747  25.522  18.163   4.063
86022W        W57748  44.973  15.184   2.390
86023W        W57749  39.515   5.349  13.204
86024W        W57750   3.268  17.604  12.112
86025W        W57751   8.670  44.228  13.196
86026W        W57752   0.411  20.357   3.755
86027W        W57753   7.939  20.668  10.987
86028W        W57754  32.862  10.674  12.025
86029W        W57755   6.708   1.590   1.642
86030W        W57756  22.699  41.551   4.181
86031W        W57757  17.977  11.099  11.261
86032W        W57758  12.729  39.815   0.847
86033W        W57759  24.133  31.303  14.383
86034W        W57760   3.688  14.563  14.871
86035W        W57761  12.344  21.306  10.644
86036W        W57762  27.267   5.992   0.876
86037W        W57763   9.759   8.717   1.397
86038W        W57764  22.159   2.887   3.331
86039W        W57765  14.633  41.003  12.501
86040W        W57766  15.701   7.818  13.825
86041W        W57767  20.550  11.539  10.674
86042W        W57768   0.534   3.673   1.691
86043W        W57769  28.466  15.123  12.342
86044W        W57770   1.484  34.743   0.820
86045W        W57771  26.319  29.211   1.857
86046W        W57772  30.784  24.539   3.407
86047W        W57773  15.384  31.001  14.682
86048W        W57774  17.147  24.555   9.893
86049W        W57775  30.759  37.944   4.700
86050W        W57776  30.956   5.610  11.985
86051W        W57777  26.415  24.691  10.528
86052W        W57778   1.658  12.210  13.445
86053W        W57779   9.197  36.563  13.557
86054W        W57780  13.388  38.392  12.962
86055W        W57781  29.632  30.153  12.899
86056W        W57782  18.756  40.603  12.901
86057W        W57783  25.078  11.668   4.149
86058W        W57784  19.244  15.533   3.144
86059W        W57785  43.300  19.506   2.858
86060W        W57786  20.640   5.012   4.107
86061W        W57787  25.025   4.862   1.374
86062W        W57788  29.229  44.977   3.116
86063W        W57789  12.652   5.187  13.940
86064W        W57790  24.472   4.710  11.522
86065W        W57791  36.053  29.455   1.657
86066W        W57792  14.018  22.664   2.879
86067W        W57793  28.030  26.238   2.730
86068W        W57794   5.372  15.713   5.243
86069W        W57795   0.858  12.887   4.755
86070W        W57796  30.588  30.872   3.718
86071W        W57797  30.064  44.835   4.564
86072W        W57798   3.218   8.580   0.441
86073W        W57799  10.334  38.879   2.782
86074W        W57800  34.836  32.674   1.711
86075W        W57801   2.914  32.454   2.632
86076W        W57802  20.560  42.905   4.372
86077W        W57803   7.060  37.392   0.806
86078W        W57804  28.177  34.491   0.360
86079W        W57805  30.446  21.861  12.176
86080W        W57806   4.750  35.911   3.335
86081W        W57807  10.085   5.233   1.318
86082W        W57808  43.582  15.606  14.683
86083W        W57809  27.742  26.180  14.870
86084W        W57810   5.831  37.014  11.142
86085W        W57811  12.119  13.832   2.270
86086W        W57812  27.953  18.167  12.995
86087W        W57813  16.899  35.333   0.230
86088W        W57814  43.810  26.576  12.422
86089W        W57815  11.324  11.615  14.743
86090W        W57816  11.841  34.648   0.047
86091W        W57817  28.691   8.382   3.329
86092W        W57818  39.256   4.993  12.904
86093W        W57819   5.859  26.828  12.160
86094W        W57820   4.752   9.123   0.381
86095W        W57821  43.463   9.844  12.375
86096W        W57822   4.513  23.265   0.312
86097W        W57823  37.263  31.605   4.839
86098W        W57824  19.572  44.907   2.783
86099W        W57825  14.334  17.440  14.055
86100W        W57826  42.743  37.464  11.073
86101W        W57827  22.474  21.819   0.949
86102W        W57828   5.716  20.204  14.829
86103W        W57829  18.883  16.754   1.334
86104W        W57830  10.124   2.234  13.505
86105W        W57831  14.631  34.866   1.523
86106W        W57832  41.019  26.664   1.965
86107W        W57833  40.778  28.016   1.318
86108W        W57834  44.426  39.584   1.800
86109W        W57835  37.052  19.794  11.051
86110W        W57836  41.483  33.592  11.713
86111W        W57837  38.103  23.933   2.340
86112W        W57838  33.435  35.089  14.496
86113W        W57839  20.672  31.170  14.954
86114W        W57840  24.780   0.007   3.380
86115W        W57841  21.957   9.713  10.937
86116W        W57842  44.013  17.941  12.637
86117W        W57843  11.384  18.767  11.127
86118W        W57844  32.175  41.712   3.300
86119W        W57845  24.563   7.894  11.731
86120W        W57846  39.387  36.477   2.196
86121W        W57847  19.066  14.043  13.039
86122W        W57848  24.704  27.991   1.346
86123W        W57849  24.718  24.258   3.930
86124W        W57850  20.407   4.433  11.177
86125W        W57851  35.953  16.860  13.965
86126W        W57852  18.487  38.061  14.348
86127W        W57853   4.920  24.515   4.547
86128W        W57854  41.087  28.666   3.574
86129W        W57855  42.889  32.993  10.414
86130W        W57856   8.134  37.139   0.438
86131W        W57857   2.993   9.920   1.533
86132W        W57858   1.822  40.348  11.494
86133W        W57859  32.646  15.752  13.493
86134W        W57860  42.015  44.607   1.694
86135W        W57861  18.786  26.635   0.774
86136W        W57862  20.611  18.543  12.501
86137W        W57863  21.159  12.362   0.174
86138W        W57864  16.019  16.849   1.063
86139W        W57865  30.625  37.162  13.515
86140W        W57866  30.239   2.453   3.788
86141W        W57867  43.974  35.048  12.606
86142W        W57868   7.198  22.553  13.077
86143W        W57869  19.630   3.009   1.770
86144W        W57870  25.055  14.384   4.331
86145W        W57871  31.398  26.613  13.424
86146W        W57872  35.380  13.507  11.635
86147W        W57873  38.828  37.776   3.756
86148W        W57874  30.087  38.651   0.772
86149W        W57875  19.909  10.185  13.825
86150W        W57876   0.475   5.908   1.814
86151W        W57877  22.083  14.166   4.922
86152W        W57878  41.303  32.878  11.181
86153W        W57879  13.082  30.119   3.219
86154W        W57880  14.745  32.212  10.804
86155W        W57881  21.628  37.003   3.193
86156W        W57882  31.637  30.424   3.470
86157W        W57883  35.446   3.432   1.367
86158W        W57884  42.605  42.164  13.892
86159W        W57885  31.469  19.417   0.566
86160W        W57886  36.121  21.885  14.170
86161W        W57887  18.533  30.978   1.806
86162W        W57888  18.221  19.613  10.684
86163W        W57889  29.144  44.314   4.651
86164W        W57890   1.109  38.756   4.481
86165W        W57891   0.898   4.066   3.467
86166W        W57892  13.602  34.465  13.384
86167W        W57893  26.746  33.911  10.723
86168W        W57894  44.200  30.935   2.169
86169W        W57895  38.825  42.837  14.706
86170W        W57896  19.315  17.733  11.565
86171W        W57897  44.533  12.202   1.293
86172W        W57898  32.661  30.512   0.990
86173W        W57899  22.606   4.468  11.888
86174W        W57900  12.188  16.682  13.342
86175W        W57901  24.427  24.663   4.097
86176W        W57902  15.176   0.255  14.559
86177W        W57903   0.879  42.738  10.844
86178W        W57904  27.006  33.084  13.407
86179W        W57905  35.506  20.691   0.407
86180W        W57906  38.434   1.434  13.845
86181W        W57907  15.086  10.037   1.869
86182W        W57908  37.091  19.297  14.298
86183W        W57909   9.845  39.000   1.456
86184W        W57910  18.266   4.296  14.980
86185W        W57911  27.684   5.416  14.907
86186W        W57912   6.240   0.779   2.481
86187W        W57913   7.721  24.669  13.839
86188W        W57914  28.070  30.350   4.594
86189W        W57915  20.551   3.042  11.897
86190W        W57916   9.087  38.930  14.869
86191W        W57917  11.233  38.305   4.187
86192W        W57918  14.789   7.603  12.990
86193W        W57919  25.713  21.292   4.119
86194W        W57920   5.975  19.747  14.870
86195W        W57921  27.141  15.320   0.382
86196W        W57922  34.509  39.928   1.339
86197W        W57923  31.209  41.041   2.663
86198W        W57924  44.843  32.583  11.979
86199W        W57925  13.821  42.957  12.546
86200W        W57926  34.431  22.972  12.240
86201W        W57927  31.392  11.139   2.253
86202W        W57928   5.634   8.845  14.972
86203W        W57929  22.822  29.118  12.600
86204W        W57930  40.330   7.446   3.713
86205W        W57931  44.399  27.353  10.826
86206W        W57932   3.401  15.886  12.415
86207W        W57933  38.332  41.958   0.258
86208W        W57934  11.328  38.259   0.399
86209W        W57935  35.318  14.664  11.889
86210W        W57936  12.987   3.903   1.522
86211W        W57937  24.133  25.798   1.852
86212W        W57938  44.879  18.271  13.472
86213W        W57939  42.257  31.152  12.541
86214W        W57940  44.034  27.540  11.544
86215W        W57941  33.098  15.778  14.451
86216W        W57942  27.593  39.969   4.811
86217W        W57943  36.824  34.773  14.769
86218W        W57944  24.294  29.192  14.342
86219W        W57945  25.152  33.826  10.565
86220W        W57946   0.474  28.637   4.539
86221W        W57947  25.500  10.740   2.765
86222W        W57948  21.191  27.584  12.251
86223W        W57949  13.443   2.057   4.492
86224W        W57950  21.597  28.186  10.044
86225W        W57951  31.460  29.073   1.351
86226W        W57952  24.641   0.927   0.265
86227W        W57953  26.552  17.055   0.396
86228W        W57954  35.177   9.632  14.289
86229W        W57955  15.688  42.170  11.914
86230W        W57956  38.848  42.938  10.746
86231W        W57957  22.413  13.245   2.695
86232W        W57958  23.640  23.482  13.402
86233W        W57959  26.740   0.017   4.144
86234W        W57960  42.093   3.509  10.885
86235W        W57961  25.931  28.277   4.614
86236W        W57962   7.269  25.763   4.682
86237W        W57963  40.046  13.115  12.483
86238W        W57964   6.056  40.303  10.161
86239W        W57965   4.269   6.747  12.507
86240W        W57966  23.287  12.309   2.386
86241W        W57967  30.764  19.795  14.334
86242W        W57968  18.810   6.661   1.795
86243W        W57969  17.189   6.306  10.662
86244W        W57970   4.794   2.262  10.634
86245W        W57971  13.516  27.461   0.410
86246W        W57972  26.608  26.028  11.277
86247W        W57973   6.803   2.710   4.512
86248W        W57974   3.640  15.757  11.991
86249W        W57975  42.497   9.956   1.618
86250W        W57976  28.026  18.287   1.749
86251W        W57977   9.789  27.013  11.486
86252W        W57978  16.049  17.345   4.084
86253W        W57979  13.294  42.962  12.601
86254W        W57980   4.811  25.290  11.988
86255W        W57981  12.846   1.087  11.075
86256W        W57982  43.290   9.234   4.380
86257W        W57983  23.479  22.657   4.229
86258W        W57984  27.089  31.869   4.679
86259W        W57985  37.331  28.658   4.706
86260W        W57986  44.630  25.399   4.444
86261W        W57987   8.832  29.941   2.204
86262W        W57988  36.663   0.694  10.746
86263W        W57989  28.367  12.684   0.391
86264W        W57990  32.711  36.978   1.380
86265W        W57991   4.651  30.941  14.235
86266W        W57992  19.578  11.176  12.949
86267W        W57993  21.529   1.482  11.921
86268W        W57994  30.377   6.906  12.600
86269W        W57995  27.987   3.717  10.533
86270W        W57996   9.556  43.587  14.456
86271W        W57997  21.721  24.973  14.224
86272W        W57998   0.308   2.247  13.494
86273W        W57999  38.985  32.941  10.711
86274W        W58000  22.726  30.484   0.721
86275W        W58001  17.895  22.813  11.176
86276W        W58002  38.124  34.684  11.384
86277W        W58003  27.422  12.700  13.024
86278W        W58004  17.173  28.408  10.911
86279W        W58005  14.642  26.699   2.116
86280W        W58006   4.322  36.337  14.170
86281W        W58007  42.309   6.289   2.469
86282W        W58008   2.215  16.317   1.641
86283W        W58009  10.449  21.184   2.760
86284W        W58010  37.639   7.871  10.524
86285W        W58011   9.238   7.731   0.199
86286W        W58012  11.740   5.221   3.928
86287W        W58013  22.048  31.900   4.105
86288W        W58014   0.808  20.696  12.180
86289W        W58015   1.711  12.299   1.793
86290W        W58016  13.868  11.261   4.724
86291W        W58017  22.531  25.166  11.520
86292W        W58018  14.322  20.567   4.142
86293W        W58019  25.054   2.372  13.533
86294W        W58020  35.466   8.360   3.751
86295W        W58021   4.162  18.464  10.743
86296W        W58022  16.236  33.687  14.541
86297W        W58023   3.168  39.949  13.831
86298W        W58024  11.193  22.226   2.865
86299W        W58025   1.390  28.533   4.260
86300W        W58026  32.152   3.796  12.437
86301W        W58027  33.828  43.920   4.634
86302W        W58028  10.156  22.470   4.162
86303W        W58029  20.586   9.852  11.230
86304W        W58030  36.818  43.022  14.251
86305W        W58031  32.970  36.092   2.800
86306W        W58032  38.354  41.736  14.271
86307W        W58033  35.114  15.546   0.360
86308W        W58034  23.590  17.848  10.400
86309W        W58035  34.013  27.367   0.812
86310W        W58036  21.588   9.229  14.490
86311W        W58037   1.930  30.608  13.600
86312W        W58038  15.809  39.018  13.527
86313W        W58039  33.123  26.988  13.452
86314W        W58040   6.099  12.736  13.731
86315W        W58041  19.221  38.331  10.998
86316W        W58042  42.801   1.043  14.741
86317W        W58043  36.308  14.867  12.936
86318W        W58044   0.695  22.452   1.885
86319W        W58045  35.136  25.703  14.269
86320W        W58046  30.539   4.935   0.559
86321W        W58047  35.046   7.428  12.155
86322W        W58048  33.375  39.078   4.364
86323W        W58049  44.137  12.483  11.996
86324W        W58050  14.204  39.553  13.796
86325W        W58051  28.967  25.233  10.118
86326W        W58052   8.114  10.446  12.046
86327W        W58053  19.391  35.860   4.513
86328W        W58054  15.269  33.123  11.288
86329W        W58055  35.843  35.353  14.194
86330W        W58056   5.238  11.681  10.932
86331W        W58057   7.913   7.055  12.897
86332W        W58058  19.355  28.933   3.808
86333W        W58059  11.087  11.954   2.658
86334W        W58060  36.451  25.104  13.158
86335W        W58061  17.840  18.610  11.752
86336W        W58062   5.473  11.074   0.085
86337W        W58063  35.727   6.813  12.144
86338W        W58064   0.881  42.541   2.363
86339W        W58065   1.267  11.332   0.931
86340W        W58066  42.372  36.026   1.938
86341W        W58067  19.696  13.327  12.186
86342W        W58068  10.279  43.857  11.746
86343W        W58069   2.342  29.537   1.428
86344W        W58070  30.940  41.591   0.333
86345W        W58071  33.811  34.352  11.107
86346W        W58072  38.177  31.392   1.769
86347W        W58073  27.137  19.593  10.717
86348W        W58074  17.369  44.083   4.051
86349W        W58075  18.333  15.513   3.159
86350W        W58076  19.220   9.903  14.902
86351W        W58077  22.682   7.587  13.563
86352W        W58078  23.548   1.268  14.202
86353W        W58079  40.962  23.010   0.852
86354W        W58080  44.930   6.992   1.070
86355W        W58081  35.434  23.092  14.022
86356W        W58082  10.420  10.839   2.450
86357W        W58083  24.506   3.725   2.928
86358W        W58084  40.017  32.276   2.620
86359W        W58085  29.217  13.633  11.469
86360W        W58086  41.022  28.310   3.196
86361W        W58087  18.759  32.950  13.050
86362W        W58088  26.192  23.189  10.735
86363W        W58089  39.428  41.379   4.468
86364W        W58090  38.595  35.406  12.639
86365W        W58091  35.754  42.986  10.707
86366W        W58092  14.172  31.352  14.809
86367W        W58093  23.278   7.673   2.384
86368W        W58094  26.913  25.980  10.625
86369W        W58095  32.028  10.752  10.238
86370W        W58096   5.659  14.268  13.423
86371W        W58097  22.043  24.182  11.586
86372W        W58098  27.221  32.826  11.556
86373W        W58099  37.681  30.485   2.337
86374W        W58100   5.679  34.051   2.675
86375W        W58101  28.052  40.088   2.886
86376W        W58102  35.849   4.761   1.524
86377W        W58103   9.222  41.876   3.610
86378W        W58104   5.089   6.370  14.451
86379W        W58105   1.190  24.192  12.973
86380W        W58106  21.937   5.992   0.782
86381W        W58107  34.866  34.940  12.207
86382W        W58108  15.261  18.625  14.761
86383W        W58109  12.742   5.463   0.426
86384W        W58110  15.599   7.142  12.421
86385W        W58111   3.433   2.798  14.620
86386W        W58112   7.638  30.057   0.601
86387W        W58113   4.241   0.252  11.278
86388W        W58114  22.088  25.385  11.121
86389W        W58115  40.499  44.764   3.182
86390W        W58116  29.511  23.564   1.692
86391W        W58117  13.709  39.888  11.151
86392W        W58118  38.395   3.205  14.364
86393W        W58119  41.575  25.443  10.657
86394W        W58120  37.345  29.111   3.749
86395W        W58121  11.199  24.034   9.754
86396W        W58122  40.288  18.240   1.775
86397W        W58123  26.000  11.685   4.172
86398W        W58124  32.234  31.884   3.867
86399W        W58125   4.268   8.335  11.005
86400W        W58126  32.288  27.372  12.053
86401W        W58127   1.007  20.173   4.518
86402W        W58128  16.572  27.099  13.940
86403W        W58129  41.547  36.382   0.427
86404W        W58130  17.165  40.544   3.018
86405W        W58131   5.281  15.612   0.141
86406W        W58132  40.352  36.682   0.978
86407W        W58133   9.700   5.989  10.600
86408W        W58134  23.705  23.690  11.163
86409W        W58135   2.361  11.182  14.137
86410W        W58136  40.041   0.259   2.273
86411W        W58137  11.556  40.371  12.678
86412W        W58138  36.531  38.835  12.615
86413W        W58139  26.643   5.454   1.791
86414W        W58140   4.662   9.613   4.311
86415W        W58141  21.604  25.699  13.346
86416W        W58142   1.792  31.492  13.113
86417W        W58143   5.027  27.800   1.755
86418W        W58144  28.981  22.512  13.075
86419W        W58145  11.499  33.905   4.705
86420W        W58146   0.963  10.910  12.894
86421W        W58147  23.251   1.143  11.599
86422W        W58148  19.015   1.909  12.173
86423W        W58149  19.720  36.119   1.427
86424W        W58150  13.707  25.698  14.233
86425W        W58151  25.004   9.909   0.986
86426W        W58152  37.785   2.418  12.469
86427W        W58153  11.724  23.574  11.083
86428W        W58154  35.327   9.259  10.958
86429W        W58155  43.465  36.331  10.628
86430W        W58156  18.764  32.956   4.237
86431W        W58157   4.972  25.272   4.322
86432W        W58158  19.157  21.769   0.655
86433W        W58159  15.158  16.792   2.907
86434W        W58160   7.267   7.446  11.551
86435W        W58161  15.139  19.248  11.655
86436W        W58162   7.655  13.239   4.791
86437W        W58163   8.324  27.180   3.603
86438W        W58164   4.862   3.035   0.798
86439W        W58165  43.385  28.060   0.951
86440W        W58166  26.040  10.428  13.937
86441W        W58167  11.271  13.323  13.555
86442W        W58168  25.049  44.890   0.238
86443W        W58169  40.979  41.268  14.494
86444W        W58170  41.768  40.436   0.766
86445W        W58171  25.886  17.232   4.139
86446W        W58172   6.344  14.307   1.854
86447W        W58173  14.669  35.203   4.207
86448W        W58174  11.309  38.764   3.282
86449W        W58175  40.741  10.141  10.712
86450W        W58176   5.966   6.969   4.630
86451W        W58177  13.316   6.263   2.241
86452W        W58178  21.678  27.678  12.402
86453W        W58179   4.291  20.780   1.720
86454W        W58180   1.335  24.181   3.725
86455W        W58181   2.153  27.359  14.076
86456W        W58182  35.328  38.582  12.709
86457W        W58183  36.854  17.170   2.168
86458W        W58184   7.434  16.835   0.285
86459W        W58185  16.018  25.474   3.689
86460W        W58186  32.362  42.322   0.240
86461W        W58187  44.522  33.130  13.743
86462W        W58188  12.781  40.272  14.899
86463W        W58189  44.559  14.006   2.857
86464W        W58190  29.119  38.915   2.874
86465W        W58191  24.937  12.970   0.816
86466W        W58192  37.671  34.476  11.330
86467W        W58193  19.948  44.457  11.631
86468W        W58194  28.726  27.530   0.894
86469W        W58195   2.925  39.998   0.420
86470W        W58196   6.642  24.113   1.163
86471W        W58197  36.302  24.165   1.831
86472W        W58198   1.533  40.135   3.251
86473W        W58199  37.631  14.941   4.752
86474W        W58200  20.053  19.312  14.856
86475W        W58201  12.994   0.779  10.584
86476W        W58202  12.612  20.179   1.364
86477W        W58203   3.854  42.914   1.235
86478W        W58204  18.175  43.237   0.863
86479W        W58205  11.531   6.386  13.982
86480W        W58206  16.684   6.597   3.615
86481W        W58207  28.940   5.886  14.448
86482W        W58208  29.608   8.328  10.651
86483W        W58209  19.189  22.727  11.013
86484W        W58210  34.036  32.366  13.362
86485W        W58211   9.714  27.549   2.157
86486W        W58212  27.732  36.576   2.356
86487W        W58213  22.261  15.395   3.777
86488W        W58214  42.953   4.234   3.255
86489W        W58215  18.022  15.865  10.750
86490W        W58216  39.314  12.111   1.693
86491W        W58217  32.656  34.163   1.976
86492W        W58218  14.105  34.871  12.594
86493W        W58219   4.942  44.265  13.854
86494W        W58220  35.638   6.441   1.396
86495W        W58221  28.918  27.879   1.269
86496W        W58222  40.831  18.498  12.830
86497W        W58223  43.394  26.660   4.140
86498W        W58224   3.709  34.810  14.761
86499W        W58225  24.269  37.723   1.837
86500W        W58226  16.211  28.487   1.000
86501W        W58227  36.067  10.198  14.957
86502W        W58228  41.555  41.993   1.713
86503W        W58229   6.204  44.202   2.796
86504W        W58230  17.285  21.983   1.863
86505W        W58231   2.407  10.734  14.417
86506W        W58232   4.985  12.186   2.367
86507W        W58233   9.309  31.352  14.307
86508W        W58234  32.972  41.027   1.739
86509W        W58235  33.321  29.367  13.616
86510W        W58236  23.416  30.277  12.328
86511W        W58237   7.739  21.696   4.539
86512W        W58238  23.585  19.830   3.792
86513W        W58239   1.479  27.958   2.728
86514W        W58240  29.531   4.008   2.883
86515W        W58241  31.153   0.264   3.127
86516W        W58242   1.272  18.255   5.113
86517W        W58243   2.500  18.791   2.752
86518W        W58244  42.392  25.050  14.342
86519W        W58245  36.209   2.734  11.059
86520W        W58246   8.291  26.120  14.293
86521W        W58247  40.100  44.872  13.908
86522W        W58248  43.602  28.722  14.328
86523W        W58249  23.807  27.629  11.160
86524W        W58250  16.315  43.851   0.433
86525W        W58251  23.489  28.700  13.005
86526W        W58252  23.009  41.750  12.526
86527W        W58253  33.086   7.459   4.553
86528W        W58254  11.170  20.858   1.808
86529W        W58255  37.345  40.452  12.014
86530W        W58256   8.934  32.630   3.150
86531W        W58257  10.744   6.791   0.852
86532W        W58258  21.958  15.194   3.410
86533W        W58259  39.934  22.160   3.139
86534W        W58260  31.102   0.382   1.671
86535W        W58261  10.834  29.288   0.769
86536W        W58262  27.242  22.618  13.596
86537W        W58263   4.984   8.763  14.564
86538W        W58264   0.496  27.032   4.191
86539W        W58265  44.730  32.452  10.983
86540W        W58266  40.683  23.455   0.897
86541W        W58267  13.101  32.885  11.542
86542W        W58268   3.738  13.803   2.262
86543W        W58269  11.851  16.951   2.322
86544W        W58270   2.000  14.688   2.723
86545W        W58271  33.421  37.012  11.116
86546W        W58272  39.945  33.856   1.835
86547W        W58273   5.386  23.642  14.356
86548W        W58274  14.139  16.316  12.031
86549W        W58275  13.836  33.308  12.126
86550W        W58276   6.904  41.175   0.089
86551W        W58277   4.887  14.817   0.307
86552W        W58278  24.587  17.029  13.485
86553W        W58279  29.493   7.723   3.936
86554W        W58280  28.208  34.171  11.036
86555W        W58281  20.751  23.193   1.369
86556W        W58282  33.417  16.217  12.483
86557W        W58283  34.487   0.560  14.426
86558W        W58284  25.540  27.884   1.797
86559W        W58285  13.615  41.891  14.830
86560W        W58286  14.661  44.737  11.385
86561W        W58287   3.246  11.341  14.593
86562W        W58288  22.473  32.071  14.204
86563W        W58289  39.318  29.458   0.986
86564W        W58290  10.799  44.006  13.151
86565W        W58291  18.204  35.596  11.361
86566W        W58292   1.432  41.083   2.645
86567W        W58293  27.634  11.799  14.824
86568W        W58294  11.635  34.356  11.484
86569W        W58295  22.511   3.811  11.166
86570W        W58296  10.581   7.869  14.415
86571W        W58297  43.614  19.164   0.195
86572W        W58298   3.560  29.079  13.624
86573W        W58299  41.135  42.333  13.100
86574W        W58300  12.207  28.013   4.747
86575W        W58301  27.010  44.349   5.252
86576W        W58302  16.272  39.964   0.740
86577W        W58303  11.269  41.526  11.001
86578W        W58304  44.439  14.537   3.241
86579W        W58305   8.622   8.546  12.917
86580W        W58306  20.595  16.464  10.694
86581W        W58307   5.961  43.551   3.309
86582W        W58308  31.747  26.741   1.271
86583W        W58309  28.619  41.029   1.414
86584W        W58310  22.012  24.531  12.003
86585W        W58311  18.975  23.673  13.151
86586W        W58312   0.208  31.514  13.670
86587W        W58313  12.417  35.486   2.316
86588W        W58314  23.571  41.035   4.031
86589W        W58315  41.694  36.253  14.513
86590W        W58316  29.034   8.668   1.844
86591W        W58317  32.854  25.710  11.620
86592W        W58318  39.060   2.427   3.043
86593W        W58319  12.701  16.560  12.094
86594W        W58320  25.012   0.456   4.181
86595W        W58321  13.183  44.947  11.613
86596W        W58322   6.483  11.696  13.927
86597W        W58323  10.861  44.840  13.615
86598W        W58324  22.350  43.470  12.509
86599W        W58325  23.110  32.183   3.645
86600W        W58326  13.111  15.655   9.939
86601W        W58327   0.009  15.171  12.768
86602W        W58328  27.966  15.529  11.547
86603W        W58329  21.220  41.862  12.810
86604W        W58330  30.440  42.807  13.577
86605W        W58331   2.718  17.296   3.684
86606W        W58332  42.588   9.221  10.469
86607W        W58333  44.734   7.664  14.479
86608W        W58334  13.140   9.372  10.746
86609W        W58335   3.430   7.141  12.107
86610W        W58336  17.831  13.023  12.503
86611W        W58337  15.636  35.998  10.648
86612W        W58338  33.796  34.511   1.855
86613W        W58339  30.551  24.279  11.938
86614W        W58340   8.405  27.659   1.333
86615W        W58341   4.958  34.517  13.979
86616W        W58342  23.755  14.874   2.387
86617W        W58343  35.366  14.590  12.395
86618W        W58344  28.184  36.953  13.451
86619W        W58345  27.184  40.954   4.587
86620W        W58346  38.025  37.116  12.647
86621W        W58347  40.045  10.248   4.295
86622W        W58348  39.355  36.551   4.158
86623W        W58349  22.979  17.575   2.285
86624W        W58350  21.803  39.267  12.803
86625W        W58351   2.098  18.562  11.130
86626W        W58352  20.525  41.134  14.488
86627W        W58353  29.890   7.852   1.397
86628W        W58354   0.575  28.108  11.135
86629W        W58355  19.074   7.224   4.015
86630W        W58356  20.568  30.506   4.184
86631W        W58357  14.834   0.816   3.153
86632W        W58358  14.180  43.077   2.221
86633W        W58359   4.249  33.280   3.804
86634W        W58360  34.910  22.503  14.033
86635W        W58361   3.816  21.993   3.264
86636W        W58362  36.102  35.554   0.704
86637W        W58363  27.604  33.978  13.810
86638W        W58364  11.022  26.992  12.148
86639W        W58365  25.491   2.846  12.358
86640W        W58366  35.103  16.081   0.324
86641W        W58367   8.245  19.093  14.253
86642W        W58368  27.936  32.039   0.456
86643W        W58369  16.552  16.322   1.388
86644W        W58370  19.485  15.617   0.413
86645W        W58371  14.133   0.373  14.128
86646W        W58372  12.212  33.739  13.124
86647W        W58373  27.910  41.946   2.213
86648W        W58374  38.004  15.665  13.951
86649W        W58375  12.790   6.169   0.740
86650W        W58376  33.134  20.598   0.003
86651W        W58377  42.898  32.872   4.659
86652W        W58378  41.517  31.037  14.851
86653W        W58379  27.161  14.340   0.282
86654W        W58380  15.593  44.968   4.183
86655W        W58381   5.059  15.153  12.817
86656W        W58382  36.320  16.065   1.490
86657W        W58383   6.281  21.508  10.666
86658W        W58384  33.050  30.207  11.239
86659W        W58385   0.372  32.534   4.583
86660W        W58386   4.393  37.534  10.833
86661W        W58387   3.146  34.944  11.211
86662W        W58388   2.143  36.251   2.676
86663W        W58389  23.021   2.716  13.427
86664W        W58390   8.406  30.912  10.806
86665W        W58391  31.066   2.379   4.977
86666W        W58392  41.677  42.381   3.254
86667W        W58393  31.125  40.518   2.810
86668W        W58394   1.690  10.711  12.540
86669W        W58395  43.922  16.789   4.582
86670W        W58396  42.368  12.724   3.317
86671W        W58397   9.651  20.120  12.126
86672W        W58398  42.456  19.091   2.000
86673W        W58399  31.598  20.193   0.813
86674W        W58400  25.281   8.692  11.773
86675W        W58401  42.549  44.029  13.839
86676W        W58402  40.876  21.062   3.296
86677W        W58403  16.517  29.025  13.001
86678W        W58404  36.534  27.069   1.248
86679W        W58405  28.718  40.043  12.536
86680W        W58406  42.413  34.891  14.364
86681W        W58407  23.623  23.690   2.974
86682W        W58408  14.812  15.735  12.528
86683W        W58409  20.878   8.157   4.939
86684W        W58410   2.021   4.527  13.009
86685W        W58411  41.282  29.657   2.658
86686W        W58412  28.180  22.150  12.975
86687W        W58413   0.395   1.463  11.463
86688W        W58414  35.503  34.875  10.724
86689W        W58415  18.665  30.924  14.844
86690W        W58416  25.770  10.844   4.305
86691W        W58417  18.410  19.138  12.341
86692W        W58418   9.709  30.137  14.080
86693W        W58419   2.490   0.848   0.761
86694W        W58420  29.009  29.747  12.389
86695W        W58421  31.861  42.976   1.321
86696W        W58422  29.502  34.730   3.587
86697W        W58423   6.312  38.091  14.367
86698W        W58424  13.775  21.054  10.598
86699W        W58425  31.853  37.249   1.731
86700W        W58426  26.662  23.576   0.424
86701W        W58427   2.353  41.127  14.379
86702W        W58428   2.719  29.646   1.766
86703W        W58429   8.851  42.044  11.051
86704W        W58430   4.251   7.458  11.496
86705W        W58431  25.174  24.891  13.958
86706W        W58432  12.779  44.913   1.403
86707W        W58433  28.809  39.023   3.303
86708W        W58434  10.725  10.790  12.582
86709W        W58435  43.297  14.332   1.948
86710W        W58436  26.572  37.251   4.595
86711W        W58437  38.489  16.663   3.300
86712W        W58438   5.765   6.889   1.168
86713W        W58439  13.060   0.508  13.801
86714W        W58440   9.457   5.186  13.146
86715W        W58441  18.225  17.483  13.818
86716W        W58442  23.093  12.475  13.984
86717W        W58443  31.085   0.436  14.026
86718W        W58444   4.316  41.735   4.896
86719W        W58445  12.052  27.112   3.165
86720W        W58446  41.819   9.367  13.867
86721W        W58447  14.147   5.994   5.010
86722W        W58448  42.042  22.422  13.471
86723W        W58449  40.580  16.344   0.691
86724W        W58450  12.208  40.353   3.004
86725W        W58451  13.006   0.246   1.722
86726W        W58452  12.058   8.749   3.689
86727W        W58453  12.580  43.467   2.053
86728W        W58454  30.562   2.434   2.693
86729W        W58455  14.368   2.311  12.304
86730W        W58456   0.231  41.423  14.376
86731W        W58457   8.539  33.016   3.719
86732W        W58458  39.538  29.407  13.398
86733W        W58459  10.003  20.943   2.920
86734W        W58460  37.080   5.745   4.395
86735W        W58461   4.288  16.850  14.858
86736W        W58462   6.426  32.371   4.812
86737W        W58463  13.072  37.479  12.320
86738W        W58464   0.845  39.143  13.834
86739W        W58465   9.121  10.821  11.066
86740W        W58466  20.548  35.857  11.139
86741W        W58467  12.189   9.968  12.500
86742W        W58468   6.143  34.857   1.945
86743W        W58469  15.582   9.932  12.042
86744W        W58470  39.960  28.385   2.307
86745W        W58471  39.028  26.788   5.081
86746W        W58472  21.047  14.861   5.502
86747W        W58473  24.921  32.594   4.598
86748W        W58474  40.833  15.676   0.320
86749W        W58475  43.765  42.614   2.169
86750W        W58476  36.830  11.641   4.299
86751W        W58477  28.308   7.281  13.576
86752W        W58478  22.235  12.846   2.986
86753W        W58479   2.727  10.869  12.573
86754W        W58480  41.026  26.781   2.470
86755W        W58481  22.276  16.620  10.537
86756W        W58482  19.946  12.271   2.554
86757W        W58483   2.760  34.518   2.739
86758W        W58484  24.521  43.318  11.416
86759W        W58485  33.509  28.956   4.278
86760W        W58486   8.773  22.296   0.349
86761W        W58487  36.294  38.558   1.742
86762W        W58488  41.233  28.517  13.201
86763W        W58489  14.692  11.120  12.100
86764W        W58490  43.032  14.169   1.518
86765W        W58491  15.895  22.788  14.796
86766W        W58492  34.430   5.090   2.823
86767W        W58493  12.709  39.277   2.284
86768W        W58494  22.533   8.002  13.841
86769W        W58495  22.685   7.442  11.403
86770W        W58496  31.493  27.977   3.739
86771W        W58497  43.836  19.622  12.157
86772W        W58498  28.443  37.957   2.385
86773W        W58499  19.340  21.273  11.183
86774W        W58500  39.919  12.660  14.806
86775W        W58501  36.909  24.449   1.220
86776W        W58502  24.134   1.738   0.628
86777W        W58503  30.634   2.204   0.656
86778W        W58504   6.432  42.455   4.250
86779W        W58505   4.978   6.817  13.751
86780W        W58506   7.095  18.823   4.071
86781W        W58507  37.256  18.888   2.230
86782W        W58508  26.157  35.684  13.333
86783W        W58509  14.614  22.239   5.046
86784W        W58510   8.576  27.760  13.851
86785W        W58511  36.725   6.769   0.910
86786W        W58512  27.620  23.721   1.730
86787W        W58513  25.753   0.570  12.748
86788W        W58514  11.632  17.438   1.284
86789W        W58515  40.839  27.879   4.108
86790W        W58516  13.843  22.622  14.574
86791W        W58517  42.011  37.845  10.929
86792W        W58518  31.257  17.076   3.660
86793W        W58519  44.318  30.889   3.649
86794W        W58520  30.439  32.859   4.276
86795W        W58521  13.038   1.355  14.427
86796W        W58522   8.277  27.698   2.373
86797W        W58523   9.871  30.377  11.611
86798W        W58524   5.789  18.846   3.281
86799W        W58525  37.582  31.030   4.093
86800W        W58526   4.285  26.012   4.336
86801W        W58527  14.180  26.897   4.256
86802W        W58528   2.912   5.460  12.589
86803W        W58529  12.871   9.377   0.902
86804W        W58530  40.140  38.965   4.365
86805W        W58531  40.163  21.540   3.649
86806W        W58532  23.286  13.744  13.352
86807W        W58533   9.589  38.792  14.084
86808W        W58534  31.768   9.846  10.602
86809W        W58535  19.442  33.241   0.994
86810W        W58536  31.467   4.341  12.553
86811W        W58537  16.036  38.852   2.312
86812W        W58538  13.149  11.133  10.571
86813W        W58539  42.079  41.937   0.753
86814W        W58540   9.379  14.443   4.236
86815W        W58541   1.449   0.169  12.984
86816W        W58542  25.729   5.825  11.201
86817W        W58543   7.750  15.316  11.664
86818W        W58544   5.903  36.347   2.816
86819W        W58545  18.090   1.478   0.397
86820W        W58546  20.393  22.049  11.154
86821W        W58547  27.534   0.223   4.297
86822W        W58548  42.422  35.176   4.518
86823W        W58549  30.098  29.703   0.758
86824W        W58550   7.330  17.559   4.625
86825W        W58551   0.849  32.291  14.314
86826W        W58552   2.789  14.283   0.691
86827W        W58553  12.740  44.985  12.848
86828W        W58554  13.196  29.992  14.774
86829W        W58555  34.528  13.280  12.071
86830W        W58556   9.647  41.806   0.981
86831W        W58557  22.524  15.572   4.177
86832W        W58558  23.020   5.324   4.350
86833W        W58559  28.860  38.383   4.077
86834W        W58560  33.089   9.463   3.378
86835W        W58561  19.086   0.962   3.213
86836W        W58562  29.611  34.926   4.423
86837W        W58563  15.462  36.883   0.700
86838W        W58564   3.451  33.521  11.608
86839W        W58565  39.587  13.833   2.816
86840W        W58566  38.080  20.024   3.903
86841W        W58567  35.299   7.099   0.222
86842W        W58568  44.978  28.373   1.451
86843W        W58569  14.762   7.261   4.816
86844W        W58570  44.395  36.512   4.527
86845W        W58571  15.517  30.134   1.600
86846W        W58572  15.509  36.331  12.383
86847W        W58573  40.846  27.477  10.415
86848W        W58574  31.510  42.278   3.370
86849W        W58575  19.963  40.418  11.659
86850W        W58576   0.683  25.664   2.258
86851W        W58577   5.127   2.365  14.313
86852W        W58578  26.236  15.296  11.161
86853W        W58579  44.046  23.761   3.716
86854W        W58580  43.768  44.071  11.241
86855W        W58581   8.738  34.522   2.082
86856W        W58582  22.268  10.091   1.244
86857W        W58583  32.282   0.268   4.983
86858W        W58584  21.163   6.871  11.570
86859W        W58585   6.850  31.428   2.280
86860W        W58586  14.239   8.070   2.388
86861W        W58587  12.317   0.702   3.391
86862W        W58588   6.013   9.755  10.769
86863W        W58589  35.600  31.443   2.303
86864W        W58590  19.528   3.189  12.898
86865W        W58591  30.175  39.079  11.276
86866W        W58592  30.203  30.165  11.627
86867W        W58593  17.905  37.900  13.052
86868W        W58594  31.318   4.265   4.052
86869W        W58595  44.867   0.729   2.175
86870W        W58596  20.638  39.598   3.263
86871W        W58597  18.313   8.163  10.414
86872W        W58598  10.098   1.318  13.370
86873W        W58599   6.488  36.621   3.147
86874W        W58600  26.735  28.048   4.131
86875W        W58601  22.941  24.591  12.990
86876W        W58602  24.848  25.273   2.397
86877W        W58603  23.166  15.351   2.729
86878W        W58604  28.926  19.097   1.256
86879W        W58605  33.938  10.177  14.151
86880W        W58606   8.785  25.429   2.180
86881W        W58607  25.450  38.740   4.642
86882W        W58608  40.989   4.861   2.183
86883W        W58609  21.663  44.871   3.369
86884W        W58610  16.754  27.983  12.240
86885W        W58611   2.531  19.425   0.427
86886W        W58612  38.951  23.053   1.597
86887W        W58613  41.397   0.974  13.429
86888W        W58614  16.778   5.521   4.589
86889W        W58615   7.898  15.478  12.606
86890W        W58616  17.866   5.516   3.799
86891W        W58617  37.818  23.734   3.245
86892W        W58618  16.928  39.891  10.121
86893W        W58619   0.954  34.024   0.797
86894W        W58620  19.350  39.594   2.986
86895W        W58621  44.405  25.518   0.561
86896W        W58622  19.377  16.245  11.930
86897W        W58623  30.872  41.794  13.098
86898W        W58624   1.127  24.445  11.101
86899W        W58625  28.216  16.650   0.854
86900W        W58626  27.658  31.140  10.650
86901W        W58627  18.241  19.397   4.234
86902W        W58628  32.008   7.049  12.529
86903W        W58629  44.855   2.210   2.416
86904W        W58630  12.083   0.622  11.055
86905W        W58631  42.293  31.968  12.285
86906W        W58632  31.680  32.287   3.838
86907W        W58633  19.741  19.688   2.098
86908W        W58634  14.621   6.066  14.557
86909W        W58635  37.953  41.952   4.147
86910W        W58636  43.320   5.292  11.009
86911W        W58637  30.185  17.789  10.956
86912W        W58638  42.003  43.609  12.487
86913W        W58639  27.930  12.558   3.588
86914W        W58640   8.846   3.265   0.452
86915W        W58641   2.768  33.393   1.309
86916W        W58642  20.771   7.696  14.750
86917W        W58643  32.239  24.698   1.800
86918W        W58644  43.288  33.208   4.548
86919W        W58645  29.565   4.857  10.857
86920W        W58646  22.668   9.190   4.488
86921W        W58647  34.294  25.264   4.376
86922W        W58648  39.340   5.465  12.697
86923W        W58649  17.547  17.216  11.909
86924W        W58650  34.036  34.951   4.468
86925W        W58651  26.409  42.120  10.768
86926W        W58652   9.328  22.635  11.484
86927W        W58653  39.231  41.070   0.722
86928W        W58654   6.815  18.192   3.875
86929W        W58655  22.535   1.360  13.844
86930W        W58656  28.238  40.279   0.204
86931W        W58657   9.251  44.308   3.439
86932W        W58658  36.105   3.204   2.371
86933W        W58659  43.619  26.463  14.357
86934W        W58660  40.618  15.634  10.569
86935W        W58661  40.847   3.783   1.893
86936W        W58662  38.582  23.058  13.539
86937W        W58663  11.647  36.391   5.480
86938W        W58664  25.694  38.322  13.899
86939W        W58665   2.250   4.940  11.420
86940W        W58666  21.997  14.033  14.544
86941W        W58667  15.458  11.793   2.082
86942W        W58668  23.128  32.867   1.372
86943W        W58669  32.635  40.130  14.975
86944W        W58670  31.126  42.448   2.392
86945W        W58671  39.831  24.152   3.675
86946W        W58672  14.986  17.287  12.130
86947W        W58673  30.522  37.356   5.040
86948W        W58674  24.031  12.839   3.309
86949W        W58675   7.399  42.906   2.233
86950W        W58676   7.496  26.775  12.431
86951W        W58677  42.308  15.144  12.924
86952W        W58678  22.265   9.266  12.157
86953W        W58679  34.441  42.511   0.024
86954W        W58680  28.151   1.965   4.042
86955W        W58681  44.466   5.816  12.407
86956W        W58682   2.525  38.558   4.428
86957W        W58683   1.541  38.738   2.232
86958W        W58684  17.773  41.026   0.964
86959W        W58685  11.597  29.675  13.951
86960W        W58686  20.189   8.184   3.844
86961W        W58687  19.091  29.379  13.895
86962W        W58688   6.257   6.397  10.181
86963W        W58689  22.058  39.843   3.631
86964W        W58690  28.402  13.355  12.489
86965W        W58691  14.034  37.932   3.743
86966W        W58692   7.437  13.687   0.017
86967W        W58693  16.727   4.337   0.811
86968W        W58694  40.246  44.331   1.796
86969W        W58695  22.685  34.227   3.246
86970W        W58696  11.552  14.134  11.201
86971W        W58697  34.043  31.652   3.889
86972W        W58698  23.026  39.530   2.804
86973W        W58699  40.136   6.238  11.724
86974W        W58700  32.869  16.880   0.860
86975W        W58701   5.218   8.433  12.143
86976W        W58702  23.624  18.610  14.938
86977W        W58703  25.411  16.264   0.146
86978W        W58704   8.820  38.933  10.695
86979W        W58705  30.695  41.436  11.449
86980W        W58706   6.521   6.851  12.764
86981W        W58707  14.396  13.833   3.690
86982W        W58708  36.511  29.424   0.731
86983W        W58709   7.750  25.577  11.643
86984W        W58710   9.373  20.633   4.504
86985W        W58711  13.572  16.075  13.639
86986W        W58712   4.242  15.769   0.986
86987W        W58713  32.508  20.393   4.306
86988W        W58714  32.159  27.692  11.114
86989W        W58715   7.937   4.740   1.186
86990W        W58716  33.674  25.506  13.868
86991W        W58717   8.845  17.998  10.669
86992W        W58718  28.129  25.133  10.128
86993W        W58719  37.834   3.299  10.708
86994W        W58720  30.365   5.667  13.388
86995W        W58721  21.579   4.946  11.155
86996W        W58722  23.978  15.863   4.161
86997W        W58723   4.134  10.296   3.379
86998W        W58724  21.158  44.267   4.179
86999W        W58725   7.444  10.676   2.302
87000W        W58726  18.738  40.255   1.032
87001W        W58727  24.390   3.760  14.464
87002W        W58728   1.027  34.477   1.017
87003W        W58729   5.317  32.628  12.392
87004W        W58730  37.676  44.910   0.197
87005W        W58731  39.954  10.918   0.678
87006W        W58732  42.492  12.665  12.225
87007W        W58733  43.094  14.192   4.163
87008W        W58734  13.276  23.070   2.099
87009W        W58735  28.099  21.250  14.885
87010W        W58736  35.409  32.035   4.104
87011W        W58737  21.796  29.135   0.389
87012W        W58738  28.113  41.017   1.411
87013W        W58739  11.267   3.369  13.822
87014W        W58740   0.722   6.307  13.750
87015W        W58741   2.519  20.141  11.564
87016W        W58742  25.770  30.037   2.038
87017W        W58743   0.297  26.111   2.339
87018W        W58744  15.662  33.194   2.398
87019W        W58745  21.644  17.228   3.996
87020W        W58746   8.492  22.679   2.264
87021W        W58747  18.151  14.048  13.090
87022W        W58748  20.084  21.615   0.854
87023W        W58749   9.508   6.452   4.163
87024W        W58750  42.610  22.382   3.629
87025W        W58751  15.077  40.695  14.185
87026W        W58752  42.805   3.372  12.515
87027W        W58753   5.619   0.031   2.277
87028W        W58754  41.061  12.574  14.373
87029W        W58755   9.024  17.575   2.405
87030W        W58756  29.516  10.135  14.984
87031W        W58757  35.302  42.503   3.828
87032W        W58758  14.487  39.024  11.090
87033W        W58759  10.622   5.570  11.496
87034W        W58760   9.818  25.278  11.922
87035W        W58761  38.067  14.164   4.808
87036W        W58762   5.666   0.158  11.095
87037W        W58763  31.107  35.100   0.566
87038W        W58764  22.060   1.670   3.192
87039W        W58765  37.229  28.837   1.738
87040W        W58766  43.350  21.773   0.251
87041W        W58767   0.236  26.616  13.433
87042W        W58768  21.134   2.332  11.912
87043W        W58769  24.972  15.109  11.591
87044W        W58770  44.342  31.373   1.798
87045W        W58771   8.767  15.080   0.776
87046W        W58772  20.053  28.082  10.007
87047W        W58773   5.366  19.274   3.852
87048W        W58774  15.759  27.569  10.368
87049W        W58775  27.720  29.633  12.264
87050W        W58776  25.157  24.532   3.118
87051W        W58777  17.450  33.741   4.379
87052W        W58778  31.276  27.800   4.280
87053W        W58779  17.240   2.689   1.678
87054W        W58780  29.720   8.098  14.688
87055W        W58781  34.216  19.690   3.379
87056W        W58782  42.788  37.420  12.415
87057W        W58783  21.278  30.011  12.468
87058W        W58784   6.083   2.192   4.689
87059W        W58785  23.558   8.154  13.316
87060W        W58786   7.949  10.845   2.429
87061W        W58787  21.884   7.200  13.894
87062W        W58788  19.971  10.718  13.853
87063W        W58789  21.758  43.893  14.060
87064W        W58790  31.029  17.686  14.220
87065W        W58791  26.598  19.462   2.378
87066W        W58792  31.186  20.202   3.952
87067W        W58793   2.348   6.113  14.737
87068W        W58794  44.911  15.905  13.861
87069W        W58795  38.424   0.726  13.440
87070W        W58796  37.282  32.440  11.039
87071W        W58797  18.259  30.080   2.178
87072W        W58798  23.048  16.589   0.383
87073W        W58799   9.513  17.804   2.345
87074W        W58800  31.247   6.304   2.677
87075W        W58801  18.280  32.904   0.525
87076W        W58802  33.537   6.516   1.516
87077W        W58803  13.323  31.825  12.771
87078W        W58804   4.479  37.495  12.881
87079W        W58805  19.262  30.520   4.753
87080W        W58806  14.485  11.596  11.972
87081W        W58807   1.930  24.818  14.743
87082W        W58808  18.073  11.725  10.708
87083W        W58809  32.027  28.136   2.858
87084W        W58810  30.555  37.877  14.519
87085W        W58811   1.316  38.286  11.118
87086W        W58812  23.048  18.245   3.138
87087W        W58813  41.868  26.431  12.008
87088W        W58814  33.908  42.804  14.485
87089W        W58815  34.248  38.583  12.025
87090W        W58816  39.327   9.684  13.906
87091W        W58817   6.194  44.493   4.719
87092W        W58818   3.365  34.571  13.838
87093W        W58819   3.606   2.456   1.888
87094W        W58820  36.433  31.226  14.977
87095W        W58821  19.610  16.073  13.320
87096W        W58822  40.448  36.647   2.719
87097W        W58823  16.732  31.080  14.751
87098W        W58824  16.543  20.296   2.834
87099W        W58825   1.749  44.921  13.312
87100W        W58826  37.931   4.396   1.611
87101W        W58827   9.115  17.158  10.607
87102W        W58828  17.729  41.358  14.521
87103W        W58829  43.116  36.823   0.405
87104W        W58830  20.697   3.959   4.204
87105W        W58831  13.692  41.351  14.956
87106W        W58832  30.039  14.108   4.405
87107W        W58833   9.392   8.790   0.212
87108W        W58834  43.056  15.143  13.887
87109W        W58835  44.926  32.746   3.691
87110W        W58836   4.037   3.742   4.402
87111W        W58837  39.973  44.688  10.497
87112W        W58838  23.640  26.492   0.804
87113W        W58839  15.974  20.136  10.734
87114W        W58840  13.056  42.865   3.641
87115W        W58841  24.661  19.571  11.262
87116W        W58842  29.986  23.683   5.023
87117W        W58843   3.818  18.160   3.985
87118W        W58844  44.710  23.212  11.820
87119W        W58845  40.394  43.516   1.683
87120W        W58846  18.701  33.260  12.177
87121W        W58847  40.063   3.718   1.379
87122W        W58848  36.608   8.729   2.263
87123W        W58849  24.414  37.747   0.764
87124W        W58850  31.039  17.999  11.940
87125W        W58851  12.462  28.012   4.272
87126W        W58852   0.401  36.574   4.871
87127W        W58853  40.893   6.642  11.459
87128W        W58854  27.159   7.854  13.527
87129W        W58855  37.481  37.307   0.213
87130W        W58856  11.378  17.156   2.194
87131W        W58857  31.174  27.597  11.048
87132W        W58858  16.226  13.768  13.196
87133W        W58859  23.132   7.609  11.597
87134W        W58860   5.691  12.166   3.676
87135W        W58861  13.426  23.206   0.177
87136W        W58862  33.750  34.507  10.609
87137W        W58863  28.661  36.307   2.212
87138W        W58864  30.556  13.614  12.068
87139W        W58865  19.824  41.296  11.446
87140W        W58866  28.000  16.896   1.276
87141W        W58867  37.639  22.169   4.179
87142W        W58868  38.107  37.064   0.390
87143W        W58869  28.216  42.799  11.746
87144W        W58870  36.249  28.600   2.817
87145W        W58871  40.520  22.153   2.765
87146W        W58872  23.846  31.683  11.040
87147W        W58873  33.066  25.152   0.286
87148W        W58874  32.812   6.739   3.276
87149W        W58875  33.234  23.964   0.308
87150W        W58876  41.469   0.440   2.644
87151W        W58877  14.771  23.460   0.911
87152W        W58878  30.244  43.857   9.716
87153W        W58879  27.491  18.506  14.637
87154W        W58880   5.590  23.156   4.053
87155W        W58881   5.828  32.508   0.270
87156W        W58882  24.721  33.835   2.272
87157W        W58883  40.729  39.120  12.839
87158W        W58884  17.226  19.293   2.311
87159W        W58885  42.348   1.751   2.381
87160W        W58886  10.017  25.071  14.748
87161W        W58887  23.597  21.748   2.909
87162W        W58888  13.884  44.595  11.412
87163W        W58889  36.083  24.694  14.968
87164W        W58890   2.868   4.954  13.993
87165W        W58891  24.543   4.254   4.031
87166W        W58892  23.128  36.868  12.866
87167W        W58893  12.753   1.475   1.388
87168W        W58894   0.175  24.761   1.924
87169W        W58895  20.576  41.044   3.446
87170W        W58896  35.053  11.284  14.925
87171W        W58897  14.973  39.561   0.731
87172W        W58898   4.133  28.801  10.359
87173W        W58899   6.814  25.954   3.730
87174W        W58900  39.902  30.585   3.306
87175W        W58901  39.283  41.776  14.054
87176W        W58902  20.446  34.998   3.239
87177W        W58903  35.407  37.416  11.535
87178W        W58904  40.548  19.794  11.875
87179W        W58905  33.459  13.694   2.675
87180W        W58906   3.238  11.257  11.541
87181W        W58907  29.483   7.344  13.970
87182W        W58908  28.447  37.980  13.501
87183W        W58909  27.995   3.137  14.936
87184W        W58910  25.063   8.104  13.504
87185W        W58911  18.725  29.039  14.556
87186W        W58912  13.559  25.714  12.760
87187W        W58913  32.169  30.540  11.699
87188W        W58914  44.733  14.743  12.618
87189W        W58915  36.184  42.964   2.712
87190W        W58916   1.354  14.854   0.782
87191W        W58917  39.870   1.733   3.107
87192W        W58918  14.299  27.750  12.209
87193W        W58919  12.068  21.298  11.061
87194W        W58920  20.138  25.189  11.723
87195W        W58921   0.940   4.930   0.006
87196W        W58922  30.045  17.422  13.387
87197W        W58923  29.511  37.903   0.025
87198W        W58924  43.944  27.339   1.312
87199W        W58925  28.683  26.103  14.850
87200W        W58926  28.480   8.263   2.895
87201W        W58927  16.580  27.125   1.446
87202W        W58928  44.285  26.389   4.895
87203W        W58929   9.253   1.248   0.758
87204W        W58930   5.252  36.093   4.257
87205W        W58931  40.087  15.562  10.702
87206W        W58932  18.991   1.402  12.152
87207W        W58933  12.874   6.051  12.047
87208W        W58934  30.037  24.016  12.024
87209W        W58935  34.437  14.797   4.174
87210W        W58936  19.173  26.820  13.378
87211W        W58937  27.399  34.324   1.241
87212W        W58938  10.248  23.244  13.857
87213W        W58939   9.076  44.728  14.942
87214W        W58940   9.784  36.979  12.346
87215W        W58941  44.215  32.255  13.930
87216W        W58942  22.434  25.746  11.188
87217W        W58943  20.914  30.132   4.141
87218W        W58944  20.099  37.332  13.331
87219W        W58945  31.179  41.630   1.896
87220W        W58946  35.091  39.959  10.739
87221W        W58947  18.564  42.495   3.219
87222W        W58948  21.204  22.280  10.820
87223W        W58949  28.634   8.294  14.762
87224W        W58950  34.807  35.127   5.038
87225W        W58951  25.437  35.975  12.450
87226W        W58952  40.965  25.802   2.076
87227W        W58953   2.702  11.214  11.538
87228W        W58954   7.666   6.617  10.086
87229W        W58955   0.324   7.739   3.111
87230W        W58956  40.857  17.639  14.280
87231W        W58957   4.331  26.948   2.746
87232W        W58958  32.515  39.784  12.509
87233W        W58959  37.500  22.537   1.025
87234W        W58960   1.909   9.457   0.883
87235W        W58961  43.905  30.788  11.918
87236W        W58962  22.642  11.861  11.424
87237W        W58963   0.885  39.638   0.794
87238W        W58964  13.018  36.200  14.269
87239W        W58965   5.999  14.832  13.382
87240W        W58966  24.645   6.188   1.434
87241W        W58967  41.899   2.282   3.804
87242W        W58968  39.319  25.186   2.620
87243W        W58969  32.511  39.801   3.141
87244W        W58970  26.148  35.358  10.575
87245W        W58971  41.769  15.003  10.658
87246W        W58972  43.155  44.177  10.657
87247W        W58973  11.682   9.898  14.545
87248W        W58974  11.311  36.418   5.065
87249W        W58975  34.084   4.491  12.692
87250W        W58976   1.304   1.283  10.881
87251W        W58977  32.609  14.090  14.851
87252W        W58978  39.342  28.496   2.716
87253W        W58979  11.084  26.015  13.493
87254W        W58980  22.237  22.292   0.838
87255W        W58981  17.273   5.294  13.050
87256W        W58982  11.636  43.791   4.244
87257W        W58983  39.716  39.986  13.111
87258W        W58984  27.397  12.282  11.594
87259W        W58985  31.500   1.663   2.756
87260W        W58986  11.771  11.315   3.054
87261W        W58987  44.747   8.678   1.909
87262W        W58988   2.660  33.850   0.949
87263W        W58989  40.841  22.703   1.275
87264W        W58990  20.810  15.252   1.803
87265W        W58991  29.652  13.099  14.079
87266W        W58992  10.556  37.344  11.201
87267W        W58993  27.869   9.128  13.447
87268W        W58994  27.731  12.659   2.420
87269W        W58995  24.266  41.796  12.003
87270W        W58996  16.712  27.387  12.563
87271W        W58997  21.278   8.109  11.134
87272W        W58998  41.919  13.058   3.157
87273W        W58999  19.714  16.564  13.287
87274W        W59000  40.529  20.202  12.228
87275W        W59001  14.385   7.901  12.752
87276W        W59002   9.744  36.451  11.116
87277W        W59003   0.550  29.993  14.896
87278W        W59004  27.871  29.849   1.161
87279W        W59005  42.522   5.131   4.650
87280W        W59006   1.126  27.366   1.681
87281W        W59007  31.141   3.779   3.903
87282W        W59008  36.027  30.983   0.237
87283W        W59009  28.598  30.062  11.115
87284W        W59010  18.600   2.211  10.675
87285W        W59011  10.137   5.448  13.390
87286W        W59012  38.210   7.258   0.715
87287W        W59013  25.890  12.081  12.446
87288W        W59014  35.721  28.597   2.961
87289W        W59015   5.541  13.357   2.263
87290W        W59016  35.867  37.622  13.362
87291W        W59017   8.151   2.458  13.010
87292W        W59018  19.785  43.194  11.671
87293W        W59019  10.775  13.791   1.716
87294W        W59020  34.613   0.251  12.106
87295W        W59021  23.808  38.114   3.668
87296W        W59022  42.372   9.192  12.988
87297W        W59023  26.217  36.598   3.204
87298W        W59024  32.048  40.587   2.325
87299W        W59025  28.440  24.052   4.663
87300W        W59026  31.423  43.631  13.077
87301W        W59027  44.972  16.800  14.363
87302W        W59028   5.840  44.960   0.897
87303W        W59029  12.366  26.883  13.807
87304W        W59030  18.693  17.963  13.016
87305W        W59031  33.705  35.122  10.062
87306W        W59032  28.673  28.651   4.244
87307W        W59033  28.487   9.071   3.750
87308W        W59034   2.983  27.986  13.444
87309W        W59035  26.217  30.064   2.300
87310W        W59036   4.048  12.675  12.669
87311W        W59037   6.855   8.388  10.920
87312W        W59038  12.236  34.391   3.879
87313W        W59039   9.377  14.978  10.787
87314W        W59040  39.855  40.121   0.908
87315W        W59041  10.342  19.592   4.237
87316W        W59042  29.769  19.058  11.146
87317W        W59043   3.321  16.118   5.037
87318W        W59044  32.177  19.274  13.876
87319W        W59045  41.981   3.966   1.280
87320W        W59046  36.284  34.669   4.358
87321W        W59047  18.615  35.887   5.162
87322W        W59048   2.731  15.775  13.550
87323W        W59049  33.857  36.206   1.411
87324W        W59050   2.481   0.274  12.777
87325W        W59051   7.407   0.159   2.462
87326W        W59052  15.614  10.580   3.266
87327W        W59053  23.024   8.436   1.605
87328W        W59054  20.298  41.394  12.706
87329W        W59055   2.805  14.604   4.566
87330W        W59056  13.187  21.686  13.078
87331W        W59057  36.755  17.553  11.607
87332W        W59058   1.051  23.708  14.242
87333W        W59059  30.389  29.025   3.689
87334W        W59060   3.969  33.626   3.173
87335W        W59061  22.919   4.713  10.927
87336W        W59062  13.790  36.554  13.929
87337W        W59063   0.878   8.603   4.588
87338W        W59064  35.571  42.264  11.990
87339W        W59065  40.876  37.461   0.917
87340W        W59066  39.584  17.730  13.918
87341W        W59067  43.726  12.241   0.940
87342W        W59068  30.171  27.917   2.367
87343W        W59069  35.671  42.760   2.648
87344W        W59070  39.324  17.501   2.826
87345W        W59071  27.922  33.590  13.733
87346W        W59072  38.702  34.041  11.100
87347W        W59073  16.530  33.499  13.407
87348W        W59074  28.406  22.005  12.518
87349W        W59075  37.842  28.620   2.555
87350W        W59076  37.413   4.223  14.062
87351W        W59077   8.199   8.783   3.067
87352W        W59078  29.135  19.100  13.572
87353W        W59079  17.126   2.727   1.171
87354W        W59080  29.049  18.568  13.693
87355W        W59081   3.814  23.514   3.361
87356W        W59082  19.257  25.190  10.874
87357W        W59083  33.841  17.416   4.159
87358W        W59084  38.284  22.729   3.218
87359W        W59085  13.292  36.495   2.725
87360W        W59086  42.456  25.536  12.643
87361W        W59087  29.578  10.499  12.163
87362W        W59088  26.178   6.400   1.981
87363W        W59089  16.859  33.348   1.232
87364W        W59090  14.304  31.838   0.684
87365W        W59091  39.635  42.858   4.203
87366W        W59092  14.160  24.641  14.090
87367W        W59093  17.349  18.255   1.410
87368W        W59094  36.013  29.549  14.946
87369W        W59095  43.568  35.887   5.143
87370W        W59096  27.662  44.132  10.972
87371W        W59097   0.535  42.096   4.916
87372W        W59098  32.555  10.817  10.759
87373W        W59099  24.490  24.170  14.059
87374W        W59100  12.387  12.066  12.784
87375W        W59101  14.374  17.322   1.719
87376W        W59102  15.221   0.031  14.081
87377W        W59103   5.955   7.786  14.321
87378W        W59104  27.952  43.564   1.702
87379W        W59105   2.667  14.086  14.677
87380W        W59106  24.033  23.467  12.955
87381W        W59107  30.161  18.011  13.091
87382W        W59108  40.354   0.932  14.793
87383W        W59109  39.557   4.035  11.024
87384W        W59110  28.384   4.950   4.221
87385W        W59111  42.695  44.913   1.817
87386W        W59112  11.798  44.451   4.204
87387W        W59113  26.242  29.698  14.450
87388W        W59114   1.299  33.523  12.568
87389W        W59115  18.008  14.832   4.758
87390W        W59116   1.458  24.671   3.728
87391W        W59117   8.776   7.377   1.288
87392W        W59118  12.382  39.775  12.509
87393W        W59119  40.675  29.787  14.682
87394W        W59120  33.766   3.685   2.862
87395W        W59121  13.716   7.357   4.262
87396W        W59122  15.252   7.930   1.718
87397W        W59123  43.246  33.244  11.843
87398W        W59124  13.711   9.352   0.276
87399W        W59125  27.480   7.104  12.416
87400W        W59126  31.383  15.845   4.110
87401W        W59127  44.339  44.027  12.457
87402W        W59128   0.798  23.229   0.917
87403W        W59129  42.392  42.739  11.463
87404W        W59130  24.216  40.835   0.901
87405W        W59131   7.853  12.769   0.963
87406W        W59132  20.752  20.335   1.861
87407W        W59133   7.197  38.064   1.459
87408W        W59134  38.494  23.131  11.989
87409W        W59135  33.570   7.846   0.050
87410W        W59136  22.256  14.555  10.553
87411W        W59137   8.459  22.129   2.742
87412W        W59138   1.011  10.603  11.139
87413W        W59139  16.262  29.026  13.447
87414W        W59140  21.083  10.908  11.592
87415W        W59141  29.491  28.029  10.771
87416W        W59142   9.918   4.404   2.748
87417W        W59143  15.098  39.595  13.950
87418W        W59144  38.332  23.063  12.503
87419W        W59145   2.455   4.225  14.336
87420W        W59146   3.375   2.940   3.343
87421W        W59147  17.668  36.969  14.948
87422W        W59148   9.177  32.352  14.215
87423W        W59149  37.347  37.890   3.145
87424W        W59150  16.683  25.164   2.356
87425W        W59151  32.804  20.648   0.953
87426W        W59152   4.666  23.877   2.797
87427W        W59153  37.575  21.077   3.191
87428W        W59154  39.567  11.650  11.400
87429W        W59155  38.949  11.873   4.596
87430W        W59156  16.797  28.913  12.581
87431W        W59157  16.383  22.755  14.989
87432W        W59158  26.240  12.573   2.377
87433W        W59159  24.252  12.832  12.131
87434W        W59160  20.764  35.510  12.912
87435W        W59161  24.748  22.207  12.139
87436W        W59162  30.432   9.255  12.448
87437W        W59163  30.367  25.902   2.790
87438W        W59164  15.169  29.129  14.302
87439W        W59165   0.819  44.167  13.920
87440W        W59166  27.029  36.564  12.003
87441W        W59167  35.549  35.530  13.336
87442W        W59168  24.352  43.893  14.431
87443W        W59169  20.122  15.621  11.666
87444W        W59170  40.964  19.082   3.912
87445W        W59171  10.391  26.599   1.462
87446W        W59172  34.523  10.405   1.831
87447W        W59173  39.592  38.878   3.787
87448W        W59174  42.243   9.092  13.895
87449W        W59175  15.140  21.982   1.569
87450W        W59176  34.269   9.839  14.349
87451W        W59177  15.608   1.346  13.130
87452W        W59178  28.646   8.606   2.567
87453W        W59179   2.927  10.750   0.931
87454W        W59180   4.448   0.464   0.885
87455W        W59181   7.280   5.614  14.975
87456W        W59182  40.526   5.461  12.423
87457W        W59183  20.481   7.279   1.866
87458W        W59184  23.161  38.791   3.754
87459W        W59185  20.028  25.763  13.989
87460W        W59186  37.382   3.317  12.891
87461W        W59187  18.162   7.722   4.883
87462W        W59188  34.104  10.761  12.959
87463W        W59189   2.394   6.943   1.728
87464W        W59190  25.738  43.217   5.113
87465W        W59191  43.016  41.516  13.358
87466W        W59192  17.331   0.955   2.331
87467W        W59193  19.749  36.184  10.371
87468W        W59194  36.433  23.551   3.798
87469W        W59195  29.701  13.424  11.370
87470W        W59196  24.216   1.405  14.531
87471W        W59197   5.709   0.089  13.464
87472W        W59198   4.251  19.091  14.355
87473W        W59199  20.125  11.349   2.924
87474W        W59200  44.326  24.226   0.624
87475W        W59201  15.566  26.493  14.698
87476W        W59202  22.863  43.954   1.534
87477W        W59203   4.234  13.692  12.983
87478W        W59204  24.723  41.730  12.212
87479W        W59205  39.557  21.957   4.715
87480W        W59206  20.441   9.561  13.956
87481W        W59207  41.425  26.839   4.130
87482W        W59208  42.326  40.593  10.546
87483W        W59209  11.652   0.319   4.466
87484W        W59210  43.275  11.145   2.267
87485W        W59211  19.445   1.744  13.041
87486W        W59212  41.294  11.249   4.836
87487W        W59213  12.462  21.613   1.314
87488W        W59214  13.431  31.646   2.925
87489W        W59215  25.984   4.147   4.343
87490W        W59216  12.748  34.619  12.939
87491W        W59217  32.937  32.979   2.295
87492W        W59218  20.392  27.926  14.994
87493W        W59219  37.608  32.065   1.429
87494W        W59220  33.574  26.511   5.220
87495W        W59221   8.717  32.388   4.167
87496W        W59222  36.357   4.318   3.919
87497W        W59223  12.079  20.156  14.460
87498W        W59224   2.714  20.628  12.809
87499W        W59225  20.649  14.680  14.080
87500W        W59226   7.625   1.036  11.913
87501W        W59227   0.879  26.476  14.600
87502W        W59228  36.259  17.686   2.874
87503W        W59229  13.653  34.578  12.466
87504W        W59230   8.430  13.074  11.893
87505W        W59231   3.584  31.957   4.562
87506W        W59232  13.590  42.247  14.297
87507W        W59233  20.441  25.520  12.039
87508W        W59234  28.455  42.388  10.697
87509W        W59235  12.704  42.865   4.100
87510W        W59236  43.584  38.988  12.968
87511W        W59237  40.589   9.360  12.514
87512W        W59238  29.430   9.371  13.303
87513W        W59239  24.241  14.765   2.229
87514W        W59240  20.093  11.394  10.898
87515W        W59241  36.859   7.319   2.854
87516W        W59242   6.773  34.993   4.163
87517W        W59243   6.472  15.107  10.054
87518W        W59244  12.340  33.433   4.895
87519W        W59245  37.024  31.812  12.205
87520W        W59246  39.281  40.098   1.797
87521W        W59247  42.403  14.859  13.361
87522W        W59248  28.523  17.804  14.315
87523W        W59249  22.919  19.010  12.950
87524W        W59250  27.468   2.725   2.155
87525W        W59251  18.110  25.188   1.804
87526W        W59252   8.217  12.798  11.455
87527W        W59253  44.325  27.675   1.208
87528W        W59254  11.142  43.527   0.953
87529W        W59255  17.740  39.505  11.919
87530W        W59256  13.836   9.264  12.886
87531W        W59257   8.369  40.583   1.660
87532W        W59258  41.002  33.317  11.981
87533W        W59259  18.308  19.118  10.683
87534W        W59260  33.157  24.857  12.809
87535W        W59261   7.432  43.341   1.370
87536W        W59262  18.013   1.029   1.666
87537W        W59263  20.689  26.830   1.400
87538W        W59264  35.518  32.914  12.421
87539W        W59265   1.703  42.381  11.644
87540W        W59266  20.254   1.331  12.601
87541W        W59267   9.574  44.424   3.850
87542W        W59268  42.527  22.294  13.600
87543W        W59269  32.566  24.419   0.856
87544W        W59270  24.203  34.362   3.811
87545W        W59271  26.385  31.629   2.393
87546W        W59272   1.996  19.821   1.670
87547W        W59273   0.804  21.605   3.696
87548W        W59274  31.268  19.015  14.059
87549W        W59275  39.630  42.006  13.749
87550W        W59276   3.935   5.193  11.123
87551W        W59277   8.905  13.038  10.550
87552W        W59278  19.071   2.663   4.656
87553W        W59279  42.191  15.255  12.409
87554W        W59280  30.862  26.889  11.456
87555W        W59281  35.132  25.321  11.500
87556W        W59282  16.373  13.319   3.174
87557W        W59283   2.034   4.248   2.281
87558W        W59284  10.733  31.036   0.424
87559W        W59285  24.481  35.276   3.224
87560W        W59286   9.224  14.294   1.672
87561W        W59287  38.480   1.272  12.563
87562W        W59288   8.451  22.994  13.424
87563W        W59289   4.877  27.619  10.725
87564W        W59290  29.082  14.197   4.622
87565W        W59291  35.080  31.718   1.340
87566W        W59292   8.184  43.320  12.537
87567W        W59293  13.795   3.937   2.925
87568W        W59294   9.133  36.870  12.118
87569W        W59295  16.726   1.023   1.864
87570W        W59296  30.836  32.034   2.258
87571W        W59297  30.402  33.042  10.698
87572W        W59298   9.130   5.267  10.714
87573W        W59299  37.114  26.369  14.360
87574W        W59300  32.456  14.399   2.776
87575W        W59301   2.367  16.570   0.241
87576W        W59302  42.351   3.121  12.688
87577W        W59303  35.817  40.269  11.147
87578W        W59304  11.253   9.076  12.371
87579W        W59305  16.296   8.988   4.788
87580W        W59306  41.355   4.715   2.845
87581W        W59307  17.586  28.062  12.883
87582W        W59308  14.278  24.493   1.236
87583W        W59309  24.905  24.457  13.837
87584W        W59310  36.974   7.908  13.419
87585W        W59311  15.552  24.689  13.905
87586W        W59312  12.106  12.249   2.717
87587W        W59313  36.904  26.885   1.916
87588W        W59314  39.358  27.406   3.304
87589W        W59315  10.930  33.418   1.920
87590W        W59316   4.185  14.869  12.451
87591W        W59317   9.633  39.878  11.126
87592W        W59318  43.780   6.777   1.699
87593W        W59319  41.039   4.449   1.250
87594W        W59320  36.041   8.849  13.428
87595W        W59321  33.569  42.588   1.207
87596W        W59322  20.742  24.016   1.994
87597W        W59323  30.987  12.874   0.276
87598W        W59324   6.841  25.492   1.713
87599W        W59325   7.104  15.134  13.921
87600W        W59326   1.308  20.430  12.472
87601W        W59327  39.038  44.213   3.617
87602W        W59328  37.096  29.335   1.723
87603W        W59329  29.961  31.470  12.523
87604W        W59330   3.886  27.282   1.934
87605W        W59331  38.116  44.258   2.450
87606W        W59332  18.946  26.899   4.990
87607W        W59333  36.642  26.181  10.378
87608W        W59334   5.989  25.586   1.293
87609W        W59335  11.416  34.254   3.780
87610W        W59336  11.857  29.459  11.506
87611W        W59337   9.226  23.022   1.903
87612W        W59338  10.240  16.749   2.170
87613W        W59339   4.638  29.503   0.873
87614W        W59340  18.738  24.080   0.928
87615W        W59341  29.930  19.690  12.810
87616W        W59342  35.014  18.676   2.153
87617W        W59343   1.988   1.409   1.812
87618W        W59344  26.670   1.698   2.290
87619W        W59345  31.504  19.296  14.510
87620W        W59346  14.621   6.102  10.673
87621W        W59347  35.063   1.194   3.282
87622W        W59348  29.974  24.804  12.454
87623W        W59349  32.267  28.217  11.155
87624W        W59350  30.969  10.643   4.672
87625W        W59351   7.163  16.710   4.240
87626W        W59352  27.232   0.252   1.975
87627W        W59353  22.737   5.348   3.044
87628W        W59354   5.613  36.805   3.277
87629W        W59355  14.607   3.912  13.464
87630W        W59356  30.800  44.911  10.140
87631W        W59357  32.502  30.041   1.238
87632W        W59358   3.402  12.842   4.845
87633W        W59359  37.535  32.956   1.179
87634W        W59360  33.001  21.087   1.837
87635W        W59361  24.241   9.440   3.370
87636W        W59362   8.420   3.277  11.858
87637W        W59363  15.464  33.478   3.649
87638W        W59364  42.809  26.649   4.563
87639W        W59365  28.166  34.960  13.334
87640W        W59366  15.798  31.237  14.881
87641W        W59367  16.979  25.541   2.156
87642W        W59368  42.305   7.519   0.166
87643W        W59369  12.788  36.952   4.310
87644W        W59370   4.113   7.470  10.998
87645W        W59371   7.923  23.095   0.688
87646W        W59372   5.420  26.481   3.764
87647W        W59373  34.815  31.898  13.007
87648W        W59374  25.426  13.774  10.994
87649W        W59375  19.859   4.800   2.311
87650W        W59376   2.035  41.360   1.190
87651W        W59377   4.624   7.473  10.107
87652W        W59378  24.099   3.380   1.914
87653W        W59379  39.800  30.346  12.487
87654W        W59380  35.334   5.260  14.910
87655W        W59381  36.307  17.649  12.511
87656W        W59382  33.726  39.465   4.274
87657W        W59383   1.006   9.407  10.650
87658W        W59384   5.722  28.655  13.901
87659W        W59385  35.948   2.674  13.486
87660W        W59386  41.084  20.255   3.994
87661W        W59387  39.311  44.802  12.996
87662W        W59388  38.784  44.685  11.872
87663W        W59389  10.229   7.905   3.748
87664W        W59390  44.783   4.488  10.757
87665W        W59391  12.798  17.180  10.933
87666W        W59392  35.297  34.095   3.343
87667W        W59393  26.218   2.123  10.737
87668W        W59394  38.247  37.051  10.707
87669W        W59395  18.008  13.135   1.296
87670W        W59396  25.603  39.430  11.495
87671W        W59397  19.700  38.792  14.942
87672W        W59398  27.537  44.251  10.489
87673W        W59399  11.203  24.514  14.883
87674W        W59400   4.934  32.611   1.795
87675W        W59401   7.413  22.099   4.587
87676W        W59402  14.070  21.679   0.809
87677W        W59403   9.882  22.112  10.610
87678W        W59404  33.837  15.264   2.779
87679W        W59405  38.541  30.383   2.689
87680W        W59406  34.398  16.381  13.455
87681W        W59407  19.495  43.514  14.510
87682W        W59408   6.967   7.444   5.105
87683W        W59409  24.661   3.228  14.761
87684W        W59410  40.082  30.363   1.866
87685W        W59411  25.420  15.771   0.854
87686W        W59412  33.514  17.942  10.664
87687W        W59413  16.574   2.385  10.809
87688W        W59414  12.400  19.997  12.493
87689W        W59415   4.898  27.757   0.891
87690W        W59416  43.624  26.889  11.198
87691W        W59417  22.539  15.734   1.296
87692W        W59418   1.250  20.699   3.672
87693W        W59419   5.871   7.434   1.628
87694W        W59420  28.380  31.129  13.911
87695W        W59421  23.156  20.155  11.083
87696W        W59422  24.652  14.761   0.056
87697W        W59423  35.971   8.316   0.233
87698W        W59424  32.076   2.984   4.157
87699W        W59425   9.801   3.709  14.746
87700W        W59426  38.469  40.543   1.252
87701W        W59427  17.843  43.711   2.348
87702W        W59428  28.011  25.113   0.509
87703W        W59429  16.075  15.633   2.715
87704W        W59430  17.152  10.806  13.951
87705W        W59431  10.233  29.520  13.239
87706W        W59432  18.692  40.431  13.904
87707W        W59433  28.581  39.985   4.727
87708W        W59434   3.263   6.381   3.722
87709W        W59435  26.449  30.909  13.094
87710W        W59436   0.055  21.811  14.706
87711W        W59437   2.933  29.564   4.622
87712W        W59438  25.270  16.131  10.699
87713W        W59439  31.537  20.319  13.722
87714W        W59440  38.958  12.459   0.904
87715W        W59441  17.313  36.638  12.875
87716W        W59442  16.998  17.477  12.848
87717W        W59443  20.195   6.147   1.345
87718W        W59444  28.494  28.543  10.985
87719W        W59445  42.614  15.194   1.856
87720W        W59446  27.797  11.811  10.159
87721W        W59447   3.324  32.885   0.313
87722W        W59448  43.417  15.679   3.108
87723W        W59449  41.029  39.426   0.610
87724W        W59450  30.777  13.114   1.052
87725W        W59451  18.235  10.824  13.772
87726W        W59452   0.010  22.731  12.531
87727W        W59453  22.675  34.354  10.563
87728W        W59454  25.209  36.340  12.983
87729W        W59455  21.103   1.409  12.196
87730W        W59456  43.930  31.463  12.423
87731W        W59457  12.747  24.297   3.326
87732W        W59458  26.009  16.308  13.129
87733W        W59459   8.662  38.461   3.753
87734W        W59460  13.158  41.913  14.309
87735W        W59461   4.929  15.797   3.613
87736W        W59462  29.417  30.359  14.790
87737W        W59463  32.810  13.085   2.891
87738W        W59464  14.292  37.100  11.960
87739W        W59465  37.523  38.933   4.504
87740W        W59466  32.453   5.659  12.392
87741W        W59467  20.504  44.682  13.042
87742W        W59468  21.268  37.362   5.165
87743W        W59469  25.965  28.638  12.865
87744W        W59470  13.812  20.582   2.900
87745W        W59471   7.579  20.152  11.985
87746W        W59472  31.529  20.202   2.941
87747W        W59473  20.022   1.547  13.571
87748W        W59474   2.569  42.336  14.986
87749W        W59475  44.898  43.269   0.774
87750W        W59476  37.387  36.534   2.801
87751W        W59477  29.998  31.650   4.593
87752W        W59478   1.955   4.198  11.455
87753W        W59479   9.840  21.859   2.260
87754W        W59480   3.439  17.087  14.969
87755W        W59481  28.034  43.664   5.107
87756W        W59482   2.998  22.992  13.297
87757W        W59483  31.281  36.182   2.515
87758W        W59484  38.328  21.754   2.766
87759W        W59485  21.535   9.820  10.646
87760W        W59486  29.089  20.451   3.279
87761W        W59487  44.729  24.096   1.001
87762W        W59488  42.704  36.438  12.629
87763W        W59489  18.980  25.136   5.072
87764W        W59490  36.913   8.365   3.714
87765W        W59491  40.682  37.443  14.125
87766W        W59492  42.559  23.997  10.657
87767W        W59493  18.993  18.861   2.358
87768W        W59494  11.409  10.617   2.866
87769W        W59495  31.120  32.330   0.702
87770W        W59496   3.564  29.735  13.429
87771W        W59497  34.441   7.500  13.018
87772W        W59498  13.066   9.140  10.304
87773W        W59499  12.620  41.385  10.988
87774W        W59500  42.272  11.745   1.797
87775W        W59501   2.646  17.331   1.268
87776W        W59502  40.309  19.618   0.368
87777W        W59503  38.108  42.439   3.910
87778W        W59504  21.050  36.434  14.382
87779W        W59505  28.695  36.927   1.801
87780W        W59506  10.328   3.486  11.169
87781W        W59507  11.927  30.613  13.295
87782W        W59508  42.341   5.774   0.944
87783W        W59509  40.373   2.028   1.870
87784W        W59510  37.314  23.707   3.290
87785W        W59511  32.836  44.847   1.288
87786W        W59512  38.911  24.935  12.377
87787W        W59513  27.416   7.867   0.791
87788W        W59514  42.290  39.602  10.913
87789W        W59515   9.412  39.447  13.037
87790W        W59516  38.274  22.792   4.087
87791W        W59517  20.699   5.021   2.684
87792W        W59518  39.201  34.040  11.057
87793W        W59519  13.829  15.293  11.891
87794W        W59520  44.767  41.841   3.301
87795W        W59521  41.042  37.024  14.790
87796W        W59522   1.686  36.412   3.561
87797W        W59523   9.294  11.983  14.464
87798W        W59524  16.384  43.816  13.505
87799W        W59525  17.696  30.863   1.967
87800W        W59526   9.062  27.624  13.880
87801W        W59527  37.638  43.355   2.731
87802W        W59528  12.436  26.677  13.325
87803W        W59529  19.673  18.053  12.050
87804W        W59530  32.843   3.265  11.599
87805W        W59531  22.546  25.619   5.379
87806W        W59532  30.494  42.975  11.512
87807W        W59533  43.031  17.335  14.271
87808W        W59534  25.142  36.906   2.835
87809W        W59535  43.951  41.341  13.634
87810W        W59536  44.765  40.215  10.221
87811W        W59537  11.897   3.852   4.527
87812W        W59538  10.203  11.342  11.951
87813W        W59539  39.766  18.158  12.524
87814W        W59540  14.212  18.302  11.749
87815W        W59541  32.030  40.324  11.236
87816W        W59542  38.452  33.985   2.448
87817W        W59543  25.714  36.132   1.446
87818W        W59544  27.727  42.564   1.624
87819W        W59545  10.214  39.437   4.132
87820W        W59546  22.020  28.259   9.748
87821W        W59547  34.028  24.224  11.781
87822W        W59548   2.660   9.396   3.762
87823W        W59549  14.610  39.898   9.780
87824W        W59550  37.677  35.610   3.594
87825W        W59551  27.238  29.481   3.179
87826W        W59552  33.861  23.603   1.265
87827W        W59553  29.289  19.207   2.633
87828W        W59554  26.381   2.442   0.997
87829W        W59555   8.150  30.338   2.694
87830W        W59556   3.476  43.476   2.366
87831W        W59557  29.988  25.983  11.066
87832W        W59558  27.190  36.367  11.461
87833W        W59559  44.875   1.380   0.896
87834W        W59560  33.053  10.223   4.579
87835W        W59561  16.566  26.741   2.328
87836W        W59562  33.894  28.975  14.943
87837W        W59563   4.749  17.775   0.480
87838W        W59564  32.626  26.167  14.283
87839W        W59565  38.840   6.381  12.331
87840W        W59566  18.800   9.591  11.505
87841W        W59567  18.495  34.472   4.084
87842W        W59568  24.079  43.335  10.649
87843W        W59569  11.965   6.145   4.350
87844W        W59570  16.644  16.149   3.875
87845W        W59571  34.946   6.947  10.375
87846W        W59572  28.346   5.040  14.305
87847W        W59573  37.296  18.158   4.727
87848W        W59574  29.450  13.703  13.375
87849W        W59575  18.000  38.862  12.867
87850W        W59576  42.779   8.154   0.463
87851W        W59577   1.988  31.435   2.239
87852W        W59578  39.363  40.573  12.554
87853W        W59579  24.759  16.375  11.292
87854W        W59580  11.182  21.720   1.895
87855W        W59581  18.255  43.764   2.018
87856W        W59582  33.275  44.029  10.490
87857W        W59583  10.231  17.257  14.317
87858W        W59584  34.008  28.437  12.707
87859W        W59585  24.307  19.414  14.599
87860W        W59586  27.188  42.951  10.643
87861W        W59587  37.458  13.641  11.543
87862W        W59588  31.681  40.061  12.940
87863W        W59589  23.694  40.535  11.165
87864W        W59590  20.267   2.219   1.887
87865W        W59591  33.055   9.129  12.507
87866W        W59592  16.317  17.672   3.764
87867W        W59593   3.438   4.957   2.316
87868W        W59594  39.787  32.072  13.760
87869W        W59595  34.221  15.279  13.959
87870W        W59596  29.841  14.668   1.488
87871W        W59597  38.002   0.078   3.269
87872W        W59598   4.935  43.757  10.639
87873W        W59599  24.702  33.450  14.449
87874W        W59600  32.132  14.559  14.379
87875W        W59601  11.815   3.297   4.535
87876W        W59602   2.282  34.979   3.056
87877W        W59603  10.434  35.420   4.006
87878W        W59604  38.540   2.907  11.620
87879W        W59605  44.235  29.540  12.548
87880W        W59606   3.442   4.991  14.734
87881W        W59607  38.423  19.010   0.745
87882W        W59608  19.659   3.440  14.189
87883W        W59609   5.073  11.538   9.826
87884W        W59610   7.324  20.016   1.651
87885W        W59611  36.348  43.929   4.232
87886W        W59612  42.542  10.098  13.039
87887W        W59613  18.145   5.277   0.778
87888W        W59614  31.949  21.045  11.048
87889W        W59615  23.861  34.142   4.415
87890W        W59616   9.115  12.805  11.013
87891W        W59617  40.905   7.864   1.817
87892W        W59618  26.439  42.345  11.682
87893W        W59619  44.497  11.257  11.206
87894W        W59620   3.100  18.432   0.786
87895W        W59621  43.751   3.198   4.118
87896W        W59622  30.574  17.622   2.783
87897W        W59623  40.652   7.433   1.948
87898W        W59624  29.269   4.775  13.464
87899W        W59625  17.070  21.585  12.407
87900W        W59626  15.782  17.607  13.995
87901W        W59627  39.997  31.539  11.607
87902W        W59628  15.783  36.461   4.620
87903W        W59629  34.447   3.877  12.022
87904W        W59630  32.578  19.025   3.744
87905W        W59631  22.950   3.228  12.560
87906W        W59632  36.908  14.090   1.000
87907W        W59633  35.701   3.816  10.465
87908W        W59634  11.451   4.935   1.815
87909W        W59635  11.201  14.714   2.279
87910W        W59636  39.433  37.974  12.444
87911W        W59637   2.062  43.421   2.809
87912W        W59638  36.104  18.065   0.795
87913W        W59639  20.670  11.729   5.009
87914W        W59640  23.134  13.316   0.479
87915W        W59641  10.836  25.552  13.373
87916W        W59642  39.434  28.560   0.803
87917W        W59643  20.338  19.560  13.966
87918W        W59644  24.777  34.634   0.327
87919W        W59645   7.368   3.820   2.832
87920W        W59646  22.990  44.428  14.874
87921W        W59647  40.776  41.091   4.845
87922W        W59648   0.153  10.066  13.922
87923W        W59649   7.340  32.959  10.892
87924W        W59650   8.743  37.434   2.889
87925W        W59651  16.258  43.753   1.809
87926W        W59652  36.002  19.307  10.556
87927W        W59653   6.652  34.939   3.584
87928W        W59654  38.957  22.587   5.047
87929W        W59655   1.552  33.904   2.724
87930W        W59656  16.138   2.534   4.296
87931W        W59657   6.175  25.264   3.686
87932W        W59658  43.659  35.796   4.654
87933W        W59659  18.539  22.473  12.230
87934W        W59660   9.162  43.343  12.555
87935W        W59661  17.706  34.139  13.533
87936W        W59662  30.959  40.621  10.468
87937W        W59663  16.572   3.559   5.013
87938W        W59664  21.854  22.732  10.772
87939W        W59665  10.504  30.128   0.472
87940W        W59666  22.815  27.077   4.210
87941W        W59667  12.113  10.141  13.874
87942W        W59668  33.540  39.947   4.154
87943W        W59669  36.375   8.914  14.514
87944W        W59670  11.552   6.299  10.372
87945W        W59671   8.235  20.587  11.748
87946W        W59672  33.863  15.261   1.275
87947W        W59673  12.865  10.246   4.734
87948W        W59674   7.816   8.116  12.080
87949W        W59675  13.538  44.315  13.466
87950W        W59676  16.756  30.207   1.441
87951W        W59677  37.328  15.153  11.395
87952W        W59678   8.632  34.098  11.165
87953W        W59679  41.041  40.876   3.273
87954W        W59680   5.405  24.534   4.319
87955W        W59681   8.093   7.525   0.388
87956W        W59682  17.517  31.939   2.467
87957W        W59683  43.844  44.921  11.493
87958W        W59684  40.856   7.848  11.825
87959W        W59685  17.707  35.337   2.288
87960W        W59686  18.214   4.406  10.582
87961W        W59687   4.231  39.939  11.914
87962W        W59688   6.208  14.924  10.490
87963W        W59689  15.250  26.426  14.250
87964W        W59690   4.906  28.440   3.394
87965W        W59691  31.842  14.916   0.696
87966W        W59692   7.152  30.225   0.692
87967W        W59693   8.900  26.028   4.620
87968W        W59694   5.895  11.660   0.456
87969W        W59695  31.110  38.556  12.630
87970W        W59696  43.708   5.899  11.977
87971W        W59697  32.419  39.757   2.633
87972W        W59698  44.600  19.728   4.227
87973W        W59699  35.826  34.462  14.967
87974W        W59700  10.136  32.645   2.437
87975W        W59701  44.485  10.591   0.047
87976W        W59702  15.720  31.643   4.640
87977W        W59703   6.944  38.488   0.828
87978W        W59704  23.215  27.564   0.366
87979W        W59705  43.799  28.148   1.232
87980W        W59706  37.925  44.503  12.473
87981W        W59707  21.437   5.318   2.872
87982W        W59708  43.939  18.115   0.133
87983W        W59709  20.505  36.424  14.163
87984W        W59710  33.544  40.696   3.585
87985W        W59711  16.354  16.100  13.314
87986W        W59712  27.422   1.471  13.843
87987W        W59713   8.591  23.199   4.729
87988W        W59714  29.229  13.351  14.258
87989W        W59715  13.213  44.079   2.220
87990W        W59716  14.328  15.629  10.654
87991W        W59717  35.922  30.056   0.691
87992W        W59718  26.097  37.464  13.050
87993W        W59719   5.454  34.129  12.057
87994W        W59720  39.460  14.974  14.976
87995W        W59721  40.693  22.711  10.738
87996W        W59722  43.149  30.831   1.214
87997W        W59723  35.364  43.716  12.517
87998W        W59724  18.048  37.440   1.326
87999W        W59725  32.376  20.987   2.186
88000W        W59726  27.151  29.737  14.463
88001W        W59727  41.518  21.734   3.312
88002W        W59728  25.900   5.504   2.828
88003W        W59729   7.181  27.445  13.033
88004W        W59730  42.540  31.940   0.774
88005W        W59731  23.002  15.554   0.411
88006W        W59732  14.572  41.118   0.998
88007W        W59733   4.692  39.485   4.496
88008W        W59734  26.371   3.965   0.871
88009W        W59735  44.735   7.230   3.687
88010W        W59736   3.932   4.693   1.536
88011W        W59737  24.617  15.694   3.745
88012W        W59738   3.254   2.741   4.754
88013W        W59739  38.372  18.674  14.816
88014W        W59740  43.546  41.917  14.033
88015W        W59741  12.811  33.840  10.626
88016W        W59742  16.849  42.928   3.343
88017W        W59743   2.515  42.838   4.519
88018W        W59744  22.557  39.836  13.438
88019W        W59745  13.623  16.820  11.123
88020W        W59746  15.151  19.190   0.555
88021W        W59747  29.028  24.517   1.476
88022W        W59748  16.311  20.393   1.325
88023W        W59749  17.244   4.237   4.085
88024W        W59750  22.621  35.814   0.944
88025W        W59751  10.272  18.157   4.231
88026W        W59752  36.230   5.357   2.919
88027W        W59753  44.247  23.090  11.639
88028W        W59754   3.162  20.925   9.979
88029W        W59755  43.999  25.171   3.198
88030W        W59756  42.974   5.504  14.587
88031W        W59757  21.532  33.065   3.097
88032W        W59758  31.021  20.756  11.367
88033W        W59759  34.421  40.380  14.255
88034W        W59760  14.158  42.457  14.289
88035W        W59761  31.455  21.785  13.386
88036W        W59762  43.338  24.238   0.351
88037W        W59763   4.300  32.467  10.716
88038W        W59764  43.600  14.307   4.122
88039W        W59765  11.263  32.035  10.686
88040W        W59766  40.375   6.393  11.234
88041W        W59767  24.958  26.991   3.879
88042W        W59768  43.679  16.733  13.928
88043W        W59769  21.480  39.843  11.011
88044W        W59770  44.198  43.341   0.404
88045W        W59771  39.283  28.201  13.819
88046W        W59772  23.683   4.694   4.855
88047W        W59773   7.033   5.242   3.698
88048W        W59774   9.284   7.634  11.027
88049W        W59775  27.495  22.574  13.139
88050W        W59776  20.549   1.436   4.567
88051W        W59777  33.114  27.675  12.874
88052W        W59778  35.081   3.332   2.579
88053W        W59779  43.982  28.006   2.738
88054W        W59780  31.712  21.267  11.476
88055W        W59781  20.195  27.514   1.798
88056W        W59782  29.571  17.826  13.965
88057W        W59783  44.477  27.604  12.527
88058W        W59784  37.961   7.458  11.045
88059W        W59785  42.463   6.750   4.237
88060W        W59786  29.510  41.806  14.311
88061W        W59787  36.411  24.275  11.989
88062W        W59788  40.517   2.905  14.536
88063W        W59789   3.894  11.863   3.758
88064W        W59790   9.009  22.926  13.331
88065W        W59791  12.699  33.394   0.369
88066W        W59792  20.079  17.358  13.446
88067W        W59793  17.210  30.568  10.057
88068W        W59794  42.332  27.134   0.910
88069W        W59795  25.078  25.696  11.093
88070W        W59796  27.809  43.716  10.139
88071W        W59797  43.313  20.032   2.858
88072W        W59798  25.209  18.331   2.328
88073W        W59799   0.296  42.527  12.772
88074W        W59800   3.800  30.140   4.599
88075W        W59801  11.642  21.150  12.470
88076W        W59802  44.378  34.544   3.601
88077W        W59803  30.679   5.393  10.360
88078W        W59804  26.562  44.014  14.508
88079W        W59805  32.425  28.641   3.038
88080W        W59806  11.364  33.564   1.435
88081W        W59807  41.383  29.220   4.213
88082W        W59808  13.193  23.090   3.690
88083W        W59809  43.267   6.248  12.324
88084W        W59810   6.891   0.773  14.043
88085W        W59811   0.837  21.291   0.841
88086W        W59812  29.395  32.388  14.857
88087W        W59813   1.318  35.759   2.771
88088W        W59814  12.428  15.567   3.258
88089W        W59815  37.507  19.340   0.559
88090W        W59816  29.451   8.057  11.082
88091W        W59817  31.193  36.508  13.837
88092W        W59818   3.841  38.247   2.971
88093W        W59819   1.312  12.624  13.414
88094W        W59820  27.738  29.636   1.753
88095W        W59821  35.752   3.906  12.257
88096W        W59822  24.520  16.307   1.896
88097W        W59823  26.312  12.644  10.708
88098W        W59824  40.754  11.918   3.229
88099W        W59825  29.431  37.406  11.035
88100W        W59826   1.957  12.895   4.608
88101W        W59827  16.318  40.333  13.482
88102W        W59828  43.423  18.634   0.790
88103W        W59829  28.021  26.651  12.791
88104W        W59830  20.040  34.860  10.609
88105W        W59831  21.570   3.454  14.388
88106W        W59832  10.687   7.364  12.981
88107W        W59833  37.903   3.254  14.736
88108W        W59834   6.935  39.235   1.985
88109W        W59835  26.270   6.854   0.861
88110W        W59836  15.712   6.999   3.750
88111W        W59837  28.988  19.282  11.541
88112W        W59838  43.884   7.553  12.482
88113W        W59839  12.640  24.203   1.326
88114W        W59840  38.154  22.290   4.122
88115W        W59841  43.730   7.406   4.607
88116W        W59842  30.353  15.734   4.263
88117W        W59843   9.722  10.734   3.672
88118W        W59844  34.011  28.637  14.152
88119W        W59845   9.819  22.173   1.811
88120W        W59846  31.058  18.659  14.348
88121W        W59847  29.444  28.001  11.685
88122W        W59848  42.366  25.666   4.188
88123W        W59849  40.473  12.243   4.229
88124W        W59850  20.865  23.521  10.158
88125W        W59851  11.175  11.755   4.589
88126W        W59852  37.979   0.859   2.104
88127W        W59853  43.505   6.637   1.245
88128W        W59854  36.924  25.371  14.359
88129W        W59855  38.326  21.240   0.066
88130W        W59856  30.414  20.511  13.860
88131W        W59857  40.326  16.741  13.315
88132W        W59858  38.626  17.720   4.902
88133W        W59859  38.035  21.970   1.870
88134W        W59860  28.612  23.296  11.895
88135W        W59861  44.735   4.959   2.814
88136W        W59862   5.799  16.418   2.189
88137W        W59863  41.926  36.710  14.517
88138W        W59864  19.726  37.038  10.920
88139W        W59865  15.084   6.666   0.059
88140W        W59866  38.454  36.624   1.850
88141W        W59867  26.487  18.980   0.293
88142W        W59868  10.678  18.786   4.577
88143W        W59869  17.178  39.605  12.622
88144W        W59870   2.529  13.664   1.944
88145W        W59871   0.608   7.414   1.900
88146W        W59872   6.607  15.589   0.668
88147W        W59873   3.902  41.166  12.976
88148W        W59874   6.290   0.223   3.665
88149W        W59875  18.674  17.453  13.112
88150W        W59876   8.616  20.900  14.806
88151W        W59877  24.480  35.847  14.363
88152W        W59878  21.758  28.421   1.051
88153W        W59879   1.959  36.420   1.763
88154W        W59880  25.493  27.646   3.214
88155W        W59881  28.376  24.854   4.920
88156W        W59882  38.761  42.758   3.783
88157W        W59883  12.471  14.643   3.318
88158W        W59884  13.477   7.974  13.863
88159W        W59885   4.383  27.901   2.934
88160W        W59886  41.278  10.706  11.394
88161W        W59887  31.653  41.120   4.874
88162W        W59888  27.941   0.015  14.295
88163W        W59889  16.111   4.489   0.035
88164W        W59890   6.913   2.451  14.909
88165W        W59891  11.104  44.864   0.709
88166W        W59892  40.845  40.519   1.043
88167W        W59893   0.338  20.563  12.902
88168W        W59894   5.936  10.836   2.327
88169W        W59895   3.270  30.379  14.312
88170W        W59896  24.735   8.159   4.652
88171W        W59897  11.840  21.626   3.852
88172W        W59898   6.192  25.983  13.034
88173W        W59899   7.153   6.989   3.275
88174W        W59900  41.717  35.582  13.383
88175W        W59901  41.340  14.811   3.260
88176W        W59902   5.694  26.129   0.434
88177W        W59903   4.744  32.098   4.549
88178W        W59904  25.966  36.930   1.928
88179W        W59905  21.804  22.693   1.817
88180W        W59906  14.830   5.029   2.536
88181W        W59907  31.393  11.979   4.752
88182W        W59908  25.760  38.432   3.121
88183W        W59909  15.904   7.751   0.314
88184W        W59910  37.072  15.569  11.587
88185W        W59911  22.611  39.390  12.463
88186W        W59912  17.101  14.552   1.046
88187W        W59913  35.066   3.338  13.469
88188W        W59914  43.236  38.000  13.994
88189W        W59915  37.509   0.829  12.460
88190W        W59916   2.224  17.097  13.653
88191W        W59917  36.415  16.110   2.321
88192W        W59918   3.154  10.964   2.861
88193W        W59919  11.448  33.443   4.025
88194W        W59920  22.480  40.432  12.588
88195W        W59921  42.725  10.705  12.068
88196W        W59922  19.482  38.956   2.303
88197W        W59923  16.281  31.026   4.816
88198W        W59924  13.188  21.585   1.038
88199W        W59925  23.273  36.728   2.774
88200W        W59926  32.187  40.974  12.969
88201W        W59927   5.497  38.760   0.765
88202W        W59928   4.264  38.523   2.845
88203W        W59929  41.413  40.326  11.297
88204W        W59930  43.220  10.906   4.414
88205W        W59931  20.638  12.634  13.484
88206W        W59932  26.499  30.270  14.459
88207W        W59933   9.216  15.738  12.312
88208W        W59934  39.083  35.521  12.457
88209W        W59935  30.021  22.356  13.898
88210W        W59936   1.502  19.262   1.182
88211W        W59937  28.221  26.030  12.092
88212W        W59938   8.327  10.489  13.513
88213W        W59939  13.270  23.004  13.299
88214W        W59940  37.308  25.060  13.500
88215W        W59941   0.355  24.213   3.623
88216W        W59942  43.517  14.182   2.826
88217W        W59943  33.954   8.360   1.288
88218W        W59944  32.497  22.262   3.509
88219W        W59945  40.509  27.484  12.073
88220W        W59946  21.572  19.592   0.577
88221W        W59947  25.066  44.460   4.231
88222W        W59948   9.422  29.015   0.255
88223W        W59949  34.883  39.107   2.451
88224W        W59950  13.091   3.753   3.687
88225W        W59951  24.497  32.685   0.549
88226W        W59952  42.450  28.925   1.279
88227W        W59953  31.620  28.913  13.789
88228W        W59954  21.816  32.968   4.110
88229W        W59955  33.974   1.341  11.520
88230W        W59956  32.425  31.979  13.789
88231W        W59957  17.101  29.890   0.270
88232W        W59958  43.773  13.801   4.243
88233W        W59959   7.968   0.683   3.006
88234W        W59960  40.291  30.412  13.449
88235W        W59961  37.975  34.353   1.353
88236W        W59962  26.068  32.700  11.939
88237W        W59963  29.860  33.480  14.920
88238W        W59964  36.395  15.860   0.539
88239W        W59965  31.107  42.942   1.812
88240W        W59966  32.044  17.241   2.639
88241W        W59967   4.297   9.933   4.498
88242W        W59968  41.820  35.690  10.992
88243W        W59969  41.777  41.277  11.139
88244W        W59970  34.621   6.808   4.667
88245W        W59971  19.462  34.582   0.002
88246W        W59972  39.108   1.846  14.405
88247W        W59973  13.210   7.143   3.221
88248W        W59974  37.122  37.073   1.977
88249W        W59975   7.579  30.869   3.367
88250W        W59976  13.578  10.148   3.173
88251W        W59977  35.044  13.042   4.951
88252W        W59978  17.987  17.852  13.472
88253W        W59979   8.918  25.859   2.520
88254W        W59980  34.626  20.688  12.485
88255W        W59981  17.301  17.581  11.587
88256W        W59982  32.890  23.135   0.803
88257W        W59983  13.454  11.848  12.015
88258W        W59984   3.817  43.111   1.756
88259W        W59985  28.236  22.758   0.286
88260W        W59986  12.307  43.785   1.745
88261W        W59987   6.763  20.047  12.393
88262W        W59988   8.965  12.791  13.435
88263W        W59989   3.340  31.806   0.406
88264W        W59990  15.145   7.649  12.058
88265W        W59991  33.365   1.489   1.011
88266W        W59992  44.867  37.073  10.652
88267W        W59993   8.821  29.778   5.162
88268W        W59994   1.471   8.095   0.927
88269W        W59995  18.291  18.226   0.518
88270W        W59996  12.926  27.638  12.727
88271W        W59997  16.779   9.175  13.992
88272W        W59998  36.241   8.773  10.993
88273W        W59999  17.615  27.037  11.502
88274W        W60000  29.673  12.243   2.615
88275W        W60001  34.372  28.382  13.483
88276W        W60002   4.155  10.348  13.341
88277W        W60003   2.479   6.721  13.807
88278W        W60004  17.159  25.552  12.515
88279W        W60005  42.749  12.438   1.662
88280W        W60006  16.031  19.118   3.062
88281W        W60007   8.717  11.396  11.528
88282W        W60008  32.640  30.563  12.395
88283W        W60009  40.139   5.998   3.709
88284W        W60010   7.891  22.482  14.333
88285W        W60011  19.985   2.411   3.677
88286W        W60012  29.029   6.701   0.244
88287W        W60013   3.920  35.418  14.897
88288W        W60014  13.224  24.724  14.570
88289W        W60015  36.990  14.595   3.978
88290W        W60016   2.623  41.466   3.091
88291W        W60017  39.593  28.591  10.640
88292W        W60018   5.067  34.446  11.126
88293W        W60019  20.741  18.614  13.035
88294W        W60020  11.257  35.080  12.156
88295W        W60021  44.459   1.849   4.877
88296W        W60022  27.116  30.025   2.210
88297W        W60023   9.352  24.082  14.956
88298W        W60024  12.601  32.016   3.799
88299W        W60025  33.915   2.526  13.834
88300W        W60026  24.694  17.878  11.153
88301W        W60027  37.959  14.673  12.386
88302W        W60028  17.035   6.697  12.963
88303W        W60029   2.700  28.907   1.189
88304W        W60030  14.773  25.699   3.279
88305W        W60031  30.421  23.659   3.244
88306W        W60032  26.757  22.659  14.537
88307W        W60033  31.592   1.298   4.099
88308W        W60034   3.614  33.020  11.618
88309W        W60035  26.532   1.978   2.744
88310W        W60036  19.258  19.490   3.160
88311W        W60037  40.596  39.405   2.866
88312W        W60038  16.706  39.255   2.996
88313W        W60039  42.062  41.456  13.296
88314W        W60040  35.946  34.640  12.938
88315W        W60041  17.525   8.096   0.026
88316W        W60042  16.465  18.678   4.193
88317W        W60043   1.108  37.753   4.696
88318W        W60044  19.802  16.833  11.526
88319W        W60045  36.542   1.844  11.456
88320W        W60046  12.228  41.464   1.103
88321W        W60047  25.395  36.817  12.109
88322W        W60048   7.776   5.826   1.785
88323W        W60049   4.812  35.082   1.957
88324W        W60050  23.480  40.024  12.484
88325W        W60051  28.040  30.118   3.236
88326W        W60052  20.672   9.441   3.237
88327W        W60053  10.066  34.076   1.343
88328W        W60054   2.136  31.922   3.248
88329W        W60055  41.347   2.750   4.379
88330W        W60056  13.044   4.969   2.182
88331W        W60057   2.922  16.504   0.565
88332W        W60058  27.108  40.878   3.671
88333W        W60059  42.977  16.867  12.053
88334W        W60060  21.488  24.577  13.972
88335W        W60061  27.955  38.397  14.385
88336W        W60062  21.092   5.285   2.475
88337W        W60063  35.884  16.266  12.778
88338W        W60064  12.197   7.588  14.791
88339W        W60065   3.662   8.584   1.748
88340W        W60066  28.969   7.273   4.572
88341W        W60067  43.193   4.210   2.741
88342W        W60068  16.371  31.234   1.963
88343W        W60069  38.869  25.391   1.231
88344W        W60070  44.451   8.427  12.552
88345W        W60071  13.147  30.543  13.600
88346W        W60072  19.229  37.321  12.329
88347W        W60073  12.934  15.169  11.196
88348W        W60074  27.482  23.062  12.902
88349W        W60075   7.180  11.800   2.780
88350W        W60076  31.950  23.039  12.520
88351W        W60077  36.076  28.509   3.337
88352W        W60078  42.786  32.045  13.392
88353W        W60079  44.285  18.232   4.702
88354W        W60080  22.229  43.789   3.115
88355W        W60081  36.313   5.244   4.271
88356W        W60082  23.563  41.847  12.593
88357W        W60083  10.124  11.605   2.731
88358W        W60084  32.616  27.544  14.929
88359W        W60085  13.482  19.104  11.598
88360W        W60086  21.830  19.934   0.925
88361W        W60087  38.011  25.936  14.408
88362W        W60088  30.430  44.039  14.864
88363W        W60089  21.654  17.680   2.199
88364W        W60090  27.571  40.415  10.543
88365W        W60091  34.567  16.611  13.027
88366W        W60092  28.065  29.434   1.399
88367W        W60093  19.568  25.922   0.902
88368W        W60094  31.273   7.142  10.107
88369W        W60095   7.251  30.649   1.742
88370W        W60096  15.633  16.733   5.184
88371W        W60097  27.033   8.911  12.904
88372W        W60098  34.144  44.523  13.716
88373W        W60099   2.821  29.260  12.979
88374W        W60100  44.880  14.814   0.822
88375W        W60101  23.559  18.519  14.030
88376W        W60102   1.824  15.488   4.524
88377W        W60103  33.415  23.619   3.675
88378W        W60104  29.729  41.108   0.828
88379W        W60105   1.381  28.602  13.454
88380W        W60106   4.567   3.486  12.127
88381W        W60107  22.468  42.053   0.356
88382W        W60108  10.928   4.211  13.865
88383W        W60109  39.137   6.872   9.915
88384W        W60110  13.763   0.984  12.929
88385W        W60111  18.009  34.931  13.005
88386W        W60112  34.177   3.696   4.929
88387W        W60113  25.494  12.841  12.497
88388W        W60114  25.192  27.994   1.158
88389W        W60115  16.578  44.351   3.185
88390W        W60116  37.907  33.487   2.755
88391W        W60117   4.778  19.395   3.164
88392W        W60118   9.921  10.369  11.168
88393W        W60119   7.487  42.746  11.953
88394W        W60120   5.326  31.159   3.844
88395W        W60121  40.785   9.063  13.216
88396W        W60122  42.809  25.135   4.862
88397W        W60123   8.180  28.599   0.403
88398W        W60124   6.453  14.659  13.562
88399W        W60125  40.407  21.756  10.710
88400W        W60126  27.520  29.719  10.685
88401W        W60127   5.438  15.311  12.485
88402W        W60128  24.941  24.217   0.876
88403W        W60129   8.812   3.385   3.291
88404W        W60130  12.150  25.500  13.844
88405W        W60131   3.519   2.718   2.897
88406W        W60132  33.947  42.415   4.740
88407W        W60133  30.884  16.160  13.972
88408W        W60134  19.457  35.289  12.447
88409W        W60135  34.822  26.558   2.143
88410W        W60136  27.548  34.573   2.762
88411W        W60137  26.487  27.818   0.839
88412W        W60138  21.611  24.751   4.582
88413W        W60139  24.228   5.966   1.205
88414W        W60140   1.593  17.293  10.443
88415W        W60141  38.574   3.341   1.698
88416W        W60142  41.476  34.585  12.192
88417W        W60143  17.120  35.087   3.552
88418W        W60144  32.437  31.652   3.441
88419W        W60145  21.286  32.077  11.922
88420W        W60146  30.043  10.843  14.987
88421W        W60147  37.569  20.876   3.663
88422W        W60148   6.174   8.202   2.012
88423W        W60149  25.364   9.058   3.775
88424W        W60150  24.116  10.693   2.781
88425W        W60151  21.596  21.622   1.216
88426W        W60152   2.387  37.635   1.873
88427W        W60153  22.202  40.066  13.874
88428W        W60154  40.916  16.797  13.301
88429W        W60155  41.761   8.709  12.596
88430W        W60156  11.140  38.065  12.925
88431W        W60157  31.472  26.302  11.166
88432W        W60158  14.159  12.535  11.913
88433W        W60159  22.028  37.590  14.969
88434W        W60160  42.794  41.370  10.466
88435W        W60161  28.872  16.051  13.360
88436W        W60162  29.930  37.170   0.839
88437W        W60163  40.508  13.633   0.971
88438W        W60164  37.490  11.884   0.889
88439W        W60165   3.227  40.442   1.297
88440W        W60166  43.999   3.064  12.430
88441W        W60167  33.374   4.929   0.831
88442W        W60168  36.510  32.161  14.668
88443W        W60169  10.180  16.194  14.292
88444W        W60170  15.171   4.171  13.983
88445W        W60171  13.195  20.802   0.367
88446W        W60172   6.712   0.959  14.925
88447W        W60173  24.125   4.054  14.802
88448W        W60174   8.443  10.728  14.018
88449W        W60175  24.409   9.248   3.808
88450W        W60176   2.407   5.474  12.480
88451W        W60177  10.414  12.221   0.386
88452W        W60178  40.430  12.599  10.675
88453W        W60179  40.359   0.052  10.483
88454W        W60180  37.745   4.195  12.508
88455W        W60181  22.509  21.376  12.465
88456W        W60182  42.585  27.091  13.509
88457W        W60183  21.515  36.025   4.528
88458W        W60184  17.615  27.067  12.465
88459W        W60185  13.610   7.959   2.294
88460W        W60186  27.530  33.051   3.642
88461W        W60187  29.580  32.862   0.932
88462W        W60188  17.207  21.139  12.155
88463W        W60189  11.923  21.090  14.846
88464W        W60190  41.288   9.243  14.984
88465W        W60191  17.740  40.834  13.881
88466W        W60192  20.996  24.578  13.758
88467W        W60193  32.953  26.195   1.727
88468W        W60194  38.416  39.423   3.758
88469W        W60195  30.052  35.169   0.727
88470W        W60196  17.257  21.995   1.341
88471W        W60197  22.808  39.931  14.494
88472W        W60198  23.947  26.712  12.574
88473W        W60199  20.767  36.366  10.399
88474W        W60200  44.254  14.300  10.322
88475W        W60201  14.098  24.441   2.651
88476W        W60202   8.873  27.716  12.520
88477W        W60203  13.723  20.332  12.309
88478W        W60204  41.863  12.318  13.504
88479W        W60205  15.642  15.524  10.347
88480W        W60206   2.501  38.635  11.500
88481W        W60207  16.615  21.770   2.668
88482W        W60208  32.189   0.767  14.525
88483W        W60209  38.599  20.847   1.369
88484W        W60210  14.920  24.968  12.067
88485W        W60211  35.879   6.229   0.756
88486W        W60212  44.434  35.326   2.222
88487W        W60213   4.235   7.450  13.545
88488W        W60214  11.163  28.141  11.056
88489W        W60215  36.518  12.683   1.974
88490W        W60216   5.395  42.932   0.278
88491W        W60217   5.337  38.264   2.368
88492W        W60218  42.813  28.169   3.111
88493W        W60219  40.409   6.091   0.931
88494W        W60220  21.583  25.424  14.034
88495W        W60221  40.773  28.376   3.889
88496W        W60222  28.614  17.208   4.242
88497W        W60223  35.159   1.996  12.804
88498W        W60224  44.382  27.161   3.913
88499W        W60225  17.336  26.687  13.963
88500W        W60226  29.628  21.216  13.874
88501W        W60227  23.970  10.873   2.320
88502W        W60228   2.856   1.454   3.829
88503W        W60229  32.526  30.476   5.326
88504W        W60230  34.349  40.860  14.592
88505W        W60231  23.436   1.985   1.940
88506W        W60232  19.964  42.105   2.653
88507W        W60233  35.434  38.908  13.093
88508W        W60234  42.900  20.540  11.812
88509W        W60235  32.072  13.891   3.615
88510W        W60236  10.224  43.548   3.147
88511W        W60237  38.489   5.321  11.671
88512W        W60238  19.249  20.504   0.353
88513W        W60239  19.240   2.571   1.045
88514W        W60240  22.757  30.980  10.732
88515W        W60241  19.265  35.482   1.879
88516W        W60242   4.977  40.838  13.950
88517W        W60243  39.999   8.924  13.839
88518W        W60244   5.339  44.149   2.641
88519W        W60245  10.403  16.044   1.566
88520W        W60246  42.647  40.289  13.553
88521W        W60247  26.622  42.018   1.948
88522W        W60248  31.926  10.852  14.965
88523W        W60249  13.736   3.314   3.116
88524W        W60250  37.746   1.021  13.788
88525W        W60251  44.724  24.128   4.824
88526W        W60252  13.399   4.161  10.458
88527W        W60253  23.447  20.669   4.905
88528W        W60254  26.656  13.266  11.405
88529W        W60255  32.133  37.962   2.357
88530W        W60256  23.978  37.034   2.351
88531W        W60257  30.249  27.469  12.546
88532W        W60258   8.087  21.428   1.613
88533W        W60259  33.932  10.980   2.210
88534W        W60260  22.831  18.199  14.318
88535W        W60261  20.007  31.947   5.132
88536W        W60262  21.796  19.228   4.800
88537W        W60263  32.438  24.763   3.721
88538W        W60264  26.547   1.918  12.364
88539W        W60265   9.176  37.436  14.017
88540W        W60266  35.842  36.132  11.150
88541W        W60267  41.978  19.943   3.087
88542W        W60268  13.342  15.221  12.032
88543W        W60269  19.363  16.642   0.404
88544W        W60270  14.392   4.908   3.700
88545W        W60271  23.731  36.009   2.605
88546W        W60272  24.193  29.229   0.239
88547W        W60273   1.062  33.495   4.506
88548W        W60274   7.663  19.715   2.726
88549W        W60275  41.760   3.857  10.701
88550W        W60276  42.535  30.123  14.866
88551W        W60277  36.596  25.869  14.348
88552W        W60278  44.336  21.924   2.763
88553W        W60279   0.552  33.782  10.276
88554W        W60280  23.949  10.269  11.617
88555W        W60281  44.373  11.934   0.390
88556W        W60282  25.033  44.062  12.400
88557W        W60283  17.906  29.498   4.836
88558W        W60284  35.366  19.229   1.233
88559W        W60285  20.184  31.612   3.628
88560W        W60286  40.435  27.468   1.453
88561W        W60287  37.257   5.048   4.971
88562W        W60288  30.507  21.028  13.908
88563W        W60289   0.199  22.704  12.072
88564W        W60290   1.937  19.774  13.228
88565W        W60291   4.654  23.603   2.156
88566W        W60292  37.601  11.106  11.831
88567W        W60293  24.544  37.588  10.865
88568W        W60294  21.190   4.859   2.768
88569W        W60295  38.210  36.673  11.561
88570W        W60296  30.895  18.194  11.165
88571W        W60297  25.613   3.800   4.501
88572W        W60298  37.663  34.792   4.677
88573W        W60299  10.172  15.041   4.658
88574W        W60300  20.907  28.168   0.865
88575W        W60301  19.395   2.988  14.390
88576W        W60302   3.341  35.224   1.476
88577W        W60303  33.118  14.026   0.007
88578W        W60304  23.717   2.426  13.370
88579W        W60305  11.336  20.565   1.415
88580W        W60306  16.384   9.360   1.849
88581W        W60307  39.333  32.006   3.109
88582W        W60308  10.136   8.251   4.134
88583W        W60309  12.206  30.064   4.132
88584W        W60310  33.840  39.630   0.338
88585W        W60311  22.503   2.915  13.418
88586W        W60312  34.782  43.446   4.541
88587W        W60313   3.902   5.898   3.190
88588W        W60314  31.645  22.858  14.386
88589W        W60315  42.593  28.436  12.891
88590W        W60316  32.598  41.773  10.686
88591W        W60317  42.039  12.376   3.568
88592W        W60318  44.909  36.625   2.363
88593W        W60319  19.938   6.386  12.045
88594W        W60320  39.564  31.538   3.177
88595W        W60321  19.141   4.220  14.959
88596W        W60322  33.437  39.280   0.137
88597W        W60323  20.168  18.790   4.795
88598W        W60324  19.264  42.571  14.522
88599W        W60325  12.034   6.863  13.836
88600W        W60326  42.393  21.443  11.162
88601W        W60327  39.115  12.152  13.948
88602W        W60328   6.743  29.545  12.088
88603W        W60329   7.245   5.266   2.205
88604W        W60330  13.018  32.202  13.282
88605W        W60331  15.760  18.816   5.037
88606W        W60332  42.244   0.972  13.868
88607W        W60333  20.251   8.144   1.403
88608W        W60334  24.817   1.601   9.961
88609W        W60335   7.387   1.748  11.099
88610W        W60336  23.261  23.054   2.759
88611W        W60337  26.430  20.281   1.818
88612W        W60338  14.046  25.882  12.600
88613W        W60339  39.458   6.264  14.731
88614W        W60340  14.803  15.607   1.408
88615W        W60341   2.034  15.910   4.101
88616W        W60342  42.602  12.634  13.039
88617W        W60343   3.928  40.096  13.151
88618W        W60344   9.339  21.068   0.323
88619W        W60345  36.501  32.111  12.830
88620W        W60346  18.188  15.573  11.168
88621W        W60347  33.735  36.093  14.822
88622W        W60348   1.006  10.415  13.022
88623W        W60349  29.547  42.857   0.209
88624W        W60350   3.843  12.164  10.635
88625W        W60351  19.447  29.868   0.409
88626W        W60352  43.899  44.711   4.543
88627W        W60353  36.952  35.947  12.525
88628W        W60354   4.758  40.481   1.695
88629W        W60355  28.222  36.618   4.108
88630W        W60356  36.129   8.713   3.380
88631W        W60357   3.416  32.351   2.721
88632W        W60358  12.949  31.362   4.238
88633W        W60359  32.573  42.110   3.309
88634W        W60360  43.092  17.675  11.158
88635W        W60361  12.470  23.756   3.890
88636W        W60362  32.858  24.662  11.468
88637W        W60363  37.406  40.806   0.960
88638W        W60364  32.506  37.753   1.474
88639W        W60365  19.549  25.183   2.869
88640W        W60366   4.285  30.335   4.635
88641W        W60367  40.361   5.098  14.963
88642W        W60368  38.115   4.158   4.802
88643W        W60369  29.173  26.227  12.798
88644W        W60370  33.028   2.821  14.817
88645W        W60371  42.322  33.319   3.707
88646W        W60372   0.748  11.639   1.213
88647W        W60373  43.810  40.044  10.716
88648W        W60374  14.667  32.813  12.163
88649W        W60375  32.881  10.692  12.862
88650W        W60376  33.301  37.704  14.086
88651W        W60377  18.833  14.236   1.811
88652W        W60378   8.315   4.658   3.787
88653W        W60379  13.634  42.983   1.370
88654W        W60380  19.206  40.858  10.742
88655W        W60381  12.863  20.618  13.556
88656W        W60382  37.550  44.254   3.282
88657W        W60383  44.527  33.370   4.036
88658W        W60384   9.012   0.605  12.076
88659W        W60385   4.009  39.135   2.278
88660W        W60386  29.504  36.017  13.428
88661W        W60387  30.003   9.203  12.098
88662W        W60388   9.732   0.851   1.427
88663W        W60389  26.670   5.852   1.448
88664W        W60390  24.083  11.802  12.947
88665W        W60391  31.904  26.475  13.540
88666W        W60392  15.668  19.090   2.133
88667W        W60393   8.789  30.562  10.981
88668W        W60394  25.085  39.867  11.961
88669W        W60395  39.390  28.156  10.835
88670W        W60396  14.058  40.399   4.494
88671W        W60397  27.706  23.013  11.894
88672W        W60398  29.548  16.710  10.403
88673W        W60399  27.378  19.512   1.849
88674W        W60400  44.469  32.321  13.481
88675W        W60401  14.599  10.226   1.806
88676W        W60402   3.101  37.502   3.119
88677W        W60403  24.508  10.938  14.656
88678W        W60404  41.029  23.794  11.481
88679W        W60405  14.934   1.822  11.683
88680W        W60406  21.697  28.585   1.926
88681W        W60407  32.303  13.675  14.967
88682W        W60408   1.456  34.951   2.875
88683W        W60409  39.400  17.546  14.432
88684W        W60410  23.695  17.037  13.366
88685W        W60411   6.028  41.798  12.579
88686W        W60412   6.250  36.916  12.917
88687W        W60413  15.696  38.403   3.350
88688W        W60414  41.590  43.163  13.361
88689W        W60415  35.954  41.972   2.071
88690W        W60416   3.808  15.362   2.764
88691W        W60417  23.530  28.311   3.071
88692W        W60418  18.539  18.083  11.579
88693W        W60419  41.043  42.432  10.523
88694W        W60420  38.855   7.408   2.517
88695W        W60421  29.425  38.614  11.081
88696W        W60422  38.867  44.738   2.239
88697W        W60423  31.388  21.513  12.822
88698W        W60424   4.902  43.021   0.960
88699W        W60425   5.229  28.553  11.621
88700W        W60426   9.359  22.553   5.505
88701W        W60427  37.868  19.512  10.678
88702W        W60428  20.795  12.109   2.871
88703W        W60429   0.340  29.000   3.122
88704W        W60430  40.424  12.528   1.855
88705W        W60431  13.420  42.810   1.837
88706W        W60432   2.805  25.421  11.492
88707W        W60433  40.083  26.030  13.640
88708W        W60434  18.513   3.438   2.799
88709W        W60435  28.180  19.028   0.182
88710W        W60436   5.651  34.970   1.710
88711W        W60437  30.444  13.467   1.286
88712W        W60438  20.227  20.052   1.748
88713W        W60439  22.758  24.514   2.134
88714W        W60440  20.544  32.370  14.470
88715W        W60441   6.689  21.767  10.389
88716W        W60442  29.069  23.175  14.827
88717W        W60443   1.188  34.678   4.807
88718W        W60444  20.789  34.122  13.408
88719W        W60445  16.258  18.163   4.062
88720W        W60446  10.060   1.207   0.575
88721W        W60447   1.766  28.382   2.772
88722W        W60448  10.209  33.140  14.263
88723W        W60449  28.982  35.327   4.158
88724W        W60450  29.577  25.469  14.788
88725W        W60451  33.161  28.805   2.533
88726W        W60452  38.799  22.633   3.206
88727W        W60453  39.569   9.182  12.508
88728W        W60454  15.649  37.297  10.722
88729W        W60455  43.072  21.605  11.560
88730W        W60456  16.840  38.794   1.782
88731W        W60457  12.146  12.202  12.334
88732W        W60458  29.454  21.221  12.094
88733W        W60459  12.720  44.002  14.932
88734W        W60460  13.582   7.021  10.920
88735W        W60461   2.145  20.795   5.092
88736W        W60462  37.024  13.306  11.198
88737W        W60463   9.529  32.954   3.682
88738W        W60464  40.310  40.060  14.984
88739W        W60465  16.998  39.883   2.310
88740W        W60466  44.887  28.551  12.379
88741W        W60467  44.851  40.013  11.610
88742W        W60468  37.277  33.968   3.161
88743W        W60469   4.619  18.693  10.548
88744W        W60470   9.865  15.675   0.481
88745W        W60471  25.083  20.606   4.847
88746W        W60472  39.567   5.816  14.467
88747W        W60473   9.744  25.092  10.244
88748W        W60474   8.910  26.740  12.203
88749W        W60475  44.300   7.702  12.027
88750W        W60476   8.708  35.059   4.154
88751W        W60477  19.577  40.830   4.899
88752W        W60478  26.211  16.631  13.507
88753W        W60479  44.391  15.882   4.599
88754W        W60480  21.805   3.232  12.867
88755W        W60481  43.312  15.774   3.907
88756W        W60482   8.218  16.191   2.810
88757W        W60483  27.397  43.695  13.379
88758W        W60484  14.644  40.189  10.219
88759W        W60485  41.593  12.164   3.359
88760W        W60486  37.583  14.754   2.309
88761W        W60487   6.197   9.436  11.425
88762W        W60488   3.444  38.897  12.822
88763W        W60489   5.712   6.862  10.858
88764W        W60490  41.756  17.147   3.279
88765W        W60491   7.115   0.927  12.023
88766W        W60492   4.803  44.997   4.533
88767W        W60493  28.967  29.484   3.968
88768W        W60494  37.428  20.339  11.510
88769W        W60495   9.359  20.829  10.823
88770W        W60496  21.066   4.727   1.765
88771W        W60497  27.094  14.103  14.810
88772W        W60498   7.868  38.428   0.001
88773W        W60499  16.628   4.464  13.458
88774W        W60500  15.652  23.679  13.333
88775W        W60501   1.357  24.914   1.186
88776W        W60502   5.888  33.089   2.272
88777W        W60503   7.913   1.904  14.441
88778W        W60504  41.807   7.862  12.020
88779W        W60505  27.006  29.534  14.904
88780W        W60506  17.259  21.702  14.052
88781W        W60507  18.072  21.417   1.623
88782W        W60508   8.526  19.169   0.435
88783W        W60509  17.083  14.568   3.840
88784W        W60510  15.052   5.115  14.068
88785W        W60511  33.190  20.951  11.581
88786W        W60512   6.788  10.731   4.926
88787W        W60513   8.738  18.184  13.951
88788W        W60514  12.937  11.539  11.983
88789W        W60515  17.159  22.106   0.253
88790W        W60516   0.355   3.924   0.205
88791W        W60517  37.775  16.189  10.752
88792W        W60518  18.698   1.306   2.343
88793W        W60519  15.359  33.623   2.327
88794W        W60520  20.652  32.868   3.126
88795W        W60521  40.164   6.712  13.550
88796W        W60522  44.428  16.776  14.381
88797W        W60523  40.728  38.351   1.464
88798W        W60524   6.248  29.024   0.970
88799W        W60525  36.381  31.626  10.631
88800W        W60526  33.404  24.209   2.876
88801W        W60527  14.870   4.603   3.484
88802W        W60528  20.319  28.611  10.726
88803W        W60529   6.078  28.467   0.225
88804W        W60530  41.558  12.633  14.271
88805W        W60531  20.501  17.039   1.944
88806W        W60532  13.618  20.173  14.286
88807W        W60533  20.940  27.151  11.069
88808W        W60534  37.971  44.697   2.696
88809W        W60535  13.460  12.290   4.144
88810W        W60536  44.183  11.483  10.692
88811W        W60537  42.403  30.484  11.513
88812W        W60538  39.963  33.549   3.572
88813W        W60539   9.694  34.720  11.554
88814W        W60540  41.413  37.149   1.794
88815W        W60541  42.021  37.444   1.423
88816W        W60542   8.302  44.367  12.865
88817W        W60543  22.117  26.269  13.850
88818W        W60544  17.781   2.122   0.866
88819W        W60545  29.273  29.610   4.408
88820W        W60546  32.948  39.604   2.012
88821W        W60547  31.051  28.848   4.972
88822W        W60548  18.235  35.107  11.561
88823W        W60549  43.328   7.866   1.668
88824W        W60550   4.976  32.540   0.870
88825W        W60551  42.033  24.072   1.865
88826W        W60552  21.159  30.458   0.835
88827W        W60553  43.571  27.852   2.461
88828W        W60554  30.123  35.026   4.395
88829W        W60555  21.082  30.664  13.504
88830W        W60556   4.848  37.190  12.100
88831W        W60557   5.637  40.478  12.867
88832W        W60558  40.356  40.412   4.352
88833W        W60559  26.572  31.820   3.715
88834W        W60560  22.186  35.959   1.860
88835W        W60561  44.934  18.148  12.976
88836W        W60562   3.780  14.208   1.891
88837W        W60563  36.885  43.260  11.860
88838W        W60564  26.688  18.043   0.342
88839W        W60565  20.381  37.026   4.105
88840W        W60566  44.986   4.403   0.837
88841W        W60567  44.782  18.534  12.562
88842W        W60568  19.157  13.562   3.451
88843W        W60569  23.020  19.849  12.559
88844W        W60570  13.539  44.282  11.182
88845W        W60571  27.214  26.446   1.770
88846W        W60572  43.866  42.495   0.395
88847W        W60573   5.826  20.202   0.748
88848W        W60574  14.419   2.141   0.801
88849W        W60575  16.841  22.740   1.394
88850W        W60576   9.783  41.139   1.205
88851W        W60577  18.542   4.143  12.362
88852W        W60578   9.758   9.390   2.821
88853W        W60579   8.879  22.611  14.181
88854W        W60580  11.650   4.729   4.087
88855W        W60581  42.165   7.927   2.730
88856W        W60582  20.995  29.605   3.278
88857W        W60583  33.407   2.884   4.154
88858W        W60584  43.818  20.801   4.395
88859W        W60585   9.616   5.376   2.002
88860W        W60586  11.628  39.289   2.853
88861W        W60587  40.840  28.139   0.792
88862W        W60588  16.674  25.853   1.876
88863W        W60589  12.763   4.615  10.557
88864W        W60590  19.748  27.350   3.666
88865W        W60591  36.596  14.715  13.374
88866W        W60592  43.394  29.492   1.208
88867W        W60593  14.604  32.202   0.305
88868W        W60594  19.584  26.939   2.328
88869W        W60595  14.558  21.148   0.316
88870W        W60596  14.476  22.756  12.525
88871W        W60597   5.496  41.717  12.652
88872W        W60598   3.243  31.000  10.393
88873W        W60599  10.379  19.226  14.512
88874W        W60600  17.631  23.181   2.589
88875W        W60601  31.025  40.369   1.808
88876W        W60602   3.947   5.631   3.632
88877W        W60603  41.933  39.410  13.362
88878W        W60604  10.788  30.497   3.652
88879W        W60605  24.700   4.336  14.687
88880W        W60606  23.753  21.569  12.036
88881W        W60607  40.612  29.954   1.172
88882W        W60608  31.800  41.312  14.522
88883W        W60609   7.837  37.140   4.554
88884W        W60610  28.969  28.713  12.501
88885W        W60611  22.675  39.592   0.989
88886W        W60612  26.169  38.476  13.162
88887W        W60613  36.177  23.047  13.369
88888W        W60614  32.309   3.185  11.616
88889W        W60615   8.441   9.923  14.437
88890W        W60616  15.850  10.932  14.514
88891W        W60617  20.204  29.890   0.746
88892W        W60618  41.696  10.977   0.052
88893W        W60619  14.748  31.478  11.414
88894W        W60620   0.252  14.105  13.514
88895W        W60621  22.783  12.263   2.321
88896W        W60622  34.694  16.366  11.412
88897W        W60623  34.829  16.764  11.111
88898W        W60624  31.664  43.348  12.453
88899W        W60625  18.835   5.205   4.131
88900W        W60626  24.060  13.702   2.914
88901W        W60627  11.136  31.500  13.109
88902W        W60628  16.984  21.662  11.882
88903W        W60629   0.529  19.970   1.868
88904W        W60630  20.233  21.261  13.390
88905W        W60631   7.645  17.022  10.703
88906W        W60632   0.855  28.681  13.302
88907W        W60633  18.466  33.025  12.630
88908W        W60634  23.643   6.627   1.134
88909W        W60635  17.793  34.368  14.014
88910W        W60636  14.232  17.208  14.521
88911W        W60637  29.477   8.685  12.960
88912W        W60638  15.211  37.580  10.610
88913W        W60639   0.729  24.127  11.414
88914W        W60640  44.726  28.087  12.526
88915W        W60641  30.193  43.388  11.537
88916W        W60642   1.208  10.362   2.270
88917W        W60643  13.303   8.887  10.725
88918W        W60644  32.886  44.278   0.733
88919W        W60645  21.987   4.457   1.811
88920W        W60646  34.011  42.425  13.118
88921W        W60647  43.465  43.561   4.171
88922W        W60648   4.334  28.418   2.097
88923W        W60649  38.139  25.499   2.473
88924W        W60650   1.628  32.410   2.288
88925W        W60651  44.842  13.180   1.418
88926W        W60652  41.204  17.917  13.481
88927W        W60653  38.615  14.355  14.075
88928W        W60654  13.837  36.065   0.736
88929W        W60655  28.577  43.943   3.081
88930W        W60656   3.174  10.565  12.533
88931W        W60657   3.245   2.051   4.147
88932W        W60658  20.476  10.891   1.264
88933W        W60659  40.987  39.513  13.580
88934W        W60660  17.286  16.125   1.729
88935W        W60661  43.763  34.550   2.418
88936W        W60662  43.898  16.667   2.108
88937W        W60663  11.324  36.004  10.926
88938W        W60664  18.237   5.988  10.657
88939W        W60665  35.403  10.438   4.405
88940W        W60666  38.321  16.313  13.328
88941W        W60667  14.587  25.089   1.744
88942W        W60668  24.080  24.491  14.961
88943W        W60669  32.015  32.469  13.506
88944W        W60670  21.262   3.985   2.972
88945W        W60671  27.700   1.932   0.834
88946W        W60672  14.175   3.228   1.240
88947W        W60673  29.799  25.015  10.676
88948W        W60674  18.608   5.438   4.575
88949W        W60675  31.268  11.430  11.656
88950W        W60676  21.993  27.714   4.281
88951W        W60677   4.142  34.230  11.662
88952W        W60678  15.258   3.875  13.539
88953W        W60679  28.690  41.379   3.804
88954W        W60680  41.985  40.962   3.692
88955W        W60681  25.997  16.794  14.452
88956W        W60682  40.556  30.450  13.002
88957W        W60683   5.918  42.897   4.696
88958W        W60684  13.679  40.835  11.596
88959W        W60685  24.691  25.512  11.406
88960W        W60686  30.239  11.701   1.862
88961W        W60687  17.066  39.986   1.431
88962W        W60688   9.696   7.956   3.799
88963W        W60689  24.284  32.007  11.925
88964W        W60690   1.394  16.612   0.701
88965W        W60691  41.013  31.610  11.468
88966W        W60692   9.858  37.684   4.146
88967W        W60693  34.399  13.765   3.740
88968W        W60694  29.612   1.295   0.860
88969W        W60695  17.813  24.695   0.466
88970W        W60696  26.562  34.155   4.276
88971W        W60697   1.827   3.029  13.040
88972W        W60698  43.975  44.542   1.954
88973W        W60699  40.415  21.931   2.292
88974W        W60700  26.299  41.879  13.959
88975W        W60701  31.604   9.161  14.029
88976W        W60702  21.141  17.253  10.686
88977W        W60703  17.260  30.631   2.137
88978W        W60704  42.831  32.014  11.067
88979W        W60705  39.686  34.967   1.346
88980W        W60706  13.923  36.633  14.923
88981W        W60707  30.146  36.544  13.938
88982W        W60708  23.310  41.948   0.804
88983W        W60709  31.447  16.886  12.406
88984W        W60710  29.339  23.016   2.332
88985W        W60711  28.186   2.297   1.266
88986W        W60712  32.645  30.016  13.878
88987W        W60713  12.322  21.029   2.235
88988W        W60714  15.314  17.608  14.710
88989W        W60715   6.802  11.081   0.470
88990W        W60716   2.411  10.744   1.219
88991W        W60717   6.306   6.132  11.697
88992W        W60718  20.833  20.838   1.782
88993W        W60719  40.916   8.187  13.110
88994W        W60720  39.636   3.789   4.201
88995W        W60721  23.652  11.650  10.329
88996W        W60722  41.845  22.303   0.201
88997W        W60723   2.119  29.991   2.680
88998W        W60724  44.235  14.325   3.700
88999W        W60725  27.236  17.564  14.010
89000W        W60726  16.811  30.963   1.879
89001W        W60727  11.550  38.070  14.874
89002W        W60728  41.436  18.224   3.897
89003W        W60729  15.325  16.675  10.934
89004W        W60730  13.092  34.747   1.273
89005W        W60731  38.471  28.600   2.409
89006W        W60732  44.530  25.744   1.349
89007W        W60733  31.837  16.604  13.464
89008W        W60734   2.402  34.402  13.505
89009W        W60735   3.174  11.839   4.178
89010W        W60736   8.204  12.820  13.960
89011W        W60737   2.855  38.119   4.402
89012W        W60738   1.882   3.899   1.156
89013W        W60739   5.954  10.782   4.381
89014W        W60740  38.012  26.446  12.064
89015W        W60741   4.979  17.277   0.212
89016W        W60742  12.605  15.996   1.172
89017W        W60743  43.296   0.405  12.499
89018W        W60744  14.681  17.266   4.387
89019W        W60745   0.791   5.147   4.810
89020W        W60746   0.313  12.584  10.550
89021W        W60747  41.109  30.851   3.881
89022W        W60748  38.889   4.352   1.730
89023W        W60749  32.179   1.717   1.697
89024W        W60750   5.670  27.039   4.185
89025W        W60751  10.887   5.234  11.028
89026W        W60752  40.210  20.507   4.518
89027W        W60753  32.195   7.866  11.178
89028W        W60754  31.399  23.172   0.397
89029W        W60755  11.858  24.242   2.353
89030W        W60756  20.138   2.852   0.030
89031W        W60757  37.352  27.333  13.484
89032W        W60758  11.126  19.414   2.241
89033W        W60759  15.436  22.204  13.504
89034W        W60760  42.295  36.087   1.411
89035W        W60761   0.909   9.635   1.748
89036W        W60762  12.704  10.569  11.107
89037W        W60763  30.676  44.185   4.296
89038W        W60764   3.764   1.685   2.354
89039W        W60765  33.117  32.631  10.888
89040W        W60766   4.735   3.342   4.204
89041W        W60767  12.874  23.649   4.738
89042W        W60768  42.188  15.850  10.434
89043W        W60769  14.378  32.467   3.427
89044W        W60770  27.914   3.379   0.956
89045W        W60771  18.245  23.050   4.157
89046W        W60772  36.448  33.958   4.678
89047W        W60773  26.923  13.980   2.593
89048W        W60774   3.218  28.489   4.110
89049W        W60775   1.249  14.448   2.895
89050W        W60776  26.027  40.320   1.429
89051W        W60777  27.598  34.392  13.494
89052W        W60778  11.318  22.063   0.258
89053W        W60779  13.382  40.554  11.143
89054W        W60780  29.889  37.669   2.647
89055W        W60781  39.979  34.969   0.040
89056W        W60782  10.615  14.307   1.716
89057W        W60783  27.811  11.614   4.210
89058W        W60784   1.800  36.632   0.325
89059W        W60785  37.313  28.833  11.649
89060W        W60786  24.090  25.417  10.576
89061W        W60787   2.817  21.493   3.737
89062W        W60788  31.174  24.027  14.839
89063W        W60789   8.593  26.120   5.012
89064W        W60790  23.121   7.403  13.272
89065W        W60791  17.738   6.195  13.893
89066W        W60792  16.008  28.193  14.358
89067W        W60793   7.587  32.389   1.664
89068W        W60794  27.475   9.345   1.843
89069W        W60795  36.554  22.037  10.750
89070W        W60796  27.144  34.315  11.239
89071W        W60797  16.103  19.136  13.554
89072W        W60798   1.291  42.488   0.903
89073W        W60799  12.143  28.229  13.031
89074W        W60800  33.027  33.029  14.523
89075W        W60801   6.150  12.814  11.073
89076W        W60802  41.042  25.608  11.684
89077W        W60803  15.174  11.237   2.739
89078W        W60804  17.195  42.736   4.299
89079W        W60805  22.070  11.188   3.884
89080W        W60806  17.298  41.793   4.970
89081W        W60807   6.110  42.916  11.123
89082W        W60808  42.369  19.579   0.964
89083W        W60809  14.011  14.398   1.817
89084W        W60810  42.828  40.584   1.505
89085W        W60811  35.340  29.107   2.723
89086W        W60812   3.903  30.179   2.156
89087W        W60813   6.334  32.353   1.515
89088W        W60814   5.827   4.465   5.503
89089W        W60815  21.607  40.344   1.216
89090W        W60816  10.731   4.241   0.837
89091W        W60817  35.818  43.744   2.750
89092W        W60818  16.584   8.312   4.637
89093W        W60819  33.403  32.082   2.566
89094W        W60820  17.294   6.507  12.546
89095W        W60821  15.825  25.163  14.050
89096W        W60822  36.233  29.752   0.377
89097W        W60823  37.038  38.470  13.455
89098W        W60824  32.134  27.665   4.509
89099W        W60825   9.744  22.045  14.056
89100W        W60826  14.972  13.741  14.817
89101W        W60827  35.982  27.680  11.916
89102W        W60828  19.007  17.043   1.771
89103W        W60829  20.241  15.011  13.992
89104W        W60830  33.308   4.403  13.979
89105W        W60831  16.665   3.487  13.367
89106W        W60832  18.604  34.899   3.741
89107W        W60833  34.657  28.625   1.852
89108W        W60834   2.921  14.774   4.047
89109W        W60835  23.931  41.849   2.513
89110W        W60836  31.940  41.528   3.747
89111W        W60837  12.206  17.848  11.138
89112W        W60838   1.411   4.836  11.398
89113W        W60839  41.282  22.175  11.734
89114W        W60840  29.175  28.496   4.208
89115W        W60841  23.563  33.001   1.654
89116W        W60842  13.324  23.537  13.926
89117W        W60843   7.927  22.703  10.226
89118W        W60844  34.000  15.004   3.180
89119W        W60845  12.415  40.069  13.508
89120W        W60846   2.949   7.600  12.960
89121W        W60847  22.014  33.861   2.718
89122W        W60848  38.344  24.742  14.896
89123W        W60849  14.569  25.522   0.081
89124W        W60850   9.027  24.577   0.804
89125W        W60851  18.636  28.398   0.927
89126W        W60852  19.148  17.286  11.982
89127W        W60853  10.311  25.171  12.007
89128W        W60854  34.377  38.566  14.953
89129W        W60855  32.822  23.638  11.178
89130W        W60856   5.436  11.739  11.401
89131W        W60857  38.602  30.095  13.741
89132W        W60858  16.183   9.509   3.820
89133W        W60859   2.714  35.093   4.558
89134W        W60860  27.902  42.545   0.693
89135W        W60861  27.568  33.203  11.424
89136W        W60862  23.946  22.491   0.465
89137W        W60863  37.449  16.422   3.689
89138W        W60864  18.244  18.988   0.764
89139W        W60865  42.615  10.870   4.190
89140W        W60866   3.704  25.854  11.563
89141W        W60867   7.384   8.472   3.623
89142W        W60868   6.350  10.771   3.294
89143W        W60869  29.727   4.496  12.660
89144W        W60870  33.062  39.322  10.732
89145W        W60871  33.054   9.636  12.091
89146W        W60872   1.293  33.072  13.347
89147W        W60873  20.748  37.320  12.529
89148W        W60874  15.607  36.410   0.867
89149W        W60875   4.794  41.199  14.280
89150W        W60876   0.798  28.140  11.607
89151W        W60877  12.774  33.574   4.085
89152W        W60878  36.610   5.397   0.521
89153W        W60879  35.263  35.836  12.616
89154W        W60880  21.127   1.465  11.214
89155W        W60881  37.641   6.947   4.167
89156W        W60882  44.199  10.846  11.078
89157W        W60883  19.436   6.458   2.238
89158W        W60884  43.972  29.083  12.580
89159W        W60885  43.014   3.080  14.844
89160W        W60886   0.024  34.044  11.956
89161W        W60887  41.928  18.154   5.087
89162W        W60888  33.987  33.664   3.241
89163W        W60889  12.728  31.043   4.910
89164W        W60890  35.690  11.239   3.600
89165W        W60891   5.525   7.927  13.679
89166W        W60892  14.113  19.501  13.652
89167W        W60893  22.620  17.858   4.540
89168W        W60894  12.216  42.063   4.319
89169W        W60895   9.347  44.812   3.592
89170W        W60896  30.246  40.860   2.276
89171W        W60897   4.702  39.532   0.245
89172W        W60898   3.421   8.387  12.772
89173W        W60899  13.074  15.141   4.526
89174W        W60900   1.927  29.952  10.890
89175W        W60901  27.584  41.261  12.044
89176W        W60902  23.596  21.482   2.415
89177W        W60903  21.003  30.264  13.150
89178W        W60904  27.556  37.427  12.357
89179W        W60905  36.015  44.947  14.999
89180W        W60906  22.509  14.270   2.355
89181W        W60907   0.884  13.754   4.668
89182W        W60908   5.985   7.175  11.201
89183W        W60909  44.332   1.582   0.415
89184W        W60910  38.443  31.422   0.464
89185W        W60911  30.682  38.346  14.722
89186W        W60912  10.367   0.884  13.463
89187W        W60913  39.840   1.317  14.250
89188W        W60914  25.174   5.200  11.894
89189W        W60915  34.099  34.824  14.786
89190W        W60916  29.228  28.078   4.508
89191W        W60917  30.884  32.612  14.309
89192W        W60918  29.130  22.958  12.875
89193W        W60919   9.223  13.065  11.749
89194W        W60920  13.358  24.002  12.352
89195W        W60921   8.313  21.891   1.728
89196W        W60922  40.037  26.595   0.178
89197W        W60923  29.414  19.537   1.887
89198W        W60924  12.318  18.742  13.745
89199W        W60925   6.864  35.390   3.250
89200W        W60926  31.771  35.161  13.119
89201W        W60927  42.422   7.945  11.019
89202W        W60928  25.471  27.013   0.563
89203W        W60929  14.195  17.795   3.691
89204W        W60930  22.236   1.621   3.672
89205W        W60931   7.127  24.113  10.741
89206W        W60932  27.600   1.193   4.092
89207W        W60933  42.081  22.766   0.904
89208W        W60934  16.633  14.535  11.087
89209W        W60935  31.705  18.200   0.945
89210W        W60936  39.097   9.691   2.215
89211W        W60937  12.159  24.643   1.756
89212W        W60938  35.098   3.360   4.464
89213W        W60939  28.217  34.622  14.482
89214W        W60940  18.259  23.997   1.212
89215W        W60941   5.914   5.895  11.102
89216W        W60942   3.548   7.062   1.963
89217W        W60943  35.268  38.385   2.656
89218W        W60944  30.865  29.203   3.603
89219W        W60945  33.464  39.001  10.738
89220W        W60946  42.326  24.263   3.733
89221W        W60947   3.771  16.189   2.078
89222W        W60948  37.909   3.939   1.387
89223W        W60949  10.399  14.576   1.315
89224W        W60950  40.624  34.514  10.745
89225W        W60951  39.792  16.030   4.952
89226W        W60952  44.587  12.658   2.265
89227W        W60953  39.369  17.723  11.549
89228W        W60954  42.462  25.596  12.146
89229W        W60955  38.730  25.005   0.266
89230W        W60956  19.035  21.891   1.251
89231W        W60957  36.843  43.029   3.137
89232W        W60958   7.093  32.983  12.417
89233W        W60959  40.824  29.501   1.319
89234W        W60960  11.899   8.589  14.327
89235W        W60961  38.242  21.320   4.104
89236W        W60962   3.300  15.218   2.746
89237W        W60963  23.179  17.084   2.178
89238W        W60964   9.938  14.276   0.836
89239W        W60965  15.573  21.773   2.647
89240W        W60966   8.416  15.025   4.078
89241W        W60967  18.304  15.718   4.480
89242W        W60968  31.788  38.371   1.467
89243W        W60969  10.062  28.006  11.602
89244W        W60970  36.380  42.556   4.240
89245W        W60971  22.149  29.639   0.358
89246W        W60972  22.308  22.616   2.741
89247W        W60973  13.684  29.854  11.955
89248W        W60974  20.989  19.039  14.913
89249W        W60975   1.215   0.461  11.169
89250W        W60976  11.201   0.788   1.717
89251W        W60977   6.255  35.945   2.796
89252W        W60978  26.369  43.033  14.339
89253W        W60979  27.920  25.290   1.463
89254W        W60980  22.183   5.152  14.291
89255W        W60981  19.775  40.832   3.858
89256W        W60982  21.113  40.947   4.627
89257W        W60983   6.623  22.105  11.191
89258W        W60984  17.122  26.958  12.489
89259W        W60985   3.391  26.916  12.929
89260W        W60986   6.852  44.496  12.549
89261W        W60987  33.375  14.518  14.650
89262W        W60988  28.423  40.922  12.109
89263W        W60989  24.604   1.458   4.741
89264W        W60990   5.742   3.740  12.582
89265W        W60991  43.020  34.872  13.467
89266W        W60992   1.707  23.190   2.823
89267W        W60993  22.247  36.849   1.380
89268W        W60994  22.157   8.214   2.798
89269W        W60995  17.752  21.692  13.587
89270W        W60996  28.604  32.398  11.521
89271W        W60997  16.642  25.150  12.100
89272W        W60998  42.271  42.827  10.107
89273W        W60999  30.626  18.853  11.886
89274W        W61000  23.490  17.644   1.038
89275W        W61001  21.990  23.534   0.155
89276W        W61002   3.016  39.701   2.734
89277W        W61003  40.931   1.481  12.342
89278W        W61004  32.993   5.695  13.592
89279W        W61005  26.606  34.142   1.676
89280W        W61006  13.716   5.865   3.268
89281W        W61007  41.268   8.387   0.527
89282W        W61008   1.224  30.831  13.056
89283W        W61009  33.615  14.772   3.988
89284W        W61010  18.347  14.938  14.991
89285W        W61011  18.658  41.019  14.265
89286W        W61012  18.090   1.384   1.271
89287W        W61013  20.647   7.470   3.467
89288W        W61014  22.136  24.016  14.988
89289W        W61015  10.398  43.002  11.455
89290W        W61016  33.507   8.555  14.417
89291W        W61017  30.031  26.059   1.848
89292W        W61018  30.167  34.430   2.396
89293W        W61019  44.363  17.258  14.549
89294W        W61020  36.624  16.601  10.208
89295W        W61021  43.560  19.013  11.239
89296W        W61022  33.032  22.289  11.272
89297W        W61023  12.961  15.529   3.344
89298W        W61024  10.731   2.330  11.265
89299W        W61025  44.321  34.531   1.614
89300W        W61026  31.396   1.947  14.483
89301W        W61027  41.023  11.457   3.179
89302W        W61028  38.517  31.928  13.625
89303W        W61029   5.666   1.863  13.911
89304W        W61030  35.481  41.040   0.060
89305W        W61031  29.910  25.017   2.507
89306W        W61032   6.318  35.864  14.796
89307W        W61033   9.790  25.992  14.919
89308W        W61034  15.565   9.398  11.991
89309W        W61035  27.554  44.717  10.299
89310W        W61036  17.485  31.519   0.479
89311W        W61037  42.362   1.343  12.053
89312W        W61038  31.598  28.713   0.268
89313W        W61039  21.676  11.724   1.706
89314W        W61040  38.268  16.041  14.273
89315W        W61041  31.445   0.898  12.968
89316W        W61042   9.610  43.396  13.555
89317W        W61043   5.731  30.819   0.972
89318W        W61044  13.371  13.550  11.264
89319W        W61045  33.931  15.047   0.792
89320W        W61046  29.974  29.971   2.684
89321W        W61047   0.722   8.687   1.386
89322W        W61048  10.134   1.453  14.533
89323W        W61049  12.152   3.441  13.860
89324W        W61050  12.184  40.927   2.321
89325W        W61051   9.422  42.058   1.382
89326W        W61052  22.179  11.811  11.207
89327W        W61053  28.482  27.519   4.930
89328W        W61054  22.025  36.860   3.830
89329W        W61055  29.086  36.809  13.189
89330W        W61056  21.502  25.535   4.461
89331W        W61057  10.019  39.523   3.356
89332W        W61058  31.066  15.237   3.316
89333W        W61059  33.143  23.267   1.262
89334W        W61060   8.665  27.467  12.936
89335W        W61061  44.017  11.146   0.477
89336W        W61062  28.703  38.334   3.218
89337W        W61063  44.323  40.517   4.095
89338W        W61064  22.950  24.948   3.339
89339W        W61065  33.262  25.384  11.570
89340W        W61066   8.823   9.318   1.156
89341W        W61067  18.854  11.729  13.877
89342W        W61068   7.460  39.242  12.884
89343W        W61069  13.827   1.532  14.175
89344W        W61070  31.470  40.102   1.686
89345W        W61071  32.144  32.204  11.604
89346W        W61072  35.633  23.558  11.522
89347W        W61073  11.105  43.541   1.470
89348W        W61074  12.242  33.420   2.761
89349W        W61075  40.735   4.469  12.523
89350W        W61076   9.367  42.978  11.856
89351W        W61077  13.939  24.701  10.667
89352W        W61078  13.538  27.091   3.273
89353W        W61079  30.953   5.210   4.102
89354W        W61080  41.936  14.748   1.634
89355W        W61081  41.899  38.379   4.340
89356W        W61082  19.641  35.434  11.565
89357W        W61083  25.758  31.475   3.427
89358W        W61084  28.567  35.293  12.644
89359W        W61085  33.628  39.028  13.266
89360W        W61086  12.007  11.532   0.971
89361W        W61087   0.236   1.758  11.986
89362W        W61088  15.111  33.808   2.749
89363W        W61089  40.716  17.801   2.494
89364W        W61090  13.690  11.942  13.137
89365W        W61091  33.537  16.653   2.454
89366W        W61092  24.799   9.345  12.803
89367W        W61093  27.693  15.134  11.907
89368W        W61094  29.366  33.930  13.066
89369W        W61095  33.142   5.990   2.814
89370W        W61096  24.267   3.268  11.922
89371W        W61097  15.619  39.145   5.055
89372W        W61098  39.605  26.729   2.207
89373W        W61099  18.657  22.955  12.131
89374W        W61100  29.285  31.620  13.104
89375W        W61101  42.956  44.841  13.403
89376W        W61102  44.482  42.249  10.318
89377W        W61103  26.693  13.707  12.266
89378W        W61104  34.966  36.904  12.029
89379W        W61105  39.134  12.873   3.024
89380W        W61106  38.237  44.693   0.186
89381W        W61107  11.207   7.684   1.916
89382W        W61108  15.628  20.251  14.083
89383W        W61109  19.551  18.564   0.733
89384W        W61110   5.435  42.366   2.652
89385W        W61111  27.976  36.617   1.809
89386W        W61112  21.683   2.929   3.707
89387W        W61113  44.029  35.455   4.542
89388W        W61114  29.031  29.011   4.144
89389W        W61115  10.640   0.733   3.661
89390W        W61116  32.055  39.870  11.021
89391W        W61117  23.748  26.727   0.362
89392W        W61118  14.714  26.202   3.245
89393W        W61119  20.823  44.059  11.883
89394W        W61120  20.956  25.195   9.915
89395W        W61121  19.728  25.166   3.358
89396W        W61122  29.248  34.069  12.495
89397W        W61123  16.192  27.579   1.795
89398W        W61124  27.539  29.694   2.236
89399W        W61125  36.430  12.100  11.947
89400W        W61126  43.053  31.121   3.160
89401W        W61127  44.707  15.084   1.380
89402W        W61128  23.940  21.431  13.491
89403W        W61129   4.189  16.383  12.187
89404W        W61130  34.993  37.605  14.377
89405W        W61131  30.148  11.396   0.830
89406W        W61132  27.161  18.271  14.331
89407W        W61133  35.085  42.278   4.263
89408W        W61134   1.351  16.704   0.190
89409W        W61135  15.368  26.710  10.589
89410W        W61136  39.993  36.843   2.880
89411W        W61137  19.124  44.834  11.243
89412W        W61138  44.286  22.095   0.008
89413W        W61139  30.130  42.235   9.888
89414W        W61140  38.838  10.729  12.884
89415W        W61141  27.906  13.500   0.247
89416W        W61142  42.509  43.230   9.864
89417W        W61143  37.638   7.713   3.595
89418W        W61144  21.718   4.911  12.157
89419W        W61145  14.186  26.249   2.220
89420W        W61146  31.912  23.612  14.997
89421W        W61147  31.109   8.283   1.350
89422W        W61148  16.005  36.910  11.678
89423W        W61149  11.566   8.055   3.051
89424W        W61150   3.263  25.451  12.161
89425W        W61151  13.195  27.699   2.529
89426W        W61152  22.152  29.402   1.890
89427W        W61153  32.526  32.748  11.083
89428W        W61154  30.668  25.462  14.080
89429W        W61155   3.790   2.180  12.515
89430W        W61156  25.991   6.713   0.461
89431W        W61157  17.185  41.435  13.370
89432W        W61158  10.678  31.663  11.563
89433W        W61159  13.431  14.097   2.400
89434W        W61160  38.653  24.243  14.206
89435W        W61161   7.683   5.835  13.718
89436W        W61162  31.359  27.486   3.831
89437W        W61163  28.962  11.192   4.397
89438W        W61164  22.529  19.890  11.683
89439W        W61165  11.251  25.563  12.312
89440W        W61166  36.996  34.863   1.189
89441W        W61167  42.662  11.716   4.089
89442W        W61168  25.782  11.418  14.261
89443W        W61169  40.401  38.494   0.267
89444W        W61170  25.200  13.644  11.895
89445W        W61171  40.664  42.393  12.900
89446W        W61172  25.169  44.844  11.040
89447W        W61173   3.496   6.327  12.384
89448W        W61174  39.513  30.102   3.831
89449W        W61175  36.308   2.269   0.508
89450W        W61176  14.727  12.790   3.169
89451W        W61177  41.263   6.448  11.147
89452W        W61178  32.012  43.514  11.125
89453W        W61179   9.417  23.822   2.615
89454W        W61180  15.686  24.986   2.764
89455W        W61181  18.216  37.199   2.153
89456W        W61182  25.267  40.487   5.113
89457W        W61183   2.801  44.847   2.682
89458W        W61184  35.850  20.617  10.775
89459W        W61185  26.632   5.712   2.325
89460W        W61186  43.944  34.635   3.833
89461W        W61187  44.300  12.866  12.383
89462W        W61188  18.059   6.288   2.841
89463W        W61189  29.344  44.756  14.505
89464W        W61190   4.541  21.740  11.706
89465W        W61191  30.269  33.131  11.546
89466W        W61192  14.856  44.883  14.431
89467W        W61193   3.716  44.247  10.862
89468W        W61194   1.960  39.589  14.744
89469W        W61195  10.673   6.939   0.350
89470W        W61196  17.559  26.793  14.499
89471W        W61197  44.018  14.911  13.983
89472W        W61198   5.499   5.467  13.529
89473W        W61199   1.364  40.974  10.459
89474W        W61200  43.920   8.587   2.760
89475W        W61201  42.895  16.168   1.285
89476W        W61202  21.213  32.359   1.692
89477W        W61203   2.358  30.247  14.290
89478W        W61204  16.470  42.552  12.929
89479W        W61205  33.354  37.509  12.252
89480W        W61206  33.820  13.989  10.561
89481W        W61207  26.885   8.974  14.508
89482W        W61208  31.335  44.467  12.931
89483W        W61209  19.619  23.613  14.746
89484W        W61210  14.639  37.455  13.549
89485W        W61211  14.068  34.194   0.421
89486W        W61212  23.797  14.394  14.876
89487W        W61213  29.000  16.556   1.444
89488W        W61214  43.796  15.116  13.398
89489W        W61215  10.883  40.414   2.476
89490W        W61216  44.405   3.410  10.702
89491W        W61217  26.483  21.970   4.147
89492W        W61218  26.719  23.162  10.663
89493W        W61219   2.646   2.378  14.103
89494W        W61220  44.205  14.787   2.261
89495W        W61221  17.072  25.653   4.714
89496W        W61222  37.029  22.727   4.693
89497W        W61223  40.025  18.722  11.535
89498W        W61224   7.127   0.864   2.669
89499W        W61225  13.035  42.844  12.162
89500W        W61226  36.823  24.635  13.820
89501W        W61227  14.346  24.944   4.014
89502W        W61228  26.666  23.528   4.594
89503W        W61229  41.523   9.379  13.417
89504W        W61230  37.293  11.320  14.343
89505W        W61231   3.894  22.647   3.800
89506W        W61232  12.330  28.450  14.347
89507W        W61233   8.063  26.345  11.139
89508W        W61234  11.643  20.653  11.407
89509W        W61235  13.645   2.495  13.242
89510W        W61236  23.009  26.067  12.128
89511W        W61237  26.172  13.368  12.037
89512W        W61238  39.839  30.660   2.383
89513W        W61239  21.894  14.111  10.723
89514W        W61240  14.732  23.552   2.329
89515W        W61241  43.398   0.965   4.878
89516W        W61242  33.095  38.370   4.600
89517W        W61243   0.735  10.859   3.210
89518W        W61244  32.132  36.353  13.548
89519W        W61245  33.877  19.194  14.722
89520W        W61246  35.585   1.348  10.928
89521W        W61247  34.910   6.666  12.811
89522W        W61248  44.356  16.960  13.513
89523W        W61249   2.996  28.778   0.056
89524W        W61250  10.920  28.129   1.268
89525W        W61251  25.095  17.832   1.356
89526W        W61252  40.189  44.944   1.858
89527W        W61253  20.768   4.548   2.467
89528W        W61254  24.790  31.166  13.845
89529W        W61255  41.410  16.296   1.343
89530W        W61256  13.672  16.959   0.148
89531W        W61257  12.486  11.329   0.859
89532W        W61258  18.333  18.184   4.232
89533W        W61259  40.896  29.149  14.462
89534W        W61260  39.831   4.783   3.247
89535W        W61261  18.710  26.595   1.281
89536W        W61262   3.005  44.114   1.411
89537W        W61263  36.858  34.577  10.622
89538W        W61264   8.905  19.620   3.302
89539W        W61265  27.797  21.204  12.955
89540W        W61266  19.906   2.576   1.773
89541W        W61267  42.984   1.234  14.303
89542W        W61268  19.169  31.834  10.656
89543W        W61269  12.319  20.003   0.952
89544W        W61270  19.347  37.128   4.051
89545W        W61271  10.217   3.231   2.156
89546W        W61272   4.971  21.758  11.405
89547W        W61273  11.561   1.971  11.154
89548W        W61274  20.051  16.253   2.249
89549W        W61275  24.176   6.961   1.479
89550W        W61276  24.228  24.618  11.192
89551W        W61277  26.870  31.653  14.184
89552W        W61278   4.524  24.660  12.964
89553W        W61279  22.049   8.104  13.967
89554W        W61280   6.227  15.093  11.837
89555W        W61281  14.590   8.112   4.997
89556W        W61282  19.233   8.245  12.906
89557W        W61283  18.814   1.474  14.723
89558W        W61284  16.669   8.315  10.975
89559W        W61285  30.548  26.483  10.154
89560W        W61286   6.342  14.064   4.645
89561W        W61287  43.451  22.128  10.586
89562W        W61288   0.436   4.984  12.464
89563W        W61289  32.952  39.125  12.095
89564W        W61290  16.570  19.594   1.493
89565W        W61291  21.645  24.992  13.710
89566W        W61292  36.338  26.005  14.780
89567W        W61293  26.763  15.659   0.329
89568W        W61294  43.812  12.515  14.258
89569W        W61295  15.768  35.186  12.956
89570W        W61296  38.316  26.442   0.844
89571W        W61297  30.203  32.124  11.995
89572W        W61298   5.777  43.783  11.567
89573W        W61299   2.937  34.877   2.220
89574W        W61300  34.139  20.149   0.816
89575W        W61301  24.130  24.627   3.672
89576W        W61302  22.054   3.355  14.923
89577W        W61303  22.322  19.657   1.326
89578W        W61304  43.250  32.737  13.964
89579W        W61305  40.388  20.094  11.365
89580W        W61306  22.100  29.842  14.415
89581W        W61307   3.556   9.400   3.531
89582W        W61308   8.223   7.720  10.638
89583W        W61309   6.184  33.140  13.584
89584W        W61310  20.185  20.112  14.462
89585W        W61311  42.526  43.813   3.856
89586W        W61312  29.151  11.604  13.067
89587W        W61313  39.601  15.805  10.682
89588W        W61314  37.119  14.312   4.563
89589W        W61315   7.694  25.762   4.984
89590W        W61316   5.195  37.019  14.876
89591W        W61317  42.426   4.615  14.353
89592W        W61318  31.475  22.852  12.441
89593W        W61319  33.164   0.929  12.927
89594W        W61320  11.734  41.468   4.773
89595W        W61321  39.905  18.055  13.021
89596W        W61322  37.754  12.951   1.342
89597W        W61323  13.818   5.317   3.694
89598W        W61324  39.962  18.806  10.669
89599W        W61325  16.823   0.674   0.899
89600W        W61326  17.730  10.143  14.976
89601W        W61327  10.627  20.583  13.112
89602W        W61328  37.334  19.686   4.283
89603W        W61329  35.893  39.406  14.466
89604W        W61330  39.956  32.918   0.864
89605W        W61331  35.285  14.668   0.207
89606W        W61332   0.237  21.215   3.227
89607W        W61333   1.527  19.607   2.945
89608W        W61334  11.884  31.119  11.974
89609W        W61335  26.470  39.975  14.809
89610W        W61336  21.669  38.454   0.437
89611W        W61337  43.430  35.978  11.050
89612W        W61338  18.149   4.799  14.883
89613W        W61339  43.923  38.580  12.443
89614W        W61340  32.210  29.479   5.039
89615W        W61341  29.049  24.436  14.065
89616W        W61342   7.205  33.045  14.790
89617W        W61343  43.167   4.318  13.209
89618W        W61344  37.960  36.813   1.711
89619W        W61345  11.666  18.974   2.706
89620W        W61346  30.007  25.623  14.304
89621W        W61347  27.210  32.023  14.078
89622W        W61348  36.007  22.144  13.228
89623W        W61349  27.911  28.036   4.493
89624W        W61350  31.241   2.621  12.527
89625W        W61351  30.337  27.620  13.039
89626W        W61352  18.159  15.655   2.255
89627W        W61353  14.294   8.542   4.913
89628W        W61354  13.560  21.379  12.346
89629W        W61355  42.961   7.896   2.297
89630W        W61356   4.778  12.294  13.526
89631W        W61357  24.222  35.013  10.754
89632W        W61358  12.029  13.114  10.745
89633W        W61359  35.050  17.668   4.738
89634W        W61360  10.078  16.444  12.534
89635W        W61361  25.714  12.868  11.218
89636W        W61362  16.128  37.839   1.318
89637W        W61363  30.432  18.950  13.131
89638W        W61364   3.903  35.454  11.360
89639W        W61365  11.751  30.922   3.908
89640W        W61366  44.102  30.594  11.506
89641W        W61367  40.129  11.903   3.622
89642W        W61368  27.976   4.738  14.016
89643W        W61369  22.792  39.108   3.514
89644W        W61370  17.051  10.701  11.106
89645W        W61371   1.665  39.356   0.157
89646W        W61372  31.642   6.327   0.610
89647W        W61373   1.344  29.170   2.172
89648W        W61374  18.264  42.792   2.206
89649W        W61375  22.148  10.194  10.744
89650W        W61376  14.440  10.717  11.886
89651W        W61377   9.594  44.387  13.229
89652W        W61378  39.615  38.333   1.973
89653W        W61379  31.439   8.299  14.492
89654W        W61380  33.762  12.347  13.264
89655W        W61381   4.869  37.710  12.150
89656W        W61382  39.330  29.643  11.206
89657W        W61383  35.396  10.728   3.645
89658W        W61384  20.994  34.395   4.121
89659W        W61385   2.480  25.701  12.498
89660W        W61386  43.399  32.435   3.750
89661W        W61387  13.569  29.007   2.214
89662W        W61388   0.707  14.253  13.785
89663W        W61389   8.864  27.951   1.856
89664W        W61390  12.499  22.542   5.112
89665W        W61391  40.303  11.435  13.384
89666W        W61392  22.269  18.987  14.088
89667W        W61393   2.410  26.648  12.539
89668W        W61394  41.573   5.847   2.920
89669W        W61395  15.193  19.871   3.385
89670W        W61396   2.763  40.750  12.073
89671W        W61397   0.468  40.469  11.022
89672W        W61398  35.069  22.076   3.252
89673W        W61399  12.722  13.637   4.938
89674W        W61400  28.993   6.685   1.862
89675W        W61401  37.500  15.226  11.882
89676W        W61402  31.399   7.897  14.139
89677W        W61403  37.344  29.664  14.718
89678W        W61404  12.608  13.704   2.299
89679W        W61405  32.423  37.494  13.063
89680W        W61406   2.855  27.364   3.734
89681W        W61407  31.082  38.017   2.417
89682W        W61408  40.082   2.757  13.861
89683W        W61409  33.978  41.837  14.599
89684W        W61410  42.871  26.207   2.466
89685W        W61411  16.841  14.752   0.427
89686W        W61412  13.329  29.674  13.110
89687W        W61413   5.576  10.197   0.722
89688W        W61414  17.747  43.282  11.973
89689W        W61415  15.026  31.669   1.335
89690W        W61416  19.212   7.700  12.191
89691W        W61417  19.172  32.576  11.509
89692W        W61418  10.744  23.756   4.654
89693W        W61419  38.148  39.604   4.167
89694W        W61420  21.615  15.595  14.833
89695W        W61421  16.198  40.745  12.435
89696W        W61422  10.946   4.302  11.087
89697W        W61423  41.156  22.603  12.044
89698W        W61424   5.793  10.147   0.238
89699W        W61425   1.324  39.299  11.140
89700W        W61426  33.623  29.609  13.960
89701W        W61427  26.749  25.187  11.143
89702W        W61428  31.002  12.738  12.939
89703W        W61429  10.372  22.542  12.478
89704W        W61430  14.605  36.568   4.961
89705W        W61431  21.263  31.164  12.003
89706W        W61432  11.795  26.380  11.217
89707W        W61433  20.657  26.166  10.218
89708W        W61434   6.663   0.388  11.050
89709W        W61435   3.900  22.181   4.122
89710W        W61436  22.968  23.273  11.611
89711W        W61437  39.365   4.472  12.957
89712W        W61438  44.240  13.793  13.646
89713W        W61439   9.284  28.229   4.659
89714W        W61440  30.679  37.763  12.595
89715W        W61441  21.968  10.323   2.188
89716W        W61442  32.054   0.768   4.859
89717W        W61443  22.953  33.522  12.499
89718W        W61444   2.678   1.934  12.679
89719W        W61445  28.739  42.913   3.258
89720W        W61446  11.373  34.473   2.765
89721W        W61447  12.797  43.301  12.058
89722W        W61448  36.106  13.568   0.229
89723W        W61449  11.897  43.970  12.411
89724W        W61450   6.925   9.297  14.927
89725W        W61451  29.189   7.199   0.861
89726W        W61452  17.538  19.489   1.537
89727W        W61453  14.375  23.333   1.766
89728W        W61454  18.168  22.218   1.926
89729W        W61455  24.791  12.639   0.421
89730W        W61456  11.669   6.819   4.601
89731W        W61457  14.318   9.050   1.449
89732W        W61458  43.667  35.632  13.288
89733W        W61459  39.337  14.812  10.591
89734W        W61460  30.472   8.107   4.799
89735W        W61461  30.016  30.732   4.119
89736W        W61462  26.260  18.205   2.229
89737W        W61463  21.689  24.649  13.306
89738W        W61464  30.091  16.409  13.341
89739W        W61465  36.324  13.278   0.700
89740W        W61466  31.437  31.837  11.143
89741W        W61467  26.594  33.644   4.268
89742W        W61468  43.474   2.749   4.095
89743W        W61469  25.269   7.005   0.693
89744W        W61470   7.861  33.041   4.798
89745W        W61471  12.895  26.657   0.628
89746W        W61472  33.360   8.895   1.376
89747W        W61473  29.716  32.513  12.350
89748W        W61474  13.311  33.992  10.640
89749W        W61475  38.819  33.097  11.573
89750W        W61476  29.468  35.416   4.357
89751W        W61477  35.620  26.961  12.424
89752W        W61478  38.817  41.405  13.824
89753W        W61479  13.474   6.695   3.787
89754W        W61480   0.663  36.092   3.835
89755W        W61481   3.866   3.663   4.867
89756W        W61482  22.047  26.790   2.937
89757W        W61483  39.167   8.848  13.669
89758W        W61484   7.266  42.044   2.680
89759W        W61485  41.233  20.119  14.264
89760W        W61486   5.272  42.279  11.202
89761W        W61487  40.012  13.678  11.053
89762W        W61488  26.545  14.127  10.990
89763W        W61489  28.033  23.684   4.548
89764W        W61490  26.061  16.358   4.631
89765W        W61491  37.439  13.888   4.642
89766W        W61492  42.400  15.100  14.610
89767W        W61493  37.895  29.395  14.046
89768W        W61494  18.263  32.681  13.392
89769W        W61495  23.675  32.900   4.080
89770W        W61496  19.603   7.318  13.351
89771W        W61497   2.219  15.988  13.324
89772W        W61498  33.279  13.288   0.938
89773W        W61499  38.359  31.619   4.110
89774W        W61500  30.500   2.192  14.678
89775W        W61501   6.255  36.835  11.948
89776W        W61502  12.580  32.899   2.324
89777W        W61503  33.890  20.594  11.099
89778W        W61504  24.117  15.260   4.833
89779W        W61505  43.138  40.190   4.988
89780W        W61506  23.710  16.242  12.506
89781W        W61507  33.018   4.455   1.669
89782W        W61508  18.124  26.952  13.399
89783W        W61509  17.491  13.813   2.240
89784W        W61510  21.097  30.543   3.306
89785W        W61511  29.422  35.009  13.402
89786W        W61512  34.939   9.136  11.255
89787W        W61513   6.016  24.053   4.133
89788W        W61514  30.222  14.388  11.147
89789W        W61515  24.107  33.444  13.681
89790W        W61516  39.797  36.368  13.037
89791W        W61517  27.924   5.791   1.748
89792W        W61518   2.947  41.205   4.824
89793W        W61519  21.628  16.140   4.169
89794W        W61520   5.303  13.293   4.079
89795W        W61521   8.326  24.492   2.033
89796W        W61522  19.245  11.076  13.346
89797W        W61523  33.056   9.754   0.312
89798W        W61524  25.040  33.916  11.059
89799W        W61525   7.626  30.116  11.162
89800W        W61526  12.115  19.148   0.991
89801W        W61527  11.215  25.014  10.141
89802W        W61528  11.345   0.421   2.084
89803W        W61529  33.144  17.539  13.913
89804W        W61530   2.175  39.931  14.387
89805W        W61531  28.668  11.269  13.779
89806W        W61532  38.403  29.883  12.594
89807W        W61533  31.909  36.023  14.026
89808W        W61534  33.909  38.931  10.453
89809W        W61535  42.675  25.184   3.581
89810W        W61536   9.821  24.115   1.966
89811W        W61537  25.400  17.972  12.913
89812W        W61538   1.344  20.797  10.447
89813W        W61539  40.299  35.082   0.446
89814W        W61540   0.168  21.188  14.386
89815W        W61541   4.210   5.834  12.574
89816W        W61542  41.942  37.638  12.084
89817W        W61543  28.965   5.438   1.211
89818W        W61544  37.862  17.058   2.145
89819W        W61545  35.762   0.161   0.399
89820W        W61546  33.412  37.066   4.345
89821W        W61547   0.724  14.972  11.104
89822W        W61548  14.656  34.490  11.118
89823W        W61549  16.301  41.861  14.823
89824W        W61550  19.592  34.892  13.834
89825W        W61551  13.074  33.726  12.986
89826W        W61552  17.535  17.188  14.579
89827W        W61553  43.426  39.027  12.125
89828W        W61554   1.397  25.800  10.734
89829W        W61555  15.438  30.506  14.455
89830W        W61556  11.786   5.343   3.373
89831W        W61557  18.851   3.744  11.629
89832W        W61558  33.360  38.587   4.199
89833W        W61559  18.240  16.187  11.969
89834W        W61560   5.257  14.736   3.854
89835W        W61561  39.521  33.010   1.733
89836W        W61562  28.452   0.492  12.506
89837W        W61563  43.310  42.487  13.268
89838W        W61564  12.624  36.336  10.705
89839W        W61565   5.990  10.168  10.444
89840W        W61566  37.608   3.263  11.519
89841W        W61567  36.449   5.261  13.137
89842W        W61568   5.240  37.916   4.749
89843W        W61569   5.898  32.347   3.339
89844W        W61570  32.468  23.266   3.663
89845W        W61571  44.588  36.218   3.254
89846W        W61572  28.162  21.910   4.676
89847W        W61573  20.462   9.800   0.309
89848W        W61574  25.028  20.065   2.815
89849W        W61575  25.712   9.087  13.800
89850W        W61576   0.948  34.409  13.593
89851W        W61577  21.769  29.511  14.973
89852W        W61578  30.107   9.485  10.849
89853W        W61579  36.694  37.519   5.067
89854W        W61580  27.108  27.236   1.760
89855W        W61581  23.056   2.973   3.672
89856W        W61582  10.660  33.891  10.176
89857W        W61583  13.740  37.410   4.465
89858W        W61584  14.285  42.369  12.163
89859W        W61585  31.803  13.187  13.943
89860W        W61586   3.171  19.031   0.076
89861W        W61587  35.299   2.147  11.575
89862W        W61588  17.240  24.644   1.357
89863W        W61589  14.110  38.269   0.543
89864W        W61590  24.580  43.350   3.638
89865W        W61591  21.684   3.706   3.152
89866W        W61592  19.036  31.214  12.220
89867W        W61593  33.981  29.935   0.434
89868W        W61594  17.992   6.692   0.894
89869W        W61595  34.566   3.597   3.213
89870W        W61596  21.113   8.479   4.173
89871W        W61597  40.912  38.542  13.639
89872W        W61598   4.512  16.723   3.872
89873W        W61599  15.123  22.284   3.257
89874W        W61600  11.449  13.710   4.919
89875W        W61601  20.079  31.431  14.926
89876W        W61602  38.015  38.137   3.751
89877W        W61603  36.167   7.777  10.726
89878W        W61604  24.766  29.665  11.112
89879W        W61605  12.298  34.916   2.741
89880W        W61606   8.676  12.123  12.961
89881W        W61607  24.432  16.504  14.420
89882W        W61608  31.333  26.729  14.510
89883W        W61609   8.361  13.024   2.747
89884W        W61610  21.285  20.776   4.889
89885W        W61611   7.164  16.257  14.455
89886W        W61612  32.948  26.499  13.387
89887W        W61613   9.257  10.965  14.410
89888W        W61614   6.292  25.131  14.080
89889W        W61615  22.042  13.811   0.956
89890W        W61616  12.581  19.218   2.787
89891W        W61617  15.141  15.717   1.832
89892W        W61618  25.052  27.941  13.298
89893W        W61619   4.309  40.948  13.373
89894W        W61620   9.949  10.473   0.226
89895W        W61621  10.189   3.997  13.383
89896W        W61622   2.428  22.605  10.592
89897W        W61623  44.707  41.498   0.731
89898W        W61624  29.513  43.549   3.198
89899W        W61625  42.485  14.111  14.000
89900W        W61626  26.127  44.334  13.571
89901W        W61627   5.811  35.505  14.970
89902W        W61628  16.193   0.191  13.279
89903W        W61629  44.130  15.622   4.952
89904W        W61630  16.608  18.103  11.147
89905W        W61631  43.952  19.165  12.352
89906W        W61632  33.379  32.992   3.158
89907W        W61633  13.721  17.158  12.811
89908W        W61634  18.825  19.074   3.960
89909W        W61635  12.342  16.065  11.614
89910W        W61636  29.699  40.532   3.505
89911W        W61637  19.174  31.632  13.777
89912W        W61638  20.268  14.307  13.410
89913W        W61639  37.908   5.750  12.210
89914W        W61640  42.815  37.045   1.204
89915W        W61641  17.332  14.853  13.609
89916W        W61642  18.807  42.950   3.135
89917W        W61643  26.666  19.494  11.042
89918W        W61644   3.867  18.225  13.043
89919W        W61645  20.909  13.016  10.539
89920W        W61646  41.114   9.300  11.653
89921W        W61647  18.572  32.117   0.494
89922W        W61648  26.454   6.850  13.429
89923W        W61649   3.290  21.957   2.215
89924W        W61650  18.641  44.998   0.840
89925W        W61651  44.215  10.631  13.135
89926W        W61652  39.380  38.278  10.866
89927W        W61653   0.221  40.481  14.256
89928W        W61654  12.286  24.168  13.056
89929W        W61655  11.955  15.167  12.253
89930W        W61656   9.348  34.548   2.825
89931W        W61657  28.609  37.568   2.081
89932W        W61658  34.444  31.142  12.437
89933W        W61659  29.871  43.932  10.067
89934W        W61660  27.147  19.299   3.192
89935W        W61661  35.588  28.169   0.336
89936W        W61662  14.315  15.703  13.325
89937W        W61663  43.272  36.128   1.464
89938W        W61664  35.824   7.651   4.145
89939W        W61665  40.801  38.499  10.758
89940W        W61666  27.231   3.167  13.789
89941W        W61667  43.349  34.669   2.101
89942W        W61668  30.081  35.370  12.365
89943W        W61669  12.689  17.551  14.292
89944W        W61670  43.827  34.902   2.805
89945W        W61671  19.098   3.799  12.466
89946W        W61672  16.669  20.248  13.262
89947W        W61673  23.359  33.852   4.318
89948W        W61674  30.097  16.261   4.641
89949W        W61675  16.570  29.927  14.725
89950W        W61676   3.435   9.293   2.158
89951W        W61677  22.009   4.326  13.573
89952W        W61678   4.983   0.890  11.929
89953W        W61679  13.389  39.844   1.723
89954W        W61680  42.509  36.556   1.126
89955W        W61681   1.899  32.634   1.887
89956W        W61682  33.764  12.313   3.649
89957W        W61683  25.536  37.353  13.953
89958W        W61684  13.672   6.854   3.344
89959W        W61685  31.463  21.576  11.810
89960W        W61686  38.579  23.130   3.320
89961W        W61687  23.507  13.174   4.515
89962W        W61688  15.600  40.884  13.026
89963W        W61689  39.271  36.445  12.956
89964W        W61690   8.571  44.241  11.142
89965W        W61691  41.896  24.758  12.463
89966W        W61692   3.363  12.483  12.160
89967W        W61693  15.781   9.717  11.632
89968W        W61694  41.096  43.070  12.482
89969W        W61695  41.019  22.580   4.567
89970W        W61696  36.552  38.860   3.691
89971W        W61697   4.682  34.016  14.261
89972W        W61698  10.944   2.611  13.752
89973W        W61699  29.585  11.640   2.312
89974W        W61700  12.836  30.112  13.544
89975W        W61701  16.392  37.100   0.325
89976W        W61702  41.749  14.332  13.254
89977W        W61703  34.029  43.733   5.094
89978W        W61704  23.463  32.503   4.323
89979W        W61705  16.177   4.267   2.141
89980W        W61706  16.169  25.955   3.840
89981W        W61707   0.088  32.851  13.927
89982W        W61708   2.891  16.958   3.167
89983W        W61709  36.463  15.236  11.899
89984W        W61710  14.431  15.781   3.217
89985W        W61711  37.892  43.031   4.867
89986W        W61712  13.238  32.395  11.457
89987W        W61713   4.465  24.617  11.089
89988W        W61714  35.421   7.810  13.974
89989W        W61715  33.610   6.176  11.906
89990W        W61716  25.048   3.434  13.915
89991W        W61717  44.868   7.688   3.897
89992W        W61718  35.241  20.569  10.748
89993W        W61719  44.780   3.911  11.957
89994W        W61720   2.835  35.968   0.723
89995W        W61721   5.879  11.150   0.385
89996W        W61722  21.173  26.909  14.984
89997W        W61723  39.493  16.172  11.972
89998W        W61724  21.458   6.412  10.186
89999W        W61725  34.334  25.693  11.258
90000W        W61726  21.518  21.161  11.678
90001W        W61727  40.868  29.462  12.064
90002W        W61728  22.514   2.034   2.329
90003W        W61729  30.487  37.159   0.502
90004W        W61730  35.088  22.567   0.171
90005W        W61731  18.481  18.430   5.035
90006W        W61732  36.612  18.102   2.089
90007W        W61733  25.702  35.759   5.064
90008W        W61734  41.977  19.765  14.427
90009W        W61735   8.114  17.831  13.955
90010W        W61736  34.652   6.084  14.075
90011W        W61737   6.023  25.705   1.817
90012W        W61738  38.851  29.831   1.940
90013W        W61739   0.559  34.830  12.357
90014W        W61740  10.105   6.600  11.103
90015W        W61741  21.504  14.727   1.657
90016W        W61742  34.827  29.945  11.460
90017W        W61743  26.881  44.117  13.482
90018W        W61744  13.283  16.954  14.071
90019W        W61745  28.581  18.302   3.538
90020W        W61746  27.035  22.284   2.722
90021W        W61747  22.488   5.365   2.074
90022W        W61748  34.828  34.578   2.610
90023W        W61749  44.564   6.944   4.191
90024W        W61750  34.274  29.615   4.791
90025W        W61751   7.257  29.888   2.584
90026W        W61752  22.608   5.734   4.814
90027W        W61753   9.400   7.361   1.957
90028W        W61754  21.977  20.667   1.229
90029W        W61755  42.262  33.315   2.213
90030W        W61756   2.315  27.270   0.790
90031W        W61757  31.063  29.940  13.439
90032W        W61758  40.837   4.710   0.726
90033W        W61759  22.103  27.740   9.711
90034W        W61760   7.886   6.700   5.490
90035W        W61761   0.906  41.795   1.828
90036W        W61762  30.399  25.194   0.993
90037W        W61763  23.184  29.895  11.138
90038W        W61764  28.947   0.795  13.350
90039W        W61765  19.066  16.754   0.837
90040W        W61766  16.582  23.100   4.087
90041W        W61767  16.799  24.788   0.453
90042W        W61768   2.916  40.635   3.609
90043W        W61769  44.494   6.878  12.556
90044W        W61770  30.152  18.729   0.266
90045W        W61771  33.366  35.274  11.655
90046W        W61772  17.746  37.792  11.503
90047W        W61773  22.269   5.651   1.210
90048W        W61774  21.094  13.025   2.876
90049W        W61775  17.474  11.220  13.948
90050W        W61776  13.713   0.451   3.303
90051W        W61777  19.346  41.469   0.706
90052W        W61778  15.876  17.700  11.481
90053W        W61779  41.525  27.444   3.264
90054W        W61780  38.966  43.032   2.810
90055W        W61781  26.210  33.903  10.602
90056W        W61782   2.435  34.075   2.925
90057W        W61783   1.283  12.564   3.556
90058W        W61784   9.070  18.989   4.205
90059W        W61785  11.837   6.202  12.360
90060W        W61786  43.594  18.036   0.503
90061W        W61787   4.720  38.912  14.738
90062W        W61788  38.500   9.832  12.412
90063W        W61789  12.220  20.798   3.538
90064W        W61790  42.036  40.064  13.906
90065W        W61791  25.443  35.477   4.695
90066W        W61792   5.278  37.900  14.865
90067W        W61793  44.396   0.858   2.714
90068W        W61794  24.318  22.373  13.466
90069W        W61795  14.643  29.247   4.290
90070W        W61796  10.094   3.392  12.185
90071W        W61797  30.482  35.838  14.991
90072W        W61798  17.539  42.494  14.814
90073W        W61799   1.337  33.443   4.066
90074W        W61800  28.099  15.319   4.439
90075W        W61801   9.850  38.559   2.271
90076W        W61802   6.198  17.117  12.847
90077W        W61803   0.526  12.238   3.281
90078W        W61804  39.480  34.111   1.868
90079W        W61805  18.934  17.009   0.353
90080W        W61806  32.395  42.368  12.363
90081W        W61807  10.709  11.864  11.014
90082W        W61808  12.983  39.105  12.038
90083W        W61809  39.918  10.495   2.197
90084W        W61810  44.432  28.843  13.446
90085W        W61811  24.474  27.671   2.326
90086W        W61812  24.568  17.214  12.451
90087W        W61813   4.659  31.104   3.256
90088W        W61814   6.085  23.200   3.889
90089W        W61815   9.194  38.919  12.918
90090W        W61816  38.117  40.719  11.029
90091W        W61817  39.943  29.593  14.566
90092W        W61818   7.812  40.747  12.514
90093W        W61819  18.980  14.310  12.209
90094W        W61820  36.945  32.782   3.184
90095W        W61821  41.502  13.785  13.142
90096W        W61822  32.817  12.621  10.856
90097W        W61823  43.943   1.123  12.329
90098W        W61824  34.428   7.636  10.780
90099W        W61825  25.963  39.419   3.912
90100W        W61826   7.923  15.610  11.200
90101W        W61827  15.492  39.061   4.167
90102W        W61828  17.224   6.129   4.170
90103W        W61829  36.911  11.163  10.774
90104W        W61830   4.909  17.723   3.916
90105W        W61831  30.163  43.261  13.230
90106W        W61832  39.556   9.202   3.322
90107W        W61833  21.941  23.440  13.867
90108W        W61834  13.320  31.113   0.873
90109W        W61835  32.235  11.558  11.509
90110W        W61836  34.725  17.487  11.643
90111W        W61837  21.757   0.339   4.849
90112W        W61838  21.795  35.901  14.332
90113W        W61839   3.053  10.151  14.492
90114W        W61840  34.674   1.855   3.806
90115W        W61841  32.043  20.255   4.582
90116W        W61842  43.903  28.576  11.115
90117W        W61843   4.453   5.445   4.315
90118W        W61844   3.417  37.995   2.426
90119W        W61845  34.438  28.484   0.988
90120W        W61846  16.632  17.050  14.296
90121W        W61847  41.908  26.862   0.817
90122W        W61848   6.800  29.566  13.620
90123W        W61849   2.339  41.162   1.906
90124W        W61850   9.930  28.730   4.200
90125W        W61851  41.951  25.360   5.127
90126W        W61852  37.375  14.628  13.040
90127W        W61853  24.067  25.733  12.512
90128W        W61854  36.206  38.939  11.120
90129W        W61855  26.935  25.962   0.966
90130W        W61856  13.029  44.914   4.326
90131W        W61857  35.504  25.288   3.816
90132W        W61858  10.598  41.438   0.273
90133W        W61859  27.594  36.496  12.346
90134W        W61860  38.037  34.338   2.299
90135W        W61861   9.561  22.921   0.263
90136W        W61862  11.757  26.832   2.693
90137W        W61863  35.951  19.266  14.929
90138W        W61864  28.499  14.389  14.836
90139W        W61865   4.129   7.276  14.003
90140W        W61866  29.958  14.930   0.589
90141W        W61867  21.423  40.523  12.674
90142W        W61868  17.666   9.630  14.940
90143W        W61869  18.088   8.710  11.147
90144W        W61870  19.525  33.426   4.655
90145W        W61871  14.568  26.229  11.195
90146W        W61872   1.827  16.569  12.844
90147W        W61873  35.627  34.999   2.968
90148W        W61874  34.410  24.081   0.857
90149W        W61875  36.021  24.925  12.764
90150W        W61876  12.613   7.729  11.213
90151W        W61877  23.255   4.032  13.142
90152W        W61878  20.647  40.324  11.992
90153W        W61879   6.440  20.205   3.757
90154W        W61880  30.582  42.916  11.019
90155W        W61881  20.288  41.045  10.503
90156W        W61882  19.384  35.094   3.268
90157W        W61883  37.497   3.232  10.322
90158W        W61884  41.895  14.744  12.280
90159W        W61885  37.383   7.852   4.057
90160W        W61886   3.216  42.405  13.919
90161W        W61887  17.312  28.175   1.893
90162W        W61888  27.223  24.956   2.032
90163W        W61889  32.260   5.258  14.214
90164W        W61890  42.663  36.066   4.625
90165W        W61891   3.024   8.679   1.679
90166W        W61892  23.172  15.118   1.306
90167W        W61893  20.991  40.885  14.416
90168W        W61894  37.574  18.220  12.527
90169W        W61895  38.851  27.891   4.371
90170W        W61896  41.483  14.888   0.703
90171W        W61897  42.409  36.865   2.506
90172W        W61898   3.293  23.768  10.915
90173W        W61899   5.441  22.403  12.884
90174W        W61900  28.647  32.041   3.316
90175W        W61901  29.051   6.249  13.403
90176W        W61902   7.692  27.918   4.003
90177W        W61903   1.031  23.184   3.659
90178W        W61904  34.973  26.247  11.470
90179W        W61905  13.153  16.867   5.021
90180W        W61906  24.620   6.700  13.354
90181W        W61907  35.636  12.849   1.727
90182W        W61908   3.395   8.929   3.685
90183W        W61909  24.946  26.985   0.666
90184W        W61910   7.408  41.053   2.416
90185W        W61911  20.593  25.840   4.513
90186W        W61912  28.453  10.473   5.014
90187W        W61913   6.225   2.065   0.268
90188W        W61914  43.139  26.057   1.658
90189W        W61915   9.129  36.404   9.884
90190W        W61916   1.461  32.596   1.230
90191W        W61917  38.377  44.687   3.439
90192W        W61918   7.629   5.397   0.959
90193W        W61919  15.597  14.317   2.728
90194W        W61920  35.040  20.593   3.429
90195W        W61921  43.445  34.206   4.526
90196W        W61922  28.647  26.747   3.608
90197W        W61923  29.222  15.246   3.480
90198W        W61924   5.939  25.171   4.149
90199W        W61925  33.934  44.471  14.957
90200W        W61926  15.782  36.358   3.681
90201W        W61927  18.683  40.569   3.671
90202W        W61928  39.887  29.381   2.219
90203W        W61929  44.339  40.392  14.167
90204W        W61930   7.133  24.200   2.012
90205W        W61931  42.217  35.846  10.716
90206W        W61932  30.585  11.545  11.178
90207W        W61933  43.728  19.858  14.565
90208W        W61934  39.039  40.185  13.806
90209W        W61935   6.225  40.752   9.791
90210W        W61936  41.386  32.194   2.145
90211W        W61937  23.245  10.268  13.487
90212W        W61938  37.722  34.296  13.623
90213W        W61939  44.965  38.974  11.692
90214W        W61940   7.172  34.083   0.995
90215W        W61941   3.205  17.973  10.220
90216W        W61942  23.243  11.610   3.608
90217W        W61943   0.858  40.772  11.244
90218W        W61944  12.873   4.921   2.719
90219W        W61945  36.588  37.246  13.395
90220W        W61946   9.787  28.053   1.938
90221W        W61947  33.194  20.804   1.282
90222W        W61948  44.921  22.235   0.563
90223W        W61949  21.140  20.166  10.711
90224W        W61950   7.877  32.589   3.259
90225W        W61951  17.625   0.971  13.569
90226W        W61952  25.659   5.341  12.006
90227W        W61953   6.142  11.574  13.566
90228W        W61954  29.426   2.253  11.736
90229W        W61955  38.273  30.195   1.151
90230W        W61956  11.390  14.614  11.086
90231W        W61957  33.054  29.657   3.736
90232W        W61958  24.242  13.474   2.152
90233W        W61959  20.675  29.571  10.776
90234W        W61960   7.999  37.534   4.844
90235W        W61961  22.688   0.846   0.202
90236W        W61962   6.600   9.383  12.514
90237W        W61963  30.131   8.218  10.675
90238W        W61964  44.332  24.230  11.231
90239W        W61965  10.358  22.659  11.581
90240W        W61966  31.639  33.785   0.894
90241W        W61967   5.946   2.978  12.946
90242W        W61968  13.049   7.901   0.943
90243W        W61969  17.299   0.224  12.772
90244W        W61970  32.562  41.053  12.174
90245W        W61971   8.265  44.470  11.911
90246W        W61972  23.184  19.492   3.693
90247W        W61973  17.319  39.511  10.264
90248W        W61974  19.744  34.856  11.524
90249W        W61975   6.620  32.851   4.057
90250W        W61976  42.969   2.544  13.069
90251W        W61977  23.231  30.467  13.325
90252W        W61978  12.819   3.440  13.239
90253W        W61979  40.288  30.868   2.229
90254W        W61980  30.644  23.415   9.886
90255W        W61981  29.428  27.007  10.400
90256W        W61982   4.356  23.509   4.089
90257W        W61983  14.395  44.542   0.244
90258W        W61984  21.348  25.239   2.181
90259W        W61985  15.877  10.013   4.235
90260W        W61986  16.756  15.162   3.190
90261W        W61987  33.054   6.859  12.176
90262W        W61988  14.276  40.339  10.578
90263W        W61989   1.172  35.290   2.634
90264W        W61990   2.766  34.599  14.399
90265W        W61991  29.322   8.680   2.302
90266W        W61992  31.692  33.589   4.710
90267W        W61993  24.259  34.901  12.559
90268W        W61994   6.755   8.721   3.402
90269W        W61995  40.513  37.777  13.279
90270W        W61996   6.299  31.636  14.416
90271W        W61997  28.200  16.093  11.150
90272W        W61998  29.505  42.013  13.716
90273W        W61999  30.292  23.138   3.303
90274W        W62000  23.147  38.021   4.888
90275W        W62001   3.025   8.330  12.450
90276W        W62002  15.633  18.079   2.787
90277W        W62003  39.315  28.449  13.360
90278W        W62004   7.897  30.522   0.471
90279W        W62005  24.506  30.155  11.773
90280W        W62006  18.905   8.949  14.522
90281W        W62007  35.924  24.775   1.384
90282W        W62008  44.240  14.846  14.446
90283W        W62009  19.175  40.054   3.115
90284W        W62010  44.293   0.893  13.016
90285W        W62011  25.944   8.794  14.941
90286W        W62012  36.386  30.578   1.727
90287W        W62013  18.525  42.392  14.882
90288W        W62014  30.474  18.450  13.164
90289W        W62015  25.142   6.660   2.708
90290W        W62016   4.172   2.234   0.740
90291W        W62017  44.509  17.446  13.386
90292W        W62018   9.140   5.722   3.169
90293W        W62019   9.110  36.867  11.020
90294W        W62020  33.193  39.107   3.499
90295W        W62021   2.414  32.074   3.705
90296W        W62022  31.779   6.238   4.142
90297W        W62023  40.466  12.009   1.897
90298W        W62024  18.597  35.264  12.830
90299W        W62025  19.862  29.171  11.059
90300W        W62026   8.244  29.102   3.053
90301W        W62027  24.177  37.351   0.505
90302W        W62028  43.453  28.032   1.991
90303W        W62029  18.962  36.119   2.127
90304W        W62030   6.667   6.232   3.251
90305W        W62031  11.580  14.806   4.827
90306W        W62032  36.998  16.834  10.498
90307W        W62033  41.025  29.183   2.787
90308W        W62034  35.537   0.541   1.851
90309W        W62035   6.438   9.830  10.485
90310W        W62036  14.391   2.750  14.428
90311W        W62037  11.572  18.190   4.309
90312W        W62038  43.281  44.246   2.074
90313W        W62039  33.386   4.723  13.528
90314W        W62040   6.994  13.966  12.756
90315W        W62041  18.269  14.683  12.027
90316W        W62042  14.505  37.480   1.757
90317W        W62043  32.984  41.440   1.378
90318W        W62044  25.937  41.017  10.711
90319W        W62045  11.293  23.588   4.519
90320W        W62046   3.240  23.089   3.319
90321W        W62047  41.130  27.319   0.108
90322W        W62048  42.924  20.794  11.370
90323W        W62049  15.517  44.441   4.195
90324W        W62050  18.597  11.616  11.608
90325W        W62051   2.101  33.109   1.839
90326W        W62052  13.570   8.960  12.468
90327W        W62053  37.467   7.443  12.153
90328W        W62054  33.585  19.793  14.321
90329W        W62055  12.836  29.150  14.034
90330W        W62056  38.739  19.759   1.870
90331W        W62057  36.412  29.934   0.819
90332W        W62058  39.738   0.653  11.760
90333W        W62059  36.378  44.977   3.795
90334W        W62060  27.134  38.631  12.136
90335W        W62061  18.274  29.220  11.104
90336W        W62062  26.486   9.727  14.240
90337W        W62063  28.101  20.771  12.885
90338W        W62064  36.376   3.325  12.898
90339W        W62065   5.440   2.212   2.743
90340W        W62066  32.419   6.954  13.707
90341W        W62067   5.573  28.548   0.317
90342W        W62068   3.736  19.123  13.949
90343W        W62069  24.161   9.440   0.496
90344W        W62070  43.318  42.994  12.387
90345W        W62071  38.858  32.534   1.254
90346W        W62072  22.259  39.339   3.152
90347W        W62073  19.057   0.002   0.260
90348W        W62074  24.467  26.907   4.641
90349W        W62075  34.581  36.276   0.244
90350W        W62076  20.922  35.629   0.156
90351W        W62077  18.329   9.759  11.377
90352W        W62078  20.061  34.547  13.172
90353W        W62079   6.380  30.666   2.275
90354W        W62080   4.717  27.935  11.122
90355W        W62081  18.671  23.698  12.412
90356W        W62082  30.195  40.268  11.604
90357W        W62083   2.996  35.835  12.872
90358W        W62084  34.547  19.463   4.713
90359W        W62085  40.022  16.273  14.036
90360W        W62086  34.882  29.686  12.133
90361W        W62087  29.143  16.293  14.295
90362W        W62088  23.275   0.954   2.708
90363W        W62089  19.771  36.097  10.875
90364W        W62090   1.302  29.512   4.091
90365W        W62091  42.390   3.170   3.314
90366W        W62092  37.478  34.361   0.411
90367W        W62093   9.773  20.437  13.493
90368W        W62094  41.853   1.773  10.693
90369W        W62095  44.686  44.395   1.502
90370W        W62096  14.187   3.926  12.179
90371W        W62097  42.351  17.737   1.812
90372W        W62098  11.638  38.135   1.320
90373W        W62099  27.156  30.107  13.748
90374W        W62100   2.210  17.332   3.687
90375W        W62101  13.576  35.847  11.654
90376W        W62102  27.968   8.926  13.919
90377W        W62103   7.622  35.913  10.621
90378W        W62104  28.933  18.456   4.233
90379W        W62105  44.860   7.742   4.404
90380W        W62106  23.295   0.853  11.033
90381W        W62107  40.358  23.682   3.190
90382W        W62108  26.126  18.789   4.639
90383W        W62109  10.358  21.307  13.923
90384W        W62110  41.628  34.462  10.704
90385W        W62111  39.467  35.918  10.452
90386W        W62112  11.590  31.920  10.173
90387W        W62113  18.017  35.544  14.138
90388W        W62114   9.126  19.249  10.872
90389W        W62115  14.345  41.900   1.993
90390W        W62116   6.693  15.706   4.948
90391W        W62117   8.851  35.849   1.865
90392W        W62118   3.453  12.382  13.888
90393W        W62119  43.106   2.665   3.236
90394W        W62120  14.572  18.305  13.327
90395W        W62121   3.285  11.281  14.079
90396W        W62122   1.972  29.046   4.536
90397W        W62123  38.020  31.131   0.421
90398W        W62124  24.130  24.242   4.023
90399W        W62125  37.065  32.009   2.581
90400W        W62126   6.104   3.456   0.455
90401W        W62127  42.866   1.347   4.340
90402W        W62128  40.989  35.177  11.101
90403W        W62129   5.995   6.284  12.252
90404W        W62130  30.340  16.770   4.055
90405W        W62131   3.128  22.726   1.784
90406W        W62132  11.374  25.606  13.341
90407W        W62133   8.871  43.959   4.076
90408W        W62134  33.486  38.145   0.324
90409W        W62135  29.650  43.831  10.940
90410W        W62136   1.410  22.511   0.871
90411W        W62137   9.197  22.773  12.858
90412W        W62138  36.780   4.478  11.035
90413W        W62139  34.530  17.619  13.039
90414W        W62140  30.760   5.999  12.480
90415W        W62141  30.491   3.409   4.562
90416W        W62142   5.463  25.356  14.502
90417W        W62143  17.279   3.736   1.833
90418W        W62144  17.617  44.338  10.656
90419W        W62145  31.902   4.472  13.968
90420W        W62146  24.015  42.512   3.137
90421W        W62147  42.695  34.190   1.732
90422W        W62148   7.219  17.199  12.479
90423W        W62149  29.639  21.701  10.431
90424W        W62150  24.324  10.683  13.922
90425W        W62151   6.409  38.356  11.212
90426W        W62152   6.244  34.106  13.276
90427W        W62153   8.699   4.876   4.229
90428W        W62154  27.187  32.269   3.129
90429W        W62155   4.480  15.299   4.826
90430W        W62156  22.939   7.533   0.470
90431W        W62157  34.891  42.296  14.819
90432W        W62158  16.104  34.061  13.745
90433W        W62159   3.288  19.339  10.811
90434W        W62160  23.008  22.770  11.539
90435W        W62161  10.652  33.370   2.347
90436W        W62162  25.873  11.898  11.962
90437W        W62163  35.174  14.800   2.906
90438W        W62164  18.523  34.482  12.608
90439W        W62165  36.590   6.113   4.106
90440W        W62166   7.129  13.264   3.953
90441W        W62167  26.990   8.243  13.810
90442W        W62168   5.183  24.042   0.307
90443W        W62169  17.962  15.482   1.257
90444W        W62170   8.167  35.316   5.038
90445W        W62171   1.814   3.522   5.020
90446W        W62172  17.218   6.906   2.762
90447W        W62173  44.203  35.039  10.807
90448W        W62174  36.804  15.126  10.640
90449W        W62175  26.103  17.047  14.893
90450W        W62176  15.789   2.325  12.796
90451W        W62177  29.311  38.173   1.811
90452W        W62178  26.781   8.519   3.783
90453W        W62179   3.294  38.333  13.988
90454W        W62180   0.880  42.261  13.466
90455W        W62181   8.240   6.049   9.783
90456W        W62182  43.284  38.319  14.818
90457W        W62183  23.478  44.485   1.902
90458W        W62184  18.657  10.064  11.668
90459W        W62185  27.522  33.111   3.126
90460W        W62186  38.486  31.444  13.421
90461W        W62187  32.426  36.093   2.387
90462W        W62188  25.260   1.520   4.194
90463W        W62189  18.645  39.357   0.433
90464W        W62190  30.530   3.837  14.919
90465W        W62191  43.852  30.481   1.481
90466W        W62192  23.664   7.467  14.047
90467W        W62193   5.280   0.536  14.564
90468W        W62194  33.028  32.584  13.944
90469W        W62195   1.147  15.666   2.314
90470W        W62196  21.092  11.164  14.043
90471W        W62197   0.034  24.026  13.486
90472W        W62198  13.121   3.485   0.310
90473W        W62199  32.630  44.996   4.623
90474W        W62200  27.299   9.405   4.109
90475W        W62201   0.761  33.085   1.240
90476W        W62202   1.026  25.231   2.944
90477W        W62203  42.826  20.123   4.621
90478W        W62204   4.954  34.389  10.284
90479W        W62205  44.138  26.382   0.253
90480W        W62206  11.202  33.481  11.877
90481W        W62207  36.986  37.960  14.911
90482W        W62208  19.501  28.450   3.166
90483W        W62209  28.437  41.423  10.562
90484W        W62210  17.142  13.384   1.888
90485W        W62211  42.891  22.171   3.218
90486W        W62212  37.459  34.548  12.039
90487W        W62213  21.300  21.998   1.428
90488W        W62214   5.607  41.545  11.791
90489W        W62215  34.015   8.222  12.483
90490W        W62216   7.239   2.135  13.071
90491W        W62217  24.649  16.738   3.734
90492W        W62218  38.916  31.579  10.464
90493W        W62219  16.850  12.598  14.793
90494W        W62220  11.885  16.494  12.469
90495W        W62221   8.627   5.997   4.151
90496W        W62222  12.793  26.209   4.002
90497W        W62223  17.162   5.634   1.810
90498W        W62224  27.237  31.446   4.954
90499W        W62225  38.186  15.097   3.991
90500W        W62226  18.782  25.707   2.823
90501W        W62227  20.858   1.919   4.591
90502W        W62228  27.494  38.560  10.889
90503W        W62229   6.178  43.701   2.620
90504W        W62230  44.540  32.047   3.627
90505W        W62231   2.191   6.105  13.304
90506W        W62232  21.609  28.206   0.339
90507W        W62233  12.986  37.060   1.125
90508W        W62234  40.773  19.995  12.979
90509W        W62235  20.262  34.425  10.420
90510W        W62236  37.944  41.897  12.482
90511W        W62237  34.374  12.173   2.426
90512W        W62238  12.898  37.835   4.932
90513W        W62239  10.712  18.712   0.298
90514W        W62240  40.629   0.244  12.501
90515W        W62241   0.656  26.458   3.301
90516W        W62242  25.977  43.367  12.865
90517W        W62243  38.847  13.325   2.880
90518W        W62244  27.581   1.501   3.691
90519W        W62245  13.865   0.232   4.354
90520W        W62246  37.979  21.639  10.671
90521W        W62247   0.608  19.690   4.591
90522W        W62248  20.510  35.174   1.861
90523W        W62249  33.802  38.326   4.175
90524W        W62250   3.963   3.775   0.825
90525W        W62251  23.545  33.035  11.115
90526W        W62252  26.572   7.977   1.420
90527W        W62253  13.266  43.868  11.026
90528W        W62254   1.857  18.880   0.740
90529W        W62255  35.377  24.080  12.562
90530W        W62256   3.474  30.492   2.186
90531W        W62257  20.723  13.888  12.557
90532W        W62258  10.679  18.033   0.896
90533W        W62259  28.206  10.660   2.779
90534W        W62260  21.345  18.765   1.118
90535W        W62261   9.599  11.715  11.668
90536W        W62262  27.491  19.975  10.754
90537W        W62263  16.804  11.801  13.917
90538W        W62264  21.212  33.536   4.129
90539W        W62265  36.633   6.284   1.113
90540W        W62266   7.122   9.274   4.110
90541W        W62267  15.551  30.046   5.105
90542W        W62268  37.305  38.274  12.159
90543W        W62269   1.183  39.037  10.709
90544W        W62270  18.381  19.697  13.676
90545W        W62271  10.678  33.224   1.084
90546W        W62272  29.287  40.450   4.203
90547W        W62273  21.008   2.837   2.179
90548W        W62274  31.568  15.087  14.321
90549W        W62275  23.697  35.017   4.225
90550W        W62276  12.538   0.713   4.181
90551W        W62277  33.952   1.762  10.661
90552W        W62278  17.830  32.334   4.124
90553W        W62279  40.257  22.662  12.489
90554W        W62280  14.785  17.738   0.869
90555W        W62281  25.520  25.604  10.776
90556W        W62282  44.766  29.982  12.155
90557W        W62283  24.634   2.767  12.723
90558W        W62284   7.684   2.856   2.820
90559W        W62285   9.214  25.143   0.273
90560W        W62286   9.631   9.911   2.759
90561W        W62287  21.092  32.750   0.401
90562W        W62288  38.817  25.951  12.462
90563W        W62289   7.330  42.386   0.718
90564W        W62290  41.848  24.305  14.513
90565W        W62291   7.720  44.035  10.247
90566W        W62292  36.440  27.978  13.110
90567W        W62293   6.310  30.056  10.701
90568W        W62294  12.963  19.504  10.632
90569W        W62295  24.558  29.484  10.688
90570W        W62296  30.466   6.746   4.872
90571W        W62297   8.872   4.793  11.518
90572W        W62298  35.308  28.390  14.945
90573W        W62299  20.141  16.198   3.417
90574W        W62300  19.583  23.554  14.248
90575W        W62301  28.585  16.046   0.538
90576W        W62302  29.503  42.046  13.199
90577W        W62303  35.320  28.206  14.435
90578W        W62304   4.894  13.135   3.197
90579W        W62305  44.057  42.774  14.082
90580W        W62306  13.362   4.260  14.370
90581W        W62307  41.813  21.312  12.639
90582W        W62308  10.237  15.616   2.994
90583W        W62309  29.804  31.327  13.541
90584W        W62310  29.296  26.359   4.271
90585W        W62311  34.500   1.687  12.232
90586W        W62312  27.828  31.599   0.693
90587W        W62313  14.657  25.665   3.761
90588W        W62314   6.787  10.513  11.930
90589W        W62315  23.012   9.417  12.549
90590W        W62316  40.107  24.112  13.409
90591W        W62317  18.079  39.479   4.835
90592W        W62318   1.156  19.690  11.792
90593W        W62319  33.269  20.515   0.834
90594W        W62320  19.729  43.042  13.087
90595W        W62321  38.030   8.872   1.418
90596W        W62322  14.246   0.933   0.424
90597W        W62323   1.432  25.141  14.857
90598W        W62324  42.911  12.358  10.595
90599W        W62325  38.445  13.535  11.924
90600W        W62326  19.617  19.446   3.502
90601W        W62327   0.291  23.593   2.252
90602W        W62328   2.030  15.758  10.410
90603W        W62329  27.821  24.241   4.272
90604W        W62330  29.499   3.712   1.393
90605W        W62331  27.401   2.372   0.728
90606W        W62332   9.474   1.490   4.176
90607W        W62333  44.367  30.163   1.413
90608W        W62334   5.289   9.865   3.141
90609W        W62335  17.632  19.020   2.478
90610W        W62336  21.155  26.732  12.784
90611W        W62337   0.288   5.256   1.702
90612W        W62338  37.802   6.191   4.149
90613W        W62339  40.969  36.635  12.200
90614W        W62340  11.903  15.812   1.053
90615W        W62341   1.991  36.918  12.044
90616W        W62342  21.705  42.356   2.630
90617W        W62343   5.995  19.475   4.827
90618W        W62344  44.536  42.067  14.953
90619W        W62345  31.624  36.559   3.520
90620W        W62346  29.599  34.831  12.030
90621W        W62347  41.402  12.818   3.018
90622W        W62348  29.068   6.751  13.470
90623W        W62349  25.674  39.017   1.804
90624W        W62350   9.707  14.091  10.624
90625W        W62351   9.215  40.413  12.840
90626W        W62352   8.303  25.327   5.296
90627W        W62353  26.227   1.286  12.927
90628W        W62354  20.608  13.804   2.576
90629W        W62355  40.568   2.102  11.187
90630W        W62356   3.987  28.122  13.599
90631W        W62357  27.128   7.723   3.616
90632W        W62358  23.549  11.888  12.831
90633W        W62359  27.209   2.372   4.655
90634W        W62360  19.042  16.235  12.443
90635W        W62361  16.277  36.013  14.314
90636W        W62362  34.278  30.588   1.485
90637W        W62363  39.550  19.245  13.306
90638W        W62364  31.167  34.130  11.877
90639W        W62365   7.645  17.791   1.378
90640W        W62366  41.422  43.620  10.524
90641W        W62367  16.575   1.240  11.966
90642W        W62368  21.698   5.441  14.428
90643W        W62369  24.539  39.516   1.047
90644W        W62370   8.259  25.389  10.892
90645W        W62371   8.076   1.707   4.465
90646W        W62372  11.863  17.131  12.465
90647W        W62373  16.120  39.574   1.832
90648W        W62374   4.785   4.244   0.520
90649W        W62375  21.742  27.042  11.456
90650W        W62376   0.403  41.369   2.928
90651W        W62377  13.131  27.549   1.660
90652W        W62378  27.998   7.635  11.119
90653W        W62379  30.146  18.091  11.662
90654W        W62380   8.349  29.051   3.563
90655W        W62381  13.354  16.349  11.218
90656W        W62382  28.183  20.072   0.731
90657W        W62383  23.669  42.195  13.957
90658W        W62384  24.605   3.224   3.156
90659W        W62385  13.865  39.248  13.018
90660W        W62386  36.986  41.581   0.781
90661W        W62387  43.279  27.566   0.766
90662W        W62388  34.404  36.156  13.073
90663W        W62389  39.324   7.313   3.776
90664W        W62390  11.165  15.401  13.411
90665W        W62391  33.854  35.424   3.191
90666W        W62392  37.003   8.165   0.900
90667W        W62393  41.612  22.109   3.855
90668W        W62394  33.369  39.097  12.423
90669W        W62395  22.824  27.882  11.546
90670W        W62396  39.457  43.883   2.377
90671W        W62397  22.856  18.989   2.170
90672W        W62398   2.771  15.507  10.305
90673W        W62399  25.163  40.563   3.650
90674W        W62400   7.818  39.157  10.738
90675W        W62401  24.911  40.441  14.307
90676W        W62402  27.948  15.440  13.561
90677W        W62403  38.565  28.933   0.698
90678W        W62404  30.206  31.570  13.834
90679W        W62405  39.032  33.250  12.499
90680W        W62406   1.907  34.839  12.773
90681W        W62407  37.021  36.902   3.317
90682W        W62408  39.465  31.770   5.106
90683W        W62409  36.726  44.033   0.058
90684W        W62410  39.126  32.104   1.324
90685W        W62411   3.828  36.946   2.908
90686W        W62412  39.711  17.549   3.370
90687W        W62413  39.939  12.733  13.658
90688W        W62414  19.706  12.762  14.042
90689W        W62415   7.336  12.827   1.802
90690W        W62416  25.146  22.080  13.371
90691W        W62417  36.295   7.023  14.223
90692W        W62418  37.406  35.982  14.891
90693W        W62419  32.570  34.967  11.269
90694W        W62420  18.631  23.582   2.663
90695W        W62421   9.180  29.932   0.448
90696W        W62422  28.738  10.634   2.793
90697W        W62423  34.119  16.608   3.694
90698W        W62424  31.624   5.498   3.591
90699W        W62425  28.425  43.310   1.403
90700W        W62426  33.438  44.565   1.587
90701W        W62427  35.548  28.507   3.431
90702W        W62428   9.559   5.622  12.027
90703W        W62429   6.165  19.389   4.345
90704W        W62430  13.657  21.235  14.862
90705W        W62431  35.498  44.983   1.870
90706W        W62432   5.284  36.627  11.561
90707W        W62433  36.922  16.905  11.041
90708W        W62434  41.343  15.325   4.235
90709W        W62435  37.514  22.342   2.797
90710W        W62436  26.797  21.633   1.656
90711W        W62437  15.420  27.621  11.145
90712W        W62438  13.560  26.780   4.880
90713W        W62439  22.728  26.621  11.086
90714W        W62440  34.946  16.863  13.919
90715W        W62441  18.966   8.832   0.470
90716W        W62442  32.311  30.067  14.451
90717W        W62443  38.884  31.447   2.835
90718W        W62444  31.046  21.816  13.078
90719W        W62445  21.297   0.566   4.021
90720W        W62446  16.152  20.602   1.824
90721W        W62447  38.587  42.448  12.782
90722W        W62448   5.108  35.854  14.052
90723W        W62449  33.534  40.303  14.799
90724W        W62450  23.787  37.695   1.496
90725W        W62451   7.176  11.888   1.729
90726W        W62452   2.192   5.761  10.584
90727W        W62453  21.116  25.499  14.738
90728W        W62454  27.071   7.982   1.237
90729W        W62455  20.246  17.146   4.670
90730W        W62456   7.479  24.529  13.331
90731W        W62457  10.800  36.970  12.463
90732W        W62458  43.039  34.504   0.264
90733W        W62459  27.568  43.907   2.739
90734W        W62460  20.455   5.912   0.765
90735W        W62461  39.595  21.241  12.506
90736W        W62462   3.999  38.578  11.510
90737W        W62463  42.954  15.717   0.232
90738W        W62464  22.244  11.265   4.935
90739W        W62465  19.740  37.683   2.210
90740W        W62466  13.036  35.596  13.614
90741W        W62467   7.836  10.629   1.499
90742W        W62468  16.647  41.104   0.472
90743W        W62469  33.840  33.795   4.118
90744W        W62470   6.328  28.561  11.876
90745W        W62471   6.921   3.966  14.938
90746W        W62472  32.953  39.107   0.006
90747W        W62473  25.163   2.981  11.439
90748W        W62474  41.936  28.265   1.725
90749W        W62475  19.074   1.851  14.416
90750W        W62476  32.944   8.711  10.713
90751W        W62477   0.510  17.007   1.678
90752W        W62478   7.774  29.453   2.381
90753W        W62479  14.390   0.332   2.795
90754W        W62480  10.070  25.919  13.453
90755W        W62481  30.876  25.988   2.896
90756W        W62482  34.640  40.874  12.280
90757W        W62483  22.289  40.828   0.037
90758W        W62484  19.892  17.847  13.461
90759W        W62485  11.813  22.001  13.084
90760W        W62486   2.454  33.446  11.662
90761W        W62487   7.619  42.335  12.853
90762W        W62488  40.128  19.852  12.157
90763W        W62489  25.591  43.473   1.757
90764W        W62490  40.132  17.516   4.748
90765W        W62491  21.678  28.643  14.589
90766W        W62492  18.764   4.545   3.196
90767W        W62493   2.541  42.616  10.711
90768W        W62494  34.222  39.499   1.629
90769W        W62495  37.922  12.128   1.689
90770W        W62496   9.837  44.522  14.201
90771W        W62497  38.312  33.436  12.300
90772W        W62498  29.102  33.921  12.022
90773W        W62499  13.665  13.833  13.327
90774W        W62500  26.447   0.791  14.554
90775W        W62501  21.513  30.690  11.992
90776W        W62502  37.863  16.272   4.496
90777W        W62503  42.997  42.316  14.952
90778W        W62504  17.271   5.344   2.657
90779W        W62505  32.147  18.587  11.625
90780W        W62506   2.332   2.609   1.778
90781W        W62507  25.589  39.073   0.871
90782W        W62508  13.410   0.408   2.909
90783W        W62509  18.180   1.152   0.812
90784W        W62510  40.463   5.933  12.613
90785W        W62511  42.018  36.305   0.998
90786W        W62512   9.190  29.224   3.287
90787W        W62513  10.788  14.400  12.140
90788W        W62514  16.196   7.330   4.677
90789W        W62515   4.857   1.389  14.608
90790W        W62516  30.929  26.725   4.249
90791W        W62517  43.846   8.047  11.603
90792W        W62518  13.154  15.597   0.542
90793W        W62519   9.860  36.000  11.379
90794W        W62520  18.169  39.321  10.595
90795W        W62521  32.675  44.953   5.137
90796W        W62522  13.281  35.812   4.747
90797W        W62523  15.118  29.519  14.796
90798W        W62524  16.268  23.811   3.602
90799W        W62525  28.975  34.149   0.106
90800W        W62526  32.546  15.377   4.346
90801W        W62527  39.122  18.433  13.646
90802W        W62528  39.075  23.356  11.510
90803W        W62529   5.565  15.122  12.974
90804W        W62530  14.340  23.517   2.918
90805W        W62531  33.059  35.389  13.311
90806W        W62532  20.747   1.136  12.485
90807W        W62533  10.806   0.977  12.885
90808W        W62534  21.801  29.086  12.516
90809W        W62535  25.287  30.542  12.593
90810W        W62536  33.938  31.624   4.876
90811W        W62537  35.990  42.721  11.093
90812W        W62538  17.650  20.377   2.830
90813W        W62539   8.559  35.060  12.023
90814W        W62540   3.126  30.105   1.378
90815W        W62541  40.292  19.348  12.097
90816W        W62542  42.775  20.074  12.512
90817W        W62543  38.529  31.347  14.448
90818W        W62544   0.320  33.433  13.476
90819W        W62545  11.215  24.675  10.931
90820W        W62546   6.961   0.840   4.642
90821W        W62547  17.670   6.983   0.441
90822W        W62548  41.534   5.995   1.305
90823W        W62549   0.794  14.320   3.262
90824W        W62550  12.293   4.796  13.961
90825W        W62551  11.290   8.698  13.763
90826W        W62552   7.670  38.644   2.413
90827W        W62553   6.717   9.898  14.171
90828W        W62554  23.125  30.351   2.197
90829W        W62555  23.562  25.937   4.008
90830W        W62556  32.492  25.225  11.105
90831W        W62557  39.596  21.823   0.364
90832W        W62558  38.916   0.412  11.043
90833W        W62559   8.074  43.094   2.872
90834W        W62560  24.773   0.814   2.142
90835W        W62561  14.125  33.660   0.385
90836W        W62562  38.528  31.153  13.848
90837W        W62563  38.412  43.942   0.801
90838W        W62564  14.134  33.343  14.003
90839W        W62565  19.658  16.686   1.867
90840W        W62566   2.063  25.344   0.928
90841W        W62567  25.223  43.775  14.306
90842W        W62568  17.577  29.219  10.607
90843W        W62569  28.250  16.628  14.806
90844W        W62570   1.236  33.892  11.457
90845W        W62571  17.168  32.850  11.983
90846W        W62572  17.869   9.867   2.354
90847W        W62573  31.095   2.293   3.986
90848W        W62574  20.056  20.099  11.476
90849W        W62575  32.358  15.549  13.931
90850W        W62576  36.410  37.462  12.865
90851W        W62577  29.121  37.075  14.620
90852W        W62578  44.236  35.931   0.895
90853W        W62579  26.045  38.481  12.494
90854W        W62580  17.293  20.092   3.269
90855W        W62581  24.868  22.251  14.881
90856W        W62582  15.781  44.962  14.366
90857W        W62583  15.179   7.310  14.515
90858W        W62584  22.135  19.224   2.975
90859W        W62585  32.590  14.579   0.400
90860W        W62586   9.760  37.936   0.381
90861W        W62587  10.665  39.973  12.915
90862W        W62588  12.164  15.687   1.709
90863W        W62589  20.123  20.306   4.618
90864W        W62590  10.194  26.449   3.223
90865W        W62591  21.291  34.646   3.127
90866W        W62592  11.069  17.704  11.580
90867W        W62593  43.252  32.575  10.105
90868W        W62594  25.982  12.118   3.845
90869W        W62595  36.810  21.683   2.205
90870W        W62596   3.523  34.128   1.421
90871W        W62597  14.533  38.761  13.961
90872W        W62598  32.702  24.247  11.178
90873W        W62599  20.401  39.903   1.568
90874W        W62600   7.636  34.050  11.317
90875W        W62601  36.378  35.020   1.834
90876W        W62602  35.473  27.966   1.718
90877W        W62603  16.645  41.560  14.025
90878W        W62604  39.969  23.342  14.703
90879W        W62605  41.904  35.718   4.932
90880W        W62606  13.106   7.569   1.891
90881W        W62607   9.370   1.735   3.283
90882W        W62608  27.581   8.819  14.249
90883W        W62609  40.574  42.498   0.011
90884W        W62610  11.299  36.430   2.767
90885W        W62611  42.349  24.476  10.706
90886W        W62612  42.099  21.604  11.950
90887W        W62613  38.923  13.651  11.724
90888W        W62614  30.345  15.945  11.312
90889W        W62615   4.641   1.527  11.188
90890W        W62616  28.678  16.380  14.563
90891W        W62617   6.363  40.140  14.455
90892W        W62618   6.812  32.921   4.546
90893W        W62619  10.755  20.013  13.772
90894W        W62620   7.918  28.177   0.853
90895W        W62621  34.851  22.564   3.233
90896W        W62622  21.783   5.846   4.006
90897W        W62623  17.432   3.494   2.833
90898W        W62624  41.712  13.230  11.177
90899W        W62625  21.068  20.245  14.689
90900W        W62626   3.885  17.206   3.434
90901W        W62627   1.025  18.289   1.801
90902W        W62628   1.878   2.106  13.186
90903W        W62629   6.508   7.162   5.046
90904W        W62630  36.617   6.511  12.159
90905W        W62631   6.116  38.283   0.387
90906W        W62632  44.483  24.068  13.436
90907W        W62633  40.318  32.871  12.936
90908W        W62634  30.083  24.520  12.022
90909W        W62635  26.492  43.622   3.770
90910W        W62636  23.998  34.580   0.810
90911W        W62637  16.350  35.434   1.407
90912W        W62638  33.652  41.460  12.927
90913W        W62639  22.377  40.819   3.788
90914W        W62640  32.860   0.918   1.694
90915W        W62641  44.471  36.729   3.178
90916W        W62642  29.540  25.723  10.202
90917W        W62643  21.785  42.884   4.651
90918W        W62644  29.495  19.768  13.088
90919W        W62645  42.834  27.416  14.753
90920W        W62646  38.014   9.088   4.096
90921W        W62647  15.713   0.978   3.068
90922W        W62648  24.079  26.232  12.488
90923W        W62649  36.904  12.484   4.584
90924W        W62650   2.785   3.325  13.120
90925W        W62651  29.510  12.560  12.988
90926W        W62652   8.099   0.832  12.024
90927W        W62653   0.108  37.194  11.959
90928W        W62654  29.554  30.866  10.763
90929W        W62655  18.074  35.870  13.097
90930W        W62656  42.951  21.183  10.541
90931W        W62657  32.136  32.491   2.249
90932W        W62658  41.500   7.845   4.692
90933W        W62659  15.505  34.364  13.466
90934W        W62660  34.692   8.049  12.905
90935W        W62661  32.008  38.229  10.189
90936W        W62662  12.126   8.867   4.657
90937W        W62663   0.826  25.970  14.533
90938W        W62664   4.336   1.530   1.316
90939W        W62665  15.764  23.049   4.552
90940W        W62666   4.200  25.897   4.825
90941W        W62667  44.326  44.037  14.831
90942W        W62668  22.955  44.825   2.184
90943W        W62669  41.484   0.115   4.053
90944W        W62670  38.828  10.794  13.396
90945W        W62671  10.039  15.519   3.449
90946W        W62672  32.289  32.913  10.542
90947W        W62673  38.076  12.449  13.276
90948W        W62674  25.420  30.959   4.057
90949W        W62675  10.337  34.496   0.371
90950W        W62676  41.201  43.484  14.097
90951W        W62677  16.223  28.006   1.258
90952W        W62678  10.135  22.959   1.876
90953W        W62679  36.109  20.054  11.020
90954W        W62680  25.198  39.582   2.535
90955W        W62681  24.538   3.062   4.934
90956W        W62682  38.489  18.031   1.866
90957W        W62683   3.447  35.787  14.851
90958W        W62684  17.339  20.374  14.296
90959W        W62685   4.772  20.792  11.121
90960W        W62686  22.619  38.856  13.120
90961W        W62687  28.267  44.958   3.300
90962W        W62688  16.287  22.092  10.818
90963W        W62689   8.227  25.060   0.324
90964W        W62690  22.403   3.950   4.550
90965W        W62691  33.548  28.167   0.384
90966W        W62692  35.583   6.343  11.607
90967W        W62693  38.322   1.550   1.440
90968W        W62694  31.680  36.184   2.190
90969W        W62695  39.338   9.120  14.872
90970W        W62696  21.054  23.140  10.783
90971W        W62697   9.425  31.582  12.029
90972W        W62698  37.096  20.180   3.243
90973W        W62699  20.671  33.576   4.390
90974W        W62700  41.523  34.335  13.029
90975W        W62701   5.169  36.968   4.204
90976W        W62702  18.182  41.028   2.895
90977W        W62703  40.559  17.372  13.832
90978W        W62704  27.617  26.578   2.714
90979W        W62705  29.125  23.027   4.104
90980W        W62706  32.003  25.158  10.388
90981W        W62707  44.901   8.208  12.478
90982W        W62708  17.695   0.956  14.964
90983W        W62709  41.285  33.406   4.165
90984W        W62710  11.808  33.598  14.915
90985W        W62711  41.733   4.862  14.906
90986W        W62712   1.580   9.532  14.610
90987W        W62713  13.880  34.069   4.578
90988W        W62714  36.420  39.492   1.786
90989W        W62715  11.669  36.095   3.548
90990W        W62716   1.831  27.934  11.454
90991W        W62717  37.815  23.367  13.770
90992W        W62718   2.029   5.016   4.240
90993W        W62719  25.647  20.267   2.307
90994W        W62720  13.692   4.900  10.678
90995W        W62721  11.134  33.023  11.661
90996W        W62722  14.820  37.987   4.097
90997W        W62723  37.314  33.911  13.593
90998W        W62724  44.854  34.429   3.271
90999W        W62725   5.910  37.640   3.618
91000W        W62726  16.883  31.290   4.336
91001W        W62727  18.745  20.692  11.132
91002W        W62728  24.666  25.894   1.777
91003W        W62729  42.951  22.641  13.392
91004W        W62730  25.635  34.607   4.244
91005W        W62731  31.105  30.369   5.042
91006W        W62732   5.956  42.223   1.246
91007W        W62733  10.390   7.545   1.692
91008W        W62734  29.520  40.241  14.229
91009W        W62735  10.451  20.036  14.590
91010W        W62736  27.004   1.415   4.641
91011W        W62737  23.728  40.439  13.878
91012W        W62738  35.001   3.380   4.976
91013W        W62739  19.020  17.332  11.424
91014W        W62740  41.469  17.178   4.246
91015W        W62741   7.383  14.646  13.290
91016W        W62742  31.920  42.433  14.973
91017W        W62743   1.926  11.134   0.465
91018W        W62744  33.098  34.857   4.258
91019W        W62745  29.984   4.191  12.283
91020W        W62746  18.101  35.406   3.936
91021W        W62747  18.609  15.214   2.811
91022W        W62748   1.565   0.689   0.695
91023W        W62749  22.281  10.811  10.992
91024W        W62750  11.092  23.540  13.389
91025W        W62751  23.167  34.872  13.805
91026W        W62752  20.988  30.163  11.150
91027W        W62753  38.903   5.045   2.716
91028W        W62754  28.070  29.436   4.512
91029W        W62755  42.066   9.310   4.030
91030W        W62756   7.809  40.099   3.251
91031W        W62757   2.941  19.138   0.516
91032W        W62758  34.900  31.896   4.089
91033W        W62759  39.336  35.839  11.457
91034W        W62760  13.883  24.950   3.607
91035W        W62761  22.791   2.024  11.175
91036W        W62762  34.018   0.967  11.934
91037W        W62763  41.342  35.519   0.724
91038W        W62764  41.651  37.356   9.921
91039W        W62765   0.513   3.792  13.155
91040W        W62766  43.975  41.071   1.273
91041W        W62767  35.518  16.600  10.668
91042W        W62768  34.566  38.146  12.097
91043W        W62769  31.047  33.125  11.058
91044W        W62770   8.949  31.067   4.818
91045W        W62771  16.492   4.254  12.570
91046W        W62772   9.198  41.530   0.869
91047W        W62773  30.545  43.728  12.003
91048W        W62774  16.254  42.286  12.518
91049W        W62775  13.526  41.928   4.415
91050W        W62776  26.515  27.970  11.596
91051W        W62777  21.233  36.765   0.489
91052W        W62778  35.871  31.145  11.549
91053W        W62779  38.839  40.766   2.277
91054W        W62780  24.229  15.675  13.841
91055W        W62781   1.720  22.145  10.670
91056W        W62782  40.076  25.979   3.027
91057W        W62783   3.140   9.134   1.260
91058W        W62784  43.491  30.422   1.123
91059W        W62785  15.471   5.685   2.675
91060W        W62786  23.256  34.628   2.487
91061W        W62787  14.773  25.723  12.962
91062W        W62788  28.932   1.998   1.679
91063W        W62789  41.105  28.388   1.191
91064W        W62790  27.432   1.382   0.863
91065W        W62791  17.522   0.422   2.277
91066W        W62792  24.960  38.928   2.319
91067W        W62793  27.636  13.172   2.709
91068W        W62794  31.899  43.840   4.634
91069W        W62795  16.468  12.813   0.699
91070W        W62796  43.824  42.767  12.554
91071W        W62797  43.561   6.773   2.684
91072W        W62798   9.164  40.292   4.574
91073W        W62799  35.464  43.529  11.434
91074W        W62800  15.833  44.686   0.968
91075W        W62801  17.760  34.886  11.600
91076W        W62802  26.630  27.186   4.547
91077W        W62803  26.319  28.591   1.281
91078W        W62804  13.303  15.937  14.050
91079W        W62805  26.896   4.432   4.748
91080W        W62806   3.082  34.482  11.463
91081W        W62807   4.198  29.816   4.709
91082W        W62808  19.290  26.203  14.338
91083W        W62809   6.712  22.788  13.783
91084W        W62810  21.557   9.254   2.364
91085W        W62811   3.096  18.510  11.073
91086W        W62812  30.540   0.403   2.813
91087W        W62813  36.374  26.427  13.030
91088W        W62814  24.881   4.176  11.937
91089W        W62815  16.765  41.484   3.832
91090W        W62816  30.891  15.229   3.973
91091W        W62817  16.599  33.129  12.909
91092W        W62818  30.129  23.163   1.761
91093W        W62819  13.891   4.922   2.641
91094W        W62820  21.485   4.422   1.878
91095W        W62821  18.729  15.675  12.398
91096W        W62822  17.345  44.729  11.087
91097W        W62823  43.582  16.156   2.968
91098W        W62824  29.055   0.987   1.772
91099W        W62825  42.684  31.096  14.175
91100W        W62826  44.924  14.066   3.651
91101W        W62827   8.444   4.527   2.791
91102W        W62828  14.053  14.161   2.673
91103W        W62829  15.646  38.523  12.579
91104W        W62830  32.107  10.225  13.021
91105W        W62831   4.777  27.512   1.382
91106W        W62832  41.971  44.477  12.167
91107W        W62833   2.156   7.205   4.737
91108W        W62834  39.936   0.373  14.214
91109W        W62835  30.356  26.027  10.247
91110W        W62836   8.289  12.346   0.390
91111W        W62837  12.144   2.814   4.594
91112W        W62838   3.878  13.837   1.390
91113W        W62839  23.808  18.089  14.788
91114W        W62840  22.268  28.186  12.329
91115W        W62841   1.818   8.759   3.501
91116W        W62842   0.844  15.108   2.744
91117W        W62843   7.363  38.492   1.727
91118W        W62844   9.872  25.618   4.064
91119W        W62845  13.808  41.499   3.686
91120W        W62846  28.986   4.216  12.013
91121W        W62847  11.911  32.419   4.349
91122W        W62848   8.416  36.239   4.199
91123W        W62849  40.410  33.387  11.479
91124W        W62850  32.050  36.713  10.539
91125W        W62851   9.655  42.566   2.668
91126W        W62852  21.456  32.471   0.844
91127W        W62853  24.581  42.850  13.000
91128W        W62854  25.475  39.885  14.566
91129W        W62855   9.328  22.096   1.687
91130W        W62856   8.740  34.577  12.055
91131W        W62857  21.475  42.894  10.831
91132W        W62858  39.236   2.412  10.465
91133W        W62859   3.160  26.063   0.287
91134W        W62860   7.651  32.873   1.876
91135W        W62861   5.159  30.001   4.603
91136W        W62862   7.332   7.350  14.402
91137W        W62863  21.981  10.397  13.068
91138W        W62864  39.123  43.343  12.921
91139W        W62865  44.074  16.741  11.114
91140W        W62866   0.168   3.386   1.436
91141W        W62867   8.799  25.725  11.664
91142W        W62868  31.147  30.516  14.070
91143W        W62869  26.605  29.673   0.714
91144W        W62870  33.978  42.359   2.410
91145W        W62871  35.421   1.565   4.571
91146W        W62872   7.193  15.566   5.088
91147W        W62873  21.568  37.057  11.857
91148W        W62874  40.116  12.566   9.685
91149W        W62875  33.540  15.354   4.575
91150W        W62876  19.785  12.265  13.892
91151W        W62877  39.956  32.995  14.957
91152W        W62878  40.541  11.537   3.636
91153W        W62879  21.287  35.190  11.147
91154W        W62880  44.340  32.146   0.726
91155W        W62881  41.487  20.622   4.033
91156W        W62882   7.258  28.234  14.229
91157W        W62883  23.443  29.966   2.281
91158W        W62884  27.162  28.619   4.165
91159W        W62885  40.003  21.823  14.482
91160W        W62886   2.362  25.178  11.586
91161W        W62887  30.833  22.171   4.182
91162W        W62888  38.333   4.613  14.338
91163W        W62889   8.048  30.235   0.889
91164W        W62890   8.760  29.695   1.759
91165W        W62891  16.100  24.653   3.801
91166W        W62892  14.642   0.940   4.136
91167W        W62893  28.554  33.127  13.953
91168W        W62894  19.770  34.477   1.526
91169W        W62895  13.728  33.242  13.649
91170W        W62896   1.234  15.910   3.799
91171W        W62897   0.495  16.667   0.751
91172W        W62898   2.685  19.178  14.990
91173W        W62899  39.545  41.282  12.030
91174W        W62900  35.763  13.623   2.755
91175W        W62901  38.404  41.379   3.598
91176W        W62902   0.885  28.253   0.299
91177W        W62903  39.180  30.102   2.264
91178W        W62904  18.837  39.652  13.022
91179W        W62905   5.700  32.137  10.715
91180W        W62906  16.647  44.720  10.797
91181W        W62907   1.343   4.883  12.377
91182W        W62908  35.960   8.282   3.740
91183W        W62909  13.366  12.630  13.768
91184W        W62910  40.658  14.999   1.745
91185W        W62911   2.201  39.785  13.896
91186W        W62912  41.043  28.352  14.884
91187W        W62913  42.588   3.800   0.511
91188W        W62914  26.583  44.479  14.280
91189W        W62915  19.619  26.592  11.169
91190W        W62916  28.957  31.458   1.950
91191W        W62917  19.442  39.306   0.756
91192W        W62918  26.003  12.674   1.280
91193W        W62919  41.550  41.848   4.726
91194W        W62920  38.273  25.871   3.677
91195W        W62921  12.740  15.718  11.461
91196W        W62922  13.822   3.842   0.401
91197W        W62923   3.378  14.075   4.136
91198W        W62924  12.540  28.188   3.334
91199W        W62925  41.317   0.767  14.885
91200W        W62926  35.940  34.851  11.536
91201W        W62927   0.228  35.248   1.286
91202W        W62928  38.902  17.815   2.849
91203W        W62929  32.999   2.873   2.722
91204W        W62930  39.405   7.760  14.452
91205W        W62931   5.144  43.316  11.888
91206W        W62932   0.215  34.328  11.516
91207W        W62933  17.180  30.850   4.329
91208W        W62934  15.400   1.762  11.869
91209W        W62935  15.149  39.990   5.040
91210W        W62936  28.808   0.623   3.648
91211W        W62937   9.330  34.861   4.223
91212W        W62938  11.593   2.902  11.148
91213W        W62939  33.370  23.671   1.602
91214W        W62940  10.667  23.503   5.132
91215W        W62941  12.191  21.038  10.225
91216W        W62942  10.583   5.024  14.197
91217W        W62943   5.335  10.284  13.039
91218W        W62944  40.902  42.598  12.337
91219W        W62945  35.248  14.461   5.067
91220W        W62946  20.947  16.927   3.935
91221W        W62947  41.544  22.005  11.295
91222W        W62948  12.850  31.017  10.558
91223W        W62949  22.614   5.205   1.277
91224W        W62950  43.482  42.232   3.517
91225W        W62951  29.652  25.145   5.216
91226W        W62952  44.826  24.112  11.915
91227W        W62953  42.929  14.721   0.349
91228W        W62954  29.591  18.170   4.611
91229W        W62955  37.676   7.432   1.874
91230W        W62956  43.350   0.628   0.730
91231W        W62957  33.177   0.358   0.961
91232W        W62958  24.155  20.048   4.089
91233W        W62959  30.634  21.254  13.394
91234W        W62960  24.185   6.451  13.479
91235W        W62961  27.425  31.936   0.456
91236W        W62962  17.205  37.824   4.111
91237W        W62963  42.839  24.100   0.399
91238W        W62964  41.931  37.021  11.232
91239W        W62965  38.078  42.438  13.317
91240W        W62966  33.517  26.676  12.038
91241W        W62967  12.005   3.642  13.357
91242W        W62968  30.230   4.009  14.165
91243W        W62969  43.698  19.174  11.893
91244W        W62970  11.657   3.981  13.141
91245W        W62971  40.120  39.589  12.407
91246W        W62972  26.646  37.789  11.037
91247W        W62973  41.378  27.568  13.702
91248W        W62974  42.862  24.673   3.476
91249W        W62975  23.023  40.219   1.904
91250W        W62976  12.571   5.723   2.141
91251W        W62977  41.070  25.683  12.200
91252W        W62978  13.263   4.968   1.313
91253W        W62979   9.722  23.302   4.202
91254W        W62980  11.634   9.793  12.898
91255W        W62981  25.017  10.423   0.953
91256W        W62982  18.406  10.579   2.715
91257W        W62983  34.534  34.881  11.630
91258W        W62984  22.603  32.288   0.037
91259W        W62985  38.810  42.441  13.821
91260W        W62986  10.295  36.870  12.387
91261W        W62987  23.404  18.266   0.967
91262W        W62988   7.395   7.223  12.925
91263W        W62989  23.954  20.225  10.643
91264W        W62990  15.045   5.871   1.368
91265W        W62991  42.776   5.081  13.791
91266W        W62992  35.992  21.009   0.361
91267W        W62993  29.123  39.298   3.677
91268W        W62994  27.152  14.471  12.038
91269W        W62995  13.205  22.974   1.182
91270W        W62996  27.477   4.500  13.386
91271W        W62997   7.627  17.641   4.203
91272W        W62998   4.319  15.032   9.989
91273W        W62999   7.123  35.884   1.746
91274W        W63000  40.666  36.608  11.737
91275W        W63001   7.216   8.284   4.050
91276W        W63002   6.422  24.225  11.999
91277W        W63003  25.687  37.842  10.731
91278W        W63004  34.492  41.764  12.455
91279W        W63005  27.763  39.667   2.697
91280W        W63006   2.911  25.814  11.124
91281W        W63007  25.650  33.869   3.690
91282W        W63008  41.674  16.189  13.420
91283W        W63009  27.060   0.291  12.544
91284W        W63010   7.976  32.304   1.278
91285W        W63011  36.678  42.887  10.427
91286W        W63012   7.481   4.263   3.809
91287W        W63013  17.388  14.788  14.126
91288W        W63014  38.946  23.661  13.563
91289W        W63015  20.866  39.390  12.829
91290W        W63016  27.360  21.070  12.734
91291W        W63017  40.946  39.957  11.561
91292W        W63018  11.198   4.152  13.418
91293W        W63019  23.098  29.743  14.403
91294W        W63020  35.395  37.280   0.428
91295W        W63021  17.880  18.549   1.776
91296W        W63022  14.353   4.661   4.586
91297W        W63023  21.798  32.191   2.863
91298W        W63024  20.542  10.694  10.969
91299W        W63025   3.449   5.691  12.027
91300W        W63026  39.143  23.005   1.092
91301W        W63027   2.354   7.190  14.845
91302W        W63028  24.978  16.127   2.392
91303W        W63029   0.887  39.899  11.569
91304W        W63030  17.487  37.863   2.748
91305W        W63031  28.461  12.720  12.910
91306W        W63032  28.287  19.224  13.783
91307W        W63033   3.771   2.391  11.542
91308W        W63034  23.085  11.319  10.765
91309W        W63035  22.623   7.508  14.452
91310W        W63036  15.775  35.398   3.742
91311W        W63037  43.585  11.782  14.885
91312W        W63038  23.646  30.727  13.213
91313W        W63039  30.999   4.157  10.784
91314W        W63040   2.261  32.133  14.853
91315W        W63041   0.412  37.024  13.289
91316W        W63042  36.962   3.109   2.339
91317W        W63043   0.756  33.928   4.501
91318W        W63044  37.364  42.904  13.407
91319W        W63045  37.099  12.714  11.545
91320W        W63046  10.592  20.123   4.333
91321W        W63047  18.548  32.521   3.367
91322W        W63048  23.136  37.414   3.970
91323W        W63049   7.593   0.958  10.686
91324W        W63050  17.344  30.411  13.315
91325W        W63051  32.554  21.337  14.942
91326W        W63052  33.685  31.425   3.171
91327W        W63053  23.461  40.922   4.512
91328W        W63054  28.539  36.244   3.313
91329W        W63055  39.420  34.017  14.507
91330W        W63056  27.009  12.895   4.281
91331W        W63057  17.331  19.193  10.755
91332W        W63058  35.200   3.410   0.894
91333W        W63059  33.409  24.934  14.021
91334W        W63060  31.640  18.818   3.302
91335W        W63061  40.875   0.435   1.549
91336W        W63062  16.898  10.277  14.878
91337W        W63063  25.063   6.142   3.864
91338W        W63064  20.742   2.441   1.729
91339W        W63065  39.389  16.727   4.551
91340W        W63066  29.499  39.555  11.912
91341W        W63067  37.376  34.058   3.676
91342W        W63068  23.198  31.694  12.630
91343W        W63069   7.769  28.683   1.778
91344W        W63070  35.633  23.080  13.510
91345W        W63071  30.993  42.221  10.874
91346W        W63072  28.471  18.715   0.655
91347W        W63073  44.783  13.823   4.485
91348W        W63074  36.809  39.424  14.819
91349W        W63075  39.073  22.706   3.668
91350W        W63076  38.473  36.308   2.266
91351W        W63077  41.754  34.437  14.859
91352W        W63078  21.129  41.058  11.553
91353W        W63079  41.604  36.678   1.733
91354W        W63080  27.129  41.385  14.124
91355W        W63081  16.865  35.018   0.664
91356W        W63082  13.756  20.183   1.888
91357W        W63083  35.879  34.092   3.379
91358W        W63084   1.840   4.421   2.718
91359W        W63085  21.528  44.478   3.072
91360W        W63086  26.531  42.972   1.843
91361W        W63087  34.545  15.446  14.420
91362W        W63088  30.232  28.892   2.817
91363W        W63089  23.576  38.708  14.952
91364W        W63090  31.231   6.893   1.209
91365W        W63091  44.867  38.460   1.698
91366W        W63092  33.652  10.796  12.493
91367W        W63093  39.136  17.178  13.473
91368W        W63094  24.427  37.888   4.115
91369W        W63095   5.654   1.292   1.831
91370W        W63096  29.698  13.846  11.084
91371W        W63097  14.227  39.755  14.286
91372W        W63098  22.731  13.703  14.257
91373W        W63099  16.539  43.269  14.557
91374W        W63100  11.703  15.188   3.410
91375W        W63101  16.696   2.058   1.921
91376W        W63102  22.611   5.364   4.045
91377W        W63103  21.020  44.457  14.474
91378W        W63104  11.677  21.718  12.115
91379W        W63105   1.858  11.970   3.657
91380W        W63106  39.718  17.050   1.673
91381W        W63107  22.921  30.156   1.759
91382W        W63108  42.978  17.512   2.809
91383W        W63109  32.957  44.575  14.063
91384W        W63110  39.949  21.734   2.228
91385W        W63111  25.071  44.732   4.697
91386W        W63112  23.711  15.619  12.799
91387W        W63113  25.093  15.950   3.752
91388W        W63114   1.914  30.653   0.812
91389W        W63115  29.912  18.825   1.968
91390W        W63116  31.825  18.116  10.896
91391W        W63117  21.500  36.652  12.661
91392W        W63118  20.330  36.716  11.104
91393W        W63119  14.369  16.630  12.443
91394W        W63120  41.435  17.741   1.392
91395W        W63121  11.721  43.479   2.151
91396W        W63122  15.159  31.860   3.591
91397W        W63123  21.135  31.475  14.514
91398W        W63124  44.450  15.132  10.748
91399W        W63125  26.514   3.251   1.366
91400W        W63126  14.206   9.883   1.861
91401W        W63127  14.477   0.384   4.725
91402W        W63128   0.596  33.694   3.250
91403W        W63129  24.898  40.366  13.385
91404W        W63130   2.289  23.922  14.696
91405W        W63131  35.491  36.485  11.990
91406W        W63132  30.595  24.141   3.112
91407W        W63133   6.877   2.315   0.877
91408W        W63134  13.405   2.739  10.753
91409W        W63135  30.697  29.038   4.086
91410W        W63136  19.147   4.181  13.382
91411W        W63137  22.478  31.464   2.190
91412W        W63138  14.342  29.467  12.892
91413W        W63139  32.570   4.295  14.454
91414W        W63140  32.562   7.800  14.053
91415W        W63141  28.748  27.311  11.534
91416W        W63142  35.649  41.844   1.682
91417W        W63143  28.196  13.296  13.491
91418W        W63144  28.100   0.430  10.794
91419W        W63145  22.008  28.652  12.300
91420W        W63146  30.707   4.274   2.168
91421W        W63147   9.259  27.689   3.306
91422W        W63148  41.885  25.420   1.543
91423W        W63149  40.417  19.009   0.458
91424W        W63150  14.275  19.336  12.591
91425W        W63151  24.268  25.215   9.777
91426W        W63152  15.232  27.609   3.734
91427W        W63153  32.669  38.519   3.523
91428W        W63154  29.514   2.674   4.776
91429W        W63155   3.761  41.467  11.283
91430W        W63156  42.302  34.988   0.196
91431W        W63157  17.545  31.605  12.029
91432W        W63158  30.471  13.565   0.273
91433W        W63159  37.022  17.222   4.555
91434W        W63160   4.975  43.803   0.517
91435W        W63161  21.615  41.540  12.736
91436W        W63162  27.902  16.258  13.908
91437W        W63163  31.367   0.552   3.802
91438W        W63164  39.861  24.297  13.809
91439W        W63165  18.049  26.633   3.265
91440W        W63166  10.774  37.618   4.969
91441W        W63167  42.307   3.773   1.656
91442W        W63168  41.358   0.447   4.441
91443W        W63169  25.508  25.173   1.278
91444W        W63170  30.968  33.084   1.229
91445W        W63171   9.388  19.813   2.534
91446W        W63172   3.504  23.282  11.879
91447W        W63173  40.842   4.304   4.492
91448W        W63174   6.183  34.080   2.437
91449W        W63175   4.834  29.833   1.750
91450W        W63176  21.062  30.188   0.362
91451W        W63177  43.287  21.194  11.342
91452W        W63178   5.362  17.645  13.223
91453W        W63179  24.985  43.953   4.211
91454W        W63180  18.590  34.227  14.396
91455W        W63181  24.446  33.952   0.889
91456W        W63182  10.589  33.695   0.932
91457W        W63183  30.673   4.300  12.024
91458W        W63184  16.575  19.748  14.623
91459W        W63185  18.167  27.751  12.546
91460W        W63186   6.095   7.855   0.801
91461W        W63187  35.052  44.664  12.649
91462W        W63188  42.744  13.677  12.748
91463W        W63189  16.094  17.999  11.002
91464W        W63190  33.557  12.299  12.782
91465W        W63191  32.049  43.675  11.982
91466W        W63192  23.661  24.457   3.894
91467W        W63193   0.889  13.239   3.197
91468W        W63194  41.609  22.034   1.467
91469W        W63195   4.474  10.692   3.304
91470W        W63196  44.453   0.766   1.327
91471W        W63197  13.650  17.295  12.060
91472W        W63198  21.045  20.995  10.236
91473W        W63199  14.095  37.899  14.627
91474W        W63200  38.083  28.223   0.413
91475W        W63201  20.595  14.708  13.110
91476W        W63202  36.412   5.174   3.757
91477W        W63203  30.658  19.211   4.134
91478W        W63204  31.393  29.246   4.883
91479W        W63205  39.282  21.529   1.290
91480W        W63206   0.237   0.875   3.175
91481W        W63207   8.139  19.819   2.897
91482W        W63208  27.741  39.409   3.170
91483W        W63209  18.036  29.855   0.393
91484W        W63210   6.183  40.793  11.476
91485W        W63211  43.880  33.310   3.641
91486W        W63212  35.446   8.137   0.324
91487W        W63213  26.620  24.669   1.431
91488W        W63214  29.161  12.809  12.468
91489W        W63215  38.272  39.947  13.276
91490W        W63216  31.074   7.397   1.230
91491W        W63217  21.449  38.415  14.949
91492W        W63218  19.027  20.262  13.512
91493W        W63219   5.719  11.504   1.341
91494W        W63220  21.236   6.708   3.725
91495W        W63221  22.679   7.432  10.833
91496W        W63222  20.277  12.191   2.924
91497W        W63223  18.181   1.458   3.177
91498W        W63224   7.656  26.516  12.002
91499W        W63225   3.777  15.884   4.203
91500W        W63226   5.542   2.197   3.614
91501W        W63227   5.838  34.060   1.667
91502W        W63228   6.475   3.466  11.844
91503W        W63229  12.151  31.860  14.803
91504W        W63230  29.677  29.423   0.905
91505W        W63231  27.405   2.416   0.187
91506W        W63232  30.079  37.479  10.620
91507W        W63233   6.811  22.240  12.915
91508W        W63234  28.629  20.003   2.829
91509W        W63235  37.361  43.267  10.682
91510W        W63236  22.694  33.979   1.378
91511W        W63237  24.820   9.982  11.682
91512W        W63238  43.486  44.832  13.376
91513W        W63239  16.757  21.177  12.536
91514W        W63240   5.146  13.251  14.480
91515W        W63241   9.125  25.872  14.834
91516W        W63242  39.263  12.157   2.234
91517W        W63243   0.715  37.094   2.329
91518W        W63244  15.744  41.082  10.253
91519W        W63245  16.663   9.741   3.841
91520W        W63246  16.106  13.919  11.571
91521W        W63247  20.668  35.836   3.265
91522W        W63248  44.819   9.325   2.227
91523W        W63249  44.448  13.678   3.728
91524W        W63250   3.838  28.625   0.615
91525W        W63251  17.985  43.007  10.651
91526W        W63252   3.651  37.023   4.359
91527W        W63253  11.066  12.317   4.370
91528W        W63254   9.626   0.026  12.556
91529W        W63255  16.073  44.238   1.758
91530W        W63256  27.007  31.904   1.260
91531W        W63257  11.735  31.432   1.727
91532W        W63258  36.057  27.658   2.891
91533W        W63259   2.421  19.520   3.258
91534W        W63260   4.224  11.191  13.627
91535W        W63261   1.911   8.772  11.490
91536W        W63262   4.850  35.842   0.411
91537W        W63263   0.828  20.226  13.960
91538W        W63264  40.381  39.388  11.914
91539W        W63265  43.879  40.516  11.960
91540W        W63266  41.846  28.719  10.674
91541W        W63267  19.719  37.594   3.174
91542W        W63268  14.761  14.443   3.983
91543W        W63269  38.543  16.272   2.360
91544W        W63270  37.770  24.163   0.334
91545W        W63271  12.053  12.861   4.280
91546W        W63272  34.469  35.899   3.816
91547W        W63273  39.920  25.085  13.328
91548W        W63274  18.748  13.701  11.544
91549W        W63275  10.789   2.930  10.549
91550W        W63276  44.745  41.068   1.734
91551W        W63277   9.295  27.143   0.327
91552W        W63278  21.751  36.848   1.757
91553W        W63279  39.958  19.545  11.193
91554W        W63280  18.645  20.290  14.502
91555W        W63281  28.905   8.353  14.332
91556W        W63282  42.827  21.461   4.018
91557W        W63283  33.931  19.388   4.971
91558W        W63284  10.079  23.498   1.543
91559W        W63285   4.408  28.106  11.693
91560W        W63286   6.017  35.536  14.519
91561W        W63287   4.947  44.226  13.202
91562W        W63288  42.784   4.689   4.566
91563W        W63289  10.187  15.623  13.483
91564W        W63290  31.392  44.690  13.401
91565W        W63291  38.463  39.947  14.714
91566W        W63292  13.578  41.446   1.796
91567W        W63293  17.870  12.308  11.091
91568W        W63294  40.037  10.198   3.342
91569W        W63295   1.302  37.496  10.706
91570W        W63296  21.674  13.624  14.553
91571W        W63297  18.508  25.870  14.614
91572W        W63298  38.849  22.694  13.897
91573W        W63299  14.664  23.633   3.744
91574W        W63300  44.840  18.712  14.397
91575W        W63301  29.042   3.298  12.349
91576W        W63302  31.586  37.881  11.974
91577W        W63303  28.159  43.233  13.456
91578W        W63304  21.704  36.926   0.302
91579W        W63305   8.365  16.809   0.204
91580W        W63306  29.881   1.304  14.867
91581W        W63307   1.817  28.146  14.088
91582W        W63308  25.785  18.737   4.999
91583W        W63309  23.927  44.705   3.627
91584W        W63310  22.144  15.035   0.288
91585W        W63311   0.516  39.869  14.886
91586W        W63312   6.336  13.120   1.032
91587W        W63313  33.311  14.047   1.908
91588W        W63314  35.008  35.109   1.765
91589W        W63315  15.637  17.650   2.350
91590W        W63316  15.734  24.620   1.953
91591W        W63317  31.687  39.727   2.561
91592W        W63318   7.252  30.890  13.776
91593W        W63319  18.562  37.462  10.742
91594W        W63320  42.058  27.013  13.556
91595W        W63321  24.119  33.966  13.896
91596W        W63322  17.597   7.131   2.456
91597W        W63323  13.300  12.371   1.208
91598W        W63324  41.100  39.922  14.390
91599W        W63325  35.198  18.650   3.763
91600W        W63326  11.285  10.440  10.898
91601W        W63327  12.567   3.739   3.893
91602W        W63328  22.051  43.772  12.210
91603W        W63329   9.895   2.807   2.193
91604W        W63330  20.005   5.862   4.625
91605W        W63331  41.987  32.379  12.129
91606W        W63332  25.292  25.792  12.533
91607W        W63333   0.818  12.378  13.584
91608W        W63334   9.322  11.876  13.927
91609W        W63335  41.511  11.704   3.620
91610W        W63336   9.805  27.218  14.267
91611W        W63337  27.879  26.510   4.251
91612W        W63338  44.686   0.983  11.628
91613W        W63339  31.993  42.554  13.956
91614W        W63340  23.902  20.527   0.369
91615W        W63341  18.179   3.747  13.805
91616W        W63342  42.413  20.070  14.463
91617W        W63343   1.564  43.671  11.531
91618W        W63344  27.069   0.976  11.085
91619W        W63345  15.793  23.552   1.353
91620W        W63346   9.766  18.693  10.346
91621W        W63347   0.181  21.228   4.610
91622W        W63348  25.884   4.095   0.906
91623W        W63349  37.009   5.694   3.128
91624W        W63350  35.487  15.556   3.227
91625W        W63351  12.336  39.802  14.498
91626W        W63352  18.051  12.370   2.656
91627W        W63353  16.485  44.048  11.166
91628W        W63354   5.035  12.073   3.194
91629W        W63355  39.557   6.668  14.395
91630W        W63356  33.582  32.256  11.625
91631W        W63357  33.176  21.787   4.167
91632W        W63358  39.835  13.105  12.016
91633W        W63359  37.059  11.229   3.594
91634W        W63360  20.497  18.865   0.840
91635W        W63361  36.577  17.972   2.592
91636W        W63362   0.670  31.542   2.198
91637W        W63363  19.326   5.089   2.978
91638W        W63364  19.792   2.354  11.699
91639W        W63365  43.096  14.160  13.145
91640W        W63366  20.909   3.859  10.273
91641W        W63367  39.865  33.418  12.239
91642W        W63368  26.599  40.235  14.359
91643W        W63369  35.748   8.930  10.998
91644W        W63370   7.205   9.835  14.358
91645W        W63371  21.062   7.397   2.843
91646W        W63372  29.627  12.731  10.803
91647W        W63373  19.780   3.370  13.295
91648W        W63374  14.290  41.010  14.483
91649W        W63375  12.369   8.377  14.447
91650W        W63376   2.909  32.568   0.629
91651W        W63377  37.688  36.522  11.528
91652W        W63378  40.868  15.557   2.280
91653W        W63379  31.910  43.867   5.313
91654W        W63380  33.846   1.336   0.855
91655W        W63381  34.069   1.247  13.804
91656W        W63382  38.358  39.131   2.370
91657W        W63383  17.740  13.767   3.069
91658W        W63384  16.661  38.342   3.403
91659W        W63385   8.297  37.564   3.809
91660W        W63386  22.461  31.423  13.043
91661W        W63387  40.335  18.697   2.914
91662W        W63388   2.703  10.179   1.856
91663W        W63389   2.895  36.866  14.524
91664W        W63390  20.467  21.276  12.521
91665W        W63391  11.118  17.237  14.634
91666W        W63392  31.036  39.471   0.002
91667W        W63393  25.996  42.972   1.671
91668W        W63394   6.160  20.482   2.177
91669W        W63395  14.204  34.372  14.965
91670W        W63396   6.107  16.384  13.834
91671W        W63397   8.453  17.599   3.823
91672W        W63398  40.984  13.668  11.376
91673W        W63399  11.333  33.338  12.877
91674W        W63400  17.031  43.913   1.257
91675W        W63401   3.977  36.695  12.012
91676W        W63402  17.221  28.717   1.902
91677W        W63403   8.368  24.074  10.204
91678W        W63404  10.379  36.597   1.761
91679W        W63405  21.059  12.441  11.408
91680W        W63406   8.180  34.909   3.395
91681W        W63407   1.345  19.262  11.023
91682W        W63408  12.396  14.706  14.885
91683W        W63409  19.143  22.152  12.400
91684W        W63410  23.117  32.670   2.381
91685W        W63411  15.767  23.569   4.319
91686W        W63412  26.226   2.881  11.178
91687W        W63413  27.092  15.010  13.987
91688W        W63414  12.939  33.415  12.021
91689W        W63415  15.632  20.854   0.790
91690W        W63416  38.004  20.215   2.338
91691W        W63417  23.493  21.713   1.944
91692W        W63418  16.603  44.544  14.795
91693W        W63419   6.859  14.699   2.648
91694W        W63420  25.626  38.945   3.870
91695W        W63421  12.237  10.473  12.410
91696W        W63422  24.583  29.707  12.013
91697W        W63423  27.547  40.401   1.440
91698W        W63424  15.929  34.104  14.900
91699W        W63425  23.697  15.209   1.335
91700W        W63426  29.972  36.136   2.704
91701W        W63427  33.588  33.545  14.942
91702W        W63428  12.723  44.462  10.611
91703W        W63429  24.698   0.495   5.335
91704W        W63430  22.600  16.601   0.902
91705W        W63431  43.223  17.699  10.638
91706W        W63432  41.471  27.883  10.716
91707W        W63433   6.383   8.293   3.482
91708W        W63434  28.686  42.446   2.410
91709W        W63435   7.312  33.243   2.161
91710W        W63436  27.687  24.466  14.882
91711W        W63437  14.156  26.205   0.823
91712W        W63438  43.491   1.305  12.512
91713W        W63439   6.817  13.913   0.716
91714W        W63440   8.414  23.591  12.895
91715W        W63441  39.933  23.243  14.210
91716W        W63442  23.481  11.697  12.346
91717W        W63443  14.312   2.323  11.452
91718W        W63444  19.517   0.661   4.064
91719W        W63445  23.352  35.499   1.582
91720W        W63446  15.353  22.887  11.078
91721W        W63447  17.804  17.563   3.414
91722W        W63448  14.377   1.458  12.470
91723W        W63449  38.488  41.045   1.373
91724W        W63450  28.574  28.256   1.346
91725W        W63451  42.751  25.426  14.307
91726W        W63452   5.652  31.809   4.862
91727W        W63453   3.836   3.907  10.422
91728W        W63454  11.169  20.090  14.540
91729W        W63455  14.611   5.224  10.956
91730W        W63456  22.702  35.614  12.015
91731W        W63457  22.716  27.472  11.961
91732W        W63458   6.657   4.657   5.420
91733W        W63459  33.714  20.714   1.292
91734W        W63460  10.412  43.931  13.541
91735W        W63461   3.307  23.351  14.108
91736W        W63462   7.654  33.363  10.750
91737W        W63463  37.664  27.618  14.909
91738W        W63464  19.753  25.022  13.527
91739W        W63465  10.700   4.754  11.178
91740W        W63466  29.739   8.396   2.244
91741W        W63467  41.534  37.562   2.182
91742W        W63468  36.156   9.287   2.887
91743W        W63469  37.867  35.448  13.096
91744W        W63470  29.517  20.147   1.391
91745W        W63471  29.299  20.307  11.997
91746W        W63472  41.343   8.727  14.794
91747W        W63473   7.701  27.157   1.903
91748W        W63474  14.788  43.546  12.157
91749W        W63475  11.773  36.091   1.198
91750W        W63476  21.156  32.184  11.430
91751W        W63477  29.174  31.208  14.743
91752W        W63478  36.826   3.090   4.955
91753W        W63479   0.086  30.432  11.450
91754W        W63480  31.419  33.508  13.747
91755W        W63481   5.267   6.660  13.310
91756W        W63482  11.138  21.177  10.090
91757W        W63483   5.743   5.011  12.154
91758W        W63484  19.575  11.864   4.019
91759W        W63485   2.486   7.117  11.723
91760W        W63486  37.443  25.867   9.974
91761W        W63487  24.639  38.781  13.849
91762W        W63488  24.927   0.796  12.496
91763W        W63489   3.094  36.565  10.320
91764W        W63490  14.057  37.785   0.398
91765W        W63491  13.104  37.847   2.518
91766W        W63492  37.828  21.089   1.779
91767W        W63493  24.033   5.769  10.396
91768W        W63494  36.340  22.608  13.915
91769W        W63495  17.227  29.209   1.670
91770W        W63496  44.936  25.160  10.573
91771W        W63497  21.960  14.729  14.917
91772W        W63498  28.453   8.867  13.057
91773W        W63499  18.813  24.669   4.596
91774W        W63500  35.453  16.055  13.031
91775W        W63501  26.218  23.981  14.274
91776W        W63502  11.159   2.426  14.962
91777W        W63503  35.308  22.450   2.358
91778W        W63504  25.424  36.603  14.423
91779W        W63505  29.019  38.436   0.822
91780W        W63506  36.454   3.820   4.057
91781W        W63507   0.070  16.678   4.628
91782W        W63508  34.131  37.305  11.120
91783W        W63509   0.765  24.177  14.892
91784W        W63510  13.858  35.710   1.121
91785W        W63511  21.194  11.340   0.981
91786W        W63512  33.765   5.633   4.931
91787W        W63513  31.184   2.338   3.460
91788W        W63514  11.757  44.800   1.510
91789W        W63515   1.939  25.022  12.175
91790W        W63516  28.427   7.349   4.666
91791W        W63517  23.685  25.557  12.159
91792W        W63518  30.652  29.031  11.379
91793W        W63519   1.143  41.486   0.928
91794W        W63520   3.468  44.320   2.759
91795W        W63521  37.799  22.861   3.277
91796W        W63522   2.039   7.491  12.878
91797W        W63523   9.839  38.307  12.121
91798W        W63524  27.328   2.910  12.144
91799W        W63525   2.863  36.641  13.340
91800W        W63526  29.731  23.661   5.466
91801W        W63527  10.182   6.400   2.706
91802W        W63528  37.830  15.885  13.445
91803W        W63529  44.892   7.754   2.346
91804W        W63530  29.347  24.797  10.113
91805W        W63531  19.612  42.829   4.103
91806W        W63532  36.933   5.930  13.435
91807W        W63533  39.120  32.314   0.780
91808W        W63534   2.493  27.003   3.175
91809W        W63535   1.894  35.305  12.352
91810W        W63536   2.420  44.241  13.976
91811W        W63537  25.182   4.817   2.374
91812W        W63538  30.729  37.622   0.639
91813W        W63539   0.237  12.021  12.487
91814W        W63540   1.022  25.342  12.516
91815W        W63541  31.878  16.083  13.456
91816W        W63542  16.211  35.910  14.824
91817W        W63543   0.957  35.123  10.956
91818W        W63544  17.772  18.107  11.907
91819W        W63545   4.956  23.264   1.747
91820W        W63546  19.608  15.907   4.015
91821W        W63547  32.444  19.873   3.360
91822W        W63548  40.031  37.475   4.573
91823W        W63549  37.349  21.049  13.201
91824W        W63550  27.116  21.098  11.499
91825W        W63551   6.467  37.564   1.212
91826W        W63552  23.840   4.361   1.881
91827W        W63553  17.143  40.105   5.437
91828W        W63554  15.812  43.428   4.555
91829W        W63555  33.083  30.632   4.495
91830W        W63556  17.570  31.222  10.408
91831W        W63557  35.111  41.788  11.078
91832W        W63558   0.450  26.650  14.855
91833W        W63559   2.842  29.161   3.162
91834W        W63560  34.243  19.101   2.689
91835W        W63561  32.561  41.847   0.383
91836W        W63562   1.854  20.478   4.267
91837W        W63563  30.004  39.517   0.402
91838W        W63564  33.094  18.304  11.920
91839W        W63565  12.070  41.083  11.513
91840W        W63566  41.542   9.282   4.823
91841W        W63567  32.016  39.987   2.908
91842W        W63568  32.627  26.645   2.726
91843W        W63569  25.124  24.010   1.767
91844W        W63570   8.730  10.937   3.288
91845W        W63571  15.146  29.803   1.740
91846W        W63572  14.750  27.617   2.343
91847W        W63573   6.002  43.834   0.426
91848W        W63574  10.347  25.426  13.498
91849W        W63575  21.680  12.307   0.391
91850W        W63576  25.505  34.148   3.258
91851W        W63577  20.692  43.064  12.282
91852W        W63578  24.643  21.487  14.919
91853W        W63579  40.343  25.702   2.639
91854W        W63580  14.546  14.220   3.129
91855W        W63581  44.018  29.938   4.599
91856W        W63582   5.818  17.882   3.544
91857W        W63583  17.369  21.460   0.652
91858W        W63584   7.039   6.426   1.275
91859W        W63585  26.195  13.646  12.479
91860W        W63586  42.537  43.751   2.230
91861W        W63587  22.105  34.000  13.172
91862W        W63588  39.733  36.898   4.289
91863W        W63589  21.207  35.628   1.399
91864W        W63590  24.402  42.734   3.628
91865W        W63591  26.002   0.445   4.110
91866W        W63592  17.062   0.566  12.439
91867W        W63593  18.783   7.920  12.315
91868W        W63594   7.327   3.622   4.837
91869W        W63595  43.368  26.000   3.362
91870W        W63596  23.969   3.921  12.453
91871W        W63597  13.657  38.394   4.129
91872W        W63598   8.653   8.395  11.884
91873W        W63599   2.169  28.583  11.464
91874W        W63600   8.964  10.102   3.765
91875W        W63601  24.540  32.181  13.924
91876W        W63602  25.527  30.895   2.173
91877W        W63603  43.591  38.875   2.405
91878W        W63604   6.167  36.165   1.078
91879W        W63605  32.556  43.289   0.548
91880W        W63606  42.159  36.429  14.173
91881W        W63607  29.561  35.436   0.434
91882W        W63608  32.319  42.539   3.671
91883W        W63609   8.123  18.972   4.967
91884W        W63610   4.441  16.136   5.338
91885W        W63611   0.301  32.312   0.932
91886W        W63612  43.221  29.244   4.635
91887W        W63613  25.025   6.272  12.659
91888W        W63614  42.562  30.926  12.898
91889W        W63615  40.093  28.910  13.574
91890W        W63616  33.284  20.230  11.491
91891W        W63617  43.730  37.552   3.730
91892W        W63618  14.293  29.678   3.108
91893W        W63619  41.438  28.112   1.894
91894W        W63620   5.456  21.418  12.062
91895W        W63621  12.919  17.975   2.760
91896W        W63622  26.980  35.320   1.259
91897W        W63623  15.591  13.158   0.185
91898W        W63624  31.555  11.023  10.858
91899W        W63625   6.180   1.517  12.163
91900W        W63626   0.921  28.197   3.190
91901W        W63627  19.004  10.772  12.447
91902W        W63628  19.058  27.965  11.505
91903W        W63629  23.198   0.438   2.788
91904W        W63630  40.434   1.408   2.660
91905W        W63631  39.021  22.167  14.669
91906W        W63632   5.380  16.348  12.498
91907W        W63633   5.368  27.655   2.674
91908W        W63634   1.006  37.492  10.253
91909W        W63635  13.381   4.461  14.852
91910W        W63636  40.340  20.600   0.424
91911W        W63637  38.994  30.989  11.122
91912W        W63638  41.989  12.596  12.070
91913W        W63639  18.810  37.983  13.526
91914W        W63640  40.499   7.469  11.988
91915W        W63641  40.519  15.521  13.881
91916W        W63642  14.196   4.282   1.444
91917W        W63643  37.838   5.320   4.137
91918W        W63644  20.234  42.459  14.283
91919W        W63645  23.564  44.765   1.470
91920W        W63646   4.038   6.540  10.590
91921W        W63647  40.749  37.099   4.207
91922W        W63648  41.873  19.334  12.796
91923W        W63649  13.808  35.944   2.131
91924W        W63650  17.058  34.703  14.405
91925W        W63651  38.984   5.901   3.850
91926W        W63652  14.881  18.021   1.301
91927W        W63653  25.259  33.827  11.520
91928W        W63654  43.998   5.212  11.112
91929W        W63655  43.703  43.190   2.888
91930W        W63656  38.748  15.731   5.011
91931W        W63657  25.112  12.379   1.653
91932W        W63658   9.852   2.817  13.533
91933W        W63659   1.979  26.908  11.240
91934W        W63660   5.637  15.061   3.690
91935W        W63661  17.370  37.057   4.674
91936W        W63662  25.934  41.484  13.801
91937W        W63663  29.453  24.808  13.959
91938W        W63664  27.113  16.530   4.830
91939W        W63665   1.344  27.852  13.815
91940W        W63666   1.809   6.658  12.085
91941W        W63667  20.074  40.851  13.514
91942W        W63668  41.996  33.895   3.202
91943W        W63669  14.655   0.748   0.704
91944W        W63670  36.872  29.963  14.946
91945W        W63671   4.340  20.214   0.961
91946W        W63672   2.063   0.800  12.905
91947W        W63673   5.290  42.396  13.997
91948W        W63674  23.983   1.461   3.260
91949W        W63675  13.358   9.423  14.082
91950W        W63676  37.803  14.740  14.478
91951W        W63677  32.622  33.329   0.962
91952W        W63678  33.857  23.762   2.308
91953W        W63679  22.238  35.003  11.382
91954W        W63680  37.925  43.597   1.305
91955W        W63681  25.344  10.235  13.376
91956W        W63682   5.698  37.286  10.722
91957W        W63683  21.099  15.049  14.500
91958W        W63684   3.948  13.540   1.871
91959W        W63685   1.575  27.131   1.753
91960W        W63686  44.158   0.082   4.070
91961W        W63687  10.821  30.732   2.395
91962W        W63688  32.389  24.499   2.327
91963W        W63689  27.128  22.746   0.517
91964W        W63690  17.773  23.123  12.553
91965W        W63691  41.409  34.668   1.923
91966W        W63692  17.315  19.038   0.727
91967W        W63693  23.006  13.722  13.807
91968W        W63694  24.683  37.037  12.996
91969W        W63695  11.287  41.297  13.510
91970W        W63696  22.267  21.163   5.071
91971W        W63697  44.456  10.519   1.793
91972W        W63698  20.972   3.914   0.217
91973W        W63699   9.249  22.110   3.850
91974W        W63700  37.909  12.942   0.245
91975W        W63701  41.252  19.366  11.109
91976W        W63702  36.335  32.777  13.864
91977W        W63703  40.242  12.695   2.319
91978W        W63704  12.258  42.449  12.569
91979W        W63705  23.556   4.317  10.914
91980W        W63706  38.495  37.760   2.199
91981W        W63707  39.514  28.637  12.925
91982W        W63708  22.554   5.928  14.351
91983W        W63709  41.530   1.856   1.336
91984W        W63710  10.117  11.739   3.254
91985W        W63711  44.213   8.163   2.709
91986W        W63712  41.756   4.114   0.825
91987W        W63713  23.977   8.914  10.726
91988W        W63714  22.406  41.334   2.062
91989W        W63715   1.308  42.010   2.736
91990W        W63716   5.399   1.903  14.344
91991W        W63717  32.084  18.779   0.215
91992W        W63718   9.351  15.348  13.099
91993W        W63719   1.425  22.437   2.613
91994W        W63720  25.422  42.293  12.057
91995W        W63721  36.891   1.305  14.012
91996W        W63722   4.313   2.871  14.084
91997W        W63723  38.939  20.783   1.759
91998W        W63724   8.372   3.572  12.262
91999W        W63725  41.506  14.573   3.699
92000W        W63726  20.671  35.195   0.350
92001W        W63727   6.225  26.227  12.251
92002W        W63728  20.945   1.512   2.124
92003W        W63729  24.124  44.065   4.159
92004W        W63730  40.259  19.116   2.191
92005W        W63731  27.576  14.801   0.854
92006W        W63732  20.717  22.717  13.791
92007W        W63733   2.280   2.136  14.419
92008W        W63734   7.771  15.778  14.796
92009W        W63735  30.256  10.735   2.726
92010W        W63736  11.325  22.141  13.357
92011W        W63737  28.531   9.832   2.147
92012W        W63738  14.228  23.072   2.630
92013W        W63739   4.143  14.863  11.526
92014W        W63740  17.355  23.012   3.735
92015W        W63741  15.286  42.756   3.295
92016W        W63742  21.402   2.939   0.238
92017W        W63743  20.292  31.187   2.264
92018W        W63744  39.913  14.068  10.652
92019W        W63745  28.855   3.999   4.185
92020W        W63746  33.957  30.633  12.973
92021W        W63747  42.551  31.867   0.254
92022W        W63748  23.184  36.114   2.095
92023W        W63749  28.204  26.576   1.340
92024W        W63750  40.833   7.702   3.288
92025W        W63751   8.543  38.068  11.946
92026W        W63752  41.513  13.353   2.906
92027W        W63753  30.430  28.004   2.816
92028W        W63754   3.475  39.982   1.247
92029W        W63755  25.603   2.498  13.658
92030W        W63756  19.757  20.129   2.396
92031W        W63757  25.028  33.357  14.046
92032W        W63758  44.369  42.756   3.589
92033W        W63759   9.177   2.730  12.812
92034W        W63760  11.459  40.403   0.937
92035W        W63761  25.729  12.714   2.330
92036W        W63762  15.571   3.518   3.925
92037W        W63763   2.671  17.769   2.697
92038W        W63764  39.791  21.726   1.279
92039W        W63765  14.676  15.019  11.208
92040W        W63766  18.771  36.415   0.761
92041W        W63767  21.429  10.681  13.781
92042W        W63768   4.314  29.019   3.213
92043W        W63769  30.547  44.535   3.932
92044W        W63770  16.319  19.309  10.911
92045W        W63771  23.531  28.549   2.355
92046W        W63772  13.608  16.695   1.692
92047W        W63773   6.242  39.994  14.971
92048W        W63774  35.968   3.298  12.046
92049W        W63775  34.190  40.133   2.256
92050W        W63776  25.459  14.700  11.111
92051W        W63777  22.162  27.689  10.598
92052W        W63778   5.629  33.866   4.104
92053W        W63779   1.859  27.428   2.742
92054W        W63780   7.358  41.355  14.861
92055W        W63781  15.047   1.204   1.357
92056W        W63782   1.825  31.149   1.803
92057W        W63783  43.261  44.449   1.230
92058W        W63784  43.497  20.456   1.035
92059W        W63785   1.509  28.210   2.290
92060W        W63786  24.990   6.447   3.411
92061W        W63787  31.281  12.694  13.425
92062W        W63788  15.437  14.183   4.640
92063W        W63789  25.897   9.091  10.095
92064W        W63790  20.635   9.996  11.721
92065W        W63791  38.654  19.570   4.835
92066W        W63792  42.482  13.200   2.653
92067W        W63793  18.699  38.526  14.421
92068W        W63794   5.481   6.898   3.685
92069W        W63795  39.847  25.679  10.797
92070W        W63796   5.661   3.052  13.388
92071W        W63797  11.078  29.114   3.014
92072W        W63798  43.150  38.697  11.188
92073W        W63799  13.639  35.829   3.844
92074W        W63800  10.855  25.214  12.412
92075W        W63801  42.905   1.769   0.258
92076W        W63802  41.178  39.820   3.588
92077W        W63803  11.572  44.415   0.005
92078W        W63804   0.711   3.262   2.799
92079W        W63805  42.891  20.034   5.126
92080W        W63806  31.860   6.844  14.852
92081W        W63807  39.044   3.230   4.684
92082W        W63808  39.265  41.864  10.723
92083W        W63809   7.683   3.376   4.569
92084W        W63810  10.969  41.479  13.854
92085W        W63811  19.257  16.785   2.183
92086W        W63812  44.037  20.734  12.416
92087W        W63813  19.733   0.047  10.706
92088W        W63814  35.397   1.589  14.433
92089W        W63815  12.733   1.255   2.777
92090W        W63816  43.422  40.805  14.449
92091W        W63817  25.247  11.757  12.581
92092W        W63818  10.451   3.293   0.738
92093W        W63819  15.272  21.736  12.088
92094W        W63820  12.242  23.447  12.472
92095W        W63821  21.057  23.617  11.025
92096W        W63822  40.434  30.579  11.672
92097W        W63823   5.496  29.002   3.722
92098W        W63824  44.715  14.659  14.440
92099W        W63825   3.696   1.729   2.855
92100W        W63826  43.492  44.706   2.194
92101W        W63827  40.904  17.357   2.261
92102W        W63828   5.835  36.011   1.451
92103W        W63829  32.634  33.957  12.050
92104W        W63830  23.328  37.003   4.263
92105W        W63831   0.899   2.659  11.583
92106W        W63832  23.773   7.019  13.789
92107W        W63833  27.512  35.349  14.013
92108W        W63834   9.178   7.871   2.650
92109W        W63835  43.365  21.942   3.297
92110W        W63836   1.476   7.089  12.124
92111W        W63837  25.823   1.278   4.982
92112W        W63838  20.763   8.410  14.486
92113W        W63839  34.061   7.140  10.772
92114W        W63840  22.062   7.329   1.007
92115W        W63841   3.723   1.805  13.376
92116W        W63842  35.870  40.458   0.240
92117W        W63843  38.652  12.721   3.141
92118W        W63844  12.349  14.817  12.961
92119W        W63845  23.929  32.452   4.047
92120W        W63846  24.081  43.338  11.159
92121W        W63847  22.917  12.573   3.696
92122W        W63848  43.848  38.351   3.484
92123W        W63849  36.534  43.856   3.250
92124W        W63850  18.620  10.864  14.556
92125W        W63851  41.271  19.132  12.086
92126W        W63852  43.075  38.914   3.760
92127W        W63853  30.873  33.821  11.608
92128W        W63854  31.913  20.592  13.960
92129W        W63855   9.427   3.293   4.642
92130W        W63856  36.096  21.649   1.604
92131W        W63857  43.976  27.623   2.138
92132W        W63858  43.914  14.191  12.522
92133W        W63859  42.784  37.479   3.864
92134W        W63860  37.853  40.918   4.732
92135W        W63861  35.111  30.741  11.188
92136W        W63862  44.802  25.309  12.408
92137W        W63863  37.389  25.530   2.932
92138W        W63864   9.953  24.801   4.162
92139W        W63865   5.455   7.945  11.465
92140W        W63866  39.830  15.157   4.687
92141W        W63867  13.211   0.732   3.397
92142W        W63868  35.905  39.913   1.385
92143W        W63869   0.806   7.800  13.334
92144W        W63870  31.424  41.246  12.544
92145W        W63871  27.170  18.440  13.512
92146W        W63872  23.562  26.019   4.508
92147W        W63873   2.759  23.076   2.363
92148W        W63874  38.051  42.416   2.441
92149W        W63875   9.686   9.379  11.148
92150W        W63876  21.915  32.201  10.962
92151W        W63877   8.731  25.896   3.184
92152W        W63878  26.027   8.656   0.435
92153W        W63879  15.950   8.014   3.828
92154W        W63880  41.806  19.247  13.340
92155W        W63881  29.036  29.939   1.767
92156W        W63882  29.167   9.447   3.523
92157W        W63883   9.595   6.478  10.425
92158W        W63884   3.627   1.470   3.286
92159W        W63885  38.560   4.666   2.822
92160W        W63886  21.447  33.829   5.110
92161W        W63887  35.878   1.225  13.343
92162W        W63888  31.963  39.906  14.318
92163W        W63889  24.147  13.693  10.295
92164W        W63890  12.170   2.836   1.188
92165W        W63891  12.767  13.273  12.024
92166W        W63892  17.007  42.887   1.529
92167W        W63893  32.402  34.713   5.024
92168W        W63894  24.868  38.891  14.899
92169W        W63895  23.597  42.455  10.509
92170W        W63896  36.439  10.653   1.847
92171W        W63897  30.055  17.585  13.875
92172W        W63898  16.256  11.872  14.938
92173W        W63899   0.227   1.843   1.135
92174W        W63900  23.967  38.476   1.832
92175W        W63901  28.688  23.677  11.386
92176W        W63902   5.881  10.862  13.077
92177W        W63903  36.499  37.200  10.833
92178W        W63904  15.793  19.910  11.670
92179W        W63905   2.771  24.443  10.651
92180W        W63906  22.043  31.848   3.232
92181W        W63907  34.142  35.131  13.851
92182W        W63908  44.939  37.069  13.063
92183W        W63909   3.909  28.891  14.007
92184W        W63910   6.567   7.965  11.055
92185W        W63911  44.848  24.192   3.755
92186W        W63912  33.114   0.840  14.819
92187W        W63913   7.495  23.923  13.043
92188W        W63914   3.762  15.119  14.809
92189W        W63915  31.318  16.702   2.338
92190W        W63916  12.279  32.694   0.293
92191W        W63917  18.603  29.063  10.661
92192W        W63918   1.908  18.671  11.626
92193W        W63919  30.646  27.921  11.695
92194W        W63920  14.647   3.221  11.913
92195W        W63921  14.868   0.992   4.606
92196W        W63922   4.512  12.240  13.014
92197W        W63923   4.950  11.142   4.199
92198W        W63924   1.060  34.796   2.563
92199W        W63925  36.491  26.427   3.760
92200W        W63926  28.122  13.821   0.662
92201W        W63927  36.890  36.099  13.050
92202W        W63928  40.012  21.655   3.171
92203W        W63929  31.173  38.882   3.444
92204W        W63930  14.660  31.436  14.943
92205W        W63931  21.697  32.517   2.440
92206W        W63932  33.231  44.404  13.434
92207W        W63933   7.873   0.918   3.941
92208W        W63934  25.837  32.956   0.326
92209W        W63935  36.868  39.908   0.008
92210W        W63936  27.546  34.127   4.634
92211W        W63937  26.706  15.655   5.027
92212W        W63938   0.604  38.112   1.439
92213W        W63939  13.929  19.235  10.814
92214W        W63940  33.964   0.471   0.287
92215W        W63941   5.095  13.978   0.743
92216W        W63942  43.194  24.185  13.822
92217W        W63943  33.123   5.721  14.092
92218W        W63944  42.732  31.542   4.350
92219W        W63945   0.706  22.919   2.725
92220W        W63946  18.275  44.639  12.074
92221W        W63947   4.897  31.626  10.703
92222W        W63948   0.734  30.171  12.035
92223W        W63949   7.196  42.163   1.705
92224W        W63950   5.999   8.774  14.589
92225W        W63951  21.601  25.090   4.193
92226W        W63952  35.984   8.551   4.238
92227W        W63953  21.587  32.933   0.466
92228W        W63954  12.167  38.166  11.281
92229W        W63955  24.094  35.651  14.893
92230W        W63956  12.830  24.895  12.019
92231W        W63957  44.271   8.943   3.725
92232W        W63958  19.985   4.948   0.531
92233W        W63959  10.145  36.862   3.679
92234W        W63960  13.164  15.503   2.770
92235W        W63961  25.881  30.409   2.486
92236W        W63962  12.220  36.480   0.773
92237W        W63963  29.890  22.174   4.362
92238W        W63964  16.177  10.822   2.346
92239W        W63965  11.106  29.580   1.858
92240W        W63966   7.137  44.210   3.968
92241W        W63967   1.152  28.622  10.661
92242W        W63968  13.193   3.084  13.780
92243W        W63969  16.605  25.910   4.769
92244W        W63970  16.132  24.600  11.849
92245W        W63971  41.483   3.839  14.915
92246W        W63972   2.964  11.579   4.632
92247W        W63973   4.466  34.475   1.302
92248W        W63974   8.767  34.636  11.153
92249W        W63975  38.468   5.271  10.749
92250W        W63976  35.057   2.086  11.050
92251W        W63977  43.196  34.963   4.045
92252W        W63978  39.922   5.068  14.004
92253W        W63979  42.019  24.507   1.398
92254W        W63980  12.329  41.021  14.766
92255W        W63981  17.980  11.751   0.929
92256W        W63982  35.592  15.169  11.213
92257W        W63983  42.895  35.385   2.421
92258W        W63984  27.893   3.646  11.620
92259W        W63985  26.597  14.384   4.315
92260W        W63986  28.388   8.874  11.392
92261W        W63987  11.439  12.842  14.876
92262W        W63988  16.320   7.825   1.611
92263W        W63989  16.230   1.075  12.977
92264W        W63990  16.633  30.343  12.023
92265W        W63991  13.423  16.381   2.374
92266W        W63992  31.408  14.550   3.752
92267W        W63993  16.102   1.740  11.218
92268W        W63994  39.603  19.169  10.707
92269W        W63995  19.232   4.781  10.567
92270W        W63996   9.442  18.170   3.168
92271W        W63997  35.360   6.365   0.951
92272W        W63998   0.139   7.785  12.611
92273W        W63999  31.523  14.137   1.695
92274W        W64000  30.903  40.927   3.084
92275W        W64001  10.227   9.077   1.857
92276W        W64002  28.933  39.040   0.776
92277W        W64003  13.773  26.688  11.719
92278W        W64004   6.148  44.415  10.125
92279W        W64005  30.472  14.603   2.251
92280W        W64006  29.972  22.645   2.068
92281W        W64007   7.239  25.237   0.696
92282W        W64008   9.355  38.529  11.031
92283W        W64009  11.523  28.577   0.902
92284W        W64010  43.074   9.119   0.603
92285W        W64011   1.514  13.894   3.663
92286W        W64012  10.372  31.663  11.156
92287W        W64013   7.219  37.644   4.320
92288W        W64014  15.622   7.427   1.654
92289W        W64015  17.835  28.896   0.778
92290W        W64016  19.900   0.792   0.867
92291W        W64017  35.559  15.146   4.806
92292W        W64018  22.106  17.744  11.972
92293W        W64019  35.518   5.620  11.138
92294W        W64020  15.829  23.996  12.510
92295W        W64021  20.820  19.678  11.699
92296W        W64022  27.602  41.203   1.437
92297W        W64023   7.638  35.980  13.793
92298W        W64024  14.632  39.823  13.925
92299W        W64025  19.999   8.461  11.088
92300W        W64026  36.822  41.595   3.203
92301W        W64027  33.053   8.040   3.721
92302W        W64028  34.998  15.722   3.113
92303W        W64029  13.664  37.967  12.833
92304W        W64030   1.380   0.997   4.543
92305W        W64031   9.435  11.612   1.207
92306W        W64032  17.215  34.108  12.421
92307W        W64033  39.401  38.490   2.427
92308W        W64034  17.703  17.773   3.861
92309W        W64035  28.416  17.269  13.550
92310W        W64036  35.587  22.638   0.309
92311W        W64037  21.660  18.675   0.708
92312W        W64038  22.512   8.756  12.360
92313W        W64039   0.519  28.512   3.145
92314W        W64040  26.741   8.101  12.817
92315W        W64041  20.157  13.289   3.869
92316W        W64042  24.713  26.435   1.777
92317W        W64043  27.310   3.797   1.523
92318W        W64044   0.778  14.670  13.445
92319W        W64045  21.444  15.316  10.147
92320W        W64046  40.023  27.649   2.844
92321W        W64047  18.908  37.491  11.156
92322W        W64048  28.641   2.197  14.518
92323W        W64049  26.402  34.415   0.121
92324W        W64050  25.317  37.818  13.971
92325W        W64051  31.669  16.711  10.390
92326W        W64052  14.358   4.955  13.456
92327W        W64053  30.862   0.909  13.863
92328W        W64054  25.495   2.439   2.199
92329W        W64055   3.969  14.904  10.785
92330W        W64056  35.255  19.652  10.769
92331W        W64057  31.812  10.578  12.723
92332W        W64058  35.896  24.770   2.273
92333W        W64059  39.508  20.482   2.364
92334W        W64060  43.967   8.580  12.527
92335W        W64061   5.719  15.827   4.724
92336W        W64062  33.441   8.775   4.302
92337W        W64063  43.074  29.053   3.724
92338W        W64064  37.677  10.161  13.703
92339W        W64065  17.561  14.512   1.458
92340W        W64066   8.643  35.915  12.665
92341W        W64067   5.958  31.218  11.120
92342W        W64068  27.175  23.467  11.577
92343W        W64069   6.254  16.684   2.111
92344W        W64070   3.159   1.548  10.675
92345W        W64071  21.514  44.616   4.004
92346W        W64072   9.195  18.980   2.904
92347W        W64073  43.466  16.582  10.494
92348W        W64074  29.224  28.120   2.291
92349W        W64075   7.765   9.400   1.292
92350W        W64076  10.388  31.404   4.115
92351W        W64077  27.637  34.643  10.419
92352W        W64078  38.337  39.534  11.550
92353W        W64079  28.635  11.715   0.860
92354W        W64080  41.289  34.840   2.740
92355W        W64081  18.324  18.116  14.347
92356W        W64082  31.000  25.038  12.338
92357W        W64083   1.755  42.563   2.866
92358W        W64084  36.967  41.542   1.353
92359W        W64085  12.306  16.343   0.374
92360W        W64086  21.724   9.472  13.018
92361W        W64087  20.761  42.600  11.034
92362W        W64088  35.938  44.530  13.832
92363W        W64089   6.440  25.624  13.398
92364W        W64090  33.294  19.208  13.393
92365W        W64091   7.529  33.175  11.642
92366W        W64092  36.018  29.452   3.622
92367W        W64093  36.133  36.946   3.638
92368W        W64094  35.784   8.371  13.928
92369W        W64095  24.177  29.718   3.577
92370W        W64096   1.519  11.636  14.357
92371W        W64097  43.110  16.213   0.235
92372W        W64098  10.260  16.292  12.085
92373W        W64099  29.042  31.597   2.439
92374W        W64100  44.003  10.710   0.239
92375W        W64101  11.526  19.537   3.137
92376W        W64102   7.948  24.236   2.366
92377W        W64103  40.338   5.637   4.109
92378W        W64104  35.586  37.392   3.191
92379W        W64105   0.917  17.544  12.513
92380W        W64106  40.920  18.554  14.972
92381W        W64107  12.718  24.959   0.750
92382W        W64108   2.949  41.728   4.782
92383W        W64109  40.516  40.436  12.496
92384W        W64110   1.335  22.587  11.975
92385W        W64111   5.879  15.508   3.779
92386W        W64112  24.692  36.354   0.689
92387W        W64113   3.938  16.556  10.666
92388W        W64114   9.914  15.892   0.928
92389W        W64115  38.333  29.887   1.980
92390W        W64116   3.869  13.897   0.462
92391W        W64117  42.895  23.678   1.700
92392W        W64118  27.731  20.202   2.671
92393W        W64119  22.032  36.320  14.922
92394W        W64120  38.271  30.942   3.453
92395W        W64121  28.714  24.515   4.733
92396W        W64122  15.833  40.337   4.511
92397W        W64123   5.692  20.207  14.001
92398W        W64124  31.514  14.030   3.726
92399W        W64125  41.755  22.650  10.576
92400W        W64126  41.248   2.282  11.769
92401W        W64127  41.801   8.321   2.791
92402W        W64128  19.938  20.072  12.995
92403W        W64129   5.795  37.010   2.807
92404W        W64130   7.628  15.328  14.611
92405W        W64131  34.623  38.890   1.993
92406W        W64132  27.350  27.992   2.082
92407W        W64133  23.728  22.009   3.388
92408W        W64134   4.961  12.645   1.248
92409W        W64135  39.846   5.023   3.732
92410W        W64136  25.202   8.149  11.158
92411W        W64137  11.234  25.935   0.963
92412W        W64138  10.839  40.493  14.855
92413W        W64139  20.071  11.745   3.758
92414W        W64140  33.121  41.404   2.842
92415W        W64141  17.114   5.273   3.142
92416W        W64142   5.778  34.618  13.762
92417W        W64143  10.643  24.025  12.804
92418W        W64144  39.039  16.331  13.015
92419W        W64145  13.329   6.248  12.944
92420W        W64146  15.738  35.007  12.462
92421W        W64147  34.072  23.552   4.122
92422W        W64148  15.325  27.668   0.842
92423W        W64149  44.240  44.895  14.968
92424W        W64150  24.092  19.625   3.747
92425W        W64151  30.984  21.830  11.111
92426W        W64152  29.215  26.584  10.644
92427W        W64153   7.117   6.389   5.089
92428W        W64154  44.392   1.194  12.574
92429W        W64155  44.475  15.850  11.553
92430W        W64156   1.816  39.927   4.461
92431W        W64157  13.679  17.287   2.458
92432W        W64158  14.142   9.226  12.113
92433W        W64159  16.208  23.573  10.973
92434W        W64160  13.631  13.615   2.372
92435W        W64161  42.087   3.448   4.127
92436W        W64162  41.261  37.027   4.635
92437W        W64163  24.603  23.275  12.155
92438W        W64164  23.568   8.866   0.492
92439W        W64165  30.972  14.791   3.610
92440W        W64166  28.760  35.807  12.741
92441W        W64167  16.789  37.082   0.004
92442W        W64168  36.449  15.379   3.728
92443W        W64169   4.845   0.313   2.696
92444W        W64170  13.168  15.290   0.986
92445W        W64171  37.361  27.213   4.995
92446W        W64172  37.721   8.252   3.994
92447W        W64173   0.832   9.326  11.689
92448W        W64174  29.261  33.417   1.716
92449W        W64175  37.078   2.730   1.800
92450W        W64176  32.674  40.105  12.058
92451W        W64177  41.789  27.185  12.830
92452W        W64178  40.415  11.972   2.821
92453W        W64179  36.899  19.028  12.915
92454W        W64180  18.277  31.626   4.140
92455W        W64181  22.227  18.662   1.325
92456W        W64182  38.454   9.536  11.096
92457W        W64183  23.470  39.184  12.820
92458W        W64184   3.689  22.760  11.646
92459W        W64185  32.040   8.431   1.711
92460W        W64186   2.823  37.953   1.649
92461W        W64187   0.058  42.062   4.747
92462W        W64188  44.373  16.026   1.323
92463W        W64189   6.932   8.823   1.153
92464W        W64190  37.462   0.909   1.958
92465W        W64191  17.193  22.751   5.106
92466W        W64192  26.638  35.502  10.693
92467W        W64193  12.866  39.874   4.677
92468W        W64194   1.831  19.743  13.952
92469W        W64195  43.276  27.313  12.521
92470W        W64196  35.477  37.775  14.521
92471W        W64197   5.454   9.203  13.789
92472W        W64198  27.206  28.475   1.245
92473W        W64199  35.931  26.577  12.531
92474W        W64200  33.896   3.903   2.412
92475W        W64201   3.011  19.102   1.389
92476W        W64202   5.934   8.105   3.321
92477W        W64203  40.401  33.083  11.032
92478W        W64204   9.788  30.523   3.362
92479W        W64205   4.402  25.480  13.193
92480W        W64206  32.432  30.443  13.641
92481W        W64207  27.220  15.361  10.985
92482W        W64208  36.973   9.215  10.794
92483W        W64209  19.066   3.071   3.299
92484W        W64210  24.866  35.934  13.860
92485W        W64211   9.589   8.385   0.650
92486W        W64212   6.462  15.090   4.174
92487W        W64213  12.341  13.655   2.746
92488W        W64214  32.858  17.963   3.491
92489W        W64215  42.473  41.995  12.018
92490W        W64216  40.945  13.726   4.614
92491W        W64217  28.623  34.963  13.078
92492W        W64218   2.055  19.223   0.374
92493W        W64219   9.972  25.528   3.030
92494W        W64220  13.744  39.361  11.622
92495W        W64221   8.855  33.955  14.896
92496W        W64222   6.288   5.800   0.301
92497W        W64223  41.441  22.259  10.844
92498W        W64224  37.597  18.646  14.364
92499W        W64225  18.766   9.136   2.643
92500W        W64226  30.914  21.484   4.581
92501W        W64227  30.938   1.326   3.616
92502W        W64228  41.774  36.980   4.663
92503W        W64229  21.236   0.805   2.586
92504W        W64230  36.906   5.666  14.915
92505W        W64231   3.898  32.497   2.670
92506W        W64232  36.770  14.208   3.690
92507W        W64233  31.522  37.474   4.209
92508W        W64234  33.603   1.088   0.458
92509W        W64235  35.405  24.509  13.261
92510W        W64236   5.232  24.571   3.222
92511W        W64237  41.997  22.270  10.318
92512W        W64238  27.438  18.002  14.859
92513W        W64239  15.275  19.610   1.471
92514W        W64240   6.952  22.961  11.115
92515W        W64241  23.574  31.536   0.510
92516W        W64242  24.177   8.668   4.475
92517W        W64243  17.069  10.770   4.794
92518W        W64244  35.335  26.256  14.050
92519W        W64245  31.398  22.336  12.535
92520W        W64246  13.823  25.785   3.315
92521W        W64247  28.419   0.819  14.764
92522W        W64248  14.715  22.346   3.891
92523W        W64249   2.367  26.141   4.066
92524W        W64250  16.286  39.094  14.437
92525W        W64251   4.072   8.286  10.532
92526W        W64252  44.774  25.202   5.054
92527W        W64253  22.618  42.936   0.433
92528W        W64254  23.064   0.389   3.403
92529W        W64255   6.224  40.134  12.233
92530W        W64256  21.062   8.111  14.756
92531W        W64257  11.906   1.296   4.634
92532W        W64258  33.086  19.203   4.813
92533W        W64259  13.469   5.377   4.090
92534W        W64260  25.150  27.114  11.442
92535W        W64261   8.704  18.496  12.415
92536W        W64262  36.600  32.576  12.628
92537W        W64263   1.482  30.211  11.116
92538W        W64264  13.759  19.550   3.636
92539W        W64265   0.991   0.634   5.025
92540W        W64266   2.419   0.443   4.271
92541W        W64267  31.208  13.408  12.852
92542W        W64268  44.706  28.029   0.870
92543W        W64269   1.829  25.852  13.082
92544W        W64270  18.976  30.969   4.714
92545W        W64271  31.488  19.041   3.771
92546W        W64272  39.217  24.104   0.978
92547W        W64273  42.433  27.908   0.473
92548W        W64274  16.205  15.170   4.691
92549W        W64275  13.312   4.196  13.851
92550W        W64276  12.067   1.936   0.885
92551W        W64277  41.403  13.113   1.766
92552W        W64278   0.938  14.114   0.921
92553W        W64279  24.976  43.993   2.237
92554W        W64280  16.460  15.671   0.881
92555W        W64281   0.910  30.198   1.702
92556W        W64282   6.126  24.117  10.477
92557W        W64283  25.576  40.816  12.062
92558W        W64284  26.423  26.061  10.795
92559W        W64285  41.767  29.608   3.766
92560W        W64286  32.846  33.018   3.197
92561W        W64287  41.436  29.709  11.972
92562W        W64288  13.299  39.055   4.133
92563W        W64289  40.483  25.224   1.762
92564W        W64290  31.450  25.427  13.501
92565W        W64291  28.419   3.024  13.114
92566W        W64292  10.100  39.836  11.359
92567W        W64293  16.065  19.567   4.496
92568W        W64294  34.114  32.046  10.683
92569W        W64295  31.902  10.640  10.887
92570W        W64296  33.503   2.453  11.965
92571W        W64297  38.308  32.127   4.248
92572W        W64298  11.177  36.516  11.122
92573W        W64299  21.356   2.499   3.800
92574W        W64300  13.204  34.272  12.515
92575W        W64301  17.062  16.084   0.408
92576W        W64302  25.655  43.472  13.277
92577W        W64303  32.984  32.933   4.655
92578W        W64304  15.507   2.938   4.124
92579W        W64305  13.271  34.305  13.735
92580W        W64306  16.082  44.719  13.490
92581W        W64307  37.280  23.042  12.492
92582W        W64308  44.273  38.020  14.282
92583W        W64309  34.017  37.512   0.960
92584W        W64310  33.430   5.657  14.511
92585W        W64311  11.346  25.005   2.010
92586W        W64312  29.922  30.853  11.122
92587W        W64313  43.286  29.533  11.514
92588W        W64314   4.919   1.943  11.538
92589W        W64315  21.512  19.122  11.957
92590W        W64316  34.036   9.095   0.824
92591W        W64317  36.087  39.453  10.653
92592W        W64318  40.990  32.360  14.302
92593W        W64319  17.212  39.544   3.643
92594W        W64320  31.568   0.787   2.319
92595W        W64321   8.311   7.452   2.194
92596W        W64322  38.119  37.860  14.041
92597W        W64323  10.843  33.375   0.599
92598W        W64324  38.499  11.142   2.185
92599W        W64325  31.985  26.677  12.568
92600W        W64326  17.090   1.756  12.012
92601W        W64327   0.317  24.979  11.698
92602W        W64328  10.852  19.588   2.664
92603W        W64329  29.371  34.298   3.233
92604W        W64330  42.830  28.720   3.414
92605W        W64331   7.821  31.696   0.305
92606W        W64332  32.078   4.612   1.968
92607W        W64333  41.437  14.082   3.582
92608W        W64334  18.707  44.311   3.696
92609W        W64335  11.966  21.684  10.722
92610W        W64336   9.416   1.162  12.872
92611W        W64337   3.879  34.914   4.280
92612W        W64338   3.803  24.135   9.976
92613W        W64339  11.092  37.931   2.407
92614W        W64340  20.214  32.902  11.211
92615W        W64341   6.366  11.352   0.368
92616W        W64342  28.041  39.372   1.701
92617W        W64343  31.754   2.148   1.225
92618W        W64344  27.360  14.567   1.843
92619W        W64345   3.884  38.919  12.529
92620W        W64346  18.772  26.265  14.303
92621W        W64347  29.405  16.176   2.427
92622W        W64348  32.908  38.661  13.036
92623W        W64349  30.049  24.649  13.852
92624W        W64350  22.062  24.868   4.291
92625W        W64351  12.145  38.294   1.296
92626W        W64352  17.228  28.431  10.377
92627W        W64353  20.326  24.286   0.751
92628W        W64354   5.192  25.285  11.037
92629W        W64355  43.812  12.243   4.032
92630W        W64356  21.518  20.731   3.712
92631W        W64357  39.346  43.522  12.349
92632W        W64358  18.477   6.403   1.330
92633W        W64359   2.192  37.986   2.221
92634W        W64360  14.210  44.330   4.564
92635W        W64361  15.868  44.115   5.185
92636W        W64362   7.725  17.282  12.528
92637W        W64363  19.752  44.494   1.447
92638W        W64364  19.434   3.689  12.836
92639W        W64365  42.800  29.889  14.455
92640W        W64366  34.990  19.580   3.751
92641W        W64367  34.913  26.001  13.854
92642W        W64368  18.820   9.623   2.915
92643W        W64369  11.705   8.723  11.509
92644W        W64370  23.091  33.367   2.920
92645W        W64371  17.638  35.414   3.604
92646W        W64372  34.083   1.260  12.886
92647W        W64373   5.007  32.940  12.762
92648W        W64374  25.761  11.949  11.091
92649W        W64375  31.580  32.950   1.227
92650W        W64376   9.817  27.557  14.672
92651W        W64377  44.801  36.467  13.872
92652W        W64378  43.851  11.946   0.321
92653W        W64379  43.896   0.834  14.128
92654W        W64380  44.453  17.688   4.585
92655W        W64381  36.179  30.847  13.202
92656W        W64382  32.926  37.644  13.713
92657W        W64383  20.699  23.752   0.429
92658W        W64384  23.421  29.349   4.993
92659W        W64385  40.695  38.028  10.965
92660W        W64386   8.265  34.487  14.430
92661W        W64387  31.875  42.977   2.284
92662W        W64388  12.431  37.663  13.179
92663W        W64389  31.391  24.526   0.151
92664W        W64390  30.749  15.612  10.619
92665W        W64391  36.979   0.727  11.141
92666W        W64392   7.870   0.309  14.693
92667W        W64393   0.859  23.682   0.019
92668W        W64394  42.135  42.548   4.260
92669W        W64395   2.204  34.791   0.364
92670W        W64396  31.497   4.967  10.677
92671W        W64397   7.447   9.980  13.378
92672W        W64398  14.839  37.935  13.446
92673W        W64399  10.324  37.948   2.809
92674W        W64400  14.802  39.192  10.252
92675W        W64401   9.391  12.608  12.006
92676W        W64402   5.622   7.541  10.313
92677W        W64403  35.962   8.233   4.641
92678W        W64404  17.798  23.350  11.193
92679W        W64405  35.172  20.285  14.327
92680W        W64406  42.844  42.548   0.399
92681W        W64407  31.103  12.343   2.637
92682W        W64408  44.852   9.758   0.189
92683W        W64409  21.705  41.905  14.714
92684W        W64410   8.302  44.573  14.340
92685W        W64411  43.988  11.605   3.603
92686W        W64412  41.438  31.024   4.268
92687W        W64413  11.857  41.485   1.457
92688W        W64414  35.127  18.894  13.778
92689W        W64415   9.775  21.019   3.376
92690W        W64416  41.390  32.032   2.699
92691W        W64417   7.684  39.973  11.872
92692W        W64418  11.614   1.223  12.474
92693W        W64419   3.956  12.828   3.772
92694W        W64420  26.671  10.706   4.174
92695W        W64421  24.925   5.667  11.881
92696W        W64422   7.262  13.193  14.884
92697W        W64423  19.113  18.543   4.175
92698W        W64424  27.073  29.406  11.575
92699W        W64425  12.286  33.143   0.560
92700W        W64426  20.166  15.933  14.769
92701W        W64427   9.763  43.487  13.037
92702W        W64428   7.596  19.537   1.747
92703W        W64429  43.930  23.923  14.463
92704W        W64430  15.773  24.673  14.365
92705W        W64431  29.803  36.916   1.552
92706W        W64432  18.315  35.512  11.866
92707W        W64433  10.308  31.364  13.484
92708W        W64434   7.358   4.207  11.001
92709W        W64435   0.127  21.053  12.965
92710W        W64436  22.795  13.583   3.412
92711W        W64437  34.589  41.384  12.856
92712W        W64438  10.456  16.172  13.846
92713W        W64439  31.641  26.705  10.876
92714W        W64440   6.143  21.753  14.722
92715W        W64441  25.145  30.985  14.209
92716W        W64442  18.552  20.699  12.011
92717W        W64443  32.644  14.865   1.814
92718W        W64444  20.640  34.731  14.597
92719W        W64445  26.054   2.752  13.809
92720W        W64446  17.129  24.529  12.423
92721W        W64447  12.245  38.906  10.754
92722W        W64448  35.909  38.881  13.306
92723W        W64449   4.642   4.200  13.290
92724W        W64450   8.880  25.985   5.414
92725W        W64451  17.380  39.303  14.101
92726W        W64452  29.255  42.216  14.105
92727W        W64453  25.350  11.657  14.055
92728W        W64454  29.917  34.205  10.769
92729W        W64455  11.656  20.044  14.789
92730W        W64456  41.523  23.698  11.096
92731W        W64457   2.601  38.383  11.942
92732W        W64458  10.265  16.290   4.054
92733W        W64459  31.883  20.020  11.215
92734W        W64460  26.283  19.819   0.936
92735W        W64461   2.499  13.231  12.025
92736W        W64462  43.287  24.510   3.229
92737W        W64463  33.550  19.764  11.474
92738W        W64464  12.371   1.536   3.708
92739W        W64465  15.562  18.257  13.294
92740W        W64466  22.621  42.457   0.649
92741W        W64467  39.463  18.107   0.921
92742W        W64468  11.266   6.770  11.358
92743W        W64469  40.824   2.559  11.583
92744W        W64470  40.159  27.451  14.791
92745W        W64471  14.469  12.250   2.268
92746W        W64472  11.574  14.640   3.787
92747W        W64473  30.712  36.437   4.554
92748W        W64474   4.204   9.417   1.381
92749W        W64475  28.230  15.866  13.409
92750W        W64476  42.027  35.972   3.721
92751W        W64477  19.540   2.399   4.544
92752W        W64478   0.940   6.991  11.276
92753W        W64479  17.277  11.712  10.981
92754W        W64480  28.031  43.277   3.721
92755W        W64481  21.539  44.222   0.015
92756W        W64482  36.319  24.809  11.099
92757W        W64483  14.974  43.389   3.293
92758W        W64484  39.611  43.385  11.111
92759W        W64485  40.903  25.972   3.075
92760W        W64486  32.516  23.246   2.684
92761W        W64487  37.952  39.366  13.740
92762W        W64488  43.559  43.024   1.890
92763W        W64489  16.244   4.668   1.805
92764W        W64490  12.140  43.731  14.310
92765W        W64491  20.264  37.455   1.188
92766W        W64492   6.914  38.255   1.860
92767W        W64493  16.282   2.731   0.367
92768W        W64494  39.388  23.147   1.901
92769W        W64495  21.327  38.534   2.382
92770W        W64496  40.509  16.638  12.033
92771W        W64497  27.822  26.212  13.964
92772W        W64498   6.258  16.830   0.726
92773W        W64499  13.832  27.551  11.046
92774W        W64500  18.510  39.842   0.307
92775W        W64501  40.349  24.194   4.523
92776W        W64502  27.177   9.444   1.443
92777W        W64503  41.876  23.153  12.999
92778W        W64504  44.445  17.505  11.091
92779W        W64505  17.057  30.099  14.794
92780W        W64506   5.455   5.697  10.977
92781W        W64507  43.722   6.591  14.472
92782W        W64508  37.981  18.311   5.215
92783W        W64509  40.602  25.729   1.714
92784W        W64510  29.101   1.022  12.877
92785W        W64511  43.821   8.172  11.093
92786W        W64512  40.883  17.380  11.608
92787W        W64513  30.190   9.813  11.222
92788W        W64514   1.254   6.628   2.851
92789W        W64515   8.854  34.356  11.598
92790W        W64516   4.435   8.868   3.836
92791W        W64517   8.407   6.832  12.563
92792W        W64518  35.398  43.358   0.834
92793W        W64519  21.973  28.368   4.573
92794W        W64520  35.867  29.633  12.948
92795W        W64521  16.623  39.891  14.866
92796W        W64522  34.485  23.277   1.883
92797W        W64523  10.294  33.359   3.168
92798W        W64524  17.354   2.560  11.237
92799W        W64525  39.328   2.882   3.079
92800W        W64526   2.933  32.158  14.103
92801W        W64527  29.544  24.532  12.561
92802W        W64528  34.915  11.327  13.994
92803W        W64529   4.830  40.995  12.505
92804W        W64530  20.238  39.329  13.428
92805W        W64531  15.172  11.592  10.794
92806W        W64532  43.398  20.014   0.300
92807W        W64533  34.218  16.428   3.108
92808W        W64534  11.396  11.203   4.544
92809W        W64535  26.467  11.148   1.269
92810W        W64536   4.273  41.527   4.391
92811W        W64537  39.857  13.229   1.871
92812W        W64538   5.459   8.870  11.965
92813W        W64539   5.314   4.904   2.851
92814W        W64540  37.470   4.374  13.040
92815W        W64541  14.645  18.439   2.776
92816W        W64542  14.714  35.406   3.366
92817W        W64543   3.751  39.719  14.933
92818W        W64544  38.832  14.793   0.787
92819W        W64545  36.037  25.771  14.384
92820W        W64546  17.240   7.543   1.315
92821W        W64547  10.806  31.727   3.215
92822W        W64548  22.199  10.728  13.397
92823W        W64549  13.529  37.960   3.846
92824W        W64550  25.030   8.140  14.713
92825W        W64551   1.395  38.837  14.278
92826W        W64552  13.085  40.221   3.111
92827W        W64553   4.545   5.509   5.344
92828W        W64554  35.637  27.061  10.541
92829W        W64555  13.260  14.564  14.005
92830W        W64556  39.810  36.371  12.086
92831W        W64557   8.815  37.114  13.004
92832W        W64558  25.890  34.744   2.025
92833W        W64559  16.675  16.680   3.189
92834W        W64560  10.721   6.901   4.369
92835W        W64561  33.955  29.986   3.402
92836W        W64562  19.286  24.076   3.830
92837W        W64563  36.920  12.969   3.185
92838W        W64564   4.461   6.236  10.691
92839W        W64565   0.865  15.430  12.566
92840W        W64566  31.063  32.819  12.843
92841W        W64567  31.911  28.443   2.181
92842W        W64568  44.578   5.744   0.782
92843W        W64569  18.619  16.301   3.133
92844W        W64570   3.947  36.867   1.920
92845W        W64571  11.906  18.816  11.086
92846W        W64572  26.243  42.954  10.717
92847W        W64573   8.313  10.387   2.485
92848W        W64574   1.358  41.609   1.709
92849W        W64575  42.436  20.211   4.946
92850W        W64576  18.710  29.477  13.199
92851W        W64577   0.339  15.623  13.841
92852W        W64578  23.862  38.406  14.459
92853W        W64579  24.247  34.547   1.722
92854W        W64580  41.476  13.921   1.022
92855W        W64581  13.622  34.522   2.278
92856W        W64582  32.535  38.803  11.817
92857W        W64583  10.628  20.710   0.969
92858W        W64584  36.145  41.079  11.587
92859W        W64585   0.346  21.227   0.955
92860W        W64586  38.057  33.815  14.302
92861W        W64587   4.039   7.636   4.725
92862W        W64588  19.848  37.418   1.787
92863W        W64589  13.596  19.023   1.627
92864W        W64590  39.811  18.992  12.014
92865W        W64591   4.482  18.832   1.139
92866W        W64592   4.715  14.450   0.711
92867W        W64593  23.319  44.466   0.347
92868W        W64594  18.091  39.869  14.976
92869W        W64595   8.177   9.713   1.254
92870W        W64596  21.303  25.655   1.828
92871W        W64597  19.040  14.529  12.904
92872W        W64598  23.588  27.724   3.715
92873W        W64599  30.760  13.633   4.184
92874W        W64600  21.045  38.833  14.420
92875W        W64601   3.652   2.437   0.643
92876W        W64602  33.434  15.659   3.698
92877W        W64603  39.954  23.795   1.463
92878W        W64604   6.377  24.651   3.667
92879W        W64605  10.686  34.889   2.347
92880W        W64606  16.832   2.323   1.286
92881W        W64607  40.838  35.881  11.427
92882W        W64608   4.547  26.478   2.702
92883W        W64609  36.033  14.115  12.094
92884W        W64610  43.860  34.909  11.648
92885W        W64611  11.777  15.754  12.377
92886W        W64612  44.916   4.402   4.128
92887W        W64613   6.588   4.833  11.816
92888W        W64614   6.857  39.557   4.585
92889W        W64615   1.416  13.759   4.574
92890W        W64616  11.235  19.088   3.181
92891W        W64617  26.198  16.116   1.738
92892W        W64618  29.502  42.929   1.710
92893W        W64619   5.516  35.351   4.092
92894W        W64620  17.807  40.895  11.056
92895W        W64621   5.736  28.881  12.427
92896W        W64622  10.782  32.100  12.518
92897W        W64623  34.906  29.457   1.632
92898W        W64624  39.884  43.248   0.080
92899W        W64625   7.712  31.982   4.927
92900W        W64626  44.497  11.794   2.689
92901W        W64627  21.557  40.480   3.223
92902W        W64628  40.518  14.975  11.161
92903W        W64629   8.375   5.206  13.249
92904W        W64630  32.925  21.135   2.352
92905W        W64631  10.681  21.973  11.227
92906W        W64632  17.706  17.154   0.936
92907W        W64633  30.880  16.040   2.362
92908W        W64634   0.292   6.291   2.333
92909W        W64635   6.268  31.133  13.109
92910W        W64636  31.878   2.256  10.600
92911W        W64637   7.487  40.424  11.695
92912W        W64638  43.262  11.240   0.485
92913W        W64639  28.150  30.093  13.941
92914W        W64640   7.559  14.823  11.526
92915W        W64641  19.596  44.398   2.879
92916W        W64642  42.973  22.560  11.847
92917W        W64643  18.008  19.805  11.126
92918W        W64644   1.280   2.984  11.706
92919W        W64645  29.327  13.869   3.261
92920W        W64646  42.043  28.078   4.996
92921W        W64647  14.879  33.361  10.087
92922W        W64648  22.193  10.142   0.688
92923W        W64649  43.230   2.290   4.054
92924W        W64650  20.603  24.187  14.963
92925W        W64651  22.065  29.078  12.984
92926W        W64652  36.671  24.960   1.415
92927W        W64653  40.482  21.616  14.382
92928W        W64654   6.248   0.268   2.641
92929W        W64655  15.813   1.528   1.850
92930W        W64656  28.693  22.153  12.892
92931W        W64657  12.079  30.646  14.246
92932W        W64658  42.277  36.874   4.651
92933W        W64659   3.900  40.009   2.257
92934W        W64660  20.121  26.203  12.837
92935W        W64661  10.569   3.174  11.506
92936W        W64662  27.673  34.122  11.104
92937W        W64663  29.489  43.071  14.741
92938W        W64664  13.301  22.987  14.735
92939W        W64665  25.056  35.631  12.493
92940W        W64666   4.492  22.621   1.517
92941W        W64667  32.497  16.564   3.669
92942W        W64668  33.862  35.547  11.479
92943W        W64669  21.159  22.000   0.193
92944W        W64670   4.288  31.001   1.464
92945W        W64671   3.537  17.679   5.064
92946W        W64672   8.173  33.440   4.535
92947W        W64673   6.208   8.433   4.252
92948W        W64674  16.925  34.600   1.460
92949W        W64675  14.740   6.178  12.217
92950W        W64676  30.514  39.112  10.474
92951W        W64677  30.381  13.356  12.496
92952W        W64678  28.278   6.640   5.069
92953W        W64679  30.746  17.071   3.635
92954W        W64680  11.939  33.900  12.192
92955W        W64681  26.132  32.313   4.357
92956W        W64682   5.985  30.447   2.002
92957W        W64683   8.409   9.179  14.892
92958W        W64684   0.444  43.002   3.766
92959W        W64685  15.210  18.552  12.088
92960W        W64686  18.289  20.255  12.006
92961W        W64687  18.209  24.148  11.154
92962W        W64688  34.809  29.854   0.493
92963W        W64689  17.363  35.033   0.829
92964W        W64690  14.623  29.588   3.898
92965W        W64691  27.239  27.179   3.779
92966W        W64692  12.659  25.472   0.789
92967W        W64693  24.229  10.370  12.584
92968W        W64694  36.879  28.477  14.874
92969W        W64695  28.371  28.204  13.488
92970W        W64696   4.422   6.387  10.209
92971W        W64697  28.026  20.578  11.595
92972W        W64698  23.242  36.992  14.848
92973W        W64699   8.866  32.136  14.589
92974W        W64700  41.037  21.275   3.747
92975W        W64701  31.838  39.271   1.901
92976W        W64702  11.319   6.316   2.079
92977W        W64703   4.657  18.290   0.380
92978W        W64704  13.022   0.886  11.521
92979W        W64705   4.438  17.531   4.204
92980W        W64706  23.723  28.601   1.867
92981W        W64707   3.427  42.446   2.413
92982W        W64708  17.597  30.123   0.244
92983W        W64709   0.729   6.889  10.808
92984W        W64710  34.539  37.015  13.936
92985W        W64711   6.859  26.007  12.416
92986W        W64712  38.724   6.089   4.581
92987W        W64713  29.901   8.145  11.952
92988W        W64714  12.840  36.138  12.503
92989W        W64715  20.410  22.674  12.465
92990W        W64716  30.570   4.260   4.852
92991W        W64717  24.160  34.587   4.294
92992W        W64718   2.395  24.417   3.750
92993W        W64719  40.514  16.193  14.402
92994W        W64720  19.915  28.828   2.801
92995W        W64721  41.381  17.129  12.963
92996W        W64722  19.271  36.158   0.119
92997W        W64723  12.633  12.933   1.314
92998W        W64724  22.178  11.526   1.779
92999W        W64725  25.301  44.410   0.216
93000W        W64726  27.133  12.235   2.163
93001W        W64727  17.082  24.270   2.324
93002W        W64728  23.974  44.365  13.053
93003W        W64729   8.401  12.870   4.840
93004W        W64730  41.020   1.244   4.241
93005W        W64731   1.673  39.849   0.355
93006W        W64732   3.711  10.426  11.636
93007W        W64733  26.482   4.814   4.657
93008W        W64734  40.272  32.994   4.367
93009W        W64735  36.305  11.426  14.078
93010W        W64736   9.656   0.870   2.366
93011W        W64737   0.887  25.027   1.952
93012W        W64738  40.763  40.932  11.373
93013W        W64739  40.818  12.315  12.511
93014W        W64740   4.395  25.211  14.502
93015W        W64741  24.150  17.144  14.566
93016W        W64742   7.724  34.759   2.663
93017W        W64743  28.115   4.998   2.843
93018W        W64744   0.630  30.928  12.494
93019W        W64745  13.296  40.696  12.610
93020W        W64746  36.090  33.072  14.785
93021W        W64747   7.339  40.713  14.362
93022W        W64748  33.991   4.786   4.499
93023W        W64749  32.189   6.888   1.939
93024W        W64750  13.187  35.669  12.057
93025W        W64751  22.492  39.077   9.681
93026W        W64752  31.498  17.896  11.251
93027W        W64753   5.500  19.565  11.207
93028W        W64754  31.190  35.946  10.709
93029W        W64755  15.343   5.072  12.680
93030W        W64756  41.879  40.320  12.901
93031W        W64757  14.990  24.686   2.701
93032W        W64758   3.306  28.424   0.329
93033W        W64759  25.563  42.333  11.577
93034W        W64760  37.379  19.795  13.756
93035W        W64761  28.073  31.114  12.415
93036W        W64762  34.436  44.016  13.048
93037W        W64763  23.978  36.504  14.300
93038W        W64764  23.110   2.752   0.703
93039W        W64765  27.669   2.752  14.545
93040W        W64766   0.265  37.003   4.106
93041W        W64767  29.195  41.928  12.106
93042W        W64768  28.906  42.013   4.169
93043W        W64769  28.695  34.905   1.345
93044W        W64770  43.843  40.477  14.439
93045W        W64771   4.902  13.000   0.856
93046W        W64772  16.371   2.746  13.295
93047W        W64773  37.580  32.267  13.322
93048W        W64774   2.929   9.444  14.543
93049W        W64775  25.453   5.759  14.015
93050W        W64776  11.128  21.658  11.988
93051W        W64777  33.569  31.756  11.668
93052W        W64778   9.848  21.738   3.885
93053W        W64779  23.817  41.744  14.912
93054W        W64780  17.880  23.802   0.456
93055W        W64781   8.751   1.253   4.840
93056W        W64782  26.334  43.513  14.579
93057W        W64783  23.595  43.740  14.811
93058W        W64784  33.539   4.447   4.242
93059W        W64785  10.538  44.299  14.826
93060W        W64786  18.834  13.155  13.345
93061W        W64787  25.744  26.155   0.970
93062W        W64788  11.190   8.305   2.780
93063W        W64789  18.615   6.160   1.778
93064W        W64790  32.432  25.806   3.843
93065W        W64791  16.629   0.011   1.366
93066W        W64792   9.852  39.276   0.906
93067W        W64793   6.062  37.040  13.414
93068W        W64794   6.597  23.015   1.371
93069W        W64795  25.557  26.195  12.785
93070W        W64796  10.676  11.606  14.054
93071W        W64797  25.107  37.133   0.264
93072W        W64798   3.053  14.735  10.513
93073W        W64799  21.550  32.421  11.652
93074W        W64800   5.791  20.503  12.865
93075W        W64801  27.540  23.314   0.819
93076W        W64802   4.095  37.292   3.867
93077W        W64803  11.113  11.889   0.729
93078W        W64804  36.692  11.253   0.179
93079W        W64805   3.710  38.730   3.106
93080W        W64806  35.860  27.183  11.925
93081W        W64807  23.607  15.631  11.079
93082W        W64808  43.506   7.747   3.157
93083W        W64809  40.073  12.320  12.973
93084W        W64810  40.341  27.214   2.807
93085W        W64811  44.801   7.378  13.294
93086W        W64812  23.931  12.166  10.934
93087W        W64813  41.484  15.653  11.941
93088W        W64814   5.210  39.464   0.337
93089W        W64815  23.458  34.393  13.894
93090W        W64816  31.153  27.250  14.368
93091W        W64817  32.130  18.092  11.884
93092W        W64818   8.693  24.093  10.620
93093W        W64819   4.324  11.827   1.010
93094W        W64820  10.717  23.672   1.778
93095W        W64821  21.268   4.721  14.616
93096W        W64822  30.632  40.538   4.063
93097W        W64823  22.798   8.622  11.078
93098W        W64824  26.090  41.679  12.047
93099W        W64825  12.027  22.829   2.892
93100W        W64826  23.200  32.866   2.836
93101W        W64827  11.558  42.446  13.317
93102W        W64828  35.370  24.273   1.759
93103W        W64829  44.245  20.705   2.240
93104W        W64830  23.392   4.136   1.791
93105W        W64831  15.252  28.072   0.292
93106W        W64832  12.818   6.646   2.340
93107W        W64833  11.021  44.372   3.783
93108W        W64834  37.536  28.619   2.130
93109W        W64835   2.067  14.254   4.959
93110W        W64836  10.553  27.003   2.410
93111W        W64837  12.386  26.575   1.384
93112W        W64838  24.545   4.754  14.360
93113W        W64839   3.229   0.936   2.397
93114W        W64840   2.251  21.480   4.366
93115W        W64841  41.413  42.039  14.985
93116W        W64842  35.386  24.199  14.908
93117W        W64843  36.520  26.707   0.347
93118W        W64844  25.656   2.736  12.879
93119W        W64845  15.021   4.177  12.618
93120W        W64846  31.655   9.817  11.995
93121W        W64847  32.188  20.211  13.327
93122W        W64848  13.709  12.849  12.006
93123W        W64849  27.621  18.018   0.921
93124W        W64850  19.119  35.985   3.541
93125W        W64851  22.015   3.757   0.288
93126W        W64852  27.982  42.891  14.389
93127W        W64853  22.507  20.826   4.696
93128W        W64854  30.443  22.941   0.798
93129W        W64855  25.946  43.596   3.425
93130W        W64856  39.927  43.449  14.076
93131W        W64857  34.068  24.519   2.867
93132W        W64858  29.785   4.918   3.798
93133W        W64859   7.838  37.914  13.763
93134W        W64860  23.320  29.474  13.277
93135W        W64861  37.852  20.393  10.190
93136W        W64862  30.939  35.601  13.161
93137W        W64863  40.094  43.587  11.119
93138W        W64864  44.987   9.585  12.128
93139W        W64865   4.259  27.365   3.558
93140W        W64866  27.285  32.679   4.683
93141W        W64867  36.076  27.686   3.769
93142W        W64868  23.531  29.265  10.665
93143W        W64869   9.089   1.022  11.188
93144W        W64870   0.338  38.957  13.462
93145W        W64871  13.808   3.815   0.916
93146W        W64872  23.699  22.760   2.739
93147W        W64873  18.206   9.107  10.796
93148W        W64874   2.961  30.609   2.777
93149W        W64875   9.769  42.214   0.669
93150W        W64876  34.891  32.185   2.678
93151W        W64877  43.012  41.979   3.411
93152W        W64878  35.778  43.693   0.971
93153W        W64879  16.241  40.468   0.358
93154W        W64880  34.356   1.315   0.756
93155W        W64881  36.768  32.524  11.001
93156W        W64882   9.865  44.750  13.499
93157W        W64883  22.804  44.520  10.217
93158W        W64884  39.962  11.632   4.894
93159W        W64885  37.343  43.832   1.785
93160W        W64886   9.342  31.821   0.091
93161W        W64887  19.423  19.002   3.300
93162W        W64888  35.839  30.983  12.859
93163W        W64889  38.850   6.141   5.088
93164W        W64890  31.988  19.689   4.067
93165W        W64891  23.107   4.239  14.929
93166W        W64892  21.182   9.644   3.430
93167W        W64893   7.385  39.395   0.181
93168W        W64894  40.168  31.768  14.494
93169W        W64895  30.248  21.357  13.068
93170W        W64896  44.755   3.913   2.196
93171W        W64897  31.878  26.647   0.410
93172W        W64898  31.110  16.179   0.851
93173W        W64899  28.035   7.400   0.630
93174W        W64900  23.602   5.520  13.890
93175W        W64901  43.539  22.210   0.421
93176W        W64902   2.792   4.228  13.271
93177W        W64903  41.367   8.151   1.904
93178W        W64904  37.478  15.343   3.639
93179W        W64905  16.405  16.697   2.746
93180W        W64906  43.284  43.675  10.533
93181W        W64907  32.092   0.810   1.258
93182W        W64908  29.355  15.877   3.275
93183W        W64909  39.889  35.914  14.920
93184W        W64910  19.486  12.494   2.706
93185W        W64911   3.923  41.755   2.883
93186W        W64912  44.449  44.538   0.661
93187W        W64913   4.344  35.186   4.838
93188W        W64914  33.639  20.229   0.323
93189W        W64915   1.241  19.530   3.377
93190W        W64916   8.406  22.554  12.543
93191W        W64917  29.272  26.211   2.171
93192W        W64918  15.671  20.810   4.185
93193W        W64919  35.238  12.340  11.976
93194W        W64920  16.746  26.919  11.572
93195W        W64921  19.199  24.642   3.196
93196W        W64922  35.883  21.442  13.919
93197W        W64923  25.047  23.424  12.833
93198W        W64924  24.950  27.881  12.428
93199W        W64925  26.350  34.561  13.897
93200W        W64926  42.351  23.325   4.054
93201W        W64927  21.282  15.315  10.675
93202W        W64928  40.056  39.989   2.262
93203W        W64929  33.197  28.599  11.086
93204W        W64930  16.234  18.273  14.926
93205W        W64931  28.914  37.351   0.861
93206W        W64932  27.225  29.377  13.041
93207W        W64933   6.152   0.402  14.404
93208W        W64934  14.785  15.151   0.662
93209W        W64935  32.180  27.990   2.381
93210W        W64936   3.704  20.623  13.094
93211W        W64937   6.884  40.670   0.175
93212W        W64938   1.391   8.453   3.333
93213W        W64939  22.499  32.590  10.393
93214W        W64940  41.572  24.330  14.097
93215W        W64941  28.576  21.472  12.551
93216W        W64942  30.405   1.943   3.905
93217W        W64943  25.522  30.798   0.682
93218W        W64944  38.263   4.828   1.103
93219W        W64945  39.870  30.973  11.709
93220W        W64946   4.897   4.813   0.065
93221W        W64947  37.524  41.372  14.375
93222W        W64948  40.354  10.677  11.352
93223W        W64949   8.845  16.957   0.365
93224W        W64950  26.538  29.667   0.180
93225W        W64951  24.422  14.874   1.034
93226W        W64952  25.032  15.023   1.746
93227W        W64953  21.227   7.170   1.295
93228W        W64954  35.506   9.186   4.051
93229W        W64955  31.882  13.700  12.588
93230W        W64956  32.380  32.134  12.401
93231W        W64957  13.525  41.909  12.078
93232W        W64958  42.761  23.079  13.115
93233W        W64959   8.967  35.202   4.570
93234W        W64960  36.959   0.222  11.168
93235W        W64961  32.142  27.412  10.684
93236W        W64962  23.919  20.566   1.238
93237W        W64963  41.389  26.690   2.832
93238W        W64964  29.450  17.837  14.534
93239W        W64965   5.169   2.931  14.161
93240W        W64966  37.902  29.148  10.688
93241W        W64967  25.668  35.232   2.666
93242W        W64968  21.473  22.647   0.463
93243W        W64969  18.615  11.440   0.239
93244W        W64970   2.236  32.637  13.985
93245W        W64971   2.260   4.410   4.823
93246W        W64972  15.351  31.153  12.809
93247W        W64973  27.988  25.307  14.085
93248W        W64974  21.127   3.515  13.265
93249W        W64975   7.347  38.341   3.320
93250W        W64976  35.624   7.191  13.233
93251W        W64977   8.127   3.403   1.237
93252W        W64978  42.112  18.375  12.567
93253W        W64979  43.568   6.918  14.874
93254W        W64980  43.891  23.954  11.375
93255W        W64981  42.033  37.031  14.912
93256W        W64982  37.874  12.632   4.477
93257W        W64983  25.007  36.581   4.267
93258W        W64984  18.732  38.071   2.292
93259W        W64985  39.336   3.996   0.966
93260W        W64986  28.084  42.545   4.428
93261W        W64987  25.558   4.838  14.333
93262W        W64988  11.678  19.707  12.892
93263W        W64989  12.593  18.096   4.185
93264W        W64990  28.051  18.783   1.581
93265W        W64991  31.144  38.146  14.809
93266W        W64992  28.894  32.381  11.103
93267W        W64993   0.911  40.150   0.902
93268W        W64994   2.937   0.100   1.306
93269W        W64995  44.495  21.178  14.915
93270W        W64996  29.799  14.254  12.822
93271W        W64997  17.523  17.663   0.871
93272W        W64998  24.146  10.377   2.330
93273W        W64999  28.070   4.665   2.428
93274W        W65000   4.765  37.979  14.915
93275W        W65001  34.753  40.280   3.701
93276W        W65002  38.763  41.035   1.822
93277W        W65003  39.539  43.403  14.719
93278W        W65004  14.130   9.913  12.930
93279W        W65005   5.707  12.946  14.037
93280W        W65006  13.818  18.785  13.936
93281W        W65007  36.441  28.769   1.214
93282W        W65008  27.033  20.837  11.030
93283W        W65009   5.970  40.281   1.162
93284W        W65010   5.185   3.915   0.720
93285W        W65011  12.616   1.772   0.899
93286W        W65012   7.666  12.087  13.577
93287W        W65013  34.944   1.408   3.761
93288W        W65014  14.535  12.334   3.381
93289W        W65015  32.126   1.212  12.037
93290W        W65016  25.322   7.850  14.390
93291W        W65017  15.240  28.638   0.067
93292W        W65018  42.737  20.727  10.365
93293W        W65019  25.677  10.180  10.756
93294W        W65020  21.005  22.707   5.148
93295W        W65021  37.476  23.665   4.855
93296W        W65022  15.108  13.545  11.612
93297W        W65023   7.334  42.815   3.152
93298W        W65024   5.884   3.720  13.911
93299W        W65025   8.925  15.045  13.932
93300W        W65026  28.139  13.431  12.024
93301W        W65027  17.548  28.412  12.052
93302W        W65028  42.086  30.959   4.029
93303W        W65029  15.223  13.618  12.890
93304W        W65030  40.397  24.864  10.781
93305W        W65031  32.687  42.231   3.885
93306W        W65032  31.218  40.151   3.247
93307W        W65033  28.115  20.461  13.300
93308W        W65034  28.243  22.775  11.426
93309W        W65035   0.972  40.996  13.905
93310W        W65036  17.199  26.775  14.867
93311W        W65037  44.177  18.481   1.303
93312W        W65038  18.267  36.282  13.376
93313W        W65039  13.907  13.609   1.721
93314W        W65040  12.577  18.066  14.997
93315W        W65041   2.121   6.232  11.933
93316W        W65042  37.807  12.849   2.234
93317W        W65043  11.177  37.772   0.294
93318W        W65044   4.172   8.640   1.714
93319W        W65045   8.246  18.055   0.923
93320W        W65046  26.923  23.687  14.961
93321W        W65047  26.691  29.447  12.457
93322W        W65048  17.501  32.038   3.843
93323W        W65049  35.496  33.938  12.419
93324W        W65050   2.543  28.670   2.502
93325W        W65051  40.355  41.972  14.281
93326W        W65052   7.693  34.579   0.822
93327W        W65053  42.989   9.721   3.741
93328W        W65054  38.334  40.607   2.250
93329W        W65055  28.503  29.504   3.720
93330W        W65056  32.917  24.505  10.774
93331W        W65057  38.667  24.716  11.126
93332W        W65058  11.280  22.732   2.907
93333W        W65059  26.583   3.921  13.980
93334W        W65060  27.572  36.460   3.329
93335W        W65061  19.270  25.641   2.986
93336W        W65062  15.622  28.192  14.010
93337W        W65063   6.229  20.424  11.957
93338W        W65064   7.450  24.508   1.325
93339W        W65065  16.569  21.946   3.423
93340W        W65066  31.344  37.313   3.316
93341W        W65067  16.141   1.543   2.257
93342W        W65068   7.139  17.703  12.479
93343W        W65069   7.134  16.151   1.906
93344W        W65070   3.337  35.713   3.317
93345W        W65071  22.982  38.406   4.063
93346W        W65072  17.372   8.161   2.390
93347W        W65073  26.820  20.920  10.150
93348W        W65074   2.954  16.101  14.366
93349W        W65075  43.098   7.898   3.999
93350W        W65076  36.355  33.353   4.598
93351W        W65077  25.911  21.234  10.915
93352W        W65078   2.477  37.551   2.396
93353W        W65079  33.028  30.794  12.623
93354W        W65080  36.627  36.862   3.733
93355W        W65081  43.436   8.861   4.035
93356W        W65082  36.982  44.278  11.967
93357W        W65083  34.423  15.621   2.224
93358W        W65084  36.542  13.332   3.112
93359W        W65085  44.782  20.566   3.581
93360W        W65086  21.673  16.160   2.400
93361W        W65087  31.171   5.834  11.466
93362W        W65088   6.181  22.687  14.686
93363W        W65089  21.474  36.453  11.619
93364W        W65090  30.226  29.223   4.173
93365W        W65091   1.788  34.444  10.585
93366W        W65092  32.915  23.983  14.019
93367W        W65093   5.092  14.064  14.825
93368W        W65094  26.621  18.725  11.699
93369W        W65095  26.047   8.784   4.212
93370W        W65096   0.052  25.086   4.612
93371W        W65097   0.072  26.600  14.233
93372W        W65098  14.836   9.894  13.441
93373W        W65099  17.615  38.294   0.374
93374W        W65100   7.424   3.845  11.998
93375W        W65101  14.004   9.394   4.109
93376W        W65102   8.877  22.287   4.145
93377W        W65103  12.419  35.582   3.375
93378W        W65104  35.562   5.396   2.093
93379W        W65105  36.188  12.094  12.901
93380W        W65106   3.676  30.984   3.764
93381W        W65107  13.837  38.513  10.121
93382W        W65108  37.924  30.667  10.689
93383W        W65109  32.403   1.238  14.505
93384W        W65110  27.892  20.619   0.331
93385W        W65111  21.504  19.157  12.986
93386W        W65112  41.566  13.255  12.953
93387W        W65113  44.697  44.900   1.630
93388W        W65114  27.120  40.318  10.789
93389W        W65115   4.678  31.064  11.531
93390W        W65116  30.190  37.608   0.685
93391W        W65117  14.720  21.051  11.789
93392W        W65118   9.864   6.838   4.219
93393W        W65119  42.795  21.431   2.726
93394W        W65120  29.263   7.632  10.824
93395W        W65121  18.689  30.117   3.435
93396W        W65122  30.657  42.536  13.992
93397W        W65123   8.658  37.080  11.999
93398W        W65124  42.548  34.674   4.467
93399W        W65125   8.365   3.501  13.070
93400W        W65126  27.940  27.716   1.861
93401W        W65127   6.740  38.262   3.781
93402W        W65128  32.870   6.892  11.298
93403W        W65129  19.730  11.191   2.284
93404W        W65130  28.528  26.379  10.046
93405W        W65131  10.115   1.409  12.464
93406W        W65132   3.170  44.738  14.424
93407W        W65133  13.550   2.961   4.360
93408W        W65134   7.903   9.420   4.593
93409W        W65135  24.505  12.365  13.111
93410W        W65136  38.815  20.641   0.368
93411W        W65137  38.908  26.455  10.482
93412W        W65138  40.200   0.708   3.785
93413W        W65139  43.287  43.865   1.332
93414W        W65140  31.901   9.671   0.425
93415W        W65141   4.278  12.156  13.456
93416W        W65142   2.408   2.732   3.630
93417W        W65143  20.330  37.546   3.583
93418W        W65144  13.671  11.261  10.574
93419W        W65145  33.868  32.951   0.509
93420W        W65146  14.306  28.376  10.831
93421W        W65147  12.868  32.079  12.810
93422W        W65148  11.136  27.846  13.135
93423W        W65149   0.387  13.051   1.761
93424W        W65150  34.428  24.423  12.355
93425W        W65151  44.195  31.969  12.936
93426W        W65152  38.095  13.607   2.657
93427W        W65153  13.710  29.460   1.888
93428W        W65154  30.792   3.961  13.291
93429W        W65155  36.136  19.404  12.917
93430W        W65156   0.198  35.313  14.312
93431W        W65157  18.628   4.830   4.867
93432W        W65158   3.815  39.858  13.593
93433W        W65159  29.812  44.302   1.757
93434W        W65160  16.877  19.668   3.180
93435W        W65161  33.841   8.151   4.650
93436W        W65162  35.378  36.616   1.149
93437W        W65163  22.256  36.407  12.945
93438W        W65164   8.728  26.092  14.564
93439W        W65165  41.012  30.158  14.773
93440W        W65166  26.562  16.702   3.537
93441W        W65167   0.912  36.774  11.977
93442W        W65168  14.430  37.051   5.061
93443W        W65169  22.974  15.170   0.746
93444W        W65170  27.655  41.548   3.123
93445W        W65171  17.245  22.078   2.376
93446W        W65172   0.373  10.178   2.265
93447W        W65173  18.519  13.646   1.799
93448W        W65174  22.596  13.833   3.856
93449W        W65175  28.536  26.606  12.863
93450W        W65176  35.077  10.598  11.463
93451W        W65177   9.602  36.676   0.989
93452W        W65178  25.180  19.185   4.885
93453W        W65179   3.232   4.625  11.177
93454W        W65180  40.608  16.579   3.183
93455W        W65181  24.043  15.746  13.355
93456W        W65182  25.272   4.689  11.093
93457W        W65183   3.002  34.241  12.428
93458W        W65184  40.764  26.512   3.708
93459W        W65185  25.221   1.793   1.418
93460W        W65186  32.638  39.391  13.460
93461W        W65187  19.680  20.054  12.416
93462W        W65188  32.724  26.435   1.313
93463W        W65189  39.324  13.739   3.259
93464W        W65190  13.890  31.369   3.621
93465W        W65191  32.299  22.081   3.998
93466W        W65192  37.838   0.722  12.843
93467W        W65193  33.700  16.552   0.430
93468W        W65194  17.675   4.965   4.644
93469W        W65195  22.423  17.244  11.114
93470W        W65196  44.228  24.075   1.113
93471W        W65197  30.997  15.374   1.412
93472W        W65198  37.802   2.808   2.703
93473W        W65199  37.555  11.574   1.334
93474W        W65200  33.692  29.539   3.251
93475W        W65201   3.925  34.497  13.795
93476W        W65202  11.625  13.936   2.231
93477W        W65203   2.984  32.496   4.273
93478W        W65204  21.226   3.971   4.691
93479W        W65205  20.564  16.187   4.782
93480W        W65206  42.296   8.264  14.101
93481W        W65207  18.739  42.504  11.921
93482W        W65208  36.899  43.677  11.531
93483W        W65209  28.935  10.240   9.959
93484W        W65210  30.596  29.626   0.005
93485W        W65211  33.922  30.866   1.745
93486W        W65212  13.561  23.866  10.990
93487W        W65213   6.392   7.821  13.360
93488W        W65214  18.572  17.796   4.989
93489W        W65215  17.041   5.214  14.363
93490W        W65216  24.981   8.208   4.001
93491W        W65217   5.294  16.415  10.167
93492W        W65218  28.323  34.382  12.165
93493W        W65219  26.094   4.480   3.954
93494W        W65220  33.352  43.065  12.081
93495W        W65221  33.112   2.717  12.893
93496W        W65222  15.556   5.300   3.261
93497W        W65223  34.021   3.027  13.914
93498W        W65224  27.594  10.277  11.759
93499W        W65225   7.320  23.549   4.546
93500W        W65226  28.726  25.603  13.106
93501W        W65227   1.949  14.756   1.873
93502W        W65228  14.849  16.247  13.745
93503W        W65229  19.226   2.386  12.840
93504W        W65230  10.762  24.032  11.887
93505W        W65231  29.956  40.444  14.458
93506W        W65232   0.824  33.549  13.840
93507W        W65233  38.757   4.921  13.364
93508W        W65234   7.402  37.657  13.444
93509W        W65235  43.881  32.416   3.550
93510W        W65236  29.902   2.022  11.616
93511W        W65237  44.862   6.118  10.623
93512W        W65238  14.083  32.294   0.681
93513W        W65239   0.326  29.898  14.417
93514W        W65240  29.518  34.474   1.076
93515W        W65241  28.516  39.452  11.387
93516W        W65242  43.208  10.654   3.074
93517W        W65243  37.038   5.960   1.792
93518W        W65244   3.424  42.256   0.549
93519W        W65245  19.308  41.807   0.306
93520W        W65246  15.909  30.072   3.605
93521W        W65247  44.755  28.573   2.677
93522W        W65248  25.477  11.417  13.215
93523W        W65249   0.264  44.858  14.761
93524W        W65250  21.998  13.608   2.689
93525W        W65251   6.134   6.651   4.265
93526W        W65252  21.396  22.179  12.106
93527W        W65253  42.048  28.075   3.906
93528W        W65254  28.916   9.354  14.468
93529W        W65255  20.886  17.852   1.113
93530W        W65256  40.325  21.477   0.900
93531W        W65257  14.226  18.574  13.061
93532W        W65258   0.278  19.981  13.858
93533W        W65259  42.382  10.340   2.366
93534W        W65260  16.604  11.750  12.120
93535W        W65261  40.599   4.853  13.361
93536W        W65262  10.673  27.877   2.757
93537W        W65263  12.958  16.530   2.234
93538W        W65264  18.671  20.773   1.487
93539W        W65265  15.722  15.802  13.519
93540W        W65266   5.881   7.860  12.729
93541W        W65267   0.545  33.462   4.549
93542W        W65268  16.982  19.514  14.848
93543W        W65269  14.111  36.665   4.208
93544W        W65270   6.403  29.179   0.492
93545W        W65271   3.667   4.614   3.662
93546W        W65272  38.424  32.492  12.457
93547W        W65273  12.805  40.781   4.206
93548W        W65274  38.520  21.714   1.802
93549W        W65275  38.098  27.590   2.453
93550W        W65276   9.234  23.597  11.131
93551W        W65277  43.955  11.900   2.145
93552W        W65278  12.628   9.783   4.633
93553W        W65279  34.374  36.414   0.690
93554W        W65280   0.924  14.615   3.694
93555W        W65281  14.884   8.795  13.926
93556W        W65282  18.665  15.317  12.022
93557W        W65283  11.392   1.435  12.901
93558W        W65284  36.509  24.640   3.662
93559W        W65285  32.552  23.329   9.763
93560W        W65286  32.175  35.147  14.083
93561W        W65287   4.875  31.835   0.690
93562W        W65288   4.703  10.794   0.270
93563W        W65289  23.251  22.123   0.663
93564W        W65290  21.148  33.104  10.617
93565W        W65291   1.975  22.860  14.579
93566W        W65292   6.790  30.675  11.252
93567W        W65293  37.478  11.554   3.717
93568W        W65294  37.166  38.030  12.627
93569W        W65295   8.666   4.389   4.608
93570W        W65296  24.688   6.504   4.195
93571W        W65297  38.728  31.171   3.259
93572W        W65298  20.739  38.932   4.539
93573W        W65299  32.142   2.608  12.740
93574W        W65300  36.150  32.218   2.444
93575W        W65301   9.274  40.238   3.728
93576W        W65302   6.790  15.916  10.237
93577W        W65303  31.622  17.104  13.082
93578W        W65304  26.663  23.572  11.406
93579W        W65305  18.062  20.800  12.703
93580W        W65306  43.010   4.503   0.053
93581W        W65307   5.246  15.559   1.922
93582W        W65308  25.045  34.678   2.121
93583W        W65309  25.267  41.836   4.239
93584W        W65310   9.227   2.613   3.237
93585W        W65311  24.472  36.888  13.470
93586W        W65312   0.782  18.570  12.649
93587W        W65313  24.375  40.234   2.758
93588W        W65314  38.952  37.622   4.467
93589W        W65315  17.936  25.235  14.389
93590W        W65316  40.431  14.124   2.374
93591W        W65317  28.934  41.028  12.083
93592W        W65318  32.030  42.896  11.459
93593W        W65319  36.422  30.426  13.379
93594W        W65320  41.555  41.797   3.887
93595W        W65321   6.872  36.535   0.101
93596W        W65322  12.209  23.371  11.150
93597W        W65323   4.350  28.900   4.534
93598W        W65324   1.403  21.703  10.728
93599W        W65325  10.353  37.560   4.094
93600W        W65326  32.454  39.877  13.410
93601W        W65327  21.750  17.516  14.890
93602W        W65328   3.750  34.522  11.466
93603W        W65329  14.661  30.696  10.535
93604W        W65330   6.139  43.748  12.618
93605W        W65331   9.786   6.364   0.212
93606W        W65332   1.848   9.619   1.485
93607W        W65333  16.703  18.826  12.987
93608W        W65334  40.796  40.408   0.511
93609W        W65335  22.217  37.882  14.554
93610W        W65336  18.599   7.186   4.281
93611W        W65337  33.229  39.957  12.950
93612W        W65338  26.600  30.959  12.605
93613W        W65339  36.542   7.962   4.545
93614W        W65340  29.650  24.957   0.281
93615W        W65341  23.000  44.549  12.758
93616W        W65342  34.393  34.455   3.941
93617W        W65343  14.065  27.030  12.962
93618W        W65344  13.287   6.436  11.983
93619W        W65345   8.553   5.233  11.573
93620W        W65346  41.920   5.243  11.177
93621W        W65347   7.804  36.320   3.743
93622W        W65348  14.283  10.106   1.396
93623W        W65349  19.633  37.928  10.933
93624W        W65350  16.084  35.954  11.223
93625W        W65351   4.738  14.512  13.972
93626W        W65352   3.157   8.177   3.945
93627W        W65353  23.507   9.260  12.573
93628W        W65354   8.832  26.164  12.842
93629W        W65355   8.348   1.758   0.937
93630W        W65356  36.832   6.755  11.738
93631W        W65357  19.310  37.350  10.213
93632W        W65358  38.873   4.654   4.600
93633W        W65359  24.275  15.030  14.344
93634W        W65360  17.610  38.053  14.652
93635W        W65361  32.601  17.114   3.313
93636W        W65362  26.160   2.546  12.941
93637W        W65363   1.925   7.832   1.771
93638W        W65364  19.688  39.986   3.138
93639W        W65365  23.045  20.307  13.848
93640W        W65366   9.328  13.745  14.987
93641W        W65367  37.361  21.227  12.728
93642W        W65368  33.569   4.595   2.865
93643W        W65369  26.453   7.407  14.947
93644W        W65370   6.976   7.334  14.873
93645W        W65371  35.848  24.599  13.500
93646W        W65372  19.936  33.418  12.508
93647W        W65373  28.050  39.045   4.713
93648W        W65374  10.686   3.940   0.244
93649W        W65375  22.424  43.044  12.119
93650W        W65376  17.861  36.978   4.866
93651W        W65377  28.483   0.409  10.441
93652W        W65378  33.558   8.896  12.518
93653W        W65379  10.287  21.637   1.297
93654W        W65380   4.299  34.735   2.610
93655W        W65381  28.171  19.171   0.681
93656W        W65382  13.180  43.835  12.408
93657W        W65383   3.507   9.615  13.892
93658W        W65384  32.129   3.241   3.715
93659W        W65385  15.258  11.786   0.384
93660W        W65386  25.096  10.613  13.598
93661W        W65387  38.111  18.244  13.478
93662W        W65388  11.421  28.034   0.415
93663W        W65389   6.906  40.038   4.377
93664W        W65390  38.947  30.481   4.377
93665W        W65391   4.373   9.440   4.720
93666W        W65392  38.320  15.886  11.044
93667W        W65393   9.811  18.080   0.399
93668W        W65394  43.041  14.910  14.887
93669W        W65395  36.448  11.295  11.622
93670W        W65396   7.444  44.896   4.532
93671W        W65397  34.374   2.194  12.436
93672W        W65398  23.015  25.243  12.469
93673W        W65399  32.644  32.498   2.351
93674W        W65400  32.150  43.278   0.215
93675W        W65401  33.088  43.169  13.973
93676W        W65402   3.699   4.334   4.916
93677W        W65403  10.294  26.209  13.036
93678W        W65404   9.497  44.795   0.962
93679W        W65405  12.132  41.392   0.584
93680W        W65406  25.211  31.155  13.553
93681W        W65407  11.829   5.965   0.894
93682W        W65408  38.940  35.282   4.032
93683W        W65409  42.792  33.610   3.743
93684W        W65410   1.697  43.394   3.711
93685W        W65411   9.643  39.055  11.609
93686W        W65412  38.507  34.537  11.056
93687W        W65413  13.198  13.854   4.944
93688W        W65414  32.516  20.669   1.723
93689W        W65415  35.090  18.661   1.134
93690W        W65416  12.130  14.273  13.804
93691W        W65417  29.045   1.779  14.441
93692W        W65418  33.453  18.242  13.609
93693W        W65419   9.683  20.227  14.942
93694W        W65420   8.388  10.890  12.132
93695W        W65421  15.227   2.127  10.902
93696W        W65422  40.030   6.077   1.361
93697W        W65423  29.268   8.332   1.522
93698W        W65424   6.757   3.258   2.336
93699W        W65425   1.593  20.349  10.647
93700W        W65426  38.003  11.934   0.339
93701W        W65427  35.491  29.836   3.355
93702W        W65428  43.813   6.925  13.960
93703W        W65429  31.149  20.556  13.485
93704W        W65430  17.989  31.217  10.993
93705W        W65431  24.113  35.982  11.102
93706W        W65432   3.006  33.626   3.560
93707W        W65433  25.238  26.563   0.817
93708W        W65434  42.100   1.304   1.749
93709W        W65435  39.954  43.363   1.489
93710W        W65436  23.605  26.550   2.838
93711W        W65437  17.346  40.836  10.170
93712W        W65438  32.118  38.619   4.397
93713W        W65439   0.598   9.244   3.284
93714W        W65440  12.192  39.247  10.375
93715W        W65441  18.684  41.427  14.573
93716W        W65442  21.374  36.189   2.198
93717W        W65443  10.180  41.090  12.399
93718W        W65444  14.100  13.797  10.788
93719W        W65445   8.341  14.828  12.847
93720W        W65446   7.634   1.515  12.048
93721W        W65447  32.736   9.543  12.507
93722W        W65448   1.405   5.978   1.673
93723W        W65449  38.071  21.257   3.262
93724W        W65450   3.174  36.038  13.787
93725W        W65451  16.078   0.510   3.690
93726W        W65452   4.609  28.582  14.189
93727W        W65453  42.958  12.795   3.827
93728W        W65454  36.308  11.850   1.373
93729W        W65455   1.999  21.141   1.410
93730W        W65456   5.136   8.614   5.185
93731W        W65457  22.078  26.596   3.847
93732W        W65458  14.104  31.459   0.989
93733W        W65459  12.601   3.462   0.409
93734W        W65460  26.860  40.774  11.962
93735W        W65461  28.682   1.476   2.335
93736W        W65462  32.550  36.794   3.417
93737W        W65463   9.124   1.134  13.409
93738W        W65464  13.717  35.598  14.250
93739W        W65465  18.162   5.427  13.027
93740W        W65466   9.825   0.522  13.933
93741W        W65467  38.611  11.143  14.002
93742W        W65468  31.577  35.888   2.835
93743W        W65469  17.953  14.389  14.557
93744W        W65470  13.543   4.190   0.705
93745W        W65471  20.992  22.494   2.263
93746W        W65472  34.102  19.069   0.173
93747W        W65473  14.575  19.233   3.259
93748W        W65474  40.750  42.070  14.774
93749W        W65475  25.610  36.633  13.099
93750W        W65476  10.838   9.120  13.909
93751W        W65477  34.743  27.273   1.445
93752W        W65478  18.052   5.781  11.596
93753W        W65479  13.268  24.685   4.876
93754W        W65480  30.687   6.421   0.493
93755W        W65481  23.123  15.023   2.298
93756W        W65482  35.731  22.281  14.967
93757W        W65483  23.819  33.535  10.418
93758W        W65484  36.465  19.665  13.887
93759W        W65485   3.894  43.772  12.428
93760W        W65486   0.725   5.330   0.293
93761W        W65487  14.179   5.358  10.625
93762W        W65488   2.480  41.093  11.683
93763W        W65489  43.269  37.223   2.891
93764W        W65490  13.715  44.717   2.234
93765W        W65491  28.768  15.026   1.801
93766W        W65492  13.119  29.247   4.945
93767W        W65493  12.152  14.259   0.623
93768W        W65494   7.751  10.746   4.310
93769W        W65495  16.088  16.339  14.208
93770W        W65496  11.825   6.431   2.277
93771W        W65497   3.960  24.915   1.487
93772W        W65498  27.762  30.036  12.937
93773W        W65499   2.902  41.143   3.835
93774W        W65500  31.099  27.173  12.803
93775W        W65501  34.149   7.450  13.448
93776W        W65502  22.923  13.183   2.791
93777W        W65503  20.714  21.316   1.355
93778W        W65504   2.431   1.532  13.570
93779W        W65505   7.704  21.057  14.462
93780W        W65506   8.112  16.773  12.042
93781W        W65507  19.421  28.780   2.788
93782W        W65508  34.165  14.550   0.711
93783W        W65509  43.502  44.508   0.325
93784W        W65510  19.728  14.317   4.820
93785W        W65511   2.946  26.428   3.721
93786W        W65512  13.661   1.874   1.775
93787W        W65513  28.732   7.985   3.669
93788W        W65514  33.098  16.657  12.142
93789W        W65515  34.513  41.732   4.926
93790W        W65516  31.941  37.012   2.658
93791W        W65517   1.866  42.958   1.629
93792W        W65518  42.965   1.051   2.504
93793W        W65519   0.789   2.328   2.795
93794W        W65520  14.864  42.089  13.362
93795W        W65521  17.454  21.672   3.085
93796W        W65522  19.263  38.347   3.770
93797W        W65523  19.293   8.291   3.925
93798W        W65524   2.451  15.501  11.566
93799W        W65525  28.536  43.359   3.721
93800W        W65526  38.046   2.899   3.673
93801W        W65527  13.736   4.760   1.296
93802W        W65528  25.026  19.540   2.722
93803W        W65529  25.479  41.466   2.659
93804W        W65530  43.211  14.859  14.406
93805W        W65531  44.282  21.327  14.449
93806W        W65532  30.344  19.237   3.226
93807W        W65533  22.568  28.109  13.761
93808W        W65534  31.885  23.475  11.950
93809W        W65535   1.402   3.750   1.025
93810W        W65536  24.509  44.208   0.804
93811W        W65537  19.309  21.049  10.726
93812W        W65538  42.601  22.057   4.048
93813W        W65539   0.189  18.742   2.743
93814W        W65540  19.219  22.524  13.534
93815W        W65541  20.490  18.102   4.078
93816W        W65542   5.310   8.891   0.466
93817W        W65543  21.509   3.184   3.213
93818W        W65544   3.225  29.545  11.724
93819W        W65545  22.575   7.361  11.909
93820W        W65546   1.786  11.341   0.923
93821W        W65547  40.354   5.438  14.045
93822W        W65548   7.626  16.583  12.066
93823W        W65549  36.206  30.818  13.716
93824W        W65550  10.937  12.715  14.076
93825W        W65551  23.643  21.294  11.608
93826W        W65552  26.329  21.272   0.297
93827W        W65553   7.546  26.732  11.171
93828W        W65554  33.655   2.009   0.207
93829W        W65555  16.260   4.274   3.670
93830W        W65556  36.881  26.913  12.686
93831W        W65557  14.070  23.289  13.503
93832W        W65558  31.651  41.003  12.973
93833W        W65559  17.610  16.283  10.612
93834W        W65560   3.623   9.675  12.980
93835W        W65561   2.497  23.974  11.119
93836W        W65562   4.140  11.907   3.007
93837W        W65563   2.195  21.190  11.512
93838W        W65564  30.973  18.002  13.802
93839W        W65565   8.089  38.086   1.710
93840W        W65566  16.177  20.835  11.763
93841W        W65567   5.298  43.608  11.509
93842W        W65568   9.274  23.460   3.975
93843W        W65569  18.509  22.484  14.582
93844W        W65570   1.451  39.023  11.553
93845W        W65571  41.220  17.168   1.883
93846W        W65572   7.476  26.389  10.419
93847W        W65573  10.803  19.751  14.305
93848W        W65574  12.598  41.583   3.626
93849W        W65575  15.016  26.565   2.432
93850W        W65576  31.955  11.380   2.708
93851W        W65577  39.066  31.179   4.679
93852W        W65578  35.188   0.779   3.566
93853W        W65579  28.806  14.485   5.050
93854W        W65580  31.858  17.673  13.118
93855W        W65581   5.384  44.389  12.964
93856W        W65582  26.590  42.343   0.505
93857W        W65583  36.752   7.171  12.275
93858W        W65584  43.387  34.552  12.021
93859W        W65585  26.532  10.823  14.809
93860W        W65586   1.124  25.555  14.561
93861W        W65587  35.730  41.773  14.009
93862W        W65588   8.022  40.601  13.168
93863W        W65589  15.129  35.197   3.143
93864W        W65590  17.718  10.684   0.074
93865W        W65591  29.967  19.631   4.476
93866W        W65592  12.360  33.522   4.381
93867W        W65593  26.127  44.379  10.383
93868W        W65594  32.856  15.345  12.119
93869W        W65595   1.446  41.855  12.970
93870W        W65596  16.154  36.923   5.540
93871W        W65597  25.305   1.434   1.843
93872W        W65598  12.892  26.664   1.144
93873W        W65599   2.652  42.057   3.842
93874W        W65600  40.844   7.323  11.315
93875W        W65601  36.598  21.405  10.710
93876W        W65602  29.402  11.340  14.987
93877W        W65603  26.871  32.484   1.171
93878W        W65604   1.446  14.146  13.413
93879W        W65605  44.982  38.422   4.703
93880W        W65606  15.678  21.687  12.421
93881W        W65607   6.456   1.023   3.346
93882W        W65608  41.131  43.348   3.194
93883W        W65609   1.391  14.610  11.679
93884W        W65610  17.795  18.455   3.316
93885W        W65611  42.524  25.242   4.433
93886W        W65612  38.912   1.647   4.097
93887W        W65613  34.455  14.141   1.447
93888W        W65614  10.175  36.227   4.514
93889W        W65615  34.889   0.037   2.309
93890W        W65616  29.214  44.763  11.229
93891W        W65617  25.927  43.388   1.367
93892W        W65618   7.512  11.155   0.967
93893W        W65619   5.069  19.725   3.663
93894W        W65620  28.155  33.918   2.894
93895W        W65621  24.031   7.917  11.594
93896W        W65622  24.556  16.643   1.241
93897W        W65623  10.205  10.238   0.870
93898W        W65624  15.667  16.084   0.427
93899W        W65625  27.988   5.445  13.387
93900W        W65626  43.393   4.843  10.031
93901W        W65627  36.892  28.513  11.749
93902W        W65628  37.162  20.511  13.015
93903W        W65629  26.888   2.355   0.916
93904W        W65630  40.156  27.546   0.677
93905W        W65631  14.390  33.876  14.961
93906W        W65632  25.767  43.942   0.316
93907W        W65633  25.965  42.317   4.072
93908W        W65634  26.159  40.041   1.892
93909W        W65635  39.537  11.181  11.181
93910W        W65636  31.532   8.283  10.847
93911W        W65637  28.242  29.126  14.350
93912W        W65638  11.682  35.972   0.217
93913W        W65639  14.110  20.278   3.757
93914W        W65640  26.943  20.441   0.858
93915W        W65641  34.512  42.408   4.672
93916W        W65642   8.022  38.480   4.165
93917W        W65643  31.099  15.654   0.911
93918W        W65644   7.881  35.569   3.156
93919W        W65645  23.606  14.853  11.480
93920W        W65646  25.524   7.710  12.062
93921W        W65647  17.579   2.589   2.723
93922W        W65648   0.782  28.579   2.711
93923W        W65649  12.250  11.129  13.629
93924W        W65650  31.451  32.529   2.988
93925W        W65651  31.499  27.151  13.579
93926W        W65652  22.918  19.590   3.267
93927W        W65653  20.579   0.849   3.783
93928W        W65654  19.052  11.083  12.864
93929W        W65655  26.961  11.814   1.335
93930W        W65656  35.404  39.328  12.802
93931W        W65657  35.568  17.732   4.672
93932W        W65658  18.390  17.966   2.298
93933W        W65659  26.445  36.645  14.360
93934W        W65660  22.585  20.061   2.255
93935W        W65661  27.509  13.437  11.644
93936W        W65662  32.506  15.357  12.847
93937W        W65663   3.803  28.083  12.449
93938W        W65664   4.506  10.188   2.567
93939W        W65665  24.332  30.835   2.733
93940W        W65666  39.794  40.437  11.205
93941W        W65667  23.674  43.827  12.587
93942W        W65668  40.969  35.480   4.519
93943W        W65669   9.038   6.052  11.153
93944W        W65670   6.916  37.349   2.193
93945W        W65671  15.038  15.001  11.572
93946W        W65672  24.216  15.656   1.921
93947W        W65673  17.732   4.424  10.324
93948W        W65674   7.097  18.092  13.437
93949W        W65675   0.031  33.429   2.342
93950W        W65676  43.681  18.042  13.457
93951W        W65677  27.359  41.898  13.037
93952W        W65678  43.305  35.162   0.516
93953W        W65679  35.496  41.767   2.179
93954W        W65680  42.763  40.013   3.242
93955W        W65681  42.570  14.222   0.013
93956W        W65682   7.903  29.553  10.595
93957W        W65683  36.552  39.437   0.706
93958W        W65684   0.320   0.985  10.724
93959W        W65685   6.980  15.872  12.866
93960W        W65686   4.671  12.840   2.164
93961W        W65687  18.229   1.826  10.683
93962W        W65688  31.532  22.671   4.388
93963W        W65689  29.629  33.200  11.143
93964W        W65690   0.294   9.989   0.290
93965W        W65691  32.545  34.794  14.076
93966W        W65692   2.251  16.296  13.846
93967W        W65693  16.655   9.810   4.716
93968W        W65694   2.220  29.078   3.363
93969W        W65695  44.416  36.484  14.215
93970W        W65696  22.997  40.020   3.700
93971W        W65697  40.403  22.990   1.290
93972W        W65698  25.065  18.025   3.744
93973W        W65699  17.053  22.636   4.620
93974W        W65700   3.967   1.479  12.489
93975W        W65701  23.971  15.080   3.190
93976W        W65702   3.156  37.911  14.920
93977W        W65703  27.300  14.909  10.720
93978W        W65704  34.899  38.924  10.733
93979W        W65705  28.665  28.587   0.960
93980W        W65706  35.128  21.700   1.385
93981W        W65707  41.535  24.275   2.848
93982W        W65708  11.934   6.866   1.001
93983W        W65709  39.967  42.805  11.561
93984W        W65710  32.915  21.176  13.298
93985W        W65711  10.684  19.145   2.453
93986W        W65712  25.768  20.158  13.596
93987W        W65713  31.193  43.762   3.243
93988W        W65714  26.609   0.401  14.251
93989W        W65715  39.112  40.975   0.220
93990W        W65716   0.804  44.697  12.608
93991W        W65717  14.137  29.958   0.784
93992W        W65718  13.298   2.407   0.036
93993W        W65719   9.255  26.779   4.872
93994W        W65720  23.226  42.387  14.948
93995W        W65721  12.515   0.262   2.606
93996W        W65722  25.677  35.599  11.466
93997W        W65723   3.244   5.367   2.624
93998W        W65724   8.146  37.725   1.314
93999W        W65725  25.964   0.496   2.629
94000W        W65726  28.334  29.031   2.930
94001W        W65727  39.655  19.486  14.856
94002W        W65728  28.962  25.558   2.823
94003W        W65729  40.381  16.208  11.769
94004W        W65730  15.780  34.040  13.025
94005W        W65731  11.744  36.876  10.664
94006W        W65732  17.786  33.812   2.218
94007W        W65733  10.013  21.183   4.633
94008W        W65734   1.072  22.473  10.315
94009W        W65735   8.300  39.397   3.115
94010W        W65736  20.553   7.277  14.951
94011W        W65737   4.616  10.245  11.488
94012W        W65738  31.986  31.897  10.024
94013W        W65739  20.703   2.421   2.241
94014W        W65740  31.633  19.283  13.830
94015W        W65741  32.955  25.124  14.770
94016W        W65742   2.488  37.414   5.060
94017W        W65743  44.571  20.136  12.002
94018W        W65744  20.924   9.722   1.424
94019W        W65745   1.945  31.848  11.545
94020W        W65746  43.364  35.009  11.581
94021W        W65747  12.146  22.705  12.961
94022W        W65748  34.347  13.318  13.089
94023W        W65749  26.274   3.758  11.086
94024W        W65750  35.964   1.477  12.383
94025W        W65751   0.178   7.967  14.458
94026W        W65752   5.708  17.381   3.633
94027W        W65753   0.452  24.462   1.243
94028W        W65754  14.859  13.068   0.521
94029W        W65755   7.916  21.072  14.928
94030W        W65756  34.949  19.958   4.103
94031W        W65757  34.904  24.043   1.811
94032W        W65758  14.050  34.541   0.804
94033W        W65759  19.043  40.439   0.635
94034W        W65760   4.866  29.945   0.741
94035W        W65761  43.846  16.522  12.966
94036W        W65762  17.184  33.874  11.941
94037W        W65763  22.635   5.288  13.015
94038W        W65764  38.604  21.083   2.413
94039W        W65765  27.516   9.278   2.740
94040W        W65766  25.086  34.480   0.838
94041W        W65767  18.973   8.416  11.107
94042W        W65768  35.663  34.910  14.010
94043W        W65769   4.772  11.258  12.411
94044W        W65770  36.959   6.064  13.947
94045W        W65771  19.544  32.905   4.585
94046W        W65772  10.536  21.283  11.708
94047W        W65773  42.975  30.521   1.952
94048W        W65774  43.042  19.454   1.336
94049W        W65775  40.938  11.610   0.332
94050W        W65776  30.635   3.664   0.902
94051W        W65777  26.739  43.806  13.042
94052W        W65778  25.728  17.885  14.284
94053W        W65779  24.518  43.184   4.119
94054W        W65780   5.055  12.881   1.690
94055W        W65781  42.350   1.330   4.443
94056W        W65782   3.245  35.901  12.430
94057W        W65783  29.943  35.591   4.718
94058W        W65784  22.117  31.945  12.405
94059W        W65785  41.056   7.450   0.857
94060W        W65786   9.824  20.885   1.957
94061W        W65787  24.283  18.056   0.013
94062W        W65788  18.978  18.171  10.366
94063W        W65789  20.065  17.280  11.613
94064W        W65790  14.998  22.472   2.786
94065W        W65791  24.777   4.032   4.706
94066W        W65792   5.373   6.408  14.955
94067W        W65793  39.560  44.433  13.879
94068W        W65794  20.141  33.869   2.784
94069W        W65795  40.899  22.509   3.205
94070W        W65796   1.792  22.240  12.506
94071W        W65797  24.626  22.633   2.920
94072W        W65798  41.977   1.507   4.109
94073W        W65799   6.357  44.269   3.297
94074W        W65800  12.276  41.406  14.053
94075W        W65801  22.440   5.397   2.627
94076W        W65802   7.952  27.941   1.355
94077W        W65803   9.754   1.022   3.619
94078W        W65804  38.452  38.754  13.079
94079W        W65805  39.363   2.099   2.415
94080W        W65806  40.670  20.129   1.218
94081W        W65807  14.073  30.215  11.078
94082W        W65808  35.154  20.102  11.025
94083W        W65809  13.732   6.357  13.298
94084W        W65810  32.056  33.495   3.239
94085W        W65811  12.145   0.387   4.320
94086W        W65812  26.110  40.161   3.301
94087W        W65813  31.024  35.821  14.363
94088W        W65814  17.814  31.107  13.254
94089W        W65815  42.027  22.692   1.768
94090W        W65816  36.850  22.490  13.088
94091W        W65817   8.107   0.295   2.709
94092W        W65818   6.691  20.130  13.929
94093W        W65819   7.347  26.147   1.471
94094W        W65820  25.681  44.435  13.376
94095W        W65821  25.741  41.756   4.906
94096W        W65822  29.874  42.980   3.695
94097W        W65823  11.779  12.846  12.178
94098W        W65824  17.642   1.508  13.796
94099W        W65825  28.573  27.613   2.426
94100W        W65826   9.327  43.451  12.069
94101W        W65827  36.651  18.832  11.631
94102W        W65828  42.821  36.144  14.744
94103W        W65829  25.275  13.336   0.652
94104W        W65830  23.529  21.543   3.380
94105W        W65831  27.824  11.915  10.686
94106W        W65832   5.449  27.543  14.291
94107W        W65833  22.734  21.620  12.007
94108W        W65834  30.451  19.459  13.076
94109W        W65835   4.912  42.737  13.038
94110W        W65836   4.366  17.652  13.696
94111W        W65837  44.517  36.335   0.751
94112W        W65838  38.496   1.814   4.369
94113W        W65839  15.114  18.308   3.679
94114W        W65840  13.205  24.359   2.348
94115W        W65841   5.975  31.862  13.466
94116W        W65842  19.698  10.945   0.739
94117W        W65843  24.462  36.599  14.178
94118W        W65844  31.196   7.354   4.384
94119W        W65845   2.978  17.768   3.637
94120W        W65846   5.339   3.766  13.911
94121W        W65847   6.655   7.779   1.472
94122W        W65848  37.970  14.426  11.933
94123W        W65849  40.984  31.011  14.885
94124W        W65850  31.525   2.560   3.870
94125W        W65851  18.059  21.792   4.546
94126W        W65852  18.316  25.563   4.423
94127W        W65853   7.131  13.603   5.158
94128W        W65854   5.983   4.869   4.734
94129W        W65855  15.518  12.913  13.485
94130W        W65856   0.973  19.929  14.405
94131W        W65857  34.569  43.214   2.428
94132W        W65858  34.140  29.937   1.857
94133W        W65859  32.303  22.294   1.206
94134W        W65860  44.773  40.084   4.288
94135W        W65861  11.733   4.419  10.124
94136W        W65862  21.823  35.312  10.295
94137W        W65863  27.153  35.113  12.481
94138W        W65864  41.527  13.793  12.155
94139W        W65865  40.536   4.716   2.937
94140W        W65866  37.428  27.112  14.073
94141W        W65867  22.924  20.627  10.908
94142W        W65868  39.439  40.307   3.415
94143W        W65869  32.218  40.456   4.634
94144W        W65870  44.440  12.166   2.216
94145W        W65871  33.559  18.110   3.689
94146W        W65872  13.546  17.626   2.093
94147W        W65873  34.997  19.738   4.577
94148W        W65874  15.177  40.866  11.535
94149W        W65875  31.597  37.482  14.058
94150W        W65876  11.154   6.660   2.868
94151W        W65877  43.388   1.479   4.338
94152W        W65878  39.979   3.678  14.972
94153W        W65879  24.483  20.185   4.883
94154W        W65880  38.906  14.114   4.279
94155W        W65881  10.096  40.284   1.193
94156W        W65882   3.310  37.846   4.191
94157W        W65883  23.610  25.197  11.027
94158W        W65884  14.434  30.090   3.841
94159W        W65885  35.949  25.027   1.822
94160W        W65886   3.401  21.774   3.575
94161W        W65887  27.703  40.370  12.044
94162W        W65888  36.333  39.936   4.684
94163W        W65889  42.399  15.069  11.972
94164W        W65890  20.206  40.035  13.968
94165W        W65891  41.079   5.833   2.157
94166W        W65892  26.049   1.497   0.288
94167W        W65893  21.932  10.722  13.884
94168W        W65894  28.422  17.397  11.545
94169W        W65895   6.721  40.441   3.185
94170W        W65896  30.042  32.952   0.736
94171W        W65897   2.910   5.436  13.819
94172W        W65898   1.812  16.544   0.355
94173W        W65899   5.793  18.409  13.031
94174W        W65900  12.737  22.159   2.670
94175W        W65901   5.732  32.696   1.385
94176W        W65902   2.759  13.146  14.324
94177W        W65903  24.121  43.985  13.917
94178W        W65904  15.626  40.585  10.222
94179W        W65905   1.412  25.553   2.725
94180W        W65906   9.723   2.820   4.486
94181W        W65907   0.547  26.938   1.172
94182W        W65908  19.212  29.868  13.975
94183W        W65909  13.331  38.233  14.385
94184W        W65910  11.303  13.814   1.854
94185W        W65911   7.274  21.551  14.021
94186W        W65912  38.529  15.530   2.732
94187W        W65913   4.381   1.000  13.930
94188W        W65914  12.266  35.844  11.383
94189W        W65915   5.016   2.220   3.590
94190W        W65916  24.161   4.708  11.125
94191W        W65917  39.307  16.669  14.383
94192W        W65918  14.156  15.089  13.944
94193W        W65919  22.387  38.526  14.331
94194W        W65920  34.807   5.270  12.107
94195W        W65921  31.217  43.277   2.914
94196W        W65922  27.199  32.121  13.535
94197W        W65923   4.884   3.813  13.059
94198W        W65924  38.555   2.715  14.517
94199W        W65925  28.101   6.306   0.387
94200W        W65926  14.828  28.215   1.251
94201W        W65927  38.354  25.524   3.290
94202W        W65928  11.836   8.971  11.937
94203W        W65929   8.318  38.568   0.241
94204W        W65930  12.719   2.498   3.094
94205W        W65931  32.215   4.923  11.619
94206W        W65932   2.798  11.407  12.538
94207W        W65933  39.775  23.691  10.410
94208W        W65934   9.866  41.478   3.601
94209W        W65935  39.448  26.527   3.112
94210W        W65936  23.435  33.391  10.756
94211W        W65937  32.950   8.942  11.584
94212W        W65938   8.453   6.274  14.168
94213W        W65939   3.921  25.629   3.831
94214W        W65940  14.192   3.733  11.156
94215W        W65941  11.697  32.265  10.895
94216W        W65942  43.368  26.469  13.772
94217W        W65943  19.621  10.237   2.151
94218W        W65944  28.115  35.222   4.096
94219W        W65945   9.219  19.262   4.630
94220W        W65946  19.573   5.261   0.536
94221W        W65947  41.641  22.608   3.698
94222W        W65948  17.830   9.542   1.881
94223W        W65949   0.760  43.465   4.462
94224W        W65950  23.327  39.961   2.259
94225W        W65951  31.163   8.881  13.888
94226W        W65952  44.845   2.817   1.301
94227W        W65953  23.068   7.413  12.765
94228W        W65954  24.104  18.239   2.220
94229W        W65955   4.129  26.114   2.526
94230W        W65956  24.149   8.245   0.108
94231W        W65957  44.361  24.170  12.136
94232W        W65958  41.903  41.937  13.417
94233W        W65959  17.655  36.620  13.505
94234W        W65960  14.639  30.087   0.928
94235W        W65961  37.842   6.320  13.817
94236W        W65962  39.020  30.351  13.929
94237W        W65963   6.609  43.077  11.110
94238W        W65964   0.351  14.394   2.439
94239W        W65965  20.658   9.738  12.686
94240W        W65966   0.507  29.153   0.336
94241W        W65967   7.194  19.687   2.055
94242W        W65968  30.770  21.564   0.873
94243W        W65969  34.415  10.768   3.285
94244W        W65970  13.658  11.196   3.332
94245W        W65971  23.485  14.957  14.006
94246W        W65972  18.216  18.855  14.823
94247W        W65973  29.584  26.605   4.609
94248W        W65974  25.000  35.368  13.023
94249W        W65975  26.934  30.763  11.178
94250W        W65976   5.484   3.283  13.916
94251W        W65977  44.016  35.345  10.425
94252W        W65978  15.217   1.374  11.622
94253W        W65979  26.992  29.945   3.187
94254W        W65980  41.883  23.712   3.243
94255W        W65981   4.848  15.225   3.164
94256W        W65982  29.927  21.731   4.651
94257W        W65983  11.409   4.400   3.719
94258W        W65984  34.400   3.308   1.903
94259W        W65985   7.174  30.692  12.123
94260W        W65986   1.535  11.205   1.354
94261W        W65987  40.433  41.042   2.437
94262W        W65988  27.405  36.685   1.147
94263W        W65989  42.981  28.203  13.579
94264W        W65990  43.672  12.902   4.539
94265W        W65991  34.846  42.977  11.054
94266W        W65992  25.597  24.491  12.507
94267W        W65993   9.185  34.260  13.384
94268W        W65994  27.196  11.793  11.711
94269W        W65995  26.222  26.434  12.693
94270W        W65996  20.095  22.533   0.387
94271W        W65997  22.068  43.089  13.516
94272W        W65998  20.057  37.641  12.910
94273W        W65999  16.538   3.042  12.717
94274W        W66000  32.343   1.555   3.721
94275W        W66001  24.077  20.501  13.506
94276W        W66002  22.610  24.496  11.174
94277W        W66003   4.894  31.012  14.700
94278W        W66004  39.405  31.976  12.530
94279W        W66005  32.041  34.912   1.408
94280W        W66006  13.367  13.573  13.788
94281W        W66007  37.430  14.371  14.638
94282W        W66008  44.891  34.597  11.186
94283W        W66009  31.150  42.050  12.128
94284W        W66010   6.206  21.029   0.579
94285W        W66011  15.121  17.363  13.020
94286W        W66012  31.072  10.105   4.749
94287W        W66013  38.873  18.801  11.989
94288W        W66014  37.060  32.605   0.458
94289W        W66015  30.208  37.547  14.331
94290W        W66016  37.505  12.797   4.168
94291W        W66017  36.866  39.925  13.528
94292W        W66018  32.063  30.951   1.205
94293W        W66019  41.059  20.311   2.195
94294W        W66020  17.535  13.411   0.390
94295W        W66021  27.760  17.137  10.343
94296W        W66022  34.771  39.119   0.259
94297W        W66023  38.824   6.625   1.345
94298W        W66024   4.342  34.531  10.758
94299W        W66025  17.251  36.411   4.188
94300W        W66026  34.185   0.968  14.543
94301W        W66027  35.987  10.211  14.029
94302W        W66028  35.980   0.292   0.848
94303W        W66029  38.422  32.329  11.363
94304W        W66030  44.051  21.771  11.238
94305W        W66031   1.696  31.638   1.858
94306W        W66032  24.964  42.058  11.881
94307W        W66033  18.507  10.350  14.385
94308W        W66034  38.074  12.537  13.781
94309W        W66035  26.094  31.118  14.561
94310W        W66036  39.624  33.855   2.705
94311W        W66037   9.621  28.060  13.438
94312W        W66038   6.953  30.516  11.709
94313W        W66039  29.490  29.130  13.880
94314W        W66040  25.082  23.621   1.396
94315W        W66041  37.855   0.228  11.087
94316W        W66042  20.233   7.769   0.754
94317W        W66043   8.428  17.565  11.878
94318W        W66044  12.261   1.020  13.903
94319W        W66045  32.508  18.921  14.469
94320W        W66046  40.814  36.000   2.413
94321W        W66047   3.501  30.984  14.943
94322W        W66048  32.243  35.354  13.266
94323W        W66049  39.988  38.564  11.787
94324W        W66050   0.033  22.232  12.322
94325W        W66051   8.957   7.354   0.801
94326W        W66052  12.133  26.122   0.751
94327W        W66053  41.694  43.653   2.510
94328W        W66054   4.947  43.407  14.778
94329W        W66055  16.043  14.185   2.946
94330W        W66056   3.046  37.832  13.033
94331W        W66057  40.404  31.848   1.294
94332W        W66058  37.802  10.294  14.558
94333W        W66059   6.352  12.241   4.104
94334W        W66060   1.658  24.948  11.160
94335W        W66061  26.201  41.036   0.737
94336W        W66062  19.358   4.646   2.315
94337W        W66063   4.694  28.066  12.530
94338W        W66064  29.909  13.969  12.041
94339W        W66065  36.290  33.859  12.051
94340W        W66066   6.897  32.436  12.380
94341W        W66067  16.902  30.315   2.404
94342W        W66068  17.837  15.659  14.534
94343W        W66069  44.502  19.539   0.802
94344W        W66070  24.241   2.939  14.958
94345W        W66071  36.573  21.774   3.670
94346W        W66072  37.797  34.441   9.939
94347W        W66073  39.349  36.065   3.879
94348W        W66074  36.523  29.453   3.819
94349W        W66075  38.291  16.915   3.687
94350W        W66076   5.662  10.237  11.470
94351W        W66077  40.957  42.291   4.128
94352W        W66078   2.874  14.813  11.047
94353W        W66079  12.389  11.352  14.484
94354W        W66080  11.671  16.551  13.086
94355W        W66081  14.225  13.053  11.942
94356W        W66082   9.204  37.608   2.701
94357W        W66083  28.879  44.291  12.519
94358W        W66084  34.886   6.958  12.030
94359W        W66085  17.753  25.333   2.221
94360W        W66086   5.160   4.317  13.083
94361W        W66087  17.540  39.721   4.991
94362W        W66088   0.219  32.461  10.772
94363W        W66089  13.151  34.529  12.041
94364W        W66090  33.429  44.440  12.172
94365W        W66091  13.385  34.283   3.102
94366W        W66092   3.159  22.469  10.319
94367W        W66093  31.388  44.273   2.172
94368W        W66094   0.704  16.071   3.126
94369W        W66095  42.879   1.235   3.017
94370W        W66096  26.543  32.115   4.141
94371W        W66097  35.980  20.775  13.575
94372W        W66098  36.644  15.882   3.695
94373W        W66099  14.785  19.460  12.356
94374W        W66100   1.814   6.847   2.731
94375W        W66101   9.285   8.616  14.749
94376W        W66102  34.446  35.582  13.773
94377W        W66103   0.595  20.901   1.303
94378W        W66104  42.019  35.370  14.907
94379W        W66105  39.150  40.052  13.064
94380W        W66106  18.077  37.439  10.533
94381W        W66107   1.760  28.378  12.034
94382W        W66108   2.346  25.395  12.093
94383W        W66109  42.224  35.854   0.355
94384W        W66110   6.933  18.583  13.373
94385W        W66111  39.827  26.718  10.798
94386W        W66112  20.775  33.548   3.850
94387W        W66113  43.942   5.793   4.634
94388W        W66114  34.124  35.994   1.005
94389W        W66115  37.381  32.531  14.703
94390W        W66116  35.556  42.235  12.941
94391W        W66117  25.620  24.209   3.538
94392W        W66118  33.474  42.916  10.142
94393W        W66119  21.149  41.939   0.380
94394W        W66120   4.708  33.532  14.046
94395W        W66121  24.775  32.931   3.854
94396W        W66122  33.002  38.334   0.271
94397W        W66123  42.809  24.153   2.279
94398W        W66124  44.946   4.672  13.455
94399W        W66125  17.019  18.075  12.869
94400W        W66126  26.944  24.042  10.747
94401W        W66127  43.367  13.034   0.883
94402W        W66128  23.185  18.123  11.478
94403W        W66129  26.117  27.184  11.144
94404W        W66130  44.060  18.390   3.112
94405W        W66131  20.998   6.942  10.699
94406W        W66132   5.386  23.107   0.379
94407W        W66133  26.481  39.049  14.010
94408W        W66134  37.032  19.295  10.975
94409W        W66135  42.416  14.709   0.465
94410W        W66136  33.556  10.403  14.402
94411W        W66137   4.428   9.768  11.707
94412W        W66138   8.421  44.993  11.598
94413W        W66139  21.868  30.402   2.661
94414W        W66140  27.363  31.504  12.852
94415W        W66141   9.932  15.650   1.740
94416W        W66142  24.491   3.362  11.253
94417W        W66143  32.403   0.035   2.823
94418W        W66144  19.094  42.076   3.752
94419W        W66145  19.094  29.549  11.870
94420W        W66146  30.260  31.280  12.889
94421W        W66147  41.853  42.929  14.729
94422W        W66148   3.867   1.668   4.586
94423W        W66149  40.386   0.957   0.332
94424W        W66150  18.183  28.925   2.685
94425W        W66151  39.099   8.729   0.717
94426W        W66152   1.136  36.952  11.113
94427W        W66153  33.144  18.117  10.334
94428W        W66154  36.540  36.623  14.774
94429W        W66155   4.341  11.359  14.954
94430W        W66156  40.813  40.871   2.151
94431W        W66157  30.438  43.725   0.262
94432W        W66158   0.948  12.047   0.140
94433W        W66159  31.676  20.184  12.427
94434W        W66160  21.757  34.415  11.602
94435W        W66161  21.568  19.496   2.288
94436W        W66162   7.728  37.616   2.254
94437W        W66163  26.033  41.176  11.965
94438W        W66164  21.326  11.010   1.956
94439W        W66165   4.722   4.171   1.893
94440W        W66166  39.983  21.525   4.473
94441W        W66167  28.839  44.764  14.452
94442W        W66168  40.129   1.967  14.429
94443W        W66169   8.325  17.117   1.356
94444W        W66170  11.717  35.777  13.653
94445W        W66171  38.917  30.895   2.823
94446W        W66172  41.581   1.930   4.475
94447W        W66173   2.631  32.938   4.108
94448W        W66174  27.201  14.031   0.832
94449W        W66175   5.681  13.828   1.431
94450W        W66176  29.695  23.062  12.420
94451W        W66177  17.489  20.682  12.159
94452W        W66178  27.588  25.304  13.377
94453W        W66179  37.473  34.483   1.293
94454W        W66180  23.008  22.057  12.088
94455W        W66181   5.895  44.336  13.727
94456W        W66182  22.630  27.813   4.832
94457W        W66183   8.111  37.941  14.426
94458W        W66184  35.439  24.519  11.337
94459W        W66185  19.740  34.492  14.134
94460W        W66186   8.902  42.904   0.958
94461W        W66187  36.388   3.521  14.382
94462W        W66188  22.660  23.729   4.584
94463W        W66189  42.136  36.835   3.325
94464W        W66190  31.016  33.671   0.504
94465W        W66191  38.419  40.003  12.471
94466W        W66192  21.443  14.390  10.676
94467W        W66193   0.376  38.512   0.353
94468W        W66194  19.929  15.332  10.804
94469W        W66195  20.602  26.051   0.318
94470W        W66196  16.908  31.354  13.406
94471W        W66197  42.970  42.878  13.141
94472W        W66198  11.495  29.451   4.186
94473W        W66199   1.013  24.091   0.349
94474W        W66200  36.435  39.487   0.204
94475W        W66201  36.557  20.785   2.583
94476W        W66202  24.532  14.390   5.420
94477W        W66203  21.777  26.235   2.200
94478W        W66204  31.194  44.251  11.046
94479W        W66205  27.442  27.025  14.752
94480W        W66206  36.597  16.574   0.016
94481W        W66207   9.799  21.140  14.559
94482W        W66208  31.342  14.306   2.225
94483W        W66209  13.742  39.927  11.668
94484W        W66210  23.432  34.053   1.851
94485W        W66211  27.633  22.744  14.429
94486W        W66212   8.410   4.025   4.346
94487W        W66213  31.656  20.372   0.312
94488W        W66214  29.110   8.649  10.685
94489W        W66215  15.851  13.191   3.179
94490W        W66216   8.888   7.685  12.595
94491W        W66217   1.956  13.905   4.578
94492W        W66218  19.510  44.318  13.489
94493W        W66219   1.064  15.796   1.408
94494W        W66220  34.085  29.546   4.237
94495W        W66221  28.548  24.268  14.372
94496W        W66222  13.357   9.529   1.012
94497W        W66223   6.886  21.305  10.591
94498W        W66224  16.850  32.724   3.321
94499W        W66225  41.591  32.297  11.339
94500W        W66226  42.719  39.595  11.201
94501W        W66227  11.827   2.528  13.447
94502W        W66228  28.017  40.317  10.789
94503W        W66229  21.740  26.353   3.014
94504W        W66230  26.320  34.651   2.331
94505W        W66231   0.021  23.645  13.060
94506W        W66232  37.301  41.372  11.048
94507W        W66233  34.622  25.970   0.507
94508W        W66234   9.140  23.791   0.326
94509W        W66235   9.498  21.607   0.269
94510W        W66236   9.173  32.895  14.147
94511W        W66237   8.825  32.810  11.582
94512W        W66238  28.171   9.869  14.271
94513W        W66239  23.364  18.496   1.441
94514W        W66240  16.952  43.343  11.923
94515W        W66241  14.620  20.108   1.205
94516W        W66242   2.200  26.458  10.733
94517W        W66243  25.284   0.508   2.377
94518W        W66244  24.574   4.207  11.455
94519W        W66245  22.229   3.384  11.110
94520W        W66246  14.802   3.226  12.958
94521W        W66247  10.919  16.642  14.734
94522W        W66248   5.721  33.435  13.834
94523W        W66249  15.110  29.887   0.775
94524W        W66250  26.748  23.416  12.349
94525W        W66251  22.493  18.052  12.833
94526W        W66252  22.888  27.667  13.567
94527W        W66253   6.715  38.556  12.403
94528W        W66254  16.342   3.743  12.476
94529W        W66255  13.979   6.810   2.913
94530W        W66256   4.998   5.397  13.457
94531W        W66257   3.502   3.780   4.545
94532W        W66258  28.736  37.027  11.912
94533W        W66259  32.788  41.271   3.209
94534W        W66260   4.773  30.386   2.964
94535W        W66261  14.704   7.294  10.274
94536W        W66262  19.786  33.132  13.896
94537W        W66263  42.045  25.001   0.260
94538W        W66264  14.672  38.392   3.189
94539W        W66265  21.278   5.758   2.634
94540W        W66266   2.372  24.368   4.684
94541W        W66267  40.738  11.658  13.073
94542W        W66268  10.290  28.194   2.514
94543W        W66269  43.786   9.509   1.856
94544W        W66270  33.777  42.917   3.204
94545W        W66271  25.020  42.555   4.481
94546W        W66272  34.467  27.937  14.460
94547W        W66273  15.738  42.277  14.319
94548W        W66274  23.701  41.067   1.869
94549W        W66275   2.749  20.305   3.145
94550W        W66276  32.283   4.425  14.844
94551W        W66277  26.954  13.075  14.913
94552W        W66278  36.890   8.938   0.471
94553W        W66279  33.824   7.336  11.177
94554W        W66280  10.125  30.390  12.436
94555W        W66281   8.310  44.272   4.643
94556W        W66282  22.579  28.916  11.594
94557W        W66283  31.428  22.473  11.629
94558W        W66284  34.446   1.971   1.485
94559W        W66285  36.824  17.683   4.082
94560W        W66286  17.829  37.942  11.997
94561W        W66287  32.155  18.935   1.144
94562W        W66288  39.813  40.225  14.888
94563W        W66289  11.464  10.895  12.037
94564W        W66290  23.457  24.603  12.931
94565W        W66291  32.045   6.559   0.853
94566W        W66292  10.402  36.493  12.016
94567W        W66293  15.110  30.053   4.603
94568W        W66294  37.357   0.778   1.452
94569W        W66295  40.370  29.128   0.265
94570W        W66296  23.501  37.320   3.376
94571W        W66297  41.107  40.508   1.503
94572W        W66298  18.094   9.510  12.189
94573W        W66299  20.278  17.737  10.469
94574W        W66300   4.500  38.999  13.478
94575W        W66301  25.658  13.726  13.103
94576W        W66302  38.801  36.141   4.932
94577W        W66303   5.695  42.001   0.818
94578W        W66304   1.532  29.696  11.097
94579W        W66305   2.459  21.751  12.049
94580W        W66306  10.216  14.289  14.948
94581W        W66307  32.741  10.643   4.504
94582W        W66308  23.347  43.877   1.389
94583W        W66309  36.244  41.814  13.120
94584W        W66310  11.638  37.861  10.510
94585W        W66311  14.348  18.784  11.629
94586W        W66312  24.508  33.901  14.280
94587W        W66313   4.788  33.923   2.569
94588W        W66314  15.765  30.625  14.070
94589W        W66315  28.240   9.071  14.836
94590W        W66316   4.784  28.045   1.341
94591W        W66317   6.638  21.720  14.862
94592W        W66318  29.319  29.864  14.930
94593W        W66319  31.114  26.673  12.910
94594W        W66320   0.311  42.800  14.966
94595W        W66321  18.599  27.450  14.784
94596W        W66322  12.946  30.108   2.694
94597W        W66323   7.423  39.801  13.985
94598W        W66324   2.978  29.236   0.284
94599W        W66325  15.234  42.474  10.951
94600W        W66326  35.810  27.963   4.193
94601W        W66327  21.118   8.112   1.696
94602W        W66328  24.878  32.002  10.748
94603W        W66329  31.504  13.830  12.904
94604W        W66330  28.823  18.963   4.258
94605W        W66331  43.465  12.724   0.258
94606W        W66332   6.234  27.318   0.764
94607W        W66333  14.805  21.863  12.408
94608W        W66334   0.292  32.825  14.909
94609W        W66335  37.763   5.133   3.169
94610W        W66336  37.753  37.014  14.449
94611W        W66337   5.893   8.197  11.547
94612W        W66338  20.404   9.844   2.182
94613W        W66339  14.179  18.837  12.624
94614W        W66340  24.315  12.810   0.339
94615W        W66341   0.605  23.470   1.357
94616W        W66342  33.602  25.707   0.919
94617W        W66343  34.331  40.261  10.867
94618W        W66344   2.906  33.732  12.445
94619W        W66345  41.529  34.779   3.216
94620W        W66346  44.319  12.652   2.710
94621W        W66347  36.676  36.303   9.733
94622W        W66348  10.197  20.179  13.612
94623W        W66349  28.692  38.911  14.485
94624W        W66350  11.671  23.300  14.917
94625W        W66351  15.462  13.924  11.121
94626W        W66352  16.258   2.928   2.997
94627W        W66353  27.726   2.375   4.734
94628W        W66354   2.351  35.779  11.574
94629W        W66355   4.170  39.488   3.164
94630W        W66356  10.095  41.437   1.833
94631W        W66357  31.562  25.520   4.724
94632W        W66358   0.971  35.936  10.672
94633W        W66359   9.395  14.212   3.240
94634W        W66360  10.002  12.550  13.274
94635W        W66361  25.498   6.730   0.310
94636W        W66362   2.328  29.522   3.688
94637W        W66363  17.709  43.012   0.935
94638W        W66364  21.562  43.384  10.693
94639W        W66365  22.665  16.336   4.581
94640W        W66366  35.113  36.402  14.504
94641W        W66367   3.481   1.907  14.307
94642W        W66368  25.567  22.208   4.869
94643W        W66369  18.154   6.297  11.441
94644W        W66370  10.321  31.604   0.470
94645W        W66371  26.884  32.577  12.080
94646W        W66372  35.469  18.992  13.407
94647W        W66373  37.131  12.778  13.508
94648W        W66374   0.354   5.665   4.629
94649W        W66375  38.805  32.090   3.186
94650W        W66376  11.100  22.487   3.316
94651W        W66377  33.962  39.823  13.429
94652W        W66378  28.178  17.776   2.195
94653W        W66379  17.081  19.555  12.083
94654W        W66380  40.851   9.481  12.937
94655W        W66381  35.907  20.423  12.915
94656W        W66382   9.560  20.705   2.814
94657W        W66383  10.159  22.161   3.769
94658W        W66384  36.131  41.291  14.431
94659W        W66385  44.486  13.553   3.216
94660W        W66386  10.648  14.121   2.579
94661W        W66387  15.281  39.573  10.955
94662W        W66388  16.387  24.298  14.809
94663W        W66389  37.835  39.335   4.470
94664W        W66390  22.075  22.835   3.166
94665W        W66391  11.454  10.883  10.710
94666W        W66392  16.779   6.963  11.541
94667W        W66393  44.558  42.901   1.782
94668W        W66394   6.219  20.073  12.367
94669W        W66395   7.892  23.223  12.096
94670W        W66396  20.659  44.814   0.456
94671W        W66397  12.610  21.119   3.349
94672W        W66398  18.214  25.614   3.239
94673W        W66399   9.200  27.102   1.589
94674W        W66400   9.452  13.601  13.025
94675W        W66401  35.342   1.478   0.526
94676W        W66402   6.741  15.615   9.734
94677W        W66403  33.422  17.069  10.259
94678W        W66404  21.834  23.764   2.946
94679W        W66405   4.323  31.462  11.496
94680W        W66406  38.518   9.982   1.125
94681W        W66407  42.911  24.733   2.956
94682W        W66408   1.416  39.232   2.361
94683W        W66409  24.933  30.009  14.372
94684W        W66410  16.894  44.508   1.833
94685W        W66411   7.722  37.976   4.906
94686W        W66412  39.346  11.676  14.045
94687W        W66413  38.676  21.539  13.412
94688W        W66414   8.730  25.091   5.133
94689W        W66415   8.604  31.961  10.542
94690W        W66416  16.026  37.639   1.809
94691W        W66417  35.371  40.523   0.283
94692W        W66418  28.970  10.135   2.869
94693W        W66419   9.777  33.024   0.842
94694W        W66420  23.645   4.452  14.315
94695W        W66421  30.969  38.843   1.819
94696W        W66422  10.796  16.830  13.351
94697W        W66423   3.132  30.534  13.032
94698W        W66424  28.451  12.832   0.883
94699W        W66425   3.196  43.300   4.988
94700W        W66426  21.582   0.853   4.885
94701W        W66427  32.581  22.592  14.417
94702W        W66428  31.514  13.069  11.202
94703W        W66429  36.302   5.930   1.296
94704W        W66430  24.686  44.295   1.312
94705W        W66431  21.982  12.184   4.948
94706W        W66432  13.780  38.039   1.792
94707W        W66433   3.477  34.722   1.460
94708W        W66434   5.426  11.156   3.056
94709W        W66435  21.629  33.868   4.112
94710W        W66436  14.992  20.189  10.741
94711W        W66437  17.650  36.371   3.884
94712W        W66438  15.701  21.254   2.658
94713W        W66439  17.254  18.685   3.206
94714W        W66440  29.877  28.918   1.551
94715W        W66441  38.016  30.733  13.932
94716W        W66442  12.922   4.412  14.626
94717W        W66443  41.443  16.219  12.949
94718W        W66444  27.294  36.660  10.997
94719W        W66445  19.795  32.526  13.222
94720W        W66446  19.446  18.209  12.616
94721W        W66447  33.351  18.733  13.668
94722W        W66448   9.976   0.227  12.068
94723W        W66449  20.589  27.518  10.909
94724W        W66450  13.890  41.565   1.383
94725W        W66451  28.970  13.064   1.352
94726W        W66452  34.471  29.089   3.299
94727W        W66453  22.445  14.586  12.101
94728W        W66454   6.020  30.189  11.925
94729W        W66455  39.264  37.587   4.063
94730W        W66456   9.684  11.605  10.712
94731W        W66457  24.395   3.943  10.630
94732W        W66458  36.037  37.794  14.956
94733W        W66459  16.728  38.578  11.157
94734W        W66460  33.882  17.147  10.501
94735W        W66461   2.753  27.659  14.532
94736W        W66462  15.357  10.742   2.807
94737W        W66463  36.560  18.266   3.642
94738W        W66464  22.039  40.480  13.106
94739W        W66465  32.901  27.156   1.840
94740W        W66466  36.102  30.897  11.144
94741W        W66467  33.221  16.129   4.911
94742W        W66468   8.283   0.722  12.514
94743W        W66469  40.018  14.595  14.462
94744W        W66470  36.909  17.464   0.368
94745W        W66471  37.489   7.239  13.407
94746W        W66472  35.018  43.471   2.374
94747W        W66473  24.629   8.203  11.296
94748W        W66474   5.596   5.022  11.639
94749W        W66475  43.483  26.378  11.851
94750W        W66476  17.688  37.899   4.307
94751W        W66477  43.297   9.400  12.168
94752W        W66478  41.317   4.187   3.711
94753W        W66479  15.426  35.441   4.560
94754W        W66480  11.784  19.999  13.944
94755W        W66481  14.273  25.582   3.175
94756W        W66482  28.013  35.605   4.469
94757W        W66483  38.546   2.776   0.052
94758W        W66484  12.564  35.696   1.834
94759W        W66485  15.673  16.973  11.175
94760W        W66486  31.837   2.037  14.808
94761W        W66487  29.053  19.575  13.359
94762W        W66488  21.219  39.689  12.150
94763W        W66489  29.962  29.905  10.803
94764W        W66490  18.169  43.619  11.985
94765W        W66491  15.193  21.011  11.987
94766W        W66492   8.229   5.790   1.451
94767W        W66493  11.241   4.733   0.120
94768W        W66494   2.327  39.249   0.565
94769W        W66495   6.434  30.836   2.761
94770W        W66496   1.810  17.678  10.702
94771W        W66497  38.477   2.131  12.158
94772W        W66498   4.867  14.503  10.456
94773W        W66499  20.594  25.006  11.909
94774W        W66500   6.936  35.516  12.629
94775W        W66501  39.071  17.539  11.080
94776W        W66502  20.584  43.326   3.163
94777W        W66503  19.616  35.336   3.661
94778W        W66504  36.786  29.023   3.661
94779W        W66505  28.968  30.943   1.727
94780W        W66506  10.187  40.388   0.209
94781W        W66507   2.501  13.933  12.327
94782W        W66508  42.435  44.816  13.528
94783W        W66509  19.535  19.120   1.426
94784W        W66510   4.464  44.383  11.174
94785W        W66511   9.169  19.165   3.368
94786W        W66512  10.788  40.501  11.980
94787W        W66513  24.419  30.118   2.075
94788W        W66514   1.732   3.833  11.735
94789W        W66515  18.758  36.291   2.661
94790W        W66516  35.911   6.900  10.702
94791W        W66517  36.584   7.155   0.569
94792W        W66518  19.632  21.741   3.201
94793W        W66519  40.366  42.517  11.675
94794W        W66520  19.842  21.578  13.888
94795W        W66521  19.955   0.979   0.371
94796W        W66522  17.370  13.639   2.724
94797W        W66523   4.448  24.199   0.383
94798W        W66524  38.992  22.946   2.818
94799W        W66525  33.359  23.562   4.611
94800W        W66526   4.773  39.205   0.632
94801W        W66527  32.169  36.159  12.923
94802W        W66528  31.175   8.842   4.000
94803W        W66529  41.299  22.174   3.415
94804W        W66530  18.291  39.061  12.472
94805W        W66531   6.802  16.126   2.326
94806W        W66532   7.376  27.712   0.236
94807W        W66533   2.162  26.943   0.352
94808W        W66534  26.107  15.716  13.565
94809W        W66535  44.801   7.260   3.142
94810W        W66536  37.365  14.717   0.377
94811W        W66537  36.037   3.067  12.499
94812W        W66538  40.542  37.464   0.412
94813W        W66539  26.684  19.909  12.948
94814W        W66540  15.218  10.173  14.159
94815W        W66541  27.690  11.289   3.301
94816W        W66542  25.413  29.041   3.397
94817W        W66543  39.287  13.376  12.864
94818W        W66544  27.997  18.161  11.751
94819W        W66545  15.814  15.520   4.698
94820W        W66546  36.748   9.279   1.851
94821W        W66547  41.383  25.167   3.579
94822W        W66548  35.561   2.752   0.237
94823W        W66549   4.058  26.614  12.571
94824W        W66550  30.177  10.892   0.831
94825W        W66551  18.571  27.141   0.236
94826W        W66552  14.861  32.942  13.396
94827W        W66553  20.772   8.667   4.855
94828W        W66554  42.871  41.417   4.684
94829W        W66555  29.405   8.065   4.356
94830W        W66556  32.721  38.791   1.295
94831W        W66557  24.408   6.131   2.295
94832W        W66558   2.862   2.462   3.621
94833W        W66559   1.556  14.153   4.898
94834W        W66560   3.547   3.208   3.757
94835W        W66561  32.977   3.772  10.782
94836W        W66562  27.652  22.981   2.659
94837W        W66563   8.518  13.822  12.463
94838W        W66564  20.488  36.095  12.064
94839W        W66565  14.257   1.297   4.115
94840W        W66566  16.230  14.158  12.432
94841W        W66567  30.505  12.563  12.011
94842W        W66568  28.699  19.256  14.292
94843W        W66569  42.911   5.045   2.492
94844W        W66570  11.506   8.835  10.227
94845W        W66571   2.605  21.630  14.804
94846W        W66572  13.151  18.704   1.601
94847W        W66573  27.964  24.447   0.819
94848W        W66574  35.892  33.140  13.952
94849W        W66575  37.593  26.127   0.478
94850W        W66576  16.262  36.411  11.440
94851W        W66577  26.223  27.358   2.148
94852W        W66578  37.939  19.642   1.261
94853W        W66579  26.323  43.879  11.145
94854W        W66580  37.065  34.976  14.340
94855W        W66581  25.659  36.355   2.669
94856W        W66582  13.927  19.674   1.890
94857W        W66583  31.373   2.374  13.947
94858W        W66584  23.270  30.043  14.018
94859W        W66585  38.876  14.601  13.362
94860W        W66586  42.113  30.567   3.641
94861W        W66587  34.404  36.758   0.281
94862W        W66588  13.627  11.347  11.889
94863W        W66589  33.457  16.376   0.846
94864W        W66590   5.672   4.501  10.043
94865W        W66591  14.570  27.041   3.669
94866W        W66592  13.471  19.524  10.754
94867W        W66593  28.642  10.955   4.070
94868W        W66594  13.178  36.491   1.644
94869W        W66595   5.723  26.037  10.614
94870W        W66596  19.324  11.359   4.535
94871W        W66597  24.699  36.988   3.853
94872W        W66598  16.776  14.100   2.353
94873W        W66599  24.433  28.960  13.895
94874W        W66600  34.015  37.869   1.862
94875W        W66601   1.505  33.425   3.590
94876W        W66602   2.156  39.278  13.905
94877W        W66603  38.156   8.731  13.966
94878W        W66604  28.645  30.147   0.350
94879W        W66605  42.446  16.928  12.023
94880W        W66606  33.479  31.737  13.387
94881W        W66607  16.847  14.125   0.922
94882W        W66608  30.962  31.776  11.462
94883W        W66609  35.042  25.942   4.603
94884W        W66610  28.362  26.671   2.613
94885W        W66611  25.145  31.498   1.152
94886W        W66612  17.720   5.716  12.586
94887W        W66613  27.077  43.734   1.772
94888W        W66614   8.907  28.034   2.833
94889W        W66615  42.340  32.743   1.829
94890W        W66616  37.868  24.151  13.193
94891W        W66617  15.510  37.584   1.770
94892W        W66618   9.316  16.858  13.873
94893W        W66619  11.691  32.781  10.835
94894W        W66620  43.322   0.976   4.264
94895W        W66621  16.440  38.430  13.792
94896W        W66622   9.158  44.805  12.408
94897W        W66623  26.105  26.919   1.227
94898W        W66624  26.017  17.550  13.945
94899W        W66625   8.301  25.576  12.365
94900W        W66626  32.460  37.504   4.154
94901W        W66627  24.205  19.394  12.570
94902W        W66628   6.350   2.526  12.144
94903W        W66629  20.552   8.836  12.454
94904W        W66630   5.227  26.039  12.115
94905W        W66631  14.580  26.119   4.634
94906W        W66632   9.258  31.789  14.576
94907W        W66633  12.850  34.090  11.067
94908W        W66634  11.907  43.890   2.401
94909W        W66635  14.554  10.703   0.943
94910W        W66636  28.948  21.477  10.680
94911W        W66637  26.119  39.968   2.409
94912W        W66638  40.087  37.481   2.215
94913W        W66639   8.339  27.073  14.342
94914W        W66640  20.795   3.192  12.341
94915W        W66641   7.382   9.109  12.940
94916W        W66642  11.078  15.730  11.195
94917W        W66643   3.476   5.302   4.030
94918W        W66644  13.236  30.685   2.749
94919W        W66645  15.323  32.968   4.685
94920W        W66646  23.449  44.508  12.033
94921W        W66647  35.925  12.889   3.637
94922W        W66648  25.971   4.679   2.473
94923W        W66649  38.525  10.956   0.786
94924W        W66650  24.657   2.239   0.843
94925W        W66651  10.146   1.714   4.382
94926W        W66652   2.102  34.524   4.520
94927W        W66653  43.737  24.763   1.622
94928W        W66654  28.226  10.174  11.098
94929W        W66655  31.597  41.055  11.199
94930W        W66656   0.035  13.762   2.127
94931W        W66657  15.378  13.836   3.717
94932W        W66658   0.873  36.321  11.730
94933W        W66659   4.301  14.376  12.402
94934W        W66660  15.990  26.941  14.099
94935W        W66661  11.821  36.163   1.709
94936W        W66662  31.610  32.025   3.157
94937W        W66663  15.079  16.224  12.353
94938W        W66664  42.717  18.118   1.658
94939W        W66665  28.040  13.778  13.369
94940W        W66666   2.037  39.487   2.912
94941W        W66667  32.085  41.548  13.610
94942W        W66668  23.716  30.538   1.422
94943W        W66669  30.195   6.668   1.002
94944W        W66670  26.752  38.136  12.980
94945W        W66671  12.832  25.959  12.838
94946W        W66672   9.740  38.307   1.844
94947W        W66673  28.631  18.437  12.484
94948W        W66674  16.162  29.742   0.719
94949W        W66675  41.090   6.831  10.477
94950W        W66676   2.918   9.211  13.802
94951W        W66677  43.881  27.739   3.200
94952W        W66678  28.094  31.950   5.046
94953W        W66679  20.858  29.613   4.139
94954W        W66680  31.018  13.118   4.824
94955W        W66681  27.544  11.747  12.908
94956W        W66682  42.945  36.879  12.524
94957W        W66683  43.766  21.499   0.279
94958W        W66684   9.881   9.337   0.668
94959W        W66685   6.638  35.127  14.747
94960W        W66686   2.206  35.419   2.743
94961W        W66687   8.665   8.467  11.096
94962W        W66688   4.382  31.895  10.045
94963W        W66689  40.117  28.009  12.569
94964W        W66690  20.912  37.414   4.787
94965W        W66691  33.530  15.278   4.058
94966W        W66692  40.912  22.706  12.888
94967W        W66693  35.231  36.777  12.426
94968W        W66694  31.646  40.737  12.522
94969W        W66695  34.981  23.240   0.827
94970W        W66696  13.159  30.888   4.670
94971W        W66697   1.267  10.119   1.713
94972W        W66698   6.405  16.541  11.604
94973W        W66699  32.982  31.896  12.544
94974W        W66700   1.434  33.978   3.239
94975W        W66701  14.548  37.852   3.684
94976W        W66702  28.555  42.790   2.782
94977W        W66703   8.667  16.055   4.407
94978W        W66704  31.914  38.736   1.826
94979W        W66705  20.640  19.300   2.719
94980W        W66706  15.808  12.431  12.975
94981W        W66707  30.606  42.194  11.944
94982W        W66708   2.530  21.790   0.954
94983W        W66709  36.384  24.542   1.360
94984W        W66710  22.759  22.438   1.353
94985W        W66711  34.163   6.628  12.888
94986W        W66712  25.550  37.033  13.516
94987W        W66713  25.581  19.538   2.718
94988W        W66714   0.666  11.879  10.834
94989W        W66715  28.791  33.631  14.413
94990W        W66716  21.161   3.804   0.689
94991W        W66717  14.269  28.095   3.271
94992W        W66718  39.901  25.723   1.227
94993W        W66719   9.288  31.404   0.418
94994W        W66720  16.677  20.395   3.780
94995W        W66721  34.441  18.758  14.346
94996W        W66722  18.061  24.691   1.944
94997W        W66723  43.059  21.319  12.857
94998W        W66724   6.379  16.613  14.322
94999W        W66725  21.055  21.679   3.300
95000W        W66726  43.462   0.198   2.334
95001W        W66727  13.298  24.013   4.147
95002W        W66728  33.080   4.225   0.345
95003W        W66729  29.900  23.634  11.129
95004W        W66730  31.165  40.973  12.167
95005W        W66731   7.001  23.668   4.149
95006W        W66732  33.180  23.590  10.560
95007W        W66733  41.843  39.894  12.590
95008W        W66734  11.794   5.378  14.062
95009W        W66735  15.296  34.791  14.403
95010W        W66736   9.262  22.622  14.525
95011W        W66737  42.009  26.040   4.872
95012W        W66738  36.161  34.483   3.842
95013W        W66739  16.596  38.891  12.458
95014W        W66740   5.818  41.038  11.727
95015W        W66741  13.696  36.958  14.576
95016W        W66742   0.718  39.493   0.265
95017W        W66743  29.030  21.311   9.836
95018W        W66744   4.432  18.855  12.620
95019W        W66745   7.063  12.132   0.814
95020W        W66746  39.984  43.961   1.019
95021W        W66747  11.600   0.216  12.999
95022W        W66748  13.354  13.209   2.222
95023W        W66749  14.832  34.914  10.801
95024W        W66750  10.276  41.598   4.041
95025W        W66751  35.132  17.273   0.769
95026W        W66752  29.493  20.998   2.680
95027W        W66753  27.075  42.871   0.289
95028W        W66754  30.473  37.914   0.979
95029W        W66755  35.890  40.206  13.028
95030W        W66756  19.292  18.762  12.406
95031W        W66757   0.854  28.344   9.585
95032W        W66758  19.437   2.968   2.753
95033W        W66759   6.920   9.873   4.349
95034W        W66760  24.040  36.710  13.261
95035W        W66761  36.092  37.394   3.247
95036W        W66762   7.432   5.348  13.586
95037W        W66763   8.637  14.411   2.760
95038W        W66764  22.241  28.136   4.968
95039W        W66765  17.274  13.848   0.286
95040W        W66766  20.296   6.729  10.531
95041W        W66767   9.320  12.067   4.638
95042W        W66768  38.839  24.442   1.149
95043W        W66769   0.638  20.921   5.053
95044W        W66770  12.780  29.358   2.392
95045W        W66771   7.880  25.747  13.036
95046W        W66772   4.224  16.042  14.031
95047W        W66773   9.520  11.711   3.306
95048W        W66774  34.430  35.393   1.380
95049W        W66775  25.675  23.518   4.665
95050W        W66776  22.028  32.838  14.695
95051W        W66777   3.683  19.538   2.189
95052W        W66778   9.124  12.358   4.235
95053W        W66779  23.695   3.472  12.385
95054W        W66780  21.087  29.123   4.393
95055W        W66781  25.611  41.000   4.561
95056W        W66782  41.351   9.598   2.554
95057W        W66783  14.279  43.430  10.718
95058W        W66784  44.857  44.672   2.556
95059W        W66785  41.100  10.353   4.217
95060W        W66786  40.374   3.682   2.715
95061W        W66787  25.416  14.843   0.774
95062W        W66788   3.664  43.219   0.826
95063W        W66789  25.240  37.376   5.042
95064W        W66790   3.616  19.482  11.714
95065W        W66791  30.583  42.416   4.550
95066W        W66792  41.393   8.299   2.441
95067W        W66793   9.892   2.973  11.610
95068W        W66794   9.422  15.723   0.816
95069W        W66795  43.105  44.889  13.941
95070W        W66796  41.798  37.929  11.698
95071W        W66797  44.426  35.823  11.142
95072W        W66798  30.530   1.759   0.898
95073W        W66799   5.416  31.657   3.747
95074W        W66800   8.837  20.286  14.406
95075W        W66801  36.922  44.856  14.501
95076W        W66802  25.047   6.922   1.150
95077W        W66803  31.285  44.764  10.260
95078W        W66804  35.000  18.585   2.671
95079W        W66805  25.222   0.420   1.866
95080W        W66806  11.409  29.356  12.900
95081W        W66807  36.813  19.107   1.349
95082W        W66808  22.487  23.655   9.921
95083W        W66809   7.651   5.100   9.734
95084W        W66810  39.363  35.781  10.936
95085W        W66811   0.803  13.480  12.616
95086W        W66812  42.383  18.814  11.662
95087W        W66813  14.791  20.124  12.883
95088W        W66814  30.467  15.124   2.293
95089W        W66815  25.089  41.813   2.873
95090W        W66816  37.065  17.491  14.837
95091W        W66817  10.040  17.592  13.659
95092W        W66818  24.780   8.653  11.714
95093W        W66819  27.449   7.648   1.318
95094W        W66820   8.915   3.449   1.880
95095W        W66821  11.313  24.163   0.333
95096W        W66822  34.442  34.900   1.200
95097W        W66823  37.936  21.115  10.739
95098W        W66824  10.125  30.493   4.381
95099W        W66825   6.585  19.648   0.212
95100W        W66826  39.541  16.825  13.395
95101W        W66827  29.712  12.273   1.257
95102W        W66828  37.138  22.212   2.405
95103W        W66829  11.094   1.070   5.052
95104W        W66830  37.944   1.240  12.907
95105W        W66831   7.801  23.245  14.750
95106W        W66832   3.232  41.723  13.629
95107W        W66833  19.107  14.196   2.884
95108W        W66834  40.283  39.788   0.867
95109W        W66835  25.306  24.720  11.151
95110W        W66836  36.273  12.408   2.907
95111W        W66837  43.925  36.508   1.544
95112W        W66838  34.751  21.205  12.965
95113W        W66839  44.668  19.286   1.218
95114W        W66840  29.277  20.190   3.780
95115W        W66841  15.776   8.328   4.184
95116W        W66842   7.354  30.044  13.582
95117W        W66843  14.717   1.506  12.066
95118W        W66844  22.029   4.762  13.894
95119W        W66845  41.824  43.804   0.718
95120W        W66846  41.514  36.099   3.655
95121W        W66847  22.231  31.973  14.844
95122W        W66848   2.163  31.617   2.689
95123W        W66849  24.106  10.333  10.669
95124W        W66850  24.102  12.214  11.408
95125W        W66851  28.554   6.607  13.462
95126W        W66852   9.759  39.884  14.296
95127W        W66853  33.883   6.027  11.469
95128W        W66854  15.714  44.014   2.846
95129W        W66855  44.104  20.997   1.736
95130W        W66856  44.319  39.448   3.282
95131W        W66857  15.470  25.132   5.058
95132W        W66858  12.190   2.244  11.648
95133W        W66859   5.481  25.554   1.890
95134W        W66860  17.070  42.987   2.409
95135W        W66861  25.119  41.026  11.972
95136W        W66862  20.548   8.146  14.914
95137W        W66863  25.138  23.742   0.894
95138W        W66864  33.938  21.597  14.013
95139W        W66865  11.984   4.180  14.247
95140W        W66866  13.939  16.567  12.940
95141W        W66867  42.509  29.828  12.816
95142W        W66868  38.515  14.173   2.318
95143W        W66869  23.916  33.067  14.789
95144W        W66870  34.096  16.867   0.289
95145W        W66871  28.272  20.982   0.308
95146W        W66872  40.844  23.729   1.313
95147W        W66873  23.603   0.811  14.955
95148W        W66874  30.184  36.382   1.225
95149W        W66875   2.985   4.650  13.583
95150W        W66876  13.765   7.723  14.663
95151W        W66877  38.510   5.832   3.639
95152W        W66878  36.448  44.874  13.731
95153W        W66879  14.324   3.948  14.442
95154W        W66880  16.282  24.936   1.364
95155W        W66881  17.045   7.752   2.300
95156W        W66882  33.446  24.046  12.040
95157W        W66883  15.780  28.180  14.841
95158W        W66884  36.036  18.091  13.314
95159W        W66885   0.964  41.007   3.269
95160W        W66886  42.404  40.330   1.342
95161W        W66887  17.786  18.100  14.364
95162W        W66888  39.886  21.162   3.374
95163W        W66889  36.595  37.534   3.303
95164W        W66890  25.108  29.406  14.887
95165W        W66891  25.552  10.256  13.857
95166W        W66892  12.418  19.529   0.755
95167W        W66893  14.598  20.733  13.530
95168W        W66894  37.861  14.625   0.545
95169W        W66895  38.980  43.000   0.707
95170W        W66896   0.362  42.301  14.769
95171W        W66897   9.831  32.933   5.588
95172W        W66898  37.028  10.640  13.965
95173W        W66899  17.612  12.635   3.579
95174W        W66900   9.935   3.619  13.138
95175W        W66901  27.221  28.569  14.832
95176W        W66902   4.175  18.602   0.779
95177W        W66903  19.724  40.528   1.773
95178W        W66904  25.264  43.146  13.418
95179W        W66905  12.701  39.948  11.266
95180W        W66906  18.075  39.151   1.998
95181W        W66907   6.860  39.551  12.429
95182W        W66908  23.311  42.007   1.707
95183W        W66909  15.761   9.732  10.749
95184W        W66910  18.100  28.876   0.337
95185W        W66911  10.470  43.414   2.238
95186W        W66912  38.056  38.315  10.421
95187W        W66913  41.601   9.175   4.256
95188W        W66914  18.774   5.933   3.246
95189W        W66915   6.230  14.023  11.676
95190W        W66916  25.207   9.349   2.374
95191W        W66917  30.114   1.063   2.871
95192W        W66918  11.843  33.562   4.978
95193W        W66919  24.463  19.216   0.050
95194W        W66920  19.829  21.549  12.699
95195W        W66921  13.189  17.327  12.297
95196W        W66922  26.718  35.113   1.656
95197W        W66923  30.631  38.777  12.447
95198W        W66924  34.863  14.785  12.943
95199W        W66925  17.169  22.540   2.100
95200W        W66926  24.924  14.243  10.722
95201W        W66927  17.105  14.318   1.592
95202W        W66928  31.443  13.311  10.732
95203W        W66929  39.243  34.226   2.703
95204W        W66930  14.389   1.438  13.364
95205W        W66931   0.979  17.317   4.140
95206W        W66932  40.116  22.787  11.985
95207W        W66933  12.851   4.600   1.871
95208W        W66934   5.389  16.118   0.271
95209W        W66935   3.508   8.405  11.721
95210W        W66936  43.336  29.009  13.468
95211W        W66937  10.731  41.983   0.518
95212W        W66938  22.780  10.327   1.727
95213W        W66939  10.660  17.247   4.852
95214W        W66940  16.751  28.543  10.646
95215W        W66941   4.952   1.671   0.963
95216W        W66942  16.588  40.548  14.457
95217W        W66943  36.103  12.462   3.398
95218W        W66944  28.147   7.840   0.378
95219W        W66945  26.443  32.168  10.737
95220W        W66946  33.369  10.942  12.916
95221W        W66947  42.455  18.198  10.866
95222W        W66948  40.381  39.363   4.103
95223W        W66949  24.131  14.466   3.871
95224W        W66950  27.639  30.560  12.524
95225W        W66951  44.673  32.583  13.855
95226W        W66952  21.978  43.229  11.106
95227W        W66953  34.541  41.374   1.331
95228W        W66954  14.060  16.303   0.091
95229W        W66955  27.166   3.365   2.590
95230W        W66956  18.667  20.121   1.393
95231W        W66957  21.064  35.016   1.249
95232W        W66958   0.578  27.295  12.028
95233W        W66959  39.493   7.082  13.089
95234W        W66960  16.625  28.625   0.000
95235W        W66961  33.975  40.904  14.984
95236W        W66962  17.211   2.654  13.726
95237W        W66963  33.057  23.735   4.225
95238W        W66964  28.407  24.844  12.033
95239W        W66965  38.166  31.410   4.578
95240W        W66966  19.533  41.843   2.787
95241W        W66967  32.914  24.965   5.014
95242W        W66968  20.809  19.791  13.966
95243W        W66969  12.205  39.604  13.374
95244W        W66970  14.032  11.240   0.471
95245W        W66971  32.162  37.928  11.450
95246W        W66972  20.499  10.711   4.559
95247W        W66973   9.597  39.400  14.320
95248W        W66974  14.180   0.005   2.363
95249W        W66975   7.692  20.275   0.195
95250W        W66976  22.287   0.968   2.788
95251W        W66977  24.136  15.235  12.606
95252W        W66978  10.211  41.035   4.055
95253W        W66979  39.593  38.316  12.031
95254W        W66980   0.883  31.110  12.084
95255W        W66981  15.117  25.481   3.597
95256W        W66982  27.898  14.652   3.363
95257W        W66983  30.312  25.457   2.316
95258W        W66984  20.526   8.958   3.330
95259W        W66985  29.531  31.399   4.537
95260W        W66986  12.084  20.156   4.511
95261W        W66987  24.678  15.107   1.383
95262W        W66988  17.856  41.318   2.205
95263W        W66989   0.949  35.617   0.221
95264W        W66990  15.573  10.460  14.450
95265W        W66991  34.227  37.519   1.454
95266W        W66992  27.983  33.441   1.217
95267W        W66993  30.882  18.768   2.173
95268W        W66994  25.555   4.305   4.626
95269W        W66995  24.502  30.031   2.594
95270W        W66996   7.182   7.222  11.086
95271W        W66997  33.940  18.624   2.621
95272W        W66998  40.645  22.675   2.763
95273W        W66999  40.778  11.775   4.298
95274W        W67000  33.602  40.335   1.781
95275W        W67001  42.422  24.726   2.742
95276W        W67002   3.610  28.033   4.961
95277W        W67003  22.725   5.870   1.316
95278W        W67004  34.932  22.656  10.329
95279W        W67005   7.265  19.675   3.930
95280W        W67006  26.521  23.230   4.182
95281W        W67007  17.810  33.802  14.761
95282W        W67008  39.337  29.049  10.632
95283W        W67009  43.609  28.091   4.249
95284W        W67010  28.168  29.609  12.029
95285W        W67011   9.678   8.700   2.418
95286W        W67012  37.901  31.630   1.348
95287W        W67013  22.691   8.755  14.926
95288W        W67014  13.391  40.372   0.929
95289W        W67015  41.813  10.535  12.700
95290W        W67016  15.591  20.377   0.972
95291W        W67017  32.913  12.229  12.180
95292W        W67018  11.690  15.205   1.863
95293W        W67019   1.470   5.318   4.086
95294W        W67020  37.440  28.580  12.071
95295W        W67021  35.592  41.193  10.600
95296W        W67022  19.372  22.104   4.198
95297W        W67023  23.221  11.932  14.854
95298W        W67024  10.271  20.325   3.027
95299W        W67025  33.043   5.493  14.839
95300W        W67026  31.511  32.032   4.274
95301W        W67027  14.581  22.891  11.594
95302W        W67028  20.516   7.437   4.272
95303W        W67029  27.543  37.935   3.422
95304W        W67030   9.051  17.622   3.825
95305W        W67031   0.465  29.625   0.557
95306W        W67032  21.070  12.932   3.712
95307W        W67033  38.054  18.651   4.837
95308W        W67034  22.057  37.443  10.468
95309W        W67035   0.739   0.192   2.235
95310W        W67036   9.037  36.833   0.400
95311W        W67037  34.470  14.290   0.256
95312W        W67038  40.556   7.920  12.338
95313W        W67039  16.357  32.036   1.199
95314W        W67040  31.078  36.104  11.961
95315W        W67041   3.256  22.523  14.296
95316W        W67042  22.949  32.479  10.660
95317W        W67043   0.312  33.592  12.015
95318W        W67044  28.874   5.639  11.674
95319W        W67045  27.798  28.976   0.467
95320W        W67046   1.821  16.321  10.825
95321W        W67047  36.850   5.681   4.832
95322W        W67048   6.001  32.551   1.948
95323W        W67049  18.043  18.587   4.081
95324W        W67050   0.466  43.848  10.740
95325W        W67051   5.457  30.890   1.446
95326W        W67052  16.860  10.377  11.972
95327W        W67053  36.636  14.014  14.143
95328W        W67054  43.271  16.310   3.934
95329W        W67055  26.150  28.176  14.349
95330W        W67056  25.410  36.048  11.616
95331W        W67057  43.407   2.383   2.748
95332W        W67058  29.033  36.377  12.814
95333W        W67059  34.582  29.662   4.139
95334W        W67060   8.695  37.932   2.245
95335W        W67061   4.879  15.685  14.714
95336W        W67062  19.512  10.977   4.222
95337W        W67063  36.878  16.318   2.990
95338W        W67064  16.810  14.628   3.207
95339W        W67065  43.459   8.294  10.700
95340W        W67066  26.901  43.424  14.020
95341W        W67067  31.447  41.548   3.565
95342W        W67068  19.981  25.475  12.308
95343W        W67069  31.358  33.501   1.898
95344W        W67070   7.113  28.911  12.561
95345W        W67071  32.543  13.858  10.443
95346W        W67072  18.322  24.279   2.938
95347W        W67073   0.192  43.457  11.581
95348W        W67074  10.970  10.674   3.110
95349W        W67075  15.798   1.191   0.698
95350W        W67076   6.263  38.093   1.887
95351W        W67077  42.056  34.422   1.461
95352W        W67078  13.602  16.706  11.984
95353W        W67079  38.385  43.290  10.675
95354W        W67080  30.193  34.323   0.458
95355W        W67081  10.287  41.806   3.586
95356W        W67082   6.749  32.160   1.777
95357W        W67083   9.324   4.199  10.578
95358W        W67084  21.544  17.777   3.253
95359W        W67085  26.179  13.323  12.878
95360W        W67086  43.892  26.533   2.807
95361W        W67087  18.645  39.160  13.022
95362W        W67088  37.415  30.212   4.648
95363W        W67089  24.536  42.441   2.819
95364W        W67090  18.717  43.420  10.873
95365W        W67091  10.363   4.731   4.889
95366W        W67092  14.587  13.220   3.687
95367W        W67093  21.317  34.621   1.484
95368W        W67094  28.904  31.042   0.197
95369W        W67095  33.476   5.215  14.784
95370W        W67096  32.571  14.572  14.040
95371W        W67097  30.420   8.848   1.390
95372W        W67098  41.460   3.233  12.482
95373W        W67099   9.708   9.477  14.694
95374W        W67100  18.285  24.765   1.449
95375W        W67101   8.469  25.490  13.360
95376W        W67102  28.982  13.557   0.453
95377W        W67103   2.078   4.883  13.399
95378W        W67104  38.935  12.858   1.688
95379W        W67105   0.179  33.959   0.961
95380W        W67106  14.328   1.000   2.425
95381W        W67107  31.617  25.288  13.044
95382W        W67108  40.449  28.680   4.139
95383W        W67109  20.834  16.287  11.112
95384W        W67110  14.812  12.703  13.996
95385W        W67111  19.078  26.501  14.867
95386W        W67112   0.331  42.383  13.275
95387W        W67113   7.585  36.816  14.367
95388W        W67114  33.890  15.698  14.928
95389W        W67115   2.863  20.008   0.373
95390W        W67116   0.495  43.567  12.025
95391W        W67117  40.588  12.430   3.306
95392W        W67118  41.970  18.403   2.298
95393W        W67119   3.506   1.206  12.520
95394W        W67120  37.270   9.885   3.127
95395W        W67121   8.105  20.603  12.615
95396W        W67122  17.080  35.859   2.607
95397W        W67123  30.913  36.104  10.235
95398W        W67124  32.099  35.522  13.737
95399W        W67125  16.739  10.585   4.225
95400W        W67126  27.174  39.493  14.681
95401W        W67127  12.429  22.160   3.347
95402W        W67128  18.635   6.890  10.731
95403W        W67129  40.932  10.047  11.168
95404W        W67130  38.503  41.523   1.158
95405W        W67131  17.239  42.224   3.010
95406W        W67132   3.508  15.104   4.611
95407W        W67133   4.779  26.519  11.566
95408W        W67134  27.090  39.103   3.691
95409W        W67135  14.293  13.159  13.091
95410W        W67136  32.438   3.917  12.025
95411W        W67137  19.074  44.286  12.532
95412W        W67138  21.217  38.198   0.581
95413W        W67139  12.075  40.678   3.782
95414W        W67140  25.981   6.458  13.534
95415W        W67141  41.787  36.604  10.908
95416W        W67142  13.294  13.329   0.835
95417W        W67143   6.667   8.089   2.222
95418W        W67144  33.163  25.035   1.247
95419W        W67145  14.842  32.994  11.653
95420W        W67146  11.224  15.033   3.688
95421W        W67147  34.138  10.759   1.754
95422W        W67148  17.548  19.350  13.547
95423W        W67149  17.137  21.720   3.604
95424W        W67150  15.525  37.192   4.092
95425W        W67151   3.040  28.151   4.643
95426W        W67152  39.132  43.691   1.424
95427W        W67153  25.473  17.040  11.178
95428W        W67154  34.523  15.557  13.102
95429W        W67155  26.393  20.961  13.588
95430W        W67156  26.040  17.325  14.427
95431W        W67157  16.786  26.903   3.008
95432W        W67158   4.224   7.511   4.217
95433W        W67159  13.236  44.222   3.365
95434W        W67160  15.561  40.513  11.067
95435W        W67161  31.573  27.062   4.034
95436W        W67162  30.031  14.625   0.028
95437W        W67163  23.115  22.277   2.294
95438W        W67164   7.126  14.081   4.881
95439W        W67165  23.552   7.168  11.129
95440W        W67166  25.621  12.831  14.313
95441W        W67167  40.668   3.475  11.183
95442W        W67168  31.683  37.739   4.623
95443W        W67169  44.488  43.301   3.147
95444W        W67170  23.943  36.530  14.845
95445W        W67171  34.512  33.948  11.915
95446W        W67172  21.098  25.811   4.577
95447W        W67173  20.248  24.000   0.302
95448W        W67174  13.085  23.547  10.348
95449W        W67175  34.232   1.573   1.184
95450W        W67176  37.469  30.681   2.754
95451W        W67177  11.731  10.358  11.089
95452W        W67178  31.149  20.013   1.706
95453W        W67179  26.710  10.733  12.785
95454W        W67180   0.240  14.497   3.595
95455W        W67181  36.952  43.536   3.141
95456W        W67182  42.205  34.091   1.837
95457W        W67183  24.110  38.986   3.870
95458W        W67184  36.629  29.854   4.895
95459W        W67185   0.255  17.747  12.857
95460W        W67186  42.985  35.524   0.344
95461W        W67187  20.261  28.448   2.721
95462W        W67188   3.960  17.251  14.987
95463W        W67189  24.502  26.066  12.199
95464W        W67190  19.170  39.023  14.003
95465W        W67191  41.904  42.004   3.580
95466W        W67192  30.897  14.344  11.949
95467W        W67193  43.373  14.329   0.369
95468W        W67194   0.476  20.215   4.551
95469W        W67195  17.627  12.270  13.136
95470W        W67196   9.861   1.921  13.150
95471W        W67197  27.101  35.719   2.209
95472W        W67198  33.072  39.966  11.496
95473W        W67199  15.452  18.240   2.302
95474W        W67200  41.865  15.357  13.126
95475W        W67201  43.815  18.704  13.908
95476W        W67202  11.640  41.830  12.612
95477W        W67203  31.156   1.861   5.094
95478W        W67204  37.147   5.879  11.189
95479W        W67205  32.970  32.934  12.597
95480W        W67206   2.012  40.374   4.640
95481W        W67207   2.899  27.185  12.965
95482W        W67208  14.511  10.306   3.603
95483W        W67209  42.084  17.476  11.514
95484W        W67210  25.101  25.588  12.072
95485W        W67211   9.993  29.738  13.873
95486W        W67212  20.014  20.333   3.833
95487W        W67213  33.413  14.195  10.921
95488W        W67214   0.266   3.902   2.242
95489W        W67215  39.828  23.521   4.097
95490W        W67216  43.962  35.553   2.332
95491W        W67217  37.172  11.313   4.090
95492W        W67218   9.337  42.932  13.335
95493W        W67219  20.880   9.133   0.750
95494W        W67220  40.274   8.445  10.408
95495W        W67221  10.708  42.591  11.869
95496W        W67222  15.601  43.451  14.463
95497W        W67223  32.524  31.124   2.678
95498W        W67224  36.027  42.855  11.569
95499W        W67225  23.908   8.136  12.063
95500W        W67226  37.003  38.564  10.983
95501W        W67227  40.840  20.835   2.823
95502W        W67228  31.744  35.923  11.649
95503W        W67229  32.133  10.916   0.918
95504W        W67230  36.855  38.127   0.408
95505W        W67231  34.027  43.737  10.151
95506W        W67232  10.756  29.239  12.005
95507W        W67233   1.721  15.225   0.254
95508W        W67234  32.090  16.850  14.757
95509W        W67235  17.102   1.332   2.060
95510W        W67236  41.983   0.409  11.884
95511W        W67237   5.240  18.043   1.360
95512W        W67238  11.352  32.932  13.992
95513W        W67239  35.268  40.929  14.043
95514W        W67240  33.143  33.091  13.988
95515W        W67241  16.253  27.260   3.751
95516W        W67242  17.113  37.471  12.062
95517W        W67243  19.064  14.039   4.243
95518W        W67244  41.538  17.004   0.856
95519W        W67245   9.248   8.262  12.538
95520W        W67246   7.208   8.436   0.845
95521W        W67247  39.749   4.877  13.018
95522W        W67248   8.155   4.816  10.022
95523W        W67249  19.847  32.010   3.544
95524W        W67250  11.043  28.724   0.902
95525W        W67251   6.194  38.025  13.559
95526W        W67252   4.182  42.347   1.958
95527W        W67253  29.864  43.551   2.827
95528W        W67254  23.647   2.447   1.816
95529W        W67255  13.324   0.664   1.526
95530W        W67256  27.874  18.669  10.960
95531W        W67257  32.193   8.373   3.247
95532W        W67258   5.604   2.787  13.846
95533W        W67259  29.905  16.663   4.390
95534W        W67260  34.573  21.192  14.042
95535W        W67261  25.240   9.538  14.933
95536W        W67262  25.967  12.636  12.495
95537W        W67263   6.631   4.220  10.135
95538W        W67264  36.500  24.154   3.158
95539W        W67265  33.121  11.799   2.722
95540W        W67266  41.909  17.350   2.320
95541W        W67267  23.231  30.122   3.776
95542W        W67268  31.595  15.093   0.299
95543W        W67269  34.777  19.143  14.376
95544W        W67270  33.567  38.170  12.597
95545W        W67271  18.571  34.039   3.799
95546W        W67272  41.423  28.252   2.870
95547W        W67273  19.772  31.546  10.685
95548W        W67274   4.174  25.154   2.849
95549W        W67275  41.606  11.182  13.868
95550W        W67276  37.416  33.621  11.896
95551W        W67277   4.170   1.477   3.256
95552W        W67278  43.919  16.963   2.636
95553W        W67279  16.597  23.295  13.568
95554W        W67280  13.064  42.744  13.033
95555W        W67281  37.839  33.404  12.084
95556W        W67282  43.294  35.615   0.765
95557W        W67283   8.726  26.933   2.318
95558W        W67284  37.092  13.101  14.362
95559W        W67285  38.467  16.716  11.654
95560W        W67286  38.039  26.995   1.524
95561W        W67287  44.251  18.747  12.434
95562W        W67288  27.222  29.752  11.110
95563W        W67289  19.228  19.522   0.417
95564W        W67290  26.037  10.109  14.893
95565W        W67291  36.834  26.121  14.735
95566W        W67292  31.637  34.591   2.158
95567W        W67293  43.018   2.002   3.625
95568W        W67294  25.055  10.764  11.217
95569W        W67295  41.758  44.202   0.309
95570W        W67296  12.330  11.298   0.008
95571W        W67297   5.384  21.367   1.441
95572W        W67298  32.122   1.412  14.045
95573W        W67299   0.306  16.884  13.351
95574W        W67300  12.792  26.125  14.959
95575W        W67301  35.455   8.873  11.401
95576W        W67302  37.565   6.162  11.158
95577W        W67303   4.245  40.138   3.812
95578W        W67304  10.785  42.313  14.748
95579W        W67305  27.117  38.397  12.662
95580W        W67306  12.221  14.712   2.268
95581W        W67307   5.561   0.665   1.781
95582W        W67308   3.587  29.895   1.315
95583W        W67309  27.131  32.826   2.269
95584W        W67310   4.715  11.774  11.174
95585W        W67311  18.053  44.587   3.284
95586W        W67312  29.160  26.794  14.958
95587W        W67313  25.457  28.587  12.830
95588W        W67314  41.284   8.896  12.543
95589W        W67315  36.874  44.792  12.045
95590W        W67316  26.893  39.540   3.886
95591W        W67317  25.515  13.598   1.266
95592W        W67318   8.092  32.418   1.768
95593W        W67319  43.989  11.758  12.403
95594W        W67320  25.553  21.041   1.884
95595W        W67321  27.031  29.921   1.326
95596W        W67322   7.786  37.999  13.256
95597W        W67323  33.102  35.332  12.429
95598W        W67324  13.321  11.802   0.855
95599W        W67325  37.540  26.152  11.204
95600W        W67326  44.684  39.016   0.860
95601W        W67327  12.571  44.204  13.162
95602W        W67328   4.046  44.434   3.618
95603W        W67329  40.384  18.371  13.810
95604W        W67330  15.097  33.616   0.821
95605W        W67331  31.594  39.106  10.692
95606W        W67332   1.498  31.088   3.137
95607W        W67333  14.362   3.798   0.480
95608W        W67334  39.329  34.833   2.829
95609W        W67335  44.555  34.096  14.521
95610W        W67336   6.174  23.305   1.267
95611W        W67337   3.802   8.636  12.547
95612W        W67338  35.434  28.486  10.780
95613W        W67339  15.280  38.861   1.170
95614W        W67340   8.127  35.623   0.959
95615W        W67341  33.967   8.865  11.521
95616W        W67342  16.255   1.650  12.161
95617W        W67343  23.011  17.825   2.757
95618W        W67344   0.727  27.413  10.398
95619W        W67345  38.549  34.990   0.502
95620W        W67346  43.958  42.521  14.522
95621W        W67347  25.611  27.547  12.640
95622W        W67348  21.727  20.319  13.511
95623W        W67349  11.777   5.265  11.146
95624W        W67350  24.105  30.548  13.406
95625W        W67351  20.031  26.314  10.988
95626W        W67352  10.644  39.599   1.253
95627W        W67353  25.488  17.786   3.593
95628W        W67354   5.921  17.736  13.861
95629W        W67355  36.074  35.965  13.027
95630W        W67356  36.186   1.269   2.759
95631W        W67357   3.982  12.233  12.995
95632W        W67358  28.471   1.980  12.780
95633W        W67359  20.602  24.048   4.182
95634W        W67360  28.592   4.769  14.712
95635W        W67361  37.147  31.713  13.076
95636W        W67362  30.578  18.325  13.651
95637W        W67363  42.690  44.107  14.441
95638W        W67364   1.503  22.323  12.922
95639W        W67365  24.992   4.254  11.057
95640W        W67366  18.293  12.580   3.125
95641W        W67367  38.547  29.571  10.779
95642W        W67368  17.367  13.859  11.950
95643W        W67369  26.402  19.037   2.627
95644W        W67370   6.133  16.367  10.499
95645W        W67371  32.082  13.430   3.321
95646W        W67372  14.403  37.476  14.500
95647W        W67373  15.692  30.950   3.120
95648W        W67374  40.936  12.397   1.229
95649W        W67375  16.820  29.862  10.703
95650W        W67376  42.061   0.855   2.524
95651W        W67377  44.991  22.232  13.817
95652W        W67378  26.931   7.348  14.757
95653W        W67379  30.238  41.817   4.866
95654W        W67380  14.614  40.595  14.431
95655W        W67381  26.216  15.636  10.528
95656W        W67382  14.539  36.643   0.617
95657W        W67383  38.823  36.460   0.983
95658W        W67384  38.170   1.930   3.482
95659W        W67385   1.291   3.953  11.477
95660W        W67386  15.142  29.402   2.132
95661W        W67387  17.025  37.817   1.937
95662W        W67388  32.047   6.311   3.702
95663W        W67389   4.476   7.531   2.120
95664W        W67390  43.743  19.309   0.918
95665W        W67391  22.701  34.092   0.491
95666W        W67392  41.590  25.680  14.410
95667W        W67393  32.709  11.645  14.860
95668W        W67394  30.593  34.766  14.948
95669W        W67395  42.486  30.939   3.150
95670W        W67396  31.508   9.311  13.022
95671W        W67397  17.418   8.870   0.317
95672W        W67398  13.781  35.666  14.760
95673W        W67399  17.686   9.430  11.117
95674W        W67400   1.826  19.389   0.787
95675W        W67401  33.592   1.716   0.609
95676W        W67402  10.777   8.406  12.634
95677W        W67403   9.423  41.748   3.154
95678W        W67404  20.772  17.608  14.812
95679W        W67405  30.942   2.486   1.316
95680W        W67406   5.207  26.874  11.577
95681W        W67407  29.192  36.080  11.945
95682W        W67408  40.247  37.736   4.967
95683W        W67409  21.012   9.568   3.918
95684W        W67410  36.916   7.712   3.190
95685W        W67411  10.346   9.403  11.639
95686W        W67412   9.168  36.445   0.825
95687W        W67413  44.461  32.168  14.376
95688W        W67414   7.895  34.629  10.691
95689W        W67415  18.681  10.440   3.626
95690W        W67416  14.025  35.401   2.189
95691W        W67417  15.530  15.152   2.851
95692W        W67418  14.340  43.016  11.611
95693W        W67419  42.799  11.824  14.445
95694W        W67420  17.748  11.919  12.123
95695W        W67421  23.082  41.350  11.061
95696W        W67422  25.512  32.891   2.915
95697W        W67423   8.610  35.585   5.017
95698W        W67424  41.807  17.763   3.194
95699W        W67425  21.964  43.222   1.863
95700W        W67426  11.097  38.485   0.873
95701W        W67427  35.855  14.204   0.792
95702W        W67428  29.010  22.791  11.520
95703W        W67429   4.941  35.566   1.790
95704W        W67430  11.287  18.340  12.377
95705W        W67431  18.357  25.235   3.555
95706W        W67432   1.426  37.886   0.980
95707W        W67433   6.412  37.624  13.282
95708W        W67434  34.865  12.470  10.691
95709W        W67435  11.812   8.754  14.812
95710W        W67436  28.884  30.033   1.278
95711W        W67437  17.540  44.264   3.191
95712W        W67438  27.610  14.174  14.050
95713W        W67439  18.164   4.044  12.705
95714W        W67440  24.885  24.522   1.696
95715W        W67441  24.753  31.652  14.743
95716W        W67442  17.709  11.933   2.307
95717W        W67443   6.868   7.204   2.628
95718W        W67444  12.085   5.975   1.354
95719W        W67445   4.969  10.399  14.407
95720W        W67446  33.989  32.637   2.569
95721W        W67447  20.728  10.217  10.879
95722W        W67448  26.219  42.505  10.400
95723W        W67449  19.355  12.288   1.747
95724W        W67450  33.639   1.249   4.193
95725W        W67451  36.861  31.549  13.512
95726W        W67452  10.575   6.022   4.397
95727W        W67453   0.198   2.767   0.921
95728W        W67454  43.029   8.907   3.058
95729W        W67455  12.142  44.035   4.283
95730W        W67456  26.019  30.773   0.510
95731W        W67457  10.383  13.704  14.038
95732W        W67458  34.329  26.724  13.895
95733W        W67459  34.243   2.869  14.385
95734W        W67460  33.387   2.338   3.674
95735W        W67461  26.969   6.913  14.389
95736W        W67462  21.037  35.749   2.246
95737W        W67463  20.646  26.669   2.003
95738W        W67464  33.179  22.233  14.978
95739W        W67465  35.573  38.817   4.694
95740W        W67466   5.594   4.471   2.728
95741W        W67467   5.671  37.386  13.468
95742W        W67468  15.756   4.711   2.652
95743W        W67469  25.176  30.492  10.793
95744W        W67470   5.778  28.172  14.888
95745W        W67471  22.999   3.787  14.066
95746W        W67472  16.994  32.890  12.477
95747W        W67473  11.384  31.017  13.845
95748W        W67474  44.400  42.253   1.250
95749W        W67475  29.450  19.093  11.579
95750W        W67476  28.518  16.187   2.880
95751W        W67477  15.253  18.522   1.673
95752W        W67478  15.291  35.816   4.237
95753W        W67479  25.904  32.641   4.668
95754W        W67480  14.303  29.987  13.822
95755W        W67481  15.220  36.799   4.277
95756W        W67482  20.598  39.917   3.668
95757W        W67483  43.683  13.951   1.844
95758W        W67484   1.429   8.677  11.717
95759W        W67485  43.451  18.708   4.650
95760W        W67486  28.077  29.491   2.834
95761W        W67487  35.920   3.191  13.642
95762W        W67488   5.166  32.520   2.777
95763W        W67489  11.127   3.645  13.404
95764W        W67490  34.133  12.690  13.413
95765W        W67491  24.382   8.462   4.910
95766W        W67492  11.073   7.570  11.016
95767W        W67493   4.827  25.986   1.397
95768W        W67494  43.529  10.610   4.092
95769W        W67495  27.494  44.517   2.933
95770W        W67496  26.080  20.477  11.522
95771W        W67497  32.475   6.074  14.394
95772W        W67498  14.358   1.354   1.798
95773W        W67499  30.885  11.090  14.039
95774W        W67500   3.717  42.820   2.655
95775W        W67501  35.968  29.489  10.758
95776W        W67502  42.959  14.308  10.792
95777W        W67503   2.852   1.995   3.371
95778W        W67504  36.081  17.177   1.707
95779W        W67505  36.561  42.069  11.178
95780W        W67506  18.020   2.659   3.787
95781W        W67507  20.781  28.144  14.531
95782W        W67508  32.361  42.440   0.754
95783W        W67509   1.534  27.645  10.669
95784W        W67510   1.244  24.408  11.973
95785W        W67511  23.191  23.608   0.961
95786W        W67512  31.193  16.373  12.542
95787W        W67513   7.747  12.701   1.457
95788W        W67514  23.581  16.757  12.564
95789W        W67515  19.153  36.148  11.529
95790W        W67516  25.172  25.498  11.583
95791W        W67517  25.115   1.502   2.781
95792W        W67518  34.582  31.118   0.276
95793W        W67519   9.586  17.767  13.911
95794W        W67520   1.534   1.007  12.636
95795W        W67521   4.449  21.680   0.066
95796W        W67522  24.351  33.177   3.689
95797W        W67523  44.030  14.328   2.148
95798W        W67524  21.640   7.006   0.186
95799W        W67525  19.170   5.367  14.295
95800W        W67526   9.395   8.699  13.901
95801W        W67527   0.762   1.921   4.629
95802W        W67528  33.591  43.329  12.890
95803W        W67529  30.713  36.576   3.679
95804W        W67530   6.493   6.382  12.093
95805W        W67531   0.965  25.055   0.867
95806W        W67532  16.316   4.382  13.059
95807W        W67533  37.771  27.441  11.106
95808W        W67534  20.512  37.772  12.669
95809W        W67535   6.829   7.734  11.510
95810W        W67536  11.223  37.773   1.220
95811W        W67537  37.789   2.060  10.689
95812W        W67538   1.279  21.363  13.781
95813W        W67539  37.065   1.657   1.586
95814W        W67540  37.089   3.760   1.783
95815W        W67541  29.630  38.322  10.685
95816W        W67542  37.258   9.640  10.769
95817W        W67543   1.493  36.794  14.009
95818W        W67544   2.164   0.822  14.899
95819W        W67545   3.280   3.914   1.616
95820W        W67546  42.851   3.807  10.530
95821W        W67547  42.356  12.089  14.552
95822W        W67548  17.521  41.854  12.848
95823W        W67549  27.807  37.771  13.986
95824W        W67550   2.188  44.305   4.867
95825W        W67551  10.201  22.293  14.229
95826W        W67552   3.816  11.901   1.148
95827W        W67553  15.236  25.910  13.389
95828W        W67554  20.488  23.652  14.957
95829W        W67555   1.240   9.898   3.252
95830W        W67556  21.121  42.440  11.669
95831W        W67557  22.393  32.381  12.727
95832W        W67558  14.052  12.398   3.534
95833W        W67559  22.305  15.925   2.733
95834W        W67560  18.657   8.927   5.072
95835W        W67561  39.567  40.268   4.908
95836W        W67562  18.858  34.022   4.789
95837W        W67563  24.074  13.081   1.849
95838W        W67564  41.118  22.875  14.802
95839W        W67565   8.925  40.009  14.193
95840W        W67566  10.731  14.947   2.109
95841W        W67567   1.759  26.272   0.471
95842W        W67568  36.030  44.499  12.902
95843W        W67569  42.129   6.914  12.543
95844W        W67570  39.997  26.233  11.740
95845W        W67571  28.026  35.387  11.499
95846W        W67572  26.440  34.425   3.311
95847W        W67573   6.620   7.852   0.439
95848W        W67574  39.927  13.080   4.103
95849W        W67575  23.598  18.827  10.822
95850W        W67576  36.367  43.514  13.274
95851W        W67577  32.500  22.774   1.731
95852W        W67578  43.376   7.952  11.963
95853W        W67579  38.366  44.128   1.744
95854W        W67580   5.928  27.125  13.021
95855W        W67581  19.287  28.653   0.165
95856W        W67582  43.899   3.951  10.652
95857W        W67583   7.489  29.370   5.145
95858W        W67584  18.286   6.655  14.954
95859W        W67585  39.940  23.019   2.817
95860W        W67586  25.698  19.949  11.115
95861W        W67587   2.944   1.023  14.321
95862W        W67588  30.191   9.437   0.012
95863W        W67589  23.620  26.677  10.701
95864W        W67590  37.860  17.545   2.306
95865W        W67591  17.628  33.878   3.587
95866W        W67592  27.527   7.445   2.281
95867W        W67593  33.718  30.060   2.339
95868W        W67594  14.787  24.496  11.854
95869W        W67595  38.359  44.549   1.419
95870W        W67596   7.930  20.685   4.542
95871W        W67597   5.580  27.533  11.390
95872W        W67598  23.497  11.160  14.568
95873W        W67599  39.606  15.451  11.467
95874W        W67600   7.072  22.925  14.527
95875W        W67601   4.894   6.856   1.030
95876W        W67602  38.481  25.040  11.539
95877W        W67603  11.735  18.866   3.742
95878W        W67604  16.225  13.245   0.905
95879W        W67605  10.689  41.725   2.786
95880W        W67606  18.039  25.145  14.890
95881W        W67607  26.037  28.529   3.128
95882W        W67608  18.205   9.898  11.862
95883W        W67609  15.580  18.593  12.471
95884W        W67610  27.834  12.797   9.923
95885W        W67611  36.166  19.888   3.144
95886W        W67612  28.281  11.251   0.873
95887W        W67613  16.637  31.102  11.213
95888W        W67614  34.910   2.165  10.566
95889W        W67615   7.814  38.066  10.568
95890W        W67616  10.176  42.383   1.826
95891W        W67617  16.836  18.309  10.738
95892W        W67618  19.555  36.607  13.041
95893W        W67619  36.013  39.841  10.960
95894W        W67620  27.507  11.556  14.358
95895W        W67621  33.682  11.917   0.977
95896W        W67622  36.552  34.675   0.987
95897W        W67623   6.392  23.896   3.364
95898W        W67624   2.991  15.683  14.978
95899W        W67625   1.455   3.164   4.234
95900W        W67626   3.225  21.175  11.460
95901W        W67627  39.318  22.553   3.233
95902W        W67628  20.355  28.471  14.492
95903W        W67629  32.597  27.475   4.604
95904W        W67630   1.410   3.322  13.149
95905W        W67631  11.194  14.894  11.481
95906W        W67632  42.332  40.131  14.401
95907W        W67633  39.094  13.631   0.518
95908W        W67634   6.904  43.269   3.763
95909W        W67635  35.892  35.855   1.136
95910W        W67636  21.982  29.919   0.821
95911W        W67637  13.717   6.944  13.848
95912W        W67638  38.421   4.009  13.123
95913W        W67639   9.707  27.199   1.340
95914W        W67640  33.806  44.348   3.319
95915W        W67641   2.755  10.444   3.604
95916W        W67642   9.791  42.612  12.494
95917W        W67643   6.262  14.641   4.027
95918W        W67644  13.803   3.364  12.895
95919W        W67645  41.568  44.280  11.272
95920W        W67646  28.961  22.248   2.961
95921W        W67647  44.340  40.267   4.579
95922W        W67648  25.047  10.078  14.953
95923W        W67649  31.687  25.183   1.388
95924W        W67650   8.187   2.241  13.512
95925W        W67651  40.851  11.577  11.192
95926W        W67652   9.711   4.787  12.945
95927W        W67653  18.622  20.803  14.467
95928W        W67654  18.266  23.658  10.600
95929W        W67655   2.522  40.257   3.302
95930W        W67656  24.104  42.828   2.202
95931W        W67657  25.094  38.707  11.443
95932W        W67658  18.655  29.621   1.776
95933W        W67659   3.306  28.214   2.891
95934W        W67660  28.435  32.356  14.818
95935W        W67661   3.667  34.997  11.244
95936W        W67662  36.536  39.790  12.574
95937W        W67663   9.186  34.416   2.322
95938W        W67664  15.098  41.268  14.857
95939W        W67665  44.044  28.347  12.861
95940W        W67666  14.304  20.514   3.065
95941W        W67667  38.830  31.706  11.463
95942W        W67668  35.490   5.513  13.908
95943W        W67669  24.475   3.037  10.837
95944W        W67670  22.220  43.389   3.915
95945W        W67671  32.959  34.116   0.472
95946W        W67672  38.528  11.769   1.338
95947W        W67673  34.347  34.841  12.620
95948W        W67674  16.435  30.566   2.397
95949W        W67675  10.451  43.917   3.927
95950W        W67676  10.186   3.586   4.187
95951W        W67677  34.138  31.621   3.353
95952W        W67678  34.809   8.251   0.406
95953W        W67679   1.465  41.329   2.155
95954W        W67680  18.698  23.072  11.559
95955W        W67681   6.371  16.643   4.987
95956W        W67682  42.802  21.144   2.287
95957W        W67683  37.595  42.450  11.073
95958W        W67684   8.632  23.885   0.213
95959W        W67685   0.122  25.662  11.442
95960W        W67686  44.074  12.627  11.166
95961W        W67687   2.704   2.429   0.210
95962W        W67688  39.971  36.597  10.716
95963W        W67689   2.477   5.332  10.652
95964W        W67690  17.387  39.012   0.469
95965W        W67691  30.066  24.044   3.295
95966W        W67692  33.613   0.091   0.838
95967W        W67693  43.421   1.270  10.545
95968W        W67694  19.851  34.376  10.738
95969W        W67695  42.283  19.132   3.016
95970W        W67696  11.228  25.920   2.738
95971W        W67697   8.465  15.552   5.076
95972W        W67698  22.624  44.047   3.966
95973W        W67699  33.940  35.896   5.135
95974W        W67700  16.150  31.846  14.141
95975W        W67701  20.967  35.585  11.089
95976W        W67702  25.825  22.746  13.320
95977W        W67703  11.609  24.129   0.774
95978W        W67704  19.190   9.868   2.647
95979W        W67705   9.803  15.593   4.230
95980W        W67706  17.331  36.168  11.959
95981W        W67707  18.052  31.089   1.653
95982W        W67708   9.422  13.574  12.069
95983W        W67709  11.806  25.550   1.807
95984W        W67710  39.725  39.307   3.494
95985W        W67711  37.129   7.033  14.501
95986W        W67712   3.487  10.248   3.235
95987W        W67713  42.961   8.625  11.559
95988W        W67714   0.799  40.786  14.740
95989W        W67715   5.601  11.262   3.536
95990W        W67716   5.867  21.711   2.418
95991W        W67717   1.210  42.399   3.722
95992W        W67718  18.812  14.365  10.912
95993W        W67719  14.265  23.516  13.940
95994W        W67720   4.302   8.343  14.676
95995W        W67721  22.957   8.277   4.137
95996W        W67722  27.523  43.784   0.333
95997W        W67723  41.520  20.605  13.068
95998W        W67724  25.584  10.731   3.381
95999W        W67725   9.509  17.810   3.604
96000W        W67726   3.613  32.068   0.860
96001W        W67727   9.400   5.396   0.168
96002W        W67728  11.285  41.949  14.790
96003W        W67729   7.159  16.240   5.009
96004W        W67730  18.183  24.196   0.752
96005W        W67731  32.561  11.273  14.509
96006W        W67732  32.515  24.917  10.671
96007W        W67733  20.565  19.388   0.858
96008W        W67734  35.387  37.067  10.802
96009W        W67735   7.459  25.608   2.172
96010W        W67736  28.780  39.054  10.632
96011W        W67737  22.238  12.249  12.314
96012W        W67738  13.443   1.370  14.912
96013W        W67739  28.947  33.671  14.936
96014W        W67740   1.778  32.447  12.327
96015W        W67741  29.943  40.245   2.969
96016W        W67742  19.590  41.381   0.001
96017W        W67743  11.200  42.075   4.405
96018W        W67744  37.494  32.514   3.886
96019W        W67745  23.060   9.827   3.032
96020W        W67746  41.011   7.386  12.069
96021W        W67747  41.073  35.067  14.943
96022W        W67748   7.356   0.451   0.420
96023W        W67749  12.998  33.664   9.880
96024W        W67750  12.125  18.808  13.261
96025W        W67751  32.202  31.654  14.942
96026W        W67752  17.094  37.641  13.802
96027W        W67753  10.216   0.973   3.853
96028W        W67754  11.288  36.553  11.735
96029W        W67755  39.865  30.563   4.403
96030W        W67756  42.437  40.034   0.337
96031W        W67757   8.584   5.138   3.788
96032W        W67758  38.822  26.303   5.024
96033W        W67759  39.413  16.351   4.202
96034W        W67760  13.530  28.615   0.865
96035W        W67761  21.038  33.581   3.116
96036W        W67762  34.073  18.684  10.517
96037W        W67763  21.831  25.338  10.225
96038W        W67764   6.298  27.266   2.133
96039W        W67765  21.707   6.321   3.230
96040W        W67766   5.815   8.343  10.985
96041W        W67767  16.121   1.976  14.851
96042W        W67768  40.932  18.830   0.977
96043W        W67769   8.167  31.314   0.226
96044W        W67770  18.107  29.031   4.770
96045W        W67771  25.730  16.808  13.559
96046W        W67772   1.449   0.229   3.181
96047W        W67773  19.498   8.955  12.221
96048W        W67774   1.470  39.729  14.876
96049W        W67775  15.553  41.060   2.644
96050W        W67776  42.512  24.159  14.945
96051W        W67777  15.520  28.527   3.369
96052W        W67778  26.162  18.688   1.440
96053W        W67779   5.848   1.105  13.401
96054W        W67780  34.455  17.520   1.271
96055W        W67781   9.656  31.645   3.652
96056W        W67782   0.717  38.776   4.124
96057W        W67783  26.718  41.083  11.193
96058W        W67784  26.121  34.415   4.267
96059W        W67785  29.544  25.867   1.889
96060W        W67786  22.580  19.192  14.497
96061W        W67787   6.266  35.649   2.321
96062W        W67788  43.283  23.247   2.743
96063W        W67789   4.917  27.442   0.469
96064W        W67790   7.841  38.457  11.861
96065W        W67791  12.529  26.164   1.712
96066W        W67792  36.555  17.589  12.967
96067W        W67793  11.260   1.992  12.041
96068W        W67794  43.496  38.738  14.583
96069W        W67795  11.414  16.162   0.487
96070W        W67796   5.524  13.083   1.823
96071W        W67797  12.819  25.175  12.478
96072W        W67798  30.407   4.413   1.162
96073W        W67799  15.550   4.658   1.448
96074W        W67800  40.832   6.200  11.189
96075W        W67801  22.588  23.719   0.731
96076W        W67802  27.934  44.654   4.951
96077W        W67803   0.996  31.632   3.926
96078W        W67804  40.866  12.282  10.667
96079W        W67805  18.072  28.986   1.257
96080W        W67806  24.529  19.329   1.904
96081W        W67807   6.201  12.694  12.816
96082W        W67808  33.612   7.105  10.502
96083W        W67809  11.321  20.939   3.112
96084W        W67810  10.108  27.853  13.377
96085W        W67811   0.833  13.610   1.895
96086W        W67812  41.733  38.000   1.970
96087W        W67813   8.701   3.479   2.357
96088W        W67814  14.944   5.954  13.445
96089W        W67815  23.471  26.043   2.180
96090W        W67816  38.767   0.312  12.938
96091W        W67817  16.024  41.934   0.258
96092W        W67818  24.613  38.308  14.035
96093W        W67819  43.466  14.673   0.769
96094W        W67820  13.620  37.526   0.291
96095W        W67821  37.135  35.401  10.854
96096W        W67822  43.005   8.764   4.296
96097W        W67823  17.742  16.154   2.666
96098W        W67824  25.272  24.668  13.501
96099W        W67825  27.916   0.036   2.941
96100W        W67826   1.415  13.059   2.250
96101W        W67827  36.345   5.610  12.779
96102W        W67828  14.687  36.781  11.947
96103W        W67829  12.329  18.510  12.410
96104W        W67830  24.247  18.045  14.491
96105W        W67831  28.373  31.905   4.194
96106W        W67832   5.646   6.386   1.866
96107W        W67833  44.735   3.404   5.140
96108W        W67834  27.111  17.231   1.330
96109W        W67835  18.239  39.283  11.970
96110W        W67836  10.582  10.573   0.971
96111W        W67837  25.955  15.205  10.753
96112W        W67838  21.571  43.478   1.389
96113W        W67839  15.713  26.951   1.496
96114W        W67840  15.273  34.283  14.330
96115W        W67841  39.601  28.825   4.524
96116W        W67842  10.171  21.452   4.209
96117W        W67843  11.847  22.412   0.913
96118W        W67844  19.223   4.380   0.437
96119W        W67845   7.957  23.729  14.795
96120W        W67846   2.733  17.640  12.671
96121W        W67847  17.221   1.080   3.865
96122W        W67848  41.946   0.495  12.388
96123W        W67849  20.200   7.621   1.271
96124W        W67850  21.803  21.659   0.315
96125W        W67851  44.529  28.056   4.437
96126W        W67852   4.212  44.174  12.150
96127W        W67853   6.313  22.472  12.083
96128W        W67854  37.051  32.749  10.646
96129W        W67855  43.725  13.842  12.926
96130W        W67856  31.110   0.960   2.579
96131W        W67857  23.934  10.326   3.824
96132W        W67858  37.103  37.879   3.618
96133W        W67859  17.111  27.676  12.010
96134W        W67860  18.560  17.300  12.652
96135W        W67861   0.361  14.289   2.938
96136W        W67862  36.358  25.624   1.845
96137W        W67863   1.478  36.840  11.977
96138W        W67864  28.989  22.514   4.097
96139W        W67865  29.120  36.851  11.422
96140W        W67866  32.235  14.256   1.161
96141W        W67867  25.138   0.719   3.752
96142W        W67868  22.232  38.903  10.254
96143W        W67869  28.968  37.259   2.350
96144W        W67870   3.279   7.655   4.583
96145W        W67871   2.849   0.969   1.121
96146W        W67872  21.706  12.212   1.942
96147W        W67873  22.505   4.675  12.918
96148W        W67874   7.959  42.232   2.121
96149W        W67875  32.654   0.858  12.992
96150W        W67876   8.996  26.409  10.112
96151W        W67877  23.325  41.493  12.891
96152W        W67878  16.567  40.135   4.028
96153W        W67879  10.792  28.666   3.031
96154W        W67880  33.715  40.617  11.426
96155W        W67881   6.312  44.886   1.789
96156W        W67882  34.907  43.787   4.172
96157W        W67883  11.239  42.025  11.098
96158W        W67884  19.144  35.592  11.532
96159W        W67885   4.447  23.671   4.602
96160W        W67886  21.033  23.475  12.670
96161W        W67887  41.368  37.567   3.236
96162W        W67888  24.283  11.685   3.667
96163W        W67889   5.876   1.681  11.461
96164W        W67890  43.199  28.009  10.822
96165W        W67891  21.417   7.852  14.495
96166W        W67892  43.802  42.558  13.092
96167W        W67893  38.410  10.385   1.474
96168W        W67894   9.641  30.211  12.035
96169W        W67895  29.897   3.384   2.481
96170W        W67896  24.531  33.102  11.900
96171W        W67897   0.844  32.792   3.834
96172W        W67898  26.042  43.825  10.739
96173W        W67899  44.118   1.837  11.380
96174W        W67900  34.407  21.314   3.466
96175W        W67901  41.676  31.705   5.063
96176W        W67902  35.489  28.913  11.958
96177W        W67903  30.441   7.280   3.727
96178W        W67904  32.384   1.142  12.570
96179W        W67905  24.736  25.469   3.166
96180W        W67906  10.698   9.813   0.499
96181W        W67907  35.340  11.872   4.157
96182W        W67908  36.394  33.581  12.876
96183W        W67909  26.841  15.927   2.464
96184W        W67910  20.700   1.455  11.492
96185W        W67911  29.185  17.171   4.511
96186W        W67912  34.028  19.289   4.129
96187W        W67913   0.060  44.560   3.186
96188W        W67914  42.968   4.131  12.030
96189W        W67915   6.398  19.737  13.109
96190W        W67916  16.880  19.702  14.181
96191W        W67917  26.989  26.781  13.731
96192W        W67918  34.576  35.738   0.999
96193W        W67919  18.709  22.614  13.597
96194W        W67920   7.737   6.139  11.555
96195W        W67921   7.853   8.444  14.010
96196W        W67922  18.997   2.767   2.906
96197W        W67923   2.166   1.494   3.238
96198W        W67924   2.253  39.520  13.435
96199W        W67925  29.625  32.890   4.195
96200W        W67926  37.731   9.288   4.469
96201W        W67927  22.772  23.560  13.510
96202W        W67928  27.180  12.690  10.486
96203W        W67929  36.060   2.690   2.325
96204W        W67930  18.314  11.498  14.800
96205W        W67931  37.524  35.338  11.548
96206W        W67932  21.309  37.080   1.476
96207W        W67933   8.365  30.486  12.202
96208W        W67934  20.251  10.166  12.152
96209W        W67935   4.803  14.712   3.085
96210W        W67936  14.666  44.210   3.253
96211W        W67937  12.150  43.331   3.444
96212W        W67938  23.586  33.181   0.651
96213W        W67939  15.919  35.379   0.473
96214W        W67940  22.062  36.827  11.699
96215W        W67941   3.748  43.195   0.312
96216W        W67942  10.651  30.049   1.333
96217W        W67943   6.329   7.330   9.806
96218W        W67944  22.509  20.374   0.952
96219W        W67945  13.281  29.426   2.220
96220W        W67946  19.630  31.726  14.897
96221W        W67947   4.238  35.857  11.021
96222W        W67948  27.448   2.286   2.429
96223W        W67949  38.588  34.911  11.435
96224W        W67950  16.557  41.662  13.021
96225W        W67951  21.064  42.896   3.391
96226W        W67952  23.685   6.648  11.201
96227W        W67953  44.193   7.187   4.475
96228W        W67954   4.308  37.342   0.999
96229W        W67955   3.814  31.483  11.523
96230W        W67956  18.961  28.622  12.678
96231W        W67957  12.141   2.891   0.693
96232W        W67958  36.942   5.887   2.649
96233W        W67959  16.483  33.997  11.731
96234W        W67960  23.899  39.396  12.999
96235W        W67961  18.304  22.959   1.430
96236W        W67962  26.006   3.517   1.921
96237W        W67963   4.928  18.426  13.721
96238W        W67964  18.557  11.274   1.474
96239W        W67965  18.678  44.771  11.520
96240W        W67966  23.523  12.813  14.031
96241W        W67967  14.719  26.440   1.659
96242W        W67968  33.009  40.903   2.810
96243W        W67969  43.221  39.716  11.174
96244W        W67970  27.444   6.307   1.261
96245W        W67971  43.297   9.355  11.158
96246W        W67972  12.228  10.161   1.727
96247W        W67973  40.502  29.703  13.842
96248W        W67974  19.180   3.083  11.589
96249W        W67975  23.580   3.268  14.718
96250W        W67976   3.924  31.198  11.964
96251W        W67977  44.464   9.688   4.532
96252W        W67978   5.912  26.022  11.370
96253W        W67979  16.707  13.307  11.914
96254W        W67980  25.034  39.101  13.619
96255W        W67981   0.525  43.428  13.494
96256W        W67982  37.891   5.772   4.956
96257W        W67983  33.950  13.797   2.449
96258W        W67984  26.934  38.387   4.016
96259W        W67985  39.619  13.241  11.552
96260W        W67986  14.777  27.476   4.684
96261W        W67987  32.045  11.310  12.146
96262W        W67988   7.805  28.466   1.285
96263W        W67989  25.576   1.597   3.215
96264W        W67990  23.699   8.149   0.344
96265W        W67991  18.707  23.958  11.159
96266W        W67992  39.381  41.015  11.617
96267W        W67993   6.514  14.527   1.415
96268W        W67994   1.720   1.842  12.186
96269W        W67995  15.772  31.471   0.895
96270W        W67996  12.177  15.251   3.938
96271W        W67997  27.214   7.361  14.307
96272W        W67998  14.638  44.674   2.350
96273W        W67999   0.900  38.389   1.818
96274W        W68000   2.361  22.093   2.658
96275W        W68001   1.707  42.595  11.172
96276W        W68002  39.060   2.069  13.534
96277W        W68003  37.524  29.209  14.933
96278W        W68004  14.375   8.623   4.116
96279W        W68005  15.182  28.133  13.438
96280W        W68006  44.934  20.229  12.349
96281W        W68007  24.696   6.802  11.203
96282W        W68008  44.233  11.780   1.291
96283W        W68009  32.282  41.210   3.110
96284W        W68010   2.226  14.692  11.115
96285W        W68011  34.369  27.650   1.516
96286W        W68012   0.077   0.862  13.342
96287W        W68013  37.792  29.445   1.365
96288W        W68014   9.334   0.166   2.290
96289W        W68015  14.735   3.546  14.359
96290W        W68016  36.616  36.363  13.450
96291W        W68017  42.339  42.450   4.735
96292W        W68018  21.195  30.089  14.855
96293W        W68019  43.563  11.736  11.940
96294W        W68020  31.928  24.669  11.517
96295W        W68021  22.381  26.664  10.705
96296W        W68022  12.305  20.068   3.263
96297W        W68023  23.437  35.753   4.636
96298W        W68024   4.093   5.133   1.329
96299W        W68025  39.312  24.071   3.680
96300W        W68026  19.797   7.355   4.759
96301W        W68027  15.536  40.092  10.218
96302W        W68028  18.821  16.145   2.679
96303W        W68029  39.324  41.012   2.289
96304W        W68030  34.180   3.933   3.219
96305W        W68031   8.255  18.531  14.739
96306W        W68032   1.754  22.736  12.728
96307W        W68033  40.567  19.683  13.379
96308W        W68034  30.268  26.475   1.324
96309W        W68035  14.184   6.689  13.924
96310W        W68036  33.602   3.403   2.391
96311W        W68037  27.687  12.590  13.464
96312W        W68038  13.360   5.926  12.008
96313W        W68039  38.862  35.026  12.444
96314W        W68040  32.386  37.889   2.811
96315W        W68041  32.622  28.938   3.391
96316W        W68042  41.481  18.098   4.674
96317W        W68043  33.162  43.283  11.656
96318W        W68044  30.874   5.030  11.104
96319W        W68045   0.643  40.983  12.946
96320W        W68046  25.793  38.765  12.021
96321W        W68047  20.539  34.254  12.967
96322W        W68048  18.607  44.180   1.941
96323W        W68049  24.426  43.742   5.006
96324W        W68050  10.118  44.816  14.547
96325W        W68051   7.847  42.995   4.048
96326W        W68052   6.854   4.361   1.886
96327W        W68053   9.768  38.633   3.242
96328W        W68054  32.589   6.050   4.278
96329W        W68055  30.036   1.989   2.473
96330W        W68056   1.257  44.754   1.442
96331W        W68057  23.235   7.447  13.762
96332W        W68058  38.537  35.824   3.278
96333W        W68059  24.910   9.919  10.576
96334W        W68060  23.091   2.663   4.087
96335W        W68061  30.378  41.710  14.301
96336W        W68062  31.517  39.777   4.638
96337W        W68063   8.736  35.067  13.944
96338W        W68064  42.690  30.093  11.987
96339W        W68065  40.502  31.363   3.695
96340W        W68066  30.587  40.051  13.751
96341W        W68067  19.004   6.829  11.104
96342W        W68068  43.277  41.981  13.411
96343W        W68069  43.983  26.121  12.591
96344W        W68070  41.052  15.922   4.529
96345W        W68071  33.039  31.667  11.522
96346W        W68072  31.285   6.083   4.164
96347W        W68073  32.841   3.764   0.470
96348W        W68074   2.886  15.687  12.504
96349W        W68075   0.743  18.815  11.301
96350W        W68076  23.291  19.679  11.263
96351W        W68077   3.044  17.141  14.056
96352W        W68078  33.532  42.518  13.405
96353W        W68079  29.609   0.222   2.000
96354W        W68080   6.932   8.601  12.202
96355W        W68081  32.888  39.912   4.776
96356W        W68082  33.523  43.300   1.886
96357W        W68083  24.082  17.736  11.154
96358W        W68084  34.586  42.051   0.274
96359W        W68085  28.860  37.028   3.635
96360W        W68086  30.188   3.341   4.954
96361W        W68087  29.102  20.334  14.175
96362W        W68088  17.856  11.877   4.570
96363W        W68089  23.221  27.929   2.854
96364W        W68090  13.573  38.770   2.489
96365W        W68091  24.621  44.100  14.037
96366W        W68092  43.531  23.064   2.235
96367W        W68093  13.111  35.710  14.434
96368W        W68094  30.979   8.591  10.147
96369W        W68095  28.057   5.888  11.646
96370W        W68096  23.103   5.338   0.665
96371W        W68097  38.288  15.126  13.043
96372W        W68098  13.130   6.365   2.724
96373W        W68099  12.055  40.480  10.228
96374W        W68100  20.752   3.459   1.056
96375W        W68101  30.231  44.372   2.063
96376W        W68102  19.284   6.012  14.887
96377W        W68103   8.282  19.733  10.544
96378W        W68104  39.422  11.195   1.687
96379W        W68105  41.903  28.107   2.229
96380W        W68106  21.171  35.162   0.234
96381W        W68107  23.231  21.492  11.181
96382W        W68108  44.752  11.710   1.325
96383W        W68109  33.998  40.058  14.357
96384W        W68110  44.026  40.785  14.049
96385W        W68111  25.013  10.316   3.137
96386W        W68112  19.658  20.209  13.827
96387W        W68113  43.200  21.625  11.057
96388W        W68114  19.718   0.890   1.851
96389W        W68115   9.120  30.876  13.008
96390W        W68116   6.601   1.035   2.794
96391W        W68117  17.590  31.158  12.273
96392W        W68118   0.365   1.549  12.444
96393W        W68119  25.774   1.747  10.787
96394W        W68120  19.191  25.114   1.210
96395W        W68121  39.698   0.040   2.745
96396W        W68122  18.292   3.861  10.509
96397W        W68123  16.573  15.243   4.330
96398W        W68124   1.543  34.425   3.944
96399W        W68125  34.841   6.471  11.736
96400W        W68126  40.565  39.065   3.715
96401W        W68127   1.469  28.146   4.596
96402W        W68128  15.012  14.398   1.694
96403W        W68129  24.958   8.805  14.111
96404W        W68130  33.002   8.389   1.452
96405W        W68131  18.434  33.040   1.735
96406W        W68132  14.179  25.918  11.694
96407W        W68133  37.483  29.465  12.433
96408W        W68134  23.670  28.731   3.348
96409W        W68135  19.638   5.521   3.229
96410W        W68136  22.506  33.902  10.211
96411W        W68137  43.546  32.133  13.480
96412W        W68138  26.105  33.965   0.057
96413W        W68139  33.919  44.296  14.150
96414W        W68140   7.931   9.868  11.570
96415W        W68141   6.152  40.545  12.980
96416W        W68142  44.885  15.597   3.728
96417W        W68143  34.423  23.075  11.746
96418W        W68144  25.010  36.980   0.802
96419W        W68145  28.044  28.151   4.007
96420W        W68146   7.632   0.360  11.501
96421W        W68147   3.257   1.295  13.776
96422W        W68148   9.948  26.568  14.958
96423W        W68149   1.348  23.150   1.771
96424W        W68150   0.102  44.866   0.246
96425W        W68151   8.710  23.260  11.644
96426W        W68152  21.612  42.942  13.755
96427W        W68153  19.046  42.446   1.978
96428W        W68154  33.060  24.489  10.262
96429W        W68155  36.845  25.070   2.334
96430W        W68156  31.389  33.844  12.528
96431W        W68157   3.463  23.164  12.429
96432W        W68158  22.264  28.363   2.811
96433W        W68159   9.714   2.305   2.187
96434W        W68160  26.954  16.733   1.404
96435W        W68161  15.196  23.947   1.688
96436W        W68162  15.311  11.301   4.157
96437W        W68163   8.874  43.031  12.020
96438W        W68164  36.213  34.129   2.829
96439W        W68165  28.072  39.350  11.119
96440W        W68166  43.354  36.425   3.234
96441W        W68167  36.516   7.153  13.603
96442W        W68168   1.498  16.726  13.408
96443W        W68169   9.637  11.467   2.852
96444W        W68170  41.846  31.865  13.023
96445W        W68171  39.280  37.861   0.625
96446W        W68172   8.894  31.030  12.564
96447W        W68173   3.842   5.880   2.337
96448W        W68174  35.496  16.163  10.964
96449W        W68175  39.551  13.568  13.266
96450W        W68176  36.184  42.017  14.124
96451W        W68177  22.279  29.183   4.156
96452W        W68178  13.665   7.828   4.057
96453W        W68179  12.338   9.641   2.373
96454W        W68180  16.082   2.444   0.835
96455W        W68181  20.193  17.673  13.022
96456W        W68182  31.499  31.839  10.230
96457W        W68183  31.638  21.770   4.180
96458W        W68184  37.139  35.523   4.486
96459W        W68185   1.319  31.328  12.898
96460W        W68186  36.331  34.349   1.324
96461W        W68187  32.576   4.199  12.413
96462W        W68188  36.106  35.428  10.706
96463W        W68189  23.480  29.436  11.663
96464W        W68190  31.495   2.302   0.791
96465W        W68191  27.037   3.942   0.347
96466W        W68192  38.769   5.511   2.556
96467W        W68193   9.846  37.200   3.357
96468W        W68194   5.319  44.772   0.680
96469W        W68195  17.480   7.692  13.342
96470W        W68196  29.586   3.483  10.534
96471W        W68197  37.988  40.897  11.483
96472W        W68198  23.180  35.135   2.394
96473W        W68199  34.543   4.862  13.049
96474W        W68200   8.008  21.235   4.562
96475W        W68201  11.739  40.283  14.408
96476W        W68202  18.415  24.613  11.075
96477W        W68203  19.314   8.184  13.884
96478W        W68204  17.833  28.087   1.893
96479W        W68205  44.815  16.167  11.338
96480W        W68206  35.409   3.318  14.921
96481W        W68207  35.837  24.480   4.347
96482W        W68208  22.286  44.077  12.541
96483W        W68209  18.504   2.196  12.070
96484W        W68210   6.718  27.694  14.912
96485W        W68211  44.903   2.752  12.325
96486W        W68212  44.501  29.078  12.562
96487W        W68213   9.192   7.882   3.643
96488W        W68214  10.349   3.204   1.645
96489W        W68215  10.456  37.079  12.869
96490W        W68216  40.325  21.102  14.979
96491W        W68217  10.097  39.773   1.181
96492W        W68218   7.572   8.886  12.416
96493W        W68219  43.267  43.241  11.923
96494W        W68220  33.144  35.847   3.236
96495W        W68221   2.468  15.902  10.163
96496W        W68222   7.904  36.255   1.910
96497W        W68223  37.094  41.019  13.481
96498W        W68224   7.347  27.531  10.751
96499W        W68225   7.773  22.206  12.133
96500W        W68226  32.891  26.694  12.510
96501W        W68227   0.264  31.873  12.443
96502W        W68228  41.801  44.947  12.001
96503W        W68229  41.186  33.133   1.359
96504W        W68230  15.282  40.449   3.849
96505W        W68231  22.511   4.771  10.128
96506W        W68232  21.735  24.070  14.507
96507W        W68233  31.386  36.054  14.025
96508W        W68234  37.512  25.219   0.967
96509W        W68235   1.871  14.673  14.924
96510W        W68236  42.578  14.200   4.290
96511W        W68237  22.055   8.187  14.894
96512W        W68238  24.002   7.299  14.848
96513W        W68239  39.756  14.791   0.487
96514W        W68240  24.254  16.737   2.629
96515W        W68241  24.584  25.050  10.714
96516W        W68242  43.471  34.882   0.917
96517W        W68243  36.785   7.777  12.915
96518W        W68244   8.234  22.178   3.237
96519W        W68245  26.058  27.395  12.427
96520W        W68246  28.005  43.557  14.786
96521W        W68247  24.645  29.229   0.896
96522W        W68248   1.826   9.239  13.905
96523W        W68249   6.432  23.583  10.747
96524W        W68250  32.127   1.303   0.400
96525W        W68251   1.854  14.167   0.037
96526W        W68252  23.710  32.472  14.458
96527W        W68253  40.022  43.811   4.562
96528W        W68254   4.739  12.543   2.710
96529W        W68255  40.517   0.035  14.873
96530W        W68256  39.536  41.382  10.635
96531W        W68257  10.789  17.560  11.994
96532W        W68258   3.946  36.476  12.467
96533W        W68259  20.758  34.671  13.322
96534W        W68260  35.927   6.941  11.233
96535W        W68261  35.081  21.235   3.063
96536W        W68262  14.171   9.905   3.738
96537W        W68263   0.920   7.429   0.730
96538W        W68264  30.447  34.261  14.992
96539W        W68265  29.160  44.196  13.553
96540W        W68266  12.576  44.173   3.964
96541W        W68267  22.250  35.071  10.889
96542W        W68268  33.183  22.131  13.973
96543W        W68269  37.867  30.185  11.594
96544W        W68270   7.261  14.730   4.301
96545W        W68271  40.008  27.965  13.459
96546W        W68272   3.957  36.152  12.852
96547W        W68273  27.621  41.457  14.324
96548W        W68274  14.968  24.658  10.648
96549W        W68275  28.907  12.330  12.481
96550W        W68276  28.014  18.067   3.822
96551W        W68277   1.392  43.367   1.130
96552W        W68278   7.459  21.295  14.899
96553W        W68279  16.258  35.919   2.182
96554W        W68280  21.752   5.355   3.836
96555W        W68281  21.911   5.793   1.680
96556W        W68282   3.755   8.490   0.908
96557W        W68283  31.964   6.685  10.537
96558W        W68284  28.621  10.732   0.817
96559W        W68285  34.865  43.844   2.733
96560W        W68286   0.276  27.005   2.070
96561W        W68287  36.076  22.617   3.587
96562W        W68288  35.898  33.055   0.666
96563W        W68289  23.658  30.974   2.326
96564W        W68290  26.104  21.555  10.581
96565W        W68291   5.808  39.916  13.493
96566W        W68292  41.781  14.957   2.093
96567W        W68293  30.900  34.002  14.048
96568W        W68294  18.722  38.772   1.927
96569W        W68295  12.811  20.237  13.899
96570W        W68296   3.928  28.258   4.151
96571W        W68297  32.001  35.341  10.650
96572W        W68298  25.655  43.267  13.761
96573W        W68299  22.515  18.287   1.546
96574W        W68300   3.741  42.744   2.132
96575W        W68301  33.960  39.864  12.522
96576W        W68302  26.183  25.205   2.762
96577W        W68303  26.475   6.036  14.779
96578W        W68304  41.883  39.077  13.788
96579W        W68305  31.226  14.493  13.451
96580W        W68306  32.409  22.898   0.757
96581W        W68307  28.213  17.690  11.937
96582W        W68308  36.397  35.531   2.669
96583W        W68309  30.141  41.443  14.692
96584W        W68310  26.722  35.192  11.088
96585W        W68311  31.789  28.057  11.139
96586W        W68312  30.960   8.554  13.247
96587W        W68313   3.419   3.843  12.068
96588W        W68314  42.993   6.844  13.804
96589W        W68315  40.874  37.366  13.640
96590W        W68316  23.432  35.340  12.065
96591W        W68317  28.382   4.194   3.807
96592W        W68318  42.881  34.415   2.151
96593W        W68319   6.898  36.861  12.604
96594W        W68320  28.945  17.254  13.541
96595W        W68321  37.452  20.567  11.018
96596W        W68322  10.635  36.190   2.200
96597W        W68323   7.749   5.011   0.327
96598W        W68324  18.187  26.060   4.347
96599W        W68325  35.774   8.361  14.749
96600W        W68326  17.057  34.375  10.069
96601W        W68327  35.641  19.277  12.965
96602W        W68328   1.788   1.512   2.304
96603W        W68329  41.424   7.928   1.238
96604W        W68330  32.852  26.644   4.145
96605W        W68331  12.762   6.508  11.839
96606W        W68332  43.322  32.227  13.931
96607W        W68333  20.962  22.700   1.381
96608W        W68334  25.250   6.904  12.090
96609W        W68335  26.263  10.722   1.538
96610W        W68336  39.372  35.042  14.764
96611W        W68337  38.312  11.866  12.721
96612W        W68338  39.844  23.604   3.174
96613W        W68339  22.533  24.242   0.829
96614W        W68340  28.411  43.968  12.444
96615W        W68341  13.148  24.381  12.661
96616W        W68342  21.226  38.333  13.589
96617W        W68343   0.408  20.745   4.605
96618W        W68344  42.347  42.106  10.706
96619W        W68345   7.639  18.957  14.542
96620W        W68346  30.097   4.410  14.466
96621W        W68347  43.796  26.246  10.598
96622W        W68348  31.890  22.404   1.933
96623W        W68349  14.210   8.949   0.553
96624W        W68350  11.723   9.844  14.041
96625W        W68351  30.064  25.608  14.857
96626W        W68352   3.247  12.256   1.755
96627W        W68353  28.476  20.507  13.818
96628W        W68354  43.914  20.818   0.816
96629W        W68355  12.385  24.561   0.801
96630W        W68356   3.222  24.593  11.515
96631W        W68357  35.098   6.719  11.345
96632W        W68358  43.475  24.845   1.190
96633W        W68359   3.071   3.254   0.824
96634W        W68360  11.776   8.207  11.496
96635W        W68361  32.462  38.934   4.617
96636W        W68362  27.993  44.798   3.724
96637W        W68363  36.678  43.439   4.364
96638W        W68364  14.459   5.866  13.528
96639W        W68365  10.565  14.874  13.392
96640W        W68366  16.289  38.777   4.443
96641W        W68367  24.673  17.697  12.319
96642W        W68368  18.190  25.679   1.628
96643W        W68369   5.584  26.015  13.378
96644W        W68370  19.743  15.248   4.935
96645W        W68371  24.936  26.384  13.469
96646W        W68372   4.762  10.565  13.937
96647W        W68373  23.807  29.635  13.289
96648W        W68374  22.584  24.909  13.303
96649W        W68375   4.457  40.229  14.317
96650W        W68376   9.730   6.805  12.809
96651W        W68377  42.312   7.103  11.594
96652W        W68378   7.191  26.598  10.789
96653W        W68379  33.996  33.418  13.405
96654W        W68380   0.247  28.064   3.255
96655W        W68381  42.752  35.048   2.781
96656W        W68382  28.084  14.450  11.804
96657W        W68383   4.191  18.684   3.694
96658W        W68384   7.346  37.271  10.593
96659W        W68385  21.057  16.147  11.749
96660W        W68386  24.181  42.051  13.137
96661W        W68387  23.178  35.593  14.201
96662W        W68388  24.686  19.187   0.515
96663W        W68389  27.503   0.053  12.412
96664W        W68390   7.286  16.341   0.492
96665W        W68391  41.099  35.602   3.650
96666W        W68392   5.810   0.479   2.416
96667W        W68393  35.706  42.317   0.972
96668W        W68394  10.167  21.790  11.848
96669W        W68395  42.322   2.688  12.370
96670W        W68396  25.731   1.177  11.620
96671W        W68397  18.752  18.271   0.271
96672W        W68398  41.268  12.898  12.700
96673W        W68399  35.294   2.451   1.008
96674W        W68400  13.491  35.458   0.667
96675W        W68401   8.363  22.807  10.474
96676W        W68402  10.582  10.078  13.846
96677W        W68403  17.589  28.144  14.277
96678W        W68404   1.280  21.854   4.181
96679W        W68405  27.941  38.340   1.185
96680W        W68406  44.304  17.644  13.843
96681W        W68407   3.879  32.877   1.416
96682W        W68408   2.291   4.893  10.885
96683W        W68409  34.804  25.489  11.095
96684W        W68410  17.598  34.502  12.389
96685W        W68411  26.955  37.432  11.590
96686W        W68412  31.029  11.349   2.614
96687W        W68413  21.125  37.757   0.299
96688W        W68414  33.332  25.972   2.718
96689W        W68415   2.521  29.041   1.645
96690W        W68416   5.229  41.771   0.891
96691W        W68417  21.701  21.551  13.997
96692W        W68418  43.384  27.108   1.019
96693W        W68419   0.844   9.844   1.257
96694W        W68420  18.256  44.858  13.947
96695W        W68421  30.556  10.091   4.100
96696W        W68422   8.864  27.130   3.846
96697W        W68423   0.198  37.597   0.722
96698W        W68424   5.529  13.695   0.672
96699W        W68425  22.729   9.317  11.587
96700W        W68426   1.232  37.550   3.575
96701W        W68427  23.675  14.765   3.740
96702W        W68428  32.963  11.747  11.983
96703W        W68429  27.155  28.212   3.855
96704W        W68430  11.645  21.188  13.411
96705W        W68431  29.588   4.495   3.188
96706W        W68432  38.915  41.499  14.321
96707W        W68433   2.586  42.332  11.941
96708W        W68434  30.899   2.267   1.838
96709W        W68435  20.561  13.333  11.431
96710W        W68436   0.875   0.962  14.507
96711W        W68437  35.362  33.252  12.029
96712W        W68438  26.590  19.092  12.507
96713W        W68439   6.428   0.213  13.885
96714W        W68440  20.735  21.186  10.718
96715W        W68441  30.268   9.755   1.780
96716W        W68442  36.397  41.512  10.327
96717W        W68443  36.998  37.915   2.277
96718W        W68444   0.060  23.721   3.679
96719W        W68445  42.824  39.317  12.838
96720W        W68446  27.799  43.646  11.079
96721W        W68447  20.467  29.146   0.082
96722W        W68448  29.741  40.571   4.019
96723W        W68449  26.209  40.576  10.672
96724W        W68450  17.766   5.217   2.494
96725W        W68451  28.616   0.849   2.736
96726W        W68452  42.498  21.294  12.027
96727W        W68453  40.939  26.282   2.316
96728W        W68454  15.658   7.254   2.144
96729W        W68455  14.277  31.069  12.060
96730W        W68456  30.807  31.380   4.244
96731W        W68457  44.283   1.704  14.510
96732W        W68458  21.511  17.862   1.188
96733W        W68459  31.528  39.322   0.294
96734W        W68460  21.289   4.608  11.493
96735W        W68461  11.374  22.411  13.839
96736W        W68462  32.070  17.636   1.354
96737W        W68463  21.473   8.067   3.380
96738W        W68464  42.817  16.495   2.907
96739W        W68465  28.526  14.650  12.089
96740W        W68466  19.970  13.515  10.448
96741W        W68467  35.258  16.730  12.502
96742W        W68468  20.944  30.431  14.548
96743W        W68469  21.484   9.818   0.242
96744W        W68470  42.290  14.218  11.602
96745W        W68471   3.023  42.516  14.819
96746W        W68472  21.415  25.963   4.150
96747W        W68473  17.733  28.993   2.935
96748W        W68474   2.303  27.659   1.809
96749W        W68475   9.251   0.185  14.781
96750W        W68476  10.920  35.550   4.183
96751W        W68477  44.131  32.862   3.674
96752W        W68478  20.783   2.150  13.302
96753W        W68479  41.096   1.519  14.711
96754W        W68480  26.430  32.428  12.232
96755W        W68481  13.525  30.087   2.373
96756W        W68482  18.723   3.669  11.142
96757W        W68483   5.893   3.088  11.157
96758W        W68484   2.415   4.832   4.540
96759W        W68485  37.520  11.242   3.262
96760W        W68486  17.904  36.980   3.042
96761W        W68487  44.991  13.165  11.786
96762W        W68488  37.483   6.032   4.571
96763W        W68489   7.402  38.418  14.790
96764W        W68490   7.042   6.824  12.860
96765W        W68491  23.594   2.831  11.505
96766W        W68492  22.036  22.609   4.165
96767W        W68493  30.015  36.115   4.752
96768W        W68494  31.650  29.418  13.834
96769W        W68495  33.985  12.231   4.099
96770W        W68496  35.545  40.156   4.550
96771W        W68497  34.831  17.167   1.215
96772W        W68498  12.464  17.300   4.631
96773W        W68499  44.860  32.812  12.448
96774W        W68500  34.990  21.921  11.444
96775W        W68501  13.726  16.179   4.152
96776W        W68502   8.251   7.775  12.973
96777W        W68503   6.862  36.442   2.318
96778W        W68504  24.608  43.923  12.646
96779W        W68505  13.340  33.109  12.088
96780W        W68506  15.523  18.605   1.230
96781W        W68507  32.307  14.770   3.681
96782W        W68508  11.956  33.042   4.934
96783W        W68509   0.716  34.141  10.634
96784W        W68510   5.381  14.741  14.082
96785W        W68511  18.049  35.497   2.682
96786W        W68512   7.829  18.299   2.812
96787W        W68513   9.787  43.958   2.004
96788W        W68514  23.566  17.731   2.829
96789W        W68515  24.994  27.033   4.769
96790W        W68516  17.772   6.171  14.981
96791W        W68517  11.084  20.093   4.147
96792W        W68518  23.232  24.955  10.674
96793W        W68519  22.170  20.996  14.776
96794W        W68520   2.790  24.965  10.650
96795W        W68521  40.265  30.070  11.617
96796W        W68522  20.949   3.194   5.305
96797W        W68523   1.030  43.189  12.453
96798W        W68524  35.266  18.469  13.462
96799W        W68525  31.596  21.193   0.947
96800W        W68526  38.264  37.998   0.343
96801W        W68527  39.394  16.002   1.875
96802W        W68528  42.939  24.613   0.364
96803W        W68529  24.089  26.573   1.901
96804W        W68530  36.885  34.865   3.364
96805W        W68531  36.417   8.642  11.447
96806W        W68532  36.621  16.191  11.461
96807W        W68533  32.689  27.830  11.133
96808W        W68534   7.189   4.796   1.642
96809W        W68535  33.179  33.164  13.002
96810W        W68536  34.936  44.227   1.828
96811W        W68537   4.001  13.955  10.574
96812W        W68538  41.041  27.650   0.999
96813W        W68539  19.035  13.738   1.695
96814W        W68540  43.976   8.765   4.281
96815W        W68541   6.288   5.818   0.834
96816W        W68542  12.029  14.731   0.783
96817W        W68543  33.876  20.026   3.598
96818W        W68544   4.969   7.191   1.414
96819W        W68545  43.931   9.856   2.265
96820W        W68546  19.128   2.945   1.933
96821W        W68547  11.690   8.265  14.913
96822W        W68548  26.795  39.382   2.902
96823W        W68549   5.190  31.158  11.574
96824W        W68550  27.671   4.346   2.313
96825W        W68551  30.992  14.329  14.878
96826W        W68552   0.482  34.830   2.192
96827W        W68553   8.209  31.828   3.718
96828W        W68554  23.054  26.556   2.928
96829W        W68555  12.114   6.566   4.584
96830W        W68556   7.076  24.652  10.181
96831W        W68557  31.320  37.157   3.822
96832W        W68558  12.824  10.626  14.497
96833W        W68559  28.814  40.028   3.621
96834W        W68560  39.826  40.536  12.275
96835W        W68561  39.372  30.696  13.814
96836W        W68562   1.584  20.111   4.748
96837W        W68563  29.082  18.226   4.743
96838W        W68564  44.907   0.244   1.950
96839W        W68565  21.966  26.073   4.015
96840W        W68566   9.652  17.269  13.747
96841W        W68567   6.287  37.274   0.342
96842W        W68568  43.811  30.430  12.308
96843W        W68569  16.202  23.243  14.876
96844W        W68570  20.189   3.877  14.873
96845W        W68571  32.129  44.156  12.905
96846W        W68572  39.800  27.496  11.929
96847W        W68573  15.039  41.921   2.811
96848W        W68574  31.119  26.637   0.965
96849W        W68575  44.339   3.937  12.682
96850W        W68576  26.807  12.570  10.819
96851W        W68577  12.648  13.628   4.430
96852W        W68578  17.537  27.458  11.780
96853W        W68579  16.033  27.037   0.176
96854W        W68580   1.998  18.504  14.805
96855W        W68581  35.290  18.281  10.740
96856W        W68582  16.532  28.124   0.839
96857W        W68583  29.187  31.932  14.556
96858W        W68584   6.853  28.417  14.478
96859W        W68585   4.697  29.951  12.442
96860W        W68586  29.077  23.653  13.468
96861W        W68587  27.972  24.554  11.907
96862W        W68588  44.084  23.516   1.432
96863W        W68589  26.542  20.101   4.575
96864W        W68590  13.123  16.827  13.593
96865W        W68591  40.040   7.360   4.130
96866W        W68592   5.757  35.805   3.489
96867W        W68593  21.992  35.278  12.507
96868W        W68594  16.604   9.470   0.535
96869W        W68595  20.250  42.408   3.178
96870W        W68596  17.213  22.133  12.700
96871W        W68597   5.718  33.670  10.595
96872W        W68598  25.789  20.226  14.129
96873W        W68599  14.636  41.526  11.587
96874W        W68600  11.085  29.702  14.193
96875W        W68601  11.879   4.145   2.330
96876W        W68602   1.063   8.656  14.105
96877W        W68603   5.930  16.197   9.823
96878W        W68604  16.753  10.644  11.539
96879W        W68605   8.880  36.019   0.825
96880W        W68606  16.290  17.383   0.267
96881W        W68607  43.260  43.380   2.692
96882W        W68608  24.486  17.107   1.000
96883W        W68609  26.059  23.493  12.792
96884W        W68610  43.860  18.828   1.097
96885W        W68611  43.478  43.018  13.287
96886W        W68612   7.704   3.636  13.496
96887W        W68613  21.290  33.647  13.658
96888W        W68614  44.256  42.851  12.062
96889W        W68615  23.374  25.050   2.357
96890W        W68616  22.524  37.636  11.653
96891W        W68617  36.594  41.073   2.739
96892W        W68618  15.721  40.353   0.387
96893W        W68619  15.847   8.594  13.530
96894W        W68620  14.143  38.691   4.122
96895W        W68621  20.664  41.531   2.830
96896W        W68622   4.742   6.438  14.048
96897W        W68623   3.034  36.919  11.989
96898W        W68624  11.612  33.622   0.902
96899W        W68625   8.102  10.794   0.444
96900W        W68626  35.302   5.749   0.315
96901W        W68627   8.628  17.135   1.788
96902W        W68628  20.471  12.228   2.453
96903W        W68629  19.234  22.216   0.891
96904W        W68630  18.525  36.465   3.096
96905W        W68631   9.129  38.950   1.625
96906W        W68632   9.863  22.396   2.758
96907W        W68633  36.452   3.465  11.731
96908W        W68634   7.245  35.524  14.535
96909W        W68635  26.261  43.050   9.823
96910W        W68636  38.815  10.426   1.795
96911W        W68637  23.645  27.670   1.791
96912W        W68638  25.636  20.736   0.854
96913W        W68639  14.165  11.160   2.461
96914W        W68640  11.838  34.637  12.418
96915W        W68641  22.070   7.964  11.369
96916W        W68642   6.390  20.990  10.694
96917W        W68643   8.633  29.881  10.741
96918W        W68644  42.696  21.166   0.450
96919W        W68645  27.962   1.332   4.455
96920W        W68646  31.169  34.861   1.992
96921W        W68647  13.632   7.423   0.246
96922W        W68648  26.021  38.566   3.855
96923W        W68649  38.291  36.965  13.490
96924W        W68650  29.506  37.116  14.241
96925W        W68651  37.050  26.039   4.342
96926W        W68652  12.293   2.108  12.672
96927W        W68653   8.426  20.510   2.409
96928W        W68654  26.347  28.726   4.573
96929W        W68655  34.481  42.853  13.723
96930W        W68656   6.966   4.731  13.078
96931W        W68657  35.532  11.395   4.072
96932W        W68658  27.546   0.635   0.855
96933W        W68659   1.243  40.017  10.670
96934W        W68660  12.672  41.548   2.770
96935W        W68661  15.607  31.980  13.371
96936W        W68662  32.115  21.587  13.521
96937W        W68663   4.848  14.337   4.564
96938W        W68664  32.926   6.226   3.288
96939W        W68665  44.463  26.728   1.073
96940W        W68666  39.620   8.553   1.586
96941W        W68667   7.706  41.475   3.689
96942W        W68668  32.444  39.234   1.286
96943W        W68669   5.242  35.913   0.056
96944W        W68670  30.779  35.970   1.722
96945W        W68671   1.925   8.372   0.840
96946W        W68672  15.673   3.796  14.959
96947W        W68673  28.612  36.513  10.645
96948W        W68674   9.949  36.178  10.379
96949W        W68675   2.995   6.252  10.702
96950W        W68676   5.757  37.916   1.142
96951W        W68677  37.500  36.597   4.340
96952W        W68678   6.778  40.174   0.247
96953W        W68679  34.421  30.364   2.789
96954W        W68680  12.127  13.335  14.099
96955W        W68681  36.075  35.070   0.979
96956W        W68682   7.419   2.162   0.876
96957W        W68683  33.869  41.352   0.256
96958W        W68684  23.227  27.559  13.938
96959W        W68685  28.461  29.649  14.404
96960W        W68686  24.608   6.469   2.826
96961W        W68687  41.005  28.873  14.915
96962W        W68688  14.649   6.316   3.332
96963W        W68689   1.576  29.906  13.726
96964W        W68690   9.667  19.176   3.606
96965W        W68691  27.193   1.346   5.116
96966W        W68692   2.804  26.504   1.786
96967W        W68693   7.583  24.624  11.917
96968W        W68694   2.308  23.322   2.348
96969W        W68695  32.651  11.222  13.542
96970W        W68696   2.564  31.224   4.015
96971W        W68697  12.886  18.693   1.149
96972W        W68698  22.533  38.347  10.540
96973W        W68699  11.633  31.702   1.281
96974W        W68700  33.248   0.023  13.998
96975W        W68701  25.056  21.036   4.518
96976W        W68702  11.345   4.880   4.959
96977W        W68703  32.221  36.982   1.155
96978W        W68704   6.782  36.210   2.911
96979W        W68705  12.473   8.316  13.495
96980W        W68706  11.747  11.907  12.477
96981W        W68707  23.266   9.580   2.143
96982W        W68708   1.302   7.987   2.277
96983W        W68709  14.751  37.980   1.823
96984W        W68710  38.542  36.292  13.406
96985W        W68711  32.024  27.141   0.409
96986W        W68712   2.215  37.648   4.222
96987W        W68713   1.445   3.229   1.792
96988W        W68714  22.327   1.066  11.151
96989W        W68715  17.232  23.945  13.795
96990W        W68716  36.853   7.283  12.777
96991W        W68717  17.076   6.228  12.169
96992W        W68718   0.169  25.644   0.027
96993W        W68719   0.213  29.249   3.612
96994W        W68720  28.423  38.924  14.038
96995W        W68721   6.380  12.241  10.678
96996W        W68722  27.184  22.983   4.748
96997W        W68723   7.033   5.491   2.898
96998W        W68724  35.631  44.890   1.385
96999W        W68725  23.572  43.312  12.428
97000W        W68726  12.982   1.501  13.042
97001W        W68727  12.629   9.429  12.931
97002W        W68728  15.646  22.723   1.878
97003W        W68729  32.108   8.269  12.966
97004W        W68730  32.305  16.174   1.780
97005W        W68731  23.472  40.530  12.593
97006W        W68732  21.846  27.112  13.232
97007W        W68733  13.191  35.064   0.444
97008W        W68734  19.317   0.447   0.440
97009W        W68735  33.119   6.990   1.996
97010W        W68736  32.855   0.723  11.738
97011W        W68737  29.006   0.411   4.145
97012W        W68738  18.773   8.441  12.373
97013W        W68739  30.796   2.186   3.148
97014W        W68740  26.645  17.086   3.156
97015W        W68741  41.091  23.005  12.414
97016W        W68742   1.748  33.579   3.143
97017W        W68743  13.515  35.548   1.972
97018W        W68744  16.989   7.950  10.725
97019W        W68745   5.633   0.374   4.473
97020W        W68746  18.035   5.392  13.895
97021W        W68747  18.014   6.972   2.163
97022W        W68748  27.437  41.261   0.340
97023W        W68749   9.124  23.716  12.464
97024W        W68750  36.538   5.995  12.037
97025W        W68751  32.500   3.267   4.121
97026W        W68752  34.716  43.114   4.144
97027W        W68753  10.622  32.167  10.755
97028W        W68754   9.285  14.888   0.426
97029W        W68755  34.946  34.669  14.885
97030W        W68756   4.137  44.713  12.443
97031W        W68757   8.808   1.140  10.781
97032W        W68758  10.004   3.709   5.016
97033W        W68759   5.007  35.115   2.917
97034W        W68760  30.356  42.849   5.220
97035W        W68761  35.644  26.011   2.371
97036W        W68762  25.057   2.747  14.385
97037W        W68763  16.305  23.775  14.849
97038W        W68764   5.377  28.367   2.170
97039W        W68765   9.839  16.290   3.762
97040W        W68766  18.167  10.709   2.247
97041W        W68767  19.013  24.373  14.395
97042W        W68768  42.712  21.060   4.605
97043W        W68769   1.507  29.556   3.064
97044W        W68770  32.432  26.166   1.655
97045W        W68771  19.962  43.749   2.532
97046W        W68772  44.767  37.915   0.857
97047W        W68773  26.502   6.671   0.362
97048W        W68774  19.482  31.949  14.455
97049W        W68775   9.788  21.193   0.073
97050W        W68776  35.117  27.506  12.612
97051W        W68777  33.636  11.779   2.815
97052W        W68778  34.019   9.524  10.946
97053W        W68779  40.551  35.462   1.249
97054W        W68780   6.886   2.325   3.517
97055W        W68781  22.110  22.765  11.220
97056W        W68782   5.669  44.764  13.887
97057W        W68783  23.659   7.169  10.613
97058W        W68784  32.450  40.487  12.982
97059W        W68785  36.252  43.721  10.832
97060W        W68786  21.261   6.465  13.099
97061W        W68787  24.433  31.497   3.673
97062W        W68788  15.281  44.808   2.890
97063W        W68789  38.501  36.923  11.915
97064W        W68790   9.606   9.279   4.607
97065W        W68791  35.514  25.757  14.995
97066W        W68792   2.225  10.138  12.435
97067W        W68793  39.666  31.495  12.542
97068W        W68794  40.586   5.350   4.678
97069W        W68795  28.506  39.917  13.009
97070W        W68796  43.393  33.067  10.525
97071W        W68797   0.300  15.643   4.523
97072W        W68798  16.141  32.045   4.178
97073W        W68799   3.726  35.518  12.237
97074W        W68800  30.895   0.327  11.013
97075W        W68801  29.072   1.327  13.335
97076W        W68802   4.659  43.840  12.879
97077W        W68803  28.753  14.753  12.549
97078W        W68804  15.961  44.846  12.950
97079W        W68805  41.305  36.394  10.940
97080W        W68806   8.239  41.089  12.463
97081W        W68807  27.548  27.011   4.183
97082W        W68808   4.749   6.682   0.224
97083W        W68809  13.522  25.210   4.567
97084W        W68810  27.672  28.535   0.108
97085W        W68811  23.448  21.158  14.539
97086W        W68812  34.554  26.170  10.620
97087W        W68813  38.800  32.601   0.351
97088W        W68814  13.797   1.981  14.434
97089W        W68815   4.916   9.601  11.924
97090W        W68816   7.177  30.094  14.901
97091W        W68817  40.204  24.252   0.556
97092W        W68818  41.944  26.015   4.343
97093W        W68819  36.167   2.834  14.865
97094W        W68820  26.481  37.624  11.481
97095W        W68821   7.826  13.548   0.373
97096W        W68822  25.700   2.999   0.978
97097W        W68823  27.915  19.148   1.222
97098W        W68824  18.810  34.492   2.806
97099W        W68825   6.217  15.522  11.398
97100W        W68826  29.933  41.007  14.473
97101W        W68827  32.208  40.213   3.337
97102W        W68828  34.575  43.729   2.306
97103W        W68829  11.222  44.997   3.184
97104W        W68830  34.855  28.503   0.676
97105W        W68831  23.401  22.134   0.041
97106W        W68832   8.313   7.618   1.243
97107W        W68833  44.758  15.459   2.784
97108W        W68834  23.141  22.096   1.713
97109W        W68835  18.070  14.001   4.390
97110W        W68836  24.964  17.240   0.819
97111W        W68837  14.158  10.792   0.273
97112W        W68838  22.191  17.597   2.186
97113W        W68839  20.606  40.346  14.915
97114W        W68840  14.300  25.018  10.896
97115W        W68841  44.901  10.794   0.761
97116W        W68842   0.961  34.396  13.069
97117W        W68843  18.046  40.047   0.468
97118W        W68844  15.723  26.651  11.526
97119W        W68845   6.364   5.734   1.845
97120W        W68846  22.902   0.842   4.511
97121W        W68847  24.529   3.598  13.043
97122W        W68848   3.915  15.707  11.466
97123W        W68849  42.287   1.020  11.632
97124W        W68850  25.696  27.466  14.768
97125W        W68851  35.026  18.544  12.963
97126W        W68852  34.352  16.978   1.141
97127W        W68853   7.672  35.810  14.306
97128W        W68854  37.225  31.057   3.641
97129W        W68855  44.331  26.671   3.045
97130W        W68856  42.811   0.314  14.904
97131W        W68857   6.228   7.749   2.304
97132W        W68858   9.933  35.449   1.462
97133W        W68859  27.730  35.770   1.378
97134W        W68860  20.083  30.753  11.948
97135W        W68861  11.242   6.585   4.804
97136W        W68862  42.039  25.109  13.912
97137W        W68863  17.021  27.650   4.212
97138W        W68864  34.936  40.513  14.039
97139W        W68865  39.689  42.413   4.963
97140W        W68866   4.895  37.915   2.255
97141W        W68867   8.636  36.736   1.302
97142W        W68868  29.126  16.827   1.863
97143W        W68869   5.377   4.782   4.639
97144W        W68870   2.029  40.296   1.903
97145W        W68871  32.112  10.863  12.418
97146W        W68872   6.205   2.867   1.650
97147W        W68873   2.789   3.517  12.558
97148W        W68874  39.830  10.119  11.963
97149W        W68875  29.507   3.042  12.385
97150W        W68876  39.633  24.734  13.577
97151W        W68877   9.001  44.428   1.965
97152W        W68878  12.395  40.460   4.174
97153W        W68879  12.244  25.132   1.506
97154W        W68880  19.093  33.410  11.398
97155W        W68881  35.995   9.583  12.567
97156W        W68882   3.837  23.960   3.601
97157W        W68883  28.578  38.472   2.344
97158W        W68884  18.360  19.847   4.032
97159W        W68885  17.523  27.125  10.484
97160W        W68886   1.716  27.139   3.756
97161W        W68887  11.875  23.867   1.129
97162W        W68888   7.765  18.168  14.100
97163W        W68889  20.430  14.464   4.116
97164W        W68890  17.150  43.773   2.794
97165W        W68891  10.297   5.495   2.713
97166W        W68892   1.276  11.159  11.711
97167W        W68893   0.709  26.802  13.504
97168W        W68894  11.290  42.665  12.404
97169W        W68895  17.663  18.581  10.767
97170W        W68896  39.478  25.487  11.985
97171W        W68897  15.797   7.044   2.613
97172W        W68898  34.187  30.922  13.395
97173W        W68899  25.275  40.276  12.863
97174W        W68900   0.514  14.010  11.514
97175W        W68901  22.206  26.441  10.251
97176W        W68902  19.271  11.139   1.940
97177W        W68903  36.590  31.385   4.086
97178W        W68904  19.765  36.078  11.384
97179W        W68905  15.112  37.258  13.422
97180W        W68906  36.099  40.208  12.523
97181W        W68907   7.819  26.628  10.741
97182W        W68908  44.691   8.363  11.646
97183W        W68909   6.418  13.214  14.948
97184W        W68910  12.451   6.870  12.453
97185W        W68911  33.441   5.443  12.902
97186W        W68912  13.659  18.057  13.391
97187W        W68913  17.636  25.135  13.407
97188W        W68914  39.124   9.610  14.399
97189W        W68915   5.776  17.480  14.280
97190W        W68916  42.770  11.418   0.401
97191W        W68917  19.634  34.137   0.500
97192W        W68918   8.617   9.208  11.633
97193W        W68919  27.807  29.304   3.249
97194W        W68920   2.826  23.937  10.692
97195W        W68921  30.086  13.298   3.422
97196W        W68922  10.132  36.971  13.269
97197W        W68923  37.067  42.589   3.278
97198W        W68924  33.588  41.906  13.963
97199W        W68925  43.431  36.067   0.444
97200W        W68926   8.735  41.388   1.016
97201W        W68927  31.264  11.720  13.661
97202W        W68928  41.067  37.440  14.487
97203W        W68929  25.057   0.560  11.522
97204W        W68930  42.842  12.226   4.049
97205W        W68931  29.657  36.039  10.348
97206W        W68932   1.949  37.348   4.572
97207W        W68933  44.517   5.251  11.146
97208W        W68934   1.188  16.463   2.667
97209W        W68935  36.378   5.381   1.987
97210W        W68936  15.234  29.657   3.201
97211W        W68937  28.626  35.597  10.789
97212W        W68938   5.311  24.604  11.884
97213W        W68939  10.231   2.228  11.426
97214W        W68940  10.202   4.540  12.956
97215W        W68941  29.583  40.576  13.283
97216W        W68942  38.181  19.127   3.781
97217W        W68943  10.173  24.527  11.579
97218W        W68944   0.192  12.531  12.492
97219W        W68945  37.844  40.191  10.327
97220W        W68946  13.907  13.162   2.257
97221W        W68947   1.162  25.988   1.789
97222W        W68948   2.034  18.464  13.950
97223W        W68949   6.436   2.872  14.290
97224W        W68950  18.583  14.627  12.634
97225W        W68951   9.536  15.045   0.010
97226W        W68952  32.730  22.167   3.076
97227W        W68953  19.135  32.643   1.489
97228W        W68954  28.209  35.862   3.453
97229W        W68955  39.270  15.261  12.231
97230W        W68956  34.568  40.546  14.932
97231W        W68957   4.336  10.298   4.868
97232W        W68958   5.269   9.785   0.831
97233W        W68959   4.016  23.124   1.769
97234W        W68960   9.200  31.975  12.489
97235W        W68961  21.802  14.747  13.575
97236W        W68962  13.150  16.586  14.393
97237W        W68963  28.034  42.345  14.413
97238W        W68964  27.003  21.635  14.770
97239W        W68965   0.778  21.243   0.317
97240W        W68966   6.656  27.289  13.311
97241W        W68967   5.142  12.366   0.316
97242W        W68968  37.118  30.990  13.534
97243W        W68969  26.562  11.167  11.455
97244W        W68970  28.248  25.011   1.828
97245W        W68971  20.624   6.357  14.481
97246W        W68972  29.611   9.505   2.858
97247W        W68973  27.459  18.102  12.837
97248W        W68974   8.708  18.758   2.874
97249W        W68975  14.808   1.837   3.219
97250W        W68976  35.906  40.509   2.636
97251W        W68977  44.370  31.116  12.999
97252W        W68978  13.594  21.750   4.064
97253W        W68979   7.659  37.312  13.035
97254W        W68980  38.957  20.167   3.283
97255W        W68981  26.402  26.782   2.216
97256W        W68982  26.563   2.346   0.032
97257W        W68983   0.133  41.204  11.600
97258W        W68984  35.429   8.382  11.271
97259W        W68985  39.487  38.064  14.341
97260W        W68986  33.477  10.202  10.405
97261W        W68987  36.307  36.828   2.226
97262W        W68988   7.834  39.943  12.371
97263W        W68989  17.681  29.154  13.555
97264W        W68990  34.709  40.223  10.515
97265W        W68991  23.757  36.922   2.834
97266W        W68992  29.125  30.936   0.684
97267W        W68993  30.623  15.169  11.860
97268W        W68994  12.712   3.893   2.726
97269W        W68995  43.943  38.588   2.645
97270W        W68996   0.757   1.626   4.216
97271W        W68997  17.563  21.103   4.624
97272W        W68998   9.156  27.644   0.284
97273W        W68999  30.867  24.170  14.450
97274W        W69000  40.419  26.171   3.848
97275W        W69001  34.546  37.330  11.451
97276W        W69002  30.855  31.209   2.761
97277W        W69003   4.346  14.174   4.545
97278W        W69004  28.394  15.754   4.308
97279W        W69005  24.929  18.044  12.036
97280W        W69006  33.342  16.210  14.285
97281W        W69007  26.493  43.961   1.796
97282W        W69008  41.910   9.641   0.263
97283W        W69009   1.448  36.452  13.461
97284W        W69010  29.323  16.556   0.389
97285W        W69011  15.889  38.542   1.906
97286W        W69012  21.713  33.380  11.565
97287W        W69013  24.177  25.108   2.775
97288W        W69014   4.582  32.633  14.093
97289W        W69015  16.095  31.148   2.886
97290W        W69016  32.961  13.320  13.373
97291W        W69017  10.699  25.741   4.770
97292W        W69018  13.320  40.315   4.646
97293W        W69019   3.448   7.733   0.317
97294W        W69020  29.744  34.707  11.104
97295W        W69021  21.090  15.354   0.856
97296W        W69022  35.089  19.723  11.686
97297W        W69023  19.060  12.836   2.692
97298W        W69024  17.744  22.785  14.321
97299W        W69025  18.229   3.764  11.007
97300W        W69026  33.008   8.574  14.572
97301W        W69027  43.794  25.625   3.866
97302W        W69028  43.276  21.141   3.724
97303W        W69029  21.307  14.833  10.949
97304W        W69030  32.592  12.626   2.729
97305W        W69031   8.882   4.811   2.691
97306W        W69032  15.777  22.553   2.342
97307W        W69033   4.970  19.236  11.581
97308W        W69034   3.009  35.684  11.527
97309W        W69035  42.713   6.751  13.310
97310W        W69036  36.594  23.077   0.905
97311W        W69037  27.422  44.805   0.017
97312W        W69038  20.351  32.156   3.679
97313W        W69039  27.716  18.901   0.372
97314W        W69040  36.866   7.628  11.982
97315W        W69041  28.952  16.770  11.136
97316W        W69042  27.948  23.077  12.617
97317W        W69043   0.805  21.687  11.923
97318W        W69044  31.105  44.191   2.620
97319W        W69045  30.184  41.005  12.332
97320W        W69046  34.816  15.018   1.214
97321W        W69047   2.827  35.151   3.728
97322W        W69048  14.124  20.465  13.287
97323W        W69049  23.085   3.243  13.446
97324W        W69050  41.531  41.470   3.319
97325W        W69051  23.993  42.500   1.752
97326W        W69052   4.365  14.047  13.373
97327W        W69053  26.876  19.139   2.781
97328W        W69054   4.021  25.134   4.311
97329W        W69055  29.922   7.691  13.069
97330W        W69056  34.999  36.360  12.128
97331W        W69057  31.023  25.469   0.223
97332W        W69058  12.557  32.146  12.419
97333W        W69059  25.962   0.443  10.586
97334W        W69060   9.349   3.723  12.429
97335W        W69061  23.125  33.526  13.499
97336W        W69062  42.297  13.633   1.440
97337W        W69063  28.495  30.640   4.820
97338W        W69064  35.323  30.691  12.906
97339W        W69065   0.404  19.046  10.730
97340W        W69066  29.351  34.935   1.879
97341W        W69067  35.474  33.914   2.114
97342W        W69068  34.994   8.932  12.803
97343W        W69069   7.082  31.071   0.615
97344W        W69070  25.634  35.597   4.231
97345W        W69071  34.196  27.049   2.167
97346W        W69072  30.336  22.254   2.145
97347W        W69073  23.800  41.370  12.668
97348W        W69074  40.440  38.800   0.685
97349W        W69075  29.606   4.464   0.341
97350W        W69076  39.605  41.830   1.782
97351W        W69077  42.799  41.265   4.171
97352W        W69078  32.946  32.653  11.912
97353W        W69079  32.950  40.955   0.713
97354W        W69080  18.860  24.922  11.143
97355W        W69081  42.951   4.384  12.485
97356W        W69082   3.776   9.420  13.472
97357W        W69083  32.028  29.381   4.576
97358W        W69084  27.916  29.274   0.037
97359W        W69085  15.075  24.958   3.330
97360W        W69086  22.427   1.446  11.970
97361W        W69087   8.555  42.476  12.725
97362W        W69088  24.651  15.345   4.144
97363W        W69089  28.419  34.031   3.612
97364W        W69090  31.524  34.573  13.926
97365W        W69091  16.301  26.552   1.935
97366W        W69092  17.576  19.925  14.236
97367W        W69093   0.453  22.985  12.652
97368W        W69094  31.383   2.242  14.918
97369W        W69095   5.847  15.142   1.216
97370W        W69096   7.940  28.676  12.939
97371W        W69097  28.123  31.791   1.114
97372W        W69098  20.845  33.008   4.639
97373W        W69099  20.459  30.931   2.677
97374W        W69100  25.596  18.345   0.764
97375W        W69101  20.612   2.386  11.276
97376W        W69102   4.268  32.053   3.232
97377W        W69103  11.763  17.136   1.771
97378W        W69104  30.918  11.860   2.599
97379W        W69105  31.861   9.167  12.127
97380W        W69106   0.809  23.728   2.359
97381W        W69107  16.036  38.364   4.679
97382W        W69108   4.964   8.562  10.704
97383W        W69109  30.490  20.492   0.398
97384W        W69110  39.986  38.090   0.958
97385W        W69111  25.590   8.576  12.900
97386W        W69112  17.100   7.210  13.111
97387W        W69113  15.002   8.039   3.781
97388W        W69114  34.879   9.643   1.698
97389W        W69115  34.010   6.436  13.511
97390W        W69116  31.603   7.612  13.760
97391W        W69117  16.371   4.847   0.313
97392W        W69118   5.209  38.747   3.393
97393W        W69119   3.380  20.099   0.950
97394W        W69120  23.773  28.293   1.071
97395W        W69121  23.087  36.492   4.111
97396W        W69122  24.038  29.422   1.870
97397W        W69123   4.002  37.485   3.392
97398W        W69124  15.156  41.851   1.895
97399W        W69125  14.839   6.681  12.944
97400W        W69126  31.896   4.185  14.477
97401W        W69127   1.846   2.587   4.276
97402W        W69128  21.642  21.619   2.303
97403W        W69129  32.235  14.077  12.619
97404W        W69130  42.866  15.013   2.268
97405W        W69131  40.741  17.670  13.401
97406W        W69132  33.135  37.382   0.397
97407W        W69133   2.148  22.928   1.461
97408W        W69134  40.979  17.865   0.773
97409W        W69135  37.890  32.397   3.557
97410W        W69136   0.270  10.121   3.064
97411W        W69137  17.675  32.655  10.565
97412W        W69138  29.146  41.431  11.219
97413W        W69139   2.939  40.506   3.097
97414W        W69140  14.173   1.817  13.015
97415W        W69141   2.917  29.898  13.492
97416W        W69142  18.649  35.057   4.590
97417W        W69143  25.221  31.370   3.379
97418W        W69144  40.550  30.856  10.555
97419W        W69145  18.733  18.518  10.678
97420W        W69146  44.788  39.596   3.103
97421W        W69147  11.679   8.711  12.386
97422W        W69148   2.751  39.349   5.052
97423W        W69149  16.565  42.036   0.248
97424W        W69150  28.763  21.324   3.326
97425W        W69151  36.011  34.562   0.965
97426W        W69152   4.673  20.304  12.464
97427W        W69153  39.324  23.806   2.666
97428W        W69154  22.761  24.935   3.803
97429W        W69155  17.321  40.455  10.528
97430W        W69156  20.501  12.933   4.110
97431W        W69157  16.705  35.553   2.863
97432W        W69158  35.892  10.776  11.026
97433W        W69159  18.278   0.956  14.815
97434W        W69160  15.942  12.078   1.410
97435W        W69161  26.530  43.521   2.744
97436W        W69162  22.683  36.937   1.662
97437W        W69163  19.456   7.267   1.685
97438W        W69164   0.493  21.587  11.056
97439W        W69165   7.352  12.040   1.238
97440W        W69166  35.217   1.278   9.730
97441W        W69167   8.871   8.254   4.740
97442W        W69168  20.582  44.534  10.427
97443W        W69169  26.423  23.305   3.332
97444W        W69170  16.361  13.794   3.439
97445W        W69171  11.118   1.754   0.852
97446W        W69172  19.126  43.727   0.817
97447W        W69173  44.414  20.194   2.174
97448W        W69174  26.936  22.561  12.636
97449W        W69175   9.031  28.176   4.162
97450W        W69176  25.995  18.215   2.807
97451W        W69177   7.928  14.157  11.096
97452W        W69178   0.943  21.884   1.558
97453W        W69179   9.194  24.940   1.637
97454W        W69180   3.729  11.032  13.866
97455W        W69181  42.495  11.207   2.886
97456W        W69182   4.289  15.320   1.358
97457W        W69183  16.379   5.783   1.177
97458W        W69184  18.690  21.244  13.351
97459W        W69185   0.534  39.289   0.948
97460W        W69186   8.651  16.507  12.922
97461W        W69187  14.994  27.639   0.357
97462W        W69188  16.215   9.343  13.321
97463W        W69189  20.287  21.161   4.137
97464W        W69190  16.203  30.954  11.574
97465W        W69191  40.728  36.469  13.545
97466W        W69192   7.426  17.778   3.743
97467W        W69193  34.417  44.441   0.739
97468W        W69194  11.971  26.507  13.484
97469W        W69195   1.375  38.815   0.812
97470W        W69196   6.756   7.492  11.058
97471W        W69197  36.649  36.113  13.913
97472W        W69198  28.193  25.897  14.824
97473W        W69199   3.367  25.862  13.878
97474W        W69200  20.636  31.157  13.352
97475W        W69201  10.418  12.847   2.135
97476W        W69202  13.715  34.064  12.465
97477W        W69203  30.750  43.396  11.644
97478W        W69204  29.353  14.095  14.887
97479W        W69205  14.768  43.217  14.785
97480W        W69206  25.512  43.344   4.680
97481W        W69207  39.760  41.522  13.836
97482W        W69208  31.384  28.513  11.589
97483W        W69209  43.486  20.814   2.777
97484W        W69210   0.501   1.760   3.669
97485W        W69211   9.440  41.535   3.909
97486W        W69212   7.935   6.808   3.640
97487W        W69213  40.470  29.988   0.172
97488W        W69214  16.115  27.198  10.362
97489W        W69215  21.387  13.276   0.557
97490W        W69216  43.891   1.441   4.487
97491W        W69217  27.153  27.678   3.027
97492W        W69218  15.620  39.682  14.472
97493W        W69219  43.860   4.036  12.520
97494W        W69220   4.698  15.016   1.288
97495W        W69221   4.839  28.150  13.935
97496W        W69222  26.375  39.919   1.391
97497W        W69223  33.133  13.341   2.362
97498W        W69224   8.663  25.513   1.242
97499W        W69225   3.179  39.547   2.196
97500W        W69226   2.209   2.308  13.808
97501W        W69227  29.970  43.541   2.313
97502W        W69228  39.957  25.117  12.304
97503W        W69229  16.312  43.299  10.766
97504W        W69230   9.593   1.347  13.345
97505W        W69231  38.007   5.294   4.645
97506W        W69232  25.792  33.578  12.973
97507W        W69233  18.373  42.391  12.662
97508W        W69234  22.132   5.302  13.297
97509W        W69235  39.743  14.167  11.944
97510W        W69236   2.845  16.769  11.078
97511W        W69237  37.016  27.268   0.298
97512W        W69238   7.344   4.386  13.737
97513W        W69239   8.095  10.126   3.478
97514W        W69240   1.859   4.415  13.505
97515W        W69241  38.639  31.180  10.721
97516W        W69242  15.731  12.225   0.973
97517W        W69243  18.183  36.927   1.238
97518W        W69244  17.690  31.124   3.301
97519W        W69245  10.285  13.083   4.802
97520W        W69246  29.838   1.010  10.571
97521W        W69247  33.857   4.850   1.638
97522W        W69248   3.210  41.406   1.939
97523W        W69249  37.588  36.205  14.421
97524W        W69250  25.021  42.813   1.228
97525W        W69251  23.688  15.296  10.243
97526W        W69252  37.377   8.167   3.610
97527W        W69253  24.212  32.318  14.336
97528W        W69254  13.144   5.412  14.737
97529W        W69255  16.641  24.092  11.994
97530W        W69256  36.574  28.732   3.253
97531W        W69257  28.329   3.429  11.780
97532W        W69258  39.709   4.494  13.402
97533W        W69259   9.141  32.478   4.619
97534W        W69260  43.951  21.549   3.372
97535W        W69261   5.852  12.594  11.461
97536W        W69262  36.961  42.031   1.200
97537W        W69263  13.372  29.377  10.777
97538W        W69264  16.093   3.224  12.507
97539W        W69265   8.191  25.806   5.143
97540W        W69266  35.958  12.302  11.894
97541W        W69267  15.537   0.948   0.312
97542W        W69268  12.151  20.738  14.499
97543W        W69269  20.299  19.789  14.902
97544W        W69270   1.166  31.617   2.341
97545W        W69271  10.352   6.060  14.570
97546W        W69272  16.914  24.363  13.838
97547W        W69273  41.748  14.665  11.051
97548W        W69274  40.052  12.227   2.118
97549W        W69275  21.498  27.168  12.332
97550W        W69276  10.438  17.063   5.323
97551W        W69277  32.437   7.076  14.724
97552W        W69278   5.493  26.536   4.264
97553W        W69279  41.811  32.637   0.982
97554W        W69280  37.675  15.224   4.085
97555W        W69281   4.233  29.823   1.928
97556W        W69282  44.508  12.080  12.055
97557W        W69283  28.202  26.102   4.183
97558W        W69284  26.431  10.319   0.906
97559W        W69285  36.620  26.589   1.449
97560W        W69286  42.814  32.266   0.447
97561W        W69287  26.480  15.209  10.695
97562W        W69288  36.576  43.186   0.031
97563W        W69289  24.037   3.396   1.394
97564W        W69290  32.064  15.847  11.232
97565W        W69291  42.891   2.054  14.790
97566W        W69292  15.203   5.108   3.594
97567W        W69293  40.401  25.246  12.690
97568W        W69294  31.532  12.031  13.342
97569W        W69295  39.732  10.920   2.398
97570W        W69296  31.012  41.857   0.778
97571W        W69297   7.413   7.445   2.280
97572W        W69298   4.738   3.905   0.988
97573W        W69299  40.047  33.465  10.970
97574W        W69300  33.620  21.808   1.337
97575W        W69301  44.497  27.108   2.828
97576W        W69302  30.568  22.001   1.192
97577W        W69303   9.474   1.997   4.292
97578W        W69304  35.094   2.479   4.427
97579W        W69305  25.524  39.756  14.047
97580W        W69306  40.690  20.708   4.600
97581W        W69307  27.480  37.313   0.465
97582W        W69308  28.441  32.081  12.471
97583W        W69309  29.856  32.627   1.348
97584W        W69310  21.116  39.035   0.840
97585W        W69311  17.944  10.684   3.662
97586W        W69312  43.183  38.816   0.963
97587W        W69313  17.305  22.182  11.050
97588W        W69314  36.707  44.306   0.573
97589W        W69315   7.455  14.923   0.335
97590W        W69316  37.313   7.911  12.071
97591W        W69317  29.029   4.376   1.358
97592W        W69318  27.951   5.179  10.940
97593W        W69319  30.410  32.517   3.832
97594W        W69320  19.081  36.659  11.445
97595W        W69321  36.322  35.388  14.315
97596W        W69322  35.872  16.246   2.382
97597W        W69323  24.736  33.026  12.391
97598W        W69324  38.964  20.457  12.628
97599W        W69325   3.030  23.518   4.481
97600W        W69326  29.012  22.255  11.484
97601W        W69327  13.528   2.575   2.769
97602W        W69328  30.201   5.787   2.457
97603W        W69329  15.083  31.141   4.209
97604W        W69330  21.994   3.336  11.990
97605W        W69331   4.139  17.224   0.593
97606W        W69332  43.998   7.854   3.352
97607W        W69333  13.010   5.509  10.363
97608W        W69334  22.115  33.404   0.360
97609W        W69335  39.837  39.930  14.092
97610W        W69336   5.538  35.787  14.614
97611W        W69337  18.690   4.615  12.115
97612W        W69338  14.357  36.000   2.785
97613W        W69339   6.605  18.271   0.301
97614W        W69340  14.030  14.678  11.629
97615W        W69341  28.356  36.529  11.091
97616W        W69342  14.123  44.872   4.064
97617W        W69343  14.710  22.918   1.850
97618W        W69344  26.982   3.780   4.152
97619W        W69345  37.541   0.767  10.679
97620W        W69346  29.432  44.329  13.127
97621W        W69347  31.976  13.073  10.503
97622W        W69348  16.685  42.053  12.278
97623W        W69349   8.295  41.535  14.792
97624W        W69350  13.327  36.975   1.517
97625W        W69351  33.763   7.404  11.981
97626W        W69352  44.963  11.199   2.872
97627W        W69353  17.640   3.954  12.972
97628W        W69354  26.008  31.016   1.849
97629W        W69355   6.177  30.234  14.019
97630W        W69356  13.976  42.412   0.160
97631W        W69357  21.942  27.182   3.680
97632W        W69358  43.539  32.671   0.295
97633W        W69359  36.263  31.807  11.132
97634W        W69360  25.158   1.941   3.890
97635W        W69361  41.473  41.048  10.807
97636W        W69362  39.634  43.547   3.360
97637W        W69363  26.759   7.084  12.983
97638W        W69364  21.983   9.313  13.492
97639W        W69365  12.717  10.446  13.106
97640W        W69366  10.901  33.589   2.757
97641W        W69367  34.396  14.411  14.315
97642W        W69368  26.662  37.866   0.484
97643W        W69369  30.903  43.882   0.809
97644W        W69370   8.855  16.709  10.693
97645W        W69371  40.211  32.276  10.142
97646W        W69372   5.315  39.750   1.819
97647W        W69373  21.995   1.433   4.229
97648W        W69374  36.490   9.581   3.736
97649W        W69375  33.681  16.160  10.479
97650W        W69376   4.393  19.252   1.831
97651W        W69377  33.786  37.713   9.727
97652W        W69378  30.626   6.389   1.008
97653W        W69379  41.363  40.145  11.790
97654W        W69380  37.104  13.605   4.290
97655W        W69381  40.892   8.566   4.814
97656W        W69382   4.176  43.384  13.942
97657W        W69383  42.571  31.586  14.043
97658W        W69384  22.107  40.459   1.907
97659W        W69385  19.742   1.635   1.777
97660W        W69386  43.750  25.026   2.774
97661W        W69387   5.812  37.921   1.675
97662W        W69388  12.572   6.708  13.074
97663W        W69389  43.320  37.642  12.035
97664W        W69390  12.243   9.115  14.733
97665W        W69391  33.446  43.005   3.667
97666W        W69392  21.768  11.735   3.067
97667W        W69393  40.512  22.037  11.129
97668W        W69394  23.943  25.190  14.317
97669W        W69395  22.532  10.019  13.863
97670W        W69396  33.301  10.256   5.032
97671W        W69397  38.491  26.217   1.277
97672W        W69398  37.586  25.929  14.081
97673W        W69399   7.760   7.583  13.018
97674W        W69400  25.607  19.348   4.068
97675W        W69401  18.634  39.566   1.006
97676W        W69402   1.106  29.075  13.551
97677W        W69403  38.031  40.309  13.544
97678W        W69404  33.290  12.264  13.475
97679W        W69405  20.967  20.028  12.860
97680W        W69406   0.386  43.496  14.370
97681W        W69407  22.934  38.976   2.143
97682W        W69408   2.655  16.348   3.689
97683W        W69409  17.116  14.676  10.917
97684W        W69410  37.476  23.413   0.726
97685W        W69411  15.595   1.459   0.306
97686W        W69412  42.315  28.402  12.425
97687W        W69413  28.200  43.658   2.172
97688W        W69414  24.146  17.587   2.739
97689W        W69415  12.383  19.150   4.120
97690W        W69416  25.723  19.846   4.059
97691W        W69417  21.275  33.524  10.906
97692W        W69418  19.672   6.426   1.782
97693W        W69419   7.432  18.711   3.605
97694W        W69420  15.689  39.352  10.373
97695W        W69421  44.322  31.216  13.925
97696W        W69422   0.060  11.823  13.290
97697W        W69423  28.315  27.665   0.635
97698W        W69424   9.067  22.357  10.302
97699W        W69425  36.026  41.869   3.753
97700W        W69426  23.765   2.240   4.395
97701W        W69427  22.016  35.950   1.340
97702W        W69428   4.354  33.178   2.404
97703W        W69429  18.634  35.672  11.080
97704W        W69430  31.900  16.226  11.977
97705W        W69431  41.314  16.345   1.871
97706W        W69432  22.980   0.139  13.370
97707W        W69433   3.298  11.566  12.582
97708W        W69434  28.734  43.816  11.075
97709W        W69435  36.244  34.117  14.911
97710W        W69436  34.052  18.177   0.301
97711W        W69437   1.790   8.606   4.500
97712W        W69438  27.278  42.721   1.804
97713W        W69439  39.015  17.377  12.889
97714W        W69440   9.068  30.441  14.669
97715W        W69441  14.296  28.520   0.748
97716W        W69442  30.088  37.868   2.215
97717W        W69443  42.897  37.597   2.823
97718W        W69444  15.830  18.328  12.867
97719W        W69445  40.005  37.006  11.030
97720W        W69446  27.956   2.328  13.970
97721W        W69447  42.772  22.705   4.509
97722W        W69448  35.932  27.494  10.589
97723W        W69449   9.672  22.853   2.872
97724W        W69450  17.491   4.682   4.244
97725W        W69451   3.983  36.663  14.844
97726W        W69452  27.933  29.059   4.172
97727W        W69453  14.232  35.165   3.312
97728W        W69454   0.485  31.532  12.778
97729W        W69455   9.759  38.853  13.565
97730W        W69456  24.087  39.133  10.676
97731W        W69457  24.072  43.003  12.882
97732W        W69458  26.918   3.602   3.659
97733W        W69459  12.972  23.325  13.606
97734W        W69460   5.024  39.754  10.645
97735W        W69461   1.162  22.666   1.782
97736W        W69462  19.114  15.616  11.632
97737W        W69463   8.080  12.299   4.045
97738W        W69464  35.452  32.828   0.837
97739W        W69465  21.447  27.771  14.754
97740W        W69466  25.293  34.891  12.146
97741W        W69467  23.100  14.677  11.552
97742W        W69468  36.863  38.927   2.305
97743W        W69469   0.949  13.582   2.804
97744W        W69470  44.517  16.877   3.353
97745W        W69471  41.135  32.454  12.737
97746W        W69472  27.432  20.026   1.775
97747W        W69473  23.477  35.551   2.435
97748W        W69474  18.105  44.549  10.710
97749W        W69475   9.607  37.658   3.291
97750W        W69476  32.062  20.490   0.759
97751W        W69477  27.571  44.422  11.383
97752W        W69478  18.403  42.131  11.741
97753W        W69479  32.095  44.004   3.200
97754W        W69480  28.702  35.557   1.709
97755W        W69481  17.609  33.945  12.687
97756W        W69482  25.048  32.443  10.531
97757W        W69483  43.273  35.008   3.553
97758W        W69484  21.159  16.014   4.337
97759W        W69485  23.717  14.864  12.384
97760W        W69486  32.337   1.081   2.949
97761W        W69487  13.795  41.257  10.877
97762W        W69488  16.020  41.874   2.579
97763W        W69489  34.089  10.685   2.624
97764W        W69490  18.168  29.827  13.520
97765W        W69491  28.508  30.385   2.198
97766W        W69492  20.609   2.891   4.332
97767W        W69493   2.717   0.946   3.054
97768W        W69494  17.281  20.260   4.828
97769W        W69495  10.134  10.319   3.223
97770W        W69496  15.498   7.818   5.088
97771W        W69497  41.129  34.472  10.680
97772W        W69498  28.137   0.410   2.212
97773W        W69499   9.421   2.419  10.621
97774W        W69500  42.814  28.074   4.556
97775W        W69501  42.507  34.784   3.215
97776W        W69502  26.595  27.574   0.390
97777W        W69503  18.431  20.447  12.557
97778W        W69504  42.009  44.485   0.690
97779W        W69505  19.527   5.317   1.036
97780W        W69506  26.917  15.711   1.335
97781W        W69507  34.094  17.307   0.839
97782W        W69508  29.096  39.949  13.430
97783W        W69509  21.566  11.658   1.180
97784W        W69510  42.752  18.660   0.500
97785W        W69511  30.933  23.543   2.394
97786W        W69512  24.542   8.715   0.852
97787W        W69513  34.956  30.982  14.930
97788W        W69514  38.605  28.126  11.539
97789W        W69515   8.039  25.082   3.266
97790W        W69516  43.011  10.316  13.082
97791W        W69517  40.228   9.325   1.828
97792W        W69518  30.227  43.259  13.758
97793W        W69519   6.473  44.869  11.289
97794W        W69520  41.282  28.972   4.655
97795W        W69521   5.779  21.506   3.737
97796W        W69522  44.755  11.195   3.769
97797W        W69523  21.286  28.902   1.698
97798W        W69524   0.373  21.499  13.059
97799W        W69525   5.404   8.681   4.684
97800W        W69526  39.806  37.552  11.553
97801W        W69527  10.096  33.669   0.803
97802W        W69528  27.649  40.964  11.587
97803W        W69529  24.605   5.673  14.545
97804W        W69530  18.528  42.521  11.410
97805W        W69531  10.064  41.811  11.894
97806W        W69532   6.248  20.459   2.697
97807W        W69533  17.593  18.087   1.852
97808W        W69534  13.331  35.417   3.814
97809W        W69535  40.445  17.710   0.025
97810W        W69536   1.837  23.138   2.327
97811W        W69537  42.451  33.870   2.895
97812W        W69538  26.354  18.190   1.231
97813W        W69539  10.255  44.409   0.238
97814W        W69540  37.907   2.905   0.343
97815W        W69541  22.008   0.792  12.965
97816W        W69542  22.757   1.831   1.016
97817W        W69543   2.325  17.996   4.702
97818W        W69544  20.212  20.987  11.225
97819W        W69545  11.182  16.629   3.020
97820W        W69546  27.914  43.292   1.252
97821W        W69547  12.500  27.942   1.407
97822W        W69548  35.102  27.490  13.134
97823W        W69549  11.292   7.628   0.327
97824W        W69550   0.012  21.782  11.040
97825W        W69551  39.291  27.797   0.266
97826W        W69552  10.468  29.437   3.353
97827W        W69553  29.570  11.357   1.364
97828W        W69554   6.641   7.291  10.218
97829W        W69555  37.362  38.589   2.777
97830W        W69556  17.746  23.996  13.833
97831W        W69557  20.559   4.415   0.977
97832W        W69558  30.052   7.717  13.570
97833W        W69559  20.619   8.866   3.826
97834W        W69560  16.585  17.609   2.870
97835W        W69561  12.691   8.830  12.071
97836W        W69562  24.097  15.123  12.079
97837W        W69563  26.248  19.740   3.369
97838W        W69564  26.719  25.449   0.323
97839W        W69565  27.587  34.155  10.606
97840W        W69566  36.895  12.311  10.772
97841W        W69567  39.694   7.333  12.398
97842W        W69568  18.665  10.526   2.253
97843W        W69569  10.809  19.501  12.107
97844W        W69570  19.806  15.648   1.284
97845W        W69571   1.977  35.944  14.484
97846W        W69572  11.323  39.278   3.267
97847W        W69573   6.675  38.753  11.032
97848W        W69574  12.523  11.454  13.979
97849W        W69575  31.997  27.886  13.329
97850W        W69576  26.558  32.621   4.222
97851W        W69577  27.501  38.343   1.808
97852W        W69578  41.981  25.142  13.034
97853W        W69579   2.993  24.150   0.014
97854W        W69580  36.125  16.678   2.309
97855W        W69581   6.467   9.849   0.371
97856W        W69582  14.555  21.075   4.817
97857W        W69583  33.252  37.031   1.210
97858W        W69584  36.794  32.288   3.944
97859W        W69585   7.023  25.806   4.212
97860W        W69586  22.700  39.632   3.220
97861W        W69587  21.262  29.575  14.821
97862W        W69588  37.937   3.921   3.668
97863W        W69589  32.398  30.093   4.372
97864W        W69590  26.885  25.664  11.027
97865W        W69591  14.039  33.958  13.087
97866W        W69592  22.138  31.007  12.962
97867W        W69593  21.097  43.336   3.092
97868W        W69594  20.712  19.579   4.568
97869W        W69595  24.443  10.399   3.767
97870W        W69596  12.247  32.570  10.548
97871W        W69597  25.767  38.293  10.985
97872W        W69598  35.613   6.868   3.690
97873W        W69599  36.792  16.555  13.376
97874W        W69600  19.468  12.663  12.942
97875W        W69601  12.708   1.261   0.928
97876W        W69602  44.898  11.798  12.797
97877W        W69603  10.383  42.900   0.681
97878W        W69604   8.991  20.490   0.431
97879W        W69605  43.371  40.113   2.149
97880W        W69606   2.733  35.059  14.764
97881W        W69607  11.618  29.129   3.081
97882W        W69608  17.646  19.248   2.001
97883W        W69609   6.114  44.008   1.305
97884W        W69610  38.627   8.655   0.941
97885W        W69611  39.027  12.772  13.427
97886W        W69612  37.585   5.235  10.839
97887W        W69613   7.443  29.596   0.805
97888W        W69614  31.893  22.747  14.839
97889W        W69615  17.538  14.174   1.863
97890W        W69616  40.560  24.370  13.333
97891W        W69617  38.267   9.735   0.281
97892W        W69618  20.200   4.799  10.222
97893W        W69619  40.938  19.705  10.735
97894W        W69620  23.230  25.403   3.286
97895W        W69621   5.401   9.643   1.749
97896W        W69622  35.456  31.451  10.876
97897W        W69623  32.674   0.833   2.631
97898W        W69624   5.163   3.159  11.153
97899W        W69625  30.445   5.519   2.109
97900W        W69626  12.326  39.404   4.057
97901W        W69627  18.693  39.945   4.048
97902W        W69628  31.061  22.019   0.998
97903W        W69629  18.775  19.300  13.435
97904W        W69630  42.314  15.826   1.196
97905W        W69631  43.944   1.764   0.711
97906W        W69632  28.158  35.610   1.694
97907W        W69633  15.462  34.378   4.768
97908W        W69634   3.722  39.073  14.019
97909W        W69635  39.425  33.511  13.984
97910W        W69636  16.514  31.924  11.599
97911W        W69637   4.228  12.386   3.875
97912W        W69638  16.561   7.891  13.376
97913W        W69639  22.709  37.716   4.953
97914W        W69640  37.355  43.537   2.225
97915W        W69641  39.554  27.698   2.141
97916W        W69642  28.110  34.204  14.903
97917W        W69643  23.521  13.791   1.455
97918W        W69644  14.593  25.382  12.048
97919W        W69645  14.042  19.993  11.914
97920W        W69646  42.962  44.883   1.327
97921W        W69647  12.722  43.856   4.373
97922W        W69648  41.165   4.762  14.025
97923W        W69649  15.572  23.199  13.541
97924W        W69650  42.840   1.700  13.051
97925W        W69651  18.659  26.745  11.655
97926W        W69652  22.695  31.018   2.039
97927W        W69653  19.264  13.199   1.727
97928W        W69654  23.185  24.288  12.592
97929W        W69655  31.604  34.876   1.714
97930W        W69656  27.470   4.745   0.842
97931W        W69657  34.888  12.402   1.698
97932W        W69658  36.025  13.136  12.040
97933W        W69659   6.276  32.710   2.382
97934W        W69660  31.216   1.775  10.300
97935W        W69661   8.182  16.249  12.855
97936W        W69662  32.409  37.096  10.652
97937W        W69663  14.141  16.765  11.159
97938W        W69664  44.310  16.999  10.354
97939W        W69665  29.972  13.750   0.361
97940W        W69666  23.098  16.393  13.584
97941W        W69667  24.162  23.790   0.714
97942W        W69668  15.844  31.004  14.405
97943W        W69669  11.313  16.116   1.890
97944W        W69670   0.710  15.223   3.270
97945W        W69671  23.780   8.357   4.562
97946W        W69672   9.972  25.339   9.835
97947W        W69673   4.495   1.465  12.473
97948W        W69674  12.863  25.770   1.793
97949W        W69675  40.531   2.554   4.450
97950W        W69676   1.832   3.268  10.615
97951W        W69677  29.490   6.160  11.174
97952W        W69678  43.247  16.490   3.180
97953W        W69679  34.690   8.217  11.590
97954W        W69680  20.808   7.261  13.916
97955W        W69681  10.227  31.479  12.492
97956W        W69682   6.932   3.282  10.334
97957W        W69683   0.245   7.452  14.457
97958W        W69684  18.348   4.293   1.031
97959W        W69685   7.002  27.660   2.539
97960W        W69686   5.821  14.670  12.370
97961W        W69687  34.616  31.111   4.233
97962W        W69688  11.837  32.514   2.697
97963W        W69689  35.900   0.932  13.807
97964W        W69690  39.110  16.884  12.992
97965W        W69691  36.514  25.997   2.205
97966W        W69692  22.215  37.347  11.961
97967W        W69693  19.009  43.062  14.265
97968W        W69694  15.783   9.162  14.957
97969W        W69695   6.803  41.526   3.325
97970W        W69696  35.563  25.468  14.469
97971W        W69697  26.344   4.961  12.993
97972W        W69698   8.403  38.583  12.021
97973W        W69699  11.354  37.587  14.830
97974W        W69700  26.613   5.209   4.090
97975W        W69701  38.498  23.676   2.541
97976W        W69702  27.625  13.650  11.094
97977W        W69703   6.475  40.391  11.183
97978W        W69704  36.445  19.092   4.560
97979W        W69705   7.369  12.775   2.372
97980W        W69706   0.957  35.317  12.597
97981W        W69707  24.525  42.403  13.510
97982W        W69708   3.635   9.581  14.817
97983W        W69709   3.981  37.732   2.256
97984W        W69710  11.611   9.667   0.995
97985W        W69711   2.664  38.875   4.816
97986W        W69712  23.110  27.084   3.192
97987W        W69713  12.688  38.113   0.201
97988W        W69714  17.534  14.321  12.098
97989W        W69715  42.198  11.947  13.372
97990W        W69716   1.030   9.770  13.915
97991W        W69717  37.881   0.206   2.775
97992W        W69718   5.447  28.707  11.106
97993W        W69719  41.824   8.391  13.374
97994W        W69720  37.620  16.947   3.793
97995W        W69721  30.096  34.048   2.728
97996W        W69722   1.724   0.456   2.199
97997W        W69723  32.459  39.817   2.123
97998W        W69724  38.485  38.959  14.804
97999W        W69725   5.195  24.551  12.388
98000W        W69726  33.888   5.877   4.469
98001W        W69727   0.469   3.068   0.583
98002W        W69728  41.041  33.694  11.010
98003W        W69729  13.112   2.690   0.770
98004W        W69730  23.048  33.432   4.434
98005W        W69731  17.485  16.689   0.939
98006W        W69732  33.883  20.040  10.534
98007W        W69733  14.763  39.920   1.744
98008W        W69734  22.268   1.938   0.830
98009W        W69735  17.505   9.511   2.283
98010W        W69736  22.065  30.975   0.918
98011W        W69737   8.061  39.011  11.163
98012W        W69738  11.813  34.731   2.593
98013W        W69739  10.220  15.642  12.192
98014W        W69740  30.124  40.505  12.537
98015W        W69741   4.890  34.004   2.068
98016W        W69742  13.693  29.620   3.809
98017W        W69743  34.602  26.154   4.424
98018W        W69744  12.213   6.889   2.881
98019W        W69745  20.592   6.831  12.084
98020W        W69746  22.545  22.719   3.827
98021W        W69747  22.225  11.929  14.793
98022W        W69748  29.592  23.510  13.510
98023W        W69749  22.409  26.289  13.393
98024W        W69750  38.833  12.514  10.835
98025W        W69751  22.927  11.236  13.944
98026W        W69752  29.661  35.805  14.627
98027W        W69753   9.208  17.645  10.458
98028W        W69754   4.832  30.438  12.558
98029W        W69755  43.389  16.101   2.481
98030W        W69756  15.043   4.455  11.900
98031W        W69757   6.087  14.170   1.376
98032W        W69758  13.017  30.442   1.391
98033W        W69759   3.887  16.353   0.392
98034W        W69760  31.097  12.425   3.647
98035W        W69761  10.857  22.037   4.026
98036W        W69762  29.170   8.923  13.338
98037W        W69763  34.861  31.421   3.832
98038W        W69764  25.612  20.619  13.002
98039W        W69765  29.535  12.654   3.895
98040W        W69766  28.604  19.251  11.924
98041W        W69767   2.553  14.307  11.090
98042W        W69768   9.226   0.558   0.372
98043W        W69769  12.234   9.122  13.843
98044W        W69770   0.097   6.160  11.996
98045W        W69771   9.844  13.850   4.949
98046W        W69772  15.266  12.573   1.200
98047W        W69773   6.150  25.055   2.817
98048W        W69774  22.033  21.589  10.575
98049W        W69775   0.215  36.407   1.382
98050W        W69776  43.864  17.194   1.303
98051W        W69777  37.403  42.388   1.854
98052W        W69778  30.941  42.910   3.242
98053W        W69779  13.790   2.309   0.224
98054W        W69780  37.451  34.027  12.190
98055W        W69781  44.265  23.633  14.815
98056W        W69782  13.485  32.626  11.049
98057W        W69783  21.376   7.239   4.622
98058W        W69784  28.813  17.659   2.785
98059W        W69785  25.324  38.544  11.028
98060W        W69786   0.513  36.647   0.790
98061W        W69787   3.970  28.777   1.947
98062W        W69788   2.826  28.005  12.624
98063W        W69789   9.417  25.039  12.125
98064W        W69790  35.559   0.940  12.147
98065W        W69791  34.626  40.653  13.281
98066W        W69792  21.804   7.279   3.296
98067W        W69793  24.994  13.376  10.654
98068W        W69794  34.060  15.180   4.067
98069W        W69795  22.068  27.013   0.570
98070W        W69796  32.321  30.899  14.395
98071W        W69797  18.649  29.833  11.105
98072W        W69798  29.912  33.203  10.706
98073W        W69799   1.919  42.474   1.453
98074W        W69800  15.146   3.469   2.773
98075W        W69801   9.669   2.661  14.005
98076W        W69802  17.152  36.854  13.344
98077W        W69803  29.433   3.310   2.222
98078W        W69804   2.310  11.625   2.837
98079W        W69805  39.347  15.818   4.269
98080W        W69806   2.650  16.159   0.889
98081W        W69807  25.254  25.821   4.075
98082W        W69808  27.885  10.358  13.089
98083W        W69809   7.342  23.530   1.775
98084W        W69810  21.813  44.055  11.453
98085W        W69811  37.398  16.527   0.895
98086W        W69812   3.980  34.581   3.500
98087W        W69813  33.576  39.610   2.699
98088W        W69814  23.074  37.877  14.908
98089W        W69815  10.259  23.519   3.589
98090W        W69816  14.320  19.580  10.654
98091W        W69817  29.658  27.512   0.775
98092W        W69818  31.341   5.372   3.158
98093W        W69819  43.575   3.936  11.065
98094W        W69820  41.885  10.180   0.377
98095W        W69821   4.708  18.999  14.012
98096W        W69822  21.262   2.067   2.845
98097W        W69823   1.550  28.994   0.370
98098W        W69824  27.641   8.472   3.162
98099W        W69825  40.440  13.581   4.639
98100W        W69826  16.854  20.583  14.499
98101W        W69827   5.839   5.483  10.338
98102W        W69828  41.448   6.715  11.567
98103W        W69829  13.124   0.238  10.292
98104W        W69830  34.125  20.324   3.938
98105W        W69831  30.299  26.822   2.628
98106W        W69832  16.237  44.337   0.235
98107W        W69833   2.415  16.598   0.767
98108W        W69834  38.867  22.517  12.547
98109W        W69835   6.879  33.530   2.085
98110W        W69836  17.278  39.835  11.992
98111W        W69837  26.199  38.317   2.871
98112W        W69838  44.463  32.468   4.400
98113W        W69839   2.710   5.023  11.624
98114W        W69840  11.962  41.488  13.024
98115W        W69841  40.521  32.332  14.867
98116W        W69842  22.620  28.051   2.160
98117W        W69843  28.132   8.471  13.028
98118W        W69844  34.990  43.482  10.637
98119W        W69845  13.869  10.296  13.790
98120W        W69846   2.183  23.080   0.505
98121W        W69847  15.207  20.034   2.885
98122W        W69848   8.474  43.876  13.528
98123W        W69849   0.218   1.269   1.842
98124W        W69850  40.949   1.957  12.554
98125W        W69851  38.297  29.575  11.230
98126W        W69852  39.564  11.733  10.359
98127W        W69853  35.536  11.410   0.075
98128W        W69854  37.876   7.734  12.213
98129W        W69855  36.792  34.504   4.727
98130W        W69856  25.145  29.460   3.252
98131W        W69857  31.511  36.566   1.227
98132W        W69858  21.951  41.548  14.412
98133W        W69859  28.595  29.640  12.837
98134W        W69860  35.314  21.599   3.341
98135W        W69861  11.469  21.548  10.660
98136W        W69862  33.893   3.843  11.068
98137W        W69863   5.193   7.495  13.804
98138W        W69864  21.044   1.561   3.948
98139W        W69865  26.941   5.776  12.973
98140W        W69866   8.772  10.681   0.994
98141W        W69867  17.271  20.337  11.088
98142W        W69868  19.100  33.027   0.675
98143W        W69869  21.145  25.512   3.076
98144W        W69870  24.485  26.262   4.021
98145W        W69871   8.194  43.384  13.065
98146W        W69872  31.036  16.376   1.332
98147W        W69873  41.290  21.909  14.014
98148W        W69874  21.765  24.543  10.645
98149W        W69875  23.765  43.043  13.606
98150W        W69876   4.741   0.444  12.037
98151W        W69877   0.812  13.237  10.846
98152W        W69878  14.189  29.934   1.792
98153W        W69879  44.771   1.083  12.956
98154W        W69880  19.751  29.719   0.976
98155W        W69881  38.809   1.961   1.826
98156W        W69882  39.119  38.363   0.700
98157W        W69883  22.178  39.566  11.090
98158W        W69884  19.778  31.587  11.193
98159W        W69885  20.596  20.768  10.462
98160W        W69886  17.536  27.701   2.069
98161W        W69887   9.403  33.801  14.017
98162W        W69888  27.531  37.919   2.394
98163W        W69889   9.296  22.547   4.639
98164W        W69890  17.562   8.602  14.895
98165W        W69891   8.992  42.341   0.325
98166W        W69892   9.871  14.365   2.219
98167W        W69893   6.645  24.236  14.355
98168W        W69894  44.737  40.663   3.776
98169W        W69895  26.086  20.930   1.205
98170W        W69896  10.826   9.588   4.151
98171W        W69897  27.896  13.401  14.322
98172W        W69898  15.194  29.816  13.466
98173W        W69899  10.238   2.257  10.004
98174W        W69900   6.343   3.465  13.488
98175W        W69901  41.365   8.335   4.887
98176W        W69902  14.587   6.967  13.839
98177W        W69903   8.333  12.210  14.531
98178W        W69904  38.656   8.720  13.789
98179W        W69905   7.611  29.686   2.909
98180W        W69906  37.018  25.070  10.596
98181W        W69907   3.431  23.987   5.042
98182W        W69908   2.689   6.740   2.142
98183W        W69909  31.213   1.756  12.066
98184W        W69910  37.950  22.217   4.595
98185W        W69911   1.462  33.611  14.683
98186W        W69912  33.102   3.769   0.005
98187W        W69913   0.774  21.504   1.883
98188W        W69914   1.753  14.676   4.152
98189W        W69915  28.448   2.783   4.665
98190W        W69916  39.558  41.865  11.139
98191W        W69917  18.782   2.716   0.313
98192W        W69918  25.900  14.610   4.575
98193W        W69919  23.002  13.693   2.804
98194W        W69920   5.780  34.644   3.728
98195W        W69921  18.225  40.958   0.763
98196W        W69922  19.581   8.946   4.137
98197W        W69923  35.335  10.108   0.390
98198W        W69924  15.493  42.602  14.007
98199W        W69925  19.532  20.195   4.472
98200W        W69926  41.913  21.149  11.208
98201W        W69927  43.252  16.722   0.367
98202W        W69928  43.434   7.088   3.342
98203W        W69929  42.293  24.604   1.815
98204W        W69930  36.038  40.976  13.407
98205W        W69931   8.301  17.659  12.456
98206W        W69932  34.392  11.849  11.967
98207W        W69933  43.541  41.835   1.579
98208W        W69934  12.804  25.679   4.033
98209W        W69935   2.016  11.869   1.731
98210W        W69936  31.098  16.566   3.663
98211W        W69937  13.660  10.177   3.695
98212W        W69938  26.738  24.522  10.886
98213W        W69939  23.339  18.090  14.566
98214W        W69940   9.655  26.788  14.600
98215W        W69941  14.339   1.006   4.554
98216W        W69942  34.835  28.236  14.245
98217W        W69943   1.361  11.870   4.832
98218W        W69944   3.873  21.764  13.982
98219W        W69945  20.807   5.698  11.159
98220W        W69946  38.002  12.679  12.495
98221W        W69947   7.758  36.493   3.264
98222W        W69948   8.734  42.768   0.468
98223W        W69949  24.155   8.723   2.814
98224W        W69950  28.683  39.484  12.397
98225W        W69951  31.173  25.563   2.905
98226W        W69952   8.917  38.081   4.279
98227W        W69953   3.894  19.530  11.285
98228W        W69954  21.643  29.897  11.590
98229W        W69955  43.991   9.331   2.278
98230W        W69956  43.399  41.950   1.077
98231W        W69957  42.303  31.525  11.519
98232W        W69958  27.233   9.299   2.309
98233W        W69959  31.457   5.253   4.169
98234W        W69960  34.157   8.491   3.031
98235W        W69961  13.696  43.518   3.966
98236W        W69962  41.757   0.813  13.962
98237W        W69963  40.135   1.075  11.236
98238W        W69964  34.682  20.514   0.973
98239W        W69965  18.561  34.175  12.197
98240W        W69966  35.222   7.263  13.537
98241W        W69967   9.331  44.044   0.403
98242W        W69968  29.153   2.025  10.514
98243W        W69969  31.839  34.692   3.729
98244W        W69970  42.548  17.136  14.416
98245W        W69971  44.795  21.181   0.344
98246W        W69972  29.842  12.396   2.005
98247W        W69973  41.310  33.015   3.331
98248W        W69974  16.334  41.836   0.652
98249W        W69975  33.057   9.213  10.600
98250W        W69976  28.233  23.582   0.042
98251W        W69977  22.547  30.484  10.698
98252W        W69978   9.979  37.775   0.889
98253W        W69979  16.225  42.010  11.115
98254W        W69980  37.992   3.858   1.901
98255W        W69981  23.690  38.793  11.493
98256W        W69982  28.062   8.391  12.520
98257W        W69983  43.905   6.393  10.575
98258W        W69984  21.441  34.305   4.335
98259W        W69985  30.961  29.461  11.551
98260W        W69986  41.902   5.267  11.690
98261W        W69987  24.947  41.588   4.621
98262W        W69988  16.394  35.654  12.476
98263W        W69989  33.360  20.545   4.393
98264W        W69990  12.548  20.693   1.789
98265W        W69991  41.771  10.236  10.651
98266W        W69992  39.257  39.130   2.424
98267W        W69993   7.828  20.209   2.741
98268W        W69994  10.132   5.930  12.823
98269W        W69995  22.576  32.470   2.336
98270W        W69996  19.538  41.479   4.291
98271W        W69997  25.658  11.165  10.302
98272W        W69998   3.968  11.798   4.680
98273W        W69999  44.260  30.355  13.491
98274W        W70000  34.699   4.827  13.948
98275W        W70001  18.082  42.941   4.838
98276W        W70002   8.170  35.525  11.618
98277W        W70003  41.742  32.973  14.357
98278W        W70004  10.650   5.928   0.489
98279W        W70005  31.372  16.599   0.366
98280W        W70006  36.014   3.750  11.835
98281W        W70007  37.720  15.255  13.757
98282W        W70008  16.077  12.830  14.369
98283W        W70009  24.025  37.139  13.599
98284W        W70010  35.605  14.038  12.922
98285W        W70011  22.104  41.300  10.638
98286W        W70012  28.181  17.119   4.529
98287W        W70013  27.893  25.007  12.142
98288W        W70014   7.944  34.290  14.952
98289W        W70015  33.643  13.574   4.134
98290W        W70016  31.884   0.259  10.665
98291W        W70017  19.309  16.007   2.926
98292W        W70018   0.751  30.692  11.177
98293W        W70019  29.745  24.481   3.258
98294W        W70020  31.065   2.799  11.547
98295W        W70021  26.482   0.040  10.225
98296W        W70022   1.249  23.735   3.170
98297W        W70023  38.957  43.796   2.311
98298W        W70024  28.227  35.655  11.108
98299W        W70025  44.655   9.199   4.693
98300W        W70026  10.196   1.743  11.571
98301W        W70027  31.903  20.641  12.037
98302W        W70028  30.927  37.425   0.214
98303W        W70029  12.930  33.499  14.341
98304W        W70030  10.570   9.132  13.027
98305W        W70031  21.733  20.826   1.852
98306W        W70032  23.416  24.094  10.971
98307W        W70033  22.185   7.025   4.027
98308W        W70034  43.394  37.668   2.642
98309W        W70035  36.502  22.766  12.826
98310W        W70036  17.984   1.051  10.791
98311W        W70037  36.435  27.002  13.036
98312W        W70038   4.829  38.838  11.691
98313W        W70039  32.778   4.427  14.001
98314W        W70040  33.469  10.065  14.842
98315W        W70041  44.432  44.647  11.105
98316W        W70042  11.333  31.998   2.218
98317W        W70043  14.115  22.387  12.406
98318W        W70044  30.084  26.621  13.830
98319W        W70045  15.046  11.813  13.379
98320W        W70046  41.059  24.535  12.585
98321W        W70047  17.903  31.716   2.796
98322W        W70048  39.419   5.729  10.647
98323W        W70049   3.803   8.424  11.211
98324W        W70050   5.073  17.723  11.426
98325W        W70051  11.675  13.333  12.375
98326W        W70052   4.874  23.510  14.357
98327W        W70053  24.693  22.468  12.577
98328W        W70054  17.502  32.466   2.381
98329W        W70055  37.362  43.184  14.896
98330W        W70056   2.328   9.129   2.790
98331W        W70057  11.106  24.322   3.774
98332W        W70058  20.771   6.965   3.336
98333W        W70059  23.111  42.150  11.629
98334W        W70060  17.870  40.280  12.880
98335W        W70061  18.328  19.561  14.266
98336W        W70062  20.548   6.410   1.992
98337W        W70063  41.103  16.113  12.542
98338W        W70064  32.096  22.262  13.901
98339W        W70065  37.458   7.123   0.529
98340W        W70066  35.474   4.414  12.855
98341W        W70067  24.265  13.291  13.943
98342W        W70068  19.659   0.800  11.972
98343W        W70069  24.608  41.644   1.674
98344W        W70070   7.743  16.866  13.368
98345W        W70071  43.171   8.950  14.462
98346W        W70072  26.751   1.062   4.958
98347W        W70073  17.332   2.195   0.397
98348W        W70074  13.701  23.739   3.131
98349W        W70075  10.125   7.846   1.313
98350W        W70076  21.941  27.670   3.408
98351W        W70077  34.724  35.402  12.032
98352W        W70078   5.862  19.967  10.827
98353W        W70079  33.844  26.680  14.077
98354W        W70080  12.368  39.466   2.663
98355W        W70081  36.579  16.491   1.379
98356W        W70082  18.519  15.049   0.467
98357W        W70083   8.607  44.805   1.866
98358W        W70084  14.161   8.543   1.484
98359W        W70085  23.016  23.105  12.891
98360W        W70086  28.489  38.949  13.047
98361W        W70087  39.813   6.320  12.186
98362W        W70088  38.910  43.400   4.628
98363W        W70089  28.923  40.879   4.193
98364W        W70090  23.160  16.620   4.573
98365W        W70091   8.588  15.702  10.679
98366W        W70092  31.177  23.103   3.886
98367W        W70093  41.199   6.706   0.822
98368W        W70094   2.831  37.115   0.007
98369W        W70095  33.911  17.343  10.984
98370W        W70096  37.903  33.941   0.966
98371W        W70097  43.344  20.623   0.091
98372W        W70098  39.407  34.096   0.039
98373W        W70099  14.741  25.025  14.531
98374W        W70100   5.533   3.368   1.239
98375W        W70101  13.170  19.275  14.482
98376W        W70102  23.240  43.338  14.857
98377W        W70103  19.627  43.538   0.933
98378W        W70104   7.807   5.930   2.741
98379W        W70105   3.902   7.694  10.530
98380W        W70106   4.309  13.819   9.771
98381W        W70107   0.842   6.320   4.048
98382W        W70108  43.862   5.321  13.495
98383W        W70109  22.962   1.401  11.986
98384W        W70110   7.129  37.075  14.294
98385W        W70111  30.129  33.468  14.443
98386W        W70112  15.617   1.486  14.424
98387W        W70113   3.739  16.147  10.399
98388W        W70114   2.214  40.385  12.375
98389W        W70115  44.744  28.785   1.660
98390W        W70116  27.908  43.207  10.101
98391W        W70117  21.706  24.821  10.173
98392W        W70118   5.646  16.408   3.465
98393W        W70119  40.237  18.261  11.337
98394W        W70120  30.339   2.423   3.249
98395W        W70121   3.851   7.149  13.319
98396W        W70122  43.507  24.810  12.811
98397W        W70123  21.628  34.220  11.144
98398W        W70124  40.347  17.557  14.334
98399W        W70125  24.252  38.643  11.666
98400W        W70126   2.443  20.116   0.747
98401W        W70127  29.849   4.137   4.055
98402W        W70128   4.359  11.578  14.510
98403W        W70129   6.294  42.495  12.983
98404W        W70130   6.322  16.258  14.748
98405W        W70131  42.067  27.202   1.773
98406W        W70132   5.793  10.265   1.627
98407W        W70133   5.421   0.836  13.207
98408W        W70134   8.479   2.845   0.282
98409W        W70135  36.355  15.633   1.000
98410W        W70136   8.783  25.624  10.273
98411W        W70137  14.639   8.636   1.683
98412W        W70138  42.141   9.015  11.748
98413W        W70139  32.961  40.920   0.206
98414W        W70140  13.783  42.366  12.069
98415W        W70141  19.455  30.933   4.459
98416W        W70142  16.633  19.679  13.309
98417W        W70143   7.345  13.989  14.053
98418W        W70144   9.217   6.537  11.142
98419W        W70145  40.025  38.328  13.302
98420W        W70146  44.913  20.099   3.746
98421W        W70147  11.732  30.146   5.032
98422W        W70148  15.232  16.342   2.662
98423W        W70149   7.408  34.336  13.024
98424W        W70150  15.625  27.939  10.717
98425W        W70151  20.306   7.764   1.755
98426W        W70152  30.057  34.445  12.802
98427W        W70153  35.006  33.822   0.318
98428W        W70154   6.186  24.087  10.999
98429W        W70155  13.857  25.550   4.762
98430W        W70156   6.724  39.888  12.903
98431W        W70157  37.637   3.740  14.201
98432W        W70158  27.600   4.335  12.437
98433W        W70159  15.776   0.189  12.079
98434W        W70160  44.696  10.868  10.914
98435W        W70161  13.838  22.137  11.463
98436W        W70162  24.741  24.107  14.492
98437W        W70163   5.691  12.380   1.034
98438W        W70164  33.406  20.463  11.064
98439W        W70165   3.257  28.898  10.577
98440W        W70166  10.871  22.564  13.799
98441W        W70167  40.770  15.327   0.750
98442W        W70168  35.481  44.107   2.540
98443W        W70169  30.747  27.586  12.728
98444W        W70170  38.227  41.225  11.130
98445W        W70171  19.561  12.687   0.951
98446W        W70172  10.576  10.775   3.420
98447W        W70173  23.990  32.860  14.282
98448W        W70174  13.957  36.959   3.182
98449W        W70175  14.259  37.912   1.927
98450W        W70176  20.726  41.931   1.777
98451W        W70177  12.111   1.371   0.261
98452W        W70178  38.337   8.995  11.850
98453W        W70179  44.562  22.239  13.012
98454W        W70180  42.863  40.067   1.493
98455W        W70181  31.565  21.341  10.919
98456W        W70182  21.674  44.756   0.848
98457W        W70183  35.424  18.527  13.968
98458W        W70184  20.552  24.546   4.278
98459W        W70185   9.336  43.971   3.823
98460W        W70186  43.491  25.773   2.670
98461W        W70187  43.052  20.314  11.197
98462W        W70188   8.520  13.238   0.830
98463W        W70189  21.077  12.238   3.318
98464W        W70190  33.562   4.890  11.671
98465W        W70191   8.250  10.776  11.104
98466W        W70192   2.944  28.627  12.613
98467W        W70193   0.699  25.942   3.185
98468W        W70194  26.480  34.135   1.118
98469W        W70195  11.045  40.886  12.234
98470W        W70196   5.295  21.102   4.462
98471W        W70197   4.295  35.132  11.495
98472W        W70198  26.455  35.613   0.334
98473W        W70199   6.626  15.361   4.567
98474W        W70200  40.879  14.520   2.329
98475W        W70201  18.499  27.005   1.047
98476W        W70202  42.053  30.673  13.725
98477W        W70203  10.522  44.339   3.648
98478W        W70204   8.189  22.720  14.861
98479W        W70205  13.435  28.976   4.642
98480W        W70206  13.809  40.332  12.758
98481W        W70207  10.764   2.278  12.625
98482W        W70208  35.332  43.567   2.785
98483W        W70209  33.641   5.001  13.088
98484W        W70210  10.942  18.764   2.200
98485W        W70211  27.525  32.895  12.421
98486W        W70212  42.451   0.152   3.060
98487W        W70213  40.834  11.464  12.336
98488W        W70214  36.374  40.557  12.032
98489W        W70215  12.426  40.315  14.503
98490W        W70216   2.220   1.477  11.021
98491W        W70217  36.595   6.674  10.538
98492W        W70218  12.266  41.827  10.385
98493W        W70219   2.287  28.663  12.379
98494W        W70220  34.296  13.235   4.586
98495W        W70221  27.178  14.305  14.314
98496W        W70222  18.580  34.544  11.226
98497W        W70223  40.615  42.557  10.780
98498W        W70224  43.398  12.316  12.557
98499W        W70225  19.041  11.846   4.061
98500W        W70226  28.657  22.629  10.625
98501W        W70227   5.700  42.402  11.519
98502W        W70228   8.867   5.522   0.239
98503W        W70229  35.549  40.180  10.717
98504W        W70230  27.966  10.278   1.452
98505W        W70231  30.535  21.125   0.672
98506W        W70232  25.029   7.732   4.586
98507W        W70233  36.090  10.393   2.450
98508W        W70234  27.038   7.675  12.471
98509W        W70235   9.892  35.576  14.083
98510W        W70236   0.416  43.839   4.685
98511W        W70237  13.801  33.458   1.307
98512W        W70238  29.532  43.051  13.841
98513W        W70239  37.297  15.667   0.408
98514W        W70240   5.477  30.553   0.304
98515W        W70241  41.545  24.534   4.707
98516W        W70242  10.352   1.217   1.969
98517W        W70243  20.339  12.237   4.223
98518W        W70244  24.788   1.339   4.262
98519W        W70245  19.325  33.883  11.495
98520W        W70246  40.248  42.393   0.562
98521W        W70247  23.201  14.186  11.660
98522W        W70248  31.911   6.149  10.401
98523W        W70249   2.346  31.530   0.764
98524W        W70250  44.348   1.348  13.534
98525W        W70251  39.895  16.522   4.507
98526W        W70252  18.275  39.802  13.336
98527W        W70253  26.527  35.502   4.363
98528W        W70254  38.862  36.088  12.094
98529W        W70255  35.938   9.968  13.361
98530W        W70256  32.092  39.924  11.571
98531W        W70257   7.750   8.207   3.374
98532W        W70258  17.609   1.948  13.362
98533W        W70259   4.812  22.762  12.984
98534W        W70260   7.178  10.205   1.411
98535W        W70261  38.068  32.995   2.732
98536W        W70262  23.193   1.850   3.633
98537W        W70263  14.071  17.987  14.876
98538W        W70264  35.557  15.839   0.451
98539W        W70265  27.008  34.799  11.552
98540W        W70266  31.603  31.170  13.195
98541W        W70267   5.907  34.524   0.994
98542W        W70268   4.164   0.447   1.903
98543W        W70269  19.988  35.323  12.477
98544W        W70270   2.585   7.706   2.731
98545W        W70271  15.212  35.462   3.603
98546W        W70272  21.444  28.434   1.481
98547W        W70273   2.938  21.592   2.165
98548W        W70274  41.779  35.895  11.501
98549W        W70275  44.795  24.709   5.294
98550W        W70276   8.739  22.247   3.653
98551W        W70277  12.203   7.058   4.696
98552W        W70278   8.274   3.750   4.758
98553W        W70279  32.544  27.050   4.901
98554W        W70280  34.797  30.382   3.608
98555W        W70281  18.549   4.920  13.076
98556W        W70282   0.470  10.286   4.087
98557W        W70283   2.715  18.003   3.174
98558W        W70284   1.177  28.232   3.646
98559W        W70285   0.549  29.075  13.487
98560W        W70286   7.222  37.357   3.371
98561W        W70287  13.507   1.965   3.607
98562W        W70288   8.225   8.637  10.493
98563W        W70289  23.938  28.439  12.966
98564W        W70290  36.809  18.064  12.935
98565W        W70291  41.944  39.577   1.495
98566W        W70292  10.373   0.716  10.849
98567W        W70293  44.526  19.479   1.676
98568W        W70294  10.837  30.533   1.893
98569W        W70295  39.716   2.380  12.548
98570W        W70296  20.579  16.613   0.958
98571W        W70297   6.464   9.936   4.120
98572W        W70298  32.625  17.242  13.627
98573W        W70299  42.181  21.990   2.162
98574W        W70300  39.088  41.017  14.325
98575W        W70301  40.084   5.409  11.218
98576W        W70302  16.251  25.598  13.993
98577W        W70303  23.515   0.753   1.393
98578W        W70304   4.872  31.076   2.351
98579W        W70305  16.499  16.110  12.800
98580W        W70306  26.489   3.500  11.663
98581W        W70307  21.688   7.385   2.200
98582W        W70308   7.814   0.267   0.223
98583W        W70309  17.794  22.067  11.922
98584W        W70310   2.963  35.004   2.754
98585W        W70311  15.203  26.479  11.544
98586W        W70312   6.243  27.529   1.276
98587W        W70313  38.384   0.361   2.853
98588W        W70314  30.818  10.251   5.192
98589W        W70315  10.749  21.972  10.724
98590W        W70316  14.362  23.187  12.067
98591W        W70317  14.228  20.953  13.214
98592W        W70318  27.528  40.815   0.102
98593W        W70319  41.775  27.237  10.704
98594W        W70320  29.890  29.059   4.541
98595W        W70321  24.230  31.627  14.779
98596W        W70322  15.782  40.005   0.917
98597W        W70323   8.671  12.689  11.242
98598W        W70324   4.052  39.285  12.197
98599W        W70325   5.689  24.366   2.319
98600W        W70326  39.550   6.850   0.389
98601W        W70327  31.678   1.354  12.877
98602W        W70328  16.251  12.136  12.282
98603W        W70329  32.676  36.954   0.848
98604W        W70330   4.735   8.835  14.104
98605W        W70331  22.966  34.998   4.890
98606W        W70332   5.163  25.000  14.763
98607W        W70333  34.583  21.560   4.783
98608W        W70334  27.508  18.524   0.905
98609W        W70335   1.356   9.767  11.522
98610W        W70336  42.044  10.439  11.482
98611W        W70337   7.103  32.919  11.881
98612W        W70338   8.365  13.002  10.667
98613W        W70339  37.068  29.063  12.626
98614W        W70340  17.629  34.399   3.617
98615W        W70341  41.245  26.168  12.229
98616W        W70342  42.579  10.793   3.655
98617W        W70343  35.481  43.377  10.932
98618W        W70344  43.042   7.573   2.697
98619W        W70345  13.074   7.543  13.035
98620W        W70346  31.567  16.148  12.842
98621W        W70347   1.426   3.028   0.313
98622W        W70348  14.398   0.898   2.914
98623W        W70349  24.948   7.650   5.078
98624W        W70350  26.136  12.712  14.400
98625W        W70351  39.807  41.403  11.157
98626W        W70352   0.039   4.478   2.754
98627W        W70353  18.265  40.940  10.519
98628W        W70354  17.356  29.106  11.575
98629W        W70355  33.396  26.638   4.147
98630W        W70356  40.093  14.712   1.861
98631W        W70357  28.904  38.448  14.577
98632W        W70358  27.882  34.990  14.273
98633W        W70359  27.247  35.248   4.218
98634W        W70360   2.854   3.331   3.221
98635W        W70361  37.468  25.498   4.828
98636W        W70362  25.197   8.337   4.450
98637W        W70363  35.391  26.476   1.020
98638W        W70364  10.374  30.942  11.148
98639W        W70365  26.497  23.042  11.142
98640W        W70366  29.570  38.945   4.654
98641W        W70367  31.955  22.454   4.664
98642W        W70368  12.100  44.701  11.017
98643W        W70369  11.189  42.014   0.868
98644W        W70370  29.750   9.693  14.191
98645W        W70371  39.787   4.374   1.773
98646W        W70372  42.943  11.135  11.916
98647W        W70373  15.073  16.225   1.735
98648W        W70374  37.130  37.423   1.493
98649W        W70375  22.002  26.812  14.971
98650W        W70376  16.278  25.976   0.883
98651W        W70377   4.602  28.693  10.579
98652W        W70378  41.965  41.789  12.899
98653W        W70379  39.821  30.624  13.562
98654W        W70380  27.207  32.839   1.358
98655W        W70381  40.895  29.083   0.405
98656W        W70382  15.703  21.165   3.814
98657W        W70383  24.123  43.019  14.002
98658W        W70384  14.715   6.257   1.362
98659W        W70385  29.121   3.706  10.714
98660W        W70386  39.498  36.752  12.614
98661W        W70387   2.019  15.001   4.466
98662W        W70388   3.526  23.771  11.703
98663W        W70389  27.254  10.461  11.443
98664W        W70390   8.744   0.501   3.203
98665W        W70391  21.119   5.897  13.925
98666W        W70392  21.663  37.602  10.978
98667W        W70393  22.091  37.339  11.475
98668W        W70394  20.783  36.964   4.426
98669W        W70395  23.818  10.355  13.489
98670W        W70396  17.162  26.258  14.892
98671W        W70397   0.506  19.266   4.887
98672W        W70398  14.454  20.676   0.945
98673W        W70399  26.884   8.981   3.189
98674W        W70400  32.677  21.499   1.253
98675W        W70401   2.471  25.597   1.693
98676W        W70402  16.174  32.593   4.599
98677W        W70403   5.453  24.182  11.639
98678W        W70404  10.479  22.758  10.678
98679W        W70405  43.316   5.193   1.818
98680W        W70406  44.956   5.714  12.424
98681W        W70407  12.950   5.267  12.883
98682W        W70408  28.965  19.136  14.929
98683W        W70409   9.110  14.181   2.602
98684W        W70410  23.244  37.811  10.743
98685W        W70411  14.216  40.374  12.361
98686W        W70412  31.031  33.088   1.767
98687W        W70413  44.748   3.034  10.867
98688W        W70414  18.034   5.555   2.179
98689W        W70415  42.527  31.512   4.836
98690W        W70416  33.553   2.261   2.714
98691W        W70417  27.926  12.940   4.196
98692W        W70418  11.361  31.489  13.587
98693W        W70419  29.563  32.968   4.690
98694W        W70420  19.300   7.517   0.326
98695W        W70421   7.743  15.570   1.901
98696W        W70422  33.861  15.465  10.778
98697W        W70423  27.019  18.637  10.763
98698W        W70424  33.675  28.930  14.452
98699W        W70425  25.018  18.095   4.259
98700W        W70426  34.144  16.916   3.279
98701W        W70427  14.306  15.338  14.380
98702W        W70428   1.950  21.093  13.388
98703W        W70429   2.061  37.372   9.582
98704W        W70430  22.112  23.769  12.477
98705W        W70431  20.604  20.998  11.678
98706W        W70432  40.299  33.678   0.972
98707W        W70433  35.488  18.785  12.918
98708W        W70434  34.617  31.438  12.853
98709W        W70435  42.383  43.014  11.915
98710W        W70436  42.322  34.353   4.120
98711W        W70437  36.773  41.901   2.708
98712W        W70438  20.456  35.229  11.156
98713W        W70439  14.040  11.894   1.331
98714W        W70440  42.862   1.972  10.488
98715W        W70441  18.637   0.402  14.386
98716W        W70442  15.271  33.393  10.458
98717W        W70443  13.757  39.946   0.004
98718W        W70444  27.667  11.632   1.893
98719W        W70445  29.770   3.353   1.135
98720W        W70446   3.432  10.683  11.285
98721W        W70447   4.373  30.106   3.761
98722W        W70448   8.400  13.368   2.164
98723W        W70449  31.533  39.756   3.043
98724W        W70450  13.866  22.216   2.145
98725W        W70451  34.134  32.343  12.446
98726W        W70452  11.649  21.015  10.132
98727W        W70453   9.918   1.453  11.250
98728W        W70454  14.570  14.544   4.468
98729W        W70455  19.805  36.775  14.615
98730W        W70456  29.357  27.596  12.103
98731W        W70457  19.233  42.851  12.345
98732W        W70458   7.240  19.235  13.956
98733W        W70459  32.679   4.989  11.033
98734W        W70460  25.237  17.281  10.504
98735W        W70461  31.926   8.436   0.778
98736W        W70462  27.227  11.879   1.784
98737W        W70463  15.150  20.924   4.134
98738W        W70464   4.745  33.157  11.886
98739W        W70465  43.273  12.429   1.769
98740W        W70466  43.771  28.459   3.896
98741W        W70467  26.635  30.404  12.521
98742W        W70468  24.246  33.610   1.499
98743W        W70469  18.188  31.829  13.468
98744W        W70470  13.063   6.844  13.635
98745W        W70471   8.608  18.961  14.904
98746W        W70472  41.143   6.902  13.286
98747W        W70473  29.729  19.083   0.785
98748W        W70474  21.609   2.063   5.043
98749W        W70475   0.592  10.813  14.223
98750W        W70476   1.003  20.203   1.811
98751W        W70477  31.413  41.158   1.754
98752W        W70478   9.198   0.732   3.204
98753W        W70479  16.849  13.074   3.184
98754W        W70480  21.019  31.158  12.902
98755W        W70481  29.549   6.369   5.076
98756W        W70482  10.746  24.239   9.954
98757W        W70483  13.389  21.941   1.346
98758W        W70484  31.243  13.801  10.393
98759W        W70485  37.109  44.352  14.418
98760W        W70486  14.341  35.549  10.624
98761W        W70487  16.640  39.575   4.753
98762W        W70488  34.489  18.055  12.144
98763W        W70489  22.207  35.469   1.545
98764W        W70490  35.520  28.990  11.076
98765W        W70491  26.425  24.653  14.980
98766W        W70492  36.795  12.356   2.874
98767W        W70493  23.092  30.067  14.823
98768W        W70494  31.656  43.349   4.741
98769W        W70495   3.169  26.566  12.093
98770W        W70496  14.559  20.019  11.903
98771W        W70497  10.732  31.053   3.729
98772W        W70498  23.167   0.870  12.018
98773W        W70499  26.618  36.363   1.480
98774W        W70500  35.500  28.384  12.128
98775W        W70501  36.655  44.759   3.193
98776W        W70502  42.426   8.446  11.150
98777W        W70503  28.846  25.323   1.269
98778W        W70504  17.516  27.878   4.146
98779W        W70505  31.485  41.644   5.574
98780W        W70506  26.659  19.020   2.134
98781W        W70507   7.933  17.253  14.368
98782W        W70508  15.603  20.983  14.383
98783W        W70509   8.359  32.656   1.247
98784W        W70510  44.600   8.714  12.982
98785W        W70511  14.873   8.831  10.828
98786W        W70512  11.639   5.773  13.127
98787W        W70513  33.010  13.328   3.310
98788W        W70514  44.807  34.310   3.766
98789W        W70515  40.363   0.384  10.872
98790W        W70516  10.559  39.951  11.099
98791W        W70517  13.124  12.814   1.417
98792W        W70518  34.529  34.481   1.483
98793W        W70519  24.209  23.407  14.796
98794W        W70520  25.961  26.241  10.945
98795W        W70521  30.769  26.648   2.458
98796W        W70522  16.101  39.306   1.387
98797W        W70523   4.823  33.049   3.353
98798W        W70524   8.305  35.455  10.376
98799W        W70525  35.044   8.217  14.405
98800W        W70526  19.618  16.124   0.399
98801W        W70527  22.063  17.003  14.216
98802W        W70528  27.111  19.631   3.651
98803W        W70529  21.191  42.826  13.071
98804W        W70530   4.283   6.765   2.327
98805W        W70531  30.002  10.809  12.059
98806W        W70532   2.492  27.660  12.416
98807W        W70533  27.097  38.765   9.885
98808W        W70534  28.620  30.568  11.301
98809W        W70535  39.503   2.487   2.750
98810W        W70536  11.211  41.158  12.655
98811W        W70537  24.266  10.470  14.506
98812W        W70538  36.416  32.017   3.239
98813W        W70539  13.695   3.767  12.108
98814W        W70540   5.654  30.381  14.253
98815W        W70541  10.816  41.786   4.208
98816W        W70542  20.572   6.408   5.067
98817W        W70543  11.039  21.606   1.356
98818W        W70544   5.655  41.456   4.532
98819W        W70545  44.018  22.143  13.989
98820W        W70546  25.635  42.704   3.879
98821W        W70547  41.028  38.045  10.556
98822W        W70548  20.243  39.484   4.733
98823W        W70549  17.393   9.342   3.189
98824W        W70550   7.598  15.198  11.175
98825W        W70551  35.483  41.742  11.945
98826W        W70552  18.527  30.161  11.492
98827W        W70553  35.381  39.325   3.334
98828W        W70554   3.843  40.357   4.645
98829W        W70555   7.871  27.500   3.719
98830W        W70556  38.300  29.098   3.117
98831W        W70557  40.576  27.479  14.461
98832W        W70558  26.510  34.751  13.096
98833W        W70559  23.488  42.710   2.598
98834W        W70560   3.810  10.166  12.949
98835W        W70561  35.964   5.482   4.587
98836W        W70562  29.239  43.942   1.241
98837W        W70563  13.219  29.587   0.933
98838W        W70564  13.332  31.024  12.800
98839W        W70565  44.947  33.312  12.498
98840W        W70566  38.958   6.488   2.732
98841W        W70567  37.597  17.868  11.237
98842W        W70568  24.569   2.539   4.752
98843W        W70569  33.597  44.130   4.179
98844W        W70570  24.007   1.388   3.830
98845W        W70571   8.340  34.829   2.200
98846W        W70572   7.629  17.140   1.866
98847W        W70573   1.470  20.083  13.477
98848W        W70574   5.794  15.160  12.119
98849W        W70575  35.339  26.639  10.608
98850W        W70576   3.215  17.842   2.339
98851W        W70577  25.591  21.118  13.185
98852W        W70578  28.938  35.318  11.679
98853W        W70579   7.293  21.284   0.764
98854W        W70580   1.306  29.348   0.754
98855W        W70581   5.543  23.618   3.037
98856W        W70582   8.288  26.502   0.057
98857W        W70583   2.451   1.258  14.911
98858W        W70584  31.687  40.084   0.833
98859W        W70585  40.588   0.526   0.546
98860W        W70586  11.317  42.890  13.402
98861W        W70587  17.378  38.772   4.266
98862W        W70588  41.271   7.325  10.456
98863W        W70589  29.126  37.762  12.079
98864W        W70590  35.504   0.831  13.445
98865W        W70591  44.761   1.530  14.300
98866W        W70592   4.834  28.730   4.619
98867W        W70593   3.729   7.862   0.831
98868W        W70594  19.338  26.447  12.369
98869W        W70595  15.549  26.934  13.486
98870W        W70596  43.924   4.291   3.592
98871W        W70597   3.444   7.323   0.637
98872W        W70598  12.302   8.614  14.922
98873W        W70599   9.629   2.162  14.862
98874W        W70600  27.983  12.924   1.202
98875W        W70601  13.114  41.708  14.811
98876W        W70602   2.643  42.526  11.473
98877W        W70603  35.051  34.040   4.895
98878W        W70604  25.902  44.799   0.848
98879W        W70605  41.012   8.484   1.756
98880W        W70606   9.231  21.647   4.089
98881W        W70607  16.591  20.029  13.730
98882W        W70608   2.457  20.516   1.066
98883W        W70609  33.120  44.830  10.742
98884W        W70610  11.590  27.083   1.358
98885W        W70611  24.791  13.524  12.483
98886W        W70612  21.611  27.073   0.789
98887W        W70613   0.742  25.509   0.273
98888W        W70614   1.981  28.459  10.705
98889W        W70615  29.918  24.472  12.921
98890W        W70616  28.556  17.721   4.143
98891W        W70617  18.768  32.888  14.808
98892W        W70618   8.869  16.648  12.444
98893W        W70619  27.212  39.539   1.432
98894W        W70620  31.861  11.215  13.882
98895W        W70621  35.974  39.833   3.821
98896W        W70622  18.170  11.345  11.662
98897W        W70623  35.108   5.539   4.562
98898W        W70624   4.364   5.837  14.064
98899W        W70625  30.060  37.995  10.802
98900W        W70626  34.269  22.669  12.856
98901W        W70627  22.293   1.988  11.120
98902W        W70628  42.841  12.266  12.344
98903W        W70629   3.498  44.516  14.775
98904W        W70630  26.331  16.719  11.066
98905W        W70631  10.462  37.347   1.326
98906W        W70632  42.854  43.038  12.147
98907W        W70633   0.976  22.814  11.160
98908W        W70634   5.423  30.986  13.084
98909W        W70635  13.414  28.941  12.129
98910W        W70636  10.791  29.372  13.878
98911W        W70637   8.485  13.259   3.214
98912W        W70638   8.462   0.990  13.038
98913W        W70639  42.971  20.240   2.011
98914W        W70640   0.612   6.233  13.224
98915W        W70641   2.806  43.272   4.546
98916W        W70642  35.790  12.669  14.542
98917W        W70643  41.831  21.803  12.549
98918W        W70644  40.255   1.906  13.004
98919W        W70645   6.285  26.389  14.766
98920W        W70646  44.004  23.375  13.044
98921W        W70647   9.152  22.572   0.040
98922W        W70648  20.522  18.712  12.008
98923W        W70649  30.104  42.224  13.029
98924W        W70650  31.942  40.802  13.389
98925W        W70651  14.765   4.879  13.122
98926W        W70652   4.158  11.900   4.202
98927W        W70653   7.352   2.779   4.228
98928W        W70654  18.646  16.096  13.302
98929W        W70655  12.827  42.944   0.260
98930W        W70656  37.652  23.679   1.402
98931W        W70657   9.162  44.956  14.292
98932W        W70658  23.429  28.606  12.075
98933W        W70659   6.326  37.308   4.092
98934W        W70660  44.238  15.088   4.208
98935W        W70661  11.423   8.468  11.150
98936W        W70662  13.069  28.592  11.190
98937W        W70663  20.810  17.556   0.702
98938W        W70664  28.048  19.463  11.080
98939W        W70665  27.537   2.784  13.044
98940W        W70666  16.556   3.215   3.343
98941W        W70667   9.837  37.396   0.055
98942W        W70668   3.900   0.728   2.246
98943W        W70669  23.473  32.405   3.208
98944W        W70670  16.163  12.124   0.425
98945W        W70671  26.400   5.909   1.914
98946W        W70672  12.347   9.694  10.735
98947W        W70673  11.589  37.455   0.274
98948W        W70674  12.017  26.401   0.315
98949W        W70675   7.571  21.626  13.580
98950W        W70676  21.292  41.679  13.859
98951W        W70677  37.809  32.920   3.789
98952W        W70678  26.549  22.060  12.067
98953W        W70679   6.801  29.075   0.838
98954W        W70680  30.017  19.621   3.952
98955W        W70681   9.415  26.358  14.904
98956W        W70682  41.903  31.537   3.685
98957W        W70683  35.897  37.249  11.668
98958W        W70684  39.394  32.325  13.970
98959W        W70685   2.739  32.375   1.612
98960W        W70686  22.329   3.492  11.608
98961W        W70687  26.895  22.185  14.758
98962W        W70688  23.591  27.743   4.252
98963W        W70689  26.981   0.449   3.346
98964W        W70690  30.867  16.857   1.360
98965W        W70691  28.945  10.686  13.468
98966W        W70692  13.635   6.305  10.777
98967W        W70693   8.717  36.124  10.092
98968W        W70694  33.627   3.014   4.600
98969W        W70695   3.848  12.654   4.253
98970W        W70696  31.341  43.388   1.987
98971W        W70697   4.859  44.407   1.271
98972W        W70698  23.749  41.760  13.074
98973W        W70699  43.212  16.549  13.734
98974W        W70700  37.633  13.107   5.177
98975W        W70701  36.957   2.013   1.221
98976W        W70702  30.170   2.670  14.301
98977W        W70703  21.453  25.918  11.999
98978W        W70704   3.121  15.361  14.246
98979W        W70705  28.954  21.281   1.821
98980W        W70706  42.908  25.046   1.768
98981W        W70707  31.921  40.314   1.846
98982W        W70708  16.822  30.364  13.390
98983W        W70709  23.891  24.965   2.358
98984W        W70710  34.060  21.551   4.742
98985W        W70711  31.505  20.461  13.144
98986W        W70712  36.364  36.906   0.199
98987W        W70713  37.543  32.341   0.700
98988W        W70714  12.347  25.037  14.593
98989W        W70715  11.127  21.157  13.478
98990W        W70716   6.762  36.138  14.796
98991W        W70717  23.881  15.642  11.903
98992W        W70718   4.647  18.663   3.923
98993W        W70719  28.153   3.266  13.551
98994W        W70720  10.726  33.072  10.854
98995W        W70721  38.410  31.623   1.361
98996W        W70722  37.386   4.895  12.945
98997W        W70723  36.412  12.441   3.840
98998W        W70724  32.153  26.798   0.821
98999W        W70725  13.555  31.081   4.403
99000W        W70726  34.585  27.166  13.248
99001W        W70727   5.996  13.554  10.598
99002W        W70728  38.328  18.215   4.723
99003W        W70729  41.868  33.895  10.706
99004W        W70730   9.443  28.238  11.112
99005W        W70731  35.042  25.458   3.815
99006W        W70732  42.457   2.276   2.325
99007W        W70733  18.198   8.064   0.341
99008W        W70734  32.220  43.382  13.352
99009W        W70735  23.882  34.872   0.334
99010W        W70736  16.863  15.347   1.419
99011W        W70737  17.737  37.290   0.405
99012W        W70738  20.699  16.245  13.098
99013W        W70739  36.522   4.874  14.535
99014W        W70740  42.764  13.653   2.147
99015W        W70741   4.459  31.571   3.189
99016W        W70742  41.431   9.677  14.027
99017W        W70743   9.774  20.989   0.983
99018W        W70744  20.071  29.749   4.536
99019W        W70745  12.091   4.533  10.478
99020W        W70746  31.372   5.425   2.651
99021W        W70747   3.876  22.499  13.528
99022W        W70748  33.516  23.016   0.967
99023W        W70749  29.044  40.131  14.899
99024W        W70750   0.832  28.228   4.034
99025W        W70751  28.453  38.413  14.303
99026W        W70752  21.704  12.380   1.466
99027W        W70753  31.217   8.388  14.031
99028W        W70754   3.203   5.778   1.357
99029W        W70755  27.952  25.250   2.825
99030W        W70756  14.080   6.201   4.192
99031W        W70757  27.865   9.237  14.403
99032W        W70758  40.095  34.146   3.584
99033W        W70759  37.708  21.293  11.978
99034W        W70760  10.427  20.720   5.011
99035W        W70761  35.338  24.998   5.012
99036W        W70762  40.913  22.016   3.070
99037W        W70763  29.524  17.093  11.751
99038W        W70764   1.919  22.645   3.687
99039W        W70765  33.020  41.777   3.217
99040W        W70766  40.984   0.253   0.728
99041W        W70767  13.748  10.406   2.219
99042W        W70768  24.726  20.716  14.077
99043W        W70769  28.760  41.738  14.880
99044W        W70770  24.356  36.429  11.018
99045W        W70771   3.432   7.399  11.636
99046W        W70772  36.521  14.751   2.506
99047W        W70773  13.116  44.430  14.523
99048W        W70774  24.660  34.179   3.616
99049W        W70775   7.518  24.460  14.472
99050W        W70776  25.222   1.370  12.918
99051W        W70777  16.537   9.731  11.115
99052W        W70778  35.825  17.895  12.853
99053W        W70779  29.600  23.320   3.971
99054W        W70780  19.220   7.331   2.994
99055W        W70781  41.780  22.717   2.223
99056W        W70782   6.503  22.608  11.227
99057W        W70783  11.730  28.140  14.965
99058W        W70784  18.779  11.677  14.392
99059W        W70785   0.184   4.220  13.493
99060W        W70786  28.395   9.923   3.282
99061W        W70787  28.637  36.678  11.508
99062W        W70788  39.665  43.804  11.464
99063W        W70789   7.342   9.659  14.859
99064W        W70790  19.211   1.333  10.782
99065W        W70791  22.513  44.083   0.725
99066W        W70792  36.897  39.485   2.425
99067W        W70793  25.067   1.420   3.298
99068W        W70794  35.045   1.965   0.799
99069W        W70795   2.674   3.535   1.005
99070W        W70796  13.887  38.850   3.371
99071W        W70797  30.070   3.268  14.124
99072W        W70798  19.068  39.285   4.417
99073W        W70799  34.113   9.001   2.163
99074W        W70800   5.716  13.757  11.835
99075W        W70801  20.702  25.146   3.794
99076W        W70802  34.144  23.126  13.099
99077W        W70803  28.543   1.206  13.276
99078W        W70804  26.593   0.035  12.503
99079W        W70805  41.536   2.233   1.689
99080W        W70806  43.454  25.015   3.196
99081W        W70807   4.953   2.666   2.761
99082W        W70808  28.651  13.842   0.732
99083W        W70809  44.673  40.020   3.355
99084W        W70810  40.527  23.111  12.466
99085W        W70811  25.712  16.824   2.462
99086W        W70812  12.242  11.230  11.527
99087W        W70813  13.813  20.334  11.592
99088W        W70814  24.679  21.097   4.886
99089W        W70815  36.241  11.108   3.651
99090W        W70816  18.077   2.719  12.498
99091W        W70817  37.753  25.750  10.965
99092W        W70818  38.520  14.094  10.651
99093W        W70819  39.581  30.460  14.232
99094W        W70820  31.385  43.535   1.006
99095W        W70821  20.500   4.866  14.320
99096W        W70822  14.386   1.573  14.899
99097W        W70823  23.255  35.818   3.338
99098W        W70824  26.049  35.655   0.669
99099W        W70825  17.262  10.549  11.537
99100W        W70826  27.436   6.857  13.358
99101W        W70827  20.006  22.490   1.367
99102W        W70828  13.063  11.420  13.015
99103W        W70829  18.975  28.465  13.912
99104W        W70830  30.066  17.290   0.046
99105W        W70831  27.972  41.871  12.948
99106W        W70832   7.998   4.812   2.751
99107W        W70833   8.145  19.004   3.275
99108W        W70834  33.340  44.089  13.036
99109W        W70835   1.228  22.221  10.746
99110W        W70836  25.481  36.895   0.554
99111W        W70837   9.821   5.327   0.476
99112W        W70838   2.248  29.395   1.907
99113W        W70839   8.330  16.720  10.744
99114W        W70840  10.940   0.650  12.048
99115W        W70841  10.593  38.324  12.473
99116W        W70842  19.593  23.026  11.635
99117W        W70843  27.220   7.769  10.746
99118W        W70844  42.718  25.669   4.665
99119W        W70845  24.458  15.563  14.409
99120W        W70846  22.078  26.229  10.694
99121W        W70847  35.097  12.215   2.194
99122W        W70848  25.534  14.009  12.021
99123W        W70849  43.452  39.986  12.217
99124W        W70850   0.696   2.243   3.677
99125W        W70851   0.522  23.174  12.173
99126W        W70852  40.170  14.557  10.725
99127W        W70853  42.764  18.618   5.211
99128W        W70854  24.732  24.607   1.188
99129W        W70855  11.877   6.346  14.953
99130W        W70856   1.150  25.503   1.049
99131W        W70857  19.643  30.009   2.379
99132W        W70858  10.675  29.985   4.109
99133W        W70859  15.220   4.526  14.935
99134W        W70860  42.837   5.756   0.722
99135W        W70861  17.973  41.826   2.229
99136W        W70862  22.457  27.918  11.917
99137W        W70863  16.147  32.346   2.448
99138W        W70864  36.441  16.127   3.201
99139W        W70865  44.467  29.167   4.181
99140W        W70866   1.656  29.904   1.233
99141W        W70867  31.624  30.441  13.908
99142W        W70868  18.591  31.655  14.625
99143W        W70869  20.233  30.549   3.800
99144W        W70870  24.245  21.090   1.870
99145W        W70871  13.547  24.160  11.422
99146W        W70872  27.121  15.187   4.443
99147W        W70873  17.562  44.940  13.531
99148W        W70874   4.162  37.051   4.330
99149W        W70875  14.290  11.500   4.524
99150W        W70876   3.972   6.947  14.806
99151W        W70877  33.086  35.470  13.803
99152W        W70878   2.845  42.768  11.092
99153W        W70879  42.317  27.868  10.797
99154W        W70880  16.318  40.637   5.420
99155W        W70881  27.400   6.713  11.567
99156W        W70882  41.443  38.068   2.945
99157W        W70883  10.205  12.736   3.066
99158W        W70884  20.800  33.807  14.202
99159W        W70885   1.955  31.549  14.491
99160W        W70886  32.951  19.490   2.886
99161W        W70887  29.561  35.764   2.605
99162W        W70888  25.473  30.065   0.257
99163W        W70889  15.228   8.791  12.511
99164W        W70890   8.704   2.187  14.815
99165W        W70891  31.551   7.810  13.292
99166W        W70892  34.366  17.318   0.283
99167W        W70893  43.146  40.145  13.362
99168W        W70894  20.322  28.169   3.769
99169W        W70895  23.969  30.103   1.264
99170W        W70896  42.759   3.622  12.051
99171W        W70897  38.411  21.354  10.715
99172W        W70898  23.464  42.776   1.261
99173W        W70899  26.983  19.045  11.481
99174W        W70900  40.287  28.696  12.656
99175W        W70901   4.402   9.172   4.255
99176W        W70902  19.807   8.201   4.820
99177W        W70903   1.278  38.851   3.628
99178W        W70904  20.022   9.261   3.424
99179W        W70905  12.096  12.942  13.130
99180W        W70906  21.063   4.910  11.142
99181W        W70907  44.535  10.771   4.007
99182W        W70908  20.072  27.426  13.609
99183W        W70909  31.471  23.642   1.217
99184W        W70910   9.765   1.901   2.998
99185W        W70911  15.304  44.291   3.614
99186W        W70912  11.820  26.288  12.258
99187W        W70913   7.402  44.405   2.374
99188W        W70914  11.142  36.813  13.361
99189W        W70915  12.146   6.377  14.346
99190W        W70916   1.912  10.611   1.374
99191W        W70917  19.515  10.725  14.786
99192W        W70918  19.570  32.922  13.463
99193W        W70919  18.065  33.429  11.054
99194W        W70920  34.039  35.284  12.492
99195W        W70921  28.171  30.952  11.404
99196W        W70922  11.080  21.540  12.973
99197W        W70923  11.266   4.242  12.912
99198W        W70924  22.442   6.184   4.999
99199W        W70925  10.565  23.183   1.780
99200W        W70926  15.061  44.001   1.126
99201W        W70927  35.823  33.058   3.626
99202W        W70928  37.982  38.884   0.981
99203W        W70929  37.500   6.421  12.118
99204W        W70930  34.341  40.586   2.492
99205W        W70931  13.699   3.012  13.334
99206W        W70932  12.386  36.612  11.102
99207W        W70933   6.377   8.634  12.891
99208W        W70934  36.449   3.311  13.900
99209W        W70935  38.310  30.932  12.545
99210W        W70936  33.013  13.717  11.593
99211W        W70937  17.663   6.192  12.721
99212W        W70938  35.133  15.718  10.640
99213W        W70939  25.281  27.426   1.947
99214W        W70940  41.244  19.032   1.977
99215W        W70941  28.028  24.248  11.478
99216W        W70942  26.475   2.702   0.389
99217W        W70943  18.040  14.910  11.621
99218W        W70944   7.257  15.659   4.136
99219W        W70945  12.833  11.755   3.535
99220W        W70946  34.099  22.089   4.183
99221W        W70947  22.250  12.151  13.377
99222W        W70948  14.742  18.263   4.738
99223W        W70949  22.291  33.097   1.169
99224W        W70950  38.405  12.804   0.096
99225W        W70951  27.533   3.921  10.693
99226W        W70952  37.352  34.674   0.819
99227W        W70953   9.698  18.568   3.728
99228W        W70954  18.504  28.627  12.974
99229W        W70955  36.520  29.057   2.869
99230W        W70956  41.473  29.382  11.565
99231W        W70957  35.941  35.088  11.058
99232W        W70958   1.743  13.186   1.717
99233W        W70959   9.117  39.278   3.702
99234W        W70960  35.324   8.845   3.699
99235W        W70961  11.091   7.729   1.299
99236W        W70962   6.631  32.862  12.243
99237W        W70963   6.314   0.719  13.141
99238W        W70964  31.412  28.145   0.992
99239W        W70965  16.414  43.542  11.224
99240W        W70966  26.497  12.157  10.681
99241W        W70967  24.661  28.843  14.472
99242W        W70968   3.153  39.863   4.107
99243W        W70969  44.527   0.124  11.206
99244W        W70970  26.232   6.948  10.591
99245W        W70971  41.020  25.515   0.378
99246W        W70972  26.756  37.744   3.801
99247W        W70973  34.416  12.758  12.119
99248W        W70974  13.658  10.774  14.544
99249W        W70975   4.321  38.789   4.898
99250W        W70976  34.446  18.587   0.933
99251W        W70977  32.867   1.469   3.735
99252W        W70978  42.374   2.735  14.160
99253W        W70979  42.485   4.641   3.321
99254W        W70980  10.448  12.956   3.675
99255W        W70981  44.659  44.966   4.106
99256W        W70982  15.344  23.446   1.717
99257W        W70983  27.293   9.821  14.492
99258W        W70984   4.940  15.904   4.519
99259W        W70985  44.225  12.826  13.356
99260W        W70986  23.788  34.608  13.258
99261W        W70987   1.874  43.871   2.437
99262W        W70988  31.829  21.260  10.014
99263W        W70989  24.755  19.561  12.945
99264W        W70990  29.587  39.622   2.904
99265W        W70991  19.718  18.396   2.652
99266W        W70992  40.017  26.229  12.278
99267W        W70993  15.011  33.540  11.606
99268W        W70994  36.901  20.275  14.406
99269W        W70995  23.657   9.960  12.854
99270W        W70996  42.043  28.004  13.595
99271W        W70997  35.904  33.869   2.462
99272W        W70998   2.686   2.440   2.149
99273W        W70999  14.655  30.549   3.668
99274W        W71000  35.954  15.324  10.666
99275W        W71001   0.364  18.157  13.249
99276W        W71002  35.693   2.318   1.892
99277W        W71003   4.238  22.225   1.257
99278W        W71004  33.020  44.232   2.643
99279W        W71005   0.964   0.288   4.134
99280W        W71006  22.256  23.645  13.491
99281W        W71007  10.713  44.972  11.475
99282W        W71008  40.070  23.673   4.534
99283W        W71009  17.312  32.953   2.174
99284W        W71010  37.072  35.046   2.928
99285W        W71011  25.955   1.757  13.105
99286W        W71012  14.772  31.185  14.491
99287W        W71013  31.859  12.608   4.333
99288W        W71014   1.333   0.379   3.694
99289W        W71015  12.003  24.693   4.719
99290W        W71016  34.480   1.529  13.084
99291W        W71017  24.268   2.918   1.336
99292W        W71018  14.204  14.037  12.499
99293W        W71019  13.195  13.332  14.308
99294W        W71020   3.452  16.260  14.457
99295W        W71021   0.677  35.973   1.652
99296W        W71022   0.520  20.223  14.375
99297W        W71023  24.537  39.269   3.662
99298W        W71024  43.491  11.813  12.455
99299W        W71025  14.299  41.532  13.724
99300W        W71026  38.810  16.177  10.854
99301W        W71027  30.492   2.800  14.885
99302W        W71028  14.622   1.388   2.255
99303W        W71029  19.559  20.207  11.477
99304W        W71030  14.335   0.365   4.226
99305W        W71031  28.161  28.661   0.263
99306W        W71032   0.238  17.111   0.764
99307W        W71033  22.578  24.869   4.258
99308W        W71034  28.147  18.525   0.297
99309W        W71035  28.249   3.911  14.246
99310W        W71036  34.403   6.838  11.113
99311W        W71037  44.820  10.395   3.366
99312W        W71038  30.976  30.178  10.924
99313W        W71039  28.649  43.865   0.413
99314W        W71040  34.974  41.545   4.695
99315W        W71041  36.995  41.168  12.458
99316W        W71042   7.418  19.823  12.771
99317W        W71043  13.249  15.822  13.258
99318W        W71044  30.203   7.909  12.291
99319W        W71045  23.291  31.340   2.339
99320W        W71046  38.580  22.128   1.482
99321W        W71047  14.775  24.541   1.983
99322W        W71048  34.462  39.834  14.292
99323W        W71049  13.716  13.338  13.482
99324W        W71050  33.597  43.748   2.215
99325W        W71051  25.873  19.077   2.711
99326W        W71052  24.913  37.074   4.355
99327W        W71053   7.128  29.895   1.738
99328W        W71054   2.755   3.756  13.466
99329W        W71055  22.559  35.551  13.980
99330W        W71056  42.757  23.007  14.118
99331W        W71057  12.762   2.885   1.892
99332W        W71058   1.864  35.370   2.327
99333W        W71059  24.050  35.053   4.658
99334W        W71060  18.683  15.750  11.374
99335W        W71061   1.410   6.354   3.297
99336W        W71062  28.618  39.521  14.791
99337W        W71063  41.190   4.485  13.560
99338W        W71064  14.367   4.787  12.433
99339W        W71065  43.390  31.819  14.260
99340W        W71066  32.681  10.328   2.960
99341W        W71067  44.749  44.323   4.692
99342W        W71068  31.778  37.613   0.436
99343W        W71069  30.551  20.626  11.591
99344W        W71070  39.999   8.382  12.940
99345W        W71071  44.033   5.284  12.055
99346W        W71072   1.763  18.647  14.364
99347W        W71073   1.717  20.164  12.981
99348W        W71074  32.993  28.538  12.925
99349W        W71075   1.765  11.686  12.551
99350W        W71076  42.887  42.326  11.453
99351W        W71077   1.759  13.602   1.198
99352W        W71078  37.040   4.837   4.241
99353W        W71079   7.156  21.713  14.945
99354W        W71080  24.239  24.671   0.978
99355W        W71081  15.702  15.778   9.895
99356W        W71082  23.162   6.837   1.238
99357W        W71083  27.688  11.595   3.721
99358W        W71084  12.157  39.333   3.543
99359W        W71085  35.065  18.146   3.872
99360W        W71086  19.003  32.485  11.047
99361W        W71087  16.537   1.754   3.632
99362W        W71088  21.248  36.102  13.442
99363W        W71089  37.150  27.484  14.849
99364W        W71090   4.475  18.163  12.070
99365W        W71091  21.805  37.364   1.725
99366W        W71092  33.038  10.957   2.379
99367W        W71093  30.676  14.769  14.404
99368W        W71094  18.500  31.882   2.257
99369W        W71095  17.579  44.720   3.397
99370W        W71096  37.081  36.377   2.403
99371W        W71097   0.285  35.103  12.004
99372W        W71098   4.269  42.078  13.967
99373W        W71099  43.052  44.549   4.359
99374W        W71100  32.648  26.615  14.934
99375W        W71101  37.299  27.199  11.401
99376W        W71102  28.955  38.109  13.442
99377W        W71103  33.446  13.584   3.192
99378W        W71104   6.439  42.916   4.789
99379W        W71105  35.380  41.422  13.888
99380W        W71106  10.373  31.960   1.943
99381W        W71107  29.265  29.460   1.722
99382W        W71108  19.218  41.533   4.719
99383W        W71109  33.569  42.198  14.442
99384W        W71110   0.776  20.709  10.301
99385W        W71111  35.600  11.746   3.682
99386W        W71112  12.198  26.730  11.142
99387W        W71113  30.622   8.094   4.296
99388W        W71114  25.267  27.588  14.485
99389W        W71115  29.015  26.139  10.256
99390W        W71116  24.884   4.606   2.762
99391W        W71117   0.759  19.292  14.741
99392W        W71118  15.274   2.209  11.552
99393W        W71119   7.678   6.372   1.818
99394W        W71120  34.967  44.753  11.074
99395W        W71121  16.491   2.545   2.771
99396W        W71122  38.811   2.560  12.126
99397W        W71123  36.960  10.720   0.934
99398W        W71124  11.898  44.006  13.892
99399W        W71125  16.306   6.219  12.510
99400W        W71126  15.283  19.065   1.607
99401W        W71127  29.126  18.797   1.678
99402W        W71128  11.761  36.046  11.255
99403W        W71129  15.202   8.871   0.779
99404W        W71130  20.727  40.500   2.787
99405W        W71131  36.862   6.914  14.954
99406W        W71132  16.053  40.189   5.379
99407W        W71133  35.119  20.099   1.663
99408W        W71134  17.386   0.823  12.142
99409W        W71135  15.760  32.833  13.333
99410W        W71136  23.694  19.737   2.844
99411W        W71137  36.033  12.724   1.264
99412W        W71138  22.148   0.584   3.129
99413W        W71139   1.003  41.897   5.073
99414W        W71140  43.620   5.318  11.434
99415W        W71141   4.893  26.985   1.402
99416W        W71142   7.857  14.129   1.712
99417W        W71143  26.219   1.844  13.547
99418W        W71144   8.585  31.037  12.155
99419W        W71145  20.149  25.579   3.398
99420W        W71146   0.215  33.223   3.237
99421W        W71147  10.115  19.466   3.785
99422W        W71148  40.948  28.198  10.663
99423W        W71149  40.960  13.763  10.878
99424W        W71150  28.037   6.410   2.665
99425W        W71151   6.925   1.813   2.077
99426W        W71152  28.145  27.661   2.737
99427W        W71153  16.278  29.186   2.112
99428W        W71154  41.218  11.242   1.218
99429W        W71155  27.499  43.317  10.850
99430W        W71156  32.444  25.364   4.728
99431W        W71157   0.321   7.745   4.635
99432W        W71158   8.378   5.954   5.037
99433W        W71159   5.817  21.500  14.383
99434W        W71160  28.777  36.536   4.180
99435W        W71161  25.246  38.462  14.808
99436W        W71162  17.336  18.314   9.578
99437W        W71163  36.938  19.799   2.312
99438W        W71164  40.051  18.702   0.262
99439W        W71165  18.993   3.727  13.190
99440W        W71166  34.827  35.830   0.263
99441W        W71167  20.572  41.457   3.870
99442W        W71168   3.964  39.113   0.605
99443W        W71169  38.056   7.244  14.488
99444W        W71170  30.999  17.211  10.686
99445W        W71171  11.278  42.975   0.242
99446W        W71172   5.729  25.247  12.923
99447W        W71173  19.601  17.241  13.705
99448W        W71174  32.294  21.731  12.130
99449W        W71175  30.082   0.926  12.417
99450W        W71176  12.405  32.012   0.803
99451W        W71177  25.541  34.649   1.129
99452W        W71178  15.735  31.119  11.481
99453W        W71179  12.142  24.499  12.231
99454W        W71180   1.811  16.031  12.073
99455W        W71181  26.266  43.735   1.223
99456W        W71182  33.399  15.072  13.050
99457W        W71183  29.659  10.376  11.669
99458W        W71184   7.389  33.323  12.913
99459W        W71185  17.194  17.206   2.281
99460W        W71186  30.925  40.973  11.717
99461W        W71187   1.754  20.554  14.933
99462W        W71188  30.836  20.497   4.754
99463W        W71189  35.988  19.638   2.280
99464W        W71190  32.672  19.891  14.394
99465W        W71191  10.217   5.632  11.165
99466W        W71192  37.379   7.376  12.901
99467W        W71193  35.460  41.495   1.327
99468W        W71194  39.046  35.869   4.556
99469W        W71195   7.840  32.453  12.290
99470W        W71196  30.646  41.805  12.283
99471W        W71197  38.554  20.390  11.887
99472W        W71198  43.669   4.734  14.373
99473W        W71199   4.788  28.135  10.652
99474W        W71200   2.022   3.840  14.689
99475W        W71201  38.799  17.649   2.360
99476W        W71202  36.527   0.797   0.259
99477W        W71203   9.652  27.663  11.097
99478W        W71204  20.975  36.936   3.935
99479W        W71205   9.664  37.173   4.209
99480W        W71206  23.792   3.763  13.734
99481W        W71207  42.335  12.083   3.930
99482W        W71208  28.696  33.563   2.831
99483W        W71209   1.241  26.488   4.172
99484W        W71210  40.446  27.942  14.743
99485W        W71211  17.885  31.173   4.181
99486W        W71212  39.936   2.774  14.821
99487W        W71213  39.518  17.300   4.173
99488W        W71214  13.774   6.690  12.123
99489W        W71215   7.681   3.255  14.771
99490W        W71216  18.796   5.665  14.129
99491W        W71217  12.488  23.052   5.000
99492W        W71218   7.926  35.345  14.412
99493W        W71219  19.637  40.837  14.970
99494W        W71220  42.990  38.807  10.317
99495W        W71221  29.664  41.018  13.999
99496W        W71222  12.184   0.184  10.756
99497W        W71223   3.803  41.339  13.779
99498W        W71224  33.719  40.848  14.031
99499W        W71225  13.243  20.882  14.811
99500W        W71226   0.849  26.135   2.411
99501W        W71227   8.127  37.459  13.934
99502W        W71228  36.697   8.176   3.231
99503W        W71229   0.060   0.467   2.913
99504W        W71230  30.945  42.497  12.302
99505W        W71231  27.893   6.782  10.121
99506W        W71232   7.851  21.444   4.104
99507W        W71233   0.566  39.844   1.210
99508W        W71234  38.362   3.550  12.114
99509W        W71235   1.947   5.823   4.505
99510W        W71236  35.170  29.867   1.818
99511W        W71237   3.774  23.933  10.586
99512W        W71238   2.512  41.590  14.236
99513W        W71239   9.694  40.688  11.146
99514W        W71240   0.226  27.437   4.351
99515W        W71241  25.243   0.008  14.760
99516W        W71242  37.479  39.419  13.534
99517W        W71243   2.281  29.477  14.839
99518W        W71244  12.651  33.132  11.639
99519W        W71245   1.987  27.054  11.773
99520W        W71246  18.659  24.025  12.026
99521W        W71247  33.477  15.396  13.514
99522W        W71248  28.082  27.745   3.662
99523W        W71249  29.254   3.767  13.381
99524W        W71250  13.727   0.799   3.668
99525W        W71251  21.528   9.914  13.360
99526W        W71252  26.195  21.791   0.409
99527W        W71253   0.889  23.988   2.858
99528W        W71254  13.514   4.746  13.223
99529W        W71255  35.837   3.828  13.490
99530W        W71256  43.452  16.275  12.713
99531W        W71257   2.697   2.396  13.576
99532W        W71258  42.027   9.570   2.281
99533W        W71259  31.440  39.046   1.678
99534W        W71260  40.090  14.764   2.760
99535W        W71261   6.322  25.541  10.638
99536W        W71262  30.118   5.389   3.733
99537W        W71263   3.811  30.066   2.672
99538W        W71264  18.088  10.044  10.598
99539W        W71265   9.727  21.137  10.638
99540W        W71266  24.528  31.133  12.947
99541W        W71267  24.527  13.193   4.160
99542W        W71268  28.652   7.420  11.942
99543W        W71269  24.093   2.306   4.833
99544W        W71270  36.448   3.981  11.636
99545W        W71271  29.020  42.971   0.276
99546W        W71272  44.241  43.078  12.589
99547W        W71273  10.197  24.632   0.008
99548W        W71274  40.808  38.518   0.966
99549W        W71275  33.701  22.969  12.924
99550W        W71276  25.164  37.887  10.859
99551W        W71277  25.065   4.221   3.310
99552W        W71278  40.194  24.373  12.963
99553W        W71279  21.985  10.710   4.205
99554W        W71280  43.277   3.804  11.476
99555W        W71281   2.372  10.879   4.792
99556W        W71282  21.913  26.853  10.468
99557W        W71283   9.276  25.260   4.579
99558W        W71284  40.873   6.284   4.292
99559W        W71285  29.529  19.302  12.848
99560W        W71286  31.613  23.247   3.105
99561W        W71287  25.152   1.137   0.259
99562W        W71288  18.941  14.225  14.314
99563W        W71289  13.720  31.621  12.500
99564W        W71290  34.958  28.687  10.539
99565W        W71291   5.863  25.563  11.642
99566W        W71292   0.338  25.936  10.564
99567W        W71293   6.164   2.958  13.407
99568W        W71294  22.496  34.071   2.774
99569W        W71295  41.584  23.837  14.357
99570W        W71296  20.743  18.311  14.430
99571W        W71297  13.691  14.065   1.554
99572W        W71298   7.163  21.959  13.724
99573W        W71299  42.053  22.926  12.101
99574W        W71300   4.702  41.094   3.371
99575W        W71301   4.252  43.694   3.649
99576W        W71302  18.254  26.217  14.324
99577W        W71303  30.245  14.902   1.866
99578W        W71304  41.539  28.395   0.446
99579W        W71305  14.802  21.932  11.912
99580W        W71306  42.038  13.089  13.066
99581W        W71307  43.967  33.030   2.822
99582W        W71308  25.007  39.502  13.956
99583W        W71309  19.715  21.173  13.349
99584W        W71310   5.519  37.981  10.846
99585W        W71311  40.960   9.823   1.671
99586W        W71312  20.016  35.659   2.382
99587W        W71313  21.192  41.506   2.818
99588W        W71314   1.405  11.197   2.909
99589W        W71315  35.343  26.466  14.766
99590W        W71316   8.907  18.184   3.189
99591W        W71317   9.705  40.079  11.597
99592W        W71318   5.436  36.863   1.795
99593W        W71319  37.379  14.287   2.320
99594W        W71320   3.957  39.392  14.546
99595W        W71321  11.051   5.626   3.780
99596W        W71322  40.713  43.735   0.399
99597W        W71323   4.653   1.737  14.978
99598W        W71324  19.303   1.387  14.503
99599W        W71325  31.535  15.899   0.757
99600W        W71326  35.813  10.056  12.444
99601W        W71327  32.054  15.071  14.539
99602W        W71328  10.320  21.627  11.377
99603W        W71329  14.307   0.819  12.904
99604W        W71330  14.276  39.011  12.848
99605W        W71331  22.737  21.682  14.029
99606W        W71332  41.548   9.942  14.494
99607W        W71333   3.398  10.370  10.870
99608W        W71334   1.840   3.921   1.686
99609W        W71335  32.896  27.641   3.822
99610W        W71336  18.523  34.093  10.576
99611W        W71337  24.183   4.833   4.997
99612W        W71338  21.714   4.331  11.362
99613W        W71339  17.038  35.061  14.043
99614W        W71340  42.781  11.256  14.583
99615W        W71341   8.876   5.885  12.386
99616W        W71342  13.233  41.886   3.222
99617W        W71343  11.204   4.031   1.428
99618W        W71344   1.963  38.978  11.553
99619W        W71345  33.523  13.051  10.694
99620W        W71346  21.599  34.923   4.119
99621W        W71347   7.120  19.538   1.549
99622W        W71348  18.574   4.011  13.089
99623W        W71349  37.594  40.485   0.152
99624W        W71350  15.542  33.087   4.234
99625W        W71351  28.982  20.050  14.599
99626W        W71352  13.386  21.916   3.222
99627W        W71353  27.923  15.542  10.124
99628W        W71354   0.026  29.152  13.423
99629W        W71355  43.222  11.375  12.557
99630W        W71356  16.289  36.157   3.702
99631W        W71357  26.924  38.872  12.606
99632W        W71358  16.746  14.107  12.461
99633W        W71359   2.531  38.444   2.134
99634W        W71360  29.212   6.471  14.250
99635W        W71361   4.904  44.438   3.694
99636W        W71362  41.408  39.088  13.553
99637W        W71363  34.332  25.216   2.466
99638W        W71364  38.125  30.069   3.398
99639W        W71365  26.434  36.374  11.147
99640W        W71366   8.908  29.708   0.856
99641W        W71367  34.930  32.197   1.500
99642W        W71368  39.917  21.565  13.060
99643W        W71369  24.972  38.464   4.021
99644W        W71370   6.284  29.680   1.389
99645W        W71371  38.602   0.266  10.650
99646W        W71372   1.635  25.640  14.739
99647W        W71373   9.669  23.472   0.342
99648W        W71374  38.460   8.039  11.487
99649W        W71375  16.507  31.565  12.871
99650W        W71376   2.282  38.391  12.861
99651W        W71377  32.245  31.427  12.066
99652W        W71378  22.841   4.283  13.988
99653W        W71379   2.824  32.837   1.378
99654W        W71380   8.140  35.369   1.401
99655W        W71381  40.348   6.710   1.528
99656W        W71382   0.570  19.526  10.615
99657W        W71383   4.620   4.308   2.749
99658W        W71384  11.369  19.608   2.661
99659W        W71385  18.720  30.520  12.447
99660W        W71386  23.046  42.333   3.938
99661W        W71387  36.813  12.723   3.609
99662W        W71388  32.617  29.224   4.218
99663W        W71389  41.718  10.615  11.039
99664W        W71390  22.056  11.303   3.351
99665W        W71391  12.875   6.713   0.726
99666W        W71392  24.137  32.553  14.828
99667W        W71393  25.177  31.307  11.184
99668W        W71394  32.310   7.896   1.502
99669W        W71395  38.476  41.116  11.575
99670W        W71396  43.392  21.647   4.687
99671W        W71397  39.549  40.119   2.302
99672W        W71398   6.877  18.167   2.382
99673W        W71399  24.508  26.597   1.312
99674W        W71400  17.577   0.147   3.680
99675W        W71401  24.874  10.622  12.690
99676W        W71402  18.755  44.984  14.007
99677W        W71403  25.772  19.998   3.251
99678W        W71404  39.948  20.769   2.565
99679W        W71405  21.769  12.904   4.224
99680W        W71406  14.522  28.056   0.861
99681W        W71407   6.550  30.496   5.043
99682W        W71408  37.006  27.195  13.104
99683W        W71409  36.046  23.772   2.241
99684W        W71410  10.916   4.879   1.446
99685W        W71411  14.724  28.257   5.049
99686W        W71412  29.713  19.847   0.118
99687W        W71413  39.914  33.202  14.127
99688W        W71414  18.249   8.779   1.778
99689W        W71415  33.186   5.341   4.825
99690W        W71416   3.777  25.582  14.034
99691W        W71417  21.750   7.916   2.114
99692W        W71418  31.857  26.077   3.696
99693W        W71419  16.853  40.780  10.353
99694W        W71420   6.281   4.323  14.360
99695W        W71421  19.578  40.582  14.424
99696W        W71422  37.391  27.066   1.926
99697W        W71423  18.179  39.868  12.845
99698W        W71424  38.526  11.812   0.348
99699W        W71425   9.879  39.400  11.187
99700W        W71426  13.424  12.672  11.585
99701W        W71427  12.209   1.211   3.330
99702W        W71428  36.208  29.233  10.370
99703W        W71429   7.351  26.426   2.782
99704W        W71430   9.124   2.580  13.340
99705W        W71431  15.739  40.598   5.419
99706W        W71432  14.122  36.591   5.086
99707W        W71433  32.450  29.693   4.044
99708W        W71434  38.654  33.491  12.745
99709W        W71435  15.892  21.789   1.011
99710W        W71436   3.478  23.521  10.475
99711W        W71437  42.575   0.884   4.238
99712W        W71438  24.912  26.162   1.368
99713W        W71439   1.730  31.806   2.889
99714W        W71440  32.122  31.099   2.362
99715W        W71441  26.575  15.781  13.864
99716W        W71442  13.125  23.811  13.511
99717W        W71443   0.332   0.976   2.283
99718W        W71444  28.700  17.497  11.992
99719W        W71445  28.519  19.939   4.591
99720W        W71446  42.781   9.057   5.060
99721W        W71447  40.854  40.387   1.962
99722W        W71448   5.192  33.095   4.614
99723W        W71449  20.558   5.285   4.553
99724W        W71450  22.221  34.529   3.212
99725W        W71451  32.532   3.416  12.989
99726W        W71452  41.310  39.610  11.840
99727W        W71453  43.096  35.504   2.888
99728W        W71454  12.699  35.972   0.116
99729W        W71455  44.538  16.587  12.951
99730W        W71456  11.219   9.269   2.656
99731W        W71457  28.084   3.249  10.743
99732W        W71458  16.113  32.377  13.048
99733W        W71459  35.480  29.443  13.280
99734W        W71460  14.250  28.708  12.031
99735W        W71461  36.396  20.277   2.894
99736W        W71462  29.305  17.635  10.668
99737W        W71463  34.926  25.871   4.107
99738W        W71464  39.431  10.084   0.073
99739W        W71465  16.647  42.298  10.954
99740W        W71466  17.924  10.514  10.419
99741W        W71467  21.627   8.768  14.772
99742W        W71468   9.262  26.863   3.632
99743W        W71469  16.555   7.914   2.285
99744W        W71470  12.572  32.537   4.560
99745W        W71471   9.326  24.941   3.576
99746W        W71472  42.503  41.694   0.529
99747W        W71473  26.810  19.200   4.564
99748W        W71474  40.558  32.016  10.448
99749W        W71475  39.839  25.561   2.789
99750W        W71476  12.738  10.804  13.522
99751W        W71477  15.023  38.550  13.949
99752W        W71478  16.867  28.411   2.909
99753W        W71479   3.284  39.513  10.556
99754W        W71480  22.532  10.987  13.708
99755W        W71481   2.617  14.305   9.982
99756W        W71482   3.046  39.114  14.071
99757W        W71483  12.110  16.641   1.697
99758W        W71484   2.948  20.336  10.733
99759W        W71485  18.779  27.899  10.144
99760W        W71486  17.252  34.304   2.712
99761W        W71487   6.487  20.140   2.346
99762W        W71488  20.059  38.594  10.686
99763W        W71489   8.680  29.444   3.399
99764W        W71490  41.779  34.472  14.342
99765W        W71491  29.152  32.958  13.035
99766W        W71492  44.966   2.980  11.839
99767W        W71493  27.422  10.463   0.233
99768W        W71494  14.272  38.990   0.184
99769W        W71495  38.319  12.130   2.383
99770W        W71496  10.389  34.560  12.347
99771W        W71497  27.315  10.277   0.798
99772W        W71498  40.687   4.759   3.644
99773W        W71499  33.550  33.698  12.128
99774W        W71500   5.488  15.442  10.247
99775W        W71501   2.998  16.190  11.458
99776W        W71502  11.921  31.544   2.712
99777W        W71503   5.393  12.520  12.395
99778W        W71504  37.678  12.323   4.095
99779W        W71505  31.018  37.930   3.275
99780W        W71506   0.816  40.758   1.691
99781W        W71507  41.400  17.330   2.322
99782W        W71508  38.493  42.629   4.210
99783W        W71509  21.998  38.830  12.575
99784W        W71510  38.093  18.533  13.934
99785W        W71511  24.810   5.218  14.316
99786W        W71512   7.610   0.804  13.301
99787W        W71513  26.591   2.992  11.594
99788W        W71514   4.112  44.684  14.018
99789W        W71515  43.403  28.263  12.408
99790W        W71516  28.187  10.333  14.515
99791W        W71517  28.451  41.702   4.231
99792W        W71518  19.131   3.217   4.575
99793W        W71519  31.341  24.119  12.338
99794W        W71520   6.194  23.808   1.161
99795W        W71521  34.888   8.338   2.351
99796W        W71522  40.909  26.948   4.172
99797W        W71523  16.183  28.021  12.963
99798W        W71524  41.596  25.918   3.290
99799W        W71525  39.747   8.955  12.078
99800W        W71526   4.687   8.772  10.276
99801W        W71527  40.795   8.802  11.760
99802W        W71528  42.973   9.244   3.481
99803W        W71529  43.466  18.551   2.431
99804W        W71530   6.058  32.137   4.546
99805W        W71531  18.717  10.941   1.955
99806W        W71532   3.048  17.807  13.041
99807W        W71533   2.810   7.705  13.877
99808W        W71534  20.251   5.302   0.269
99809W        W71535  33.606  30.661  11.211
99810W        W71536  28.131  24.580  12.523
99811W        W71537  37.885  31.621   0.380
99812W        W71538  12.834  43.772   2.455
99813W        W71539  27.429  15.878   4.133
99814W        W71540  24.324  37.914  13.816
99815W        W71541  43.238  20.939   3.220
99816W        W71542  15.598  36.783   5.416
99817W        W71543  17.764  12.133   1.798
99818W        W71544  43.708   1.862  11.067
99819W        W71545  37.867  21.496   2.855
99820W        W71546   6.113  15.368   2.630
99821W        W71547  24.172  28.355   4.234
99822W        W71548  31.583  42.846   2.723
99823W        W71549  11.755   2.003   4.122
99824W        W71550  14.729  18.490  14.409
99825W        W71551  20.002  20.568   2.884
99826W        W71552  42.495  35.178   1.343
99827W        W71553  23.702  11.643  13.270
99828W        W71554  24.475   8.112  10.805
99829W        W71555  27.125  13.286   2.198
99830W        W71556  38.058  25.373   3.845
99831W        W71557   7.910  25.117  12.064
99832W        W71558   5.641  19.215  13.968
99833W        W71559  37.747  12.889  11.787
99834W        W71560  31.365  21.546  13.905
99835W        W71561   3.634   6.165   2.798
99836W        W71562   9.408   8.217   4.755
99837W        W71563   9.416   4.317   2.292
99838W        W71564  17.766  25.861   4.591
99839W        W71565  16.654  44.260  13.447
99840W        W71566  14.208  19.298  14.448
99841W        W71567   9.211  28.462   0.870
99842W        W71568  42.088  11.993  12.877
99843W        W71569  30.550  34.540   3.370
99844W        W71570   9.859  14.871   2.244
99845W        W71571  24.575  16.099  11.731
99846W        W71572  27.719   8.652  13.281
99847W        W71573  37.087  32.970   2.701
99848W        W71574  12.287   0.006  12.563
99849W        W71575  31.051   0.004  13.645
99850W        W71576   8.890  33.846  11.544
99851W        W71577   7.456  13.607   2.345
99852W        W71578  14.387  38.489   1.379
99853W        W71579  43.793  20.752  14.841
99854W        W71580  19.727   9.558   2.972
99855W        W71581  18.686  36.393  11.646
99856W        W71582  41.262  30.207  13.930
99857W        W71583  42.939  24.636  10.770
99858W        W71584  14.141  21.574   1.887
99859W        W71585   9.122  43.454  10.713
99860W        W71586   7.249  40.328   3.194
99861W        W71587  21.012  36.342   0.259
99862W        W71588  14.814  44.545   2.857
99863W        W71589  24.137  39.436  12.116
99864W        W71590  35.569  38.365  11.262
99865W        W71591  42.929  18.847   1.927
99866W        W71592   0.096  29.741   2.684
99867W        W71593  17.819  11.862   0.442
99868W        W71594  27.957  25.602   2.451
99869W        W71595  17.644  29.588  12.430
99870W        W71596  27.049   1.761  12.590
99871W        W71597  26.517  16.191  12.263
99872W        W71598  18.749  19.988  12.531
99873W        W71599   7.745   1.075   2.671
99874W        W71600   1.803  43.026   2.605
99875W        W71601  43.337  25.562   3.642
99876W        W71602  28.079  37.468  12.400
99877W        W71603  35.594  23.059  11.463
99878W        W71604   0.465  38.062   0.643
99879W        W71605   8.658  26.144   1.580
99880W        W71606   0.643   3.418  11.104
99881W        W71607  38.346  42.063  13.046
99882W        W71608  11.147  20.624   0.936
99883W        W71609   7.788  29.219   2.861
99884W        W71610  25.738  39.305  12.020
99885W        W71611  40.751  24.665  12.183
99886W        W71612  15.654  44.029  12.636
99887W        W71613  20.206  23.170  12.600
99888W        W71614  34.634  11.231  11.215
99889W        W71615  40.078  34.111  12.943
99890W        W71616  23.183   1.066   4.876
99891W        W71617  30.698  40.763   0.820
99892W        W71618   3.863  20.178   2.239
99893W        W71619  24.667  35.042   1.277
99894W        W71620  33.049  17.792   0.479
99895W        W71621  35.402  43.274  10.414
99896W        W71622   4.827  22.034  10.436
99897W        W71623  36.396  15.634   3.277
99898W        W71624  33.813   6.135   1.322
99899W        W71625   3.256  13.824  11.236
99900W        W71626  18.859  28.118   4.123
99901W        W71627  32.702  19.232   0.745
99902W        W71628  35.540  39.571   4.320
99903W        W71629  14.008  23.982  11.697
99904W        W71630   7.292  32.434  11.992
99905W        W71631  27.246  36.562   2.542
99906W        W71632  33.488   0.223   5.097
99907W        W71633  19.306  22.460   0.002
99908W        W71634   3.508   9.629  12.400
99909W        W71635  43.869  33.347   0.709
99910W        W71636  33.462  38.083  11.708
99911W        W71637  18.545  29.023  13.397
99912W        W71638  27.611  26.163   2.390
99913W        W71639  38.426  43.854   3.007
99914W        W71640  20.476  17.742  13.461
99915W        W71641  26.088  10.122   3.315
99916W        W71642   2.953  21.121  13.573
99917W        W71643  23.123   7.058   0.355
99918W        W71644  34.119   1.897   4.617
99919W        W71645  20.032  18.899  14.542
99920W        W71646  17.628  27.951   3.286
99921W        W71647  29.003  43.052  10.640
99922W        W71648  41.504  18.184   2.289
99923W        W71649  42.247  31.711   4.326
99924W        W71650  17.354  14.755   1.853
99925W        W71651   7.132  18.334   0.322
99926W        W71652  17.362  44.205  11.082
99927W        W71653  37.333  23.633   2.248
99928W        W71654  28.087   7.307  11.678
99929W        W71655  17.738  37.971   4.829
99930W        W71656  29.563  14.554  14.811
99931W        W71657   5.954  15.181   4.177
99932W        W71658   3.260   9.964  12.062
99933W        W71659  42.743  14.821  11.650
99934W        W71660  43.529   3.449  11.202
99935W        W71661  36.130   1.258  11.215
99936W        W71662  33.363  13.636  14.803
99937W        W71663   0.780  32.623  14.722
99938W        W71664  13.248  12.830  14.223
99939W        W71665  33.829   6.272  14.436
99940W        W71666   5.187  16.727   3.286
99941W        W71667  39.873  39.264   4.007
99942W        W71668  22.081  21.130  14.284
99943W        W71669  40.304  13.014   1.706
99944W        W71670  37.992   2.723   1.743
99945W        W71671  37.868  16.540   4.023
99946W        W71672   5.242  15.608  12.927
99947W        W71673  36.181   4.722   2.313
99948W        W71674  12.048  15.093   0.013
99949W        W71675  34.230  39.927  13.007
99950W        W71676  34.785  10.451  11.862
99951W        W71677  34.696  15.681   2.680
99952W        W71678  31.566  39.475  11.093
99953W        W71679  38.136  16.150  13.790
99954W        W71680  40.320   9.340  10.586
99955W        W71681  21.072  14.383  11.032
99956W        W71682   5.671  42.452   4.594
99957W        W71683  38.331  27.446   0.347
99958W        W71684  22.903  43.391  14.010
99959W        W71685  26.011  28.007   2.945
99960W        W71686  44.062  20.082  12.042
99961W        W71687   9.698  16.257   0.068
99962W        W71688   4.531  31.467   1.386
99963W        W71689   0.959  37.519  11.703
99964W        W71690   7.846   8.083   2.484
99965W        W71691  40.489  17.796  11.197
99966W        W71692  31.194  22.596  14.341
99967W        W71693  40.500  13.860  12.118
99968W        W71694  11.149  12.616  14.517
99969W        W71695  30.178  25.144  14.341
99970W        W71696  25.953   5.774  13.683
99971W        W71697  24.886  37.467   0.703
99972W        W71698   3.248  28.963  12.893
99973W        W71699  32.121  19.912   2.570
99974W        W71700   0.889  16.424  12.965
99975W        W71701   7.661  29.092  10.706
99976W        W71702  32.951   6.470   3.743
99977W        W71703  33.326  10.628  11.129
99978W        W71704  30.692  32.518   2.387
99979W        W71705   7.690  36.640  14.871
99980W        W71706  16.282   9.852  13.488
99981W        W71707  13.646  12.768   1.467
99982W        W71708  23.180   4.460   3.615
99983W        W71709  12.848  31.549   3.772
99984W        W71710  34.819  11.986   4.160
99985W        W71711  33.457   8.394   1.228
99986W        W71712  26.889  10.562   0.794
99987W        W71713   3.712  37.863   1.790
99988W        W71714  12.784  26.627   0.142
99989W        W71715  10.134  39.896   2.430
99990W        W71716  14.845  39.510  13.475
99991W        W71717  25.720  23.126  12.631
99992W        W71718  33.618  38.303   1.429
99993W        W71719  17.273   3.844  14.277
99994W        W71720   1.129  14.198   4.592
99995W        W71721  38.394  15.175   2.400
99996W        W71722  33.654   4.947   4.156
99997W        W71723   5.706  13.629   0.197
99998W        W71724  31.367  25.964  14.049
99999W        W71725  17.824   3.405  14.792
    0W        W71726  10.587  20.507  13.625
    1W        W71727  15.713  43.717   3.278
    2W        W71728  31.093  29.893  11.330
    3W        W71729  20.690  43.275  14.737
    4W        W71730  11.824   2.414   1.791
    5W        W71731   1.918  29.587   0.441
    6W        W71732  11.369   6.308  14.934
    7W        W71733   0.389  34.298   2.263
    8W        W71734  13.810  30.027  13.993
    9W        W71735  21.800   2.367   3.593
   10W        W71736  10.897  21.281  14.850
   11W        W71737  39.171  39.764  12.412
   12W        W71738  15.867   1.746   4.151
   13W        W71739  40.677  30.727  11.040
   14W        W71740  37.399  37.871   1.110
   15W        W71741   5.986  34.939   0.670
   16W        W71742  43.822  22.338   4.730
   17W        W71743  22.632   7.833  12.120
   18W        W71744  33.891  32.175   2.740
   19W        W71745  40.802  23.698  13.945
   20W        W71746  19.600  10.601   3.137
   21W        W71747  14.824  23.068   3.338
   22W        W71748  37.253  29.601   1.276
   23W        W71749  38.504  19.051   1.611
   24W        W71750  35.109  27.066  13.419
   25W        W71751  39.266   6.196  10.793
   26W        W71752  25.498  27.601   1.342
   27W        W71753   4.437  17.581   2.385
   28W        W71754  24.169  44.906  12.066
   29W        W71755  26.954  23.791  13.924
   30W        W71756  41.721   8.779   1.215
   31W        W71757  12.845  34.848   2.758
   32W        W71758   7.918  32.630  14.811
   33W        W71759  42.371   6.252   3.292
   34W        W71760  18.205  30.909  14.498
   35W        W71761  42.727  23.772   0.841
   36W        W71762  26.977  23.291  14.082
   37W        W71763  43.869  20.097  11.549
   38W        W71764  10.091  28.421   1.706
   39W        W71765  37.878  33.012  11.452
   40W        W71766  36.923  17.902   3.043
   41W        W71767  14.609   0.798  11.551
   42W        W71768   9.543  37.709  14.774
   43W        W71769  40.845  43.693  13.295
   44W        W71770   5.845  18.703   2.185
   45W        W71771   3.088  37.630   1.304
   46W        W71772  24.433   1.019   4.504
   47W        W71773  31.601  10.757   3.735
   48W        W71774  27.149  18.847  12.568
   49W        W71775  28.201  23.077  13.058
   50W        W71776  14.171   8.421  11.647
   51W        W71777  31.064  36.854  11.516
   52W        W71778  14.706  14.546   0.463
   53W        W71779  23.213  16.907  12.261
   54W        W71780  32.024  21.242   1.868
   55W        W71781  37.856   5.473   0.929
   56W        W71782  25.248  30.617   3.727
   57W        W71783  43.798   5.043   1.931
   58W        W71784  43.815  35.378   1.471
   59W        W71785   2.147  33.659  13.968
   60W        W71786   7.815  20.436   3.212
   61W        W71787  23.418  12.414   1.459
   62W        W71788  17.171  26.976   0.980
   63W        W71789  12.349   3.219   2.024
   64W        W71790  33.439   1.238  13.398
   65W        W71791   8.758  19.542  10.053
   66W        W71792   7.425  15.289   3.249
   67W        W71793   5.607  43.606   1.786
   68W        W71794  10.303  15.614   2.492
   69W        W71795  19.561   4.827  11.918
   70W        W71796   8.767  18.766  11.397
   71W        W71797  12.634  11.903   2.222
   72W        W71798  26.363   7.161  11.039
   73W        W71799  32.457   0.510   4.561
   74W        W71800  12.664  35.958  11.039
   75W        W71801  34.952   2.621  10.314
   76W        W71802   7.936   7.616  12.115
   77W        W71803  11.174  40.957  11.300
   78W        W71804  17.369  43.407  11.650
   79W        W71805  24.838  27.366  14.683
   80W        W71806  40.865   9.555  11.220
   81W        W71807  43.927  34.273   3.459
   82W        W71808  28.901  27.635   4.424
   83W        W71809  44.431  27.738  13.868
   84W        W71810  19.911  31.057  11.040
   85W        W71811  11.550  28.937   4.133
   86W        W71812  14.091  41.304   0.953
   87W        W71813  15.734   7.988   2.910
   88W        W71814   7.907   6.288   3.329
   89W        W71815   1.108   7.923  12.936
   90W        W71816  11.651  10.170   0.869
   91W        W71817  15.746   5.492  12.947
   92W        W71818  34.979   7.136  13.102
   93W        W71819  11.186  10.182   3.079
   94W        W71820  35.493  24.464  11.839
   95W        W71821  27.582  31.093  14.465
   96W        W71822   0.257  39.444   1.378
   97W        W71823  31.844  31.017  12.146
   98W        W71824   4.846  37.314  11.547
   99W        W71825  39.200  19.960   3.690
  100W        W71826  15.775  32.248  14.847
  101W        W71827  10.043  43.326   3.587
  102W        W71828  10.561  18.597  14.025
  103W        W71829  34.473  20.406   0.525
  104W        W71830  42.789  37.502  14.741
  105W        W71831  38.326   9.824   2.587
  106W        W71832  26.529  29.485   1.199
  107W        W71833   4.222  11.471   3.899
  108W        W71834  44.820  33.076  12.948
  109W        W71835  34.505  28.989  10.642
  110W        W71836  41.335  12.515  13.301
  111W        W71837  18.667  41.035   2.265
  112W        W71838  39.712  19.984   0.915
  113W        W71839  17.549  25.651   3.722
  114W        W71840   4.726   3.690  12.591
  115W        W71841  40.804  42.410   0.453
  116W        W71842   8.225  24.282   0.937
  117W        W71843   0.404   3.434   0.970
  118W        W71844  18.645  10.758   4.066
  119W        W71845  17.672   0.521  12.988
  120W        W71846  29.225  11.785  11.637
  121W        W71847  36.135  40.593   0.689
  122W        W71848  11.897  15.226  12.804
  123W        W71849  43.722  15.439   1.273
  124W        W71850   8.595  15.069  11.314
  125W        W71851  16.745  35.114   4.479
  126W        W71852  21.235  44.294   2.213
  127W        W71853  27.271  30.837   5.050
  128W        W71854  25.161   3.709   0.911
  129W        W71855  20.598  23.105  13.414
  130W        W71856  41.045  28.135   4.520
  131W        W71857   5.417   0.247   0.839
  132W        W71858  34.830  18.049   2.660
  133W        W71859  40.570  25.036  11.714
  134W        W71860  43.325   5.247  14.313
  135W        W71861   3.785  14.652   4.525
  136W        W71862  42.531  23.094  10.627
  137W        W71863  37.513  21.481   0.397
  138W        W71864  22.066  23.604   1.480
  139W        W71865  32.647  24.083   4.163
  140W        W71866  28.249  14.248   3.265
  141W        W71867  28.479  15.340  10.312
  142W        W71868  21.616  29.560   1.879
  143W        W71869  14.706  33.689  12.487
  144W        W71870   4.365  27.094  13.194
  145W        W71871  35.221  30.692   3.601
  146W        W71872   1.912   4.251  14.393
  147W        W71873   5.482  43.773   0.374
  148W        W71874  38.769  28.593   2.836
  149W        W71875  27.728   6.332  11.713
  150W        W71876  21.170   1.047   3.897
  151W        W71877   6.022   9.902  11.269
  152W        W71878  23.961  20.209  11.490
  153W        W71879  22.391  26.751   2.535
  154W        W71880   1.280  42.348   4.757
  155W        W71881  36.913  28.177  13.095
  156W        W71882  15.616  29.755  11.351
  157W        W71883  41.895  29.881   3.293
  158W        W71884  30.501  28.597  10.589
  159W        W71885  21.087   8.867  11.543
  160W        W71886  23.479  35.193   0.428
  161W        W71887   6.702  12.555  12.893
  162W        W71888  34.372  14.781  11.013
  163W        W71889   0.236  38.140  11.577
  164W        W71890  16.701  23.839   0.703
  165W        W71891   2.913  25.548   0.376
  166W        W71892  23.250  40.255  14.511
  167W        W71893  25.065   1.848  13.500
  168W        W71894  10.089  21.581   0.806
  169W        W71895  38.136  23.294  13.350
  170W        W71896  15.625  38.512  13.126
  171W        W71897  24.216  42.555  14.942
  172W        W71898   4.300   2.484   0.304
  173W        W71899  32.430  13.961  10.935
  174W        W71900  43.533  37.067   0.198
  175W        W71901  35.798  30.577  14.501
  176W        W71902  19.504   1.674  11.104
  177W        W71903   8.076  13.960   5.045
  178W        W71904  27.897  28.630  11.887
  179W        W71905   6.358   1.746  12.624
  180W        W71906   2.880   9.494  13.354
  181W        W71907  28.128  30.955  11.924
  182W        W71908  37.579   6.211   0.507
  183W        W71909   4.793  27.127   2.885
  184W        W71910  24.303  23.657  13.373
  185W        W71911   4.385   3.929   0.563
  186W        W71912  33.245  25.255   1.829
  187W        W71913  22.404  18.063   2.882
  188W        W71914  17.180  43.946  11.590
  189W        W71915  24.705  21.663  13.078
  190W        W71916  10.332   1.070  12.118
  191W        W71917  21.839  27.319  11.018
  192W        W71918  43.794  15.647   4.030
  193W        W71919  32.285   0.774   3.375
  194W        W71920  37.253  15.191   0.193
  195W        W71921  43.015  13.680   3.626
  196W        W71922  22.748  12.934   4.966
  197W        W71923   7.419   7.688  14.778
  198W        W71924  14.667  36.360  10.523
  199W        W71925  40.917  36.036  14.063
  200W        W71926  26.507   3.198  14.516
  201W        W71927  14.663  21.696   3.107
  202W        W71928  29.188  38.283  13.882
  203W        W71929  26.486  41.985  14.604
  204W        W71930  28.737  30.146  11.594
  205W        W71931  38.811   5.981   2.770
  206W        W71932  35.859  34.462  13.452
  207W        W71933  16.221  11.332   4.182
  208W        W71934  16.080  25.924   2.423
  209W        W71935  15.082  42.516  11.439
  210W        W71936  10.858  44.271  14.411
  211W        W71937   1.240   6.472  11.261
  212W        W71938  29.678  35.176  14.428
  213W        W71939  24.104  20.774   0.802
  214W        W71940  18.181   7.251  12.755
  215W        W71941  37.268  13.817  11.993
  216W        W71942  38.601  30.426  14.306
  217W        W71943   2.551   9.084  13.381
  218W        W71944  27.222  20.608  12.477
  219W        W71945  19.406   3.432   3.419
  220W        W71946  36.814  11.294  12.891
  221W        W71947  21.891   0.281  10.578
  222W        W71948  35.139  13.848  11.183
  223W        W71949  29.200   0.465  13.997
  224W        W71950   8.699  44.796   1.356
  225W        W71951   7.343  16.718  12.466
  226W        W71952  32.793  11.648  13.013
  227W        W71953  27.269  42.014   1.319
  228W        W71954  34.690  36.381   2.750
  229W        W71955   1.517   8.439  14.318
  230W        W71956  24.111  43.917  12.334
  231W        W71957   8.882  36.138  13.053
  232W        W71958  21.991  24.574  13.727
  233W        W71959  16.135   1.247  11.169
  234W        W71960   8.323  42.561   0.853
  235W        W71961  21.155  10.539   1.810
  236W        W71962   9.137   0.492  14.380
  237W        W71963  30.076   1.971   1.069
  238W        W71964  17.112  44.541   2.294
  239W        W71965  20.786   3.379  10.553
  240W        W71966  12.775  18.037  14.510
  241W        W71967  16.862  33.395  11.565
  242W        W71968  42.865  34.855   4.988
  243W        W71969  38.390  25.534  11.761
  244W        W71970  29.302  32.117  13.608
  245W        W71971  27.552  35.439  12.524
  246W        W71972  34.986  15.461   3.698
  247W        W71973  38.467  44.696  14.616
  248W        W71974  25.082   5.855  10.599
  249W        W71975  27.504  35.650  13.005
  250W        W71976  28.937  27.023  14.525
  251W        W71977  21.178  26.995   4.155
  252W        W71978  26.257  13.640   0.936
  253W        W71979  34.119  22.511   0.382
  254W        W71980   6.772  12.337  11.523
  255W        W71981  42.782  41.848  10.664
  256W        W71982  29.237  42.912  12.853
  257W        W71983  33.916  33.012   4.611
  258W        W71984  34.569   0.250  14.860
  259W        W71985  37.075   4.337   2.739
  260W        W71986  30.202  20.641   0.831
  261W        W71987   9.725  22.201   4.086
  262W        W71988  32.461  27.678   0.854
  263W        W71989  43.062  44.932  12.478
  264W        W71990   7.481   8.614  14.907
  265W        W71991   6.655  28.358   3.243
  266W        W71992  28.982  15.476   4.213
  267W        W71993   7.831   4.313   1.473
  268W        W71994  35.978   0.849   1.868
  269W        W71995  36.892  40.533  14.366
  270W        W71996   4.797  23.441  12.103
  271W        W71997  35.661  43.451   4.282
  272W        W71998   1.476  42.512   4.282
  273W        W71999  21.934   2.914   0.188
  274W        W72000  38.815   6.736  14.853
  275W        W72001  31.798  31.354   0.236
  276W        W72002   6.697  11.199  13.759
  277W        W72003  37.965  42.306   1.402
  278W        W72004  18.910  26.639  12.513
  279W        W72005  42.029  17.016   2.841
  280W        W72006   5.844  20.087   2.156
  281W        W72007  13.306  21.749  10.908
  282W        W72008   4.017   2.700   2.760
  283W        W72009  38.405   2.400   1.871
  284W        W72010  24.157  36.076   2.323
  285W        W72011  22.210  36.876   0.434
  286W        W72012   8.729   7.869   1.435
  287W        W72013   2.760  36.404  13.788
  288W        W72014  22.868  18.142   4.912
  289W        W72015  17.035  15.659   2.638
  290W        W72016  26.163   2.880   1.216
  291W        W72017  40.966  12.547  12.940
  292W        W72018  22.660   0.992  12.026
  293W        W72019  18.365   5.460  10.688
  294W        W72020  15.689  35.160   4.193
  295W        W72021   6.846   5.243  10.295
  296W        W72022   6.377   7.246  10.676
  297W        W72023  28.660  28.637   0.394
  298W        W72024  25.558   1.210   2.875
  299W        W72025  39.498   8.857   4.551
  300W        W72026  31.900   0.504   3.131
  301W        W72027  26.529  43.449   5.041
  302W        W72028  41.092  41.865  12.933
  303W        W72029  32.983  11.204   4.173
  304W        W72030  23.523  34.842  12.071
  305W        W72031   7.719  18.037   0.896
  306W        W72032   6.378  12.193  14.101
  307W        W72033  31.600  32.604   0.803
  308W        W72034  41.888  10.481  10.101
  309W        W72035   7.153   4.245   4.203
  310W        W72036  11.457  39.808  13.407
  311W        W72037  18.942   6.828   3.187
  312W        W72038   6.287  29.404  12.897
  313W        W72039  29.923  38.537  11.040
  314W        W72040  26.194   4.277  13.950
  315W        W72041  10.091  36.492   0.889
  316W        W72042  11.179   0.544   4.709
  317W        W72043   5.450   4.506  13.457
  318W        W72044  21.516  42.843   2.760
  319W        W72045  43.781   0.323  14.825
  320W        W72046  36.828  33.251  14.019
  321W        W72047  27.939  15.910   1.275
  322W        W72048  27.250  17.792  12.162
  323W        W72049  40.579  41.903   3.998
  324W        W72050  22.455   6.007   0.871
  325W        W72051  17.605  22.348   0.295
  326W        W72052  15.292  32.392  13.913
  327W        W72053  20.120  10.017  11.049
  328W        W72054  39.908  26.639   1.181
  329W        W72055  24.559  32.402   0.118
  330W        W72056  10.395  24.269  14.220
  331W        W72057  43.342  22.461  14.020
  332W        W72058  24.274  44.364   0.372
  333W        W72059  17.562  17.170  11.406
  334W        W72060  35.719  19.625   1.190
  335W        W72061  34.756  33.017  11.571
  336W        W72062   8.418  11.540   2.674
  337W        W72063  23.929  26.706  11.145
  338W        W72064  27.513  27.125   0.250
  339W        W72065  30.923  36.635  11.087
  340W        W72066   5.932  21.725  12.886
  341W        W72067  38.847  41.485   3.195
  342W        W72068  12.604  31.816  11.144
  343W        W72069   6.935  15.082   3.235
  344W        W72070  28.717  10.820  13.037
  345W        W72071   6.669  30.875   3.268
  346W        W72072  43.968   9.781   4.406
  347W        W72073  24.983  23.486  10.748
  348W        W72074  25.535   6.281  11.387
  349W        W72075  40.612  12.239  13.907
  350W        W72076  33.082   6.764  10.843
  351W        W72077  37.104  41.935  11.866
  352W        W72078  15.580   1.793   3.698
  353W        W72079   5.940  10.010  14.232
  354W        W72080   0.257  20.732   0.897
  355W        W72081  15.603   1.701   4.605
  356W        W72082  44.310  37.384  14.918
  357W        W72083  32.376  25.525  11.531
  358W        W72084  25.453  26.942   1.870
  359W        W72085   7.187  27.175  12.581
  360W        W72086  13.112   0.515   2.511
  361W        W72087   0.912  10.361  14.394
  362W        W72088  13.125  28.571   3.564
  363W        W72089  28.306  33.323  14.455
  364W        W72090  15.829  23.659  14.293
  365W        W72091  33.415   6.360   2.582
  366W        W72092  13.418  32.038   3.304
  367W        W72093  28.161  30.658   0.405
  368W        W72094  38.035  38.715   2.303
  369W        W72095   3.273   3.747  12.562
  370W        W72096  20.067  36.879  11.888
  371W        W72097  24.141  29.199  13.479
  372W        W72098  39.260   9.384   4.723
  373W        W72099  38.103  27.918   1.353
  374W        W72100  11.532  28.644   0.002
  375W        W72101  27.422  23.468   3.984
  376W        W72102  21.790  11.089  11.120
  377W        W72103  19.190   5.670  13.382
  378W        W72104  15.103  37.830   1.215
  379W        W72105  20.735   2.710   3.237
  380W        W72106  11.781  19.734  11.122
  381W        W72107  27.087  10.205  12.549
  382W        W72108   2.658   8.349   4.072
  383W        W72109   7.641  18.341   0.454
  384W        W72110  41.736   4.943   0.416
  385W        W72111   9.841  17.171  11.944
  386W        W72112   0.724  12.850  13.353
  387W        W72113  38.360  21.223   1.610
  388W        W72114   8.957   2.090  11.272
  389W        W72115  21.647   2.222   0.741
  390W        W72116  14.789  41.260   3.655
  391W        W72117  27.264  18.890  14.933
  392W        W72118  31.999  28.911   1.407
  393W        W72119  17.823  28.151  11.030
  394W        W72120  24.288  11.141   0.242
  395W        W72121  24.510  21.915  11.812
  396W        W72122  20.314  33.517  13.843
  397W        W72123   8.408   7.974   0.392
  398W        W72124   2.327  18.134  13.201
  399W        W72125   7.691   6.226   4.291
  400W        W72126  25.707  16.600   0.967
  401W        W72127  12.239  19.837   3.731
  402W        W72128  25.075  11.310  12.376
  403W        W72129  43.038  32.598   1.361
  404W        W72130  39.466  29.070   0.673
  405W        W72131  34.927   7.670  12.603
  406W        W72132  41.925  29.736   5.271
  407W        W72133  27.991  16.179   4.298
  408W        W72134  18.786   3.148   4.198
  409W        W72135  12.113  43.197  13.726
  410W        W72136  32.964   2.437  12.492
  411W        W72137  35.375   6.934  12.868
  412W        W72138  38.122  33.865   1.437
  413W        W72139  14.812  38.565  12.518
  414W        W72140  41.522  14.407  13.748
  415W        W72141  44.746  31.156  12.079
  416W        W72142   5.155  12.607  13.388
  417W        W72143  22.051  43.818   0.832
  418W        W72144  43.967  43.275   0.883
  419W        W72145   8.804  22.722   4.882
  420W        W72146  26.376  17.255   0.822
  421W        W72147  27.670  28.606   1.469
  422W        W72148  27.202  11.280   4.714
  423W        W72149   6.433  15.628  12.981
  424W        W72150  37.779  22.697   1.454
  425W        W72151  15.589  41.725   2.282
  426W        W72152  27.457  43.431   1.974
  427W        W72153  35.488   7.899  11.431
  428W        W72154  27.040   4.048   2.385
  429W        W72155  39.313  37.253  10.286
  430W        W72156  21.075  40.208  12.899
  431W        W72157   1.930  28.632  14.293
  432W        W72158  17.668  42.030   0.868
  433W        W72159   9.155   4.635   9.822
  434W        W72160  25.412  36.526  11.178
  435W        W72161  17.770  32.334   0.857
  436W        W72162   2.172  33.074  14.893
  437W        W72163  19.349  29.277  11.061
  438W        W72164   1.924  23.648  11.833
  439W        W72165   0.364  10.552  13.811
  440W        W72166  39.637   4.233  12.013
  441W        W72167   7.314  16.351  11.184
  442W        W72168  22.663   7.197   3.183
  443W        W72169   1.308  17.563  14.302
  444W        W72170  36.548  35.794   3.730
  445W        W72171  39.309   7.435  11.061
  446W        W72172  10.850  14.574  13.092
  447W        W72173  28.752  14.123   3.390
  448W        W72174  32.457  35.309   3.598
  449W        W72175  37.326  16.491   2.756
  450W        W72176  41.626  43.904   3.874
  451W        W72177  28.095  44.800  10.164
  452W        W72178  24.019  39.464   1.229
  453W        W72179  19.221   8.658  12.540
  454W        W72180   2.384  26.190  14.892
  455W        W72181  41.946  36.929  14.034
  456W        W72182  11.031   7.200  14.028
  457W        W72183  37.052  21.644  10.648
  458W        W72184  28.325   6.647   3.647
  459W        W72185  38.970  30.160   4.809
  460W        W72186  36.528  15.499  14.006
  461W        W72187   3.054  36.064  10.185
  462W        W72188  31.696  12.102  11.976
  463W        W72189  34.310  41.976  13.291
  464W        W72190  16.087  11.079   4.627
  465W        W72191  10.373  30.347  10.739
  466W        W72192  24.439  14.365   0.955
  467W        W72193  44.360  25.525  10.723
  468W        W72194  32.863  14.883  11.263
  469W        W72195  28.368  21.656   3.312
  470W        W72196  35.137  34.433   9.747
  471W        W72197  30.122  34.807  14.338
  472W        W72198  36.131  25.000  11.548
  473W        W72199  11.718  35.456  10.514
  474W        W72200  36.079   9.870  12.038
  475W        W72201  22.611  20.823   2.947
  476W        W72202   9.849   1.070   1.927
  477W        W72203  12.968  37.810   3.804
  478W        W72204  41.923  38.326   3.228
  479W        W72205   5.103  15.318  14.296
  480W        W72206  25.071   4.660  13.474
  481W        W72207  24.565  10.567  10.467
  482W        W72208  39.423   0.966  12.056
  483W        W72209  44.945  41.328   2.676
  484W        W72210   1.581  37.466   2.627
  485W        W72211   2.315  13.842   3.262
  486W        W72212  14.602  20.328   2.205
  487W        W72213  28.965  33.387   3.692
  488W        W72214   3.371   0.445  11.699
  489W        W72215  34.319  34.981   0.715
  490W        W72216  12.273  21.450  14.050
  491W        W72217  14.830  22.794  12.117
  492W        W72218   7.351  16.348   2.982
  493W        W72219  28.415   5.107  13.364
  494W        W72220  11.412  16.430  11.561
  495W        W72221  42.896   6.356  12.662
  496W        W72222   3.881   7.699  12.942
  497W        W72223   9.940  44.777   0.045
  498W        W72224  41.502  20.409  13.931
  499W        W72225   7.264  38.936  14.499
  500W        W72226   6.659  10.673  14.669
  501W        W72227  26.673   5.773  11.037
  502W        W72228  36.498  20.975  12.431
  503W        W72229  40.773  12.678   2.237
  504W        W72230   9.757   0.456  11.624
  505W        W72231  15.741  27.407   3.718
  506W        W72232  30.048  36.422   1.717
  507W        W72233  31.349  21.991  14.298
  508W        W72234  36.022  33.696   3.011
  509W        W72235  11.689   7.369   3.675
  510W        W72236   1.133  42.943  11.994
  511W        W72237  21.611  12.006  11.207
  512W        W72238  21.870  27.868   0.709
  513W        W72239  24.469  34.186  11.132
  514W        W72240  19.652  25.614   3.609
  515W        W72241  35.354   7.313   2.836
  516W        W72242   9.333  23.911   3.325
  517W        W72243  36.583  22.678   3.651
  518W        W72244   7.365  24.274   3.342
  519W        W72245  29.145   8.448  13.893
  520W        W72246  27.048  42.683   2.624
  521W        W72247  16.070  15.241  10.487
  522W        W72248  10.583  39.594   2.631
  523W        W72249  20.066  40.852   4.740
  524W        W72250  26.067  32.613   3.610
  525W        W72251   2.913  20.773  10.440
  526W        W72252  22.089  28.182   4.057
  527W        W72253  40.350  44.004   0.146
  528W        W72254  15.766  34.487   0.220
  529W        W72255  11.158   2.981   2.872
  530W        W72256  21.175   0.361  14.980
  531W        W72257  38.839  26.951  10.610
  532W        W72258  11.750  36.435  10.904
  533W        W72259   5.790  21.307  10.740
  534W        W72260  32.380   1.823  13.445
  535W        W72261  44.423  38.745   3.870
  536W        W72262  18.525  21.121   4.608
  537W        W72263  12.128  24.066  12.538
  538W        W72264   0.790  19.077   2.373
  539W        W72265  30.449  41.292  10.998
  540W        W72266   3.043  21.734   1.683
  541W        W72267  36.048  29.965  10.953
  542W        W72268  29.679  23.494  12.764
  543W        W72269  22.671  11.868  13.224
  544W        W72270  36.431  25.575   3.794
  545W        W72271  21.054   7.897  12.988
  546W        W72272  41.494  15.813  10.954
  547W        W72273  33.845  12.811  14.369
  548W        W72274  44.740  31.451  11.175
  549W        W72275   2.337  18.229   3.710
  550W        W72276  39.914  13.622  13.610
  551W        W72277  43.817  21.010  11.559
  552W        W72278   2.772  19.334   0.976
  553W        W72279   3.031   1.783  11.537
  554W        W72280   1.784  33.601  11.045
  555W        W72281   3.740  44.871  13.631
  556W        W72282  30.000  13.134  11.667
  557W        W72283  14.770  27.476  10.571
  558W        W72284  11.123  19.206  11.834
  559W        W72285  34.054  40.105   0.398
  560W        W72286  22.788  35.085   2.727
  561W        W72287   7.943   1.523  13.834
  562W        W72288  37.631  14.653  13.481
  563W        W72289  26.970   2.247   2.674
  564W        W72290  30.658   7.316  10.734
  565W        W72291  24.426  44.618   3.361
  566W        W72292  21.516  25.936  13.812
  567W        W72293  29.735  33.377   0.881
  568W        W72294   5.814  21.822   4.139
  569W        W72295  17.215   2.468  12.482
  570W        W72296  19.605   8.042  11.121
  571W        W72297  15.036   9.238  14.730
  572W        W72298  36.405  13.103  12.473
  573W        W72299   0.462   0.415  13.944
  574W        W72300  21.722  20.149  13.993
  575W        W72301  31.685   4.235   4.407
  576W        W72302  39.535  21.511   3.257
  577W        W72303   7.434  41.939  10.794
  578W        W72304  30.457  34.154  11.569
  579W        W72305   5.538  36.813   0.500
  580W        W72306   9.240  29.207   1.495
  581W        W72307  37.442   7.604   2.303
  582W        W72308  26.591   0.200   3.113
  583W        W72309  21.301  31.073   4.185
  584W        W72310  21.171  31.887  14.210
  585W        W72311  42.912  22.492   0.826
  586W        W72312  42.032  35.795   0.878
  587W        W72313  43.920  32.950   1.577
  588W        W72314   6.519  31.742  12.846
  589W        W72315  19.610  38.579  11.990
  590W        W72316  29.502   2.555  12.157
  591W        W72317  43.209  35.561  12.097
  592W        W72318  44.038  38.833   2.167
  593W        W72319  44.017   9.388  14.485
  594W        W72320  37.750  35.168   2.321
  595W        W72321   1.519  12.780  13.930
  596W        W72322   9.162  26.810  14.921
  597W        W72323  43.577  33.500  11.464
  598W        W72324  21.169   5.613  12.079
  599W        W72325  42.259  16.001  14.800
  600W        W72326  33.939  32.139   3.246
  601W        W72327  10.049  24.221  13.794
  602W        W72328  26.396  38.120  12.604
  603W        W72329  44.658  17.788   4.104
  604W        W72330  29.612   4.764  14.923
  605W        W72331  24.448  25.599  12.839
  606W        W72332  28.024  35.435  14.027
  607W        W72333  16.666  43.058   2.875
  608W        W72334  44.498  25.027   4.089
  609W        W72335   2.767  43.033   3.664
  610W        W72336  36.551   4.782   4.084
  611W        W72337  33.452  44.605   4.329
  612W        W72338  11.659  10.743   4.545
  613W        W72339  28.572  37.397   1.594
  614W        W72340  41.104  27.225  11.177
  615W        W72341   6.675   4.472   4.184
  616W        W72342  15.622  22.433  13.033
  617W        W72343   2.905  21.515  12.149
  618W        W72344   0.958  14.715  13.937
  619W        W72345   8.966  31.952  11.578
  620W        W72346   4.425  43.869   0.440
  621W        W72347  31.507  30.173  13.354
  622W        W72348  10.297  21.964  14.960
  623W        W72349  20.296  25.499  12.770
  624W        W72350   7.204   6.026  10.783
  625W        W72351  31.723  29.078  10.663
  626W        W72352  18.819  25.949   3.292
  627W        W72353  41.766   8.445   1.782
  628W        W72354  39.037  11.611   1.127
  629W        W72355   6.669  16.018  11.158
  630W        W72356  34.370  11.754  11.155
  631W        W72357  10.510  39.002   1.631
  632W        W72358   1.402  23.656  11.783
  633W        W72359  15.438  41.847  14.496
  634W        W72360   4.333  16.725  13.317
  635W        W72361  43.685  29.927  12.145
  636W        W72362  25.157  17.006   0.382
  637W        W72363  12.783   4.408   2.792
  638W        W72364  41.033  35.423  11.546
  639W        W72365  13.584  26.489  14.891
  640W        W72366  21.736  29.760   1.410
  641W        W72367   9.823  38.820   2.720
  642W        W72368  42.421  29.424  12.438
  643W        W72369   1.300  33.519  13.087
  644W        W72370   1.830  37.662  14.718
  645W        W72371  25.200  40.430   4.618
  646W        W72372  40.861  27.611  10.909
  647W        W72373  33.567  37.122  11.962
  648W        W72374  16.552  29.496   2.446
  649W        W72375  33.985   1.789  14.517
  650W        W72376   2.451  15.178   3.308
  651W        W72377  23.337  39.467  12.398
  652W        W72378  14.673  25.209  13.020
  653W        W72379  40.602  34.335  13.667
  654W        W72380  18.514   6.979   2.318
  655W        W72381  23.432  10.054   1.691
  656W        W72382   6.766  29.085  13.336
  657W        W72383  10.250  17.127   3.747
  658W        W72384  10.070  13.553  14.443
  659W        W72385  12.212  38.623   4.555
  660W        W72386  23.972   6.220  13.052
  661W        W72387  43.735   0.786   0.024
  662W        W72388  21.558  13.924   2.793
  663W        W72389  18.989   1.694   1.468
  664W        W72390  44.339  25.488  14.044
  665W        W72391  21.327   0.984  13.458
  666W        W72392  14.325  17.464   0.935
  667W        W72393  25.134  40.287  10.740
  668W        W72394  16.571  10.725   3.248
  669W        W72395  21.687  20.543   2.299
  670W        W72396  12.626  38.361   1.048
  671W        W72397  41.823  26.424   2.728
  672W        W72398  29.968  34.019   4.516
  673W        W72399   3.070   6.589  11.093
  674W        W72400  15.859  34.057   0.799
  675W        W72401  44.803   5.146   0.399
  676W        W72402  29.911  35.841   0.482
  677W        W72403  28.846  29.165   3.069
  678W        W72404  25.643  35.048   4.506
  679W        W72405  10.086  30.478   2.484
  680W        W72406  21.159  39.047  14.896
  681W        W72407  18.225  26.117   3.818
  682W        W72408  36.283   5.799   2.338
  683W        W72409  31.102   3.912   2.401
  684W        W72410  32.999  41.937   1.599
  685W        W72411  12.057  33.683  11.015
  686W        W72412  36.647  11.073  11.213
  687W        W72413   0.342  41.995   0.600
  688W        W72414   7.002   5.633  12.616
  689W        W72415  27.806  25.145  11.099
  690W        W72416  32.148  24.525  14.027
  691W        W72417   0.427  10.926   2.789
  692W        W72418  32.132  18.130  10.487
  693W        W72419  34.909  35.973   9.813
  694W        W72420  17.718   8.644  13.766
  695W        W72421  32.948  28.609  11.544
  696W        W72422  26.969   0.513   2.421
  697W        W72423   6.826  32.815  14.432
  698W        W72424  12.598  30.535  10.663
  699W        W72425  24.706  10.422  14.774
  700W        W72426   8.844  17.603   1.733
  701W        W72427   2.393  19.052  12.867
  702W        W72428   8.206  24.541  10.963
  703W        W72429  25.400   6.956  14.857
  704W        W72430  28.612  21.428  11.661
  705W        W72431  14.533  17.019  12.112
  706W        W72432  38.324  39.245   0.756
  707W        W72433  24.410  10.273   1.867
  708W        W72434  10.335  12.159  14.509
  709W        W72435  27.143   2.207  12.368
  710W        W72436   9.874  36.745   1.411
  711W        W72437  31.006  30.396  13.170
  712W        W72438  41.064  27.598  11.935
  713W        W72439  25.925   7.464  13.800
  714W        W72440  25.748  14.066   3.724
  715W        W72441  40.294  29.501   2.844
  716W        W72442  11.388  30.650  10.968
  717W        W72443  41.912  40.241  12.044
  718W        W72444  40.283   1.387   1.057
  719W        W72445  34.859  23.798   2.843
  720W        W72446  13.934  21.190  12.866
  721W        W72447  19.666  36.171   4.195
  722W        W72448  41.423  34.846  14.066
  723W        W72449   9.509  14.844   2.656
  724W        W72450  20.841  29.459   1.399
  725W        W72451  27.086  31.929  14.592
  726W        W72452  11.357  33.332   2.764
  727W        W72453  25.155  14.148  11.704
  728W        W72454  40.758  37.506   3.228
  729W        W72455  25.331  38.385  11.758
  730W        W72456  36.060   3.969   1.864
  731W        W72457  19.550  20.621   3.668
  732W        W72458  15.445  40.753   4.689
  733W        W72459  26.109  13.611  14.528
  734W        W72460  17.778   5.455   0.379
  735W        W72461  11.214   4.672  13.558
  736W        W72462  42.465  27.757  12.201
  737W        W72463   4.443   4.308   0.950
  738W        W72464  13.229  10.824  14.243
  739W        W72465  27.884  21.598  11.099
  740W        W72466  22.739   3.672   1.687
  741W        W72467  32.235  21.295  11.378
  742W        W72468   7.840  12.736   3.387
  743W        W72469   7.395  17.134   3.178
  744W        W72470  27.928  32.406   1.790
  745W        W72471  34.325  23.746   3.590
  746W        W72472  37.879  37.339   1.901
  747W        W72473  12.106  40.559   4.596
  748W        W72474  26.441  17.373   1.687
  749W        W72475  13.208   0.130   4.764
  750W        W72476  43.392  13.105  10.791
  751W        W72477   1.462   2.538  11.011
  752W        W72478  36.398  16.278  13.540
  753W        W72479  33.121  20.008  11.028
  754W        W72480  42.768   4.440   1.065
  755W        W72481  20.184  14.262  12.894
  756W        W72482  35.459  21.228   3.755
  757W        W72483  31.105   1.406  13.861
  758W        W72484  12.078  36.341   2.319
  759W        W72485  26.847  12.324   1.259
  760W        W72486   5.940   7.681  11.444
  761W        W72487  27.487  20.184   4.463
  762W        W72488  28.464  22.055   2.953
  763W        W72489  33.367   4.655   3.808
  764W        W72490  28.393   4.283   4.657
  765W        W72491  11.641  30.043   3.203
  766W        W72492  36.828  25.904  12.549
  767W        W72493  16.163   7.592  13.575
  768W        W72494  25.124  10.853   3.125
  769W        W72495   3.252  24.610   1.071
  770W        W72496  17.824  22.358   3.097
  771W        W72497   6.811   0.393  12.578
  772W        W72498  13.821  26.209  12.045
  773W        W72499  24.254  26.664  11.571
  774W        W72500  29.002  38.282  11.126
  775W        W72501  21.524   0.281   0.888
  776W        W72502   0.076  34.817  11.628
  777W        W72503  22.527  17.414   0.351
  778W        W72504   1.980  15.259   0.769
  779W        W72505   9.300  25.463  14.399
  780W        W72506  12.769  22.512  14.935
  781W        W72507   9.393  29.638   4.158
  782W        W72508  22.750  33.225   1.391
  783W        W72509   7.033   6.310  14.465
  784W        W72510  29.032   6.208   0.458
  785W        W72511  41.571   1.837   3.973
  786W        W72512  15.918  11.574   2.081
  787W        W72513  39.735  42.320   0.475
  788W        W72514   0.800   6.711  14.248
  789W        W72515   0.096  23.609   1.224
  790W        W72516   7.201  37.891   4.847
  791W        W72517   4.448  20.085   1.494
  792W        W72518  43.821  32.593   2.568
  793W        W72519  42.004  29.963   4.268
  794W        W72520  20.838  27.077   3.773
  795W        W72521   8.609  12.143   3.408
  796W        W72522   4.495  12.176  13.942
  797W        W72523  41.346  29.390  14.330
  798W        W72524   3.287  38.623   0.431
  799W        W72525   0.719  27.685   1.600
  800W        W72526  37.446  10.332   2.870
  801W        W72527  15.760  20.131  14.972
  802W        W72528  43.638  33.949   1.729
  803W        W72529   6.200   6.749   5.033
  804W        W72530  43.002  16.485  12.904
  805W        W72531  41.102  22.349  14.923
  806W        W72532  23.852  40.552   4.585
  807W        W72533  41.572  31.867  11.630
  808W        W72534  24.043  15.673   2.438
  809W        W72535  32.063   0.082  12.863
  810W        W72536  12.874  11.068  11.130
  811W        W72537   7.979  23.769  13.095
  812W        W72538  28.305  21.235  12.914
  813W        W72539  24.192   3.358   4.583
  814W        W72540   6.891  43.949  10.686
  815W        W72541  27.625  33.197  12.855
  816W        W72542  37.981  37.705   2.291
  817W        W72543  42.194  40.960  10.918
  818W        W72544  40.734  24.468   2.787
  819W        W72545  38.984   1.977   2.730
  820W        W72546  15.633   0.739   2.065
  821W        W72547  39.277  24.437   1.448
  822W        W72548  40.458  43.656   2.561
  823W        W72549  30.641   6.793  10.840
  824W        W72550   0.755  42.877   0.714
  825W        W72551  10.041  18.806  12.496
  826W        W72552   7.830  36.079   0.930
  827W        W72553   8.644  10.071  12.787
  828W        W72554  15.104  13.083   3.679
  829W        W72555   8.650  29.161  11.195
  830W        W72556  10.111  14.850  11.663
  831W        W72557  10.709   9.445   0.170
  832W        W72558  10.019   8.564  13.553
  833W        W72559  43.328   3.587  12.506
  834W        W72560  15.710   5.458   0.332
  835W        W72561   3.498  22.716   2.695
  836W        W72562   8.802  16.071   3.882
  837W        W72563   3.900  36.954  13.334
  838W        W72564  22.823  42.799   4.518
  839W        W72565  43.322  10.103   1.355
  840W        W72566  32.643   8.186   3.457
  841W        W72567   0.980  41.682  14.446
  842W        W72568  28.679  44.292   0.722
  843W        W72569  19.625  40.556  12.019
  844W        W72570   0.532   2.705   1.826
  845W        W72571  13.113  25.634   0.541
  846W        W72572  22.046   3.826  12.958
  847W        W72573  43.697  15.790  12.006
  848W        W72574  29.675  28.560  14.680
  849W        W72575  30.487   9.164  14.442
  850W        W72576  32.054   7.571  10.771
  851W        W72577   2.662  41.419   4.463
  852W        W72578   0.716  32.052   0.764
  853W        W72579   7.659  37.609  11.199
  854W        W72580  13.163  23.823  11.324
  855W        W72581  41.888  13.881  11.783
  856W        W72582  13.177  25.654  12.011
  857W        W72583  25.641  15.755  11.389
  858W        W72584  36.274  14.258   4.997
  859W        W72585  27.650  24.771  13.365
  860W        W72586  37.996  21.618   0.194
  861W        W72587  29.087  12.888   3.826
  862W        W72588   4.272  14.601  11.070
  863W        W72589  27.462  28.264   4.683
  864W        W72590  18.325  42.462   4.932
  865W        W72591   7.334  36.566   3.607
  866W        W72592  14.611  14.779  13.073
  867W        W72593  43.661  11.762  13.586
  868W        W72594  13.331  43.723  12.949
  869W        W72595  23.163  39.727   1.826
  870W        W72596   4.814   9.074  10.698
  871W        W72597   0.296  24.222  12.173
  872W        W72598  24.477   7.750   3.709
  873W        W72599   3.305  22.157  14.635
  874W        W72600  12.170  26.029  12.540
  875W        W72601  10.636  30.480  11.173
  876W        W72602  29.369   1.950   0.374
  877W        W72603  40.593  25.710  14.522
  878W        W72604   9.087  23.584   1.170
  879W        W72605  29.599  35.582   3.839
  880W        W72606  20.038  37.557   4.597
  881W        W72607   4.926  41.301   1.395
  882W        W72608  11.589  35.497   2.777
  883W        W72609  36.019  17.134  12.301
  884W        W72610  36.290  22.122   2.899
  885W        W72611  22.785   7.724  14.982
  886W        W72612  40.068  44.824   4.740
  887W        W72613  30.115   0.484   0.446
  888W        W72614  23.028  28.319   9.695
  889W        W72615   9.347  26.753  13.967
  890W        W72616   5.917  13.272  14.897
  891W        W72617  39.316  26.635  12.115
  892W        W72618   3.941  27.204  14.567
  893W        W72619  35.777  26.035  11.417
  894W        W72620  10.234   0.358   0.295
  895W        W72621  19.598  40.945   4.370
  896W        W72622  10.504  24.973   5.007
  897W        W72623  34.626  33.228   1.982
  898W        W72624  28.931   7.844   2.338
  899W        W72625  38.108  39.871   0.548
  900W        W72626  29.572  35.518  10.469
  901W        W72627  29.372  21.957  14.452
  902W        W72628  18.489   6.113  11.115
  903W        W72629   9.837  17.647  14.841
  904W        W72630  29.257  40.301   3.704
  905W        W72631  37.306   6.957  14.018
  906W        W72632  27.640  28.906   3.707
  907W        W72633  43.812   6.365   3.204
  908W        W72634  12.705   7.289   3.334
  909W        W72635  42.028   1.931   1.172
  910W        W72636  38.538   0.473   0.295
  911W        W72637  14.680   1.443  14.365
  912W        W72638   2.814  33.237  11.138
  913W        W72639  10.413  12.329  10.811
  914W        W72640  26.941  17.258   1.823
  915W        W72641  20.137   7.834  14.037
  916W        W72642  31.102  25.796   3.332
  917W        W72643  35.588  19.163   4.239
  918W        W72644  18.771  14.080   0.798
  919W        W72645  41.910  15.213   3.059
  920W        W72646  24.481  11.732   4.184
  921W        W72647   4.702  32.930   4.584
  922W        W72648  39.458  17.174  10.714
  923W        W72649  16.582  23.450   0.297
  924W        W72650   9.547  23.050   3.772
  925W        W72651   9.337  32.946  11.545
  926W        W72652  27.451  19.285  11.544
  927W        W72653  25.215  40.135  12.372
  928W        W72654  37.989   1.910   3.981
  929W        W72655  39.980  40.627   0.809
  930W        W72656   9.385  35.396  10.866
  931W        W72657  38.093  36.468  13.310
  932W        W72658  10.405   3.415   3.738
  933W        W72659  17.371  15.822   3.409
  934W        W72660   4.211   3.332   4.144
  935W        W72661  42.377  16.339  12.566
  936W        W72662  40.889  41.382   2.231
  937W        W72663  42.241  14.191   0.428
  938W        W72664  19.754  30.175   0.723
  939W        W72665  40.030  32.839   1.748
  940W        W72666  25.694  14.576   2.793
  941W        W72667  37.062  12.594  12.585
  942W        W72668  14.143  36.838  11.077
  943W        W72669  12.873   2.506  11.060
  944W        W72670  16.870  43.119   4.158
  945W        W72671  32.603  44.506   5.834
  946W        W72672  28.631  17.764   0.237
  947W        W72673  13.786  32.608  12.768
  948W        W72674  42.851  41.590   1.752
  949W        W72675   1.793  38.498  13.141
  950W        W72676  34.347  19.693   0.551
  951W        W72677  12.193  30.333   2.360
  952W        W72678  33.481  15.046   3.167
  953W        W72679   5.010  32.099   3.678
  954W        W72680  25.657   1.996  12.195
  955W        W72681  40.876  10.745  13.315
  956W        W72682   6.935  25.968  14.560
  957W        W72683  26.230  38.478  14.983
  958W        W72684   6.963  14.715   5.149
  959W        W72685  27.540   5.477   4.726
  960W        W72686   3.103   7.750   2.584
  961W        W72687  18.025  11.155   0.066
  962W        W72688   1.831   3.908   2.698
  963W        W72689  21.490  18.250  12.040
  964W        W72690  23.224  11.845   2.640
  965W        W72691  20.773  21.702  11.159
  966W        W72692  34.151  32.513  11.954
  967W        W72693  44.874  15.815  14.357
  968W        W72694   3.192  44.910  10.430
  969W        W72695   5.388  20.063   1.897
  970W        W72696  11.143  28.200   0.819
  971W        W72697   9.374  33.114  12.053
  972W        W72698   6.498  15.125  13.795
  973W        W72699  41.933  28.920  13.882
  974W        W72700   1.518  20.626   3.223
  975W        W72701  24.535  23.457   2.234
  976W        W72702   6.723  15.791   1.927
  977W        W72703  10.607   3.276  12.395
  978W        W72704  37.817  15.254  12.823
  979W        W72705  16.195   6.288  13.916
  980W        W72706   1.906  16.555  12.098
  981W        W72707   9.395  21.210  13.789
  982W        W72708  11.200  32.111  14.438
  983W        W72709  18.525  34.809  13.020
  984W        W72710  41.552  42.501  12.113
  985W        W72711  42.988  13.444  10.696
  986W        W72712  10.119   6.147   0.528
  987W        W72713  35.075  11.557   0.820
  988W        W72714  31.636  32.638  14.909
  989W        W72715   3.439  35.630   1.774
  990W        W72716   1.441   7.945  12.350
  991W        W72717  15.634  41.928   1.748
  992W        W72718  34.915  15.242   2.863
  993W        W72719  28.738  22.748   0.377
  994W        W72720  16.682   6.501   4.576
  995W        W72721  14.063   2.220  11.902
  996W        W72722  40.640   1.579   1.916
  997W        W72723   9.593  12.607   4.260
  998W        W72724  38.979  24.146  13.785
  999W        W72725  41.987  40.902  14.408
 1000W        W72726  37.180  40.334  11.157
 1001W        W72727  31.409  40.294   0.432
 1002W        W72728  12.981   4.176  10.772
 1003W        W72729   6.179  32.701   1.097
 1004W        W72730  14.692  22.619  10.156
 1005W        W72731  13.798  20.778   4.327
 1006W        W72732  25.977  36.955   0.319
 1007W        W72733   4.498  17.640  10.887
 1008W        W72734  23.218  19.241   4.544
 1009W        W72735  31.207   2.795  13.703
 1010W        W72736  11.749  22.935   4.805
 1011W        W72737  19.468  38.779  11.103
 1012W        W72738  23.538  37.670  14.816
 1013W        W72739  10.092   6.357  10.647
 1014W        W72740  34.384  42.897  14.220
 1015W        W72741  31.222   7.258  13.915
 1016W        W72742   0.805  21.239  10.141
 1017W        W72743   5.194  41.430   0.329
 1018W        W72744  15.597  31.165  10.478
 1019W        W72745  36.496  44.824   2.692
 1020W        W72746  24.215  32.430  11.162
 1021W        W72747  29.030  21.760   4.669
 1022W        W72748  19.107   0.578  12.491
 1023W        W72749  25.597  19.159   0.352
 1024W        W72750  23.170  15.180   4.093
 1025W        W72751  10.348  39.576   0.794
 1026W        W72752  44.310  34.670  11.711
 1027W        W72753  42.848  37.993   3.142
 1028W        W72754  31.734  19.079   0.864
 1029W        W72755  21.729  21.804  14.438
 1030W        W72756  39.146  11.300  12.097
 1031W        W72757  29.840  23.058   2.373
 1032W        W72758  38.153   2.716   0.799
 1033W        W72759  34.343   7.328  11.175
 1034W        W72760  36.326  41.591  11.939
 1035W        W72761  15.085  44.753   4.214
 1036W        W72762  25.360  19.042   1.127
 1037W        W72763   5.947   2.017  12.909
 1038W        W72764  25.928   6.298   4.497
 1039W        W72765  31.656  38.621  10.885
 1040W        W72766  32.925   6.431  11.477
 1041W        W72767  14.350  41.105   3.443
 1042W        W72768  28.352  37.512  13.242
 1043W        W72769  43.786  41.451   4.970
 1044W        W72770  30.249  16.781  11.813
 1045W        W72771  22.129  42.980  14.499
 1046W        W72772   6.455  35.449   2.761
 1047W        W72773  29.122  33.122   4.436
 1048W        W72774  38.880  10.328   1.284
 1049W        W72775  13.616   0.960   3.125
 1050W        W72776  41.963  16.041  12.603
 1051W        W72777  33.414  31.743   4.902
 1052W        W72778  23.013   4.621   3.011
 1053W        W72779  44.443  38.675  12.100
 1054W        W72780   0.564  16.273  12.606
 1055W        W72781  15.231  25.164   2.573
 1056W        W72782  20.780   6.365   0.001
 1057W        W72783  35.281   6.636  11.928
 1058W        W72784  26.074  13.089   2.215
 1059W        W72785   0.451  32.311  13.367
 1060W        W72786  31.458  31.922  13.839
 1061W        W72787  44.012  32.448   0.265
 1062W        W72788  43.258  21.604  12.452
 1063W        W72789  37.390   7.205   1.504
 1064W        W72790  43.234  37.699   3.723
 1065W        W72791   8.595  19.201  13.872
 1066W        W72792  31.398   9.895   0.723
 1067W        W72793  35.091   5.261   0.820
 1068W        W72794  22.502   9.652   2.569
 1069W        W72795  22.487  40.974   2.439
 1070W        W72796  41.814  12.409   0.793
 1071W        W72797  36.431   1.884   2.384
 1072W        W72798  19.345  30.709  11.401
 1073W        W72799  20.638  20.236   0.487
 1074W        W72800   0.484  24.794   4.704
 1075W        W72801   1.117  43.758  13.772
 1076W        W72802  27.431  40.058  14.149
 1077W        W72803   6.242  43.671  12.136
 1078W        W72804  12.090  16.441   2.704
 1079W        W72805  26.079  27.922   4.272
 1080W        W72806   4.695  38.055   3.380
 1081W        W72807  40.358   9.936   4.900
 1082W        W72808  15.071  21.166   0.376
 1083W        W72809  15.203  39.488   4.396
 1084W        W72810  43.465  27.735  14.573
 1085W        W72811  13.019  18.612  14.831
 1086W        W72812  42.051   9.574  12.473
 1087W        W72813  26.686  20.741   2.297
 1088W        W72814  31.656  36.388  11.421
 1089W        W72815   7.314  41.317   1.299
 1090W        W72816  11.844  44.466   1.917
 1091W        W72817  33.637  24.620   0.792
 1092W        W72818  27.042   0.703  12.173
 1093W        W72819   6.261   1.357   1.773
 1094W        W72820  27.612  36.091  13.386
 1095W        W72821  26.755  38.559  14.941
 1096W        W72822  14.524  28.575   3.178
 1097W        W72823  25.033  37.034   1.747
 1098W        W72824  23.111  12.906  14.782
 1099W        W72825  12.730   5.750   4.464
 1100W        W72826   1.755  24.203  14.437
 1101W        W72827  16.573   3.930  12.057
 1102W        W72828  19.965   6.359   3.655
 1103W        W72829   0.780  44.178  12.533
 1104W        W72830  14.320  37.604  10.556
 1105W        W72831  27.995   5.674   2.252
 1106W        W72832  36.666  10.882  12.541
 1107W        W72833  16.546  36.849  12.582
 1108W        W72834  43.058  19.002   4.952
 1109W        W72835  44.504  44.257   3.431
 1110W        W72836  38.034   4.367  11.552
 1111W        W72837  41.022  21.324  14.462
 1112W        W72838  32.001  35.796  10.946
 1113W        W72839   4.966  21.740  14.995
 1114W        W72840  37.414  17.330  11.200
 1115W        W72841   0.781  31.436   2.760
 1116W        W72842  37.043   8.972   1.359
 1117W        W72843  15.844   4.645  10.644
 1118W        W72844  10.798  25.761  10.150
 1119W        W72845  21.516  39.430   0.305
 1120W        W72846  30.151  28.022   3.258
 1121W        W72847  19.796  38.180   2.275
 1122W        W72848   5.569   3.477  11.153
 1123W        W72849  44.542  33.668  12.495
 1124W        W72850  36.490  33.644   0.771
 1125W        W72851  23.649  22.255   2.905
 1126W        W72852  19.691  13.246   4.726
 1127W        W72853  34.529   8.422  14.424
 1128W        W72854  30.341  33.996   1.305
 1129W        W72855  18.087  38.998   1.181
 1130W        W72856  30.099  29.681  11.964
 1131W        W72857  12.133   2.332   1.364
 1132W        W72858  21.767  25.261   0.762
 1133W        W72859   1.996   4.265   3.997
 1134W        W72860  16.032  23.869   2.415
 1135W        W72861  27.482   3.637   4.280
 1136W        W72862  25.971  39.070  11.638
 1137W        W72863  42.459  17.108  11.509
 1138W        W72864   7.891   7.680   4.059
 1139W        W72865  35.589   5.836  11.924
 1140W        W72866  44.367  40.410   2.379
 1141W        W72867  33.349   8.204  11.214
 1142W        W72868  18.067  28.580  11.242
 1143W        W72869  28.689  36.372  14.026
 1144W        W72870  24.913   0.174  10.091
 1145W        W72871  28.833  38.597   1.346
 1146W        W72872  35.750  14.860  10.771
 1147W        W72873  12.564   8.611  12.521
 1148W        W72874  37.921  27.282  12.305
 1149W        W72875  42.896  16.250  11.406
 1150W        W72876  24.371  31.808  14.292
 1151W        W72877  44.946   8.139   3.692
 1152W        W72878   7.644   1.845   3.817
 1153W        W72879   8.701  11.887   2.964
 1154W        W72880  36.509  12.171  14.711
 1155W        W72881  37.525   5.414  12.052
 1156W        W72882  18.709  17.262   1.328
 1157W        W72883  17.630  24.995   1.873
 1158W        W72884   1.879  35.399  12.859
 1159W        W72885  23.770  10.665   4.191
 1160W        W72886  20.128  30.458  13.931
 1161W        W72887  14.767  11.722  12.488
 1162W        W72888  42.191  18.175   3.135
 1163W        W72889  31.915  20.043  12.001
 1164W        W72890  25.471   8.230  14.976
 1165W        W72891  14.026  35.609  11.920
 1166W        W72892  19.693  31.558   4.433
 1167W        W72893   3.360   1.900  11.157
 1168W        W72894  32.388  42.750  11.993
 1169W        W72895   0.577   1.802  13.855
 1170W        W72896   5.588  12.881  12.032
 1171W        W72897   2.902  35.065  10.776
 1172W        W72898   5.177   0.074  14.363
 1173W        W72899  37.932  25.432  11.958
 1174W        W72900  43.815  43.992   1.260
 1175W        W72901   8.889  35.822  12.241
 1176W        W72902  19.255  18.239   0.417
 1177W        W72903  27.369  35.131  13.549
 1178W        W72904  13.560  10.300  10.862
 1179W        W72905  44.705  22.838   4.138
 1180W        W72906   6.088  10.667  10.580
 1181W        W72907  13.717  17.747   1.214
 1182W        W72908  23.552  36.315   4.844
 1183W        W72909  18.784  18.676   3.622
 1184W        W72910  23.986  27.514   4.008
 1185W        W72911  22.655   2.515  10.604
 1186W        W72912   6.963  23.165   1.716
 1187W        W72913  41.826   7.074  14.576
 1188W        W72914  13.940  37.385  14.297
 1189W        W72915  15.724   7.307  13.772
 1190W        W72916   2.317  24.186  14.233
 1191W        W72917  10.382  37.146   2.192
 1192W        W72918   9.160  11.838   0.777
 1193W        W72919  25.695  21.640   4.880
 1194W        W72920   5.389   7.828  14.160
 1195W        W72921  29.505  28.879   0.390
 1196W        W72922  26.652  35.621  12.993
 1197W        W72923  23.759  34.567   2.639
 1198W        W72924  21.606  15.742   5.147
 1199W        W72925  43.509   7.929  12.456
 1200W        W72926  42.023  44.372  10.352
 1201W        W72927  11.806  28.726   1.808
 1202W        W72928  17.632   6.195  10.916
 1203W        W72929  34.626  15.102  14.818
 1204W        W72930   3.475   6.398   0.699
 1205W        W72931  21.236  28.178  14.984
 1206W        W72932   2.952  23.218   1.880
 1207W        W72933   5.234  40.381   3.037
 1208W        W72934  20.246  30.394  14.877
 1209W        W72935  26.149  35.901   1.289
 1210W        W72936  20.056  13.541   0.836
 1211W        W72937  10.197  23.033   1.364
 1212W        W72938  24.123   7.488   2.260
 1213W        W72939  42.500  29.218   2.765
 1214W        W72940  26.653   5.297   4.581
 1215W        W72941   4.841  34.101  13.387
 1216W        W72942  27.672  26.418   3.691
 1217W        W72943  23.515  21.637   0.852
 1218W        W72944  17.357  12.262  11.195
 1219W        W72945   7.602  40.884   1.358
 1220W        W72946  22.705  43.914  14.711
 1221W        W72947   6.807   8.123  14.853
 1222W        W72948  22.337   1.610   4.606
 1223W        W72949  15.536  25.948   3.726
 1224W        W72950  37.577   5.938   1.789
 1225W        W72951   4.910   8.697  13.540
 1226W        W72952  30.619  33.949   2.739
 1227W        W72953  12.667  42.912   2.695
 1228W        W72954  18.897  40.109   3.563
 1229W        W72955  44.392  37.974  10.903
 1230W        W72956   5.309  21.470  11.136
 1231W        W72957  34.488  34.138  14.275
 1232W        W72958  29.169  17.821  12.742
 1233W        W72959  26.495  39.616   2.097
 1234W        W72960   7.211   5.927  11.791
 1235W        W72961  12.288  10.990  12.346
 1236W        W72962  17.186  11.953   0.319
 1237W        W72963  33.084  22.817  13.381
 1238W        W72964   8.701  20.132  13.041
 1239W        W72965  33.518  23.613  11.437
 1240W        W72966  16.009  22.625   0.881
 1241W        W72967  22.163  44.096   1.252
 1242W        W72968   1.956  39.780   1.951
 1243W        W72969  42.809  34.812   3.652
 1244W        W72970   8.869  36.412  14.534
 1245W        W72971  40.882   0.916   1.281
 1246W        W72972   5.946  26.841   2.980
 1247W        W72973   1.199  42.677  12.425
 1248W        W72974   7.420  26.565   0.779
 1249W        W72975  36.451  34.808   3.088
 1250W        W72976  20.485  23.279   4.729
 1251W        W72977  15.114  21.551  11.130
 1252W        W72978   8.441   1.803  13.632
 1253W        W72979  15.756   4.078  11.644
 1254W        W72980  23.462  10.377   3.097
 1255W        W72981  35.812  14.127   1.295
 1256W        W72982  32.192  19.743  14.459
 1257W        W72983  43.493  25.650  12.367
 1258W        W72984  17.998   7.701  12.554
 1259W        W72985  23.394   4.875   0.685
 1260W        W72986  30.199  37.934  11.642
 1261W        W72987   8.195   5.688  10.163
 1262W        W72988  17.275  33.681   3.899
 1263W        W72989  30.522  20.820   3.293
 1264W        W72990  15.947   5.044   0.104
 1265W        W72991   8.308  13.098  14.416
 1266W        W72992  24.622   1.138   9.797
 1267W        W72993  12.156   7.351   4.286
 1268W        W72994   9.195  36.573  10.606
 1269W        W72995   6.132  27.457   2.601
 1270W        W72996   8.738  36.575  11.910
 1271W        W72997  29.657  42.485   3.562
 1272W        W72998  13.311  35.927  13.035
 1273W        W72999  22.590  30.899  11.612
 1274W        W73000   8.290  13.370  13.941
 1275W        W73001   1.317  29.931  10.688
 1276W        W73002  20.031  41.604  13.962
 1277W        W73003   7.310  35.443   2.014
 1278W        W73004  12.091  28.937   1.332
 1279W        W73005  20.823   6.205  12.909
 1280W        W73006  24.981  20.277  10.756
 1281W        W73007   2.581  30.079   4.759
 1282W        W73008  17.246   4.873   0.358
 1283W        W73009   9.410  41.870  13.359
 1284W        W73010  41.729   4.367   2.727
 1285W        W73011  34.108  11.137   0.749
 1286W        W73012  23.698  38.926  13.211
 1287W        W73013  19.967  15.401  12.092
 1288W        W73014  19.119  27.623  13.901
 1289W        W73015   3.645  16.399   4.273
 1290W        W73016  34.588  10.287   2.351
 1291W        W73017  11.717   6.746   2.661
 1292W        W73018  41.067   1.895  12.060
 1293W        W73019  36.619  20.839   1.214
 1294W        W73020  16.887  30.134   3.851
 1295W        W73021  32.534  17.584  11.350
 1296W        W73022  23.257  34.025  13.420
 1297W        W73023  30.775  25.686   4.580
 1298W        W73024   7.400  22.135  13.312
 1299W        W73025  12.928  43.291  14.031
 1300W        W73026  29.610   4.004  12.582
 1301W        W73027  39.605   3.990   1.409
 1302W        W73028  39.512  14.776   4.447
 1303W        W73029   8.724   6.092  10.665
 1304W        W73030  28.686  36.026   2.874
 1305W        W73031  18.075  37.387  11.040
 1306W        W73032   1.811  17.659  14.411
 1307W        W73033  14.087  10.860   0.809
 1308W        W73034  10.237  31.253   3.614
 1309W        W73035  36.360  17.051  14.959
 1310W        W73036  31.854   3.247   4.551
 1311W        W73037  33.052  15.307   3.780
 1312W        W73038   8.364  43.868   4.988
 1313W        W73039  24.107  41.043   2.790
 1314W        W73040  26.617  27.707   4.507
 1315W        W73041   8.256  25.534   0.926
 1316W        W73042  15.601  20.656   4.999
 1317W        W73043  20.495  26.147   1.771
 1318W        W73044   3.304  20.060  12.431
 1319W        W73045  20.961  30.925   4.610
 1320W        W73046   2.594   8.615  14.707
 1321W        W73047  16.010  22.569   4.592
 1322W        W73048  27.023   0.197  12.025
 1323W        W73049  31.248  25.546  12.400
 1324W        W73050   4.921  43.387   2.232
 1325W        W73051  35.372  30.117   2.915
 1326W        W73052  19.041   8.772  12.045
 1327W        W73053  30.903  10.320  14.541
 1328W        W73054  22.992   0.744   2.316
 1329W        W73055   6.870   1.725  11.175
 1330W        W73056   0.790  31.239   1.731
 1331W        W73057   1.726  25.233   1.319
 1332W        W73058  23.095  32.086   1.001
 1333W        W73059   4.296  40.171  12.811
 1334W        W73060   7.369  14.189  13.030
 1335W        W73061   4.405  22.874  12.702
 1336W        W73062  43.301  28.503   0.673
 1337W        W73063   9.754  23.997   0.470
 1338W        W73064  18.744  37.837  10.400
 1339W        W73065  23.052  19.969   3.892
 1340W        W73066   5.164  22.428  12.051
 1341W        W73067  16.831   6.250  14.816
 1342W        W73068  12.241  31.036   4.661
 1343W        W73069   4.660   1.532   4.514
 1344W        W73070  25.773  15.186   4.269
 1345W        W73071  31.090  34.007   0.868
 1346W        W73072  14.765   1.409  10.736
 1347W        W73073   8.850  32.376  10.308
 1348W        W73074   2.453  35.320  10.722
 1349W        W73075  16.269   8.236   3.334
 1350W        W73076  38.992  40.457  13.378
 1351W        W73077  42.444  32.019  13.787
 1352W        W73078  26.516  23.564  14.166
 1353W        W73079   9.039  32.151   1.405
 1354W        W73080  25.179  14.317   1.320
 1355W        W73081   3.043  34.347   0.030
 1356W        W73082  31.903  26.796   3.284
 1357W        W73083  22.978  26.582  11.518
 1358W        W73084  21.111  24.806   0.855
 1359W        W73085  20.263   7.712  14.836
 1360W        W73086  15.279  16.834   3.418
 1361W        W73087  12.336  31.095  10.574
 1362W        W73088   7.665  15.062   2.032
 1363W        W73089  43.121  32.746  11.690
 1364W        W73090  31.188   3.527  13.302
 1365W        W73091  25.157   2.060   2.797
 1366W        W73092  34.091   3.115  14.864
 1367W        W73093   1.041  17.767   3.671
 1368W        W73094   0.363   6.977  14.255
 1369W        W73095  13.304  11.399   2.636
 1370W        W73096  22.267  34.498  11.546
 1371W        W73097  19.604  41.092  14.526
 1372W        W73098  20.315   1.890  10.088
 1373W        W73099  14.891  12.498   2.448
 1374W        W73100   5.207  11.674   0.896
 1375W        W73101  10.979  14.404   0.824
 1376W        W73102  16.067  14.179   4.779
 1377W        W73103   8.135  22.762  12.160
 1378W        W73104   4.712  20.278  11.088
 1379W        W73105  15.980  33.048  12.478
 1380W        W73106  34.155   9.098   4.210
 1381W        W73107  22.979  23.529   1.905
 1382W        W73108  30.121   8.452   1.888
 1383W        W73109   3.703   0.241   4.609
 1384W        W73110  34.047  40.787  13.586
 1385W        W73111  35.291  44.205  13.221
 1386W        W73112  36.826  18.573   2.227
 1387W        W73113   6.765  39.670   0.303
 1388W        W73114  36.956   7.422  14.784
 1389W        W73115  30.502  11.917   4.652
 1390W        W73116  29.117  20.009   2.322
 1391W        W73117  14.523  33.038   2.245
 1392W        W73118  18.638  25.997   4.631
 1393W        W73119  29.444  10.618  11.264
 1394W        W73120  35.621  13.668   0.054
 1395W        W73121   4.732  17.136   2.561
 1396W        W73122  22.389   0.077   2.187
 1397W        W73123   2.520  11.065   2.211
 1398W        W73124  43.231  27.407   4.557
 1399W        W73125  31.601  28.168  12.099
 1400W        W73126   4.012   6.844   5.360
 1401W        W73127  30.446  41.926  12.757
 1402W        W73128  30.705  32.027   0.772
 1403W        W73129  32.201  28.151  13.759
 1404W        W73130   3.626  41.586  12.789
 1405W        W73131   7.434  29.121  14.539
 1406W        W73132   1.279  36.578  14.425
 1407W        W73133  26.040  31.073   4.683
 1408W        W73134  23.969   3.200  10.163
 1409W        W73135  24.871  10.030   2.713
 1410W        W73136  18.014  14.398   1.866
 1411W        W73137  13.329  32.210   4.144
 1412W        W73138  19.794  35.076   0.698
 1413W        W73139  21.522  38.726   4.203
 1414W        W73140  22.066   3.379  13.609
 1415W        W73141  24.985  20.140  11.640
 1416W        W73142  11.294   8.172   0.241
 1417W        W73143  23.150   1.312  14.527
 1418W        W73144  37.031  17.637  13.813
 1419W        W73145   3.418  38.338   3.292
 1420W        W73146   2.263  18.585  12.631
 1421W        W73147  33.824  33.753   1.366
 1422W        W73148  44.578  22.452  12.507
 1423W        W73149  37.875  30.178  12.520
 1424W        W73150  17.318  41.574  12.453
 1425W        W73151   4.432  28.666  12.849
 1426W        W73152  13.355  42.323   0.956
 1427W        W73153  25.578  29.727   1.162
 1428W        W73154  29.108  44.411   0.998
 1429W        W73155  32.684  15.811   1.764
 1430W        W73156  39.592  30.409   0.732
 1431W        W73157  11.543  14.814   4.293
 1432W        W73158  33.633   3.440  11.997
 1433W        W73159  29.914  44.064   2.843
 1434W        W73160  23.519  30.597   3.101
 1435W        W73161  21.064  42.520   3.801
 1436W        W73162   7.904  34.547   2.220
 1437W        W73163  32.857  16.717   3.097
 1438W        W73164  36.539  40.463   1.333
 1439W        W73165  35.941  40.964  14.785
 1440W        W73166   9.693  34.461  13.178
 1441W        W73167  39.064  21.076   0.500
 1442W        W73168  10.562  40.446   2.003
 1443W        W73169  19.566  13.285  14.152
 1444W        W73170  23.335  25.191  12.061
 1445W        W73171  22.658  22.563  10.202
 1446W        W73172  25.029  31.231   4.275
 1447W        W73173  35.538  32.850  14.830
 1448W        W73174  31.950  23.665   0.992
 1449W        W73175   8.935  11.380   0.942
 1450W        W73176  20.322  41.801  13.022
 1451W        W73177  31.457  14.301  10.667
 1452W        W73178   1.352   7.418   4.253
 1453W        W73179  34.445  12.374   1.947
 1454W        W73180  39.344  39.849   0.876
 1455W        W73181  42.462  28.181  14.926
 1456W        W73182  16.678  26.257   1.055
 1457W        W73183  39.107   1.522   1.752
 1458W        W73184   3.499  16.624   2.806
 1459W        W73185  18.562  17.148  11.580
 1460W        W73186  37.317  18.069  12.967
 1461W        W73187  16.563  27.651   1.431
 1462W        W73188  36.843  40.808  12.025
 1463W        W73189  31.575   4.844  12.964
 1464W        W73190  12.722   0.233   3.997
 1465W        W73191  25.394  37.967   0.939
 1466W        W73192  32.589  33.247   4.493
 1467W        W73193   9.292  27.523   1.307
 1468W        W73194   5.492  13.782  10.621
 1469W        W73195   9.757   2.791  12.618
 1470W        W73196  15.497  36.958  11.602
 1471W        W73197   6.481   3.891   3.333
 1472W        W73198  11.015  11.934  13.793
 1473W        W73199  44.753  29.080  12.113
 1474W        W73200  38.211  34.027  10.985
 1475W        W73201  43.778  10.485   4.531
 1476W        W73202  32.465   2.944   1.343
 1477W        W73203  43.388  13.917   4.568
 1478W        W73204  37.265  43.302  14.175
 1479W        W73205   0.787  37.776   4.319
 1480W        W73206  39.854  20.303   1.306
 1481W        W73207  19.818  39.337   2.229
 1482W        W73208  27.207  44.019  13.026
 1483W        W73209  28.566  35.100   2.881
 1484W        W73210  37.646   6.211  14.294
 1485W        W73211   7.701  43.334  10.736
 1486W        W73212  11.741  13.082   2.739
 1487W        W73213  38.424   0.906   1.768
 1488W        W73214  12.330  38.100   4.495
 1489W        W73215   5.618   2.694   2.768
 1490W        W73216   7.184   4.840   5.400
 1491W        W73217   6.059  15.580  11.869
 1492W        W73218  14.236   7.694  13.809
 1493W        W73219  16.112  29.653   2.653
 1494W        W73220  24.625  14.271   1.815
 1495W        W73221  40.089  41.302   2.143
 1496W        W73222  22.070  39.996   2.617
 1497W        W73223  33.631   2.728   0.568
 1498W        W73224   5.811  34.498   0.469
 1499W        W73225  28.957  20.460  13.672
 1500W        W73226  25.602  16.361   2.678
 1501W        W73227  32.471  12.948  10.652
 1502W        W73228   9.253  29.555  14.368
 1503W        W73229  35.994  38.347  13.444
 1504W        W73230  20.045  26.819  10.900
 1505W        W73231   2.773  14.230   0.150
 1506W        W73232   7.807  30.067  10.691
 1507W        W73233   1.600  28.106  13.404
 1508W        W73234  34.060  43.210   1.889
 1509W        W73235  34.988   5.654  14.891
 1510W        W73236   0.264  17.371  13.608
 1511W        W73237  26.513  34.437  10.547
 1512W        W73238  27.120   0.411   1.036
 1513W        W73239  43.341   7.084   4.380
 1514W        W73240  22.227  29.104  13.474
 1515W        W73241  34.427  41.506  11.089
 1516W        W73242  29.109  16.141   3.682
 1517W        W73243  15.745  23.770   4.822
 1518W        W73244  42.614  32.667  11.587
 1519W        W73245  40.890   0.043   1.216
 1520W        W73246   5.486  17.149  13.339
 1521W        W73247  29.499  37.765   0.522
 1522W        W73248  13.601  42.793  13.876
 1523W        W73249  30.976   7.337  11.526
 1524W        W73250  42.451  43.395  12.301
 1525W        W73251  23.478  27.042  13.545
 1526W        W73252   3.930  11.929   0.649
 1527W        W73253  17.974  35.514   4.922
 1528W        W73254   3.204   8.820   2.141
 1529W        W73255  21.826  43.896   4.544
 1530W        W73256  30.027  40.480  14.972
 1531W        W73257  35.486  42.608  11.139
 1532W        W73258  15.657  24.398  11.878
 1533W        W73259  39.533  44.493   0.437
 1534W        W73260  31.119  23.715  14.387
 1535W        W73261  15.890  35.931   3.415
 1536W        W73262  15.274  43.498   1.188
 1537W        W73263  19.986   6.572   2.232
 1538W        W73264  25.672   5.550   2.252
 1539W        W73265  11.603  39.997  14.869
 1540W        W73266  33.878   5.272  11.993
 1541W        W73267  43.683   0.421   1.259
 1542W        W73268  13.663  12.118  12.525
 1543W        W73269   5.735  27.233   3.350
 1544W        W73270   1.409  34.557  14.325
 1545W        W73271   8.919  12.702  12.168
 1546W        W73272  27.562  25.817  13.466
 1547W        W73273  17.190  43.441  10.697
 1548W        W73274   7.778  37.498  14.416
 1549W        W73275  15.226   4.396  13.530
 1550W        W73276  25.121   0.905  13.489
 1551W        W73277   4.509  28.873  13.320
 1552W        W73278  25.269  11.677  11.028
 1553W        W73279  39.508   8.269  12.178
 1554W        W73280  24.081  27.466   0.988
 1555W        W73281  37.844   0.301  14.332
 1556W        W73282   2.534  33.476   3.615
 1557W        W73283  36.896  27.957  11.624
 1558W        W73284  22.121  28.729   0.299
 1559W        W73285  21.417  20.545  13.870
 1560W        W73286  23.682  14.028   0.242
 1561W        W73287  36.348  24.777  13.595
 1562W        W73288  17.858  37.535  12.357
 1563W        W73289  36.997   7.505   4.251
 1564W        W73290  18.483  20.985  12.451
 1565W        W73291  16.894   7.113   3.992
 1566W        W73292   6.852  16.322   2.800
 1567W        W73293  20.555  10.867   4.071
 1568W        W73294  18.297   1.119   2.073
 1569W        W73295  22.991  17.626   0.411
 1570W        W73296   1.695   9.076  11.851
 1571W        W73297  44.341   7.096   3.365
 1572W        W73298  22.682   2.919  10.979
 1573W        W73299   7.655  12.689  13.822
 1574W        W73300  24.660  18.283  11.624
 1575W        W73301  14.122   9.790   2.786
 1576W        W73302  37.585   5.327   0.191
 1577W        W73303  42.285  35.316  11.920
 1578W        W73304   2.748  40.518  11.609
 1579W        W73305  30.265   6.999   2.366
 1580W        W73306  30.061  13.473  12.091
 1581W        W73307   8.441  24.646  14.530
 1582W        W73308  22.292  44.520   1.495
 1583W        W73309  42.433  23.715   2.854
 1584W        W73310   2.733  19.604   2.406
 1585W        W73311  26.145  34.840  14.927
 1586W        W73312  39.442  24.089  14.024
 1587W        W73313  24.091  37.053   4.769
 1588W        W73314  19.970   3.009  11.127
 1589W        W73315  41.517  15.701   0.610
 1590W        W73316  10.025  22.734   3.241
 1591W        W73317   6.913   3.163  14.099
 1592W        W73318  44.908   4.228   3.200
 1593W        W73319  25.682  28.330  14.539
 1594W        W73320  40.930  32.081   2.405
 1595W        W73321  25.730  38.080  13.152
 1596W        W73322  39.965  38.819  13.445
 1597W        W73323  40.556  31.580   0.887
 1598W        W73324  16.681  29.513   0.878
 1599W        W73325  25.882  19.557   3.669
 1600W        W73326  30.934  27.135   0.198
 1601W        W73327  18.273  27.529   3.177
 1602W        W73328  13.268  17.192   0.901
 1603W        W73329  25.184  37.139  14.355
 1604W        W73330  13.554  33.587  11.364
 1605W        W73331   3.450   4.798   3.241
 1606W        W73332  27.139  29.585  13.944
 1607W        W73333  17.025   8.211   0.922
 1608W        W73334   5.245  28.479   3.011
 1609W        W73335  22.870  41.560  13.112
 1610W        W73336  31.432  20.635   3.832
 1611W        W73337  25.719  39.826   2.127
 1612W        W73338  26.640  24.066  11.608
 1613W        W73339  10.924  13.727  14.921
 1614W        W73340  41.313  13.742  12.626
 1615W        W73341  19.245  13.731   0.378
 1616W        W73342  37.362   5.673  13.413
 1617W        W73343  37.293   9.966   0.410
 1618W        W73344  27.257  39.434  10.553
 1619W        W73345  35.091  13.695   1.444
 1620W        W73346  41.579  31.536  14.903
 1621W        W73347  35.176  19.255   4.573
 1622W        W73348  26.583  36.017  13.300
 1623W        W73349  18.001   5.923  13.033
 1624W        W73350  36.301  18.189  12.009
 1625W        W73351   1.278  42.100   0.259
 1626W        W73352  39.357  33.778  12.291
 1627W        W73353  32.900  22.600  12.952
 1628W        W73354  44.571  33.105   3.596
 1629W        W73355  16.029  15.263   1.810
 1630W        W73356  21.987  42.813  12.228
 1631W        W73357  34.005   7.114  14.790
 1632W        W73358   2.755  17.665  12.153
 1633W        W73359  39.578  15.162   3.293
 1634W        W73360  32.903  14.682   1.391
 1635W        W73361  21.302  11.929   2.834
 1636W        W73362  37.582  34.748  13.362
 1637W        W73363  15.849  17.603  14.500
 1638W        W73364  19.673  31.851   4.006
 1639W        W73365  37.563  19.947   3.881
 1640W        W73366  18.043  24.047   2.113
 1641W        W73367  40.997  41.478   1.340
 1642W        W73368  24.063   1.045  12.432
 1643W        W73369   9.695   1.003   0.895
 1644W        W73370  35.261  26.022   3.296
 1645W        W73371  44.937  30.649  10.590
 1646W        W73372  27.642  23.516  10.594
 1647W        W73373   8.138  18.099   1.810
 1648W        W73374  31.834  38.144  11.059
 1649W        W73375  38.898  33.993   4.365
 1650W        W73376  35.405  39.782   3.103
 1651W        W73377  20.877   2.836   2.684
 1652W        W73378  23.705  20.003   2.228
 1653W        W73379   1.205  21.170   2.451
 1654W        W73380  30.879  16.086   3.686
 1655W        W73381  43.717  16.641  14.472
 1656W        W73382  36.479   0.410   4.189
 1657W        W73383  34.899  24.985  10.256
 1658W        W73384   7.073  40.647  11.134
 1659W        W73385  20.172  14.531   2.950
 1660W        W73386  31.717  43.237   3.057
 1661W        W73387  10.690  24.770   1.329
 1662W        W73388  28.167  26.625  11.426
 1663W        W73389  44.484  20.474  12.408
 1664W        W73390  35.315   9.952   1.698
 1665W        W73391  37.579  21.564   3.319
 1666W        W73392  15.839   9.628   1.289
 1667W        W73393  10.827  13.096  14.422
 1668W        W73394   8.210  42.937  13.333
 1669W        W73395  41.851   7.428   0.417
 1670W        W73396  31.037  40.469   3.619
 1671W        W73397  11.098  10.935   4.091
 1672W        W73398  15.711  32.390   1.707
 1673W        W73399   5.164  43.850  11.954
 1674W        W73400  19.229   6.796   4.263
 1675W        W73401   3.441  27.863  10.816
 1676W        W73402  38.928  32.085  10.654
 1677W        W73403  42.020   0.471  11.382
 1678W        W73404   5.355  25.609   3.644
 1679W        W73405   6.534  29.026  11.764
 1680W        W73406   9.820   9.336  13.837
 1681W        W73407  23.955   2.233   3.723
 1682W        W73408  14.219   1.488  10.850
 1683W        W73409  31.106  29.818  11.907
 1684W        W73410  34.435  44.696   2.421
 1685W        W73411  43.480  26.246   1.274
 1686W        W73412  19.728  29.639  14.554
 1687W        W73413  28.368  43.903   0.909
 1688W        W73414   8.251  29.475  12.431
 1689W        W73415  15.093   9.372   0.708
 1690W        W73416  22.613   5.373   0.402
 1691W        W73417   8.464  23.695  14.764
 1692W        W73418  23.209   1.140   1.164
 1693W        W73419  24.032   7.930  10.991
 1694W        W73420  33.580  36.119  13.538
 1695W        W73421  29.873   3.595   2.946
 1696W        W73422  37.366  30.102   2.180
 1697W        W73423  20.014  39.819   1.244
 1698W        W73424   8.307  35.630   0.445
 1699W        W73425  35.447  22.754   1.937
 1700W        W73426  29.356  19.799  12.014
 1701W        W73427  22.902  35.628   4.098
 1702W        W73428  35.656  17.500   4.212
 1703W        W73429  42.394  27.980   3.305
 1704W        W73430  12.396  37.945  14.075
 1705W        W73431  21.740  10.836  14.386
 1706W        W73432  19.081  37.489  10.676
 1707W        W73433  23.938   1.977  11.639
 1708W        W73434  13.644  21.677  14.474
 1709W        W73435   8.249  33.632   0.995
 1710W        W73436  39.564  38.046   4.212
 1711W        W73437  44.389  28.484  14.663
 1712W        W73438  38.541  18.712   0.348
 1713W        W73439  22.342  15.017   1.924
 1714W        W73440  22.491  12.109  10.949
 1715W        W73441   4.778  36.675  12.316
 1716W        W73442   6.343  29.891  12.164
 1717W        W73443  31.065  13.148  13.267
 1718W        W73444  10.782  37.846  10.591
 1719W        W73445   7.483   7.732  11.930
 1720W        W73446  28.196  18.783  11.622
 1721W        W73447  14.760  17.929   2.760
 1722W        W73448  24.828  16.888  12.846
 1723W        W73449  26.860   1.842   0.437
 1724W        W73450  26.501  39.156   0.765
 1725W        W73451  42.706  32.991   3.238
 1726W        W73452  15.814  22.066  10.586
 1727W        W73453   3.420  22.809  11.195
 1728W        W73454  21.902  38.783  12.059
 1729W        W73455  12.082  21.636  14.505
 1730W        W73456   8.228  42.265   3.951
 1731W        W73457   6.989  18.078   2.942
 1732W        W73458  26.793  43.212   3.534
 1733W        W73459   6.593  29.154   1.333
 1734W        W73460  22.080  15.323  14.090
 1735W        W73461  32.683  35.037   4.719
 1736W        W73462  21.171  20.476  11.122
 1737W        W73463  10.213  34.077   3.390
 1738W        W73464  21.747  22.798   4.572
 1739W        W73465   0.810  26.294  13.564
 1740W        W73466  36.010  37.194   1.322
 1741W        W73467  10.052   0.685   0.665
 1742W        W73468  19.093  35.854   2.547
 1743W        W73469  40.818  23.290  12.079
 1744W        W73470   1.728  28.083  14.934
 1745W        W73471  18.981   1.887  10.862
 1746W        W73472   3.900  36.925  14.364
 1747W        W73473  11.455  27.747   2.927
 1748W        W73474   9.811  16.192  13.126
 1749W        W73475  19.198   2.013   3.318
 1750W        W73476   5.207  20.103  13.900
 1751W        W73477  40.411   5.199   1.334
 1752W        W73478  32.388  34.413  12.010
 1753W        W73479  17.797  22.641   4.328
 1754W        W73480  40.925  34.184  11.071
 1755W        W73481  36.923   3.976  10.966
 1756W        W73482  23.507  35.253  13.978
 1757W        W73483  20.520  38.933   4.071
 1758W        W73484  44.912  38.503  10.413
 1759W        W73485   5.379   3.444   5.039
 1760W        W73486  10.622  17.093   2.360
 1761W        W73487   1.893  11.630   4.140
 1762W        W73488  17.665  10.850   0.571
 1763W        W73489  38.944  12.110   1.281
 1764W        W73490  35.947  28.194  11.964
 1765W        W73491  32.399  15.868   4.157
 1766W        W73492  39.286   0.414  12.074
 1767W        W73493  19.382   8.537   0.407
 1768W        W73494  14.796   0.723  14.709
 1769W        W73495  36.988  11.143  11.638
 1770W        W73496  10.558  39.805   4.138
 1771W        W73497  21.991  29.887   2.762
 1772W        W73498  42.489  27.963  12.671
 1773W        W73499   6.815  16.760  10.983
 1774W        W73500   1.975  42.385   4.255
 1775W        W73501  40.434   9.628   2.279
 1776W        W73502  12.257  15.842  10.349
 1777W        W73503  33.682   2.531  11.095
 1778W        W73504  24.162   7.958   1.407
 1779W        W73505  16.771  28.938   1.738
 1780W        W73506  24.994  42.305  10.540
 1781W        W73507  42.949   9.202   3.999
 1782W        W73508  15.828  10.280  11.202
 1783W        W73509  22.991  21.258  13.836
 1784W        W73510  35.670   8.149   4.168
 1785W        W73511  28.320  20.546   0.593
 1786W        W73512  13.228  10.415   1.574
 1787W        W73513  26.888  10.092   1.979
 1788W        W73514   1.349  17.218  11.671
 1789W        W73515  38.959  40.287   1.348
 1790W        W73516  17.785  39.543  13.290
 1791W        W73517  10.676  23.260  11.502
 1792W        W73518  21.968  29.396   0.805
 1793W        W73519  38.349  12.315   0.331
 1794W        W73520  10.640   9.364  13.495
 1795W        W73521   3.461  33.378  13.799
 1796W        W73522  15.523  11.076   3.304
 1797W        W73523  14.187  26.490  14.018
 1798W        W73524  25.973  29.923   0.263
 1799W        W73525  37.660  36.415  10.559
 1800W        W73526  11.240  34.603  11.881
 1801W        W73527   2.234   7.411   4.014
 1802W        W73528  20.270  27.155  14.524
 1803W        W73529  43.343  23.671  13.874
 1804W        W73530  25.312  39.551  13.558
 1805W        W73531  43.935  16.326   1.249
 1806W        W73532  24.680  24.774  11.937
 1807W        W73533   9.269  12.617   3.822
 1808W        W73534  24.672  14.251  11.880
 1809W        W73535  16.706  40.333   3.271
 1810W        W73536   5.540  30.467  10.635
 1811W        W73537  16.202  31.026   2.408
 1812W        W73538  15.664  12.154  11.135
 1813W        W73539   5.784  22.052  11.536
 1814W        W73540  33.810  38.830   2.793
 1815W        W73541  41.961  11.643  11.036
 1816W        W73542  30.033  34.413  11.429
 1817W        W73543   7.321   4.258   2.203
 1818W        W73544  22.761  35.539   3.602
 1819W        W73545  21.706   4.916  11.648
 1820W        W73546  13.560   0.575  13.942
 1821W        W73547   9.130  36.151   3.677
 1822W        W73548  41.255  39.683   4.473
 1823W        W73549  19.297  37.019  10.615
 1824W        W73550  36.333  44.356   2.575
 1825W        W73551  20.137  40.015   2.884
 1826W        W73552   9.539  40.740  14.416
 1827W        W73553  37.405  17.806   2.254
 1828W        W73554  38.280  13.804   0.733
 1829W        W73555   6.731  20.669   2.736
 1830W        W73556  37.085  25.734   1.221
 1831W        W73557  44.226   9.483  11.195
 1832W        W73558  44.521  36.101  13.548
 1833W        W73559  23.905  28.955  13.870
 1834W        W73560  34.393  17.773  12.563
 1835W        W73561  44.361  20.408   2.655
 1836W        W73562  31.057  10.880  11.068
 1837W        W73563  18.277  43.850  12.976
 1838W        W73564  13.586  20.868   1.016
 1839W        W73565  36.793  14.222  13.689
 1840W        W73566  31.349  25.507  11.534
 1841W        W73567  25.033  26.632  14.836
 1842W        W73568  27.895  34.039  12.991
 1843W        W73569  17.211  39.995   2.781
 1844W        W73570  20.513  40.092  14.455
 1845W        W73571  18.494  28.682  13.786
 1846W        W73572  17.169  16.881  14.372
 1847W        W73573  40.354  21.273   3.195
 1848W        W73574  35.457  10.590  13.576
 1849W        W73575  18.260  27.514  12.088
 1850W        W73576   1.461  33.970  11.891
 1851W        W73577   6.439  18.060  11.910
 1852W        W73578   0.927  28.702   0.017
 1853W        W73579  29.634  43.208   4.158
 1854W        W73580  16.786  42.777  14.763
 1855W        W73581  42.393  39.583   3.993
 1856W        W73582   2.677  13.246   2.631
 1857W        W73583  38.941   0.667  13.328
 1858W        W73584  36.899  31.448   4.509
 1859W        W73585  10.041  35.058  10.301
 1860W        W73586  31.002  40.622   1.294
 1861W        W73587  32.560   9.824   0.162
 1862W        W73588  42.066   3.973  11.112
 1863W        W73589  37.376  11.621  12.444
 1864W        W73590  17.608   1.543  14.331
 1865W        W73591  39.065  37.048  12.516
 1866W        W73592  24.933  21.620   1.590
 1867W        W73593  14.151  31.567   1.967
 1868W        W73594   2.082  28.668   3.083
 1869W        W73595  15.880  19.799   0.775
 1870W        W73596  38.942  35.741   3.829
 1871W        W73597  32.213  22.153   2.216
 1872W        W73598  14.412   2.299   1.978
 1873W        W73599   7.103  38.047  11.726
 1874W        W73600  33.077  42.530  10.990
 1875W        W73601  44.967  10.885  13.717
 1876W        W73602  39.650  18.688   2.310
 1877W        W73603  21.734  28.715   3.812
 1878W        W73604  27.200  37.528   1.720
 1879W        W73605  22.137  20.620   4.409
 1880W        W73606  35.863  21.468   3.517
 1881W        W73607  41.251  34.358   3.359
 1882W        W73608   3.038  38.864  13.174
 1883W        W73609  40.364  31.572  13.691
 1884W        W73610  24.185  30.965  12.171
 1885W        W73611  42.496  20.283  13.958
 1886W        W73612  28.104   0.984  13.039
 1887W        W73613  33.570   9.320   3.535
 1888W        W73614  38.467  27.459   3.814
 1889W        W73615   7.582  10.518  12.993
 1890W        W73616  19.660  30.848   3.066
 1891W        W73617  13.070   3.002   4.142
 1892W        W73618  29.046  40.930  11.254
 1893W        W73619   7.228  17.580  14.508
 1894W        W73620   8.396  15.522   3.148
 1895W        W73621  20.290   0.215  11.078
 1896W        W73622  30.982  23.002  14.592
 1897W        W73623   5.839  41.741  10.533
 1898W        W73624   8.045  43.818  12.537
 1899W        W73625   9.212  15.606   1.555
 1900W        W73626  15.330  11.572  13.771
 1901W        W73627  27.775   0.484  13.959
 1902W        W73628  33.188  20.084   1.764
 1903W        W73629  22.313   8.873   1.377
 1904W        W73630  19.891  27.188  11.224
 1905W        W73631  40.260  18.074   1.283
 1906W        W73632  10.297  34.287  10.171
 1907W        W73633  24.101  30.564  10.643
 1908W        W73634  37.496   8.136  14.899
 1909W        W73635  32.931   6.456   4.259
 1910W        W73636  36.033  18.320   3.562
 1911W        W73637  30.125  15.140  11.668
 1912W        W73638  35.153  39.234  10.295
 1913W        W73639  22.253  19.827  11.232
 1914W        W73640  43.318  19.493  11.999
 1915W        W73641  43.856  43.794  12.545
 1916W        W73642  18.684   2.021   1.724
 1917W        W73643  16.376   6.330  11.202
 1918W        W73644  38.502   3.063   0.970
 1919W        W73645  14.156  10.746  14.773
 1920W        W73646  32.051  24.004   4.676
 1921W        W73647  18.658   0.353   3.525
 1922W        W73648  24.356  37.499  10.384
 1923W        W73649  42.088  27.164  11.097
 1924W        W73650  30.004  20.915   2.714
 1925W        W73651  13.684  32.395  13.231
 1926W        W73652   7.464  13.943  10.921
 1927W        W73653   7.654  20.907   0.816
 1928W        W73654  32.111  31.175  13.054
 1929W        W73655   3.412  19.676   1.782
 1930W        W73656  31.046  24.680  13.265
 1931W        W73657  16.519   8.294  11.458
 1932W        W73658  33.563  12.808   0.932
 1933W        W73659  13.401  41.080  14.095
 1934W        W73660  42.194  31.389  11.035
 1935W        W73661  30.423  41.449   2.638
 1936W        W73662   3.406  25.548   3.209
 1937W        W73663  40.794   6.601  11.975
 1938W        W73664  36.971  44.781  12.991
 1939W        W73665  23.532  21.882   1.424
 1940W        W73666  15.666   4.261   4.435
 1941W        W73667  34.146   6.838   4.438
 1942W        W73668  36.002  40.334   4.594
 1943W        W73669  17.465   9.734   0.920
 1944W        W73670  40.357  33.247   0.688
 1945W        W73671  18.088  34.732  11.234
 1946W        W73672  12.793   3.688   0.846
 1947W        W73673  38.100  34.575   4.540
 1948W        W73674  22.910  26.526   5.051
 1949W        W73675  12.879  29.527  10.645
 1950W        W73676  42.011  30.335  13.360
 1951W        W73677   4.921   1.046  13.311
 1952W        W73678  11.462  36.881  12.932
 1953W        W73679  33.142  43.811   4.946
 1954W        W73680  17.664  12.069  14.459
 1955W        W73681  38.354  29.076   2.203
 1956W        W73682  10.697  28.068  10.434
 1957W        W73683  21.147   8.135   1.196
 1958W        W73684  33.240   7.412   2.942
 1959W        W73685   9.522  12.406  11.081
 1960W        W73686  34.661  42.594   4.228
 1961W        W73687  34.312  38.420  12.892
 1962W        W73688   4.258   3.786  12.429
 1963W        W73689  18.101   4.898  11.196
 1964W        W73690  21.527   3.766   4.055
 1965W        W73691   8.294  37.130  13.538
 1966W        W73692   8.109  19.055  14.760
 1967W        W73693  36.718   4.677   0.856
 1968W        W73694   1.357  35.690  11.608
 1969W        W73695  11.801  24.899  12.051
 1970W        W73696  43.526  41.877   4.802
 1971W        W73697  12.794  42.339  11.931
 1972W        W73698  19.226  10.762  14.306
 1973W        W73699   6.896  23.503  12.486
 1974W        W73700  12.718  30.052   4.169
 1975W        W73701  11.680  44.095   3.326
 1976W        W73702  26.946   2.260  13.804
 1977W        W73703  24.483   0.831   4.985
 1978W        W73704   9.295  20.686  13.432
 1979W        W73705  16.877  41.299   2.973
 1980W        W73706   5.494  39.251  13.414
 1981W        W73707  12.773   0.768   3.707
 1982W        W73708  19.295  17.147   2.924
 1983W        W73709  42.906   3.872  12.490
 1984W        W73710  12.276   2.803  12.113
 1985W        W73711   6.250  25.066   1.314
 1986W        W73712  28.463  26.002   0.292
 1987W        W73713  21.984  28.644   3.290
 1988W        W73714  42.937  23.096  12.628
 1989W        W73715  35.595  42.988   4.486
 1990W        W73716   8.366  26.641   2.764
 1991W        W73717  44.706  38.572  14.765
 1992W        W73718  27.422  36.785  14.140
 1993W        W73719   7.104  30.346  14.411
 1994W        W73720  40.777   7.285   2.793
 1995W        W73721  18.628  11.117  11.669
 1996W        W73722  24.978  24.857   2.122
 1997W        W73723  37.120  13.800  13.792
 1998W        W73724  40.800  22.340  11.723
 1999W        W73725  10.296  39.948   4.988
 2000W        W73726  27.903  39.871  12.023
 2001W        W73727  41.280  31.933  14.022
 2002W        W73728  27.404   2.453  13.716
 2003W        W73729  15.644  16.008   4.583
 2004W        W73730   4.532  38.675  14.324
 2005W        W73731  35.898   8.575  11.328
 2006W        W73732   3.710  20.674   0.491
 2007W        W73733   4.205  40.748  12.899
 2008W        W73734  16.556  33.216  13.828
 2009W        W73735  26.920  29.594  12.022
 2010W        W73736  32.551  31.643  12.415
 2011W        W73737   3.753  39.620  13.133
 2012W        W73738  43.910  34.521   4.341
 2013W        W73739  30.908   0.385  12.609
 2014W        W73740   5.204  32.006  14.729
 2015W        W73741  40.359   3.919  11.065
 2016W        W73742  31.477  40.834  14.535
 2017W        W73743  43.074   5.164   4.652
 2018W        W73744   8.788  35.830   0.350
 2019W        W73745  10.768  14.456   2.209
 2020W        W73746  21.445  30.668   0.418
 2021W        W73747   8.118  23.688   3.217
 2022W        W73748  20.798  20.574  11.476
 2023W        W73749  42.134  41.370  14.609
 2024W        W73750   0.334  44.802  13.445
 2025W        W73751  30.514  33.863  11.983
 2026W        W73752  17.702  43.502   0.800
 2027W        W73753  40.721  17.708   3.104
 2028W        W73754  11.244  42.586  11.117
 2029W        W73755   8.587  14.825  10.489
 2030W        W73756  21.719  43.917  12.938
 2031W        W73757  25.306  13.843   0.748
 2032W        W73758  23.666   8.846  12.898
 2033W        W73759  36.880  34.188  13.869
 2034W        W73760   6.424  42.771   0.754
 2035W        W73761  19.252  27.613   4.823
 2036W        W73762  43.507  36.034   2.390
 2037W        W73763  27.682  37.803   3.899
 2038W        W73764  44.454  38.107   0.481
 2039W        W73765   5.862  29.656  12.901
 2040W        W73766  24.406  11.194   1.306
 2041W        W73767   1.758   9.337   2.791
 2042W        W73768  41.104   2.195  14.217
 2043W        W73769  17.711  43.746  11.750
 2044W        W73770  25.954   8.859  11.071
 2045W        W73771  39.026   3.800  12.532
 2046W        W73772  21.815   8.733   1.666
 2047W        W73773  32.103  38.911  10.688
 2048W        W73774  38.827  36.556   1.488
 2049W        W73775  29.298  33.518  11.459
 2050W        W73776   9.772  27.605   1.640
 2051W        W73777  20.806  29.679   2.266
 2052W        W73778   8.909  21.159   2.185
 2053W        W73779  10.221  29.466   4.609
 2054W        W73780   2.373  14.875  14.051
 2055W        W73781  40.542  23.510   0.405
 2056W        W73782   9.662  17.613  12.778
 2057W        W73783   9.381  25.606   0.634
 2058W        W73784  17.162  12.755   1.247
 2059W        W73785  36.536  11.824  11.506
 2060W        W73786  44.220  17.639   2.202
 2061W        W73787  21.187  26.994   3.254
 2062W        W73788  31.044   2.539   0.684
 2063W        W73789   6.983  20.038  14.391
 2064W        W73790  42.407  43.465   0.222
 2065W        W73791  21.938  23.475   5.162
 2066W        W73792   9.568   8.422  11.152
 2067W        W73793  31.148  34.414  14.262
 2068W        W73794   2.521   0.723  14.290
 2069W        W73795  36.050   7.396   1.308
 2070W        W73796  27.730  41.641  12.364
 2071W        W73797  44.252  37.512   3.611
 2072W        W73798  24.598  13.407  11.104
 2073W        W73799   3.730   9.142   2.672
 2074W        W73800  35.016   5.651   3.186
 2075W        W73801  10.399  33.814   4.853
 2076W        W73802  21.227   7.870  11.591
 2077W        W73803  34.462   1.702   2.362
 2078W        W73804  37.036  44.979   1.289
 2079W        W73805  27.887  28.063  13.536
 2080W        W73806   7.780   4.717   4.063
 2081W        W73807   2.264   7.363   0.421
 2082W        W73808  42.300   3.340  13.606
 2083W        W73809  18.834  27.482  10.456
 2084W        W73810  38.474  27.288   3.191
 2085W        W73811  28.169  37.421   2.919
 2086W        W73812  38.972   0.758   0.212
 2087W        W73813   7.443  28.393  12.720
 2088W        W73814  43.212  19.039  12.753
 2089W        W73815  41.038  14.725  12.093
 2090W        W73816  29.663  19.738  10.770
 2091W        W73817  33.644   8.735  13.948
 2092W        W73818  16.560   4.611   2.916
 2093W        W73819   8.166  38.965  14.858
 2094W        W73820  28.749  37.564  14.691
 2095W        W73821   1.317   2.516   4.998
 2096W        W73822  10.718   9.457  12.649
 2097W        W73823  27.026  33.007   3.739
 2098W        W73824  39.076  27.839   4.871
 2099W        W73825  29.048  42.905  14.377
 2100W        W73826   9.123  13.994  13.072
 2101W        W73827  20.119  23.297   0.883
 2102W        W73828  19.053  36.560  10.772
 2103W        W73829   3.698  25.752  13.479
 2104W        W73830  29.408  37.665   1.724
 2105W        W73831   4.912  25.263   1.713
 2106W        W73832   9.882   2.797   0.350
 2107W        W73833  17.778   7.365  14.300
 2108W        W73834  38.555  15.672   0.860
 2109W        W73835  15.215  40.509  13.730
 2110W        W73836  28.426  15.570   4.787
 2111W        W73837  28.227  13.187   4.596
 2112W        W73838  22.953  33.441  13.014
 2113W        W73839  20.762  30.425   4.650
 2114W        W73840  26.868  20.556   1.822
 2115W        W73841  25.061  14.522   1.802
 2116W        W73842  21.167  31.071   0.185
 2117W        W73843  24.472  44.912   1.999
 2118W        W73844  18.717  10.097   2.621
 2119W        W73845   1.947  17.335   3.176
 2120W        W73846  18.247  25.472  12.900
 2121W        W73847   5.776  14.603  10.509
 2122W        W73848  44.199  40.105   1.430
 2123W        W73849   5.760  29.907  11.556
 2124W        W73850  36.506   8.098  10.462
 2125W        W73851  21.805  18.695  11.882
 2126W        W73852  13.296   7.791  13.419
 2127W        W73853  26.548  10.361  10.311
 2128W        W73854  27.000   3.377  12.840
 2129W        W73855  41.887  19.817  12.670
 2130W        W73856   0.801  42.528  12.073
 2131W        W73857  28.813   9.234  13.109
 2132W        W73858  11.434  24.077   2.032
 2133W        W73859  18.317  26.078   2.364
 2134W        W73860   3.269  43.501   4.516
 2135W        W73861  15.381   0.549  12.059
 2136W        W73862   6.040  18.161   2.843
 2137W        W73863  40.310  41.242  10.277
 2138W        W73864  33.875  11.867  11.209
 2139W        W73865   5.986  13.775   3.562
 2140W        W73866   4.684   1.815   4.085
 2141W        W73867  25.426  43.469  12.814
 2142W        W73868   6.235  33.884  11.645
 2143W        W73869  33.004   7.714  12.147
 2144W        W73870  30.944  19.273  11.645
 2145W        W73871   9.289  11.494  14.291
 2146W        W73872  15.555  43.928  13.124
 2147W        W73873   5.804  34.657  10.636
 2148W        W73874  34.641  13.261   2.317
 2149W        W73875   8.735  32.351  11.845
 2150W        W73876  18.492  44.607   2.270
 2151W        W73877  16.157  44.815   4.054
 2152W        W73878   2.985  14.657   0.341
 2153W        W73879  35.872  10.887  10.535
 2154W        W73880  38.526  27.767   3.401
 2155W        W73881  14.314  14.614  11.210
 2156W        W73882   5.992  27.962  13.460
 2157W        W73883  44.512  40.015  14.909
 2158W        W73884  30.613   5.418  10.877
 2159W        W73885  23.170   9.392  10.867
 2160W        W73886  24.619  40.516   0.960
 2161W        W73887  39.492  33.560   1.865
 2162W        W73888   8.210   1.285  13.416
 2163W        W73889   9.037  21.586   1.913
 2164W        W73890  42.826  10.984   3.232
 2165W        W73891  18.121  29.061  13.841
 2166W        W73892  36.083  36.487   3.394
 2167W        W73893  38.077  11.751  14.449
 2168W        W73894  26.861  41.247  14.533
 2169W        W73895   0.956  18.536   0.755
 2170W        W73896  19.153  30.087   4.484
 2171W        W73897   8.361   8.134   4.595
 2172W        W73898  14.786  34.704   4.148
 2173W        W73899  23.607   9.417   4.612
 2174W        W73900  27.191  38.587   2.522
 2175W        W73901  12.359  32.899  13.737
 2176W        W73902  21.157   9.840  14.823
 2177W        W73903   5.690   9.323  10.662
 2178W        W73904  28.023   8.676  12.064
 2179W        W73905  16.761  40.253   1.784
 2180W        W73906  36.294   8.275  13.859
 2181W        W73907   8.996  30.190   1.811
 2182W        W73908  43.636   3.326  12.191
 2183W        W73909   2.062  23.792   1.693
 2184W        W73910  25.511  25.384  11.237
 2185W        W73911  18.383   6.897   3.879
 2186W        W73912  21.498   7.718   2.557
 2187W        W73913  23.452  34.250   0.933
 2188W        W73914  28.417   5.312   4.597
 2189W        W73915  35.577  41.234   3.248
 2190W        W73916  28.054  38.531   4.545
 2191W        W73917  33.962  29.518   3.722
 2192W        W73918  41.432  11.224   3.843
 2193W        W73919  18.214  39.512   3.815
 2194W        W73920  24.508  35.113  13.893
 2195W        W73921  27.694   8.495   4.061
 2196W        W73922   8.925  10.227  11.590
 2197W        W73923  32.641  16.728   4.131
 2198W        W73924   1.908  41.402  14.263
 2199W        W73925  22.649  24.480  13.609
 2200W        W73926   8.827  36.489   1.754
 2201W        W73927  42.301  28.008   1.432
 2202W        W73928  10.948  23.843   3.599
 2203W        W73929  26.123  26.920  12.584
 2204W        W73930  10.760  24.809   9.951
 2205W        W73931  33.663  40.432   4.343
 2206W        W73932  37.924   6.476  10.957
 2207W        W73933  44.796  11.147  12.115
 2208W        W73934   5.226  32.439   1.373
 2209W        W73935   6.802  10.206  12.382
 2210W        W73936  36.781  15.507   0.366
 2211W        W73937   2.474  32.489   4.324
 2212W        W73938  13.955  27.220  10.687
 2213W        W73939  15.880  43.888  14.495
 2214W        W73940  30.609  22.767  14.890
 2215W        W73941  18.284  16.079  11.142
 2216W        W73942  25.112   3.758   1.944
 2217W        W73943  34.699  27.039   2.329
 2218W        W73944   3.763  34.655   1.908
 2219W        W73945  41.758  38.685   0.826
 2220W        W73946   7.393  33.390   3.387
 2221W        W73947  26.811   4.658  12.428
 2222W        W73948  19.623   7.796  10.662
 2223W        W73949   9.800  23.256   0.804
 2224W        W73950  37.373  36.690  14.322
 2225W        W73951  38.918  42.854  13.491
 2226W        W73952  43.817  17.325   2.995
 2227W        W73953  19.619   8.549  13.566
 2228W        W73954  13.654  20.625   4.800
 2229W        W73955  23.285  26.978   4.070
 2230W        W73956  42.408  23.198   2.849
 2231W        W73957  12.733  22.116  14.603
 2232W        W73958  10.364   3.360  14.092
 2233W        W73959  30.529  38.851   4.578
 2234W        W73960  26.092  11.456  10.408
 2235W        W73961  33.882  13.519  10.791
 2236W        W73962  24.703  26.944  13.892
 2237W        W73963  25.879  37.518  11.076
 2238W        W73964  23.171  34.663  10.739
 2239W        W73965  42.699  41.538   1.241
 2240W        W73966   2.198  14.205   2.880
 2241W        W73967  27.663  22.246  11.261
 2242W        W73968  42.592  13.289  12.419
 2243W        W73969  35.921  36.521   4.390
 2244W        W73970  28.883  22.538   1.218
 2245W        W73971  33.631  11.834  14.078
 2246W        W73972  16.074   7.976   2.080
 2247W        W73973  36.604  20.088   3.328
 2248W        W73974  36.427   5.130  12.599
 2249W        W73975  24.691  35.595   2.662
 2250W        W73976   5.321   2.806   4.763
 2251W        W73977  28.712   6.957  13.844
 2252W        W73978   4.483   6.891  13.901
 2253W        W73979  36.770   5.716   2.183
 2254W        W73980  27.354  10.287  14.754
 2255W        W73981   6.271  22.471   1.570
 2256W        W73982  33.398  35.108   2.244
 2257W        W73983  20.992  23.190   2.648
 2258W        W73984   2.435  14.476  14.383
 2259W        W73985   1.171   3.296  14.703
 2260W        W73986  27.465  24.645   1.701
 2261W        W73987  18.755  23.442  11.194
 2262W        W73988   2.166  33.916  13.486
 2263W        W73989  22.769  18.931  10.952
 2264W        W73990   7.950  24.962  11.114
 2265W        W73991  23.598  20.160   4.966
 2266W        W73992  20.587  32.030  12.875
 2267W        W73993  14.534  18.533  10.768
 2268W        W73994  27.036  24.267  11.213
 2269W        W73995  15.092  23.190  10.745
 2270W        W73996   0.912  23.414   4.534
 2271W        W73997  22.611  41.515  11.255
 2272W        W73998  11.301   2.233   1.746
 2273W        W73999  42.814  26.557   0.204
 2274W        W74000  16.270  37.944  12.004
 2275W        W74001  24.673   4.794   0.529
 2276W        W74002  41.038  17.647   1.740
 2277W        W74003   7.361   3.589  10.358
 2278W        W74004  41.600   1.365   1.633
 2279W        W74005   0.027   5.885   0.036
 2280W        W74006  26.852  41.393   1.018
 2281W        W74007  21.091   3.204   1.399
 2282W        W74008  37.093  42.411  13.053
 2283W        W74009  14.227   7.614   3.146
 2284W        W74010  24.611  43.628   3.152
 2285W        W74011  35.965  37.917  13.777
 2286W        W74012  44.252   4.714   3.700
 2287W        W74013  16.607  25.007   4.134
 2288W        W74014   5.352  25.566   3.138
 2289W        W74015   0.265  41.316   3.877
 2290W        W74016  22.132  34.953  11.869
 2291W        W74017  16.290  25.396   3.234
 2292W        W74018  23.035  19.230  10.652
 2293W        W74019  35.341  26.599  11.525
 2294W        W74020  37.972   3.493  11.160
 2295W        W74021  40.796  25.681  14.020
 2296W        W74022  34.120  27.548   3.339
 2297W        W74023  15.701  18.284   1.792
 2298W        W74024  25.183  21.961   4.101
 2299W        W74025  35.312  28.617   0.415
 2300W        W74026   8.867  23.540  13.846
 2301W        W74027  32.631  23.204   1.262
 2302W        W74028  21.083   1.813   3.300
 2303W        W74029  29.807  29.619   3.737
 2304W        W74030  29.204  25.119   3.034
 2305W        W74031  20.017   5.101   1.022
 2306W        W74032  26.528  41.364  13.256
 2307W        W74033  17.261   5.018   0.855
 2308W        W74034   1.373  20.055   0.278
 2309W        W74035  10.395  26.132  12.176
 2310W        W74036   8.253  15.648  13.492
 2311W        W74037  23.063  28.684   4.004
 2312W        W74038  13.640  43.490   2.932
 2313W        W74039   4.209   7.933  13.298
 2314W        W74040  11.849  40.413   4.162
 2315W        W74041  15.777  36.436  13.803
 2316W        W74042  21.032  35.473  11.580
 2317W        W74043   1.278  25.856   5.081
 2318W        W74044  22.098  11.534   4.245
 2319W        W74045   5.146  31.021   3.371
 2320W        W74046  10.818  34.119   4.989
 2321W        W74047  23.063  30.576  10.648
 2322W        W74048  15.125  40.591   1.421
 2323W        W74049   3.819   2.408   2.356
 2324W        W74050   4.902  37.361   0.236
 2325W        W74051  12.147  32.886  14.768
 2326W        W74052  14.846  26.598   3.552
 2327W        W74053  30.382   2.355  11.981
 2328W        W74054  40.332   8.336  10.915
 2329W        W74055  36.880  41.746  14.782
 2330W        W74056  32.010  41.281  10.938
 2331W        W74057  25.322  20.393  13.983
 2332W        W74058  42.804  25.921  11.426
 2333W        W74059  30.366  38.081  13.535
 2334W        W74060   2.808  23.680   0.268
 2335W        W74061  10.899  20.915   2.795
 2336W        W74062   3.008  24.559   2.365
 2337W        W74063  28.425  39.426  12.864
 2338W        W74064  39.068   5.940  12.548
 2339W        W74065  30.047  23.751  12.489
 2340W        W74066  35.806  39.062   3.232
 2341W        W74067   8.962  19.271  14.264
 2342W        W74068  11.966  11.341  11.092
 2343W        W74069  25.039  44.206   4.690
 2344W        W74070  27.016  17.542  11.004
 2345W        W74071  35.317  32.192  11.152
 2346W        W74072  13.099  12.137   3.776
 2347W        W74073  14.156  42.513   0.638
 2348W        W74074  35.455  24.460  14.305
 2349W        W74075   4.929   0.173  14.808
 2350W        W74076   6.139  31.902  14.854
 2351W        W74077  44.926   1.894  12.518
 2352W        W74078  35.973  10.695  14.877
 2353W        W74079  39.543   6.266   1.612
 2354W        W74080  25.852  41.988  12.959
 2355W        W74081  27.022  34.504   2.730
 2356W        W74082  36.531  44.692  10.804
 2357W        W74083  26.459  39.803  11.978
 2358W        W74084  20.707   5.847   0.283
 2359W        W74085  38.520   4.781  11.662
 2360W        W74086   5.497  24.104   1.864
 2361W        W74087  38.341  21.565   0.656
 2362W        W74088  14.755  21.241  10.832
 2363W        W74089  26.398  43.927  13.414
 2364W        W74090  27.835  24.303  10.486
 2365W        W74091   2.493  40.434  13.673
 2366W        W74092  43.787   2.389   3.901
 2367W        W74093  42.717  18.226  13.359
 2368W        W74094  12.613   9.071  11.073
 2369W        W74095   2.857  25.530   2.697
 2370W        W74096  38.665  43.441   2.785
 2371W        W74097  17.993  36.566  14.276
 2372W        W74098  43.001   0.499   2.411
 2373W        W74099  38.851  11.591   4.149
 2374W        W74100  38.378   9.762  14.328
 2375W        W74101   9.868  18.555  13.407
 2376W        W74102  14.162  25.977   2.654
 2377W        W74103  36.369  25.902  12.985
 2378W        W74104  13.283   6.369  13.553
 2379W        W74105  21.619   3.217   1.430
 2380W        W74106   7.096  22.259   3.272
 2381W        W74107  41.715  30.983   2.510
 2382W        W74108   8.320  10.459  14.451
 2383W        W74109  20.046  10.134   3.724
 2384W        W74110  25.838  21.423   0.361
 2385W        W74111   8.609   2.144   5.060
 2386W        W74112  43.429  30.642  12.583
 2387W        W74113  37.297  24.588   3.255
 2388W        W74114   9.316  31.683   4.171
 2389W        W74115  15.366   7.226   2.796
 2390W        W74116  43.727  22.589  10.642
 2391W        W74117   5.234  36.847  12.045
 2392W        W74118   1.455  36.103  10.735
 2393W        W74119   8.121  41.047   1.624
 2394W        W74120   1.004  25.128  11.962
 2395W        W74121  21.768   6.551   1.456
 2396W        W74122  44.898  21.172   1.814
 2397W        W74123  38.428  35.363  10.686
 2398W        W74124  21.504  12.770   0.501
 2399W        W74125  15.245  14.384   3.631
 2400W        W74126  38.110  15.746  11.503
 2401W        W74127  36.389   7.743   3.265
 2402W        W74128  33.943  36.332  13.841
 2403W        W74129  32.067  30.138   3.406
 2404W        W74130  36.872   0.376   0.343
 2405W        W74131   5.774  31.892  11.615
 2406W        W74132   7.685   8.710   3.254
 2407W        W74133   2.669  40.135   0.846
 2408W        W74134  40.494  39.836   1.341
 2409W        W74135  39.980  17.084   4.447
 2410W        W74136   1.370  28.623  11.140
 2411W        W74137  40.818  13.739   3.304
 2412W        W74138  19.648  15.106  11.262
 2413W        W74139  38.429  41.222  14.122
 2414W        W74140  14.689   1.321  11.594
 2415W        W74141  41.384  24.248   3.732
 2416W        W74142  26.832   4.825   1.913
 2417W        W74143  10.306  34.457   4.144
 2418W        W74144   8.764  23.139   2.658
 2419W        W74145  30.662  22.748   3.250
 2420W        W74146  43.265  17.563   4.527
 2421W        W74147  18.748  22.931   4.402
 2422W        W74148   1.343  37.634   1.723
 2423W        W74149  14.794  41.498   4.767
 2424W        W74150  42.913  33.938  13.449
 2425W        W74151  27.100  24.198   2.863
 2426W        W74152  13.617  31.025  13.245
 2427W        W74153  31.598  27.669   0.283
 2428W        W74154  19.339  41.294   1.701
 2429W        W74155  43.844  37.042  11.630
 2430W        W74156  30.105  25.068   2.030
 2431W        W74157  37.522  24.961  10.677
 2432W        W74158  43.968  40.505   1.752
 2433W        W74159  30.980  24.984  10.837
 2434W        W74160   3.460   4.613   5.289
 2435W        W74161  31.664   5.771  11.301
 2436W        W74162   8.433   0.802  10.700
 2437W        W74163  21.569  13.603   3.194
 2438W        W74164  17.794  44.473  11.995
 2439W        W74165  40.881  34.585  14.886
 2440W        W74166  29.490  26.535  10.175
 2441W        W74167  41.967  25.435  13.490
 2442W        W74168  12.251  13.156   2.899
 2443W        W74169   6.690  37.095   1.342
 2444W        W74170  10.196   6.752  12.559
 2445W        W74171  12.356  25.612   1.690
 2446W        W74172  44.488  24.560   0.957
 2447W        W74173  20.929  14.446   4.138
 2448W        W74174  25.585  31.352  12.376
 2449W        W74175  19.735   4.899  10.461
 2450W        W74176  31.430  21.991  12.149
 2451W        W74177  11.872  10.746   2.208
 2452W        W74178  38.436  17.036   2.887
 2453W        W74179  22.241  42.536   3.362
 2454W        W74180  29.496  28.416  14.161
 2455W        W74181  25.173  27.621  11.414
 2456W        W74182  34.090  24.366  14.914
 2457W        W74183  32.557   0.022   1.694
 2458W        W74184  26.554  25.973  11.792
 2459W        W74185  24.285  17.574   0.246
 2460W        W74186  11.373  37.893  12.491
 2461W        W74187  35.529  27.896   0.792
 2462W        W74188  39.066  29.653   0.487
 2463W        W74189  39.873  13.744  10.247
 2464W        W74190  17.532   8.820   1.244
 2465W        W74191   7.818  38.490   0.498
 2466W        W74192   6.483   8.065   3.946
 2467W        W74193   6.451  13.088   4.637
 2468W        W74194   3.504   3.718  11.205
 2469W        W74195  31.874  20.067  14.948
 2470W        W74196  36.889   0.295  12.111
 2471W        W74197  26.515  28.613  12.009
 2472W        W74198  25.888  26.550  13.521
 2473W        W74199  38.270   8.705   3.278
 2474W        W74200  19.614   7.256  13.907
 2475W        W74201   4.269  21.707   3.370
 2476W        W74202  20.509  17.164  14.837
 2477W        W74203  12.655   7.162   0.784
 2478W        W74204  41.923  13.147   0.869
 2479W        W74205  25.458  16.391  13.372
 2480W        W74206  26.698   2.905   4.020
 2481W        W74207  29.546  18.322  13.802
 2482W        W74208   7.764  31.534  10.539
 2483W        W74209   5.275  19.835  11.578
 2484W        W74210  42.072  28.522   1.231
 2485W        W74211   8.764   1.801  12.633
 2486W        W74212  10.682  16.828   3.686
 2487W        W74213  39.094  43.164  13.846
 2488W        W74214  28.504  15.655   2.955
 2489W        W74215  10.020  20.755  11.513
 2490W        W74216  30.058  10.259   4.103
 2491W        W74217  22.794  31.867  13.034
 2492W        W74218  26.544  40.801   3.749
 2493W        W74219  12.045   3.565   2.331
 2494W        W74220   5.193  17.492   4.285
 2495W        W74221  25.472  21.323  10.686
 2496W        W74222  20.203   6.400   0.826
 2497W        W74223  33.621  21.451  14.440
 2498W        W74224  20.001   0.651  14.980
 2499W        W74225  32.661   6.700  10.516
 2500W        W74226  16.643  37.940   1.426
 2501W        W74227   8.147   7.845   0.810
 2502W        W74228   7.828  29.136  14.870
 2503W        W74229   3.312  10.810   1.944
 2504W        W74230  15.830  33.485  14.318
 2505W        W74231  30.496  12.197  13.260
 2506W        W74232  11.263  20.024  11.496
 2507W        W74233  22.766  27.954   3.496
 2508W        W74234  31.137  16.291   4.092
 2509W        W74235  23.425   6.203   0.924
 2510W        W74236  29.013   1.807   2.583
 2511W        W74237  11.283   9.168  11.062
 2512W        W74238  37.563  25.531  11.409
 2513W        W74239  16.378  39.862  12.249
 2514W        W74240  20.295   3.452  11.170
 2515W        W74241  33.449  37.551   4.119
 2516W        W74242   6.191  18.009   9.983
 2517W        W74243  27.114  26.730  11.539
 2518W        W74244  32.424  38.350   0.887
 2519W        W74245  14.256   8.245  13.103
 2520W        W74246  20.556   2.212   2.685
 2521W        W74247  22.768  33.151  13.461
 2522W        W74248   0.831  15.816  14.571
 2523W        W74249   0.249  21.479   0.525
 2524W        W74250  22.422  24.611   5.177
 2525W        W74251  38.346  39.067   4.124
 2526W        W74252  11.324  18.813  12.098
 2527W        W74253  30.013  41.328   1.225
 2528W        W74254  22.520  28.806  12.978
 2529W        W74255  43.416  25.635   1.878
 2530W        W74256  26.479  30.671   0.315
 2531W        W74257  12.589  19.652   4.474
 2532W        W74258  17.057  36.633  11.917
 2533W        W74259   2.481   7.280   3.047
 2534W        W74260  22.254   2.140   4.718
 2535W        W74261  34.627  28.037  13.761
 2536W        W74262  42.807  22.427   2.778
 2537W        W74263  37.159  40.466  14.850
 2538W        W74264   5.794  30.643  12.862
 2539W        W74265   4.527  42.623   5.264
 2540W        W74266  27.850  21.078  14.453
 2541W        W74267   3.754  34.508   5.066
 2542W        W74268  25.751  13.236   2.619
 2543W        W74269  39.501  29.594   4.078
 2544W        W74270  21.206  28.452   1.948
 2545W        W74271  28.843  26.594  12.061
 2546W        W74272  30.983  20.678   0.426
 2547W        W74273  33.965  12.885  13.868
 2548W        W74274  41.941   1.241   0.263
 2549W        W74275  34.603  39.774   3.610
 2550W        W74276  40.124  35.884  10.407
 2551W        W74277  11.955  30.060  13.469
 2552W        W74278  24.960  20.633   2.850
 2553W        W74279  16.001  19.245  14.934
 2554W        W74280  36.831  16.854  13.799
 2555W        W74281  35.388  16.718  13.361
 2556W        W74282  41.969  25.325  14.397
 2557W        W74283   1.314   1.368  14.855
 2558W        W74284  19.055  23.707  14.125
 2559W        W74285   2.446  20.612   1.574
 2560W        W74286  10.643  39.340   4.396
 2561W        W74287  35.307  29.879  13.512
 2562W        W74288  33.873  20.577   4.345
 2563W        W74289  39.049  19.742  13.084
 2564W        W74290  43.181  36.096   2.794
 2565W        W74291  20.305  24.200   3.767
 2566W        W74292  18.570   4.889   2.760
 2567W        W74293  23.643   6.371   0.481
 2568W        W74294  38.948  28.014  13.416
 2569W        W74295  27.122   5.631  12.523
 2570W        W74296  29.940  22.289   4.870
 2571W        W74297  43.209  22.533  10.813
 2572W        W74298   1.272  24.260   3.184
 2573W        W74299  20.319   1.468  14.459
 2574W        W74300   0.144  34.169  14.078
 2575W        W74301  13.203   2.256  12.489
 2576W        W74302   2.695  22.766  12.209
 2577W        W74303  11.853  34.066  10.731
 2578W        W74304  24.745  12.185   3.266
 2579W        W74305  22.671  41.555   2.441
 2580W        W74306  19.120  44.971   1.674
 2581W        W74307  23.497  32.461  10.625
 2582W        W74308  21.798  29.434  10.770
 2583W        W74309   0.890   6.646  13.387
 2584W        W74310  24.936  37.600  14.399
 2585W        W74311   5.734  27.501   4.411
 2586W        W74312  30.916  39.844  11.977
 2587W        W74313  18.755  34.690   3.282
 2588W        W74314  35.602  33.700  12.881
 2589W        W74315   1.760  11.988   2.668
 2590W        W74316  44.733  44.303  14.617
 2591W        W74317   9.356   5.245  11.185
 2592W        W74318   9.819  32.570   0.291
 2593W        W74319   4.386  16.213   2.805
 2594W        W74320  36.050   1.848  12.034
 2595W        W74321  37.393  18.031   2.738
 2596W        W74322   4.735  13.788  10.112
 2597W        W74323  43.350  28.580   1.923
 2598W        W74324  21.300  16.865   0.826
 2599W        W74325  10.681  22.239   0.254
 2600W        W74326   6.668  14.332   4.948
 2601W        W74327   2.849  22.192  12.959
 2602W        W74328  10.119  42.763  14.223
 2603W        W74329  18.775  19.156   4.873
 2604W        W74330  13.911  12.467   4.543
 2605W        W74331  41.888  26.776  13.132
 2606W        W74332  16.736  32.135  12.020
 2607W        W74333  28.068   1.269   0.234
 2608W        W74334  13.174  36.595  13.414
 2609W        W74335  43.035   9.180  10.717
 2610W        W74336  18.037  31.501  12.125
 2611W        W74337   6.970  26.223  12.868
 2612W        W74338  43.960  39.373  11.084
 2613W        W74339  41.933  38.809   2.290
 2614W        W74340  10.477  29.009  14.553
 2615W        W74341   5.730  32.013  14.481
 2616W        W74342  40.885  14.675   1.384
 2617W        W74343  27.543  17.581  13.544
 2618W        W74344  36.571  39.458   1.261
 2619W        W74345  38.605  44.221   2.205
 2620W        W74346  36.406  14.438  11.226
 2621W        W74347  18.767  30.390   0.610
 2622W        W74348  13.082  15.927   0.945
 2623W        W74349   7.275  17.070  13.332
 2624W        W74350  27.668  17.642   4.015
 2625W        W74351  35.339  24.771  12.790
 2626W        W74352  28.513  35.470   4.317
 2627W        W74353  13.816  28.419   2.620
 2628W        W74354  11.214   7.813   3.371
 2629W        W74355  16.050  39.150  13.974
 2630W        W74356  39.243   2.334  12.321
 2631W        W74357  19.923  22.718   2.108
 2632W        W74358   0.434  24.540  11.444
 2633W        W74359  20.379  21.123   3.614
 2634W        W74360   8.832   5.748   3.757
 2635W        W74361  31.649  24.177  11.884
 2636W        W74362  25.302   0.752  11.089
 2637W        W74363  26.220  34.121  11.459
 2638W        W74364   8.143  31.593   0.682
 2639W        W74365  36.923  29.080  11.454
 2640W        W74366  31.531   9.407  10.732
 2641W        W74367  41.245  10.239  10.753
 2642W        W74368  10.927  29.078  14.252
 2643W        W74369   8.646  24.144   4.580
 2644W        W74370   2.478   3.380  13.986
 2645W        W74371  20.904  28.989   3.509
 2646W        W74372  38.165  23.790  11.985
 2647W        W74373  16.925  27.460  14.231
 2648W        W74374  11.433  30.430  12.237
 2649W        W74375  22.710  37.507   2.540
 2650W        W74376  40.071  10.274   1.288
 2651W        W74377  32.114   4.005   4.096
 2652W        W74378  20.264  17.458   2.694
 2653W        W74379  33.886  40.464   3.874
 2654W        W74380  15.661  37.827  10.674
 2655W        W74381  24.097   8.395   4.043
 2656W        W74382  11.719  25.769  12.432
 2657W        W74383  28.781  40.855   3.695
 2658W        W74384   5.840  31.150  12.833
 2659W        W74385  11.076  34.921  14.041
 2660W        W74386  20.540  32.641  11.969
 2661W        W74387  31.975  12.092  11.526
 2662W        W74388  13.078  42.435  14.296
 2663W        W74389  42.957  37.407   4.901
 2664W        W74390  26.660  19.652   4.295
 2665W        W74391  44.252  22.009  11.675
 2666W        W74392  25.949  44.281   0.958
 2667W        W74393   2.283  21.611  10.587
 2668W        W74394  11.292  13.116   2.429
 2669W        W74395  12.128  35.867   2.064
 2670W        W74396  22.018  11.555   0.873
 2671W        W74397   3.194   1.747  14.703
 2672W        W74398   6.429  11.914   2.303
 2673W        W74399   8.455  10.296  10.796
 2674W        W74400  30.468  31.256  14.151
 2675W        W74401  30.270  26.786  10.557
 2676W        W74402  19.231   8.222   3.414
 2677W        W74403  25.422  25.011  11.580
 2678W        W74404  11.877  31.935  11.690
 2679W        W74405  22.627  14.799   2.301
 2680W        W74406  27.557  26.116  10.846
 2681W        W74407   5.638  12.299  11.059
 2682W        W74408   1.228  11.144   0.033
 2683W        W74409  15.728  18.127  14.292
 2684W        W74410  42.208  35.384  14.377
 2685W        W74411   1.363  24.735   4.693
 2686W        W74412  12.646  18.566   0.209
 2687W        W74413  43.208  40.535  14.826
 2688W        W74414  12.197  13.281   2.368
 2689W        W74415   7.593  11.443   3.712
 2690W        W74416   3.563  20.191   2.694
 2691W        W74417  33.133  26.414   4.515
 2692W        W74418  29.205  14.675   4.768
 2693W        W74419  34.287  31.875  12.899
 2694W        W74420   1.746   2.651   3.085
 2695W        W74421  11.750  35.768  14.150
 2696W        W74422  26.520  27.079   2.723
 2697W        W74423  39.133  23.837  11.632
 2698W        W74424   1.979  10.873  11.183
 2699W        W74425  38.839  28.632  13.471
 2700W        W74426   8.616  31.526   1.004
 2701W        W74427  15.102  27.168   0.149
 2702W        W74428  11.228  18.214  13.377
 2703W        W74429  16.710  15.687   4.091
 2704W        W74430  17.279   7.174   4.338
 2705W        W74431   0.527   0.887   0.914
 2706W        W74432  21.568  29.225  12.947
 2707W        W74433  19.674  17.077   2.220
 2708W        W74434   0.769  24.032  10.511
 2709W        W74435   7.751   2.816   1.844
 2710W        W74436  13.179  19.850   5.083
 2711W        W74437  40.887  43.006   1.474
 2712W        W74438  32.291   2.181  13.067
 2713W        W74439  39.413   5.093   2.935
 2714W        W74440  24.289  31.070  10.582
 2715W        W74441   1.166  13.808  14.968
 2716W        W74442   7.766  41.846   2.734
 2717W        W74443   5.826  41.560  13.725
 2718W        W74444  32.456  22.018  12.572
 2719W        W74445   6.434  37.075  11.524
 2720W        W74446  29.402   5.734  12.038
 2721W        W74447   0.857  23.563   9.947
 2722W        W74448   0.001   1.784   2.138
 2723W        W74449   6.809   6.010   1.050
 2724W        W74450   8.038   4.770  13.977
 2725W        W74451  26.998  20.322  11.099
 2726W        W74452  37.338  19.779  14.270
 2727W        W74453  40.972  13.226  11.619
 2728W        W74454  37.936  14.211  14.641
 2729W        W74455  30.011  39.365   3.111
 2730W        W74456  23.811  27.880   3.223
 2731W        W74457  33.200  42.195  10.235
 2732W        W74458  29.691  24.722  13.446
 2733W        W74459  34.847  30.593   1.684
 2734W        W74460  29.775  33.638   2.596
 2735W        W74461   6.266  27.147  12.034
 2736W        W74462  23.085   6.095   2.765
 2737W        W74463   7.010  13.195   5.464
 2738W        W74464  44.454  14.181   1.356
 2739W        W74465   0.469  19.195   2.784
 2740W        W74466  42.089  29.185  10.623
 2741W        W74467  20.603  41.381   1.025
 2742W        W74468   3.956  39.978   0.372
 2743W        W74469  25.870  41.560   1.665
 2744W        W74470   6.664  23.635  13.881
 2745W        W74471  26.519  44.877   0.462
 2746W        W74472   6.399  26.566   2.916
 2747W        W74473  24.186  27.679  13.566
 2748W        W74474  35.912  34.371   0.465
 2749W        W74475  23.773   3.435   4.203
 2750W        W74476   1.956   8.397   2.616
 2751W        W74477  25.007  13.628   0.264
 2752W        W74478  39.883  30.625   3.857
 2753W        W74479   3.814  16.813   0.617
 2754W        W74480  25.600  41.906   2.383
 2755W        W74481  39.818  32.600   3.990
 2756W        W74482   9.180  14.320   0.302
 2757W        W74483   3.361  12.352  14.826
 2758W        W74484  38.090  17.560  12.861
 2759W        W74485  14.559   8.254  12.103
 2760W        W74486   8.330  10.996  13.497
 2761W        W74487   6.483  37.561  14.972
 2762W        W74488  20.462  34.750  12.898
 2763W        W74489  11.206  43.945   4.578
 2764W        W74490   1.345   0.350   0.005
 2765W        W74491  16.231   3.410   4.251
 2766W        W74492  10.179  31.071  12.066
 2767W        W74493  19.670   7.388   3.287
 2768W        W74494  44.952  44.304  12.156
 2769W        W74495  33.667  44.501  13.190
 2770W        W74496   7.770  39.815  12.914
 2771W        W74497  35.889  32.361  13.388
 2772W        W74498  44.341   0.046   4.555
 2773W        W74499  24.728  14.593   2.207
 2774W        W74500  18.278  31.102  13.035
 2775W        W74501   8.703  30.077   0.244
 2776W        W74502  41.011  38.859   3.876
 2777W        W74503  12.575  27.077   2.276
 2778W        W74504  10.668  30.149  11.909
 2779W        W74505  38.530  35.459   3.724
 2780W        W74506  41.993  22.215  11.419
 2781W        W74507   0.574  39.019  12.995
 2782W        W74508  10.163  21.102   1.296
 2783W        W74509  26.006  41.302   4.337
 2784W        W74510  20.862  25.678   0.991
 2785W        W74511  35.298  16.942  10.989
 2786W        W74512   0.077  12.005   3.265
 2787W        W74513  18.570  44.731   3.329
 2788W        W74514  40.443  32.078   2.837
 2789W        W74515  20.089  16.783   2.132
 2790W        W74516  23.492  29.701   2.753
 2791W        W74517   2.219  15.707  11.975
 2792W        W74518  22.030   7.819   0.286
 2793W        W74519  21.123  24.282   0.842
 2794W        W74520   8.385  34.006   4.946
 2795W        W74521  26.026   6.375  12.954
 2796W        W74522   7.419  44.763  12.942
 2797W        W74523  40.507  23.780  13.534
 2798W        W74524  34.537  18.861  11.703
 2799W        W74525  40.543  21.276  10.876
 2800W        W74526  22.048   3.782  10.846
 2801W        W74527  27.208  44.434   1.034
 2802W        W74528  16.458  35.028  14.767
 2803W        W74529  38.672  39.570   4.221
 2804W        W74530  12.332  33.210  10.976
 2805W        W74531  21.561   6.217   2.726
 2806W        W74532  25.434  16.716  10.717
 2807W        W74533   1.216   6.081   2.842
 2808W        W74534  13.980  33.427  11.651
 2809W        W74535   8.577  28.999  10.716
 2810W        W74536  43.922  12.262  13.797
 2811W        W74537  10.414   1.713   1.852
 2812W        W74538  40.536  38.009  14.484
 2813W        W74539   3.457  18.015  12.588
 2814W        W74540  10.848  31.904  11.126
 2815W        W74541  43.739  35.863   0.816
 2816W        W74542  15.818   9.216  10.603
 2817W        W74543  15.741  34.540  12.017
 2818W        W74544  34.126  38.886  13.093
 2819W        W74545   2.786  10.633   4.592
 2820W        W74546  38.322  36.357   4.837
 2821W        W74547   4.470  17.369  12.432
 2822W        W74548   0.431  44.040  14.252
 2823W        W74549  20.008  32.604  12.016
 2824W        W74550  26.755  18.780  14.897
 2825W        W74551   6.755  12.162   1.931
 2826W        W74552  31.574   2.734  11.682
 2827W        W74553  31.534   4.924   3.304
 2828W        W74554  11.815  29.997  12.502
 2829W        W74555  30.498   3.646  10.220
 2830W        W74556   2.284  25.839   2.190
 2831W        W74557  25.470  41.903   3.400
 2832W        W74558   8.938   1.655   3.585
 2833W        W74559  37.798   2.139   0.092
 2834W        W74560  37.437  18.323   0.320
 2835W        W74561  42.050   4.014   2.890
 2836W        W74562  31.834  16.730   3.110
 2837W        W74563  12.090   5.746   0.488
 2838W        W74564  41.589   7.354   3.015
 2839W        W74565  34.543  34.437  10.706
 2840W        W74566   1.797  27.002  14.982
 2841W        W74567  21.647  26.375   3.688
 2842W        W74568  24.190  13.857  13.060
 2843W        W74569  38.655  39.534  12.474
 2844W        W74570  31.361  39.805   0.241
 2845W        W74571  21.363  36.945  13.083
 2846W        W74572  17.271   2.791   3.063
 2847W        W74573  31.136   3.766   0.687
 2848W        W74574  17.544  42.037  10.755
 2849W        W74575   5.194   1.203   1.000
 2850W        W74576   5.381   9.833  11.273
 2851W        W74577   5.996  26.669   4.358
 2852W        W74578  29.316   0.453   3.745
 2853W        W74579  26.777  33.067  10.703
 2854W        W74580  16.997   4.395  12.498
 2855W        W74581  13.787  34.659   2.806
 2856W        W74582   0.988  17.171  12.837
 2857W        W74583  14.639  10.850  13.100
 2858W        W74584   2.868   2.809   3.228
 2859W        W74585  40.963  31.839  14.408
 2860W        W74586  18.602  34.003   2.737
 2861W        W74587  24.123   3.801   4.290
 2862W        W74588  15.010   0.547   4.856
 2863W        W74589   4.797  41.147  13.410
 2864W        W74590  11.733  17.204  10.499
 2865W        W74591  28.873  37.825   4.575
 2866W        W74592  37.035  20.551  13.982
 2867W        W74593   0.535  23.784   1.805
 2868W        W74594  44.778  20.128  13.795
 2869W        W74595  15.248  37.298  10.192
 2870W        W74596   9.135   9.696   1.280
 2871W        W74597   9.523  21.232  11.524
 2872W        W74598  15.762  22.102   0.381
 2873W        W74599   0.374  37.674  11.909
 2874W        W74600   7.062  12.943  12.911
 2875W        W74601   3.742  20.252  12.105
 2876W        W74602  19.529  33.922   0.019
 2877W        W74603  33.636  44.258  14.580
 2878W        W74604   0.437  27.030   3.320
 2879W        W74605   6.102  17.626   3.864
 2880W        W74606  22.727  13.398   0.772
 2881W        W74607  14.141  16.674  14.635
 2882W        W74608  20.263  14.918   0.434
 2883W        W74609  40.993  12.207   4.129
 2884W        W74610  37.849  18.742   3.600
 2885W        W74611  29.275  10.112   0.439
 2886W        W74612   4.766  22.514  14.583
 2887W        W74613  21.557   7.950  14.022
 2888W        W74614  20.372  21.190   2.675
 2889W        W74615  44.288   0.315   3.201
 2890W        W74616  34.622  31.519  11.181
 2891W        W74617  10.162  20.801   3.656
 2892W        W74618  37.463  15.843   4.575
 2893W        W74619  19.142   2.105   0.888
 2894W        W74620  30.125  23.512   0.285
 2895W        W74621  17.111  33.219   3.738
 2896W        W74622   4.394  24.083  13.620
 2897W        W74623   1.649  18.725   2.718
 2898W        W74624   1.548   2.938  14.805
 2899W        W74625  30.445  44.710   4.915
 2900W        W74626  21.312   4.172   9.923
 2901W        W74627  27.624  44.177  13.365
 2902W        W74628  41.755  43.635   1.373
 2903W        W74629  31.550   9.822   2.219
 2904W        W74630  12.284   5.651  14.048
 2905W        W74631  34.792  12.909   1.961
 2906W        W74632  26.223  25.977   0.987
 2907W        W74633  21.853  14.617   5.083
 2908W        W74634  24.705  40.439  10.451
 2909W        W74635  10.219  41.939  11.416
 2910W        W74636  41.529  25.219  13.624
 2911W        W74637  12.104  32.325   1.855
 2912W        W74638  40.544  18.791   3.935
 2913W        W74639  31.936  40.563   1.268
 2914W        W74640  26.717   8.546  11.860
 2915W        W74641  11.214  16.643   3.521
 2916W        W74642  32.613  44.050  13.944
 2917W        W74643  15.628  40.378  12.847
 2918W        W74644   8.793  29.411   2.401
 2919W        W74645  16.607  20.243   0.924
 2920W        W74646  36.460  39.379  13.335
 2921W        W74647  16.121   0.446  10.711
 2922W        W74648  29.780  11.187   3.155
 2923W        W74649  30.497  30.469  12.481
 2924W        W74650  15.256  43.319  14.862
 2925W        W74651  20.661  12.030  12.005
 2926W        W74652   2.966  31.906  10.777
 2927W        W74653  21.111   6.143   0.896
 2928W        W74654  28.571  23.101   0.008
 2929W        W74655  37.784  21.834  12.031
 2930W        W74656  24.064   6.389  10.768
 2931W        W74657   0.407  23.007  14.057
 2932W        W74658  17.787  38.619  10.150
 2933W        W74659   8.819  11.153   0.487
 2934W        W74660   4.227  23.832   3.093
 2935W        W74661  11.712   5.466   1.773
 2936W        W74662  28.365   4.757  12.395
 2937W        W74663   8.126  37.526   4.313
 2938W        W74664  26.835   2.817  12.003
 2939W        W74665  43.135  19.536  10.557
 2940W        W74666   4.480   2.207   3.602
 2941W        W74667   6.701  40.566  10.752
 2942W        W74668  15.329  28.085  12.559
 2943W        W74669   4.216  28.579   0.952
 2944W        W74670   9.673  42.558  14.373
 2945W        W74671  26.130   2.647   3.141
 2946W        W74672  34.910  20.052  14.743
 2947W        W74673  29.055  11.816   2.364
 2948W        W74674  27.737  23.030   1.198
 2949W        W74675  40.821  44.518   3.496
 2950W        W74676  34.618  26.880  12.358
 2951W        W74677  30.355  11.189  12.165
 2952W        W74678  31.062  16.830   2.775
 2953W        W74679   9.977   5.739  14.772
 2954W        W74680  42.501  13.559   3.779
 2955W        W74681   9.681  12.893   3.584
 2956W        W74682  38.248   5.784  11.741
 2957W        W74683  26.579   7.881  12.378
 2958W        W74684   9.570  42.926   0.502
 2959W        W74685  39.233  12.070  12.680
 2960W        W74686  21.761  24.548   1.351
 2961W        W74687  39.336  42.624   0.690
 2962W        W74688  17.847  33.818   4.699
 2963W        W74689   2.257  41.777  10.507
 2964W        W74690  29.804  39.221   2.116
 2965W        W74691   5.496  40.289  12.399
 2966W        W74692  28.812  31.591  14.642
 2967W        W74693   7.165  31.359  14.124
 2968W        W74694  15.880   6.119   4.812
 2969W        W74695   7.706  39.649  10.628
 2970W        W74696   3.525  15.141   0.731
 2971W        W74697  43.255  20.759  10.539
 2972W        W74698  23.785  37.011   0.600
 2973W        W74699  43.965  11.342   1.347
 2974W        W74700  40.712  43.516   4.861
 2975W        W74701  20.344  24.211  14.504
 2976W        W74702  44.241  33.368  13.333
 2977W        W74703  26.068   3.058  12.927
 2978W        W74704  27.412  26.538  13.927
 2979W        W74705   4.716  35.249  12.634
 2980W        W74706  35.338  33.137  13.508
 2981W        W74707  33.136  26.753  11.571
 2982W        W74708  26.585  44.455   2.693
 2983W        W74709  17.420   3.213   3.304
 2984W        W74710   2.016  28.723   2.485
 2985W        W74711   1.707  26.760  13.375
 2986W        W74712  11.822  41.269  13.837
 2987W        W74713  11.758  12.639   3.443
 2988W        W74714  33.660   0.373  10.355
 2989W        W74715  24.991   5.583  13.873
 2990W        W74716  17.107   3.259   1.173
 2991W        W74717  24.646   4.313  12.365
 2992W        W74718  39.346  19.684   3.262
 2993W        W74719  39.869  37.863   1.912
 2994W        W74720   2.169  29.555  11.571
 2995W        W74721  30.969  21.853  13.969
 2996W        W74722  43.004  44.510   1.715
 2997W        W74723  26.209   4.032   0.374
 2998W        W74724  41.582  34.645   0.575
 2999W        W74725  38.413  33.161   3.120
 3000W        W74726  36.076  35.060   0.469
 3001W        W74727  17.118  42.982  11.554
 3002W        W74728  39.523   7.300   1.180
 3003W        W74729  27.903  12.201  11.538
 3004W        W74730  37.958  13.253   3.601
 3005W        W74731   0.798  12.597   1.961
 3006W        W74732  24.097  36.588  10.611
 3007W        W74733  22.219  10.312   0.211
 3008W        W74734  35.895  31.465  12.644
 3009W        W74735  41.627   7.822   2.756
 3010W        W74736  32.808   6.849  14.020
 3011W        W74737  31.891  23.069  10.658
 3012W        W74738  16.901  42.881  13.771
 3013W        W74739  34.207  19.226  14.297
 3014W        W74740   5.283  35.407  14.352
 3015W        W74741  22.565  26.630  12.525
 3016W        W74742   5.418  29.542  10.712
 3017W        W74743   9.656  11.552   4.157
 3018W        W74744  16.017  44.308   4.166
 3019W        W74745  18.879  17.234   0.843
 3020W        W74746  27.420  41.514   4.667
 3021W        W74747  13.633  44.401  12.094
 3022W        W74748   5.823  21.779  10.941
 3023W        W74749   2.338  43.050  14.505
 3024W        W74750  10.293  42.537  12.359
 3025W        W74751  14.589   0.252   0.811
 3026W        W74752  19.364  34.462   3.831
 3027W        W74753  35.471  26.061  12.631
 3028W        W74754  28.097   7.967  13.057
 3029W        W74755  44.907  13.009   4.143
 3030W        W74756  20.832  17.628  13.820
 3031W        W74757  23.076  29.823   0.286
 3032W        W74758  22.270  20.809  11.683
 3033W        W74759  10.827  16.095  10.956
 3034W        W74760   6.787   1.116   1.828
 3035W        W74761  17.267  41.516  14.775
 3036W        W74762  28.086  31.346  13.431
 3037W        W74763  31.549  30.172   4.815
 3038W        W74764  11.199  17.886  11.091
 3039W        W74765  15.705   0.678  14.900
 3040W        W74766  44.973  29.459   4.067
 3041W        W74767  33.008   4.282  10.739
 3042W        W74768  20.986  13.040  12.333
 3043W        W74769   2.475   2.677  12.913
 3044W        W74770  16.569  23.196   1.322
 3045W        W74771  19.964  39.801  11.182
 3046W        W74772  12.234  19.201  12.911
 3047W        W74773   4.773  16.787   0.147
 3048W        W74774   1.241  35.934  14.919
 3049W        W74775  38.023  27.780   1.972
 3050W        W74776  35.427   7.995   2.267
 3051W        W74777  37.880  11.257  13.347
 3052W        W74778   6.931   6.662  13.709
 3053W        W74779  44.936  42.779  14.293
 3054W        W74780  14.290  11.534   1.619
 3055W        W74781   6.119   2.832  14.752
 3056W        W74782   3.227   7.259   0.187
 3057W        W74783  17.301  27.568  10.674
 3058W        W74784   5.550  35.704  12.517
 3059W        W74785  39.592   5.943  12.475
 3060W        W74786   9.215  13.429   4.267
 3061W        W74787  35.062  26.535   0.233
 3062W        W74788   6.328  25.880  14.758
 3063W        W74789  43.199   2.910   3.682
 3064W        W74790  23.657   3.574  10.339
 3065W        W74791   7.770   9.750   3.243
 3066W        W74792  21.772  34.492   0.241
 3067W        W74793  23.610  39.906  14.745
 3068W        W74794  33.000  17.060  14.399
 3069W        W74795  23.539  27.603   5.294
 3070W        W74796   6.966   4.559   4.607
 3071W        W74797   7.850   7.688   2.163
 3072W        W74798  28.074   4.528  11.540
 3073W        W74799  41.947  16.532   3.779
 3074W        W74800   9.634   1.326  14.381
 3075W        W74801  19.036   5.914   3.687
 3076W        W74802  38.437  19.256  14.215
 3077W        W74803   5.289  21.072   1.893
 3078W        W74804  20.229  32.799  13.180
 3079W        W74805  27.037  31.974   4.148
 3080W        W74806   1.225  15.306   4.201
 3081W        W74807  21.862  30.011   3.268
 3082W        W74808  20.583  18.525   2.227
 3083W        W74809   5.357  37.836   1.977
 3084W        W74810  20.462  42.883   1.102
 3085W        W74811   7.072   9.229  10.726
 3086W        W74812  26.014   4.269  13.466
 3087W        W74813  11.774   9.410  11.064
 3088W        W74814   2.228   3.402   2.831
 3089W        W74815  35.895  25.601  13.899
 3090W        W74816  24.564   9.295  11.198
 3091W        W74817  40.760  20.552   3.250
 3092W        W74818  22.065  42.805  13.984
 3093W        W74819  28.166   3.460  14.051
 3094W        W74820  25.627   3.232   5.088
 3095W        W74821   6.712  40.837  11.448
 3096W        W74822  43.143  12.293  14.303
 3097W        W74823  28.019   5.169   2.349
 3098W        W74824  13.229   5.436  13.294
 3099W        W74825  29.751  10.176  11.198
 3100W        W74826  33.567  31.262   4.836
 3101W        W74827  39.195  18.947  12.383
 3102W        W74828  32.066   0.081   4.097
 3103W        W74829   5.087   0.833  10.104
 3104W        W74830  44.970  19.541  13.062
 3105W        W74831   6.231  27.698  12.045
 3106W        W74832  36.921  18.348   3.304
 3107W        W74833  41.729  23.111  11.721
 3108W        W74834  30.167  22.261   3.659
 3109W        W74835   6.623   4.175   0.447
 3110W        W74836  12.896  38.051  11.092
 3111W        W74837   2.678  36.861  12.928
 3112W        W74838  42.078  34.837  14.760
 3113W        W74839  24.035  11.764   4.566
 3114W        W74840  22.422  24.000  11.112
 3115W        W74841  21.676   3.783   0.714
 3116W        W74842  23.766  34.363   0.363
 3117W        W74843   2.290  28.363  14.011
 3118W        W74844  20.055  20.263  13.462
 3119W        W74845  19.586  26.036   2.834
 3120W        W74846  30.559   2.785   3.536
 3121W        W74847   3.017  14.347  10.914
 3122W        W74848   0.786  23.109  13.501
 3123W        W74849  24.624  37.763  11.406
 3124W        W74850  25.078  17.544  13.647
 3125W        W74851  34.550  32.268  11.639
 3126W        W74852  33.898  25.812  12.131
 3127W        W74853  36.064   4.187   0.920
 3128W        W74854  21.641  39.601   4.859
 3129W        W74855  29.841  25.673   4.575
 3130W        W74856  10.597  29.058   3.887
 3131W        W74857  36.851  40.262  12.004
 3132W        W74858   9.367  18.309   2.335
 3133W        W74859  21.974  13.322  13.433
 3134W        W74860  39.337   1.462   0.749
 3135W        W74861  26.454  24.145  10.628
 3136W        W74862  39.336  37.431  12.238
 3137W        W74863  12.198  43.268   4.762
 3138W        W74864   5.642  12.840   2.345
 3139W        W74865  24.018  25.968  11.232
 3140W        W74866  18.552   7.604  11.325
 3141W        W74867  44.788  13.027   0.901
 3142W        W74868  13.708   1.081  13.914
 3143W        W74869  13.294   4.012   4.100
 3144W        W74870  41.896  24.011  13.568
 3145W        W74871  26.787   9.287   4.063
 3146W        W74872  14.387  30.692   1.432
 3147W        W74873   5.309   4.373   1.396
 3148W        W74874   8.126  38.484  13.821
 3149W        W74875  44.507   4.414   0.655
 3150W        W74876  37.772  42.892   3.697
 3151W        W74877  31.677  41.622   1.707
 3152W        W74878   8.691  40.585  14.857
 3153W        W74879  35.339  14.154   1.489
 3154W        W74880  14.335  29.076  14.854
 3155W        W74881  29.051   6.263   3.222
 3156W        W74882  26.024  12.684  11.666
 3157W        W74883  34.575  18.335   0.280
 3158W        W74884  14.628   8.773  10.381
 3159W        W74885   5.581  17.246   4.517
 3160W        W74886  15.311  15.593   4.572
 3161W        W74887  17.001  31.635  12.963
 3162W        W74888   3.835  35.041   4.764
 3163W        W74889   6.640  18.614   4.110
 3164W        W74890  21.264  37.628  10.248
 3165W        W74891  20.260  26.609   1.686
 3166W        W74892  34.577   7.135  10.713
 3167W        W74893  36.164  18.997  11.521
 3168W        W74894  25.217  42.933   4.746
 3169W        W74895  12.021  16.829  12.857
 3170W        W74896   5.125   5.302   4.587
 3171W        W74897  25.261  17.032   2.299
 3172W        W74898  19.042  37.478   4.292
 3173W        W74899  41.840   0.459   4.223
 3174W        W74900  12.540  21.795   2.360
 3175W        W74901  26.729   0.237   4.613
 3176W        W74902  42.432  22.391   4.769
 3177W        W74903  34.123  39.510  10.622
 3178W        W74904  35.551  21.580   4.136
 3179W        W74905  27.651  18.683  12.653
 3180W        W74906  21.809  24.432   3.637
 3181W        W74907  26.591  43.719   4.256
 3182W        W74908  20.561  33.404   3.213
 3183W        W74909   6.259   6.749   0.435
 3184W        W74910  26.084  37.009  14.821
 3185W        W74911   8.398  36.363  12.708
 3186W        W74912   5.884  31.166  13.795
 3187W        W74913  26.703  20.572  14.478
 3188W        W74914  12.332  13.332  12.891
 3189W        W74915   1.247   9.669   2.752
 3190W        W74916  37.268  37.190  10.464
 3191W        W74917   3.002   5.277  14.862
 3192W        W74918  44.326  35.325   3.245
 3193W        W74919  25.639  24.025  11.255
 3194W        W74920   9.948  37.828  13.908
 3195W        W74921  16.171  36.638   3.895
 3196W        W74922  30.522  18.689  12.343
 3197W        W74923   9.666  16.310  10.790
 3198W        W74924  24.247  21.184   4.577
 3199W        W74925  30.346  19.956  13.035
 3200W        W74926  38.764   3.631  12.986
 3201W        W74927  18.251  23.473   1.348
 3202W        W74928  22.026  44.718   2.970
 3203W        W74929  25.984  11.254  12.069
 3204W        W74930   2.925  23.626  12.874
 3205W        W74931  43.398  44.386  11.059
 3206W        W74932  11.401   9.262   3.618
 3207W        W74933  27.045  18.731  13.077
 3208W        W74934  39.599   1.274  13.323
 3209W        W74935  38.503  22.165   0.441
 3210W        W74936  24.013  21.280   5.305
 3211W        W74937  11.930  37.952   0.923
 3212W        W74938  19.210  44.794  13.852
 3213W        W74939  35.061   4.242  13.298
 3214W        W74940  34.867  42.338   1.887
 3215W        W74941   9.678  23.325   2.619
 3216W        W74942  37.141   2.149  13.497
 3217W        W74943  40.863  41.898   2.312
 3218W        W74944  35.853  34.967   5.308
 3219W        W74945  37.251  37.764   0.295
 3220W        W74946  37.116   1.920  12.001
 3221W        W74947  27.033  19.920   4.570
 3222W        W74948  17.368  22.684  11.211
 3223W        W74949  28.645  28.440  14.905
 3224W        W74950  40.432   3.861   3.653
 3225W        W74951  26.101  18.308  14.418
 3226W        W74952  34.494   2.471  11.592
 3227W        W74953   5.871  31.189   1.393
 3228W        W74954  11.843  25.491   0.236
 3229W        W74955   4.918  44.345  12.717
 3230W        W74956  19.617   9.521  13.619
 3231W        W74957   3.048  13.218  12.005
 3232W        W74958  38.626  18.475  13.845
 3233W        W74959  33.965  41.855   5.041
 3234W        W74960  21.090  38.085   1.665
 3235W        W74961  13.125  31.001  13.324
 3236W        W74962  27.490  13.642  10.265
 3237W        W74963   3.896  14.652   1.653
 3238W        W74964  12.211  38.384  13.935
 3239W        W74965   4.659  35.390   3.299
 3240W        W74966  22.290  25.601  12.187
 3241W        W74967  29.152   5.370  12.795
 3242W        W74968  28.680  34.991   4.466
 3243W        W74969  18.166  28.099  11.421
 3244W        W74970  39.498  33.495  11.012
 3245W        W74971  22.031  12.696   9.895
 3246W        W74972  43.903  34.145   3.989
 3247W        W74973  30.943  38.073   0.426
 3248W        W74974  16.825  10.948  12.583
 3249W        W74975  27.014  19.618   2.715
 3250W        W74976  28.219  31.623   0.309
 3251W        W74977  23.194  32.953   0.392
 3252W        W74978  21.629  25.858   3.694
 3253W        W74979  29.152  21.821  11.026
 3254W        W74980  16.220  37.647   3.588
 3255W        W74981  31.996  11.529  10.635
 3256W        W74982  42.026  36.926   4.204
 3257W        W74983  27.350  40.475   2.400
 3258W        W74984  16.538  41.507  11.987
 3259W        W74985  36.280  30.928   4.578
 3260W        W74986  18.483   3.902   4.525
 3261W        W74987  15.481  20.121  10.822
 3262W        W74988   4.997   7.226   4.616
 3263W        W74989   6.008  11.833  14.008
 3264W        W74990  42.488  17.842  13.099
 3265W        W74991   1.828  36.589  10.796
 3266W        W74992  25.132  14.732  10.672
 3267W        W74993  30.637  21.750  14.776
 3268W        W74994   0.011   4.901   2.288
 3269W        W74995  40.870  37.977  11.449
 3270W        W74996  37.233  40.127   0.965
 3271W        W74997  20.946  24.325  11.089
 3272W        W74998  18.305  25.152  11.751
 3273W        W74999   7.435  28.738  14.105
 3274W        W75000  26.919   6.278   1.239
 3275W        W75001   6.263   2.028  12.198
 3276W        W75002  25.231  40.382  14.731
 3277W        W75003  36.825   6.756  11.152
 3278W        W75004  13.339   9.798  12.384
 3279W        W75005  28.409   0.870   3.337
 3280W        W75006  15.906  27.136  13.126
 3281W        W75007  32.499   7.985   3.983
 3282W        W75008   5.155  16.274  10.630
 3283W        W75009  13.743  34.578   3.323
 3284W        W75010  32.318  26.137   3.486
 3285W        W75011   2.950  39.364  11.099
 3286W        W75012  22.210  40.060  12.844
 3287W        W75013  32.849  42.907   3.604
 3288W        W75014  13.388   4.654  12.396
 3289W        W75015  36.094   0.292  12.435
 3290W        W75016  42.893  43.760  13.556
 3291W        W75017   6.348  37.977   2.426
 3292W        W75018  16.789  18.791  11.655
 3293W        W75019  17.453  16.365   3.600
 3294W        W75020   9.616  30.090   0.010
 3295W        W75021  13.132  24.083   1.193
 3296W        W75022  37.749  43.408  11.984
 3297W        W75023  32.902  28.552  10.659
 3298W        W75024   3.677  27.629   2.267
 3299W        W75025  12.294  23.722  11.558
 3300W        W75026  44.729  27.547   2.716
 3301W        W75027  32.244  43.396  10.668
 3302W        W75028  19.517   6.059   2.768
 3303W        W75029  11.090  15.720   4.154
 3304W        W75030  24.072   6.931  10.788
 3305W        W75031  34.080  34.120  10.635
 3306W        W75032  21.745  10.823  11.968
 3307W        W75033  20.124  30.497  12.412
 3308W        W75034   4.396   3.494   0.886
 3309W        W75035  30.633  42.459   5.429
 3310W        W75036  38.319   3.880  11.349
 3311W        W75037  28.125  14.588   3.878
 3312W        W75038  40.058  41.270  10.732
 3313W        W75039  14.513   3.884   1.380
 3314W        W75040  34.550  12.728   0.979
 3315W        W75041  37.195  42.015   3.745
 3316W        W75042  13.048  28.011   5.236
 3317W        W75043   3.807  43.177  14.804
 3318W        W75044   4.363  29.157   1.336
 3319W        W75045  30.205   2.834  12.037
 3320W        W75046  23.046  43.776  10.549
 3321W        W75047   5.981  35.063  12.018
 3322W        W75048  39.509  26.786   0.375
 3323W        W75049  17.480  32.572  11.032
 3324W        W75050   7.738  43.747   2.264
 3325W        W75051  44.995   5.822   2.336
 3326W        W75052  24.698  23.475  11.667
 3327W        W75053  31.503   4.518  14.348
 3328W        W75054  24.699   6.397  13.982
 3329W        W75055  40.328  34.485  14.973
 3330W        W75056  22.447  16.685   2.277
 3331W        W75057  24.733   3.163  14.266
 3332W        W75058  19.068  33.550  11.910
 3333W        W75059  34.652  16.446   1.044
 3334W        W75060  39.606  27.998  12.634
 3335W        W75061  14.116  16.816   1.906
 3336W        W75062   2.446  16.671  14.731
 3337W        W75063  36.993   9.875  11.135
 3338W        W75064  25.425  23.618  10.525
 3339W        W75065  35.900  11.161  11.657
 3340W        W75066  42.499   9.696  10.658
 3341W        W75067   3.040  38.063  11.363
 3342W        W75068   7.269  22.524   1.327
 3343W        W75069  15.036  18.524   4.342
 3344W        W75070  17.278  28.041   0.048
 3345W        W75071  36.809   5.418   1.737
 3346W        W75072   8.801  11.613   3.830
 3347W        W75073  34.554  18.724   2.935
 3348W        W75074  17.841  20.552   2.278
 3349W        W75075  29.035   6.303  12.848
 3350W        W75076  36.391  27.967  13.982
 3351W        W75077   0.293  18.544  10.841
 3352W        W75078  42.101  28.541  11.977
 3353W        W75079  24.733  21.164  12.342
 3354W        W75080  11.854  26.581   1.308
 3355W        W75081   3.877  16.612  14.597
 3356W        W75082  21.771   4.830  10.117
 3357W        W75083  22.338  11.720   0.458
 3358W        W75084  11.107  32.360   3.097
 3359W        W75085  13.788  35.179   1.042
 3360W        W75086   6.801   5.772  13.569
 3361W        W75087  34.053   6.639   1.914
 3362W        W75088  15.682  12.928  12.972
 3363W        W75089  17.606  43.463   2.767
 3364W        W75090  38.601  13.671  13.376
 3365W        W75091   3.871   7.726  14.015
 3366W        W75092  21.064  12.054   4.950
 3367W        W75093  44.885   8.824  10.730
 3368W        W75094  38.042   7.991  12.626
 3369W        W75095  15.227  34.770  13.261
 3370W        W75096   5.623   7.472  13.462
 3371W        W75097   9.844   1.826   3.982
 3372W        W75098  24.029   4.724  12.019
 3373W        W75099  18.598  39.904   1.406
 3374W        W75100  44.162  38.379   0.961
 3375W        W75101  12.902  37.801  10.635
 3376W        W75102   3.969  10.872   3.187
 3377W        W75103  15.013  33.109   2.441
 3378W        W75104  41.796  30.100  12.579
 3379W        W75105   8.230  37.051   4.881
 3380W        W75106  36.564   0.287   1.441
 3381W        W75107  10.389  39.535   1.698
 3382W        W75108  10.585   5.821  11.955
 3383W        W75109   7.991  33.377  11.530
 3384W        W75110  42.895  16.196  13.395
 3385W        W75111   0.579  34.623  11.710
 3386W        W75112  18.290   7.825  11.722
 3387W        W75113  32.064  21.079  13.838
 3388W        W75114  36.016  11.832  12.147
 3389W        W75115  35.601  37.052   0.880
 3390W        W75116  34.989  33.005  12.550
 3391W        W75117  18.313   6.143  14.973
 3392W        W75118  36.080  43.022  13.991
 3393W        W75119  20.499  11.870   1.198
 3394W        W75120  24.571  12.407  12.197
 3395W        W75121  23.873  18.562   1.344
 3396W        W75122   3.509  30.264   3.682
 3397W        W75123  28.099  35.383   2.691
 3398W        W75124  24.394  39.821   1.476
 3399W        W75125   0.476   0.391  12.899
 3400W        W75126  35.630  24.500   2.630
 3401W        W75127   5.344  20.271  13.430
 3402W        W75128   8.336  19.262   3.685
 3403W        W75129  14.716  32.445   4.802
 3404W        W75130  22.440  11.931   5.122
 3405W        W75131  17.077   7.966   3.743
 3406W        W75132   6.262   5.944   3.216
 3407W        W75133   1.240  13.284  14.855
 3408W        W75134  18.769  30.811  11.994
 3409W        W75135  24.712  43.744  11.182
 3410W        W75136   0.297  14.424   1.414
 3411W        W75137  40.020  40.816  10.946
 3412W        W75138   0.975  34.162   4.095
 3413W        W75139  24.263  26.345  10.962
 3414W        W75140  25.105  20.704  13.179
 3415W        W75141  41.954  22.202   4.642
 3416W        W75142  27.096  11.029   0.876
 3417W        W75143  26.933  40.744  10.545
 3418W        W75144   6.801  24.566  11.508
 3419W        W75145  10.192  11.341  13.911
 3420W        W75146   0.959   3.861   0.784
 3421W        W75147  16.839  21.007  10.657
 3422W        W75148   7.763  14.045   0.288
 3423W        W75149  24.482   1.240  11.834
 3424W        W75150   4.051   9.407   3.429
 3425W        W75151   8.263  12.750   4.300
 3426W        W75152  38.046  35.347   3.884
 3427W        W75153  42.935  37.783   0.486
 3428W        W75154  22.905  25.459   0.984
 3429W        W75155   5.597  40.837   3.856
 3430W        W75156  40.635  33.319  12.799
 3431W        W75157  17.509  26.374   9.920
 3432W        W75158  40.062  16.969  11.200
 3433W        W75159  20.487   3.931   1.296
 3434W        W75160  31.862   8.760  12.992
 3435W        W75161  25.154  36.766   3.768
 3436W        W75162   4.888   5.257   4.084
 3437W        W75163   1.073  39.811   1.252
 3438W        W75164   2.386   3.118   1.749
 3439W        W75165  21.064  14.806  14.952
 3440W        W75166   7.386  24.510   4.253
 3441W        W75167  19.653  43.577   3.501
 3442W        W75168  23.145  31.670  13.361
 3443W        W75169  23.749   2.928   1.987
 3444W        W75170  35.439   1.784  11.217
 3445W        W75171  41.886  44.072   1.681
 3446W        W75172   9.537  30.884  13.387
 3447W        W75173  36.596  41.309  11.600
 3448W        W75174   5.408  22.865  11.915
 3449W        W75175   5.728  35.113  13.820
 3450W        W75176   9.245  15.551   4.551
 3451W        W75177  44.485   4.920  13.903
 3452W        W75178   9.218  10.307  13.280
 3453W        W75179  40.009  18.513  14.791
 3454W        W75180  25.521  41.558   1.291
 3455W        W75181  17.894  31.390   3.716
 3456W        W75182  41.678   6.337   3.716
 3457W        W75183  31.093  17.492  11.969
 3458W        W75184   6.188  11.171  10.632
 3459W        W75185  32.187  34.096   4.490
 3460W        W75186  37.066  14.183  12.906
 3461W        W75187  17.070  17.170  14.815
 3462W        W75188  42.819  33.476   4.596
 3463W        W75189  34.528  41.929   1.243
 3464W        W75190   7.370  43.312   3.087
 3465W        W75191  43.080  32.919   1.767
 3466W        W75192  33.956  35.171   1.346
 3467W        W75193  17.257  19.085   1.239
 3468W        W75194  20.946  23.091  14.433
 3469W        W75195  19.641  22.832   1.244
 3470W        W75196  27.117  14.305   2.237
 3471W        W75197  12.196  39.937  12.966
 3472W        W75198  13.581  32.919   3.909
 3473W        W75199  37.065  40.069  14.525
 3474W        W75200  41.027  17.564  13.806
 3475W        W75201  36.018  11.464  12.545
 3476W        W75202  26.380   6.420  12.462
 3477W        W75203  39.545  21.314  10.182
 3478W        W75204  41.592  38.993  11.091
 3479W        W75205   2.681   8.380   0.285
 3480W        W75206  19.967   4.457  12.005
 3481W        W75207  11.561  26.181   3.950
 3482W        W75208   0.684   1.438   0.417
 3483W        W75209  27.157  44.585  10.611
 3484W        W75210  19.650  16.803  12.800
 3485W        W75211  43.450   0.807  11.006
 3486W        W75212  11.656  34.448   0.953
 3487W        W75213  19.107  35.315   2.380
 3488W        W75214  41.917   5.174   3.328
 3489W        W75215  22.205   2.906  11.265
 3490W        W75216  18.318  33.431  13.910
 3491W        W75217  30.633   1.735  12.823
 3492W        W75218  44.388   0.532   2.301
 3493W        W75219  42.817  18.277   2.141
 3494W        W75220  35.580  38.017   2.843
 3495W        W75221   5.411  11.405   4.048
 3496W        W75222   7.409  14.188   3.041
 3497W        W75223  24.261  28.921  13.015
 3498W        W75224  32.031  33.890  14.793
 3499W        W75225  18.641  42.221  14.291
 3500W        W75226  31.092  31.973  14.841
 3501W        W75227  30.139  18.415   1.724
 3502W        W75228   6.508  40.288   1.321
 3503W        W75229  39.016  20.143   0.399
 3504W        W75230  39.828  30.070   3.421
 3505W        W75231  13.306  14.504  12.583
 3506W        W75232  28.087   0.465  12.146
 3507W        W75233  41.408   9.278  11.212
 3508W        W75234  11.327   4.532   1.503
 3509W        W75235  38.321  28.490  12.733
 3510W        W75236   7.782   8.817  10.706
 3511W        W75237  24.655  34.923   4.334
 3512W        W75238   9.747   4.452  14.247
 3513W        W75239  29.161  23.891  13.934
 3514W        W75240  10.714  22.133   3.074
 3515W        W75241   6.338   0.726   3.756
 3516W        W75242   1.274   4.391   1.721
 3517W        W75243   8.787  31.107   4.318
 3518W        W75244  24.754  31.131  12.042
 3519W        W75245  37.641  12.291   3.149
 3520W        W75246  40.839  10.546  11.129
 3521W        W75247  11.149  34.904  14.924
 3522W        W75248   3.248  20.391  12.028
 3523W        W75249   6.756  15.845  13.325
 3524W        W75250  43.965  43.947  14.478
 3525W        W75251  10.127   9.730   2.808
 3526W        W75252  10.647  17.293  11.566
 3527W        W75253  42.330  10.099   0.590
 3528W        W75254  26.990  17.534  12.568
 3529W        W75255   7.988  12.655   2.907
 3530W        W75256   2.532  10.378   2.302
 3531W        W75257  27.068   5.891  14.362
 3532W        W75258   1.200   5.653  10.743
 3533W        W75259  29.122  42.960  12.142
 3534W        W75260  19.670  13.183   1.190
 3535W        W75261  35.117   2.848  13.072
 3536W        W75262  29.526   8.694  14.293
 3537W        W75263  28.969  12.178   1.964
 3538W        W75264  44.026  33.874  13.922
 3539W        W75265  10.770  27.920  11.953
 3540W        W75266  39.800   2.974   4.706
 3541W        W75267  22.343  12.257  10.094
 3542W        W75268  11.365   7.370  13.655
 3543W        W75269  37.603  34.059  13.183
 3544W        W75270  24.175  37.538   2.316
 3545W        W75271  36.561  25.281   2.841
 3546W        W75272  16.762  31.679   3.412
 3547W        W75273  40.034   5.347  13.595
 3548W        W75274  30.002  37.626   3.144
 3549W        W75275  18.271  15.936   4.038
 3550W        W75276   6.387  14.253  14.502
 3551W        W75277  12.403   6.951  10.644
 3552W        W75278   4.298  38.887  12.974
 3553W        W75279   9.779   6.666   4.687
 3554W        W75280   3.890  39.243  10.978
 3555W        W75281  19.480  10.712   2.333
 3556W        W75282   2.830  13.662  11.569
 3557W        W75283  26.567   8.827   4.163
 3558W        W75284  30.408  30.152   3.239
 3559W        W75285  14.581  44.926  13.419
 3560W        W75286   4.836   5.422  12.120
 3561W        W75287  26.779  23.277   1.176
 3562W        W75288  26.603  23.503  13.659
 3563W        W75289  23.441   9.402  14.858
 3564W        W75290  15.674  44.688  11.622
 3565W        W75291  25.451  30.136  14.386
 3566W        W75292  37.494  34.043  14.943
 3567W        W75293  27.066  36.092   4.433
 3568W        W75294   4.967   6.846   3.677
 3569W        W75295   9.167  14.394  12.750
 3570W        W75296  19.958  15.359   0.403
 3571W        W75297  26.069  31.971  13.076
 3572W        W75298  11.868  43.457  12.868
 3573W        W75299   0.341   4.891  14.296
 3574W        W75300  44.392  21.683  13.082
 3575W        W75301  29.298  39.864  14.533
 3576W        W75302  12.695   6.461   0.299
 3577W        W75303  37.077  43.953   2.264
 3578W        W75304  21.489  27.648   2.578
 3579W        W75305   8.698   6.230   1.997
 3580W        W75306   9.173  37.402   3.176
 3581W        W75307  31.051  43.756  11.144
 3582W        W75308  26.213   9.839   0.863
 3583W        W75309   6.087   7.165  11.993
 3584W        W75310  14.266  29.995  12.951
 3585W        W75311   3.168  36.507   3.722
 3586W        W75312  32.846   8.161  11.949
 3587W        W75313  39.511  12.145  10.714
 3588W        W75314   5.744  38.137  11.891
 3589W        W75315   1.672  23.655   2.601
 3590W        W75316  26.845  19.073   3.588
 3591W        W75317   3.846   2.790   1.431
 3592W        W75318  36.201  37.860  12.563
 3593W        W75319  22.794  44.462   2.698
 3594W        W75320  18.116  30.317   3.405
 3595W        W75321  42.849  19.979  14.784
 3596W        W75322   9.011  28.993  14.281
 3597W        W75323   3.382   7.159   1.125
 3598W        W75324  27.916  35.881  10.755
 3599W        W75325   5.398  32.937   2.554
 3600W        W75326  27.594  25.747   2.111
 3601W        W75327  43.482  11.828  13.036
 3602W        W75328  38.588  23.703   0.439
 3603W        W75329   8.020   5.980  12.814
 3604W        W75330  44.976  39.517  11.887
 3605W        W75331  10.224  18.775  11.639
 3606W        W75332  40.362  19.709  12.892
 3607W        W75333   5.401  12.566  14.898
 3608W        W75334  19.315  13.864  13.439
 3609W        W75335   0.927  17.231   2.329
 3610W        W75336  31.569  35.036   3.117
 3611W        W75337  20.668   9.337   1.189
 3612W        W75338  39.390  38.916   3.250
 3613W        W75339  33.075  28.130  10.377
 3614W        W75340  24.790  40.619   4.916
 3615W        W75341  16.584  40.463  11.161
 3616W        W75342  39.865   1.905  11.572
 3617W        W75343  42.870  28.357  14.542
 3618W        W75344  26.081   3.238  12.440
 3619W        W75345  25.682   7.605  10.736
 3620W        W75346  16.304  28.718   3.465
 3621W        W75347   8.302  17.557   2.802
 3622W        W75348  12.630  20.124  13.431
 3623W        W75349  32.095   5.860  13.567
 3624W        W75350   4.261  18.790   1.616
 3625W        W75351  31.060  39.440   2.804
 3626W        W75352  19.954  36.323   2.464
 3627W        W75353  12.935   7.682   4.688
 3628W        W75354   4.517  15.470   5.338
 3629W        W75355  25.667  35.100   1.337
 3630W        W75356   3.339   9.305  13.243
 3631W        W75357   1.831  29.095  13.059
 3632W        W75358   2.815   7.942  13.378
 3633W        W75359   5.964  26.925  11.655
 3634W        W75360  18.117   9.261  13.009
 3635W        W75361  34.789   5.929   4.521
 3636W        W75362  27.233  25.687  11.406
 3637W        W75363  24.169  14.507  14.302
 3638W        W75364  26.557  40.476  12.463
 3639W        W75365   7.432  40.296  12.522
 3640W        W75366  39.474  20.663   1.327
 3641W        W75367   7.370   8.272  10.780
 3642W        W75368  32.039   9.324  11.407
 3643W        W75369   8.493  24.529  13.579
 3644W        W75370  33.894  18.813  10.979
 3645W        W75371  29.505  13.387   3.164
 3646W        W75372  15.696  25.749   0.399
 3647W        W75373  28.703  28.710  11.486
 3648W        W75374  28.552   6.334  11.159
 3649W        W75375  20.452  16.577   3.623
 3650W        W75376  35.568   4.731   2.991
 3651W        W75377  23.236  27.129  14.757
 3652W        W75378  42.842  17.640   3.668
 3653W        W75379  37.527  44.260  11.103
 3654W        W75380   3.335  36.788  11.600
 3655W        W75381  35.424   3.376   4.042
 3656W        W75382  22.999  14.236   0.889
 3657W        W75383  34.161   6.369  11.122
 3658W        W75384  16.506  23.006  14.525
 3659W        W75385  18.351  16.602   2.211
 3660W        W75386   1.852   4.742  11.129
 3661W        W75387  10.805   8.589  13.932
 3662W        W75388  38.616  37.583   1.224
 3663W        W75389  30.486  11.150  13.661
 3664W        W75390   6.257   5.144  12.076
 3665W        W75391  11.704  25.888  11.109
 3666W        W75392  34.813   2.893  12.141
 3667W        W75393  16.570   8.726   3.643
 3668W        W75394  37.992   3.900   0.426
 3669W        W75395  30.690  29.997  11.662
 3670W        W75396  37.266  33.538   2.841
 3671W        W75397  44.686   0.408   4.723
 3672W        W75398  15.750  22.953   3.246
 3673W        W75399  11.147  29.720  13.684
 3674W        W75400  21.783  39.849  11.454
 3675W        W75401  24.823   2.290   1.768
 3676W        W75402  17.546   5.667  14.945
 3677W        W75403  27.902   9.325   0.129
 3678W        W75404  11.939  29.338  14.296
 3679W        W75405  15.681  31.737  14.910
 3680W        W75406  29.690  18.207   0.924
 3681W        W75407  40.247  42.537   2.153
 3682W        W75408  33.603  43.359  13.807
 3683W        W75409  30.663  24.178  14.918
 3684W        W75410   9.116   8.430  13.035
 3685W        W75411  33.112   9.213   0.942
 3686W        W75412  18.067  37.815   3.664
 3687W        W75413   0.010  37.063   0.611
 3688W        W75414   5.713   7.452  13.964
 3689W        W75415  42.264  29.210   0.844
 3690W        W75416  25.212  28.885  14.835
 3691W        W75417  11.029  29.637   4.106
 3692W        W75418  25.525  30.482   3.310
 3693W        W75419  19.270  10.172   4.195
 3694W        W75420  42.829  27.934   1.343
 3695W        W75421  13.811  32.015  10.454
 3696W        W75422  11.939   5.918   1.852
 3697W        W75423   1.225  10.607   0.206
 3698W        W75424  14.110  32.160   0.170
 3699W        W75425  31.281  19.027  14.918
 3700W        W75426  34.163   1.834   3.752
 3701W        W75427  19.795  33.826   3.709
 3702W        W75428   4.858  38.853   2.462
 3703W        W75429   1.208  13.165  12.502
 3704W        W75430  38.884  23.069  14.719
 3705W        W75431   3.757  26.505  12.958
 3706W        W75432   8.175   1.310   4.119
 3707W        W75433  33.988   4.949  12.467
 3708W        W75434  32.894   8.730   1.824
 3709W        W75435  42.558  31.771  11.888
 3710W        W75436  29.399  22.468  14.843
 3711W        W75437  25.628  36.315  10.742
 3712W        W75438  32.871  27.083   0.025
 3713W        W75439  24.996  18.812   1.404
 3714W        W75440  43.682  29.042  12.150
 3715W        W75441  29.038  31.336  11.011
 3716W        W75442   6.668  26.766   3.301
 3717W        W75443  31.080  25.738   1.263
 3718W        W75444  18.139  44.010   4.572
 3719W        W75445   7.873  24.227  14.927
 3720W        W75446   4.733  13.307  11.783
 3721W        W75447   1.365  37.151  12.858
 3722W        W75448  15.823   1.980  14.422
 3723W        W75449  15.171  13.085  13.067
 3724W        W75450  27.092   5.426  12.055
 3725W        W75451   7.165   2.980   1.842
 3726W        W75452  12.877  10.375  11.702
 3727W        W75453  36.558  42.452   3.334
 3728W        W75454  20.550   8.921  10.876
 3729W        W75455   2.991  27.454   0.384
 3730W        W75456  40.425   6.682  13.085
 3731W        W75457  35.148  28.553   1.690
 3732W        W75458  27.709  13.313   4.501
 3733W        W75459  30.213  41.881   2.928
 3734W        W75460  23.201   6.342   3.196
 3735W        W75461  38.232   3.420   1.267
 3736W        W75462  17.591  15.831   1.411
 3737W        W75463   0.251  39.841  11.362
 3738W        W75464  29.381  41.448   4.969
 3739W        W75465  32.198  22.782   4.988
 3740W        W75466   8.861   6.798  11.377
 3741W        W75467  29.921  43.591  11.911
 3742W        W75468  28.931  16.925   0.403
 3743W        W75469  40.312   4.608  14.821
 3744W        W75470  17.189   0.078   4.017
 3745W        W75471   3.038  41.735   2.971
 3746W        W75472  25.826   9.140  14.335
 3747W        W75473  37.888  20.797  12.029
 3748W        W75474  26.983  29.516   3.630
 3749W        W75475  35.649  44.199   0.435
 3750W        W75476  35.138  11.362   2.828
 3751W        W75477  34.033  43.215   4.983
 3752W        W75478  25.010   0.053  11.490
 3753W        W75479   3.583   6.742  11.165
 3754W        W75480  29.136  11.746  14.841
 3755W        W75481  33.335  31.952   1.085
 3756W        W75482  24.272  18.513  13.702
 3757W        W75483   1.989  30.041   2.188
 3758W        W75484  34.752  19.747  10.728
 3759W        W75485  22.057  41.288  14.854
 3760W        W75486  34.641  38.117  14.919
 3761W        W75487   8.964  19.052   2.200
 3762W        W75488   4.177  35.294  12.635
 3763W        W75489  22.225  22.988  13.857
 3764W        W75490  20.199  37.552  11.477
 3765W        W75491  36.117  33.400  11.888
 3766W        W75492  31.148  13.699   0.857
 3767W        W75493   7.909  17.275  13.061
 3768W        W75494  11.542  42.489  11.950
 3769W        W75495   4.792  28.979   0.316
 3770W        W75496  43.264   6.919  10.995
 3771W        W75497  37.571  21.897   0.720
 3772W        W75498  25.002  44.929  12.366
 3773W        W75499  37.621   3.365   0.545
 3774W        W75500  37.661   0.918   4.733
 3775W        W75501  25.935   6.546   1.233
 3776W        W75502  32.130  41.585  10.553
 3777W        W75503   8.722   2.714  14.816
 3778W        W75504   6.823  43.783  13.762
 3779W        W75505   8.925  24.989  11.946
 3780W        W75506  43.270  28.654  14.740
 3781W        W75507   7.196  39.315  11.482
 3782W        W75508  36.515  29.446  10.734
 3783W        W75509   0.889   6.700  12.731
 3784W        W75510  24.300   5.753  12.476
 3785W        W75511  30.743  39.866   0.920
 3786W        W75512  35.418  12.358   1.617
 3787W        W75513  29.393  13.803  14.472
 3788W        W75514   4.690  40.916   3.847
 3789W        W75515  29.919  36.582  14.957
 3790W        W75516  17.349  37.605   2.289
 3791W        W75517  20.124  38.062  10.750
 3792W        W75518  27.277  43.274   3.414
 3793W        W75519  38.617  43.860  11.657
 3794W        W75520  24.978  17.393  12.742
 3795W        W75521   3.138  27.697  13.844
 3796W        W75522  29.969  37.165   4.603
 3797W        W75523  13.421  22.864   1.653
 3798W        W75524  10.958  34.686   9.712
 3799W        W75525  38.988  27.599  12.406
 3800W        W75526  30.130  12.359   0.009
 3801W        W75527  22.042  15.616  13.472
 3802W        W75528  30.612  28.271  12.056
 3803W        W75529  27.992  19.599   0.918
 3804W        W75530  32.476  10.389  10.460
 3805W        W75531  21.983  31.996  14.344
 3806W        W75532  13.656  44.053  10.734
 3807W        W75533  18.811   9.094  11.698
 3808W        W75534   6.729  38.347  11.935
 3809W        W75535   4.061  27.973  10.103
 3810W        W75536  39.397   8.611   3.247
 3811W        W75537   8.001  12.609  14.377
 3812W        W75538  33.007  14.270  12.001
 3813W        W75539   2.062   0.276   2.573
 3814W        W75540  19.037  42.273  13.451
 3815W        W75541  18.225  29.257  12.421
 3816W        W75542  43.917   3.465   1.180
 3817W        W75543  35.002  22.836  11.167
 3818W        W75544  42.326  25.475   1.258
 3819W        W75545  10.758   9.075   4.153
 3820W        W75546   4.198   8.468  13.532
 3821W        W75547  37.341   7.135   0.010
 3822W        W75548  10.242  28.693  12.993
 3823W        W75549  28.490   5.311  11.505
 3824W        W75550  32.352   0.558   2.899
 3825W        W75551   2.241  17.090   4.619
 3826W        W75552   8.832  33.151  11.982
 3827W        W75553  29.580  39.405   3.397
 3828W        W75554  18.143   4.426  13.938
 3829W        W75555  14.564   3.358   9.955
 3830W        W75556  25.053   9.394  14.148
 3831W        W75557  30.071  38.072  13.974
 3832W        W75558   1.211  28.278  14.890
 3833W        W75559  24.198  24.978  13.948
 3834W        W75560  42.723  44.828  11.650
 3835W        W75561  34.370   9.327  13.994
 3836W        W75562  18.085  43.473   4.738
 3837W        W75563   5.802  29.111   1.861
 3838W        W75564  41.230  23.088  11.855
 3839W        W75565  41.822  22.469   4.197
 3840W        W75566  29.970  34.902  12.548
 3841W        W75567  18.699  38.511  12.180
 3842W        W75568  29.851  29.998  14.093
 3843W        W75569   5.836  23.526  13.420
 3844W        W75570  16.598  38.012  10.322
 3845W        W75571  16.773   2.042  12.523
 3846W        W75572  20.147  42.954   3.454
 3847W        W75573   3.758  11.027   2.732
 3848W        W75574  28.760  14.260  11.363
 3849W        W75575  32.579  36.905  12.024
 3850W        W75576  12.542   7.074   2.513
 3851W        W75577  13.117  10.052   2.541
 3852W        W75578  41.831  19.202   1.272
 3853W        W75579  32.823  19.618   4.572
 3854W        W75580  27.077  44.661  13.660
 3855W        W75581   5.013  37.447  13.917
 3856W        W75582  15.294  24.523  14.454
 3857W        W75583  10.595  21.563   2.142
 3858W        W75584   6.409  28.114   0.384
 3859W        W75585  20.636   7.360   2.371
 3860W        W75586  27.997  36.186   2.164
 3861W        W75587  18.609  25.005  14.917
 3862W        W75588  25.135  21.431   4.150
 3863W        W75589  23.601   7.383  11.608
 3864W        W75590  29.909  15.914  13.376
 3865W        W75591  25.215   8.032  12.353
 3866W        W75592  30.604  42.004  14.657
 3867W        W75593  39.878  16.225  11.581
 3868W        W75594   2.911  36.055   3.586
 3869W        W75595   3.935  34.317  13.179
 3870W        W75596   7.119  14.319   2.229
 3871W        W75597  18.799   3.740  10.638
 3872W        W75598  31.594  39.205  11.553
 3873W        W75599  28.664   9.281  11.161
 3874W        W75600  39.363  27.185   2.217
 3875W        W75601  31.115  44.958   2.658
 3876W        W75602  26.374  11.116  12.815
 3877W        W75603   0.320  40.574  12.893
 3878W        W75604   1.775  21.759   0.794
 3879W        W75605  44.462  32.199   0.215
 3880W        W75606  36.607  20.892  11.518
 3881W        W75607  14.878  19.994   4.732
 3882W        W75608   9.285  12.765  13.845
 3883W        W75609  22.028   7.464   3.827
 3884W        W75610  12.116  28.742   0.190
 3885W        W75611  26.048  11.950   2.996
 3886W        W75612  10.546  21.936  12.847
 3887W        W75613   7.436  17.087  14.327
 3888W        W75614  32.762  19.128  11.491
 3889W        W75615  43.756   8.107   1.380
 3890W        W75616  38.326   5.791   0.553
 3891W        W75617  29.860   6.688   2.276
 3892W        W75618  10.200  29.304   1.866
 3893W        W75619  14.718   3.774  11.074
 3894W        W75620   2.770  19.377  12.965
 3895W        W75621  32.543   9.318   4.249
 3896W        W75622  44.359  41.804   0.371
 3897W        W75623  28.221  30.598  13.958
 3898W        W75624  15.038   9.211  12.319
 3899W        W75625  24.498   1.918  11.523
 3900W        W75626  25.938   9.742  10.645
 3901W        W75627   8.620  25.518  13.894
 3902W        W75628  31.255  15.193  10.462
 3903W        W75629  12.140  11.671   4.233
 3904W        W75630  16.095  21.100  10.993
 3905W        W75631  44.012  38.596  11.520
 3906W        W75632  40.955  13.980   2.223
 3907W        W75633  13.752  33.754   1.861
 3908W        W75634   7.192  31.333  11.097
 3909W        W75635   8.217  33.355  12.529
 3910W        W75636  26.969  35.944  12.374
 3911W        W75637  37.975  19.794  11.106
 3912W        W75638  42.451  13.554  12.003
 3913W        W75639   9.176  16.129  11.546
 3914W        W75640  35.028  28.513   2.195
 3915W        W75641  13.786   0.630   1.799
 3916W        W75642  16.659  37.887   3.833
 3917W        W75643  22.585  22.687   0.836
 3918W        W75644  33.371   3.767   0.495
 3919W        W75645  32.875   1.926   2.278
 3920W        W75646   3.442  31.528   4.020
 3921W        W75647   6.327  20.297   4.677
 3922W        W75648  25.677  34.404  12.473
 3923W        W75649  27.929  44.240   1.034
 3924W        W75650  28.551   7.327  11.445
 3925W        W75651  30.753  27.843   1.700
 3926W        W75652   5.162  25.650  12.888
 3927W        W75653   2.252   7.118  13.526
 3928W        W75654  21.957  29.038  14.912
 3929W        W75655  32.633  42.271   1.359
 3930W        W75656   8.438  40.783   4.657
 3931W        W75657  41.969  40.059   1.204
 3932W        W75658  11.843  18.542   2.927
 3933W        W75659  17.468  42.456  11.490
 3934W        W75660  20.288   0.766  13.873
 3935W        W75661  16.045  16.720  14.958
 3936W        W75662  20.152  13.434   2.423
 3937W        W75663  22.456  31.169  14.317
 3938W        W75664  43.931   4.288  14.338
 3939W        W75665  42.980  32.565   3.423
 3940W        W75666  37.197  11.072   0.203
 3941W        W75667   4.174  29.511  11.984
 3942W        W75668  40.095  31.456  14.971
 3943W        W75669  34.055  21.726   1.043
 3944W        W75670   3.917  26.547   0.322
 3945W        W75671  25.668  37.819   0.258
 3946W        W75672  23.009  44.857   4.129
 3947W        W75673   6.756  20.355   3.210
 3948W        W75674  15.172  25.291   4.325
 3949W        W75675   0.426  21.020  14.835
 3950W        W75676   9.173  26.168   4.197
 3951W        W75677  34.867  26.660   4.595
 3952W        W75678  10.400   7.343   4.858
 3953W        W75679  33.389  22.234  12.540
 3954W        W75680  12.792  44.711   4.723
 3955W        W75681   1.640  23.942   3.414
 3956W        W75682  27.896  13.363  12.483
 3957W        W75683  32.485  15.303  14.742
 3958W        W75684  36.646  28.941   0.780
 3959W        W75685  29.756  10.319  13.399
 3960W        W75686  11.350  10.229   4.584
 3961W        W75687  13.257  24.041   4.754
 3962W        W75688  34.569  36.336   1.725
 3963W        W75689  10.669   6.598   2.662
 3964W        W75690  41.900  42.359  10.685
 3965W        W75691  13.159  14.703   0.325
 3966W        W75692  10.726  34.163  14.554
 3967W        W75693  21.616  33.471   0.427
 3968W        W75694  26.383   6.893  11.558
 3969W        W75695  42.044  33.601  10.304
 3970W        W75696  39.756  36.978  13.401
 3971W        W75697   6.564   3.427   1.514
 3972W        W75698  28.402  26.845   0.209
 3973W        W75699  35.014  12.341   2.812
 3974W        W75700  16.072  15.843   1.256
 3975W        W75701  15.790  14.401  14.730
 3976W        W75702  40.834   8.595  13.433
 3977W        W75703  25.523   4.891  13.629
 3978W        W75704  17.689  29.994   3.409
 3979W        W75705  43.381  20.639  12.621
 3980W        W75706  21.459  23.127  14.514
 3981W        W75707   8.229   8.109   3.168
 3982W        W75708  11.748  37.887  11.507
 3983W        W75709  23.472  39.242   1.313
 3984W        W75710  34.740  10.003  14.466
 3985W        W75711  37.517  20.237  13.994
 3986W        W75712  17.997  29.347   0.482
 3987W        W75713  35.608   9.500   3.602
 3988W        W75714  41.383  30.065   2.064
 3989W        W75715   1.428  14.950   3.428
 3990W        W75716  14.815  14.621   3.488
 3991W        W75717  18.305   1.738  14.018
 3992W        W75718  42.477  40.747   2.435
 3993W        W75719  38.407  33.854   4.268
 3994W        W75720  24.436  38.459   0.261
 3995W        W75721  22.732  32.000  10.630
 3996W        W75722  43.352  34.200   2.305
 3997W        W75723   9.801  44.971   4.597
 3998W        W75724  43.043  29.007  10.975
 3999W        W75725   0.059   9.363  14.446
 4000W        W75726  39.784  18.124   1.658
 4001W        W75727  31.440  31.476  10.630
 4002W        W75728  11.924  35.526   3.215
 4003W        W75729  23.076   6.449  12.554
 4004W        W75730  14.184  11.855  12.980
 4005W        W75731  40.351   1.824  14.908
 4006W        W75732  10.314  22.157   2.741
 4007W        W75733  10.693   0.059   0.419
 4008W        W75734  20.059  16.360   3.915
 4009W        W75735  38.857  11.962   0.766
 4010W        W75736  30.596  31.490   0.678
 4011W        W75737  36.612  21.096  13.901
 4012W        W75738  34.593  20.915   0.517
 4013W        W75739   2.066  39.028   1.392
 4014W        W75740  38.981   1.594   3.087
 4015W        W75741  29.744  13.083  12.135
 4016W        W75742  38.478  32.904  10.598
 4017W        W75743   2.439  38.922   2.309
 4018W        W75744  44.762   0.842  12.448
 4019W        W75745  24.044  28.071  14.883
 4020W        W75746  10.859  29.095   4.881
 4021W        W75747  11.226  32.514  10.928
 4022W        W75748  24.017  20.947   3.132
 4023W        W75749  14.554   2.399   1.482
 4024W        W75750  19.320  44.448   2.425
 4025W        W75751  17.264   5.774   4.596
 4026W        W75752  20.346  22.666  10.620
 4027W        W75753   5.328  37.737  14.370
 4028W        W75754   6.226  14.537  11.614
 4029W        W75755  23.691   5.918   4.710
 4030W        W75756  14.059  37.990   2.396
 4031W        W75757   6.628  14.850  11.587
 4032W        W75758  26.949  26.305  13.960
 4033W        W75759  25.611   2.946   2.361
 4034W        W75760  35.830  17.396  14.089
 4035W        W75761  22.198  13.587  10.644
 4036W        W75762  42.275  11.391  12.504
 4037W        W75763   4.847  11.354  13.427
 4038W        W75764  41.521  32.041  14.976
 4039W        W75765  11.406   6.231   0.752
 4040W        W75766   9.203  42.729  10.435
 4041W        W75767  43.593  17.510  13.436
 4042W        W75768  40.803   9.058   2.814
 4043W        W75769   0.549  37.689  13.815
 4044W        W75770  38.604  15.279   3.733
 4045W        W75771   7.677  36.307  14.459
 4046W        W75772  38.371   8.494   1.359
 4047W        W75773   5.916  23.076   0.833
 4048W        W75774  44.668  19.795   4.742
 4049W        W75775  30.548  30.385  10.727
 4050W        W75776  28.474  17.525   1.846
 4051W        W75777  21.674  40.410  13.500
 4052W        W75778  38.399  38.798   3.189
 4053W        W75779  34.404  24.733  10.952
 4054W        W75780  34.063  10.261  13.144
 4055W        W75781  22.437   9.242   0.860
 4056W        W75782  43.842  13.897   1.325
 4057W        W75783  16.411   6.851  11.155
 4058W        W75784  30.651  32.899  13.471
 4059W        W75785  10.861  16.323   3.720
 4060W        W75786  40.870  40.389   3.214
 4061W        W75787  37.989  21.580  11.619
 4062W        W75788  21.035  10.187  12.964
 4063W        W75789   3.678  32.162   2.179
 4064W        W75790  31.376  36.092   1.506
 4065W        W75791  35.139  31.386   0.746
 4066W        W75792  16.185  22.016  14.478
 4067W        W75793  30.460  20.729  14.388
 4068W        W75794  14.736  25.092  10.659
 4069W        W75795  14.346  16.621   3.310
 4070W        W75796  26.410  35.451  12.583
 4071W        W75797  16.881  23.152  11.578
 4072W        W75798  39.427   3.353  13.356
 4073W        W75799  19.314  40.072   3.850
 4074W        W75800  20.142  34.852   2.835
 4075W        W75801  21.699  17.857  12.326
 4076W        W75802  21.823  28.032   2.650
 4077W        W75803  29.906  34.422  11.936
 4078W        W75804  38.621  41.735   3.915
 4079W        W75805  14.867  37.762  12.148
 4080W        W75806  11.311  38.777   0.485
 4081W        W75807  15.855  38.678  11.821
 4082W        W75808   7.144  29.050   4.898
 4083W        W75809  44.788   6.306   2.376
 4084W        W75810   9.511  33.054   9.471
 4085W        W75811   5.768  33.365  13.326
 4086W        W75812  13.256  38.163   1.752
 4087W        W75813   4.034  42.206  10.663
 4088W        W75814  21.232  24.127  12.968
 4089W        W75815  41.826   4.736   3.097
 4090W        W75816   8.247  30.187   2.138
 4091W        W75817  42.645  42.806   3.248
 4092W        W75818   6.650  17.348   0.323
 4093W        W75819  29.336  27.376  13.914
 4094W        W75820  12.292   7.248   0.407
 4095W        W75821  36.011  26.874   3.204
 4096W        W75822   1.460  43.758   4.367
 4097W        W75823  11.438  26.603  11.941
 4098W        W75824  24.671  42.818  14.889
 4099W        W75825  13.905  38.432  12.913
 4100W        W75826  25.668  24.742   1.036
 4101W        W75827  19.990  43.105   0.965
 4102W        W75828  34.691  28.927  14.294
 4103W        W75829  33.093  26.877   0.440
 4104W        W75830  16.302  11.527  11.637
 4105W        W75831  25.501  24.200  14.881
 4106W        W75832   6.438   9.850  13.378
 4107W        W75833  22.669  29.610  12.450
 4108W        W75834  29.042  30.851   4.637
 4109W        W75835   2.941   0.141   4.242
 4110W        W75836  13.273  43.208   3.219
 4111W        W75837  26.627  41.299   3.817
 4112W        W75838  15.769  24.300   4.703
 4113W        W75839  43.347  22.232  11.611
 4114W        W75840  40.234  11.830  13.059
 4115W        W75841  35.389   0.386  14.489
 4116W        W75842   5.385  18.468  13.467
 4117W        W75843  11.124   8.093  10.953
 4118W        W75844   5.881  22.630   2.875
 4119W        W75845   5.330  34.867  11.491
 4120W        W75846  37.121   6.126   4.939
 4121W        W75847  27.639  21.442  12.488
 4122W        W75848  24.634  32.510  12.570
 4123W        W75849   5.724  30.964  10.700
 4124W        W75850   3.967  36.291   2.376
 4125W        W75851  13.804  41.574  12.408
 4126W        W75852  44.858   3.239   3.198
 4127W        W75853  10.701  43.866   2.083
 4128W        W75854   8.907   9.711   1.926
 4129W        W75855  39.428   7.214  10.566
 4130W        W75856  35.618  19.271  10.909
 4131W        W75857  19.495  18.780  11.939
 4132W        W75858  20.764  29.941   4.854
 4133W        W75859  20.250   6.780   1.792
 4134W        W75860  18.752  22.593  10.760
 4135W        W75861  31.363  22.658  12.938
 4136W        W75862   4.777  25.482  10.736
 4137W        W75863  28.885   1.698   0.303
 4138W        W75864  28.464   7.408   0.303
 4139W        W75865   3.785  37.943  13.641
 4140W        W75866  28.603  36.005   3.774
 4141W        W75867  24.649  22.183  13.057
 4142W        W75868  15.619  12.386   4.491
 4143W        W75869  20.621  35.676   2.751
 4144W        W75870  11.700  42.640   2.814
 4145W        W75871  17.648  15.328  12.045
 4146W        W75872  42.791  42.366  10.579
 4147W        W75873   2.327  23.081   3.329
 4148W        W75874  21.567  25.056   5.005
 4149W        W75875  19.710  40.331  14.874
 4150W        W75876  12.629  15.347   2.748
 4151W        W75877   1.448   3.864   3.507
 4152W        W75878   4.433   9.661  12.647
 4153W        W75879  40.058  14.219  11.114
 4154W        W75880  26.103  12.358  12.058
 4155W        W75881  27.089   6.977  10.265
 4156W        W75882  10.847   9.166  14.776
 4157W        W75883  38.787   0.148  12.091
 4158W        W75884  24.015   3.602  12.873
 4159W        W75885  20.272  24.992   4.111
 4160W        W75886   0.481  42.039  11.927
 4161W        W75887  38.416  37.435  13.906
 4162W        W75888  18.501  19.934   1.902
 4163W        W75889  38.486  23.737  12.768
 4164W        W75890  12.695   2.268  12.380
 4165W        W75891  10.922  38.960   4.140
 4166W        W75892  38.660  14.273  10.169
 4167W        W75893  29.949   0.280   0.008
 4168W        W75894  10.895  36.001  14.426
 4169W        W75895  26.128  14.805   2.566
 4170W        W75896  10.281  24.495   4.866
 4171W        W75897  11.193  24.660   1.273
 4172W        W75898  14.990  22.772  12.630
 4173W        W75899  36.125  23.234   3.296
 4174W        W75900  38.292   1.969  14.461
 4175W        W75901  25.528   9.291  13.357
 4176W        W75902   6.930  33.058   3.028
 4177W        W75903  36.441   7.486  14.000
 4178W        W75904   0.457  35.538  14.714
 4179W        W75905   0.369   0.942  14.764
 4180W        W75906  25.137   7.207   0.230
 4181W        W75907   4.786  38.897  13.911
 4182W        W75908  39.118  12.288  14.817
 4183W        W75909  21.784  31.120  11.923
 4184W        W75910   5.361  23.155  13.479
 4185W        W75911  25.495  31.069   1.680
 4186W        W75912   9.045  33.420   2.534
 4187W        W75913  32.379   6.276   3.281
 4188W        W75914  23.997   3.884   0.697
 4189W        W75915  35.568  22.490   1.268
 4190W        W75916  13.297   5.275   1.738
 4191W        W75917  10.428   0.687   2.640
 4192W        W75918  33.859  23.909   3.742
 4193W        W75919   4.401  41.475  13.448
 4194W        W75920  44.950   4.915  11.496
 4195W        W75921  32.822   8.664  11.998
 4196W        W75922  38.421  25.190  14.567
 4197W        W75923  10.175   0.217   2.716
 4198W        W75924  34.160  20.870   3.286
 4199W        W75925  11.824  37.632   1.890
 4200W        W75926  22.992  36.604  10.409
 4201W        W75927   6.268  27.990  12.997
 4202W        W75928  35.459   0.135  14.962
 4203W        W75929  34.370  29.630   0.351
 4204W        W75930  11.216  10.794  14.599
 4205W        W75931   6.855  24.125   3.275
 4206W        W75932  19.972  39.474  11.600
 4207W        W75933  11.211  17.006   0.130
 4208W        W75934   2.596  41.978   2.891
 4209W        W75935  19.468  26.939  12.532
 4210W        W75936  24.614  39.266   2.880
 4211W        W75937   2.167   0.166  13.608
 4212W        W75938   1.818  13.315  11.083
 4213W        W75939  26.294  38.240  12.106
 4214W        W75940   9.339  15.336   4.091
 4215W        W75941  30.276  33.392   0.879
 4216W        W75942   1.418   0.777  12.201
 4217W        W75943  40.584  39.516  11.046
 4218W        W75944  40.538   6.912  11.190
 4219W        W75945  31.488  32.834  11.062
 4220W        W75946  11.467   3.261   1.776
 4221W        W75947   0.061  12.589  11.151
 4222W        W75948  37.340   9.430  11.867
 4223W        W75949   5.113  36.481   1.738
 4224W        W75950  15.548   8.808   0.348
 4225W        W75951  25.696  24.317   4.030
 4226W        W75952  17.374  38.117  13.116
 4227W        W75953   3.376  18.645   4.523
 4228W        W75954  12.612   0.959   1.395
 4229W        W75955  21.746   6.511   0.234
 4230W        W75956  24.652  10.740   1.197
 4231W        W75957  28.947  16.760  12.944
 4232W        W75958  44.080  39.084   4.629
 4233W        W75959   7.140  26.593   3.211
 4234W        W75960  24.244  23.700  11.614
 4235W        W75961  44.266  41.780  11.458
 4236W        W75962  20.798  26.467  13.879
 4237W        W75963  10.112  42.716  11.097
 4238W        W75964  14.318  11.826   4.126
 4239W        W75965  31.464  16.495   2.840
 4240W        W75966  24.065  12.338  12.842
 4241W        W75967  14.724  14.110   1.357
 4242W        W75968   2.426  11.144   0.356
 4243W        W75969   7.689   5.177   4.288
 4244W        W75970  23.534  26.561  13.781
 4245W        W75971   1.488  12.702  12.513
 4246W        W75972  14.820   0.705  12.958
 4247W        W75973   7.238  34.800   0.272
 4248W        W75974   0.983  39.361   1.883
 4249W        W75975  32.487   8.575  11.621
 4250W        W75976  11.141  40.885   0.996
 4251W        W75977  10.058  33.490   2.290
 4252W        W75978  31.416   3.583   5.019
 4253W        W75979  27.522  23.143  12.362
 4254W        W75980  15.005  19.049  12.122
 4255W        W75981  11.971  17.803   2.906
 4256W        W75982   1.785   4.294  12.600
 4257W        W75983  19.715  27.569  10.543
 4258W        W75984   2.721  25.151   1.610
 4259W        W75985  15.562  34.522   0.724
 4260W        W75986  11.303  37.845   2.866
 4261W        W75987  40.344  27.571  13.489
 4262W        W75988   2.500  35.481  14.954
 4263W        W75989  37.484   0.778   4.238
 4264W        W75990  17.344  35.394   5.003
 4265W        W75991  35.359   3.272  12.883
 4266W        W75992  19.995  18.687   1.074
 4267W        W75993  11.950   4.423  10.959
 4268W        W75994   6.928  32.466   4.880
 4269W        W75995  23.751  39.991  11.624
 4270W        W75996  29.911  22.168  10.467
 4271W        W75997  20.977  41.402   0.691
 4272W        W75998  37.354  18.253   1.305
 4273W        W75999  32.700  28.172  13.829
 4274W        W76000  31.894   9.418   2.308
 4275W        W76001   5.722   0.963  11.348
 4276W        W76002  34.469  32.623  13.382
 4277W        W76003  29.165   6.799  12.951
 4278W        W76004  15.833  39.435  14.877
 4279W        W76005  19.762  14.155   2.471
 4280W        W76006  30.450  24.093  11.483
 4281W        W76007  42.490  21.311  13.835
 4282W        W76008   4.765   5.026   5.409
 4283W        W76009  14.849  20.246   3.210
 4284W        W76010  39.064  23.971  11.143
 4285W        W76011  25.977   5.277  11.247
 4286W        W76012  22.194  32.163   5.082
 4287W        W76013   0.380  25.123   3.691
 4288W        W76014  33.826   9.190  10.534
 4289W        W76015  39.261  29.924  12.518
 4290W        W76016  25.633  14.160   5.132
 4291W        W76017  37.524  30.895  14.044
 4292W        W76018   6.594  41.553   4.733
 4293W        W76019   4.923  12.859   0.354
 4294W        W76020  15.216   3.538  11.152
 4295W        W76021   9.804   4.249   3.800
 4296W        W76022  41.846  31.893   4.058
 4297W        W76023  28.582  24.280   0.264
 4298W        W76024   3.098  41.237  13.403
 4299W        W76025  16.177  25.720   2.872
 4300W        W76026   6.231  41.162   3.935
 4301W        W76027  15.069   9.652  12.974
 4302W        W76028  18.000  13.197  12.037
 4303W        W76029  39.860  20.495  10.704
 4304W        W76030   5.524  12.562   4.603
 4305W        W76031  28.304  16.589  11.652
 4306W        W76032  12.615  21.098   2.838
 4307W        W76033   9.864  13.387   4.721
 4308W        W76034  11.161  42.253   1.729
 4309W        W76035  24.989  13.510   1.657
 4310W        W76036  21.265  38.101  10.510
 4311W        W76037  14.278  39.065   2.614
 4312W        W76038   5.668  23.961   2.642
 4313W        W76039  18.822  13.570   4.306
 4314W        W76040  24.084  43.867   3.121
 4315W        W76041  27.221  31.850  11.763
 4316W        W76042  20.965  14.145  11.913
 4317W        W76043  26.225  37.254  12.626
 4318W        W76044  44.875  43.712  10.632
 4319W        W76045  30.404  17.338  12.607
 4320W        W76046  43.582  41.518   2.565
 4321W        W76047  44.595  38.531   0.730
 4322W        W76048   4.885   6.802  10.779
 4323W        W76049  42.406  22.296  13.086
 4324W        W76050  44.869  15.725   1.739
 4325W        W76051  44.180  35.971   1.949
 4326W        W76052  31.942  10.303   4.161
 4327W        W76053   4.940  24.606  14.528
 4328W        W76054  38.430  42.271   0.651
 4329W        W76055  40.749  28.023  12.924
 4330W        W76056  13.591  27.400   1.442
 4331W        W76057  16.107  20.759   0.945
 4332W        W76058  14.696  41.878  13.828
 4333W        W76059  12.333   4.272   3.039
 4334W        W76060  31.591  13.220  14.424
 4335W        W76061  26.154   8.806   1.948
 4336W        W76062  37.381  15.861  12.526
 4337W        W76063   1.243  29.146  10.362
 4338W        W76064  39.321  37.123   1.612
 4339W        W76065  31.629   1.470   3.230
 4340W        W76066  39.257  13.726   4.112
 4341W        W76067   6.710  33.926   1.245
 4342W        W76068  39.409   3.654   2.113
 4343W        W76069  14.994  22.489   1.743
 4344W        W76070  25.434  34.113  14.718
 4345W        W76071   5.793  21.063  12.204
 4346W        W76072  18.771  12.808   0.432
 4347W        W76073  12.131  12.141  14.780
 4348W        W76074  23.757  19.990   1.182
 4349W        W76075  10.882  19.615   5.093
 4350W        W76076  19.147  28.129  14.429
 4351W        W76077  35.385  40.896   0.971
 4352W        W76078  38.903  38.034   1.895
 4353W        W76079  37.360  43.814   0.866
 4354W        W76080  34.961  25.106   1.668
 4355W        W76081   5.764  27.108  14.934
 4356W        W76082   9.414   2.367   4.658
 4357W        W76083   6.643   8.226  11.949
 4358W        W76084  41.795   3.941  12.008
 4359W        W76085  17.072   1.380   0.493
 4360W        W76086  30.102  33.974  12.277
 4361W        W76087  31.947  40.655  10.274
 4362W        W76088  20.213  41.868   1.675
 4363W        W76089  16.848  44.033   4.111
 4364W        W76090  12.365   1.030   3.793
 4365W        W76091  43.452  30.097   2.822
 4366W        W76092  33.498  28.666   2.884
 4367W        W76093   1.239  18.802  11.222
 4368W        W76094  15.656  32.395  10.591
 4369W        W76095  26.829  30.545   4.881
 4370W        W76096  37.884  11.176  10.781
 4371W        W76097  15.466  27.137  10.337
 4372W        W76098  44.015  43.852   4.823
 4373W        W76099  38.818  29.420  11.197
 4374W        W76100  39.113  38.871  11.507
 4375W        W76101  26.448  42.310   3.885
 4376W        W76102  42.484   1.352   1.378
 4377W        W76103  34.969  38.091   0.302
 4378W        W76104  11.440   6.718   0.915
 4379W        W76105  41.751  23.556  14.787
 4380W        W76106   5.158  11.610   1.819
 4381W        W76107  18.726   2.440   2.388
 4382W        W76108  44.241  32.922   4.535
 4383W        W76109   5.740  41.589   1.759
 4384W        W76110  43.036  27.012  14.991
 4385W        W76111  11.246   1.265   1.952
 4386W        W76112  12.385  44.821   2.319
 4387W        W76113  24.953  11.886   1.608
 4388W        W76114  14.970  10.235  10.686
 4389W        W76115  37.924  20.573  10.693
 4390W        W76116  30.551  43.002   0.935
 4391W        W76117  22.221  33.455   3.138
 4392W        W76118  11.768  20.355   1.193
 4393W        W76119  43.009  17.072  14.721
 4394W        W76120  28.965  21.461  13.598
 4395W        W76121  21.738  10.637   0.847
 4396W        W76122  11.358  26.432   4.409
 4397W        W76123  15.021  15.223   1.957
 4398W        W76124  15.580  24.702   0.841
 4399W        W76125   4.473  32.588   0.850
 4400W        W76126   4.754   7.742  10.562
 4401W        W76127  17.506  15.799  10.869
 4402W        W76128  35.651  20.684  14.047
 4403W        W76129  29.530  43.297  12.104
 4404W        W76130  37.393  10.192   4.670
 4405W        W76131  43.283  17.643  13.820
 4406W        W76132   1.852  22.573   4.664
 4407W        W76133  22.418  14.557   5.051
 4408W        W76134  15.221  10.189  13.647
 4409W        W76135  22.527  26.575  13.935
 4410W        W76136  11.834   0.306  14.972
 4411W        W76137  11.158  13.033  10.709
 4412W        W76138  27.268   0.950   2.364
 4413W        W76139  41.985  11.040  12.732
 4414W        W76140  30.302  25.475   4.571
 4415W        W76141  34.780  21.980  10.986
 4416W        W76142  32.090  38.077   4.579
 4417W        W76143  38.471   3.856  14.742
 4418W        W76144   7.192  43.280  10.692
 4419W        W76145  37.567   0.512   3.741
 4420W        W76146  32.065  23.442   2.894
 4421W        W76147   1.167  20.431   4.101
 4422W        W76148   7.020  11.089  14.560
 4423W        W76149  36.518  30.546  14.016
 4424W        W76150   7.271  13.059  14.370
 4425W        W76151  35.051  31.855   4.584
 4426W        W76152  24.302   9.343  13.006
 4427W        W76153  11.413  25.747   3.329
 4428W        W76154  13.023  26.156   3.118
 4429W        W76155  28.547  14.694   2.572
 4430W        W76156  34.442   3.322  14.124
 4431W        W76157   4.968  16.167   1.273
 4432W        W76158  14.033  37.501  13.695
 4433W        W76159   9.721  43.755   3.001
 4434W        W76160  16.150  37.898  14.955
 4435W        W76161  41.709  15.591   2.725
 4436W        W76162  23.178  39.186   3.149
 4437W        W76163  37.034  18.219  14.367
 4438W        W76164  28.617   4.472   4.200
 4439W        W76165   2.369  37.787  13.210
 4440W        W76166  44.285   3.159   1.408
 4441W        W76167  31.912   1.283   3.661
 4442W        W76168  31.104   2.617  10.685
 4443W        W76169   8.301  18.645  11.106
 4444W        W76170  18.190   7.952  11.249
 4445W        W76171  36.513  27.231   0.328
 4446W        W76172  32.070  22.638   1.489
 4447W        W76173  13.499   1.096   4.786
 4448W        W76174  10.376   2.370  14.398
 4449W        W76175  30.372  16.078   2.314
 4450W        W76176  23.117   7.089  11.447
 4451W        W76177  42.268  44.083   0.860
 4452W        W76178  36.642  41.411   2.339
 4453W        W76179  42.410  28.151   1.963
 4454W        W76180  36.844  39.887   2.805
 4455W        W76181  15.888  29.207   2.710
 4456W        W76182   4.839  44.260  10.690
 4457W        W76183   0.408   8.689  10.653
 4458W        W76184  28.028   8.683   0.823
 4459W        W76185  10.952  41.345  12.021
 4460W        W76186  43.031  31.045   1.754
 4461W        W76187   3.277  28.194   1.499
 4462W        W76188  22.491  42.837  10.762
 4463W        W76189  20.087  42.121   1.231
 4464W        W76190  42.721  40.918   4.566
 4465W        W76191   2.951   8.607  12.901
 4466W        W76192  18.808   2.563   1.323
 4467W        W76193  38.278  25.300   4.658
 4468W        W76194  41.948  11.365  14.815
 4469W        W76195  15.274   6.532   3.652
 4470W        W76196  12.184  43.270  14.739
 4471W        W76197  15.076  44.451   2.040
 4472W        W76198   4.978  36.093   2.930
 4473W        W76199  42.309  24.234  13.293
 4474W        W76200  24.962  21.051  12.811
 4475W        W76201  42.972  12.292  13.308
 4476W        W76202  41.240   7.467  12.540
 4477W        W76203  43.468  11.338   4.195
 4478W        W76204  27.963  37.802  13.461
 4479W        W76205   3.250   7.297   3.759
 4480W        W76206  21.692  39.952  10.557
 4481W        W76207  16.310  41.767  12.553
 4482W        W76208  41.446  42.118   4.294
 4483W        W76209  39.423   1.678   2.790
 4484W        W76210  29.701  32.155  11.962
 4485W        W76211  29.531  23.296  11.971
 4486W        W76212   3.397  17.314  13.125
 4487W        W76213  41.070  10.280  11.597
 4488W        W76214  40.882   0.343   2.832
 4489W        W76215  34.644  10.668   2.686
 4490W        W76216  31.858   6.179  13.895
 4491W        W76217  11.781  30.381  10.135
 4492W        W76218  30.143  22.636   3.208
 4493W        W76219  15.752   9.104  13.573
 4494W        W76220  12.815  22.863   1.900
 4495W        W76221  19.003   1.319   4.314
 4496W        W76222   0.992  27.722  11.375
 4497W        W76223   2.657  32.955  11.729
 4498W        W76224  37.440   4.371   2.374
 4499W        W76225  42.420  17.213  12.889
 4500W        W76226  42.492  44.152  10.533
 4501W        W76227  11.874  26.107  13.955
 4502W        W76228  37.724  43.121   1.372
 4503W        W76229  22.465  32.985  13.885
 4504W        W76230  35.374   2.931  12.169
 4505W        W76231  21.102  17.143   2.656
 4506W        W76232  12.284  22.595  10.435
 4507W        W76233  26.386  12.298  11.614
 4508W        W76234   8.724  43.917   4.602
 4509W        W76235  28.149  16.594   4.576
 4510W        W76236  35.184  31.001  13.432
 4511W        W76237  15.872  34.662  11.540
 4512W        W76238  15.699  16.473  11.226
 4513W        W76239   1.308  25.158  13.016
 4514W        W76240  22.735  10.783  14.146
 4515W        W76241  24.611  23.126  14.589
 4516W        W76242  28.449  10.055  10.059
 4517W        W76243  40.249   1.870   2.773
 4518W        W76244  21.754  34.434  10.693
 4519W        W76245  25.199  34.602  14.435
 4520W        W76246  12.068  19.677   2.109
 4521W        W76247  35.838  22.488   1.709
 4522W        W76248  14.597  26.215  11.711
 4523W        W76249  37.782   1.263  14.849
 4524W        W76250  19.732  18.716  10.655
 4525W        W76251  16.053  11.733   1.043
 4526W        W76252  21.642   9.883   4.325
 4527W        W76253   9.941  19.211   1.285
 4528W        W76254  43.820  37.486   0.050
 4529W        W76255  11.954  23.292  13.528
 4530W        W76256  37.495  40.806   3.320
 4531W        W76257   6.890  32.332  13.486
 4532W        W76258  18.071  16.390   4.033
 4533W        W76259  29.155  44.545  10.769
 4534W        W76260   0.577  28.216   4.858
 4535W        W76261  40.083  19.039   3.267
 4536W        W76262  31.590  36.897   3.123
 4537W        W76263  14.107  31.355   4.884
 4538W        W76264  29.423  18.175  14.966
 4539W        W76265  12.087   0.972  12.385
 4540W        W76266  34.033  39.307   3.901
 4541W        W76267   5.926  26.564   1.157
 4542W        W76268  43.837  11.782  10.958
 4543W        W76269  33.433  21.203   2.666
 4544W        W76270  33.566  36.940   1.968
 4545W        W76271  25.551  11.374   4.239
 4546W        W76272   3.369  15.620   0.972
 4547W        W76273   4.734  20.759  14.505
 4548W        W76274  37.264  12.920  12.035
 4549W        W76275   6.164   0.064  11.683
 4550W        W76276  28.135  30.954  10.472
 4551W        W76277  37.448  10.407  10.487
 4552W        W76278  26.523  40.445   1.329
 4553W        W76279  42.558  13.065   0.326
 4554W        W76280  27.875  42.994  12.593
 4555W        W76281  35.063  13.152   3.268
 4556W        W76282  27.402  20.497  10.825
 4557W        W76283  28.910  10.616  12.617
 4558W        W76284  43.384   0.422  14.502
 4559W        W76285   1.922  38.012  13.038
 4560W        W76286  35.599  11.840   1.735
 4561W        W76287  39.600   7.932  13.983
 4562W        W76288  35.533  37.384   2.294
 4563W        W76289   9.883  10.918  13.956
 4564W        W76290  34.626  16.731   0.255
 4565W        W76291  26.903  11.137   3.739
 4566W        W76292  12.609  19.622   2.139
 4567W        W76293   4.644  43.512   0.808
 4568W        W76294  25.091  24.200  12.529
 4569W        W76295  31.501  32.834  14.418
 4570W        W76296   9.670  12.711  10.704
 4571W        W76297  14.271  17.775   1.939
 4572W        W76298  24.640  17.281  13.922
 4573W        W76299  16.339  33.339   0.447
 4574W        W76300  35.913  19.770  12.096
 4575W        W76301   4.783   0.390  12.544
 4576W        W76302  26.956  42.713  11.091
 4577W        W76303  14.035  13.943   0.988
 4578W        W76304  32.852  36.924  10.422
 4579W        W76305  42.479  18.187   0.480
 4580W        W76306   9.766  29.706  14.347
 4581W        W76307  31.574  11.404   3.237
 4582W        W76308  33.836  10.047   3.082
 4583W        W76309   8.448  17.093   3.201
 4584W        W76310  22.405  38.120   1.836
 4585W        W76311  33.212   7.736   1.333
 4586W        W76312  37.486   0.425   4.660
 4587W        W76313  30.915   4.519  11.151
 4588W        W76314  27.866  29.172  11.950
 4589W        W76315  18.223  20.166  13.893
 4590W        W76316   0.901  41.426  13.055
 4591W        W76317  26.265   4.099  13.024
 4592W        W76318  26.943  25.387  12.922
 4593W        W76319  14.135  23.827   1.044
 4594W        W76320  23.420  12.837  13.306
 4595W        W76321  21.561  39.879  13.455
 4596W        W76322   6.341  17.170   1.169
 4597W        W76323  24.750  11.379   0.378
 4598W        W76324  39.983  30.999  13.253
 4599W        W76325  43.860  36.554   3.813
 4600W        W76326  20.602  20.414  14.577
 4601W        W76327  14.377  36.961   1.593
 4602W        W76328  35.011  18.656  10.482
 4603W        W76329   9.173  15.247  12.073
 4604W        W76330  43.888  30.323   4.966
 4605W        W76331  11.731  37.239   5.001
 4606W        W76332  27.386  29.378  11.971
 4607W        W76333  31.692   7.734  14.715
 4608W        W76334  14.113  10.228  12.144
 4609W        W76335  40.773  25.930  10.619
 4610W        W76336  11.715  36.934  13.958
 4611W        W76337   0.974  16.523   3.142
 4612W        W76338  18.286  42.534  10.563
 4613W        W76339   1.323  13.486   3.364
 4614W        W76340  25.984  30.158  14.350
 4615W        W76341  34.016  38.931   1.890
 4616W        W76342  39.799  42.726  14.821
 4617W        W76343  43.493   5.950   2.312
 4618W        W76344  21.759  20.815   0.772
 4619W        W76345  33.673  13.591   0.251
 4620W        W76346   0.373  24.398  10.532
 4621W        W76347  20.022  44.041  12.481
 4622W        W76348  39.446  22.122  14.972
 4623W        W76349  12.955  13.344   1.255
 4624W        W76350  17.096  25.489  10.429
 4625W        W76351  13.214  30.200  14.300
 4626W        W76352  30.215  24.740   1.129
 4627W        W76353  22.138  12.208  10.579
 4628W        W76354  10.661   3.866   2.646
 4629W        W76355  28.048  19.148  12.688
 4630W        W76356   7.876  15.692   5.003
 4631W        W76357   6.747   4.270  12.974
 4632W        W76358  42.911  23.791  14.955
 4633W        W76359   9.865   1.286  13.867
 4634W        W76360  21.068  17.115  11.160
 4635W        W76361  34.173  43.382   3.291
 4636W        W76362  36.867  25.510   1.966
 4637W        W76363   9.996  14.703   2.767
 4638W        W76364  41.035  30.042   3.940
 4639W        W76365  18.853   2.506   1.837
 4640W        W76366  27.033  10.365   4.341
 4641W        W76367   9.705  19.912   1.741
 4642W        W76368   4.186  28.589  10.859
 4643W        W76369  25.614  28.599   3.581
 4644W        W76370  41.867   6.533   4.389
 4645W        W76371  37.552  18.529  12.964
 4646W        W76372  41.611   3.814   2.692
 4647W        W76373   3.898  21.743   3.746
 4648W        W76374  25.137   4.434  12.381
 4649W        W76375  16.226  22.213  13.772
 4650W        W76376  15.936  43.545  12.000
 4651W        W76377   3.632  39.976  14.063
 4652W        W76378  37.595   6.875  10.747
 4653W        W76379  31.009   4.315  14.295
 4654W        W76380  26.983  41.443   0.528
 4655W        W76381   3.226  40.967   2.203
 4656W        W76382  43.888   6.423  13.970
 4657W        W76383  28.005  40.223   1.554
 4658W        W76384  42.119   2.277  13.014
 4659W        W76385  42.891  16.566   2.407
 4660W        W76386  36.618  37.057   1.851
 4661W        W76387   4.913  35.981   2.437
 4662W        W76388   3.375   9.860   0.760
 4663W        W76389  33.623   3.426  11.177
 4664W        W76390  12.953   3.410   2.694
 4665W        W76391  10.700  31.730   1.307
 4666W        W76392   4.038  31.323  11.082
 4667W        W76393   3.165  38.853  14.986
 4668W        W76394   6.883  21.028   2.362
 4669W        W76395   2.089  33.369   4.518
 4670W        W76396  21.623  34.997   2.136
 4671W        W76397  28.482  33.443  12.594
 4672W        W76398   1.482  42.412   3.284
 4673W        W76399   0.244   4.410   0.024
 4674W        W76400  44.768  23.789  14.715
 4675W        W76401  32.610  25.626  12.956
 4676W        W76402   3.934  42.741  10.683
 4677W        W76403  38.249  34.983  10.987
 4678W        W76404  28.199   3.150   3.258
 4679W        W76405  23.492  35.079   3.700
 4680W        W76406   2.836   1.223   2.177
 4681W        W76407  15.098  36.377  12.015
 4682W        W76408  20.625  41.641  11.295
 4683W        W76409  20.370   8.890   0.298
 4684W        W76410   5.913  14.083  10.563
 4685W        W76411  33.663  43.301  11.362
 4686W        W76412   9.085  13.201  12.222
 4687W        W76413  34.833  27.792   2.256
 4688W        W76414  31.849  24.505   0.429
 4689W        W76415  37.313   5.532   3.668
 4690W        W76416  13.073  32.153  11.044
 4691W        W76417  27.487  28.486   3.424
 4692W        W76418  21.072  41.689   4.581
 4693W        W76419  32.881  11.786  10.425
 4694W        W76420   8.160  36.222   9.758
 4695W        W76421  26.190   0.314   0.036
 4696W        W76422  38.333   4.963  13.938
 4697W        W76423  12.097   9.332   0.226
 4698W        W76424  30.477  13.936   1.088
 4699W        W76425   4.794  15.039   2.670
 4700W        W76426   9.108   3.885  12.850
 4701W        W76427  38.916  32.217  13.412
 4702W        W76428  15.613  19.294  13.857
 4703W        W76429  21.266  22.985   4.491
 4704W        W76430  11.572  27.088   3.933
 4705W        W76431  10.172   8.740   2.256
 4706W        W76432  44.169  18.982   2.766
 4707W        W76433  35.516  24.026  13.065
 4708W        W76434  21.655  27.672   9.996
 4709W        W76435  18.215  13.188  13.986
 4710W        W76436  33.584  22.944  12.139
 4711W        W76437  32.849   3.471   3.167
 4712W        W76438  25.626  30.610   4.705
 4713W        W76439  39.198  20.480   4.589
 4714W        W76440   7.125   9.730  13.859
 4715W        W76441  44.936  32.371  14.278
 4716W        W76442  42.907  42.554   2.715
 4717W        W76443  35.596  31.979   5.123
 4718W        W76444  33.531   0.517  11.145
 4719W        W76445   2.228  13.370   3.958
 4720W        W76446  24.014   0.098   4.112
 4721W        W76447  35.786  31.135   1.847
 4722W        W76448  38.163  43.503   1.771
 4723W        W76449  13.105  24.353   2.867
 4724W        W76450  42.575  40.549   0.352
 4725W        W76451  27.388  30.915   1.245
 4726W        W76452  12.677  19.487   0.285
 4727W        W76453  11.794  13.905   0.719
 4728W        W76454  31.435  26.865   1.953
 4729W        W76455  40.266  13.109  12.967
 4730W        W76456  40.444  10.827   0.430
 4731W        W76457   7.306  36.132  13.277
 4732W        W76458  13.806  19.063   2.098
 4733W        W76459  34.882  41.788  13.414
 4734W        W76460  32.384  25.542   0.371
 4735W        W76461   7.888  14.720  11.921
 4736W        W76462  15.695  35.013   4.690
 4737W        W76463  17.541   4.489   2.784
 4738W        W76464  23.235  26.220  14.909
 4739W        W76465   5.710  31.372  11.539
 4740W        W76466  34.075  40.537   3.372
 4741W        W76467  14.043  25.088   4.538
 4742W        W76468  31.900   0.312  12.421
 4743W        W76469  26.680  37.956  11.911
 4744W        W76470   3.972   8.365   2.109
 4745W        W76471   6.232  33.545  12.631
 4746W        W76472   5.163   3.741  10.977
 4747W        W76473  36.448   3.731   3.549
 4748W        W76474   0.354  42.484   0.807
 4749W        W76475  37.704  33.322  10.744
 4750W        W76476  44.938  21.720  13.879
 4751W        W76477  16.779  11.412   2.131
 4752W        W76478  18.511  20.037  10.703
 4753W        W76479  33.623  28.895  10.412
 4754W        W76480   6.283  38.710  12.612
 4755W        W76481   7.737  39.939   1.287
 4756W        W76482  40.587  13.682   1.484
 4757W        W76483   9.470  10.011  12.365
 4758W        W76484   8.654   8.956   3.273
 4759W        W76485  13.663  23.618   0.413
 4760W        W76486  13.867  27.605  13.817
 4761W        W76487  35.999   1.170  14.274
 4762W        W76488  23.136  16.228  11.553
 4763W        W76489  19.543  39.247   4.187
 4764W        W76490   3.891  10.066   2.906
 4765W        W76491  28.106   2.231   3.595
 4766W        W76492  42.547  17.941   4.003
 4767W        W76493   0.343  38.609  11.698
 4768W        W76494  27.185  24.993  12.456
 4769W        W76495   9.399   4.678  12.535
 4770W        W76496  14.650  28.587   3.666
 4771W        W76497  33.038  22.567  10.487
 4772W        W76498  11.634  34.518   4.997
 4773W        W76499  40.830  12.836  12.404
 4774W        W76500  31.402  43.040  11.994
 4775W        W76501  24.631  10.372   4.562
 4776W        W76502  13.660  39.958   2.818
 4777W        W76503   1.823  42.466  13.509
 4778W        W76504  26.520  10.664  10.740
 4779W        W76505  31.949  39.010   0.385
 4780W        W76506  12.828  26.754  11.583
 4781W        W76507  11.841  39.408   4.877
 4782W        W76508  14.110  13.853   3.245
 4783W        W76509  44.266  15.146   2.831
 4784W        W76510  11.336  14.236  10.728
 4785W        W76511  25.913   6.274  11.046
 4786W        W76512  26.757  37.336   4.127
 4787W        W76513   1.993  37.849  14.146
 4788W        W76514  21.981  14.856   0.750
 4789W        W76515  15.336   3.125  12.822
 4790W        W76516   3.910  29.956   3.625
 4791W        W76517   0.684  25.518   0.800
 4792W        W76518  42.792  38.835  10.794
 4793W        W76519  35.352  23.970  14.444
 4794W        W76520  22.390  30.493  13.533
 4795W        W76521   6.297  34.563   3.680
 4796W        W76522  35.490  30.068  14.347
 4797W        W76523  35.783  13.576  14.403
 4798W        W76524   5.390  25.736   2.646
 4799W        W76525   5.818  15.992   2.501
 4800W        W76526  20.113  28.632  12.194
 4801W        W76527  22.725   0.324  10.521
 4802W        W76528   9.313  31.142   2.678
 4803W        W76529  28.008  38.631  13.919
 4804W        W76530  37.409  17.517   1.285
 4805W        W76531  34.172  22.075  14.005
 4806W        W76532  14.173  33.087  13.409
 4807W        W76533  29.480  23.147  14.341
 4808W        W76534   6.413  44.845  13.112
 4809W        W76535   8.958  21.671   3.319
 4810W        W76536  28.429   7.764  12.714
 4811W        W76537  38.929  11.422  11.608
 4812W        W76538  34.594  44.730  13.508
 4813W        W76539  10.273  43.245  14.348
 4814W        W76540  15.986  22.942  11.708
 4815W        W76541  42.729  42.390   1.210
 4816W        W76542  11.137  14.604   4.055
 4817W        W76543  26.378   7.491  11.433
 4818W        W76544  35.130  43.666  12.993
 4819W        W76545  16.189  38.278  10.098
 4820W        W76546  13.431  40.504  13.092
 4821W        W76547  43.506   8.567   2.372
 4822W        W76548  31.904   6.367  13.383
 4823W        W76549   7.136  39.553   4.141
 4824W        W76550   0.241   8.244   2.868
 4825W        W76551  19.770  44.874   0.926
 4826W        W76552  30.899  24.424  12.335
 4827W        W76553  33.601  30.935  11.924
 4828W        W76554   9.986  30.887  12.499
 4829W        W76555  38.016   9.891   1.315
 4830W        W76556  30.594  26.379   0.204
 4831W        W76557  26.798  30.022   4.155
 4832W        W76558  36.045  31.009  14.713
 4833W        W76559   3.315  40.353  14.952
 4834W        W76560   1.103  30.308   5.047
 4835W        W76561  38.287  17.087  13.927
 4836W        W76562  37.539  41.263   2.170
 4837W        W76563  21.778  22.161   3.151
 4838W        W76564  32.308   1.783  11.221
 4839W        W76565  23.709  42.461  14.405
 4840W        W76566  39.347   1.309   1.337
 4841W        W76567   1.316  40.594   3.227
 4842W        W76568  15.288  42.035  11.220
 4843W        W76569  31.236   7.132   2.164
 4844W        W76570  33.915  28.224  11.484
 4845W        W76571  27.729   0.638   5.539
 4846W        W76572  33.960  11.687  13.422
 4847W        W76573  14.925  29.055   1.806
 4848W        W76574  21.783  36.668  12.126
 4849W        W76575  32.825  11.708   3.158
 4850W        W76576   5.856  41.624  13.201
 4851W        W76577  24.518  12.664   3.276
 4852W        W76578  13.636  40.183   4.272
 4853W        W76579   3.840  31.350  13.300
 4854W        W76580  33.769  38.412  11.978
 4855W        W76581  43.324  22.294   2.916
 4856W        W76582  30.185  19.170   0.514
 4857W        W76583  25.881  38.870  14.975
 4858W        W76584  12.838  20.835   2.205
 4859W        W76585  23.138  31.410  13.813
 4860W        W76586  31.633  19.218   4.757
 4861W        W76587   1.867  24.225  14.952
 4862W        W76588  44.934  14.362  14.820
 4863W        W76589  28.107   9.425  13.969
 4864W        W76590  34.056  21.497  10.017
 4865W        W76591  28.815   2.908  10.821
 4866W        W76592  19.225  12.075  12.958
 4867W        W76593  41.406  34.954  11.360
 4868W        W76594  37.887   5.986  10.801
 4869W        W76595   0.250  19.672  11.870
 4870W        W76596  24.505  42.752  12.057
 4871W        W76597  28.849  42.913   4.645
 4872W        W76598  31.095   3.702  11.669
 4873W        W76599  18.713  16.661  10.732
 4874W        W76600   0.051  23.595   1.738
 4875W        W76601  13.620  15.900  11.066
 4876W        W76602  40.545  24.694  13.794
 4877W        W76603   1.488   2.360  12.910
 4878W        W76604  25.214  28.092  14.343
 4879W        W76605  23.608  32.157   0.864
 4880W        W76606  17.552  28.584  11.223
 4881W        W76607  12.720   7.322  12.610
 4882W        W76608   0.004  28.176   4.666
 4883W        W76609  37.446  24.186   4.974
 4884W        W76610  44.732   0.507   0.972
 4885W        W76611   9.952  15.861   2.222
 4886W        W76612  18.164  13.674   4.003
 4887W        W76613  43.596   5.726   4.236
 4888W        W76614  32.971  36.770   4.189
 4889W        W76615   5.908  22.698  11.182
 4890W        W76616  39.025  17.317   0.739
 4891W        W76617  22.584  36.203  14.022
 4892W        W76618  21.004   9.569  11.228
 4893W        W76619   4.829  17.564   1.921
 4894W        W76620  31.272  26.704   1.460
 4895W        W76621   0.169   2.753  10.662
 4896W        W76622  26.551   5.149  14.253
 4897W        W76623  18.422  28.355  14.183
 4898W        W76624   7.793  36.827   3.684
 4899W        W76625  28.861   7.402  10.532
 4900W        W76626  33.586  25.026  12.120
 4901W        W76627  16.839  31.878   1.331
 4902W        W76628   7.298  41.226  14.316
 4903W        W76629  14.676  19.978  12.399
 4904W        W76630   4.735  21.903   0.459
 4905W        W76631  32.458  40.514  10.965
 4906W        W76632  29.526  25.447  11.185
 4907W        W76633  28.605  17.129   3.249
 4908W        W76634  16.165  37.996   5.486
 4909W        W76635   5.613  22.127   0.785
 4910W        W76636  36.776  33.865   3.003
 4911W        W76637  24.461  25.648   0.564
 4912W        W76638  41.460  36.310   4.152
 4913W        W76639  19.950  20.009   4.239
 4914W        W76640  30.310  36.715  12.722
 4915W        W76641  40.605   9.818   0.797
 4916W        W76642  14.583  28.827  14.461
 4917W        W76643  17.756  35.629   3.133
 4918W        W76644  40.567   2.750   0.546
 4919W        W76645   8.948   9.435   0.669
 4920W        W76646  29.920  14.140   1.742
 4921W        W76647   2.711  29.402  13.487
 4922W        W76648   9.664  18.129   2.710
 4923W        W76649  11.922  36.994   1.380
 4924W        W76650  42.379   5.809   1.454
 4925W        W76651  20.453   6.257   3.788
 4926W        W76652   9.281  28.228  12.094
 4927W        W76653  21.749  37.991  14.738
 4928W        W76654  35.242  23.234   3.713
 4929W        W76655  31.692  17.401   4.832
 4930W        W76656  17.756  43.464   4.323
 4931W        W76657  37.349   8.361  14.081
 4932W        W76658  26.661  42.719  14.046
 4933W        W76659  43.369   1.004   2.815
 4934W        W76660  20.013  39.116  12.993
 4935W        W76661  35.983  12.321   0.896
 4936W        W76662  24.659  31.391   1.771
 4937W        W76663  34.439  30.479  13.067
 4938W        W76664   1.529   4.229   0.867
 4939W        W76665  12.211  33.894  14.021
 4940W        W76666   8.589  39.695   0.187
 4941W        W76667  34.395  42.367   2.106
 4942W        W76668  40.621  40.317   1.471
 4943W        W76669  39.751  29.186  13.829
 4944W        W76670  34.591  42.086   4.258
 4945W        W76671  38.818  25.688   0.784
 4946W        W76672  31.191  32.636   1.125
 4947W        W76673  40.592  25.701   3.900
 4948W        W76674  14.192   6.657  11.659
 4949W        W76675  32.019  17.334  14.984
 4950W        W76676  12.156  38.873  13.983
 4951W        W76677   2.678   9.933  12.124
 4952W        W76678  29.167  37.360  10.054
 4953W        W76679  18.304  20.122   1.000
 4954W        W76680  33.548  12.523  10.868
 4955W        W76681  28.588  20.237  13.358
 4956W        W76682  14.058  34.622  13.587
 4957W        W76683   4.155  34.624  14.331
 4958W        W76684   7.100  32.985   3.537
 4959W        W76685  41.378  27.296   1.430
 4960W        W76686  13.245   7.277   1.434
 4961W        W76687  21.254  11.834  10.582
 4962W        W76688   7.109  24.964  10.669
 4963W        W76689  28.558   1.318   0.068
 4964W        W76690  33.624  24.180   3.345
 4965W        W76691  23.548  13.600   4.801
 4966W        W76692  17.260  20.105   0.029
 4967W        W76693  17.759   1.080  11.905
 4968W        W76694  22.055  13.328   3.115
 4969W        W76695  23.215  20.086  13.415
 4970W        W76696  15.635  29.744   0.764
 4971W        W76697  31.456  42.633   0.683
 4972W        W76698   2.527  36.903  11.163
 4973W        W76699  11.909   1.787   3.641
 4974W        W76700  43.608   3.613  13.083
 4975W        W76701  14.126  40.941   2.677
 4976W        W76702  14.608  43.956   0.873
 4977W        W76703  12.433  18.667   0.697
 4978W        W76704  32.530  35.533  14.071
 4979W        W76705   7.581  37.400   0.841
 4980W        W76706  39.662   4.712   2.720
 4981W        W76707  39.416  39.491   3.842
 4982W        W76708   1.899   6.188   0.933
 4983W        W76709  20.645  10.714  13.383
 4984W        W76710  26.258  18.038   3.233
 4985W        W76711  18.243   4.408  12.030
 4986W        W76712   3.283  42.191  14.519
 4987W        W76713  28.210   2.336   4.517
 4988W        W76714   3.768  30.952  12.404
 4989W        W76715  44.462  11.809  12.528
 4990W        W76716   8.418   2.964   1.231
 4991W        W76717  42.856   7.730   0.859
 4992W        W76718  42.522  31.398   2.454
 4993W        W76719  11.024  36.551   3.196
 4994W        W76720  20.360  34.786   0.514
 4995W        W76721  43.467   8.074   2.140
 4996W        W76722  26.737   1.548   4.146
 4997W        W76723   1.495  10.922   4.483
 4998W        W76724  19.795  26.020  14.432
 4999W        W76725  33.646  13.256   2.456
 5000W        W76726  29.635  20.742   3.147
 5001W        W76727   7.190  44.366   1.893
 5002W        W76728   4.180  15.082   5.157
 5003W        W76729   9.825   7.680  10.592
 5004W        W76730  36.431  42.226  11.872
 5005W        W76731  11.345   2.376   2.245
 5006W        W76732  32.380  16.190  13.475
 5007W        W76733  23.618   1.086   1.852
 5008W        W76734  13.733  21.650  13.064
 5009W        W76735  38.415   8.107   3.447
 5010W        W76736   8.080  30.602  13.479
 5011W        W76737  35.687  37.668  11.881
 5012W        W76738  13.798  26.965   2.705
 5013W        W76739   5.954   0.278   1.953
 5014W        W76740  20.738  32.317   1.316
 5015W        W76741  23.099   0.666  11.486
 5016W        W76742   1.761  43.230   0.760
 5017W        W76743  22.232  23.797   3.292
 5018W        W76744   4.883   9.759  14.371
 5019W        W76745  21.218   4.123  11.297
 5020W        W76746  28.468   8.855  11.912
 5021W        W76747  35.685   4.462   2.256
 5022W        W76748  12.688  26.559   4.389
 5023W        W76749  38.439  29.626  13.065
 5024W        W76750  34.111  20.599  11.584
 5025W        W76751  18.284   4.926  13.935
 5026W        W76752   2.098  38.137  14.583
 5027W        W76753  15.795  32.971  14.306
 5028W        W76754  30.436  36.354  14.903
 5029W        W76755  34.396  32.492   0.786
 5030W        W76756  10.413  20.533  12.307
 5031W        W76757  40.045   2.724   4.323
 5032W        W76758   6.009  22.466  12.504
 5033W        W76759  26.500   0.296  12.041
 5034W        W76760  19.477   8.720  14.038
 5035W        W76761  30.048  21.617   0.301
 5036W        W76762   1.276  39.537  13.033
 5037W        W76763  35.527  18.813   1.455
 5038W        W76764  36.880  24.023  12.579
 5039W        W76765  37.334  31.082   0.959
 5040W        W76766  41.569  40.073  14.497
 5041W        W76767  20.069  35.411  10.794
 5042W        W76768  12.752   5.266   1.857
 5043W        W76769  31.167  40.814  14.967
 5044W        W76770   1.344  30.910   1.856
 5045W        W76771  19.209  24.974  11.862
 5046W        W76772  21.122  12.507   9.736
 5047W        W76773  32.859  14.827   2.268
 5048W        W76774  10.140  36.768  11.011
 5049W        W76775  43.198  30.568  11.233
 5050W        W76776  26.410   9.598   2.696
 5051W        W76777   9.115  28.699   3.324
 5052W        W76778  33.983  31.544  11.431
 5053W        W76779  40.450  27.777  11.660
 5054W        W76780   4.256  11.180  11.593
 5055W        W76781  12.131  19.341  11.143
 5056W        W76782  43.673  10.266   4.972
 5057W        W76783  31.428  16.267  13.321
 5058W        W76784  40.361  23.857   0.871
 5059W        W76785  40.937   4.976   2.712
 5060W        W76786  18.775  37.974   3.139
 5061W        W76787  39.198  12.934   0.897
 5062W        W76788  16.623  35.974  11.458
 5063W        W76789  32.536  23.750   3.776
 5064W        W76790  42.739  41.835  14.936
 5065W        W76791  36.409  16.085   4.092
 5066W        W76792  36.906  13.459   2.282
 5067W        W76793  38.730  43.226  14.360
 5068W        W76794   9.742  36.673  13.099
 5069W        W76795  30.512  13.121   5.022
 5070W        W76796   3.821   3.923  11.759
 5071W        W76797  30.433  39.280   2.302
 5072W        W76798  25.494  27.646   0.808
 5073W        W76799  38.334   7.258   0.180
 5074W        W76800  23.222  24.711   3.933
 5075W        W76801  39.039  12.385   3.225
 5076W        W76802  35.523  35.201   1.672
 5077W        W76803  32.645  13.101  11.128
 5078W        W76804  36.422   4.193  12.901
 5079W        W76805  33.181  43.566  12.673
 5080W        W76806  37.625  42.747  11.478
 5081W        W76807  28.346  18.044  12.648
 5082W        W76808  31.891  10.325   3.642
 5083W        W76809  35.030   9.374  12.560
 5084W        W76810  43.718   5.797  13.355
 5085W        W76811  16.272  26.567  13.854
 5086W        W76812  29.501   7.017  14.372
 5087W        W76813  32.429  41.371   3.583
 5088W        W76814  18.311  42.927  12.823
 5089W        W76815  38.767  12.838   2.627
 5090W        W76816  11.507  20.107   2.606
 5091W        W76817  41.250   6.940   0.312
 5092W        W76818   9.812  36.644   3.326
 5093W        W76819  31.576  36.850  13.531
 5094W        W76820  42.495  37.962  11.045
 5095W        W76821   0.385  33.508  10.692
 5096W        W76822  19.209  11.022  11.142
 5097W        W76823  43.931  33.605   2.246
 5098W        W76824   0.383   2.822  12.174
 5099W        W76825  18.099  38.305  13.325
 5100W        W76826  41.384  19.164   0.413
 5101W        W76827   3.446  20.148  10.671
 5102W        W76828   8.880  29.909  14.414
 5103W        W76829  20.306  17.277  12.055
 5104W        W76830  31.518  41.288   4.042
 5105W        W76831   0.666  27.289  11.254
 5106W        W76832  36.032  42.479  12.859
 5107W        W76833   0.232  37.769   1.588
 5108W        W76834  29.156  35.918  13.043
 5109W        W76835   5.409  35.593   2.662
 5110W        W76836   8.947  10.959  13.080
 5111W        W76837   6.060   7.658   5.479
 5112W        W76838  43.140   3.340   2.814
 5113W        W76839  13.179  33.003   0.770
 5114W        W76840  40.383  22.435   2.362
 5115W        W76841  41.927   0.339  13.859
 5116W        W76842   2.408   3.057   3.240
 5117W        W76843  19.226  42.096  13.910
 5118W        W76844  30.891  14.148   0.852
 5119W        W76845  11.839  25.240   2.260
 5120W        W76846  25.759  42.805  12.477
 5121W        W76847  23.233   9.306  11.369
 5122W        W76848  12.754  16.457   1.016
 5123W        W76849  10.014  14.804  13.329
 5124W        W76850  10.859  22.112   0.757
 5125W        W76851  23.794  19.681  11.175
 5126W        W76852  33.519   9.755   3.835
 5127W        W76853  14.067  13.344  11.560
 5128W        W76854  37.801  24.979   4.665
 5129W        W76855  16.143  35.127   1.873
 5130W        W76856  18.268  15.174   0.891
 5131W        W76857  18.315  32.922  12.011
 5132W        W76858  22.395  26.070  14.247
 5133W        W76859   5.131  21.622   4.520
 5134W        W76860  38.174  35.861   3.688
 5135W        W76861  37.143  19.602  12.551
 5136W        W76862  13.723   4.500  14.001
 5137W        W76863  39.127  21.259  11.174
 5138W        W76864   8.714  27.574  12.031
 5139W        W76865  22.624  36.258  13.498
 5140W        W76866  28.663  35.263  11.193
 5141W        W76867  35.658  23.384   3.145
 5142W        W76868  43.324  40.190  12.739
 5143W        W76869  43.040   6.728  12.319
 5144W        W76870  13.755   1.700   4.141
 5145W        W76871  14.688  32.830  10.669
 5146W        W76872  10.368   7.310  13.388
 5147W        W76873  44.508  44.999   2.325
 5148W        W76874  38.938   1.036  10.734
 5149W        W76875  17.333  17.678   3.175
 5150W        W76876  13.005   4.934  13.309
 5151W        W76877  29.523  26.458  13.928
 5152W        W76878  33.565  33.084   0.936
 5153W        W76879  31.947  28.927   4.809
 5154W        W76880  39.474   6.911  12.598
 5155W        W76881   0.072   1.887   1.632
 5156W        W76882  37.483   1.669   0.039
 5157W        W76883  41.153  35.631   2.265
 5158W        W76884  35.994  15.280   2.411
 5159W        W76885  39.456  18.807   3.160
 5160W        W76886   9.082  29.141   4.168
 5161W        W76887  26.102  33.129   3.570
 5162W        W76888  12.761   4.928   1.418
 5163W        W76889  42.264  26.650  11.034
 5164W        W76890  24.946   0.812   1.633
 5165W        W76891  15.384  42.984  14.384
 5166W        W76892   3.955   8.654   3.776
 5167W        W76893  10.678   3.395  13.503
 5168W        W76894  27.409  28.439  11.049
 5169W        W76895  15.648  42.768  11.054
 5170W        W76896  25.784   3.828   3.321
 5171W        W76897  17.095   0.047   0.309
 5172W        W76898   8.918   2.529  10.751
 5173W        W76899  41.032  39.474  14.089
 5174W        W76900  15.846   7.412   5.050
 5175W        W76901  25.184  10.725  13.109
 5176W        W76902  38.330  17.841   3.688
 5177W        W76903  33.514  35.622  13.538
 5178W        W76904  42.927  34.866   1.197
 5179W        W76905  31.413   2.691   1.725
 5180W        W76906  26.141  30.308  12.858
 5181W        W76907  21.135   6.801   2.129
 5182W        W76908  13.560  19.356  13.652
 5183W        W76909  41.585  17.126  14.288
 5184W        W76910   5.746  11.400  13.935
 5185W        W76911  30.539  32.794   1.964
 5186W        W76912  44.215   4.871   2.803
 5187W        W76913  38.037  31.471  13.056
 5188W        W76914  27.953  40.586   3.804
 5189W        W76915   7.795   7.649  13.539
 5190W        W76916  20.766  20.074  12.048
 5191W        W76917  18.404  17.881  11.083
 5192W        W76918  17.776  25.039  10.626
 5193W        W76919  27.218  41.843  11.171
 5194W        W76920  23.537  32.132   3.966
 5195W        W76921  30.085  15.077  13.054
 5196W        W76922   8.762  23.667   1.895
 5197W        W76923  15.880  13.592   3.557
 5198W        W76924  30.934   1.492  12.416
 5199W        W76925  44.528  25.320  10.290
 5200W        W76926  16.317  40.026  11.031
 5201W        W76927  15.885  37.491   2.304
 5202W        W76928   9.094  38.473  10.596
 5203W        W76929   8.804  31.885   2.707
 5204W        W76930  23.476  10.422   4.564
 5205W        W76931  40.821   7.199   4.656
 5206W        W76932  11.148  14.099  14.002
 5207W        W76933  35.561  13.280  13.464
 5208W        W76934  38.976  22.477  13.051
 5209W        W76935   7.143  21.782   0.772
 5210W        W76936  35.831   0.171  14.572
 5211W        W76937  41.105   2.488   1.730
 5212W        W76938  35.947  31.858   0.189
 5213W        W76939  35.102  20.667   1.343
 5214W        W76940  26.442   9.670  14.750
 5215W        W76941  19.865  19.067  11.119
 5216W        W76942  12.292   3.468  12.954
 5217W        W76943  33.334   8.348  12.053
 5218W        W76944  42.779   9.944   3.276
 5219W        W76945   2.375  17.384   0.496
 5220W        W76946  31.192  31.488   1.920
 5221W        W76947  14.090  22.073   1.706
 5222W        W76948   0.732  34.873   5.053
 5223W        W76949  33.764  10.888   0.347
 5224W        W76950  15.122  36.636   1.914
 5225W        W76951   4.996  38.349  11.509
 5226W        W76952   5.875   9.576  14.518
 5227W        W76953  32.954  34.626  13.145
 5228W        W76954  43.964  13.548  11.167
 5229W        W76955  16.627  32.117  14.706
 5230W        W76956  38.974  38.144   3.424
 5231W        W76957  29.896  28.170   1.965
 5232W        W76958  39.933   3.083  11.062
 5233W        W76959  39.366   5.905   0.394
 5234W        W76960  44.335  25.996   2.265
 5235W        W76961  31.143  25.409  11.083
 5236W        W76962  44.513  28.940  11.667
 5237W        W76963   1.073  27.241  11.554
 5238W        W76964  31.567  19.555   3.791
 5239W        W76965  19.777   6.932   1.932
 5240W        W76966  30.191  44.632  10.969
 5241W        W76967  20.315  26.503   3.516
 5242W        W76968   4.834  27.099   2.344
 5243W        W76969  24.725  31.934  11.636
 5244W        W76970  25.969  41.552  14.315
 5245W        W76971  37.018   0.782   2.629
 5246W        W76972  15.587  28.446  13.550
 5247W        W76973  26.628   3.018  14.991
 5248W        W76974  37.112  32.525  13.464
 5249W        W76975  38.423  38.577   0.206
 5250W        W76976   9.742  23.411  12.630
 5251W        W76977  23.949   5.701  12.094
 5252W        W76978  18.617  14.431   5.012
 5253W        W76979  25.720  25.959   1.872
 5254W        W76980  20.456   3.124   3.201
 5255W        W76981  34.904  17.393  13.857
 5256W        W76982  28.793  17.935  12.381
 5257W        W76983  13.106  24.761   1.988
 5258W        W76984  36.528  43.808   0.477
 5259W        W76985  43.440  27.153   1.523
 5260W        W76986  25.895  12.734   3.274
 5261W        W76987  43.376   6.072   3.275
 5262W        W76988  21.172  21.493   1.482
 5263W        W76989  32.345   2.447  10.582
 5264W        W76990  42.867  37.464  11.916
 5265W        W76991  38.909  19.440  14.895
 5266W        W76992  25.297  15.163   4.082
 5267W        W76993  13.889  29.473  11.610
 5268W        W76994  43.468  31.048  11.088
 5269W        W76995  13.950  40.438   3.813
 5270W        W76996  10.779  43.943  11.582
 5271W        W76997  15.329  34.615  13.913
 5272W        W76998  43.255  40.454   0.719
 5273W        W76999  31.607  42.204   4.199
 5274W        W77000  36.665  19.532  12.987
 5275W        W77001  41.571   1.986  14.368
 5276W        W77002  37.585  26.137   2.412
 5277W        W77003  34.169  27.025  14.393
 5278W        W77004  35.535  33.103  14.377
 5279W        W77005  18.509  30.719   0.305
 5280W        W77006  24.389  34.121   4.221
 5281W        W77007  18.216  11.214  10.786
 5282W        W77008  21.455  28.269   3.208
 5283W        W77009  31.395  39.466   3.810
 5284W        W77010  34.851  20.756   4.340
 5285W        W77011   6.255  42.139  11.731
 5286W        W77012  32.831   8.195   2.971
 5287W        W77013  31.366  21.944   1.504
 5288W        W77014   6.984  43.023  11.989
 5289W        W77015  11.076  24.747  11.411
 5290W        W77016  13.171  28.234  10.248
 5291W        W77017  17.795  34.992   4.167
 5292W        W77018   8.436   3.010   3.242
 5293W        W77019  41.519  29.242  13.377
 5294W        W77020  12.145  23.766   4.316
 5295W        W77021  40.023  10.613   2.678
 5296W        W77022  27.488  30.443  11.999
 5297W        W77023  25.495  43.840   2.161
 5298W        W77024  17.966  44.010  14.967
 5299W        W77025  41.747  37.028   1.271
 5300W        W77026  12.823  10.684   0.408
 5301W        W77027  38.931  25.922   1.235
 5302W        W77028   2.161  42.555   1.919
 5303W        W77029  13.332   9.739   0.501
 5304W        W77030  28.036  25.077   2.314
 5305W        W77031  34.166  16.211  13.904
 5306W        W77032  20.083  38.694   4.909
 5307W        W77033  29.418  42.407   1.693
 5308W        W77034  36.906  42.340   1.973
 5309W        W77035  28.890   4.359  11.065
 5310W        W77036  22.122  16.372  10.952
 5311W        W77037  44.728  39.393   1.367
 5312W        W77038  19.014  42.212   2.444
 5313W        W77039   2.361  43.415  11.741
 5314W        W77040  10.280  40.386   2.421
 5315W        W77041  28.600  22.519  11.684
 5316W        W77042   5.759  23.772  11.189
 5317W        W77043  22.916  26.246  13.411
 5318W        W77044  18.189  16.000   3.201
 5319W        W77045  22.987  39.117  12.281
 5320W        W77046  27.377  42.504   1.246
 5321W        W77047  28.524  30.146   1.723
 5322W        W77048  15.092   2.948  13.797
 5323W        W77049  32.706  26.955   1.380
 5324W        W77050  15.323  16.122  13.569
 5325W        W77051  40.061  18.022   4.541
 5326W        W77052  33.364  17.971   5.087
 5327W        W77053   8.445  34.520   5.033
 5328W        W77054  10.466  17.721  10.799
 5329W        W77055  43.032  38.492   3.458
 5330W        W77056  26.760   4.216  13.030
 5331W        W77057  24.148  34.031   0.476
 5332W        W77058  23.800  29.960  10.594
 5333W        W77059  16.370  41.513   0.238
 5334W        W77060  29.010  39.413  11.622
 5335W        W77061  14.796  31.959   2.193
 5336W        W77062  34.092  43.537  13.992
 5337W        W77063  24.543  17.235   3.639
 5338W        W77064  29.644  33.486   4.653
 5339W        W77065  29.453   4.667   1.381
 5340W        W77066  14.980  44.030  12.067
 5341W        W77067  10.409  39.101  14.175
 5342W        W77068   4.153   6.457   5.002
 5343W        W77069  25.707  30.185  11.979
 5344W        W77070  30.212  12.066  10.695
 5345W        W77071  32.384  12.831  12.917
 5346W        W77072  28.171  41.473   2.219
 5347W        W77073  44.947  13.153  14.491
 5348W        W77074  21.693  28.971  10.573
 5349W        W77075   6.175   9.461   2.106
 5350W        W77076  28.752  24.979   1.685
 5351W        W77077  41.854  11.792  13.718
 5352W        W77078   0.926  22.619  11.630
 5353W        W77079  18.230  29.030   1.759
 5354W        W77080  25.420  25.182  13.345
 5355W        W77081  42.469  34.891   2.367
 5356W        W77082  12.646  28.381   0.765
 5357W        W77083   3.984  28.289   1.740
 5358W        W77084  32.096   6.569  11.007
 5359W        W77085   8.912  27.027  13.059
 5360W        W77086   3.557  39.947  10.683
 5361W        W77087  23.509   8.139   4.153
 5362W        W77088   0.084  34.832  13.613
 5363W        W77089  29.503  23.827  13.129
 5364W        W77090   8.580  38.994  11.146
 5365W        W77091  42.968   0.103  10.756
 5366W        W77092  25.583  33.165  11.123
 5367W        W77093  31.362  32.408  14.075
 5368W        W77094  27.165   6.734   2.418
 5369W        W77095  33.451  31.114   1.578
 5370W        W77096  25.594  26.112   2.343
 5371W        W77097  28.061  33.801   4.447
 5372W        W77098  37.007  15.023   1.479
 5373W        W77099  38.114  43.860   2.142
 5374W        W77100  40.362  33.875   3.211
 5375W        W77101  16.302  13.588   3.909
 5376W        W77102  12.577   7.676   0.924
 5377W        W77103  41.872   1.947  12.476
 5378W        W77104   5.678  10.726   1.885
 5379W        W77105  25.715  43.549  11.083
 5380W        W77106  37.650  16.187   1.707
 5381W        W77107   3.930  29.142  14.881
 5382W        W77108  20.246  18.584  12.853
 5383W        W77109   6.104  23.547   0.728
 5384W        W77110  23.452  31.923   3.022
 5385W        W77111  19.373  12.775   3.155
 5386W        W77112  34.381   2.572  12.074
 5387W        W77113  39.424  22.228  10.983
 5388W        W77114  33.574   1.952  11.951
 5389W        W77115   1.405  16.489  10.539
 5390W        W77116  29.940  34.871   3.929
 5391W        W77117  42.299  34.298   3.172
 5392W        W77118  32.985  34.834  11.572
 5393W        W77119  30.836  36.147   2.765
 5394W        W77120  22.730  25.381   3.187
 5395W        W77121   3.011   9.181   4.104
 5396W        W77122   7.945  13.213  12.011
 5397W        W77123  35.504  23.033   0.937
 5398W        W77124  10.565  20.281  10.737
 5399W        W77125  28.218   3.228  12.656
 5400W        W77126  23.548   4.756  12.183
 5401W        W77127   1.903  30.059  13.332
 5402W        W77128  34.915  31.468  14.727
 5403W        W77129  31.137   1.242  12.008
 5404W        W77130  24.827   7.464  13.036
 5405W        W77131  11.311  18.526   3.974
 5406W        W77132  38.328  20.579   0.456
 5407W        W77133  43.090  14.051   2.407
 5408W        W77134  43.213  25.250   1.364
 5409W        W77135  25.990   8.653  14.433
 5410W        W77136  22.701   8.174  13.380
 5411W        W77137  40.390   8.904  12.087
 5412W        W77138   2.391  25.781   4.512
 5413W        W77139  27.819  22.632   2.279
 5414W        W77140  44.286  23.685   4.264
 5415W        W77141  30.414  27.283   0.318
 5416W        W77142  38.096  33.332   3.657
 5417W        W77143  33.945  35.560  12.919
 5418W        W77144  25.081  27.970   5.131
 5419W        W77145  30.835  25.479  10.665
 5420W        W77146  10.724  43.421   1.776
 5421W        W77147  42.531  31.567  12.539
 5422W        W77148  21.519  41.852   4.840
 5423W        W77149  34.847  28.341  12.418
 5424W        W77150   9.734  44.334   0.210
 5425W        W77151  14.672  27.103   3.184
 5426W        W77152  41.213  32.151  13.577
 5427W        W77153   8.185  31.932   1.625
 5428W        W77154  22.570  15.763  11.539
 5429W        W77155  30.868  24.106  10.623
 5430W        W77156  30.670   3.919   2.831
 5431W        W77157  23.544   2.500  12.493
 5432W        W77158  44.644  21.207  13.065
 5433W        W77159  26.091   8.639  12.544
 5434W        W77160  20.101  10.647  12.550
 5435W        W77161  23.644  31.211  11.069
 5436W        W77162  23.635  22.199   1.879
 5437W        W77163  28.651  16.891   3.707
 5438W        W77164  22.132  25.639   0.530
 5439W        W77165   8.093  14.833   2.184
 5440W        W77166  15.315  22.672  11.940
 5441W        W77167   4.160  24.548  11.555
 5442W        W77168  44.273  32.833   2.425
 5443W        W77169   0.400  16.636  10.694
 5444W        W77170  14.609  31.256   1.429
 5445W        W77171   5.754  26.447  11.716
 5446W        W77172  13.655  26.248   1.015
 5447W        W77173  41.736  23.088  13.940
 5448W        W77174   2.531  41.985   1.256
 5449W        W77175  41.311  37.650   0.711
 5450W        W77176   8.980   1.953  14.455
 5451W        W77177  38.845  37.560  12.065
 5452W        W77178  23.700  35.406   1.958
 5453W        W77179  28.132  17.181  13.128
 5454W        W77180  37.076  15.001   0.975
 5455W        W77181  37.905  20.981   2.828
 5456W        W77182  43.334  18.806  11.646
 5457W        W77183  39.403  18.355   0.481
 5458W        W77184  33.441   1.810   1.420
 5459W        W77185  19.383  14.420  14.995
 5460W        W77186   3.391  16.520   0.806
 5461W        W77187  29.112  41.799   1.397
 5462W        W77188  17.572  30.971  11.379
 5463W        W77189  35.913  18.658   2.616
 5464W        W77190   5.582  13.824  14.307
 5465W        W77191  21.651  43.414   4.662
 5466W        W77192  17.088  12.003   2.843
 5467W        W77193  29.886  17.325  10.981
 5468W        W77194  27.144  32.810   2.868
 5469W        W77195   4.146  13.760   0.024
 5470W        W77196  19.088  44.231   0.733
 5471W        W77197  27.683  31.889  12.150
 5472W        W77198  40.346  20.645  14.485
 5473W        W77199  29.053  27.448   2.753
 5474W        W77200  27.913   5.893  14.347
 5475W        W77201  21.630  28.057   5.163
 5476W        W77202  17.281  40.082   9.735
 5477W        W77203  19.466  11.976   2.640
 5478W        W77204  44.468  15.378   4.591
 5479W        W77205  21.067   0.912  14.476
 5480W        W77206  37.521   6.410   3.372
 5481W        W77207  29.971  40.128  12.040
 5482W        W77208  11.919   4.969  10.726
 5483W        W77209  41.558  18.338  11.001
 5484W        W77210   4.260  29.895   2.439
 5485W        W77211  35.019  40.126  13.056
 5486W        W77212  26.281  14.320  13.091
 5487W        W77213  10.125   8.244  13.073
 5488W        W77214  17.454  31.924   2.974
 5489W        W77215  29.599  30.879   4.428
 5490W        W77216   4.762  26.818  13.961
 5491W        W77217  30.839  42.898   2.271
 5492W        W77218  16.587  34.113  13.916
 5493W        W77219   6.952   1.252  12.477
 5494W        W77220  27.725  44.733   4.213
 5495W        W77221  31.237  24.648  13.742
 5496W        W77222  33.406  35.779  11.670
 5497W        W77223  35.261  27.982  12.450
 5498W        W77224  28.060   3.316   1.892
 5499W        W77225  15.372  36.847   1.208
 5500W        W77226  12.384  25.550  13.366
 5501W        W77227  21.796  13.352   3.583
 5502W        W77228   7.628  21.981  11.186
 5503W        W77229  32.323  29.101  12.472
 5504W        W77230   7.390   4.444  13.205
 5505W        W77231  41.482  21.005   1.188
 5506W        W77232  19.041  32.483  13.020
 5507W        W77233   4.702  44.462   4.172
 5508W        W77234  22.045  20.712   0.330
 5509W        W77235  43.363  34.039   2.796
 5510W        W77236  22.262   1.555  13.436
 5511W        W77237  23.951  17.108   2.803
 5512W        W77238   9.475   4.897   0.013
 5513W        W77239  34.216  28.151  14.029
 5514W        W77240  23.774  18.796   3.761
 5515W        W77241  42.401  28.361   4.706
 5516W        W77242  22.682  20.746  14.586
 5517W        W77243   6.224  19.070  10.972
 5518W        W77244  10.843  41.838   0.043
 5519W        W77245  20.385   3.331   4.614
 5520W        W77246  43.753   8.468   3.908
 5521W        W77247  44.449  19.586  14.932
 5522W        W77248   9.403  24.422   4.961
 5523W        W77249  30.450  44.064   3.682
 5524W        W77250  36.014   0.837   0.914
 5525W        W77251  20.460   9.760  10.743
 5526W        W77252  17.339  16.096   0.888
 5527W        W77253  40.997  21.622   2.153
 5528W        W77254  39.367  16.167   4.679
 5529W        W77255   3.508  25.743  12.547
 5530W        W77256  36.507  13.795   0.471
 5531W        W77257  21.051  41.225  11.051
 5532W        W77258  43.834   0.851  12.774
 5533W        W77259  15.932  26.461  11.957
 5534W        W77260  26.606   8.036  11.533
 5535W        W77261  41.824  16.756   4.220
 5536W        W77262  38.081   0.220   0.282
 5537W        W77263  16.190   8.100  11.121
 5538W        W77264  12.335  22.626   1.846
 5539W        W77265  44.267  11.650   4.509
 5540W        W77266  18.785  32.283  12.620
 5541W        W77267   1.319   4.086   0.034
 5542W        W77268  42.532  27.645  13.079
 5543W        W77269  16.120  37.962   2.211
 5544W        W77270  21.655  30.642   1.928
 5545W        W77271  10.348  28.084   1.990
 5546W        W77272   3.787  28.444   1.225
 5547W        W77273   3.960  15.042   2.009
 5548W        W77274   8.988  21.097   1.681
 5549W        W77275  42.948  37.791   2.299
 5550W        W77276  43.497   8.883   2.814
 5551W        W77277  33.555  40.533   0.865
 5552W        W77278  44.375  25.430  12.028
 5553W        W77279  37.804   4.219  11.985
 5554W        W77280   5.267  34.824   2.080
 5555W        W77281   3.689  16.076   0.787
 5556W        W77282  41.384  40.531  10.827
 5557W        W77283  39.813  23.942   2.783
 5558W        W77284  26.620   0.545  12.471
 5559W        W77285  12.986  36.918  14.563
 5560W        W77286  17.378  35.259   3.158
 5561W        W77287   1.755   1.185   3.258
 5562W        W77288  12.888  18.759  11.919
 5563W        W77289  26.720  18.242  10.896
 5564W        W77290  18.782  38.384   3.994
 5565W        W77291  29.994  25.584  13.321
 5566W        W77292  24.911  32.536  13.962
 5567W        W77293   4.850  43.003  13.466
 5568W        W77294  32.686  27.991   3.120
 5569W        W77295  31.729  29.986   0.298
 5570W        W77296  12.847  14.702   2.942
 5571W        W77297  19.591  38.470  14.579
 5572W        W77298   3.576  31.432   3.531
 5573W        W77299  32.868  21.592   1.749
 5574W        W77300  41.816  14.253   2.658
 5575W        W77301   6.708  38.516   3.292
 5576W        W77302   4.905  17.603  13.877
 5577W        W77303  15.128  14.829   0.382
 5578W        W77304   1.243  22.927  13.668
 5579W        W77305  19.155  10.634   1.925
 5580W        W77306  19.762  26.085  10.613
 5581W        W77307  33.628   8.837   2.292
 5582W        W77308  25.185  13.835  12.386
 5583W        W77309  14.022  28.085   0.940
 5584W        W77310  22.386  28.946   4.656
 5585W        W77311  32.113  44.404  14.522
 5586W        W77312  13.738   2.861  14.475
 5587W        W77313  27.908  43.699  13.402
 5588W        W77314  34.590  34.264   2.247
 5589W        W77315  23.047  27.982  11.038
 5590W        W77316  39.352  23.250   0.462
 5591W        W77317  19.238   9.318   4.101
 5592W        W77318   2.926  30.139  14.908
 5593W        W77319  42.966   7.404   4.061
 5594W        W77320  25.462  24.265   0.799
 5595W        W77321   3.965  19.519  14.229
 5596W        W77322  25.293   8.149  12.843
 5597W        W77323  11.745   9.744  12.400
 5598W        W77324  17.105  13.678   0.915
 5599W        W77325  44.579   1.972   1.823
 5600W        W77326  28.943  32.268   1.243
 5601W        W77327  22.753  36.292   2.374
 5602W        W77328   5.948  38.606  11.854
 5603W        W77329  31.067   8.756   4.503
 5604W        W77330   3.415  12.310   2.656
 5605W        W77331  37.617  28.143   2.726
 5606W        W77332   4.296  27.340  11.607
 5607W        W77333  28.303  17.753  10.727
 5608W        W77334  35.128  41.879   1.814
 5609W        W77335  24.298  19.194   0.849
 5610W        W77336  21.505  26.870  11.897
 5611W        W77337  15.409  35.640  13.422
 5612W        W77338  29.114  25.953   3.125
 5613W        W77339  42.713  44.298  13.416
 5614W        W77340  33.667  22.739   0.512
 5615W        W77341  24.526  20.765  13.609
 5616W        W77342  37.040  36.595   4.615
 5617W        W77343  40.819  29.583  10.523
 5618W        W77344  29.796  33.642  13.006
 5619W        W77345  16.564  27.784  14.063
 5620W        W77346  33.897  43.243  10.157
 5621W        W77347   0.962   1.450   1.882
 5622W        W77348  31.344  43.954   3.687
 5623W        W77349  35.789  30.482  13.016
 5624W        W77350  20.122  13.317  12.464
 5625W        W77351  21.473  40.411  14.923
 5626W        W77352  33.690   5.773  14.080
 5627W        W77353  30.619  44.213   9.773
 5628W        W77354  25.064   3.282   1.732
 5629W        W77355   9.859  11.695  11.193
 5630W        W77356  17.710  38.486  11.008
 5631W        W77357   9.659  10.826  11.175
 5632W        W77358   6.364  20.141   0.848
 5633W        W77359  12.375  12.835  11.210
 5634W        W77360  35.942   8.497  12.457
 5635W        W77361  40.800   6.231   2.407
 5636W        W77362   4.718  41.250   0.618
 5637W        W77363  25.038  36.988   2.274
 5638W        W77364  29.937  43.498   3.802
 5639W        W77365  10.830  35.412  12.370
 5640W        W77366  30.174  18.223  14.429
 5641W        W77367  29.461  20.036   1.892
 5642W        W77368  28.158  28.032   0.298
 5643W        W77369  16.102   6.989   2.190
 5644W        W77370  12.114  33.981  12.676
 5645W        W77371  20.616   9.728   4.213
 5646W        W77372  19.519  20.307  13.345
 5647W        W77373   5.491   5.331   3.706
 5648W        W77374  41.879  12.326  12.526
 5649W        W77375  37.999   8.115  14.798
 5650W        W77376  30.594  22.208  13.967
 5651W        W77377  40.478  14.124   0.721
 5652W        W77378  30.155   7.939   1.862
 5653W        W77379  33.995   4.848   2.648
 5654W        W77380  34.003   4.326  13.521
 5655W        W77381  21.825  15.121   1.726
 5656W        W77382   0.362  40.975  11.163
 5657W        W77383  41.710  42.803  13.697
 5658W        W77384   3.763  19.820  13.378
 5659W        W77385  17.477  16.223  11.536
 5660W        W77386  25.989   2.214  12.551
 5661W        W77387  35.695   8.285  11.707
 5662W        W77388  22.733  23.692  11.445
 5663W        W77389  19.598  28.496   0.814
 5664W        W77390  10.782  44.493  10.703
 5665W        W77391   6.724  39.890  14.817
 5666W        W77392  35.278  13.738  12.097
 5667W        W77393  37.885  19.546   3.846
 5668W        W77394  40.341  27.239  11.608
 5669W        W77395  32.155  11.517   1.235
 5670W        W77396  32.529   2.500  11.079
 5671W        W77397   8.745  15.581  11.176
 5672W        W77398  21.419  12.666  11.976
 5673W        W77399  35.641  20.603  12.515
 5674W        W77400  39.981  30.129   0.365
 5675W        W77401  15.288   7.134   0.018
 5676W        W77402  24.135  14.505  10.027
 5677W        W77403   0.488   4.828   1.490
 5678W        W77404  44.806  32.882   3.188
 5679W        W77405   3.191   0.833   2.895
 5680W        W77406   5.801  13.777  10.172
 5681W        W77407  19.739  42.915  10.530
 5682W        W77408  23.543  15.338   2.333
 5683W        W77409   4.157  37.847  14.070
 5684W        W77410  25.756  41.917   4.396
 5685W        W77411  25.581  15.782   0.364
 5686W        W77412   3.239  16.547   3.240
 5687W        W77413  30.506  27.879   4.055
 5688W        W77414   6.808  24.927   3.646
 5689W        W77415  40.504  24.571   1.314
 5690W        W77416   7.666   0.029  12.017
 5691W        W77417   7.282   5.794  13.374
 5692W        W77418   2.809   4.011  12.474
 5693W        W77419  21.646  20.286  10.722
 5694W        W77420   5.193  11.041   3.754
 5695W        W77421  31.662  44.803   0.068
 5696W        W77422  38.413   3.216   2.425
 5697W        W77423  29.045  23.356  11.579
 5698W        W77424  42.465  16.182  11.700
 5699W        W77425   0.743  36.546  13.936
 5700W        W77426  23.251  36.253   2.598
 5701W        W77427  42.510   6.050  13.951
 5702W        W77428  32.554  42.923  14.555
 5703W        W77429  18.621  37.705   4.491
 5704W        W77430  42.614  24.234  12.328
 5705W        W77431  23.998  22.358   5.090
 5706W        W77432   7.243  34.790  11.028
 5707W        W77433  32.260  18.326   4.070
 5708W        W77434  37.429  16.530  11.677
 5709W        W77435  17.670   4.766  14.612
 5710W        W77436  15.524  10.808   1.847
 5711W        W77437  30.767  42.456  14.496
 5712W        W77438   3.370  17.792   1.473
 5713W        W77439  26.377  41.707   1.622
 5714W        W77440   6.754  31.564   4.709
 5715W        W77441  31.849  24.907  12.353
 5716W        W77442  32.504  41.287  10.788
 5717W        W77443  17.182  35.116   2.256
 5718W        W77444  16.321  10.199  11.093
 5719W        W77445  37.834   0.214  13.035
 5720W        W77446  19.735  44.929   3.287
 5721W        W77447  34.611  37.976  13.630
 5722W        W77448  42.689   2.960   3.676
 5723W        W77449  43.518   3.654   4.094
 5724W        W77450  13.742  17.301   4.356
 5725W        W77451  35.046  39.860   3.904
 5726W        W77452   8.329  25.509   4.184
 5727W        W77453  29.575  31.126  14.399
 5728W        W77454  38.324  28.184   3.603
 5729W        W77455   1.509  22.566   4.009
 5730W        W77456   3.186  33.639  11.203
 5731W        W77457  17.264  30.191   0.662
 5732W        W77458  33.235  39.523   4.113
 5733W        W77459  15.765  31.507  13.485
 5734W        W77460  36.249  40.288   5.031
 5735W        W77461  35.028  16.942   3.787
 5736W        W77462  36.884   1.533  12.743
 5737W        W77463  15.145   0.667   0.508
 5738W        W77464  37.080  37.043  13.861
 5739W        W77465  14.114  14.324   4.600
 5740W        W77466  20.372   6.557  12.457
 5741W        W77467  23.107   5.559  12.949
 5742W        W77468  30.910  39.961  10.612
 5743W        W77469   1.025  12.806  13.805
 5744W        W77470   9.594  24.674  12.450
 5745W        W77471  42.956  38.787   0.511
 5746W        W77472  31.053   8.388  12.680
 5747W        W77473  29.572  16.069   1.898
 5748W        W77474  43.976  40.419   3.187
 5749W        W77475  27.618   5.789  11.895
 5750W        W77476  18.944   6.324  11.076
 5751W        W77477   6.767  22.283  13.959
 5752W        W77478  30.477   0.789  11.530
 5753W        W77479  30.530  43.901   5.603
 5754W        W77480  30.399  16.842  13.523
 5755W        W77481  16.713  44.211   0.408
 5756W        W77482  24.731   6.973  12.062
 5757W        W77483  39.822  13.350   2.806
 5758W        W77484   6.223  43.980   0.000
 5759W        W77485  24.237  10.390   4.234
 5760W        W77486  38.053  39.700  14.554
 5761W        W77487   8.297  22.533   0.356
 5762W        W77488   2.684  19.684   3.790
 5763W        W77489  40.858   5.779   2.670
 5764W        W77490  29.551  18.604  11.084
 5765W        W77491  12.416   6.851  14.312
 5766W        W77492  31.033  18.002   1.567
 5767W        W77493  27.335  11.728   4.480
 5768W        W77494  25.674  33.930   2.764
 5769W        W77495   7.726   5.624  11.465
 5770W        W77496  27.992   4.957  13.089
 5771W        W77497  32.392  13.430  10.816
 5772W        W77498  44.796  27.129   1.819
 5773W        W77499  29.434  36.514  13.530
 5774W        W77500  22.171  33.976  12.677
 5775W        W77501  29.077  44.085   3.782
 5776W        W77502  31.599  43.956  11.087
 5777W        W77503  17.754  19.289   0.001
 5778W        W77504   1.251  26.074  13.731
 5779W        W77505  38.061  40.446  12.411
 5780W        W77506  42.036  14.060   3.093
 5781W        W77507  28.981  26.515   0.759
 5782W        W77508   3.364  43.303  10.765
 5783W        W77509  39.088  38.511   4.885
 5784W        W77510  34.260   9.875  12.346
 5785W        W77511   9.243  34.110   4.635
 5786W        W77512  39.111   1.467  12.007
 5787W        W77513  36.074  39.580  11.596
 5788W        W77514  28.020  27.543   4.676
 5789W        W77515   6.830   0.189  11.477
 5790W        W77516  31.890   4.399   0.497
 5791W        W77517  21.906  36.459   1.436
 5792W        W77518   8.300   4.296   0.223
 5793W        W77519   4.187  32.400  13.826
 5794W        W77520  38.298  16.881  14.528
 5795W        W77521  11.572   8.109  14.375
 5796W        W77522  20.820  37.543   3.433
 5797W        W77523  30.475  25.555  14.544
 5798W        W77524  41.254   4.853  11.710
 5799W        W77525  33.544  22.528   3.766
 5800W        W77526  12.136   3.226  11.609
 5801W        W77527   6.727  10.295   4.602
 5802W        W77528   3.406  30.216   0.936
 5803W        W77529   1.872   9.787   3.816
 5804W        W77530  28.549  44.311  11.081
 5805W        W77531  39.316  39.033  14.252
 5806W        W77532  25.308  27.026   1.054
 5807W        W77533  14.257  20.844  14.183
 5808W        W77534  14.204  30.748   0.530
 5809W        W77535  40.934  15.611  14.766
 5810W        W77536  10.276  33.613  11.956
 5811W        W77537  14.317  25.998  14.841
 5812W        W77538  24.730  43.994   5.343
 5813W        W77539  36.567   4.231   1.036
 5814W        W77540  15.863   3.024   0.415
 5815W        W77541   3.764   1.959   4.179
 5816W        W77542   7.640  35.883   4.065
 5817W        W77543  41.071   7.871  12.285
 5818W        W77544  33.570  23.319   4.154
 5819W        W77545  34.190  13.538   3.292
 5820W        W77546   7.991  36.852  10.489
 5821W        W77547  18.675  43.431  14.070
 5822W        W77548  26.667   3.021   1.837
 5823W        W77549  39.921   7.175   0.215
 5824W        W77550  35.434   8.583  14.341
 5825W        W77551  28.945   1.284   2.765
 5826W        W77552  23.114  12.606   1.053
 5827W        W77553  28.180   6.438  13.003
 5828W        W77554  17.825  24.383  12.884
 5829W        W77555  43.802  14.058   0.248
 5830W        W77556  32.812  39.169  13.925
 5831W        W77557  14.580  22.817   4.214
 5832W        W77558  20.614  41.168  11.518
 5833W        W77559   9.841   0.883  13.540
 5834W        W77560   3.317  14.092   3.606
 5835W        W77561   7.229  21.502   3.659
 5836W        W77562  38.573  42.312   4.667
 5837W        W77563  14.994  29.163   4.746
 5838W        W77564  36.611  20.326   1.232
 5839W        W77565   0.346  38.962   3.011
 5840W        W77566  19.891  31.450   0.854
 5841W        W77567  37.185  44.300   0.822
 5842W        W77568  12.548  37.431   4.992
 5843W        W77569  43.037  13.533   4.494
 5844W        W77570  30.448  41.486   3.168
 5845W        W77571  23.626   7.828   0.735
 5846W        W77572  43.877   3.333   1.674
 5847W        W77573  35.424  22.437  11.994
 5848W        W77574  24.621  15.706   3.233
 5849W        W77575  37.633  12.330  13.104
 5850W        W77576  31.139  21.069   3.694
 5851W        W77577  41.616  20.310  10.995
 5852W        W77578  13.293  42.021   2.221
 5853W        W77579  39.251  38.064   4.631
 5854W        W77580  35.538  37.301   9.969
 5855W        W77581   2.513  14.778  12.897
 5856W        W77582  14.252  35.367   1.197
 5857W        W77583  30.456  24.036  12.367
 5858W        W77584  22.524   5.789  11.538
 5859W        W77585  30.624  20.693  10.715
 5860W        W77586  40.191  12.791   0.310
 5861W        W77587  42.280  34.466  12.470
 5862W        W77588  35.910  12.202   1.404
 5863W        W77589  32.458  41.685   5.279
 5864W        W77590  42.765  24.507  11.651
 5865W        W77591  30.085  28.394   2.819
 5866W        W77592  24.605  26.572  10.630
 5867W        W77593   3.347  10.678   0.328
 5868W        W77594  41.326  35.059   0.414
 5869W        W77595  44.242  21.777  13.571
 5870W        W77596  32.915  22.863  12.515
 5871W        W77597  21.726  33.934   2.253
 5872W        W77598   5.896   9.899   3.364
 5873W        W77599   3.728   7.870  14.875
 5874W        W77600  19.263  30.371   2.344
 5875W        W77601  40.516  15.970  14.867
 5876W        W77602   0.979   3.211  14.054
 5877W        W77603  38.832   9.701  13.486
 5878W        W77604  35.967  19.159  13.398
 5879W        W77605  13.819  37.418   3.425
 5880W        W77606   2.923  37.313  13.007
 5881W        W77607  37.759  17.154  14.052
 5882W        W77608   2.056  26.140   3.633
 5883W        W77609  23.667  40.097  14.269
 5884W        W77610  22.403  44.530  13.966
 5885W        W77611  21.032  28.081   1.358
 5886W        W77612  38.776  14.677  11.879
 5887W        W77613  11.961  41.732   1.918
 5888W        W77614  41.279  38.279  12.963
 5889W        W77615  28.198  37.106   1.805
 5890W        W77616  19.719  43.297   4.337
 5891W        W77617  36.164  13.076  11.261
 5892W        W77618  26.380  36.930   2.826
 5893W        W77619  32.448  18.818  13.950
 5894W        W77620   9.873   5.355   2.954
 5895W        W77621  30.996   5.135   0.772
 5896W        W77622   4.491  33.019  12.655
 5897W        W77623  34.847  28.150  14.778
 5898W        W77624  42.809  39.662   0.448
 5899W        W77625  43.728  26.540  14.925
 5900W        W77626   9.964   3.979  14.257
 5901W        W77627  39.127  11.214   3.274
 5902W        W77628  18.815  18.332  14.387
 5903W        W77629  35.011  36.446   3.297
 5904W        W77630   1.896  31.178   0.853
 5905W        W77631  12.373  16.642  12.506
 5906W        W77632  40.872  17.157  12.923
 5907W        W77633   3.939   6.902   1.234
 5908W        W77634  19.041  21.127   1.680
 5909W        W77635  11.959   0.560   0.843
 5910W        W77636   9.145  16.015   1.878
 5911W        W77637   9.080  35.883   9.833
 5912W        W77638  12.603  33.474  14.841
 5913W        W77639  21.252  39.000  10.553
 5914W        W77640  11.323  21.630  13.442
 5915W        W77641  26.999  40.494  13.575
 5916W        W77642  35.132   1.943  14.784
 5917W        W77643   4.704  27.693  11.575
 5918W        W77644  31.131  23.956   1.468
 5919W        W77645  11.148  16.692   2.061
 5920W        W77646  23.911  19.361   9.887
 5921W        W77647  10.125  40.562   0.690
 5922W        W77648   6.667  23.322  12.919
 5923W        W77649  24.493  19.260  11.708
 5924W        W77650  28.902  37.995  12.501
 5925W        W77651  39.957  43.679  12.826
 5926W        W77652  38.105  19.147   1.960
 5927W        W77653  33.630  29.516  10.731
 5928W        W77654  42.802  22.385  14.757
 5929W        W77655  19.639   9.040   3.134
 5930W        W77656  39.152   4.617   2.812
 5931W        W77657  30.119  24.628   4.145
 5932W        W77658  25.295  42.354   3.653
 5933W        W77659  30.018  13.256  14.905
 5934W        W77660  10.140  44.904   1.806
 5935W        W77661  28.239  41.972   1.332
 5936W        W77662  20.728  42.406   2.903
 5937W        W77663  17.071  19.937  13.451
 5938W        W77664  22.427  36.284   4.514
 5939W        W77665  31.998   4.464  11.701
 5940W        W77666   8.050  22.961  14.406
 5941W        W77667   9.263  30.084   0.948
 5942W        W77668   0.495  10.433   5.164
 5943W        W77669   3.824  15.591   0.688
 5944W        W77670   1.719  27.587  11.928
 5945W        W77671  15.200   3.667   0.863
 5946W        W77672  27.928  33.906   0.298
 5947W        W77673  33.064  44.217   1.729
 5948W        W77674  32.371  26.594  14.461
 5949W        W77675  23.014  36.945  11.259
 5950W        W77676  19.118  25.010   0.703
 5951W        W77677  39.506  12.868  14.539
 5952W        W77678   7.874  14.105   4.279
 5953W        W77679  31.474  28.796   4.651
 5954W        W77680  24.533   4.867  11.999
 5955W        W77681  22.807  39.840   2.254
 5956W        W77682  31.876  22.985   4.617
 5957W        W77683   8.743  44.638   2.788
 5958W        W77684  32.399  43.034   4.483
 5959W        W77685  22.146  18.978   1.767
 5960W        W77686   3.889   7.548   3.849
 5961W        W77687   3.768  34.962   3.780
 5962W        W77688  23.337   1.835   4.457
 5963W        W77689  42.356  33.051   0.001
 5964W        W77690  23.552   5.649  11.747
 5965W        W77691   0.331  22.320   0.858
 5966W        W77692  36.258   0.000  12.826
 5967W        W77693  36.386  32.561  10.654
 5968W        W77694   4.689   1.136   1.813
 5969W        W77695   7.804  31.590  11.070
 5970W        W77696   3.768  30.952  13.689
 5971W        W77697  38.873  13.199   4.909
 5972W        W77698  11.470  30.136   2.452
 5973W        W77699  29.260  35.596   1.656
 5974W        W77700  37.351  36.628  13.045
 5975W        W77701  32.589  13.600  11.261
 5976W        W77702  24.535  20.085  12.094
 5977W        W77703   9.340  26.287   4.696
 5978W        W77704   4.877  39.532  12.491
 5979W        W77705  39.255  32.861   0.364
 5980W        W77706  36.840  40.853  13.926
 5981W        W77707  11.857  20.187  13.005
 5982W        W77708  37.825  42.676  14.397
 5983W        W77709   4.932   4.518  10.677
 5984W        W77710  24.654   2.239  13.854
 5985W        W77711  43.264   8.215  11.557
 5986W        W77712  16.693  27.500  13.081
 5987W        W77713   6.797  29.058   1.802
 5988W        W77714  32.844   1.253  10.489
 5989W        W77715  30.588  34.997   3.099
 5990W        W77716   3.220  43.212  14.585
 5991W        W77717  24.450   0.381   4.223
 5992W        W77718  15.791  37.384  11.576
 5993W        W77719  23.381  15.326   3.220
 5994W        W77720  41.349  29.856   0.519
 5995W        W77721   6.912  24.497  12.602
 5996W        W77722  28.980  20.201  11.604
 5997W        W77723  36.652   0.222   3.434
 5998W        W77724   0.358  27.670  14.810
 5999W        W77725  40.355   0.208   1.414
 6000W        W77726  32.014  31.132   3.909
 6001W        W77727  26.506   3.212   0.461
 6002W        W77728  19.886  43.239  14.759
 6003W        W77729  40.386  14.102  11.544
 6004W        W77730  16.099  14.679  12.317
 6005W        W77731  39.853  14.608   4.076
 6006W        W77732  27.146   2.258   1.776
 6007W        W77733  29.637   2.936  13.476
 6008W        W77734   2.894  10.595  12.996
 6009W        W77735  22.704  12.312  13.595
 6010W        W77736  37.308  26.522   0.727
 6011W        W77737   2.382  13.701  11.861
 6012W        W77738  40.389   5.444   1.789
 6013W        W77739  15.906  31.615  11.252
 6014W        W77740  10.860  38.282  11.098
 6015W        W77741  44.229   2.813   4.668
 6016W        W77742  42.229  38.931   1.882
 6017W        W77743  10.645  31.889   4.060
 6018W        W77744  15.197   7.834  13.629
 6019W        W77745   7.403  34.593   2.229
 6020W        W77746  30.507  18.377   3.271
 6021W        W77747   2.906  26.203  14.844
 6022W        W77748   1.039   0.936   3.635
 6023W        W77749   1.826  34.819   3.673
 6024W        W77750  33.454  17.094   2.176
 6025W        W77751  17.813  42.415   4.855
 6026W        W77752  29.114  26.521   3.678
 6027W        W77753  22.706  14.266  14.857
 6028W        W77754   0.957  15.852   0.068
 6029W        W77755  12.803   1.338  13.946
 6030W        W77756  21.105  38.131  11.510
 6031W        W77757  19.696   6.340  14.783
 6032W        W77758  33.302  40.071   0.807
 6033W        W77759   9.344  27.514  11.666
 6034W        W77760  21.697  41.583  13.524
 6035W        W77761  13.848  16.423   4.598
 6036W        W77762   1.449   5.471  13.044
 6037W        W77763  17.507  27.096   3.720
 6038W        W77764  21.999  32.791   1.457
 6039W        W77765   2.781  26.848  11.474
 6040W        W77766   0.327  34.686  12.840
 6041W        W77767   8.699   2.947   2.513
 6042W        W77768  10.244  18.389   1.807
 6043W        W77769   2.566   7.390   4.433
 6044W        W77770   6.378  31.541   2.788
 6045W        W77771  18.706  18.049  12.075
 6046W        W77772   4.404  27.960   4.852
 6047W        W77773  27.428  21.640   3.948
 6048W        W77774  37.438   6.380  10.716
 6049W        W77775  28.198  43.633   3.324
 6050W        W77776  39.400  37.238   1.080
 6051W        W77777  31.480  39.001   4.223
 6052W        W77778  30.460  28.012  14.260
 6053W        W77779  30.003  33.589   3.248
 6054W        W77780  15.859  32.741  14.759
 6055W        W77781   9.712   2.307   3.822
 6056W        W77782  23.931  29.919  14.739
 6057W        W77783  25.051  30.849   1.494
 6058W        W77784  44.431   6.374   4.114
 6059W        W77785  17.031  22.171   3.382
 6060W        W77786  36.937  41.838   4.296
 6061W        W77787  18.227  28.473   1.251
 6062W        W77788   0.237  20.101   2.770
 6063W        W77789   8.771  36.648   4.210
 6064W        W77790  28.530  36.925   5.073
 6065W        W77791  17.323   0.562   3.930
 6066W        W77792  31.675  12.331  10.634
 6067W        W77793  43.630   2.049   5.161
 6068W        W77794  16.674   1.261   3.742
 6069W        W77795  13.865   7.360  11.250
 6070W        W77796  22.442  41.814   4.557
 6071W        W77797  27.036  30.967  14.369
 6072W        W77798  36.942  25.332  11.380
 6073W        W77799  38.968  18.218   2.518
 6074W        W77800  44.303   2.921  11.676
 6075W        W77801  22.021   8.928  12.478
 6076W        W77802   0.079   8.239  13.465
 6077W        W77803  19.652  32.542   4.199
 6078W        W77804  23.758  25.058  14.767
 6079W        W77805  37.040  11.455   3.127
 6080W        W77806  17.193   3.775   4.377
 6081W        W77807  28.739  27.010   2.031
 6082W        W77808  39.268  21.417  14.831
 6083W        W77809  37.375  18.091  10.766
 6084W        W77810  38.714  33.361  10.551
 6085W        W77811  25.510  10.396  12.900
 6086W        W77812  35.477  21.183  14.196
 6087W        W77813  14.170   5.374  11.233
 6088W        W77814  16.114  40.072   4.888
 6089W        W77815  11.751  30.445   2.110
 6090W        W77816  35.588  14.162  14.916
 6091W        W77817  42.770  17.521  14.932
 6092W        W77818  37.122  30.484  14.885
 6093W        W77819   2.508  20.718   2.949
 6094W        W77820  35.861  14.829  11.617
 6095W        W77821  17.211  31.546  10.632
 6096W        W77822  29.050  38.814   2.259
 6097W        W77823  33.155   3.701  11.621
 6098W        W77824  33.276  14.892   3.609
 6099W        W77825  12.447  37.152   0.267
 6100W        W77826  37.309   5.514   1.768
 6101W        W77827  18.508   9.069   0.399
 6102W        W77828  13.123  34.759   3.802
 6103W        W77829  15.343  13.808  12.022
 6104W        W77830  38.049  43.429  13.432
 6105W        W77831   7.462   0.541  14.909
 6106W        W77832  38.494   3.309   2.952
 6107W        W77833  38.059  23.691  13.030
 6108W        W77834  14.860  22.076   1.991
 6109W        W77835  15.223  23.782  10.753
 6110W        W77836   0.706   3.262   1.406
 6111W        W77837  26.146  33.308  12.137
 6112W        W77838   6.366  15.554  13.489
 6113W        W77839  40.067   9.327   4.292
 6114W        W77840  20.661  25.659  10.721
 6115W        W77841  41.146  15.395   3.742
 6116W        W77842  17.811  39.493   2.293
 6117W        W77843  17.961  40.052  12.425
 6118W        W77844   5.273  33.295  13.443
 6119W        W77845  42.917   0.578   1.049
 6120W        W77846   6.376   9.979   2.738
 6121W        W77847   8.757  37.957   3.806
 6122W        W77848   4.887   6.353  11.033
 6123W        W77849  20.955   5.676  12.975
 6124W        W77850  29.404  26.661  12.939
 6125W        W77851  26.866  17.399  11.476
 6126W        W77852  30.368  33.937  14.572
 6127W        W77853  12.853  32.967   4.699
 6128W        W77854  37.961  20.706   3.286
 6129W        W77855  18.398   6.307  11.981
 6130W        W77856  10.689  27.016   3.918
 6131W        W77857  44.717  39.486  12.386
 6132W        W77858  37.033  18.148   2.396
 6133W        W77859  42.001   4.880  13.936
 6134W        W77860   6.706   3.318   1.036
 6135W        W77861  38.068  37.325   4.143
 6136W        W77862  36.063   6.142  14.481
 6137W        W77863  33.241  35.035  14.024
 6138W        W77864  34.889   3.353   3.995
 6139W        W77865  38.294  11.643  11.256
 6140W        W77866  40.045   9.899   0.911
 6141W        W77867  23.028  23.664  13.036
 6142W        W77868  19.114  44.179  12.023
 6143W        W77869  30.170  20.545   1.711
 6144W        W77870   0.537  19.279  14.269
 6145W        W77871  13.681  28.979  14.395
 6146W        W77872  32.161  36.922   4.640
 6147W        W77873  29.083  37.839   0.856
 6148W        W77874   0.139  25.522   4.256
 6149W        W77875  30.502   5.945  12.971
 6150W        W77876  16.559   5.001  11.217
 6151W        W77877  29.188   9.136   3.078
 6152W        W77878  20.735  19.818   1.817
 6153W        W77879  17.621  25.747  11.074
 6154W        W77880  22.064  38.367  11.817
 6155W        W77881  25.209  22.982   1.651
 6156W        W77882  36.069   0.176  11.127
 6157W        W77883  41.878  27.913   0.745
 6158W        W77884  33.693  39.956   2.290
 6159W        W77885   4.682  19.068  11.119
 6160W        W77886  29.131  43.415   4.142
 6161W        W77887  39.340  44.743  14.515
 6162W        W77888  18.036  26.133   1.904
 6163W        W77889  21.326  30.730  10.302
 6164W        W77890  29.445  23.673  14.326
 6165W        W77891  44.024   6.595   1.304
 6166W        W77892  41.912   1.806   1.686
 6167W        W77893  22.120  23.012   3.828
 6168W        W77894   9.809  14.383  11.533
 6169W        W77895  16.392  40.588   2.642
 6170W        W77896  12.957  27.965  11.205
 6171W        W77897  43.436   5.437  14.803
 6172W        W77898  14.130  13.703   2.340
 6173W        W77899  42.793   2.876  12.383
 6174W        W77900  44.563   1.604  11.170
 6175W        W77901  10.766  13.021   4.583
 6176W        W77902  12.863  11.723  13.631
 6177W        W77903  15.799  30.482   1.314
 6178W        W77904  11.674   7.688  11.493
 6179W        W77905  14.621  40.839   0.053
 6180W        W77906  25.037  27.684   1.569
 6181W        W77907  38.966  25.470   4.650
 6182W        W77908  11.116   5.115  12.366
 6183W        W77909  38.050  30.452   4.518
 6184W        W77910  33.640  26.764  12.918
 6185W        W77911  23.805  27.261  14.817
 6186W        W77912  28.424  11.730   0.395
 6187W        W77913  25.516  28.103   4.899
 6188W        W77914  25.946  40.906  12.406
 6189W        W77915  24.364   2.542  10.693
 6190W        W77916  16.084  14.697  12.832
 6191W        W77917  18.670   3.258  11.570
 6192W        W77918   9.727  21.630  12.805
 6193W        W77919  26.936   9.265   0.994
 6194W        W77920  31.604  10.618  13.205
 6195W        W77921   5.388   9.132   2.806
 6196W        W77922   6.356  28.694   3.579
 6197W        W77923  21.024   3.242  11.848
 6198W        W77924  14.074  17.682  13.450
 6199W        W77925  43.611  33.347   3.204
 6200W        W77926  11.645   9.998   2.920
 6201W        W77927  12.642  41.917   4.071
 6202W        W77928  33.206   6.671   1.014
 6203W        W77929  39.264  44.503   3.226
 6204W        W77930   2.381  18.135   4.217
 6205W        W77931  36.621  18.213   0.778
 6206W        W77932  31.625  19.792  14.583
 6207W        W77933   2.940  41.006   4.346
 6208W        W77934  32.861  16.350  10.530
 6209W        W77935  13.827  12.168  14.307
 6210W        W77936  17.670  25.379   5.221
 6211W        W77937  42.858  44.011  11.669
 6212W        W77938   1.857  40.923   1.385
 6213W        W77939   4.218  29.010   4.017
 6214W        W77940  11.600  41.409   4.246
 6215W        W77941  18.055  42.430  13.576
 6216W        W77942  43.554  41.546  11.532
 6217W        W77943  20.206  14.070   4.791
 6218W        W77944  12.592  27.581  11.277
 6219W        W77945  16.781  20.116   4.726
 6220W        W77946   6.590  16.301  12.027
 6221W        W77947   7.689  35.951   4.597
 6222W        W77948  42.601  37.076   5.107
 6223W        W77949  22.067  32.910  12.059
 6224W        W77950  15.229   2.467   4.430
 6225W        W77951  13.614  35.402  10.810
 6226W        W77952  16.675   2.898  11.721
 6227W        W77953   3.953  35.003   0.682
 6228W        W77954   5.963  29.986   2.290
 6229W        W77955  30.982  36.950   0.431
 6230W        W77956  39.260  24.584  13.910
 6231W        W77957  38.807   7.830   4.204
 6232W        W77958  13.730  24.682  14.409
 6233W        W77959  12.577  23.594  12.040
 6234W        W77960   7.281  32.652   4.571
 6235W        W77961   5.604  30.402  13.288
 6236W        W77962  24.620  36.860  11.095
 6237W        W77963   5.216  32.787  13.462
 6238W        W77964  23.768  17.110   3.290
 6239W        W77965  16.381   4.393   1.179
 6240W        W77966   9.596  34.589   0.888
 6241W        W77967   8.969  21.055   4.591
 6242W        W77968  33.497  22.582  13.579
 6243W        W77969  33.134   6.261  11.021
 6244W        W77970   0.874  14.912   4.125
 6245W        W77971  33.507  13.192  12.124
 6246W        W77972  33.810  31.992  11.223
 6247W        W77973  18.207  30.338  13.503
 6248W        W77974  19.617   3.398   2.957
 6249W        W77975  20.203  33.055  10.709
 6250W        W77976  27.689  32.818  13.202
 6251W        W77977   6.274  26.857  13.923
 6252W        W77978  24.544  24.510  10.751
 6253W        W77979  32.685  43.531  12.565
 6254W        W77980  38.133  22.646  14.974
 6255W        W77981  20.195  29.664  14.343
 6256W        W77982  15.480  22.473   4.532
 6257W        W77983  41.449   1.658   3.500
 6258W        W77984  34.846  18.730   0.659
 6259W        W77985  17.208  38.539  10.221
 6260W        W77986  32.154  34.038   1.867
 6261W        W77987   8.173  36.891  10.955
 6262W        W77988   9.763   3.850   1.270
 6263W        W77989  35.179  26.680   3.695
 6264W        W77990  34.157  23.280   3.203
 6265W        W77991  12.961  40.829  13.963
 6266W        W77992  34.877  34.457   4.607
 6267W        W77993   1.498   8.306  11.396
 6268W        W77994  26.874  36.904   2.673
 6269W        W77995  26.710  35.569   1.893
 6270W        W77996  22.513  35.288  12.525
 6271W        W77997  25.338   0.468  10.211
 6272W        W77998   4.678  13.791   3.723
 6273W        W77999  31.365  16.998   1.875
 6274W        W78000   4.123  43.440   0.995
 6275W        W78001  28.634   6.911  10.611
 6276W        W78002  33.540  38.507   0.677
 6277W        W78003  41.539  36.656  13.482
 6278W        W78004   9.354  38.569   2.392
 6279W        W78005  40.268   2.744  12.927
 6280W        W78006   1.301  33.513  13.619
 6281W        W78007   9.467  11.924  13.439
 6282W        W78008  43.073  43.150   3.190
 6283W        W78009  22.223   8.725   2.933
 6284W        W78010  28.216  14.826  13.961
 6285W        W78011  20.269  44.461  13.994
 6286W        W78012   5.741  33.578   1.903
 6287W        W78013   0.337  13.496  11.464
 6288W        W78014  42.834   4.042   2.365
 6289W        W78015   9.884  36.502  12.117
 6290W        W78016  41.185  31.014   2.374
 6291W        W78017  28.237  14.305   2.289
 6292W        W78018   7.675  20.745  13.531
 6293W        W78019  22.616  18.745   1.766
 6294W        W78020  38.496  20.358   1.266
 6295W        W78021  23.203  14.214   4.154
 6296W        W78022  30.046   3.546   0.725
 6297W        W78023   6.393  11.161  13.304
 6298W        W78024   9.326  32.832  12.920
 6299W        W78025  11.740  30.174  11.900
 6300W        W78026   3.852  15.795   3.669
 6301W        W78027   4.644   0.630   1.786
 6302W        W78028  31.879  19.131  13.402
 6303W        W78029  24.344   5.623  11.290
 6304W        W78030  30.534  44.998   1.481
 6305W        W78031  17.015  42.003  10.714
 6306W        W78032  31.693  42.843   5.030
 6307W        W78033  16.080  12.116   4.563
 6308W        W78034   9.362   3.758  10.877
 6309W        W78035  43.565  27.735  11.044
 6310W        W78036  24.613  40.437   2.315
 6311W        W78037  36.978   9.361  13.449
 6312W        W78038   9.794  34.555  10.182
 6313W        W78039  32.336  25.748   1.987
 6314W        W78040   1.758  29.520  13.405
 6315W        W78041  32.466  23.225   5.074
 6316W        W78042   8.116  20.208   0.487
 6317W        W78043  29.500   4.213  12.096
 6318W        W78044  11.704  31.086  13.433
 6319W        W78045  38.758  11.875  11.392
 6320W        W78046  17.206   9.257  11.193
 6321W        W78047  26.510  43.703   2.256
 6322W        W78048  10.773   2.203  14.057
 6323W        W78049  21.824  16.291   1.903
 6324W        W78050  24.546   1.807  13.495
 6325W        W78051  35.544   5.355   4.882
 6326W        W78052   6.367  39.221  12.556
 6327W        W78053  22.583  40.556   2.138
 6328W        W78054  24.243   5.279   2.314
 6329W        W78055   9.099  12.608   0.412
 6330W        W78056  43.910  14.679  13.169
 6331W        W78057  27.039  44.492  13.158
 6332W        W78058  12.140  12.670   3.092
 6333W        W78059  30.289  27.121   3.251
 6334W        W78060  38.975  39.009  14.986
 6335W        W78061  40.150  26.341   5.095
 6336W        W78062  18.821   6.825  11.582
 6337W        W78063  16.066  34.514   0.667
 6338W        W78064  42.913  42.726  12.620
 6339W        W78065   6.184  11.653   1.914
 6340W        W78066  37.939  31.071   4.925
 6341W        W78067  30.112   2.827   4.759
 6342W        W78068   1.762  21.170   5.020
 6343W        W78069  28.943  35.962  11.078
 6344W        W78070  17.418  21.043  14.898
 6345W        W78071   5.287  22.584   0.272
 6346W        W78072  20.214  40.744   1.842
 6347W        W78073  28.972  31.191  12.432
 6348W        W78074   9.133  28.181   3.277
 6349W        W78075  27.761   9.131   2.210
 6350W        W78076  30.729  44.222   1.969
 6351W        W78077  37.934  40.130   4.326
 6352W        W78078   1.216   4.838   4.065
 6353W        W78079  37.153  38.476  10.505
 6354W        W78080   0.341   2.114  12.346
 6355W        W78081  17.213  38.914   2.934
 6356W        W78082  30.954   6.647  13.929
 6357W        W78083  36.002  36.668  11.209
 6358W        W78084   3.663  20.527   4.632
 6359W        W78085  35.475  43.714   0.425
 6360W        W78086  11.905  14.781  11.204
 6361W        W78087   6.386  21.019  13.997
 6362W        W78088   8.692  42.609   1.835
 6363W        W78089  42.838  18.730  12.971
 6364W        W78090  35.515  38.909   0.491
 6365W        W78091  42.821  34.306   0.746
 6366W        W78092  31.458  12.956  12.990
 6367W        W78093  28.006  31.903  14.535
 6368W        W78094  15.677  35.691  12.959
 6369W        W78095  10.805  43.188  11.131
 6370W        W78096   9.838  34.123   0.886
 6371W        W78097  12.224  38.006  14.966
 6372W        W78098  31.338  42.980   1.309
 6373W        W78099  33.768   7.351   5.090
 6374W        W78100  24.546  29.508   1.833
 6375W        W78101  42.826   7.189   4.507
 6376W        W78102  40.515  29.061   1.271
 6377W        W78103  13.070  32.420   3.411
 6378W        W78104  43.538   5.411  11.928
 6379W        W78105  33.555  41.145   2.812
 6380W        W78106   0.188  20.815   3.780
 6381W        W78107  21.933  33.198  11.129
 6382W        W78108  29.085  38.287   2.270
 6383W        W78109  39.004  20.514   2.767
 6384W        W78110   2.987  18.618   2.622
 6385W        W78111  35.748  18.287   2.280
 6386W        W78112   0.302  37.449   3.847
 6387W        W78113  27.376  26.671  11.009
 6388W        W78114   8.711  20.695   1.449
 6389W        W78115  10.113   0.829   3.305
 6390W        W78116   3.095  41.384   3.359
 6391W        W78117   5.378  35.571  12.012
 6392W        W78118  37.286  29.843   0.808
 6393W        W78119  33.966  14.319  12.069
 6394W        W78120  23.235  11.064  11.193
 6395W        W78121  30.887  43.402   1.059
 6396W        W78122   1.424  37.907   0.332
 6397W        W78123  11.354  30.124  14.011
 6398W        W78124  23.968  35.857  12.541
 6399W        W78125  17.613  28.639  13.588
 6400W        W78126  21.354  24.504   3.834
 6401W        W78127  32.694  41.599   0.869
 6402W        W78128   8.975  15.424   0.426
 6403W        W78129  23.739  29.346   0.032
 6404W        W78130  33.616  26.165   3.208
 6405W        W78131  30.090  33.597  13.615
 6406W        W78132   1.841   7.126  12.533
 6407W        W78133  25.702  42.779   0.709
 6408W        W78134  17.164  31.028  12.522
 6409W        W78135  41.180   6.184   3.803
 6410W        W78136   6.719  41.301   3.828
 6411W        W78137  21.661   5.957  14.376
 6412W        W78138  11.079  20.171  10.697
 6413W        W78139  17.565  29.585  13.276
 6414W        W78140  24.436  32.687  14.084
 6415W        W78141  14.147  28.426  11.586
 6416W        W78142   5.409  34.307   0.899
 6417W        W78143   5.921   5.441  10.835
 6418W        W78144  22.104  33.512  11.878
 6419W        W78145  22.467  12.262   2.722
 6420W        W78146  31.620  21.997  13.822
 6421W        W78147  31.377  30.592   1.464
 6422W        W78148  12.839  21.218  14.221
 6423W        W78149  23.127  31.824   2.637
 6424W        W78150  14.258  41.943   1.483
 6425W        W78151  19.585  15.096  12.123
 6426W        W78152  38.565  43.458  13.530
 6427W        W78153  33.452  17.136  11.131
 6428W        W78154  36.712   5.299  14.091
 6429W        W78155  21.155  19.791   2.168
 6430W        W78156  38.832  23.775   0.903
 6431W        W78157  18.217  23.680   0.097
 6432W        W78158   2.152  18.584   5.181
 6433W        W78159  43.946   3.233  10.535
 6434W        W78160  13.742  18.309  11.980
 6435W        W78161   0.448  28.929   1.625
 6436W        W78162  25.340   5.819  11.549
 6437W        W78163  25.975  40.987  11.506
 6438W        W78164  39.911  10.682   3.213
 6439W        W78165  28.904  37.837   1.758
 6440W        W78166  24.714   5.800  10.963
 6441W        W78167   8.660  34.296  13.429
 6442W        W78168  43.429  30.454   2.383
 6443W        W78169  10.626   2.970   4.930
 6444W        W78170  34.981  16.757  12.038
 6445W        W78171  16.028   5.184   0.925
 6446W        W78172  18.231   6.806   4.362
 6447W        W78173   2.302   3.404  12.445
 6448W        W78174  35.408  40.715  11.968
 6449W        W78175  31.048   4.282   4.539
 6450W        W78176   1.393  16.154   4.309
 6451W        W78177  41.098  14.823   2.773
 6452W        W78178  28.922  24.535  13.072
 6453W        W78179  28.625  34.628   0.810
 6454W        W78180  33.445  14.629   1.455
 6455W        W78181  42.950  37.435   3.342
 6456W        W78182  31.350  36.420   3.089
 6457W        W78183  29.418   2.639  13.121
 6458W        W78184  11.797  27.628  14.624
 6459W        W78185  10.295  33.048   2.141
 6460W        W78186  43.991  33.350  12.501
 6461W        W78187  37.411   7.631   0.346
 6462W        W78188  30.124  10.206   1.370
 6463W        W78189  20.047  33.597  11.128
 6464W        W78190   3.817  14.844  12.821
 6465W        W78191  39.029  19.732  11.141
 6466W        W78192  41.567   0.345  10.499
 6467W        W78193  16.412  35.523  11.544
 6468W        W78194   4.717  44.811  11.309
 6469W        W78195  20.845  43.046   4.852
 6470W        W78196   2.451  44.769   1.971
 6471W        W78197   9.615  34.043  11.069
 6472W        W78198  34.850  24.943  12.798
 6473W        W78199   1.141   3.163  13.566
 6474W        W78200  28.678  30.927   2.200
 6475W        W78201  35.103  11.757   4.603
 6476W        W78202  39.578  16.023   3.846
 6477W        W78203  42.090   4.374  14.048
 6478W        W78204  20.007  25.758   1.238
 6479W        W78205  15.872   8.847   4.158
 6480W        W78206   5.855  13.308   5.305
 6481W        W78207  34.537   7.002  12.900
 6482W        W78208  13.270  39.705  11.540
 6483W        W78209   3.490  38.130  12.110
 6484W        W78210  23.144  43.405  12.705
 6485W        W78211  32.388  24.252  12.244
 6486W        W78212  29.062  21.163  11.540
 6487W        W78213  19.181  23.160  11.336
 6488W        W78214  42.358  20.588  10.752
 6489W        W78215   5.320  42.241  14.990
 6490W        W78216   5.623  36.874  12.592
 6491W        W78217  40.496  21.677   4.373
 6492W        W78218  19.127  18.151   1.471
 6493W        W78219  32.596  23.100   3.179
 6494W        W78220  36.956   7.117   4.606
 6495W        W78221  23.172  44.141   2.823
 6496W        W78222  16.361  26.386   3.615
 6497W        W78223   4.075   5.302   3.989
 6498W        W78224  36.988  33.156   4.040
 6499W        W78225  22.065  22.482  13.843
 6500W        W78226   1.179  18.102  10.022
 6501W        W78227  44.241  34.468  14.369
 6502W        W78228  36.443  44.382   4.491
 6503W        W78229  38.061  41.619  12.967
 6504W        W78230  13.839  20.545   1.470
 6505W        W78231  31.559   3.188   1.771
 6506W        W78232   5.439  11.632  12.449
 6507W        W78233   4.363  37.432   5.152
 6508W        W78234  38.785  21.296   5.044
 6509W        W78235  17.009   4.268  14.086
 6510W        W78236  10.122   8.883   3.665
 6511W        W78237  20.999  34.429  14.810
 6512W        W78238   6.161  25.433  14.974
 6513W        W78239   3.818  13.475  10.469
 6514W        W78240  19.567  12.342   4.662
 6515W        W78241  16.360  17.691   4.298
 6516W        W78242  27.330  39.539  14.189
 6517W        W78243  31.377  22.398   1.085
 6518W        W78244  40.898   0.816   0.222
 6519W        W78245  18.015   5.744   4.539
 6520W        W78246  10.839   6.281  14.924
 6521W        W78247  26.459  24.740   4.408
 6522W        W78248  42.839  39.557   1.600
 6523W        W78249   9.355  11.549   4.594
 6524W        W78250   2.527  38.965  14.095
 6525W        W78251  25.482  15.096  13.817
 6526W        W78252  22.271  26.872  13.048
 6527W        W78253  13.311  11.329  14.410
 6528W        W78254   6.795   5.853   0.067
 6529W        W78255  20.105  34.377  11.692
 6530W        W78256  37.987   0.501   4.597
 6531W        W78257  13.778  33.654   2.824
 6532W        W78258  24.531  27.481   1.434
 6533W        W78259  15.838  20.127   1.339
 6534W        W78260   4.546   4.356  11.026
 6535W        W78261  26.660  37.459   3.201
 6536W        W78262   6.011  19.189   2.327
 6537W        W78263  41.579  36.436   1.279
 6538W        W78264  23.402  14.728   4.172
 6539W        W78265   8.846  14.020  11.560
 6540W        W78266  44.865  42.922   1.327
 6541W        W78267  16.357  21.631  13.551
 6542W        W78268  10.233  21.834  10.926
 6543W        W78269   8.192   8.805  12.466
 6544W        W78270  36.058  22.013   3.435
 6545W        W78271  32.780  27.398  13.499
 6546W        W78272  12.644  41.330   0.818
 6547W        W78273  18.293   2.119   2.397
 6548W        W78274  44.730  18.073  10.415
 6549W        W78275  26.571  37.876   2.827
 6550W        W78276  14.165  44.436   1.539
 6551W        W78277   5.636   1.399  12.253
 6552W        W78278  12.597  15.073   2.298
 6553W        W78279  43.680  44.090  10.733
 6554W        W78280   9.926   0.754  12.042
 6555W        W78281  42.310  40.070  12.672
 6556W        W78282   7.738  44.823   1.207
 6557W        W78283   8.240  15.291   4.700
 6558W        W78284  14.849  36.911   3.371
 6559W        W78285  39.972  39.345   1.639
 6560W        W78286  12.845  40.010  14.003
 6561W        W78287  42.068  16.552  11.989
 6562W        W78288  37.344  22.687  11.572
 6563W        W78289   5.243  19.946  12.093
 6564W        W78290  41.568  19.145  10.742
 6565W        W78291  36.396  23.732   0.814
 6566W        W78292  36.510  19.277   2.718
 6567W        W78293  35.420  21.798  11.170
 6568W        W78294   9.434  39.305   1.873
 6569W        W78295  15.203  19.058   1.078
 6570W        W78296  38.738   2.047   3.183
 6571W        W78297  44.917   1.270   2.241
 6572W        W78298  15.471   2.220  12.026
 6573W        W78299  10.257  38.733   1.243
 6574W        W78300  22.367  20.093  14.819
 6575W        W78301   0.469  25.943   1.274
 6576W        W78302  25.072  41.755   1.472
 6577W        W78303  19.485  13.438  14.655
 6578W        W78304  21.491   2.405  11.048
 6579W        W78305  21.460  24.165   3.232
 6580W        W78306  29.707   6.379   4.586
 6581W        W78307  21.085  12.709  14.245
 6582W        W78308   0.870  40.499  12.945
 6583W        W78309  32.715  20.970   1.346
 6584W        W78310  11.426  42.519   4.647
 6585W        W78311  11.819  33.367   0.484
 6586W        W78312   9.929   9.987   1.452
 6587W        W78313   1.262  19.265   1.652
 6588W        W78314  35.500  26.699  13.326
 6589W        W78315  17.693  36.380   1.945
 6590W        W78316  22.520  32.781  13.029
 6591W        W78317  42.602  38.054  12.658
 6592W        W78318   3.223   1.041  10.796
 6593W        W78319   8.766  28.221  13.859
 6594W        W78320  31.908   6.854  11.407
 6595W        W78321  42.009  37.504   1.945
 6596W        W78322  36.017  20.134   4.173
 6597W        W78323  20.710  20.452   0.985
 6598W        W78324  12.927  16.212   2.641
 6599W        W78325  39.381  20.972   0.898
 6600W        W78326  38.323  32.672  12.960
 6601W        W78327   9.768  14.111  11.986
 6602W        W78328  43.908   3.640  14.820
 6603W        W78329   6.438  25.049   3.285
 6604W        W78330  11.077  39.168   4.613
 6605W        W78331   3.396  42.651   1.317
 6606W        W78332  31.078  24.436   2.717
 6607W        W78333  44.472  15.413  11.185
 6608W        W78334   6.343  42.795   1.685
 6609W        W78335  44.879  17.748   2.753
 6610W        W78336  18.329  14.201   1.052
 6611W        W78337  37.473  10.317  14.148
 6612W        W78338  40.694  27.511   1.968
 6613W        W78339  40.048  39.126   0.835
 6614W        W78340  31.026  22.467  14.803
 6615W        W78341  23.129  40.510  13.027
 6616W        W78342  11.152   8.120  12.051
 6617W        W78343  28.430  43.129  10.061
 6618W        W78344  26.497  40.315   3.595
 6619W        W78345  31.114  44.460  14.658
 6620W        W78346  41.801  42.855   3.095
 6621W        W78347  31.479  28.170   4.610
 6622W        W78348  36.388   9.497  12.187
 6623W        W78349  33.412  21.251   2.150
 6624W        W78350  19.980   3.840  13.491
 6625W        W78351  33.441  25.551  13.410
 6626W        W78352   8.276  13.834   1.945
 6627W        W78353   6.871   7.860  13.541
 6628W        W78354  11.252  23.783  12.002
 6629W        W78355   5.833  21.456   0.482
 6630W        W78356  17.080   5.171  13.866
 6631W        W78357  31.907  21.549   4.920
 6632W        W78358  24.526  23.562   4.480
 6633W        W78359  33.652  28.105   1.237
 6634W        W78360  20.435   1.924  12.106
 6635W        W78361  44.917  36.077   2.294
 6636W        W78362   4.944  27.593  12.528
 6637W        W78363  18.982  36.426   3.355
 6638W        W78364   9.351  14.372   2.171
 6639W        W78365  13.192  35.471  11.158
 6640W        W78366   9.148  25.115   0.780
 6641W        W78367  15.308  24.407  10.913
 6642W        W78368  28.290   8.206   3.654
 6643W        W78369   0.719  27.026   2.417
 6644W        W78370  44.969  17.171  12.668
 6645W        W78371  24.224  16.783  11.376
 6646W        W78372  10.861  13.616  11.209
 6647W        W78373  18.294  18.741  12.660
 6648W        W78374  35.389   4.723  12.440
 6649W        W78375  43.450  32.007  11.846
 6650W        W78376  43.747  39.848   3.592
 6651W        W78377  15.014  37.577   1.662
 6652W        W78378  22.724  23.455   1.163
 6653W        W78379  26.976  16.192  12.587
 6654W        W78380  18.269  21.062   1.246
 6655W        W78381  14.676  23.000  11.014
 6656W        W78382  42.523   7.494   2.708
 6657W        W78383  27.083  38.043   1.660
 6658W        W78384  43.321  24.156   1.379
 6659W        W78385  16.284  41.429   2.482
 6660W        W78386   2.795  41.019  13.000
 6661W        W78387  29.058  17.455  12.378
 6662W        W78388   0.539   5.851  13.969
 6663W        W78389   9.136  17.154   1.654
 6664W        W78390   5.239  27.412  12.145
 6665W        W78391  40.004  39.916   0.407
 6666W        W78392   4.743  29.981   2.633
 6667W        W78393  26.486  32.939  13.360
 6668W        W78394  26.970  16.371  13.108
 6669W        W78395  11.155  43.396  13.412
 6670W        W78396  38.899  34.900   3.178
 6671W        W78397  29.999   2.719   0.370
 6672W        W78398  18.680  26.619   0.213
 6673W        W78399   8.165   8.753  13.145
 6674W        W78400   9.837  18.680   2.287
 6675W        W78401  24.697  22.773   1.440
 6676W        W78402  39.247   0.150   4.812
 6677W        W78403   0.414  18.240   2.526
 6678W        W78404   3.874  20.991   3.424
 6679W        W78405  20.073  30.656   1.220
 6680W        W78406  17.691  34.416   0.826
 6681W        W78407  43.499  44.335   3.687
 6682W        W78408  31.063  25.739  13.358
 6683W        W78409  32.485  32.298   5.045
 6684W        W78410  12.863  21.967   1.341
 6685W        W78411  24.727  19.810   1.910
 6686W        W78412  21.482  22.490   1.384
 6687W        W78413  10.363   5.461  12.916
 6688W        W78414  37.365  34.302  14.015
 6689W        W78415  35.291  13.374   2.847
 6690W        W78416   4.259  31.407   4.618
 6691W        W78417  12.660  41.010   1.428
 6692W        W78418   7.542   2.343   4.027
 6693W        W78419  27.377  37.361  11.864
 6694W        W78420  37.898   3.805  14.889
 6695W        W78421  14.183   5.373  12.187
 6696W        W78422  39.883  43.231   2.429
 6697W        W78423  13.061  27.707  11.624
 6698W        W78424  12.633  12.742  13.126
 6699W        W78425  39.238  10.417  13.555
 6700W        W78426  18.657  18.486  12.962
 6701W        W78427  34.583  15.162  11.812
 6702W        W78428  38.501  43.457   3.847
 6703W        W78429  16.838   5.182  11.626
 6704W        W78430  20.206  15.203   4.672
 6705W        W78431  40.068   4.861  13.457
 6706W        W78432  33.981  24.430  11.221
 6707W        W78433   8.252  40.352  14.677
 6708W        W78434  11.326   9.558  13.259
 6709W        W78435   6.505  25.890   1.683
 6710W        W78436  30.137   7.475   2.156
 6711W        W78437  37.029  28.705   1.265
 6712W        W78438  28.174  10.703  14.861
 6713W        W78439  34.073  22.511   3.783
 6714W        W78440  32.858   4.475  14.896
 6715W        W78441  10.657  21.275   1.310
 6716W        W78442   2.768  12.283  12.147
 6717W        W78443  22.219   6.319   3.256
 6718W        W78444  12.484  43.275   3.861
 6719W        W78445  35.308   2.030   3.236
 6720W        W78446   8.860  31.041  11.706
 6721W        W78447  43.548   8.190   0.826
 6722W        W78448  36.353  21.427  14.211
 6723W        W78449   4.010   6.298  12.406
 6724W        W78450   3.926  40.862  10.691
 6725W        W78451  19.435  10.112  12.793
 6726W        W78452   7.260   3.614  14.776
 6727W        W78453  19.129  31.086  11.727
 6728W        W78454  23.612  42.990   3.866
 6729W        W78455  33.833  34.175   3.258
 6730W        W78456   7.189  41.493   3.791
 6731W        W78457  38.990   8.538  10.268
 6732W        W78458  18.667  39.283   1.869
 6733W        W78459  28.268  43.089  13.937
 6734W        W78460   5.127  17.989  13.538
 6735W        W78461  37.926  39.094  12.466
 6736W        W78462   6.180  33.667  12.118
 6737W        W78463  14.237  18.778  14.444
 6738W        W78464   8.134  34.108  11.251
 6739W        W78465  32.495   0.323  14.489
 6740W        W78466  44.447   4.977   5.035
 6741W        W78467   3.748   1.469  14.398
 6742W        W78468   7.884  35.486  10.746
 6743W        W78469  20.470   4.869   0.734
 6744W        W78470   0.089  23.686  13.874
 6745W        W78471  25.782  30.554  11.536
 6746W        W78472   7.186  23.284   3.181
 6747W        W78473  31.103  44.269   3.321
 6748W        W78474  40.240  25.755   0.823
 6749W        W78475  42.839  20.143   3.065
 6750W        W78476  13.640  42.471  14.761
 6751W        W78477   3.711  19.661  10.824
 6752W        W78478   1.973  13.341  11.969
 6753W        W78479  42.138  16.321   4.222
 6754W        W78480  18.096  24.365  13.331
 6755W        W78481  13.925  44.735   0.202
 6756W        W78482  19.548  38.792  13.763
 6757W        W78483   1.932  32.597   0.997
 6758W        W78484   0.752  43.423   3.959
 6759W        W78485  30.260  41.443   1.773
 6760W        W78486   7.715  17.734  14.371
 6761W        W78487  36.670   7.913   1.235
 6762W        W78488   1.506  43.458  12.391
 6763W        W78489  30.005  13.778   1.302
 6764W        W78490   7.118   2.356  11.968
 6765W        W78491  32.424  43.235  12.885
 6766W        W78492  38.033  35.652  12.648
 6767W        W78493  31.074  12.590   4.720
 6768W        W78494   3.042  23.142  12.102
 6769W        W78495  43.708  25.984   0.889
 6770W        W78496  12.607  22.551  12.788
 6771W        W78497   9.119  39.856   2.757
 6772W        W78498  26.381   5.434   2.677
 6773W        W78499  34.231  26.530   1.929
 6774W        W78500  11.532  35.551   0.448
 6775W        W78501  14.510   3.395  12.373
 6776W        W78502  17.595  22.867   0.304
 6777W        W78503  19.577  22.592   4.074
 6778W        W78504   6.336  40.820   4.811
 6779W        W78505  12.265  33.399   3.631
 6780W        W78506  11.363  35.037   2.642
 6781W        W78507  18.756  24.003   2.918
 6782W        W78508  18.728  12.843   2.238
 6783W        W78509  44.978  41.370   3.244
 6784W        W78510  36.141  42.091   0.769
 6785W        W78511  36.568  30.091   1.711
 6786W        W78512  19.409  11.049   3.706
 6787W        W78513   7.300  36.512   2.581
 6788W        W78514  34.554  39.523   0.776
 6789W        W78515  19.132  31.940   3.161
 6790W        W78516  18.775  17.144   2.889
 6791W        W78517  11.439  37.772   3.368
 6792W        W78518  31.481  20.719   1.438
 6793W        W78519  13.172  26.673   4.558
 6794W        W78520  36.536  10.509  14.083
 6795W        W78521   5.337  14.569  10.215
 6796W        W78522  18.234  20.540   1.348
 6797W        W78523  44.555  33.014  11.911
 6798W        W78524   5.449   9.922  12.686
 6799W        W78525  21.243  40.328  13.783
 6800W        W78526  31.513  19.481   0.032
 6801W        W78527  25.027  25.181  11.103
 6802W        W78528   6.624  21.111   0.312
 6803W        W78529  35.382  13.165  12.588
 6804W        W78530   1.470  44.504  13.930
 6805W        W78531  17.656  40.441  10.067
 6806W        W78532  28.840  11.794  10.778
 6807W        W78533  19.188  36.322  12.434
 6808W        W78534  29.435  29.838   3.438
 6809W        W78535  25.146  25.600   4.530
 6810W        W78536  39.466  30.683  12.913
 6811W        W78537  20.038  24.645  14.460
 6812W        W78538  41.414  14.925  12.380
 6813W        W78539  15.350  10.216   0.861
 6814W        W78540  14.539  13.834   0.943
 6815W        W78541  25.518  30.355  11.145
 6816W        W78542   7.561  44.305  11.234
 6817W        W78543   1.312  26.107   0.264
 6818W        W78544  28.953  38.519  11.563
 6819W        W78545  16.212  32.010  10.702
 6820W        W78546  43.194  22.349  13.003
 6821W        W78547  40.960  14.258   0.870
 6822W        W78548  12.684   5.189  14.936
 6823W        W78549  22.015  28.868   0.844
 6824W        W78550   4.491  11.295  11.142
 6825W        W78551   9.864  10.231   3.680
 6826W        W78552  22.340   6.901  14.322
 6827W        W78553  38.794  33.635   2.225
 6828W        W78554  42.971  41.974   1.374
 6829W        W78555  24.695  25.252  12.150
 6830W        W78556   7.618   9.802  13.833
 6831W        W78557   9.471  15.964   2.394
 6832W        W78558  33.775  43.744   0.886
 6833W        W78559  15.732   7.776   4.242
 6834W        W78560  26.716  23.676  10.394
 6835W        W78561  34.729  36.482  11.223
 6836W        W78562  29.313  12.633   1.318
 6837W        W78563   1.336  31.992  14.340
 6838W        W78564  23.999  17.272   0.966
 6839W        W78565  42.988  25.060  10.475
 6840W        W78566  41.791  11.393  11.465
 6841W        W78567   7.162  27.980  14.868
 6842W        W78568  14.575  25.025   0.812
 6843W        W78569  39.234  28.894   1.679
 6844W        W78570   8.463  13.892   3.855
 6845W        W78571  35.733  19.749   0.148
 6846W        W78572  14.485  22.751   3.688
 6847W        W78573  43.441  33.045  13.203
 6848W        W78574  24.751  18.473   1.114
 6849W        W78575  11.965  27.144   4.240
 6850W        W78576  26.130  37.067  14.309
 6851W        W78577  41.488  41.049   4.312
 6852W        W78578  33.811   3.821  13.517
 6853W        W78579  38.328  40.065  10.440
 6854W        W78580  21.738  22.555  13.034
 6855W        W78581  24.495  33.662   0.446
 6856W        W78582  19.066  11.316   2.855
 6857W        W78583  40.940   9.111  11.006
 6858W        W78584  30.803  36.897   0.947
 6859W        W78585   1.891  15.584   3.723
 6860W        W78586  43.831  21.656   1.184
 6861W        W78587  16.604  42.443  13.778
 6862W        W78588  44.943  18.595   3.187
 6863W        W78589  21.701  15.233  13.315
 6864W        W78590  29.875  20.043  13.924
 6865W        W78591  36.882  25.629   3.076
 6866W        W78592  41.346  42.980  12.027
 6867W        W78593  26.567  43.276   0.007
 6868W        W78594  42.767   2.909   2.787
 6869W        W78595  30.537  21.639  13.723
 6870W        W78596  20.257  17.949  14.423
 6871W        W78597  32.728  43.197   2.391
 6872W        W78598   9.964   5.222   3.442
 6873W        W78599  32.619  11.602   0.965
 6874W        W78600  27.598  35.000  12.213
 6875W        W78601  40.868  29.538   3.543
 6876W        W78602   7.293  39.343   3.296
 6877W        W78603  16.805  13.813   0.490
 6878W        W78604  30.619  44.774   1.941
 6879W        W78605  29.452  14.230  10.826
 6880W        W78606   0.856  19.961   0.317
 6881W        W78607  36.183  11.340   0.300
 6882W        W78608   4.469  13.359   3.376
 6883W        W78609  25.302  29.865  13.942
 6884W        W78610   6.294  21.734  11.134
 6885W        W78611  15.871  15.826   0.025
 6886W        W78612   2.448  16.721  11.425
 6887W        W78613  38.830  34.560  10.646
 6888W        W78614   3.866  30.458  12.431
 6889W        W78615  11.308  10.439  14.977
 6890W        W78616  12.365  17.339  12.123
 6891W        W78617  19.991  42.447  11.435
 6892W        W78618  39.667  43.537   0.638
 6893W        W78619   5.810   4.252   3.151
 6894W        W78620   2.187  23.061  10.684
 6895W        W78621  24.511  38.531   3.263
 6896W        W78622  25.870  40.199   2.802
 6897W        W78623  24.916  12.065  12.335
 6898W        W78624   1.700  41.533   3.682
 6899W        W78625  22.814  14.958   9.855
 6900W        W78626  21.503  34.661   2.659
 6901W        W78627  30.175  21.029  13.513
 6902W        W78628   3.328  27.605  13.371
 6903W        W78629  17.478  11.485  13.501
 6904W        W78630  13.763  22.266   3.130
 6905W        W78631  21.071   1.802  14.058
 6906W        W78632  38.473   1.277  10.778
 6907W        W78633  19.558  37.594  13.015
 6908W        W78634   8.392  28.005  12.519
 6909W        W78635  32.120  17.356  13.875
 6910W        W78636  30.455  29.509  11.633
 6911W        W78637  33.652  24.215   2.419
 6912W        W78638   5.963  27.034   3.770
 6913W        W78639  27.907  44.305  10.138
 6914W        W78640   1.377  33.983  12.821
 6915W        W78641  16.333  44.432  13.076
 6916W        W78642  15.286  27.558  10.622
 6917W        W78643  10.277   8.936  14.942
 6918W        W78644  42.999  31.775  11.528
 6919W        W78645  38.707  13.971   0.388
 6920W        W78646  27.526  44.407  12.898
 6921W        W78647  18.485   1.266  12.544
 6922W        W78648  22.545  40.573  11.690
 6923W        W78649  43.849  32.412   0.774
 6924W        W78650  24.832  44.026  14.516
 6925W        W78651  31.338  36.771  14.517
 6926W        W78652  39.502  22.012  11.935
 6927W        W78653   5.828   9.727   0.856
 6928W        W78654  34.167  40.298  13.429
 6929W        W78655  44.465   1.261   3.095
 6930W        W78656  42.866  19.758   2.181
 6931W        W78657  31.625  27.371  12.736
 6932W        W78658   2.401  19.211   2.218
 6933W        W78659  14.251  32.184  11.106
 6934W        W78660  11.820  16.034   2.877
 6935W        W78661   1.442  42.835   4.878
 6936W        W78662   6.721  42.480  14.487
 6937W        W78663  33.677  31.404   2.291
 6938W        W78664  14.768  17.754   1.784
 6939W        W78665  20.435   8.219   0.918
 6940W        W78666  35.156  30.625  13.775
 6941W        W78667  18.360  11.577  13.875
 6942W        W78668  17.015  17.253  11.881
 6943W        W78669  15.385  37.894   5.029
 6944W        W78670  42.361  21.564   0.368
 6945W        W78671  44.061  43.005   1.786
 6946W        W78672  14.997  32.873   2.901
 6947W        W78673   2.147  10.711   2.320
 6948W        W78674  33.188  25.173  12.408
 6949W        W78675   0.207  24.264  13.074
 6950W        W78676  32.324   9.270  12.336
 6951W        W78677   2.649  24.507  13.310
 6952W        W78678  41.043   0.433  11.552
 6953W        W78679  22.773  16.638   2.677
 6954W        W78680  31.564  40.210   2.761
 6955W        W78681  35.979   0.470  14.073
 6956W        W78682   0.863  18.262  13.068
 6957W        W78683  37.924  36.466   3.532
 6958W        W78684  41.095  23.690  14.419
 6959W        W78685  42.050  21.006  13.604
 6960W        W78686  42.236  37.767  13.880
 6961W        W78687  34.407  30.886   2.819
 6962W        W78688  37.928  16.154  12.993
 6963W        W78689  33.654  27.031  14.390
 6964W        W78690  32.539  25.702   9.848
 6965W        W78691  44.987   0.908   1.247
 6966W        W78692  11.121   1.435  12.464
 6967W        W78693  38.354   9.196  10.609
 6968W        W78694  11.396  33.859  10.674
 6969W        W78695  27.870  14.655   1.963
 6970W        W78696  19.636  14.890  10.808
 6971W        W78697  33.745   9.768  10.549
 6972W        W78698  35.018  25.665  12.451
 6973W        W78699  26.132   1.391  10.927
 6974W        W78700   9.230  16.635  11.506
 6975W        W78701  41.287   2.774   0.997
 6976W        W78702  30.283  38.070  14.933
 6977W        W78703   7.173  17.336   3.613
 6978W        W78704  23.527  21.322   3.839
 6979W        W78705   1.441  34.367  13.851
 6980W        W78706  28.558  44.031  11.525
 6981W        W78707  40.321  12.003  10.086
 6982W        W78708  44.403  30.950   0.858
 6983W        W78709   5.987   9.623   0.360
 6984W        W78710   3.695   0.377   1.671
 6985W        W78711   0.223   2.331  10.940
 6986W        W78712  17.088  11.059  11.503
 6987W        W78713  13.193   1.707   1.209
 6988W        W78714  38.512  35.364  11.212
 6989W        W78715  32.474  24.336  10.615
 6990W        W78716  23.390  17.358   0.201
 6991W        W78717  39.833   6.230  14.346
 6992W        W78718  17.065   2.226  13.939
 6993W        W78719   8.162  22.550  13.415
 6994W        W78720  30.174  43.492  12.352
 6995W        W78721  10.856  29.638   3.083
 6996W        W78722  43.542  30.370   3.253
 6997W        W78723  43.557   9.346  12.605
 6998W        W78724   4.213  35.645  13.037
 6999W        W78725  24.728  24.208  12.953
 7000W        W78726  18.071  17.262  12.796
 7001W        W78727  12.430  31.515   4.141
 7002W        W78728  39.927  19.593   4.154
 7003W        W78729  11.123  15.558  13.911
 7004W        W78730  41.068  22.941   1.679
 7005W        W78731   7.065  36.481   0.636
 7006W        W78732  38.975  24.841  11.517
 7007W        W78733  33.168  26.920  14.269
 7008W        W78734  16.243   0.540  12.889
 7009W        W78735  19.312  42.915   0.286
 7010W        W78736   3.623  17.726   4.222
 7011W        W78737  20.456  39.857  11.140
 7012W        W78738  10.233   2.769   4.645
 7013W        W78739  38.389  24.943   0.637
 7014W        W78740   0.359  21.515   4.205
 7015W        W78741  17.023  31.142   2.917
 7016W        W78742  11.628  15.210   2.383
 7017W        W78743   2.102  37.853   1.386
 7018W        W78744  30.261  44.744   3.180
 7019W        W78745  30.030  19.172   4.722
 7020W        W78746   5.687  42.721  12.366
 7021W        W78747  28.904  15.343   4.720
 7022W        W78748  34.088  15.046  11.664
 7023W        W78749  11.869  26.425  11.744
 7024W        W78750  33.161  39.943   3.781
 7025W        W78751  22.007  42.741  13.065
 7026W        W78752   7.288   5.305  14.578
 7027W        W78753  20.555  39.038   0.316
 7028W        W78754   4.864  27.485  14.957
 7029W        W78755   1.642  37.330  11.951
 7030W        W78756  14.292  15.219   2.014
 7031W        W78757  37.837   9.647   1.752
 7032W        W78758   2.385  31.132   4.565
 7033W        W78759  32.818  23.632   1.004
 7034W        W78760  38.275  16.212   0.631
 7035W        W78761   9.241  40.756  14.819
 7036W        W78762  43.311  39.462   3.662
 7037W        W78763  29.784  22.022  13.575
 7038W        W78764  35.640  27.185  13.473
 7039W        W78765  35.356  19.138  12.553
 7040W        W78766  24.534  13.718   4.875
 7041W        W78767  38.309  32.502   1.201
 7042W        W78768  43.401  34.145  14.569
 7043W        W78769   5.611  25.605  11.187
 7044W        W78770  30.662  20.927  12.979
 7045W        W78771  14.219  21.128   0.708
 7046W        W78772  36.526  43.352   3.408
 7047W        W78773  28.117  40.848  13.420
 7048W        W78774  25.400  38.317   1.336
 7049W        W78775  13.932   7.979   4.486
 7050W        W78776   3.855  31.606   0.830
 7051W        W78777   3.831  16.761   0.093
 7052W        W78778  26.929  16.060  14.098
 7053W        W78779   8.608  11.874  11.483
 7054W        W78780  19.728  38.466  12.514
 7055W        W78781  24.203  40.334   0.670
 7056W        W78782  24.548  30.046  12.778
 7057W        W78783  13.154  33.456   2.566
 7058W        W78784  19.080  28.174   3.183
 7059W        W78785  38.635  43.478  11.108
 7060W        W78786  29.678   2.070  12.138
 7061W        W78787   1.849  26.104  11.647
 7062W        W78788   8.275  25.995   1.917
 7063W        W78789  12.727  44.682   2.682
 7064W        W78790  33.620  38.645  12.443
 7065W        W78791  44.522  16.300  14.162
 7066W        W78792  14.255  41.487  12.702
 7067W        W78793   6.631  22.577   3.208
 7068W        W78794  20.119  31.939   1.798
 7069W        W78795  27.122  24.591   1.323
 7070W        W78796  19.704   0.485  10.394
 7071W        W78797  39.996  12.437   1.201
 7072W        W78798   3.364   0.870   5.157
 7073W        W78799  26.246  34.569  12.692
 7074W        W78800  19.599  42.836  14.851
 7075W        W78801   6.144  44.810  13.567
 7076W        W78802  20.157   9.660   0.791
 7077W        W78803   6.845  17.819   0.285
 7078W        W78804  18.617  37.393  14.555
 7079W        W78805  25.142  41.536  11.025
 7080W        W78806  26.871  14.649   1.424
 7081W        W78807   6.801   0.014   3.358
 7082W        W78808  34.834  38.970   3.911
 7083W        W78809  10.060  34.558   3.186
 7084W        W78810  36.456  31.522   1.289
 7085W        W78811  13.592  43.353  13.546
 7086W        W78812  39.991  17.486   0.906
 7087W        W78813  42.640  41.333  11.605
 7088W        W78814  18.680  42.559  10.916
 7089W        W78815  41.524  32.564   3.541
 7090W        W78816  20.170   8.677  11.518
 7091W        W78817  14.829  38.672  10.233
 7092W        W78818  40.842  21.549   4.732
 7093W        W78819  19.002  42.543  14.065
 7094W        W78820  11.871  27.312   0.988
 7095W        W78821   6.036   6.900  12.934
 7096W        W78822  26.235   0.877   4.317
 7097W        W78823  13.054  28.071   3.366
 7098W        W78824  34.136   2.276   1.844
 7099W        W78825  15.731  19.203   2.639
 7100W        W78826  29.562  15.992   3.876
 7101W        W78827  12.691  15.669  14.269
 7102W        W78828  27.506  30.052  12.478
 7103W        W78829  23.263  22.560   1.883
 7104W        W78830  41.053  21.113   4.552
 7105W        W78831  29.786  20.249  12.144
 7106W        W78832  14.588   0.818   4.994
 7107W        W78833  30.755  37.880   0.000
 7108W        W78834  41.378  20.551  12.567
 7109W        W78835  33.014  11.737   0.304
 7110W        W78836  31.007  30.308   0.696
 7111W        W78837   4.708  17.372  12.907
 7112W        W78838  11.751  37.029  11.172
 7113W        W78839  28.108  28.339  14.857
 7114W        W78840   9.235   1.812   0.853
 7115W        W78841  35.574  15.538  12.090
 7116W        W78842  34.057   0.005  13.564
 7117W        W78843  23.013   5.897   0.886
 7118W        W78844  34.473  24.776   1.651
 7119W        W78845  40.683  14.675  10.742
 7120W        W78846  39.091  19.049  10.738
 7121W        W78847   6.419  15.066   3.290
 7122W        W78848  41.977  32.631  12.595
 7123W        W78849   4.204  11.402   4.412
 7124W        W78850  16.353  41.354  13.405
 7125W        W78851   6.315  40.763   3.180
 7126W        W78852  44.756  36.161   1.352
 7127W        W78853  18.640   3.736  12.663
 7128W        W78854  37.791  16.526  13.962
 7129W        W78855  44.801   0.396   3.845
 7130W        W78856  25.911   7.727   4.878
 7131W        W78857  20.140  14.040   2.784
 7132W        W78858  25.576  38.934   3.353
 7133W        W78859  25.147  18.191  11.485
 7134W        W78860  36.138  32.628   3.669
 7135W        W78861  35.419  32.369  11.914
 7136W        W78862  12.759  25.516  14.277
 7137W        W78863  20.578  29.885   2.788
 7138W        W78864  19.111  26.913   0.195
 7139W        W78865  22.515  34.880   0.479
 7140W        W78866  36.071  14.968  13.385
 7141W        W78867  31.908   2.668  10.996
 7142W        W78868  38.280  27.465   1.666
 7143W        W78869  44.842  25.872   2.516
 7144W        W78870  14.002  30.469   1.789
 7145W        W78871  34.878  37.990  10.547
 7146W        W78872  39.028  12.859   3.522
 7147W        W78873  10.836  34.614   4.341
 7148W        W78874  41.435  36.975  14.121
 7149W        W78875  44.763  31.105  10.389
 7150W        W78876  23.702   8.982  14.699
 7151W        W78877  11.324  25.615  11.314
 7152W        W78878  20.079  36.589  12.913
 7153W        W78879  37.623   0.474  11.604
 7154W        W78880  38.797   5.237  12.952
 7155W        W78881  23.524  21.658  14.878
 7156W        W78882   1.053   8.883  10.723
 7157W        W78883  30.982  24.092   0.320
 7158W        W78884   3.950  16.146   1.240
 7159W        W78885  16.191  19.046   4.492
 7160W        W78886  27.678  16.133  11.079
 7161W        W78887  43.455   9.180   3.237
 7162W        W78888   1.348  28.032   4.095
 7163W        W78889   4.805   6.800  11.298
 7164W        W78890  32.003  23.948   2.951
 7165W        W78891  33.942  43.830  14.425
 7166W        W78892  23.784  21.047   4.802
 7167W        W78893  33.609  26.128   4.283
 7168W        W78894  17.113  36.968  12.508
 7169W        W78895   1.713  44.260  14.398
 7170W        W78896  40.411  30.831   3.762
 7171W        W78897  15.233  42.880   1.907
 7172W        W78898  28.147   4.029  11.872
 7173W        W78899   4.844  41.257   2.826
 7174W        W78900  29.115  14.883   2.939
 7175W        W78901  21.499  33.717   1.841
 7176W        W78902  37.075  37.975  10.649
 7177W        W78903   2.584  23.197  13.028
 7178W        W78904  22.983  27.231   0.749
 7179W        W78905  15.348   0.058   3.363
 7180W        W78906  20.841  28.114   3.591
 7181W        W78907  14.667  11.835   4.634
 7182W        W78908   4.185  42.123  13.273
 7183W        W78909   2.662  32.992   0.914
 7184W        W78910   9.089  22.714   1.050
 7185W        W78911   5.382  36.033   0.562
 7186W        W78912   4.422   4.594   4.579
 7187W        W78913   6.105  20.543  10.565
 7188W        W78914  18.059  20.597   3.730
 7189W        W78915  22.145   9.178   3.206
 7190W        W78916  34.263  22.250   2.840
 7191W        W78917  20.309  36.474  13.411
 7192W        W78918  43.361  27.460  13.605
 7193W        W78919  32.740  26.005  13.339
 7194W        W78920  32.672  35.085   0.052
 7195W        W78921  42.654  18.807   2.809
 7196W        W78922   1.777   1.470  11.836
 7197W        W78923  19.292  42.892  12.850
 7198W        W78924  41.632  16.408   2.289
 7199W        W78925  24.008  43.275  14.455
 7200W        W78926  37.547  29.103   2.677
 7201W        W78927  29.403   5.391   3.048
 7202W        W78928  18.212  10.205  13.523
 7203W        W78929  31.691  40.026  14.803
 7204W        W78930   9.291  39.059  13.414
 7205W        W78931  38.741  14.198   3.813
 7206W        W78932   4.712  13.773  12.843
 7207W        W78933  23.003  40.260  12.560
 7208W        W78934  39.114  28.667   3.215
 7209W        W78935  23.460  20.067  12.940
 7210W        W78936  10.646  22.155   3.577
 7211W        W78937  14.714  34.423  10.615
 7212W        W78938  29.094  17.327   0.784
 7213W        W78939  25.303  31.098   2.960
 7214W        W78940   3.768  38.773   3.637
 7215W        W78941  16.734   2.952   0.376
 7216W        W78942  22.175  41.465  12.041
 7217W        W78943  18.626   4.005  13.980
 7218W        W78944   5.705  40.922  11.242
 7219W        W78945  19.641  40.928  13.251
 7220W        W78946   1.238  16.265  11.399
 7221W        W78947  22.048  26.655  13.471
 7222W        W78948   7.824   9.119   1.772
 7223W        W78949  19.047  42.326  10.639
 7224W        W78950   9.347  29.310   4.580
 7225W        W78951  40.607  24.310   0.880
 7226W        W78952  39.516   0.362  13.866
 7227W        W78953  14.705  28.996  12.643
 7228W        W78954  32.560  22.508   3.947
 7229W        W78955  35.942  42.811   4.111
 7230W        W78956   4.010  38.797  12.022
 7231W        W78957  42.404  20.006   4.335
 7232W        W78958   6.130  29.215   2.320
 7233W        W78959  32.271  18.248   0.022
 7234W        W78960  26.491  33.384   2.909
 7235W        W78961   0.530  30.024   2.673
 7236W        W78962  34.581   8.585   4.724
 7237W        W78963  44.612  18.377  11.604
 7238W        W78964  12.750  28.158  11.642
 7239W        W78965  28.821  25.070  13.001
 7240W        W78966  39.796  28.095  13.927
 7241W        W78967   2.619  34.375  13.006
 7242W        W78968   5.059   6.903  10.265
 7243W        W78969  11.493  28.526  12.011
 7244W        W78970  23.655  34.499   4.114
 7245W        W78971  10.849  37.888  12.500
 7246W        W78972   4.901  21.980  12.031
 7247W        W78973  21.973  30.486  12.044
 7248W        W78974  15.122  18.493  13.874
 7249W        W78975   4.467  12.689   1.077
 7250W        W78976   9.183  36.118  10.309
 7251W        W78977  38.008  38.096  12.650
 7252W        W78978  17.173  30.700  12.905
 7253W        W78979   8.411  12.705   3.180
 7254W        W78980   8.231  31.678   2.480
 7255W        W78981  42.302   2.956  10.735
 7256W        W78982  32.151  10.293  11.535
 7257W        W78983   5.762   8.881  10.922
 7258W        W78984   2.213   5.779   1.000
 7259W        W78985  26.081  15.554  11.574
 7260W        W78986  19.949  23.831   2.717
 7261W        W78987   9.773   3.458   2.319
 7262W        W78988  14.342  38.341  11.135
 7263W        W78989   6.471  11.402  12.466
 7264W        W78990  44.769   1.284  13.856
 7265W        W78991  15.567  35.828   1.840
 7266W        W78992  10.298  15.130   3.192
 7267W        W78993   9.229  17.614  12.495
 7268W        W78994   8.874  22.006  13.236
 7269W        W78995  12.041  21.753   2.270
 7270W        W78996  42.380   1.245   2.259
 7271W        W78997  11.841   4.692   1.243
 7272W        W78998  34.633  34.059   3.685
 7273W        W78999  38.079   5.444  13.566
 7274W        W79000  40.768  16.498  14.761
 7275W        W79001  17.057   7.951  13.564
 7276W        W79002  32.975  44.600   3.591
 7277W        W79003   7.215  39.260  13.681
 7278W        W79004  18.956  15.589   0.464
 7279W        W79005   9.398  33.743   3.462
 7280W        W79006  17.780  36.521  12.637
 7281W        W79007  29.656  36.994  10.742
 7282W        W79008  43.989  44.855  13.508
 7283W        W79009  26.995  43.466   2.201
 7284W        W79010  28.339  32.195  13.498
 7285W        W79011   3.185  27.068   1.270
 7286W        W79012  11.148  18.003  11.995
 7287W        W79013  12.106  24.575   3.813
 7288W        W79014  26.014  13.864  12.064
 7289W        W79015  42.950  18.161  10.485
 7290W        W79016  10.319  17.187   2.794
 7291W        W79017   8.313  20.917  11.356
 7292W        W79018  41.550  30.176   4.030
 7293W        W79019  32.149  22.550  12.107
 7294W        W79020  11.001  21.144  11.854
 7295W        W79021   7.250  18.279   0.830
 7296W        W79022  37.656   4.256   3.959
 7297W        W79023  25.283  26.614   0.293
 7298W        W79024  35.607  25.552   2.661
 7299W        W79025   8.401  17.520   0.969
 7300W        W79026   7.347  31.246   2.342
 7301W        W79027  41.934  31.290   1.251
 7302W        W79028   7.947  39.556  11.085
 7303W        W79029   2.474  19.951  14.500
 7304W        W79030  22.240  26.529   0.362
 7305W        W79031  11.787  23.440   4.684
 7306W        W79032  29.665   1.916  11.175
 7307W        W79033  33.268   5.018  10.662
 7308W        W79034   1.268  28.372  12.529
 7309W        W79035  26.655   1.019   4.035
 7310W        W79036  17.554  12.922   0.606
 7311W        W79037  21.035  30.431  12.666
 7312W        W79038  41.003  34.046  12.486
 7313W        W79039   9.738  18.977  11.624
 7314W        W79040  16.930  40.971   4.968
 7315W        W79041  30.526  10.216  10.686
 7316W        W79042  41.073  16.767  10.789
 7317W        W79043  13.157  11.880   4.279
 7318W        W79044  19.035  26.436   3.338
 7319W        W79045  28.532   1.994  11.423
 7320W        W79046  13.135  38.790   0.403
 7321W        W79047  10.739   2.465   2.225
 7322W        W79048   6.496   7.167  14.841
 7323W        W79049  25.584  26.994   0.042
 7324W        W79050  27.319  34.499   0.692
 7325W        W79051  31.698   4.608   2.324
 7326W        W79052  34.332  27.983   0.787
 7327W        W79053  28.718  19.678  10.612
 7328W        W79054  37.580  44.849   1.950
 7329W        W79055  17.746  37.818  10.704
 7330W        W79056   4.444  28.913  11.175
 7331W        W79057  19.714   2.294  10.796
 7332W        W79058  41.459  19.793   3.219
 7333W        W79059  13.542  44.417   0.828
 7334W        W79060  24.055  13.369   0.869
 7335W        W79061  10.930  43.953   1.125
 7336W        W79062   8.826  41.309  11.578
 7337W        W79063  13.619  26.205  12.525
 7338W        W79064  18.571  22.524   3.581
 7339W        W79065  35.054  21.021  10.926
 7340W        W79066  11.319  23.555  12.527
 7341W        W79067  41.460   3.218   3.760
 7342W        W79068  17.744  41.367   3.433
 7343W        W79069  27.464  23.174   0.352
 7344W        W79070  26.573  31.347  10.841
 7345W        W79071  38.939  17.040   1.178
 7346W        W79072  32.148  11.195  13.463
 7347W        W79073  12.787  20.222   0.872
 7348W        W79074  19.602   2.182   1.161
 7349W        W79075  38.947  23.431   2.635
 7350W        W79076  37.194   1.270   3.360
 7351W        W79077  35.707  22.891   3.278
 7352W        W79078  41.023  25.300   0.832
 7353W        W79079  33.936  31.893  14.202
 7354W        W79080  18.732  43.876  12.670
 7355W        W79081  24.634   9.835   4.536
 7356W        W79082  44.204  29.754   0.251
 7357W        W79083  40.852   6.766   1.646
 7358W        W79084  10.096  22.190  12.760
 7359W        W79085  37.176  12.281   4.182
 7360W        W79086  28.094  44.119   2.423
 7361W        W79087  40.590  14.211   3.276
 7362W        W79088  34.064   4.687  13.153
 7363W        W79089  18.737  10.932  13.339
 7364W        W79090  15.014  43.098  12.008
 7365W        W79091  21.445  41.599  14.350
 7366W        W79092  40.878  39.753   2.642
 7367W        W79093   3.863   4.663  13.973
 7368W        W79094   6.457  19.548   5.090
 7369W        W79095  14.550  26.101  13.982
 7370W        W79096  38.938  44.010   1.805
 7371W        W79097  21.141  42.722  14.034
 7372W        W79098  19.499   0.897  12.635
 7373W        W79099  13.899  21.698  14.932
 7374W        W79100   5.319  36.335   2.172
 7375W        W79101  32.510  11.857   3.789
 7376W        W79102  15.218  31.732   0.463
 7377W        W79103  30.645   0.788  11.057
 7378W        W79104  21.567  33.925  10.698
 7379W        W79105  17.053  12.378   2.041
 7380W        W79106  12.817   6.307  12.882
 7381W        W79107   7.314  30.964   0.175
 7382W        W79108  37.273  24.174  14.503
 7383W        W79109  35.104   0.098  12.351
 7384W        W79110  10.406  36.272   2.631
 7385W        W79111  17.623  22.439   3.861
 7386W        W79112  21.563  36.111   2.672
 7387W        W79113  35.229  18.112  14.417
 7388W        W79114   5.785  27.064   0.953
 7389W        W79115  21.996   8.878  11.952
 7390W        W79116  19.160   0.973  14.787
 7391W        W79117   3.376  23.723   2.694
 7392W        W79118   5.810  25.530  10.715
 7393W        W79119   8.747  15.700  12.557
 7394W        W79120  14.672  34.760  11.643
 7395W        W79121  42.885  39.912   1.978
 7396W        W79122  29.987  44.296  14.977
 7397W        W79123  21.887  35.881  10.985
 7398W        W79124  10.656  43.352  10.671
 7399W        W79125  24.771   9.381  14.829
 7400W        W79126  30.859   7.260  12.027
 7401W        W79127   5.709  35.562   1.239
 7402W        W79128   9.213  11.118   1.293
 7403W        W79129   4.392  27.191   1.238
 7404W        W79130   9.966  31.574   1.839
 7405W        W79131  27.498  20.789   0.619
 7406W        W79132  21.481  40.905  11.020
 7407W        W79133   1.759   9.296   3.658
 7408W        W79134   2.668  18.048  13.606
 7409W        W79135  33.980  33.372   0.234
 7410W        W79136  26.139   4.920   4.220
 7411W        W79137  34.432   4.341  14.762
 7412W        W79138   0.315  35.628  12.973
 7413W        W79139  44.024  12.209  14.786
 7414W        W79140  24.275   7.406   4.091
 7415W        W79141  19.076  43.928  11.553
 7416W        W79142  17.038  44.539   4.065
 7417W        W79143   5.531   1.039   1.368
 7418W        W79144  31.574   0.564  11.539
 7419W        W79145  37.841  34.307  10.490
 7420W        W79146  16.157  35.545  12.018
 7421W        W79147  17.316  26.549  13.453
 7422W        W79148   4.774  21.039  12.095
 7423W        W79149  33.511   2.978   5.102
 7424W        W79150  41.745  44.533  11.684
 7425W        W79151  41.493  34.365   2.877
 7426W        W79152   4.196  38.286  14.327
 7427W        W79153  31.191  32.164   1.328
 7428W        W79154  22.669  19.653   2.816
 7429W        W79155  34.496   7.153   0.735
 7430W        W79156   3.047  38.504  11.665
 7431W        W79157  23.960  31.465   4.094
 7432W        W79158  40.508   5.348  10.925
 7433W        W79159   8.421  27.674   1.867
 7434W        W79160  18.525  25.926  12.914
 7435W        W79161  23.499  33.570   1.725
 7436W        W79162  15.315  37.628   3.161
 7437W        W79163  31.841  33.097  14.746
 7438W        W79164  30.502   2.831   0.426
 7439W        W79165  22.760   6.764  13.993
 7440W        W79166   0.410  21.467  12.511
 7441W        W79167  17.282  24.080  14.924
 7442W        W79168  15.254  20.168  13.105
 7443W        W79169   9.200  35.132   3.548
 7444W        W79170  27.657  21.198   4.213
 7445W        W79171  22.025  32.431   4.139
 7446W        W79172  29.038  37.768  13.866
 7447W        W79173  27.949  18.659   2.086
 7448W        W79174   4.000   3.949  11.296
 7449W        W79175  21.327  28.482  13.332
 7450W        W79176   1.047  32.506   2.037
 7451W        W79177  39.720  42.406   2.976
 7452W        W79178  38.073  33.599   3.218
 7453W        W79179   7.589  23.872   3.600
 7454W        W79180  28.126  12.872   2.162
 7455W        W79181  27.585  29.119   1.345
 7456W        W79182  11.309  25.106  12.620
 7457W        W79183  27.172   8.485   4.125
 7458W        W79184   8.293   9.690   3.088
 7459W        W79185   7.752  40.802  11.504
 7460W        W79186   3.770  35.600  12.747
 7461W        W79187   4.359   8.789   0.461
 7462W        W79188  19.335  27.124   0.945
 7463W        W79189  26.343  16.511  11.882
 7464W        W79190  28.564   7.321  12.909
 7465W        W79191  22.250   5.660   3.757
 7466W        W79192  38.848   2.796  12.935
 7467W        W79193  31.450  13.093   2.691
 7468W        W79194   5.533  13.268  13.093
 7469W        W79195  19.607  22.002  12.579
 7470W        W79196  23.279  13.140   1.951
 7471W        W79197  31.666  16.171   3.211
 7472W        W79198  37.080  22.203  10.658
 7473W        W79199  44.396  22.202   0.944
 7474W        W79200  31.004  27.998   4.733
 7475W        W79201  36.914  13.691   3.791
 7476W        W79202   5.660  35.308   0.798
 7477W        W79203   4.363   1.693  12.002
 7478W        W79204   6.914   4.467   0.124
 7479W        W79205   2.464   9.350  14.307
 7480W        W79206   7.574   5.179   3.755
 7481W        W79207  42.003  12.282   2.688
 7482W        W79208  14.549  20.844  14.905
 7483W        W79209   7.294   6.458  12.445
 7484W        W79210  22.431  19.167   3.936
 7485W        W79211  42.062  37.890   0.500
 7486W        W79212   6.882  21.233  13.113
 7487W        W79213  37.494   7.338   1.024
 7488W        W79214   3.709  38.683   0.763
 7489W        W79215  29.533  15.087   1.342
 7490W        W79216  21.772  32.030   0.057
 7491W        W79217  14.989  35.035  14.722
 7492W        W79218  44.399  13.079  13.783
 7493W        W79219   3.158  16.078   0.801
 7494W        W79220  42.675  28.065  11.478
 7495W        W79221  40.592  24.176   4.070
 7496W        W79222  33.519  22.283   3.311
 7497W        W79223  25.058  24.742   2.637
 7498W        W79224  43.772  14.670  12.677
 7499W        W79225  12.554   6.935  13.565
 7500W        W79226   3.891  35.733  10.574
 7501W        W79227  33.853  23.508   4.575
 7502W        W79228  37.376  44.393  10.214
 7503W        W79229  24.712  29.470  14.527
 7504W        W79230  43.366   7.477  10.985
 7505W        W79231  32.362   4.828  10.251
 7506W        W79232   9.301  36.012   4.495
 7507W        W79233   2.592  25.657   4.061
 7508W        W79234  38.589  17.394   4.455
 7509W        W79235  12.844   5.767  13.023
 7510W        W79236  44.528  38.897  13.050
 7511W        W79237  12.415   6.917   1.222
 7512W        W79238  31.651  43.820   4.184
 7513W        W79239  29.542  44.931   4.521
 7514W        W79240  24.223  16.211  12.561
 7515W        W79241  37.646  10.234  10.036
 7516W        W79242   4.692  24.198  14.303
 7517W        W79243  23.896  16.083  12.961
 7518W        W79244   2.492  33.488  12.614
 7519W        W79245   4.766   8.112   4.802
 7520W        W79246  10.397   8.722   0.860
 7521W        W79247  17.798  28.875   3.954
 7522W        W79248   8.471   6.834   4.524
 7523W        W79249   0.889   9.109  12.714
 7524W        W79250   7.461  13.654   5.579
 7525W        W79251  40.005  11.366   2.419
 7526W        W79252  35.527  29.334  14.963
 7527W        W79253  11.870  25.897   3.607
 7528W        W79254  28.463  22.673   3.610
 7529W        W79255  28.050  29.687   3.515
 7530W        W79256   2.570  40.553   2.726
 7531W        W79257  17.243   7.333  10.304
 7532W        W79258  13.894  18.617   0.922
 7533W        W79259   6.868  36.753   3.710
 7534W        W79260  39.778   0.827  13.928
 7535W        W79261   6.974  34.533  13.848
 7536W        W79262   8.706  40.034   4.575
 7537W        W79263   9.644  12.412   0.924
 7538W        W79264  31.603   0.664   1.219
 7539W        W79265  13.251  37.481  13.059
 7540W        W79266   6.439  24.258  12.542
 7541W        W79267  12.606   0.230  13.709
 7542W        W79268  36.800  24.849  14.322
 7543W        W79269   8.175  20.091   3.327
 7544W        W79270   2.950  14.661  12.362
 7545W        W79271  29.424  40.956   1.874
 7546W        W79272  39.986   3.403  11.846
 7547W        W79273  37.164  25.032   3.481
 7548W        W79274  19.710  43.725   4.064
 7549W        W79275  19.757   5.807  14.773
 7550W        W79276  18.544  22.743   2.241
 7551W        W79277  22.778  36.136   3.273
 7552W        W79278  31.371  19.984   0.007
 7553W        W79279  12.707   0.825   4.685
 7554W        W79280  27.514  31.499  11.570
 7555W        W79281   9.126  11.803  12.588
 7556W        W79282  19.732   1.105  13.566
 7557W        W79283   4.292  37.982   4.278
 7558W        W79284   6.178  41.874   1.750
 7559W        W79285  25.984  38.896   3.050
 7560W        W79286  21.834  29.386   2.313
 7561W        W79287  15.274   5.678   4.235
 7562W        W79288   7.226  26.251   4.460
 7563W        W79289  37.793  14.129   1.452
 7564W        W79290  42.760   5.390   4.269
 7565W        W79291   9.255  20.090   1.943
 7566W        W79292   6.007   5.485  12.374
 7567W        W79293  32.185  32.922  13.686
 7568W        W79294  35.741  18.554  13.295
 7569W        W79295   0.528  23.258  14.994
 7570W        W79296  29.119  16.374  10.878
 7571W        W79297  24.765  11.731  11.173
 7572W        W79298  14.501  36.788   1.124
 7573W        W79299  20.479  18.611  13.698
 7574W        W79300  23.197   5.767   2.374
 7575W        W79301  36.925  29.192   3.198
 7576W        W79302  38.606   1.194   3.149
 7577W        W79303  22.522  39.932  12.448
 7578W        W79304   5.903  41.038   2.305
 7579W        W79305  15.389  34.035  14.803
 7580W        W79306   9.153   0.195   0.828
 7581W        W79307  33.481  27.260   2.685
 7582W        W79308   9.293  31.409  10.726
 7583W        W79309  31.022  18.539  13.838
 7584W        W79310  12.252  38.473   4.067
 7585W        W79311  41.986  37.794   4.116
 7586W        W79312  11.127  30.123   3.906
 7587W        W79313  20.098  36.486  11.559
 7588W        W79314  39.086  28.594  10.759
 7589W        W79315  21.528   3.478  13.853
 7590W        W79316   9.815  30.893   1.079
 7591W        W79317   3.665   4.637   1.975
 7592W        W79318  16.501  36.328  11.008
 7593W        W79319   8.164  33.338   0.112
 7594W        W79320  24.624   7.811   1.928
 7595W        W79321   2.340  19.407   5.015
 7596W        W79322  40.773  35.901   1.427
 7597W        W79323  16.258  39.022   3.127
 7598W        W79324   6.137  33.667   5.060
 7599W        W79325  42.470   8.104   4.834
 7600W        W79326  32.733   9.212   1.741
 7601W        W79327  35.981  42.347   4.998
 7602W        W79328  33.372  42.547  12.476
 7603W        W79329  27.674  13.764   0.903
 7604W        W79330  18.727   6.697   4.231
 7605W        W79331  22.685  43.920   2.865
 7606W        W79332   2.134  21.272   2.293
 7607W        W79333   6.337   2.790  11.221
 7608W        W79334  43.517  34.405   0.009
 7609W        W79335  33.675  31.770   3.542
 7610W        W79336   9.258  31.465   2.249
 7611W        W79337  40.919  32.438   4.812
 7612W        W79338  22.986  40.191  13.433
 7613W        W79339  14.834  39.750  11.144
 7614W        W79340  17.555   2.372  13.041
 7615W        W79341  16.735  32.926  14.338
 7616W        W79342  29.738  42.400   0.364
 7617W        W79343  44.142  43.844   3.618
 7618W        W79344  43.178  39.096   2.222
 7619W        W79345   2.501  16.036  11.561
 7620W        W79346   2.381  21.153  14.760
 7621W        W79347  23.239  14.199  14.922
 7622W        W79348   3.242  13.572  12.935
 7623W        W79349   8.804  42.384   0.816
 7624W        W79350  26.686  22.233  11.618
 7625W        W79351   2.717  37.000   3.360
 7626W        W79352  35.041  21.218   4.077
 7627W        W79353  11.191  29.022   0.505
 7628W        W79354   3.950  16.194  12.621
 7629W        W79355  22.508  35.951  10.942
 7630W        W79356  38.055  11.402   1.365
 7631W        W79357   3.043  33.319   2.168
 7632W        W79358  31.958  30.436   0.246
 7633W        W79359  29.115  19.704   3.805
 7634W        W79360  27.693  36.565  11.397
 7635W        W79361  27.526  27.090   0.772
 7636W        W79362   9.307  36.754  14.532
 7637W        W79363  23.808  24.032   2.238
 7638W        W79364  41.747  40.568   2.143
 7639W        W79365  18.074  24.543  12.415
 7640W        W79366  25.060  16.528  13.799
 7641W        W79367  11.075  35.539   2.680
 7642W        W79368  38.891  16.521   4.672
 7643W        W79369  39.381  16.743   0.449
 7644W        W79370  24.010  31.983  10.034
 7645W        W79371  42.205   3.514   0.290
 7646W        W79372   6.557  20.154  12.842
 7647W        W79373  33.183   1.917   1.851
 7648W        W79374   5.771  26.095   1.423
 7649W        W79375   3.317  41.996  12.035
 7650W        W79376   6.266  30.483  14.758
 7651W        W79377  39.515   3.265   4.394
 7652W        W79378   4.881   8.301   3.823
 7653W        W79379  30.147  20.862  12.904
 7654W        W79380  21.749  24.239   0.367
 7655W        W79381  42.244   8.317   1.905
 7656W        W79382  19.423   5.712  11.506
 7657W        W79383  41.933  15.621   1.511
 7658W        W79384  24.418  39.953   3.199
 7659W        W79385  12.124  24.105   0.726
 7660W        W79386   2.044  26.956   1.895
 7661W        W79387  42.965  30.131  13.059
 7662W        W79388  18.577  33.190  14.320
 7663W        W79389  17.362  35.115  14.451
 7664W        W79390   2.834  16.795  12.143
 7665W        W79391  18.863  21.616  11.766
 7666W        W79392  29.123   4.015   1.726
 7667W        W79393  35.340   4.198  12.379
 7668W        W79394  26.699  43.525  11.216
 7669W        W79395  13.126  36.450   2.242
 7670W        W79396  21.662  13.739   5.034
 7671W        W79397  10.091  17.155  14.789
 7672W        W79398   1.062  17.399  10.417
 7673W        W79399   7.996  19.550   0.884
 7674W        W79400  34.687   0.973   4.852
 7675W        W79401  20.166  22.006   1.678
 7676W        W79402  18.367  43.358   0.042
 7677W        W79403  34.466  26.659   4.184
 7678W        W79404  36.801  33.434  12.509
 7679W        W79405  40.216  35.945   3.615
 7680W        W79406  20.500  35.390  12.476
 7681W        W79407  20.260   2.695   4.011
 7682W        W79408  14.656  31.034  11.144
 7683W        W79409  23.743  16.075   1.320
 7684W        W79410  30.459  28.584   0.760
 7685W        W79411  16.280  24.117  13.038
 7686W        W79412  42.821  29.189  13.882
 7687W        W79413  26.286  34.842   2.803
 7688W        W79414   0.416  36.845   1.592
 7689W        W79415  25.213  27.207   2.902
 7690W        W79416  36.398   1.986  10.412
 7691W        W79417   6.529  16.111   4.538
 7692W        W79418   9.449  34.439  11.903
 7693W        W79419  15.202  18.078   4.144
 7694W        W79420  39.142  39.276   1.275
 7695W        W79421  10.357  17.383   0.971
 7696W        W79422  16.381  25.787  12.390
 7697W        W79423   8.789  15.865   3.096
 7698W        W79424  24.678  22.348   0.364
 7699W        W79425  12.526  11.764  14.802
 7700W        W79426   1.873  43.247  12.964
 7701W        W79427  10.908  39.776  13.413
 7702W        W79428  23.250  23.313   2.306
 7703W        W79429  19.766  44.712   2.337
 7704W        W79430   6.666  29.087  12.785
 7705W        W79431   0.212  18.712   3.608
 7706W        W79432  33.704   8.822   1.777
 7707W        W79433   7.351  22.745  12.603
 7708W        W79434   1.656   0.892   1.805
 7709W        W79435   5.804  20.135  12.021
 7710W        W79436  43.486  43.993  13.271
 7711W        W79437  28.087   1.695   3.605
 7712W        W79438  33.618  20.980   4.565
 7713W        W79439  21.326  27.224   3.695
 7714W        W79440  19.035   3.310   2.764
 7715W        W79441  26.698  40.968  13.559
 7716W        W79442  43.880  17.698   1.624
 7717W        W79443  43.521  33.475  14.950
 7718W        W79444  17.023  25.030  14.674
 7719W        W79445  37.831  19.041   4.605
 7720W        W79446   3.102  22.689   4.096
 7721W        W79447   6.549   1.907   3.361
 7722W        W79448  21.605  17.203  14.062
 7723W        W79449  34.044  10.970   1.250
 7724W        W79450  36.908  29.215  10.465
 7725W        W79451   1.266  38.317  14.179
 7726W        W79452  15.289   7.980  14.102
 7727W        W79453  30.798   1.369   0.121
 7728W        W79454  28.421   1.356   2.771
 7729W        W79455  22.739  23.020  13.443
 7730W        W79456  36.470  39.036  14.960
 7731W        W79457  11.402  18.947   4.321
 7732W        W79458   7.142  17.888  12.969
 7733W        W79459  32.870  16.860  13.391
 7734W        W79460   5.851  37.351   4.588
 7735W        W79461  27.713  13.102   1.621
 7736W        W79462  19.978  43.593  14.401
 7737W        W79463  33.349   7.192  14.523
 7738W        W79464  17.849  31.644   0.044
 7739W        W79465  26.060   0.304  13.998
 7740W        W79466  38.527  39.815   2.280
 7741W        W79467   8.381  36.785  11.401
 7742W        W79468   2.021  41.957   2.550
 7743W        W79469   6.471  19.750  14.714
 7744W        W79470  36.029  21.286   1.245
 7745W        W79471  29.110  18.125   3.375
 7746W        W79472   2.131  39.627   0.234
 7747W        W79473  17.767  44.625   1.914
 7748W        W79474   4.416  32.788   2.050
 7749W        W79475  33.121   1.866  11.612
 7750W        W79476   7.384  29.889   4.313
 7751W        W79477  27.969   0.541   1.155
 7752W        W79478  34.382  41.551  13.569
 7753W        W79479  26.579   0.174   3.648
 7754W        W79480  27.128  37.803  13.054
 7755W        W79481   2.896  33.057   3.662
 7756W        W79482  40.586  34.487   4.752
 7757W        W79483  10.416   4.892  14.679
 7758W        W79484   5.419  21.939  12.062
 7759W        W79485  10.915  30.892  11.061
 7760W        W79486  38.683  35.042  11.962
 7761W        W79487  43.106  15.408  14.790
 7762W        W79488  38.472  15.080  14.539
 7763W        W79489  27.565  44.503  11.883
 7764W        W79490  20.104  34.079   1.466
 7765W        W79491  31.502  36.825   0.379
 7766W        W79492  44.259   0.051   1.869
 7767W        W79493  44.443  41.505  13.793
 7768W        W79494  21.250  38.799  13.901
 7769W        W79495  18.073  13.537   0.017
 7770W        W79496  18.552   6.261  12.473
 7771W        W79497   2.829  11.877   0.543
 7772W        W79498  38.292  31.511   2.730
 7773W        W79499   0.279  40.983   4.881
 7774W        W79500  27.330  26.146  13.056
 7775W        W79501  40.356  35.374  14.463
 7776W        W79502  32.593  26.187  10.055
 7777W        W79503  13.202  40.786   0.683
 7778W        W79504   5.536  31.524  12.019
 7779W        W79505  17.024  24.727   2.628
 7780W        W79506  24.451  38.987   2.446
 7781W        W79507   5.296  43.923  14.331
 7782W        W79508  41.341  12.356  12.659
 7783W        W79509  34.280  29.036   1.119
 7784W        W79510  14.724  44.663  10.888
 7785W        W79511  21.853   3.611   1.186
 7786W        W79512  24.304   5.481  14.917
 7787W        W79513  40.822   4.920  11.409
 7788W        W79514   3.920   7.803   1.317
 7789W        W79515  34.845   8.888  13.298
 7790W        W79516  15.222  15.332   1.483
 7791W        W79517  24.279   3.908   4.797
 7792W        W79518  38.030  23.793  13.532
 7793W        W79519  13.898   1.118   2.694
 7794W        W79520  26.312  39.279  14.471
 7795W        W79521  21.679  30.401  11.586
 7796W        W79522  26.012  27.882  13.933
 7797W        W79523   3.897  14.411  11.946
 7798W        W79524  35.820  22.469  14.052
 7799W        W79525  27.513  22.534   1.367
 7800W        W79526   2.811  22.065   2.399
 7801W        W79527  42.851  10.363   1.417
 7802W        W79528  20.795  26.170  10.728
 7803W        W79529  29.032  27.983  11.967
 7804W        W79530  19.109   4.501  11.838
 7805W        W79531  10.772  28.358   2.640
 7806W        W79532  29.034  13.388   2.921
 7807W        W79533  33.383   4.100   2.886
 7808W        W79534  28.942   5.222   4.602
 7809W        W79535  36.923  16.657  14.269
 7810W        W79536  27.031  28.952  11.771
 7811W        W79537   8.641  44.335   1.583
 7812W        W79538  34.888  24.706  10.684
 7813W        W79539  10.956   8.387   1.630
 7814W        W79540  29.486  19.232   3.129
 7815W        W79541   0.853  37.311   4.666
 7816W        W79542  12.686  44.013   1.443
 7817W        W79543  15.870  44.372  13.960
 7818W        W79544   4.189   1.227   4.565
 7819W        W79545  44.977   5.857   1.074
 7820W        W79546  27.871   2.265  14.544
 7821W        W79547  26.437  29.232   0.502
 7822W        W79548  15.551   4.612  11.589
 7823W        W79549  31.747  15.404   4.152
 7824W        W79550  13.661  20.250  13.254
 7825W        W79551  13.266  42.370   4.536
 7826W        W79552  34.902   7.325   9.890
 7827W        W79553  23.942   4.769   0.710
 7828W        W79554  27.405  20.834  14.593
 7829W        W79555   3.361  40.024   2.192
 7830W        W79556  24.549  40.980   0.430
 7831W        W79557  33.481  39.619  12.603
 7832W        W79558   8.756  26.915   3.395
 7833W        W79559  44.488  13.360  12.455
 7834W        W79560   3.966   6.788  13.837
 7835W        W79561  14.913   7.837   2.099
 7836W        W79562   7.862  29.532  13.596
 7837W        W79563   3.696  39.634   3.039
 7838W        W79564  40.021  15.774  14.928
 7839W        W79565   6.674  35.089  13.894
 7840W        W79566   6.007  42.230   0.468
 7841W        W79567  42.925  35.950   0.651
 7842W        W79568  20.728  23.122  12.461
 7843W        W79569  12.603  16.682   3.593
 7844W        W79570   3.343  12.171  11.453
 7845W        W79571  10.643  18.022  12.925
 7846W        W79572  19.802  14.682   0.211
 7847W        W79573  23.837  18.042   1.171
 7848W        W79574   5.019  10.314   2.617
 7849W        W79575  39.346  17.544   3.737
 7850W        W79576  33.362  36.439   3.209
 7851W        W79577  20.373   5.827   2.744
 7852W        W79578  33.922  38.137  14.378
 7853W        W79579   2.341  32.071   4.644
 7854W        W79580  20.666  20.484  12.798
 7855W        W79581  37.712  21.205   4.070
 7856W        W79582  34.918  39.308  13.517
 7857W        W79583  30.335   0.974  13.832
 7858W        W79584  23.479  42.492   1.822
 7859W        W79585  40.065  30.520   2.811
 7860W        W79586  14.927  13.590   3.637
 7861W        W79587  37.906  37.509   0.539
 7862W        W79588  19.775   0.396  12.298
 7863W        W79589  26.505  40.433   1.853
 7864W        W79590  31.053   9.543   0.864
 7865W        W79591  22.068   6.445  14.440
 7866W        W79592   9.008  14.969  13.329
 7867W        W79593  16.157   7.902   2.599
 7868W        W79594  22.217  14.213   3.900
 7869W        W79595  22.027  41.758  13.894
 7870W        W79596  18.773  34.999  13.450
 7871W        W79597  37.783  27.022  11.439
 7872W        W79598  30.194   0.723   3.608
 7873W        W79599   7.482  29.221  13.375
 7874W        W79600  19.215  32.184   1.902
 7875W        W79601   8.828  42.520   3.169
 7876W        W79602  40.011   9.821  13.107
 7877W        W79603   8.357  29.712  14.390
 7878W        W79604  38.617  30.876   3.830
 7879W        W79605  19.956   3.760  12.963
 7880W        W79606   6.292  38.577  13.566
 7881W        W79607  34.902   0.187   0.268
 7882W        W79608  20.545  43.027   2.715
 7883W        W79609   9.620  44.844  10.704
 7884W        W79610   4.737  31.081   4.628
 7885W        W79611  10.718  33.522   3.643
 7886W        W79612   1.916  25.263   2.312
 7887W        W79613  36.138  41.773  12.407
 7888W        W79614  21.130   9.868  11.643
 7889W        W79615  27.164  16.020   3.249
 7890W        W79616  32.858   8.916   1.345
 7891W        W79617   0.246   6.955   0.228
 7892W        W79618  37.406   4.713   3.235
 7893W        W79619  41.798   0.592  13.412
 7894W        W79620  37.878  13.585   3.967
 7895W        W79621  18.418  29.456  14.491
 7896W        W79622  28.467  42.066  14.599
 7897W        W79623  32.015  12.721   0.235
 7898W        W79624  12.664  19.652   1.237
 7899W        W79625  16.019  28.910  12.969
 7900W        W79626  13.118  14.322   4.729
 7901W        W79627  41.097   4.330   2.094
 7902W        W79628  37.075  10.882  12.998
 7903W        W79629  33.234  30.454  13.002
 7904W        W79630   7.223  38.815  11.500
 7905W        W79631  31.639   8.282   1.401
 7906W        W79632  28.631  23.496   1.371
 7907W        W79633  12.362  38.058  13.553
 7908W        W79634   2.252  15.364  14.745
 7909W        W79635  15.087  35.463   0.859
 7910W        W79636   1.064  34.088   2.707
 7911W        W79637  35.522   4.266  13.545
 7912W        W79638  18.767  36.891   4.093
 7913W        W79639   6.414  36.319   4.127
 7914W        W79640  26.010  31.647   3.014
 7915W        W79641  15.287  15.749  13.918
 7916W        W79642   4.760  34.919   1.236
 7917W        W79643  15.163   4.313   4.280
 7918W        W79644   0.529  30.971   0.731
 7919W        W79645  25.076  34.841  13.030
 7920W        W79646  20.285  11.270   3.888
 7921W        W79647   6.815  27.877  12.027
 7922W        W79648  36.548  15.158   1.678
 7923W        W79649  31.874  25.067   2.940
 7924W        W79650   3.382  36.428  14.091
 7925W        W79651  36.623  25.033  11.671
 7926W        W79652  23.715  23.105  12.121
 7927W        W79653   0.553  20.509   1.761
 7928W        W79654  20.471  36.905  12.714
 7929W        W79655   8.850  21.122   1.190
 7930W        W79656  16.330  31.184  14.296
 7931W        W79657  44.894  20.664   0.527
 7932W        W79658  29.629  28.631  13.016
 7933W        W79659  21.835  42.837   0.838
 7934W        W79660  20.938   2.623  13.448
 7935W        W79661  23.326  35.568   3.773
 7936W        W79662  11.599  40.954   1.493
 7937W        W79663   1.789   8.945   0.864
 7938W        W79664  31.064   1.462  13.347
 7939W        W79665  15.075   5.342  11.795
 7940W        W79666  36.230  14.618  14.460
 7941W        W79667   5.348  32.242  14.204
 7942W        W79668  18.635  12.115  11.620
 7943W        W79669  32.890  19.460  11.986
 7944W        W79670  12.827   2.285  13.833
 7945W        W79671  17.189  33.911  13.572
 7946W        W79672   7.802   4.615   9.688
 7947W        W79673  22.477   4.868   4.176
 7948W        W79674  20.996  28.893   2.148
 7949W        W79675   4.150  38.584   0.469
 7950W        W79676  14.804  33.562  12.992
 7951W        W79677   2.508  33.385  14.238
 7952W        W79678  16.278  20.222  11.140
 7953W        W79679   0.799  22.576   0.322
 7954W        W79680   3.448   3.234   4.692
 7955W        W79681  29.404  11.854   1.371
 7956W        W79682  38.943  21.554  10.748
 7957W        W79683  39.191  22.656  14.749
 7958W        W79684   2.225   6.651  10.632
 7959W        W79685  43.671  17.621   1.099
 7960W        W79686   6.161  35.364   0.923
 7961W        W79687  28.198  17.006  12.625
 7962W        W79688  25.598  38.999  12.820
 7963W        W79689  39.387  22.802   0.193
 7964W        W79690  40.410  44.203   1.299
 7965W        W79691   2.957  33.218  12.507
 7966W        W79692   4.168  43.047   2.809
 7967W        W79693  39.362  33.377   2.851
 7968W        W79694  31.664  37.089   2.198
 7969W        W79695  33.432   4.544  10.554
 7970W        W79696  23.694   0.890  13.837
 7971W        W79697  42.733  30.702   1.505
 7972W        W79698  17.657  32.041  11.094
 7973W        W79699   9.251  14.678  11.176
 7974W        W79700  17.345  20.795   3.148
 7975W        W79701  26.265  26.056   3.161
 7976W        W79702  17.333  32.838   4.616
 7977W        W79703  44.612  38.005  13.905
 7978W        W79704  24.512   1.336   3.817
 7979W        W79705  15.060  15.352  11.105
 7980W        W79706  19.739  42.629  12.747
 7981W        W79707  13.739  12.100   0.906
 7982W        W79708   9.862  21.118  14.019
 7983W        W79709   7.314  39.281  10.571
 7984W        W79710  35.798  31.982   0.658
 7985W        W79711  34.591  25.256   3.909
 7986W        W79712  32.408  34.602   4.523
 7987W        W79713   8.538  26.804   4.337
 7988W        W79714  44.450  39.937  11.917
 7989W        W79715   7.465  11.450   1.817
 7990W        W79716  15.195  10.081  12.643
 7991W        W79717  13.140  11.730   4.779
 7992W        W79718  32.129  10.272  12.421
 7993W        W79719   5.890  12.019  10.604
 7994W        W79720   7.168  34.127  14.348
 7995W        W79721  36.419  39.092   4.137
 7996W        W79722  25.982  19.099  13.915
 7997W        W79723  17.113  20.187   4.313
 7998W        W79724  33.006  22.622   0.748
 7999W        W79725  16.407   5.224   2.384
 8000W        W79726  29.985  11.603  10.597
 8001W        W79727   3.263  37.091   2.349
 8002W        W79728  22.623   1.057   4.923
 8003W        W79729   5.074  31.624  12.477
 8004W        W79730   9.331   4.675  14.025
 8005W        W79731  31.459  18.531   3.795
 8006W        W79732  30.040  18.079   3.176
 8007W        W79733  26.438  20.936   5.094
 8008W        W79734  18.995  42.558   0.062
 8009W        W79735  11.971  11.935  11.942
 8010W        W79736  33.866   6.253   3.754
 8011W        W79737  27.214  21.178   3.889
 8012W        W79738   8.810   1.540   0.785
 8013W        W79739  20.209  19.062  10.728
 8014W        W79740  21.968   8.202   0.659
 8015W        W79741  38.841  20.501   3.821
 8016W        W79742  13.917  17.719   0.728
 8017W        W79743   4.177  36.365   0.767
 8018W        W79744  25.589  20.087  13.043
 8019W        W79745   9.362   3.038   4.123
 8020W        W79746   3.872  31.670   0.042
 8021W        W79747  13.237  12.762   4.090
 8022W        W79748   4.441  43.008  13.113
 8023W        W79749  17.229   8.695  12.309
 8024W        W79750   4.941  16.613  12.485
 8025W        W79751  38.528  14.319   4.599
 8026W        W79752  33.339  24.733   4.547
 8027W        W79753  16.559   0.291   2.238
 8028W        W79754   1.780   7.953  11.157
 8029W        W79755  15.770  17.883   0.854
 8030W        W79756  22.631   4.332  10.393
 8031W        W79757  24.761  18.476  13.419
 8032W        W79758  29.115  27.031   2.453
 8033W        W79759   5.212  10.727  10.846
 8034W        W79760  10.227   4.007   2.876
 8035W        W79761  22.197  20.418  13.297
 8036W        W79762  42.000  14.531  10.619
 8037W        W79763   3.201   4.413   2.942
 8038W        W79764  13.651  30.534  13.402
 8039W        W79765   5.754  11.321   0.858
 8040W        W79766  11.182   1.999  13.814
 8041W        W79767  40.353  35.511   3.086
 8042W        W79768  43.453  38.448   2.667
 8043W        W79769  12.149  42.401   3.749
 8044W        W79770  31.145  29.530   4.527
 8045W        W79771  27.169  13.685  12.960
 8046W        W79772  21.898   5.897  11.177
 8047W        W79773  10.372  35.408   3.113
 8048W        W79774  15.366  32.797  14.639
 8049W        W79775  18.283  18.203   3.264
 8050W        W79776  17.261  34.439  10.586
 8051W        W79777   4.889   1.776  12.030
 8052W        W79778  24.068  19.061   2.655
 8053W        W79779  31.800  44.036  14.263
 8054W        W79780  18.203  44.906   2.836
 8055W        W79781  28.231  41.036  13.910
 8056W        W79782  26.353   4.792  13.777
 8057W        W79783  32.945  21.770  14.813
 8058W        W79784  43.319  14.671  13.937
 8059W        W79785  44.486   7.148   0.828
 8060W        W79786  21.778  34.846   3.049
 8061W        W79787  13.006  41.978  13.779
 8062W        W79788  32.151  35.093   0.453
 8063W        W79789  32.665   6.346   0.366
 8064W        W79790  29.550  23.538   2.950
 8065W        W79791  12.301  44.520   4.354
 8066W        W79792  13.124  41.217   1.653
 8067W        W79793  32.589   9.460  10.621
 8068W        W79794  21.750  31.573   0.357
 8069W        W79795   3.736  24.182  14.284
 8070W        W79796  41.897  40.244   4.800
 8071W        W79797  13.824   8.895  10.763
 8072W        W79798   1.793  36.416  14.336
 8073W        W79799  11.736  26.785   0.057
 8074W        W79800  16.240  36.151  13.802
 8075W        W79801   6.555  13.069  13.004
 8076W        W79802   1.257  42.461  11.877
 8077W        W79803   3.690   9.227   0.440
 8078W        W79804  27.949  32.051  12.573
 8079W        W79805  38.592   2.652   0.543
 8080W        W79806  14.656  28.282  14.504
 8081W        W79807   4.942   2.202  12.352
 8082W        W79808  31.855  31.223   1.943
 8083W        W79809  11.747  22.987  13.165
 8084W        W79810  10.609  36.696   2.245
 8085W        W79811  14.419   5.187   0.205
 8086W        W79812  34.580   3.345  13.643
 8087W        W79813  22.471  43.332  11.050
 8088W        W79814   0.385  14.655   0.849
 8089W        W79815  30.937   3.836   1.920
 8090W        W79816  11.678  43.935  11.390
 8091W        W79817  32.383   4.907  13.446
 8092W        W79818  21.195  36.115  14.796
 8093W        W79819  36.498  10.599  11.183
 8094W        W79820  32.772  34.315  11.703
 8095W        W79821   5.677   9.619   2.204
 8096W        W79822  31.888   8.945   1.712
 8097W        W79823   8.816  40.148   1.013
 8098W        W79824  11.781  22.286  13.525
 8099W        W79825  43.807  29.418   0.004
 8100W        W79826  22.392  32.007  11.015
 8101W        W79827  35.323  28.351   0.874
 8102W        W79828  39.834  43.421   4.292
 8103W        W79829  12.106  11.088  14.127
 8104W        W79830  15.188  27.083   1.132
 8105W        W79831  38.129  43.748  11.994
 8106W        W79832  44.314  32.603   1.001
 8107W        W79833  19.168  22.549   4.390
 8108W        W79834  10.528  41.975  10.645
 8109W        W79835  17.478  26.584   3.519
 8110W        W79836  37.564  19.651   3.465
 8111W        W79837   2.735   5.710  14.726
 8112W        W79838  11.602  32.551   4.822
 8113W        W79839  22.469   3.675   3.585
 8114W        W79840  29.280   0.064  10.784
 8115W        W79841   2.664  27.681   0.807
 8116W        W79842   4.950  20.231   1.652
 8117W        W79843  24.635  22.733  14.974
 8118W        W79844  25.972  15.306  12.896
 8119W        W79845   9.396   2.202  13.019
 8120W        W79846  28.062  26.019   2.149
 8121W        W79847  12.410   2.889  12.998
 8122W        W79848  23.935  24.263   0.787
 8123W        W79849   5.326  40.951  14.942
 8124W        W79850   5.876  28.745   0.739
 8125W        W79851  20.231  20.739   2.452
 8126W        W79852  29.469   1.768  12.503
 8127W        W79853  28.288  11.294  12.043
 8128W        W79854  39.442   2.340   3.772
 8129W        W79855  21.792  11.787  10.469
 8130W        W79856  32.029  44.379   0.051
 8131W        W79857   3.148  30.495   4.114
 8132W        W79858   8.774  21.210   3.186
 8133W        W79859  27.546  11.855   2.811
 8134W        W79860  27.210   7.471  11.169
 8135W        W79861  22.957  16.913  11.103
 8136W        W79862  10.537  22.684  14.392
 8137W        W79863  30.522   3.924  13.752
 8138W        W79864  19.021  31.114  11.226
 8139W        W79865  36.237  11.718  14.889
 8140W        W79866  24.567  39.762  13.922
 8141W        W79867  15.334  17.705   3.431
 8142W        W79868   7.929  25.312   4.966
 8143W        W79869  13.373  29.114   0.818
 8144W        W79870  15.075   5.853   4.693
 8145W        W79871  42.565  18.213  12.320
 8146W        W79872   1.089  41.228  14.886
 8147W        W79873  39.916   2.457  14.404
 8148W        W79874  44.540  41.295   2.970
 8149W        W79875   2.597  32.459  14.334
 8150W        W79876  35.701   4.170  11.230
 8151W        W79877  32.174  39.807  14.831
 8152W        W79878  10.345  41.829  14.365
 8153W        W79879  43.292  27.556  11.805
 8154W        W79880  12.660  38.080  12.913
 8155W        W79881   2.222  34.063  14.797
 8156W        W79882   7.150  37.405  12.960
 8157W        W79883  13.132   6.152   0.318
 8158W        W79884  12.340   6.257  13.122
 8159W        W79885  16.195  18.594   4.758
 8160W        W79886   6.721  16.810   1.260
 8161W        W79887  39.785  23.703  13.915
 8162W        W79888  27.933   7.869   0.883
 8163W        W79889  32.588  33.476   3.243
 8164W        W79890  25.179  21.099  13.536
 8165W        W79891  19.148  19.121  14.043
 8166W        W79892  22.311  39.572   2.149
 8167W        W79893  39.275  37.104  14.387
 8168W        W79894   7.414  36.435  12.429
 8169W        W79895  44.813  41.000  10.596
 8170W        W79896   8.739  14.230  14.397
 8171W        W79897  26.975  40.229  12.691
 8172W        W79898  20.303  25.211  10.719
 8173W        W79899  14.825  21.810  14.927
 8174W        W79900  29.941  23.543   3.300
 8175W        W79901   8.884  22.733   4.378
 8176W        W79902  29.209   3.248  13.370
 8177W        W79903  21.050  21.673  13.440
 8178W        W79904   0.549  34.020   2.817
 8179W        W79905   5.344  44.239   4.512
 8180W        W79906  40.389   8.838  11.460
 8181W        W79907  36.423  23.461   2.400
 8182W        W79908   4.363   3.816   1.784
 8183W        W79909  32.842  32.200  12.151
 8184W        W79910  44.903  37.878  13.498
 8185W        W79911   1.272  31.980   1.941
 8186W        W79912  28.481  38.530   0.938
 8187W        W79913   1.881  37.515  13.753
 8188W        W79914  33.943   1.349  14.793
 8189W        W79915  38.555  13.789   1.732
 8190W        W79916  11.329  36.572  10.623
 8191W        W79917   1.359  32.425  10.686
 8192W        W79918  31.802  26.012  12.369
 8193W        W79919  20.150  44.904  14.311
 8194W        W79920  42.303  23.690  13.600
 8195W        W79921  40.985  24.599  13.525
 8196W        W79922   0.234  15.302   4.093
 8197W        W79923  18.650   3.210   0.343
 8198W        W79924  24.827   7.722  14.457
 8199W        W79925  14.729  22.174   1.334
 8200W        W79926  27.673   0.991  13.918
 8201W        W79927   7.872  44.560  13.064
 8202W        W79928   6.640  28.075  12.632
 8203W        W79929  18.269   3.335   0.981
 8204W        W79930  34.001  42.261   3.412
 8205W        W79931  21.084  22.168  12.520
 8206W        W79932   2.194  34.666   4.033
 8207W        W79933   3.833  40.130  12.195
 8208W        W79934  20.343  22.283  12.003
 8209W        W79935   5.969  37.522   5.060
 8210W        W79936  30.467   5.461   4.148
 8211W        W79937  17.449  38.017  11.093
 8212W        W79938  40.380  32.927   3.353
 8213W        W79939   8.356   1.876  12.057
 8214W        W79940  31.512  23.888  13.545
 8215W        W79941  42.336  41.355   1.519
 8216W        W79942   3.309  40.654  14.295
 8217W        W79943  21.756  27.628  13.901
 8218W        W79944  13.659  36.056  11.192
 8219W        W79945  29.445   9.114  11.994
 8220W        W79946   3.755  13.337   1.421
 8221W        W79947   9.563  33.319   4.970
 8222W        W79948   3.714  24.950   3.894
 8223W        W79949  41.413  11.643   2.076
 8224W        W79950  35.504  26.909  14.501
 8225W        W79951  23.263  29.484   2.328
 8226W        W79952  11.451   9.110   3.119
 8227W        W79953   6.788  31.148   4.417
 8228W        W79954  29.542  38.870  14.766
 8229W        W79955  37.570   1.987  11.175
 8230W        W79956  36.588  42.654   1.678
 8231W        W79957  34.885  11.713  13.618
 8232W        W79958  14.184  23.604   3.943
 8233W        W79959  43.508  28.231  11.151
 8234W        W79960  28.413  37.412  10.698
 8235W        W79961  35.038   8.802   0.030
 8236W        W79962  25.716  20.550   3.234
 8237W        W79963  10.381  33.010   4.642
 8238W        W79964  34.929  24.482  11.139
 8239W        W79965  10.152  34.629  10.550
 8240W        W79966  12.090  24.382  11.010
 8241W        W79967  26.120  12.279   4.860
 8242W        W79968  26.506  25.471  11.968
 8243W        W79969  14.157  21.067  13.722
 8244W        W79970  18.164  24.251  14.740
 8245W        W79971   7.906   5.259  10.145
 8246W        W79972  14.593   2.215  14.805
 8247W        W79973  38.351   9.808  13.794
 8248W        W79974  35.956   6.131   1.644
 8249W        W79975   0.229  39.537   2.275
 8250W        W79976  40.519  31.598  11.631
 8251W        W79977   4.686  34.021   3.952
 8252W        W79978   5.463  41.023   0.510
 8253W        W79979  39.213  14.688   0.425
 8254W        W79980  30.591  34.043   1.792
 8255W        W79981  30.042  16.844  14.771
 8256W        W79982  29.173  33.950  11.147
 8257W        W79983   7.359   6.811   1.444
 8258W        W79984   3.671  34.543  11.979
 8259W        W79985  33.307  23.787  11.012
 8260W        W79986  11.102  13.657  14.362
 8261W        W79987   2.249  40.641  11.571
 8262W        W79988   6.973  35.104  13.017
 8263W        W79989  26.696  38.627   2.343
 8264W        W79990  23.493  28.815  13.533
 8265W        W79991  43.259  29.028   0.829
 8266W        W79992   4.337   4.828  12.200
 8267W        W79993  18.584  41.868   1.041
 8268W        W79994   1.147  33.954  13.841
 8269W        W79995  20.084  11.389   0.439
 8270W        W79996  29.606  29.103  14.404
 8271W        W79997  35.368  28.937   2.227
 8272W        W79998  28.882  26.631   4.119
 8273W        W79999  25.112  28.517   3.357
 8274W        W80000  39.983  42.793   2.748
 8275W        W80001  32.452  21.212  14.461
 8276W        W80002  44.015  12.294   1.358
 8277W        W80003   4.399   8.384   3.993
 8278W        W80004   8.760  17.509  12.692
 8279W        W80005  20.068  16.692   3.263
 8280W        W80006  42.170  30.698  14.725
 8281W        W80007   3.482   2.962   0.674
 8282W        W80008   6.764  27.147   2.412
 8283W        W80009  11.583  11.670   4.923
 8284W        W80010   7.686  37.131  10.968
 8285W        W80011  30.030  19.310   1.739
 8286W        W80012  26.676   0.355   0.290
 8287W        W80013  31.072  13.658  11.906
 8288W        W80014  19.071  21.106   3.104
 8289W        W80015   8.859  29.101  10.302
 8290W        W80016  27.620   8.774   3.633
 8291W        W80017   7.919   0.916   4.450
 8292W        W80018  28.283  35.466  14.473
 8293W        W80019  33.832  14.285   3.777
 8294W        W80020   2.350  31.554   3.621
 8295W        W80021  38.682   1.119   4.269
 8296W        W80022   7.675  26.146  14.874
 8297W        W80023  33.593  34.074  11.751
 8298W        W80024   4.287  38.919   1.819
 8299W        W80025  23.642  11.780  11.826
 8300W        W80026  11.808  27.488  10.717
 8301W        W80027  24.895  40.334   2.732
 8302W        W80028   1.527  12.179   3.223
 8303W        W80029  25.148  43.460   0.267
 8304W        W80030  36.399  17.747  10.945
 8305W        W80031  21.428  38.938  11.898
 8306W        W80032  35.349  38.002  12.128
 8307W        W80033  20.183  14.882   2.249
 8308W        W80034   7.486  36.598   5.023
 8309W        W80035  12.198  35.495  12.504
 8310W        W80036  35.413  20.920   3.329
 8311W        W80037   6.206  24.966   4.522
 8312W        W80038  25.665   5.638  10.746
 8313W        W80039  21.893   4.591  10.930
 8314W        W80040  19.038   2.172   4.851
 8315W        W80041  10.298   0.181  13.035
 8316W        W80042   8.439  34.532   3.154
 8317W        W80043  19.988  10.683  14.998
 8318W        W80044   9.783  26.498  12.217
 8319W        W80045  32.505  38.937  14.803
 8320W        W80046  41.578  12.270   2.381
 8321W        W80047  15.070  40.559  11.074
 8322W        W80048  31.012  27.501   0.935
 8323W        W80049   5.255  19.873   1.415
 8324W        W80050  40.107  29.393  12.448
 8325W        W80051  16.109  17.249  11.420
 8326W        W80052   6.182  25.035  12.105
 8327W        W80053  43.989  14.766   0.766
 8328W        W80054  15.012  15.582  14.967
 8329W        W80055   6.422  38.077   3.399
 8330W        W80056  21.747   2.282   4.078
 8331W        W80057  36.812  37.519   0.396
 8332W        W80058   5.420  10.780  12.345
 8333W        W80059  34.018  25.984  10.659
 8334W        W80060  15.653  26.544   1.819
 8335W        W80061  23.646  31.667   0.999
 8336W        W80062  44.263  22.365  10.644
 8337W        W80063  38.295  24.646   3.366
 8338W        W80064  19.805  29.453   3.245
 8339W        W80065  39.301   8.732   4.088
 8340W        W80066  34.380  21.713   1.989
 8341W        W80067  36.269  37.311  14.214
 8342W        W80068  34.337  18.124  14.825
 8343W        W80069  38.860  38.046  14.501
 8344W        W80070  36.506  27.427  14.027
 8345W        W80071  31.041  23.084  12.238
 8346W        W80072  12.290  31.184   0.455
 8347W        W80073  12.591  39.404   4.515
 8348W        W80074   8.063  32.422  13.411
 8349W        W80075  28.741  36.331  11.870
 8350W        W80076  31.822  30.480   1.237
 8351W        W80077  32.390  24.226   2.768
 8352W        W80078  10.674  12.704  11.576
 8353W        W80079  41.267   4.027   1.714
 8354W        W80080  43.994  20.331   0.892
 8355W        W80081  33.639  24.941  12.623
 8356W        W80082  13.492   8.148   0.816
 8357W        W80083  28.611  17.996  11.891
 8358W        W80084  33.833  28.013  12.450
 8359W        W80085  26.681  40.738  14.463
 8360W        W80086  10.228   2.923  10.626
 8361W        W80087  31.053  38.552  12.139
 8362W        W80088   9.137  42.041   4.526
 8363W        W80089  17.139  29.875   1.543
 8364W        W80090  35.511   5.314   0.494
 8365W        W80091  13.633  34.933  13.079
 8366W        W80092  26.881  33.941  12.180
 8367W        W80093  37.905   5.856   2.892
 8368W        W80094   0.252   9.296   1.958
 8369W        W80095  44.436   8.480   2.341
 8370W        W80096  24.127  43.892  13.389
 8371W        W80097  13.202  10.931  14.771
 8372W        W80098   4.373  21.283  13.862
 8373W        W80099  37.939  26.955  14.313
 8374W        W80100  13.211  34.982  11.363
 8375W        W80101  11.338  22.795   1.802
 8376W        W80102  32.318  40.566  14.209
 8377W        W80103   0.959  14.752  10.715
 8378W        W80104  31.436  18.642   0.816
 8379W        W80105  41.849  18.689   0.385
 8380W        W80106  29.052   4.951  13.929
 8381W        W80107  13.835   9.928  12.490
 8382W        W80108  13.658  22.199  14.283
 8383W        W80109  21.973  39.812  14.918
 8384W        W80110  22.170  41.388   2.549
 8385W        W80111  41.877  13.454  14.363
 8386W        W80112  23.671  43.985  13.646
 8387W        W80113  40.036  22.142   1.060
 8388W        W80114   4.966   0.421  10.585
 8389W        W80115  26.929  34.866   0.737
 8390W        W80116  11.613  14.246   5.010
 8391W        W80117  16.856  16.767   1.200
 8392W        W80118   4.889  27.251   1.838
 8393W        W80119   1.706  42.318  14.026
 8394W        W80120  43.171  16.695   0.904
 8395W        W80121  35.471  32.091   0.282
 8396W        W80122  37.612  44.408   0.028
 8397W        W80123  21.709  41.375  12.250
 8398W        W80124  26.213  23.523  11.118
 8399W        W80125  42.532   7.659  11.450
 8400W        W80126  38.577  19.403   4.331
 8401W        W80127  39.841   5.405   4.121
 8402W        W80128   4.873  24.333  11.847
 8403W        W80129  16.329  14.637   1.760
 8404W        W80130  38.251  13.805   0.215
 8405W        W80131  14.937  43.522   0.745
 8406W        W80132   3.823  32.073   0.382
 8407W        W80133  16.763   4.525   4.871
 8408W        W80134  40.559  14.603   0.943
 8409W        W80135  32.696  31.250  14.280
 8410W        W80136  20.719  18.244   1.403
 8411W        W80137  38.138  13.292   1.377
 8412W        W80138  42.045  15.698   4.874
 8413W        W80139  40.902  43.972  14.939
 8414W        W80140   6.922  38.997   3.376
 8415W        W80141   3.742  12.258   3.067
 8416W        W80142  20.641   7.280   0.466
 8417W        W80143  36.958  10.347  13.119
 8418W        W80144  43.636  24.702  11.949
 8419W        W80145  20.196   3.958  11.143
 8420W        W80146  44.864   0.713  14.740
 8421W        W80147  19.519  44.250   1.866
 8422W        W80148   3.066   5.141  13.412
 8423W        W80149   5.680  34.507   1.919
 8424W        W80150  34.321  23.567  11.860
 8425W        W80151   4.950  12.720   3.749
 8426W        W80152  25.910  35.523   0.177
 8427W        W80153  39.405  32.370   0.328
 8428W        W80154  11.607  10.079   1.744
 8429W        W80155  31.158  24.909  11.846
 8430W        W80156  23.649   6.132   3.818
 8431W        W80157   8.783  42.600  13.995
 8432W        W80158  13.541  21.504   2.376
 8433W        W80159  39.858  36.497   3.247
 8434W        W80160  13.226  24.453   4.416
 8435W        W80161  11.155  39.490   1.184
 8436W        W80162   4.800  13.741  11.484
 8437W        W80163  30.846  22.245  12.292
 8438W        W80164  16.291   0.767   4.198
 8439W        W80165   5.839  17.905  12.939
 8440W        W80166   9.190  37.881  13.077
 8441W        W80167  16.495   0.796   2.302
 8442W        W80168   1.655  44.399  13.424
 8443W        W80169  33.251   1.663  11.139
 8444W        W80170  27.617  14.627   2.889
 8445W        W80171  17.356  41.573  11.576
 8446W        W80172  37.378   4.479  12.098
 8447W        W80173  16.292  25.807  10.681
 8448W        W80174  38.418   5.657   1.581
 8449W        W80175   6.669  40.413   4.062
 8450W        W80176  16.225  42.306  14.500
 8451W        W80177  12.892  25.294   3.716
 8452W        W80178   7.493  35.484   4.373
 8453W        W80179  31.591  10.200  11.475
 8454W        W80180  12.091  44.274  11.322
 8455W        W80181  18.697  35.339  10.697
 8456W        W80182  22.200   6.372   0.517
 8457W        W80183  30.387  13.204   2.596
 8458W        W80184  25.193  18.511   3.204
 8459W        W80185  32.335   8.437   3.798
 8460W        W80186  33.982  29.063   3.479
 8461W        W80187  27.092  25.549  13.442
 8462W        W80188  35.078  27.908  13.939
 8463W        W80189  23.233  16.794   1.740
 8464W        W80190  18.642  10.505  13.597
 8465W        W80191  41.147  12.074  13.075
 8466W        W80192  30.730  37.693  13.504
 8467W        W80193  25.680  30.949  13.375
 8468W        W80194  19.772   9.148  14.938
 8469W        W80195  26.978  19.125  10.596
 8470W        W80196  34.508  44.729  14.813
 8471W        W80197   8.521   1.928   3.383
 8472W        W80198   8.654  25.656   1.731
 8473W        W80199  40.039  41.318   2.668
 8474W        W80200   0.037  16.363  14.071
 8475W        W80201  23.720  15.003   5.037
 8476W        W80202  38.142  40.140   2.137
 8477W        W80203   8.190  37.344   2.307
 8478W        W80204  39.276   8.366   3.713
 8479W        W80205   4.032  15.580  13.869
 8480W        W80206  23.945  15.227  11.582
 8481W        W80207  36.192   4.692  12.059
 8482W        W80208   9.368   9.123  10.830
 8483W        W80209  29.528  36.910  12.177
 8484W        W80210  25.222  23.246   0.319
 8485W        W80211  41.466  14.629   4.620
 8486W        W80212  30.250  29.043  11.745
 8487W        W80213  26.269  18.379   0.351
 8488W        W80214   6.370   8.129  12.927
 8489W        W80215  17.055  35.478  13.762
 8490W        W80216  43.884   7.104  14.456
 8491W        W80217  15.209  32.099  11.031
 8492W        W80218  17.541  26.608   0.839
 8493W        W80219   5.273  14.520   1.799
 8494W        W80220  29.316  38.951   3.358
 8495W        W80221  35.158  17.608  14.582
 8496W        W80222  19.074  28.590   4.076
 8497W        W80223   2.474  36.488   4.728
 8498W        W80224  34.457   9.816  13.520
 8499W        W80225  28.507   4.465  10.715
 8500W        W80226   0.435  26.467  13.894
 8501W        W80227   0.706   9.616  11.281
 8502W        W80228   3.738   2.769   4.587
 8503W        W80229   7.899   8.298  10.752
 8504W        W80230  27.446  14.864  13.459
 8505W        W80231  28.497  15.107  14.293
 8506W        W80232  11.683  25.414   3.656
 8507W        W80233  14.680  29.527   1.882
 8508W        W80234   7.852   7.304   3.727
 8509W        W80235  41.967  10.307  11.983
 8510W        W80236  33.027  26.515  12.040
 8511W        W80237   1.338   2.967  12.227
 8512W        W80238  33.351  30.450   2.261
 8513W        W80239  25.194  39.765  12.775
 8514W        W80240  41.056  31.634  14.917
 8515W        W80241   0.726  31.927   2.588
 8516W        W80242  14.543  32.600   2.833
 8517W        W80243  30.081  40.142   4.653
 8518W        W80244  20.333   8.231   4.874
 8519W        W80245   3.902  20.464  14.430
 8520W        W80246   4.826  22.409   0.476
 8521W        W80247  19.956  23.539  13.850
 8522W        W80248   0.958   3.174   3.284
 8523W        W80249  44.752  19.026  11.209
 8524W        W80250   6.456   7.244   2.312
 8525W        W80251   9.766   3.967   0.755
 8526W        W80252   7.650  28.562   3.266
 8527W        W80253  15.226   3.250  14.560
 8528W        W80254  19.749   8.187   1.505
 8529W        W80255  41.760  43.496   1.867
 8530W        W80256  17.319  22.557   0.659
 8531W        W80257  44.961  40.964   4.132
 8532W        W80258  30.752  35.656   4.100
 8533W        W80259  39.410  25.169  12.380
 8534W        W80260  28.554   1.359  10.679
 8535W        W80261  39.650  12.489   2.355
 8536W        W80262  10.321  13.120   1.227
 8537W        W80263   5.960  34.129  12.027
 8538W        W80264   2.853  20.824   0.961
 8539W        W80265  36.380  15.747  14.451
 8540W        W80266  38.995  25.670  11.160
 8541W        W80267  38.963  11.739   1.640
 8542W        W80268  19.801   7.282  12.878
 8543W        W80269  13.777  41.483  11.891
 8544W        W80270   3.377  15.005   5.255
 8545W        W80271   3.726  35.185  10.409
 8546W        W80272   1.563  33.028   1.838
 8547W        W80273  31.328  30.070  10.506
 8548W        W80274  42.314  39.138   4.253
 8549W        W80275  43.216  12.664  10.265
 8550W        W80276  39.285  42.733  10.489
 8551W        W80277  25.914  22.555   5.182
 8552W        W80278  44.579  27.092  12.037
 8553W        W80279   5.261  11.163   0.902
 8554W        W80280   7.359  21.434  10.194
 8555W        W80281  36.943  38.469  12.481
 8556W        W80282   3.886  15.184   9.738
 8557W        W80283  13.305   4.018   0.274
 8558W        W80284   9.815  40.279  10.857
 8559W        W80285   9.630  33.588   5.415
 8560W        W80286  16.667  29.691   1.382
 8561W        W80287  30.798  39.187   3.186
 8562W        W80288   1.769   4.808  12.654
 8563W        W80289  10.683  39.557  14.891
 8564W        W80290  28.056  25.511  11.390
 8565W        W80291  35.772  35.576   4.398
 8566W        W80292  31.432  40.902  11.681
 8567W        W80293  16.400   8.491   1.404
 8568W        W80294  33.452  32.910   2.317
 8569W        W80295  30.700   2.807  11.939
 8570W        W80296  22.475  37.158  13.423
 8571W        W80297   3.379  43.167   2.810
 8572W        W80298   5.437   1.365  11.499
 8573W        W80299   4.204   8.345  12.998
 8574W        W80300  29.130  14.208  10.424
 8575W        W80301   9.245  40.398   1.225
 8576W        W80302   8.111  17.193  14.896
 8577W        W80303  24.558  32.772   3.375
 8578W        W80304  10.736  34.063   2.683
 8579W        W80305  11.619  30.635   2.573
 8580W        W80306  43.362  15.326  14.294
 8581W        W80307  43.089  42.748   5.126
 8582W        W80308  37.352  16.818   4.741
 8583W        W80309  17.310  28.232  13.842
 8584W        W80310  25.692   8.416  11.523
 8585W        W80311  40.826   5.215  14.000
 8586W        W80312   5.366  44.110  11.526
 8587W        W80313  24.526  31.668  10.619
 8588W        W80314   0.188   3.865   4.889
 8589W        W80315  34.106  37.922  13.561
 8590W        W80316  18.845  30.589  11.488
 8591W        W80317  13.782  24.263   1.262
 8592W        W80318  17.267  14.722  11.922
 8593W        W80319  41.095  42.262   0.856
 8594W        W80320   2.727  10.055  14.950
 8595W        W80321  19.529   7.297   4.316
 8596W        W80322  26.724  16.219   3.402
 8597W        W80323  14.278  39.229  14.284
 8598W        W80324  27.788   8.284   3.617
 8599W        W80325  19.245  22.863   2.620
 8600W        W80326  38.587  25.933   0.351
 8601W        W80327   7.883  22.265   1.920
 8602W        W80328  40.984   6.269  13.742
 8603W        W80329  15.061  41.650  12.875
 8604W        W80330  18.269  17.054   2.820
 8605W        W80331  32.484   8.498  13.521
 8606W        W80332  37.822  26.274  11.614
 8607W        W80333  24.122  34.448  11.713
 8608W        W80334  35.929  22.635  13.560
 8609W        W80335  15.600  37.202   9.826
 8610W        W80336   8.935  18.691   3.342
 8611W        W80337  16.481  36.463  14.519
 8612W        W80338  32.409  10.714   0.146
 8613W        W80339  12.574   5.793   3.222
 8614W        W80340   7.615  11.341  10.607
 8615W        W80341  37.505  20.854  10.580
 8616W        W80342   0.981  35.367   0.885
 8617W        W80343  39.272  40.997   1.748
 8618W        W80344  42.142  42.772   3.763
 8619W        W80345  29.759   4.022   3.337
 8620W        W80346  14.791  19.557  11.867
 8621W        W80347   1.824  40.555   0.785
 8622W        W80348  32.386  22.654  13.032
 8623W        W80349   9.652  18.760  11.139
 8624W        W80350  24.514   1.017   1.404
 8625W        W80351   7.306  32.127   4.575
 8626W        W80352  11.373   5.441  12.004
 8627W        W80353   4.857  16.162  11.490
 8628W        W80354  20.490  29.522  12.606
 8629W        W80355  13.021  43.223   1.896
 8630W        W80356  37.596  37.378   2.386
 8631W        W80357   1.523  43.770  10.753
 8632W        W80358  13.213   9.301  12.236
 8633W        W80359  12.679   8.318   0.122
 8634W        W80360   3.455  26.988   3.275
 8635W        W80361  21.499  32.535   3.187
 8636W        W80362  10.159  38.415   2.659
 8637W        W80363  16.861   9.134   1.795
 8638W        W80364  13.126  31.989   3.737
 8639W        W80365  10.014  32.373   4.393
 8640W        W80366  22.155  22.034   0.358
 8641W        W80367  17.641  33.326   2.208
 8642W        W80368  36.449  27.960   2.681
 8643W        W80369  10.954  36.771   1.283
 8644W        W80370  34.497  15.651   5.203
 8645W        W80371  20.544   1.755   2.388
 8646W        W80372  16.068  39.941  10.599
 8647W        W80373  32.633  22.989  10.149
 8648W        W80374  37.452  17.842  14.757
 8649W        W80375  36.488   1.223  12.513
 8650W        W80376  33.009  26.185   4.961
 8651W        W80377   3.968  27.185   2.442
 8652W        W80378  40.968   2.499  13.808
 8653W        W80379  41.652  20.214   0.186
 8654W        W80380  28.566  16.754  10.712
 8655W        W80381   6.198  26.239   1.918
 8656W        W80382  43.755   6.200   1.448
 8657W        W80383  36.093  42.224  11.056
 8658W        W80384   3.312  27.644   1.862
 8659W        W80385   6.521  24.765   0.977
 8660W        W80386  19.656   8.483  12.326
 8661W        W80387   1.837  10.216  14.087
 8662W        W80388  10.450   0.022  12.148
 8663W        W80389  32.010  34.569   2.910
 8664W        W80390  27.937  29.052  10.650
 8665W        W80391  36.319  30.024  14.941
 8666W        W80392  10.286  20.367  11.779
 8667W        W80393  12.685  26.445  12.897
 8668W        W80394   8.360  39.360  10.864
 8669W        W80395  22.144  12.268   9.616
 8670W        W80396  43.889  25.752  10.596
 8671W        W80397  36.927   5.872   0.421
 8672W        W80398  39.735  11.384  14.333
 8673W        W80399  10.357  37.072  13.728
 8674W        W80400  12.159  31.956  12.658
 8675W        W80401  12.209  16.336  12.072
 8676W        W80402  30.546   9.133  10.647
 8677W        W80403   9.402  36.468   0.360
 8678W        W80404  19.878  34.305   0.043
 8679W        W80405  38.311  28.076  14.092
 8680W        W80406  24.215   4.498   3.290
 8681W        W80407  10.542  15.553   3.428
 8682W        W80408   7.578  22.460   3.204
 8683W        W80409  43.056  35.453  13.932
 8684W        W80410  20.998  28.686  12.554
 8685W        W80411  18.568  39.405   2.825
 8686W        W80412   1.501  11.893  12.081
 8687W        W80413  20.682  30.179   0.832
 8688W        W80414  11.371  23.172   4.020
 8689W        W80415  13.738  15.457   1.802
 8690W        W80416  42.487  42.374  12.563
 8691W        W80417  41.818  36.067  13.961
 8692W        W80418  24.032  12.833  13.963
 8693W        W80419  18.360  28.100   1.936
 8694W        W80420  27.199   7.831  14.053
 8695W        W80421  13.810   5.806  10.787
 8696W        W80422  37.451  33.153   9.901
 8697W        W80423  35.329  31.039  11.606
 8698W        W80424  10.345   0.891   0.267
 8699W        W80425  15.991  31.832   3.728
 8700W        W80426  32.876  38.908  12.569
 8701W        W80427  24.058  13.435   5.224
 8702W        W80428  30.330   7.462  13.936
 8703W        W80429  24.191   0.886  14.745
 8704W        W80430  25.244  35.267   4.138
 8705W        W80431  44.790  40.960   0.818
 8706W        W80432  30.397  18.190  11.219
 8707W        W80433  11.653  38.259   2.708
 8708W        W80434   8.698   2.943  11.018
 8709W        W80435   5.092  37.948   2.737
 8710W        W80436  14.530  33.463   4.484
 8711W        W80437  16.572  12.262  14.003
 8712W        W80438   9.786  17.016  14.194
 8713W        W80439   9.118   1.264   3.855
 8714W        W80440  11.532   4.659  10.566
 8715W        W80441  43.792   1.336   1.736
 8716W        W80442  43.888  15.138   4.745
 8717W        W80443  23.047  10.064   2.054
 8718W        W80444   3.860  10.735   2.310
 8719W        W80445  33.714  40.941  10.716
 8720W        W80446  28.626  17.111  12.326
 8721W        W80447   8.333  10.660  14.971
 8722W        W80448  29.934  21.999  12.126
 8723W        W80449  31.874   2.625  14.425
 8724W        W80450   5.321  42.850  12.717
 8725W        W80451   4.055  40.872  13.841
 8726W        W80452  16.746  19.727  10.444
 8727W        W80453  23.997  33.262   4.466
 8728W        W80454  20.298  11.629  14.123
 8729W        W80455  41.487  13.280   0.325
 8730W        W80456   5.086   0.400   1.696
 8731W        W80457  21.306  15.570  13.166
 8732W        W80458   6.785   1.229   0.380
 8733W        W80459   1.838  42.212  13.029
 8734W        W80460  42.728   7.679  14.808
 8735W        W80461  23.082  42.025   1.260
 8736W        W80462   2.347  40.836   2.337
 8737W        W80463   1.312  36.573  10.583
 8738W        W80464  43.640  42.977   5.186
 8739W        W80465  13.954   5.896  13.441
 8740W        W80466  17.806  15.812  11.895
 8741W        W80467  26.760  30.824   3.825
 8742W        W80468   6.599  25.330   2.868
 8743W        W80469  29.152  25.134   0.265
 8744W        W80470  44.548  11.463  14.765
 8745W        W80471  35.030  43.588   4.988
 8746W        W80472   6.832  25.040  14.120
 8747W        W80473  42.822   7.331   2.277
 8748W        W80474  24.480  23.694  13.862
 8749W        W80475  24.629  36.000  11.058
 8750W        W80476  21.690  15.189   2.318
 8751W        W80477   6.445   9.641   1.687
 8752W        W80478  28.167   9.422   2.144
 8753W        W80479  36.863  10.836   4.202
 8754W        W80480   8.056  22.660   3.170
 8755W        W80481   9.624   7.858   1.977
 8756W        W80482  28.073  38.808   2.477
 8757W        W80483  13.310  40.388  10.663
 8758W        W80484  36.467  25.205  10.758
 8759W        W80485  31.145  41.794  10.588
 8760W        W80486  14.360   2.302   4.328
 8761W        W80487  22.049   9.570   2.892
 8762W        W80488   7.835  16.072   4.598
 8763W        W80489  34.894  25.086  11.927
 8764W        W80490  30.333  22.099   4.109
 8765W        W80491  42.520  20.681   2.179
 8766W        W80492  32.985  19.164   2.246
 8767W        W80493  19.778   7.196  12.380
 8768W        W80494  18.157  30.587   1.794
 8769W        W80495  28.620  12.243  12.051
 8770W        W80496   2.509   6.286   4.217
 8771W        W80497   1.355  32.598  12.577
 8772W        W80498  23.422  38.722  14.466
 8773W        W80499   0.957   6.703   2.405
 8774W        W80500  12.702   7.725   3.634
 8775W        W80501   5.944   4.075  11.959
 8776W        W80502  23.062  30.611  12.495
 8777W        W80503  28.382   3.196   5.271
 8778W        W80504  40.903   6.748   2.655
 8779W        W80505  39.420  40.747   4.782
 8780W        W80506  29.939  16.765   2.328
 8781W        W80507   4.525   2.460   4.466
 8782W        W80508  44.450  13.575  14.054
 8783W        W80509  10.910  43.396  14.678
 8784W        W80510  43.877  44.294  12.163
 8785W        W80511  17.238  42.416   1.445
 8786W        W80512  11.643  18.234   0.802
 8787W        W80513  24.905  11.719  14.904
 8788W        W80514  34.541  43.406  10.874
 8789W        W80515  13.580  31.314  11.179
 8790W        W80516  19.665  17.992   4.557
 8791W        W80517  26.383  24.766  14.489
 8792W        W80518  21.067   6.337   2.840
 8793W        W80519   6.171  23.117  10.647
 8794W        W80520  37.990   9.354  10.943
 8795W        W80521  34.410  17.989  13.412
 8796W        W80522  36.090  12.776  14.977
 8797W        W80523  27.670  30.878  13.536
 8798W        W80524   2.258  37.339  10.412
 8799W        W80525   5.180  24.175  10.633
 8800W        W80526  14.708   4.766  10.125
 8801W        W80527   1.881  35.290  13.996
 8802W        W80528  11.867   8.704  10.598
 8803W        W80529  28.057  30.030   2.160
 8804W        W80530   7.706  33.382   2.939
 8805W        W80531  42.805   0.560   3.812
 8806W        W80532  41.726  36.526  14.952
 8807W        W80533   7.725  15.059   0.773
 8808W        W80534  34.292  14.332  11.241
 8809W        W80535  18.070  17.726  10.709
 8810W        W80536  13.812   8.182  14.915
 8811W        W80537  13.860  33.683   0.848
 8812W        W80538   9.013  35.191   2.642
 8813W        W80539  32.904  17.574   3.142
 8814W        W80540  19.950  27.594  10.105
 8815W        W80541  13.982  23.663  10.629
 8816W        W80542   9.684   6.747  13.317
 8817W        W80543   1.106   4.089  13.037
 8818W        W80544  22.666  19.645   3.729
 8819W        W80545  31.289   4.064  13.413
 8820W        W80546  38.671  24.382  14.731
 8821W        W80547  16.992  26.975   2.524
 8822W        W80548  38.390  19.592   2.893
 8823W        W80549   5.155  41.823  14.049
 8824W        W80550   6.373   2.478  11.631
 8825W        W80551  36.387  17.809   3.763
 8826W        W80552   8.396  39.613   1.865
 8827W        W80553  44.580  13.546  12.933
 8828W        W80554  18.922  37.787  14.441
 8829W        W80555  37.462   9.124  12.810
 8830W        W80556   7.743  42.044  11.237
 8831W        W80557  29.388   8.471  13.432
 8832W        W80558  15.691  30.460  13.111
 8833W        W80559  25.569  18.781   3.444
 8834W        W80560  25.656  29.416   4.134
 8835W        W80561  22.401  14.653   4.096
 8836W        W80562   9.780  31.580  14.358
 8837W        W80563  13.169   2.374  13.015
 8838W        W80564  16.347  10.249   3.366
 8839W        W80565   5.783  12.794  13.109
 8840W        W80566   1.437  30.380   0.922
 8841W        W80567  23.853  14.302  13.007
 8842W        W80568   6.153   7.122  13.969
 8843W        W80569  38.309  22.690   1.367
 8844W        W80570  28.453  31.702  13.456
 8845W        W80571   3.385  33.553   4.734
 8846W        W80572  34.209   8.879   0.386
 8847W        W80573  44.315  28.682   2.375
 8848W        W80574  20.507   1.295   1.345
 8849W        W80575  11.212  31.852  14.900
 8850W        W80576  11.652   4.934   2.643
 8851W        W80577  17.977   2.442  12.052
 8852W        W80578   7.931  42.811  11.622
 8853W        W80579   4.413  16.681  10.856
 8854W        W80580  37.061   9.176  12.491
 8855W        W80581  44.342  36.499   3.632
 8856W        W80582  10.197   8.586  11.938
 8857W        W80583  25.478   8.688  14.730
 8858W        W80584  40.503   3.163   1.314
 8859W        W80585  28.937  37.798   3.712
 8860W        W80586  34.930  44.482   2.375
 8861W        W80587  24.440  17.560   0.731
 8862W        W80588  20.019   4.873   0.034
 8863W        W80589  41.007   0.009  14.762
 8864W        W80590  30.525  18.115   3.717
 8865W        W80591  28.910  23.247   2.212
 8866W        W80592  44.037  22.181  14.539
 8867W        W80593   5.006  12.196  13.076
 8868W        W80594   5.502  18.253   1.922
 8869W        W80595  43.611  23.558  12.081
 8870W        W80596  36.872  18.497  14.790
 8871W        W80597  38.988  17.395   4.117
 8872W        W80598   5.800   1.780   0.433
 8873W        W80599  12.538  22.546  14.375
 8874W        W80600  27.091  44.061  10.643
 8875W        W80601  41.449   4.426   3.264
 8876W        W80602  35.598  27.640   2.430
 8877W        W80603  28.165   2.506   4.037
 8878W        W80604  37.982  16.604   0.454
 8879W        W80605   6.918  13.449  12.880
 8880W        W80606  29.476  11.606   3.419
 8881W        W80607  11.636  41.824   1.122
 8882W        W80608  28.261  31.092  12.967
 8883W        W80609  18.827  16.978  12.962
 8884W        W80610  19.730  35.292   2.048
 8885W        W80611  19.598   2.412  13.770
 8886W        W80612  25.959   7.108  11.410
 8887W        W80613  15.287  21.282  12.449
 8888W        W80614  38.868   2.935   1.804
 8889W        W80615  31.849  34.901   0.009
 8890W        W80616  23.218   8.171   3.711
 8891W        W80617  36.819  22.806   1.745
 8892W        W80618  20.567  26.719  13.374
 8893W        W80619  21.594  13.329  11.567
 8894W        W80620  15.608   6.006   3.622
 8895W        W80621  13.671  20.769   0.097
 8896W        W80622  17.518  13.360  12.038
 8897W        W80623  13.541  30.259  11.066
 8898W        W80624  43.491  23.672  11.592
 8899W        W80625  27.093  15.524   0.894
 8900W        W80626  33.223   3.265   0.052
 8901W        W80627   0.700  16.907  11.015
 8902W        W80628   6.195   5.323   4.580
 8903W        W80629  16.199  23.748  13.924
 8904W        W80630  25.038  34.412   2.568
 8905W        W80631  21.153  34.807   4.376
 8906W        W80632  35.461   4.157  14.423
 8907W        W80633  39.545  16.617  12.898
 8908W        W80634   5.602   3.622   1.710
 8909W        W80635   3.463  41.412   2.983
 8910W        W80636  20.971  15.595   0.373
 8911W        W80637  30.074  39.789   2.757
 8912W        W80638  41.050  42.817   1.963
 8913W        W80639  15.630  29.979   4.593
 8914W        W80640  33.154  41.969   4.559
 8915W        W80641   9.204  30.668  10.349
 8916W        W80642  12.598   4.176   1.776
 8917W        W80643  43.338  37.787  14.457
 8918W        W80644  29.546  13.591   2.206
 8919W        W80645  44.176  20.089  14.434
 8920W        W80646  41.352  41.574   1.985
 8921W        W80647  18.521   9.838  12.262
 8922W        W80648  39.571  21.294   0.337
 8923W        W80649  25.501   8.123  13.930
 8924W        W80650  21.502  18.981   2.348
 8925W        W80651   9.084   7.382   4.243
 8926W        W80652  15.348  18.613  11.601
 8927W        W80653  37.154  21.983   4.101
 8928W        W80654  21.435  13.195   3.925
 8929W        W80655   1.634  32.113   4.173
 8930W        W80656   1.422  39.356   3.583
 8931W        W80657  15.176   6.625  12.168
 8932W        W80658  17.833   2.392   2.299
 8933W        W80659  17.128   7.621  11.097
 8934W        W80660  23.967  41.319   3.232
 8935W        W80661  43.837   1.725  11.919
 8936W        W80662  42.698  23.050  13.621
 8937W        W80663  19.737  30.348   3.832
 8938W        W80664   1.483  38.409   4.483
 8939W        W80665  24.474  44.908  12.471
 8940W        W80666  26.036  14.575  14.504
 8941W        W80667  27.265  43.772  11.082
 8942W        W80668  28.137  21.163  13.980
 8943W        W80669  38.677  35.397   0.206
 8944W        W80670   6.330  34.749   4.159
 8945W        W80671  43.953  23.026  13.439
 8946W        W80672  34.873   6.737  10.868
 8947W        W80673   7.817  24.055  14.432
 8948W        W80674  17.088   1.243  12.042
 8949W        W80675  20.159  37.326   3.152
 8950W        W80676  20.046  15.578   2.751
 8951W        W80677  19.463  42.367  14.972
 8952W        W80678  25.693  19.807  14.960
 8953W        W80679  18.166  11.063   2.911
 8954W        W80680  17.484  13.191   1.451
 8955W        W80681   8.157  27.283  11.910
 8956W        W80682  22.754   7.686   3.295
 8957W        W80683  28.360  40.004   0.660
 8958W        W80684  25.844  41.503  11.596
 8959W        W80685  36.095  24.014   4.332
 8960W        W80686  40.828  21.791   2.593
 8961W        W80687  34.837  43.205   0.395
 8962W        W80688  10.784   1.419   0.675
 8963W        W80689   0.722  38.239   4.040
 8964W        W80690   6.998  19.232   2.281
 8965W        W80691  10.184  22.120   0.436
 8966W        W80692  15.515   7.659  12.466
 8967W        W80693  39.406  30.502   4.122
 8968W        W80694  30.153  29.411  13.009
 8969W        W80695   1.997  28.088   4.651
 8970W        W80696   7.860   7.879   1.245
 8971W        W80697  24.110  38.143   3.212
 8972W        W80698   6.307  18.160   1.161
 8973W        W80699  28.942  18.723  12.776
 8974W        W80700  28.622  39.311   0.358
 8975W        W80701  35.650  41.011   1.413
 8976W        W80702  23.605  31.036   3.355
 8977W        W80703  28.403  12.604   1.368
 8978W        W80704  29.618  21.765   4.182
 8979W        W80705  36.996  30.492  11.170
 8980W        W80706  15.258  28.201  14.795
 8981W        W80707  37.899  16.116   3.602
 8982W        W80708   9.742  32.573  10.744
 8983W        W80709   8.911  35.574  10.973
 8984W        W80710   0.753  34.433   4.637
 8985W        W80711  27.073   9.325  10.348
 8986W        W80712  36.588  36.944  12.434
 8987W        W80713  15.868  31.026  11.973
 8988W        W80714  33.337   5.292  11.946
 8989W        W80715  26.259  32.793  14.990
 8990W        W80716   5.279  32.385  11.932
 8991W        W80717  11.811   8.229   1.473
 8992W        W80718  33.859  23.489   2.789
 8993W        W80719   6.346  44.191   0.878
 8994W        W80720  20.006   8.608   9.946
 8995W        W80721  18.742  30.129   1.901
 8996W        W80722  23.893  10.826   0.383
 8997W        W80723   6.154   7.246   0.267
 8998W        W80724  44.030  29.595   0.914
 8999W        W80725   6.938  28.217   1.272
 9000W        W80726   7.239   2.213  12.486
 9001W        W80727  29.475  18.226  12.835
 9002W        W80728  24.278  20.119  14.275
 9003W        W80729  36.704  32.367   2.264
 9004W        W80730  30.157  22.615  14.333
 9005W        W80731  24.291   9.365   1.511
 9006W        W80732  29.853  24.204  14.581
 9007W        W80733  26.024   9.149   0.308
 9008W        W80734  14.593  41.384   4.269
 9009W        W80735  11.337  17.654   2.762
 9010W        W80736  22.033  32.984   3.306
 9011W        W80737  18.994  25.901  13.134
 9012W        W80738   1.238  39.665   3.167
 9013W        W80739  39.936  26.995   3.747
 9014W        W80740  32.910  42.987   4.480
 9015W        W80741   3.805  13.861  11.862
 9016W        W80742  13.736  13.133  14.429
 9017W        W80743  15.753  32.049   5.025
 9018W        W80744  24.058   2.532   2.174
 9019W        W80745  42.431   0.523   1.802
 9020W        W80746  18.050  33.175   4.029
 9021W        W80747   3.145  32.255   1.897
 9022W        W80748  43.962  31.518  10.668
 9023W        W80749   8.031  11.141  10.373
 9024W        W80750  14.917  21.537  14.430
 9025W        W80751   4.406   3.029   1.111
 9026W        W80752  35.103   2.372   2.431
 9027W        W80753  18.209  29.544   0.013
 9028W        W80754  19.348  21.087   3.580
 9029W        W80755   6.342  25.634  14.298
 9030W        W80756  34.035  31.446  13.951
 9031W        W80757  35.566   7.367  14.856
 9032W        W80758  35.454  29.547  14.478
 9033W        W80759  40.876  40.471   2.479
 9034W        W80760   6.894  27.945   3.019
 9035W        W80761  25.174  28.371  14.786
 9036W        W80762   6.221  29.053  10.777
 9037W        W80763  44.515  35.507   0.149
 9038W        W80764  28.420  21.620  10.895
 9039W        W80765  19.758  13.768   0.355
 9040W        W80766  36.690  24.638   4.158
 9041W        W80767   0.348  36.533   2.895
 9042W        W80768  41.644  36.097   4.711
 9043W        W80769  18.283   3.125  13.848
 9044W        W80770  26.071  44.762   1.827
 9045W        W80771   9.765  14.592  10.484
 9046W        W80772  14.225  18.120  10.771
 9047W        W80773  17.919   3.310   3.329
 9048W        W80774   3.499  26.629  11.135
 9049W        W80775  37.477  20.712  14.318
 9050W        W80776  29.919  41.959  14.014
 9051W        W80777  12.633  40.328   1.793
 9052W        W80778   3.020  15.215   0.763
 9053W        W80779  14.344  31.629  13.525
 9054W        W80780   3.890  42.682   0.008
 9055W        W80781  11.167  27.317   4.628
 9056W        W80782   6.250   5.890  13.899
 9057W        W80783  24.661  30.121   4.645
 9058W        W80784  16.147   4.379   2.690
 9059W        W80785  41.331  39.049   0.387
 9060W        W80786  33.729  39.975  12.970
 9061W        W80787   9.713  12.187  11.949
 9062W        W80788  29.286   8.698   4.952
 9063W        W80789  19.179  22.015   3.254
 9064W        W80790  11.716  38.918  10.786
 9065W        W80791  29.826  33.499   3.764
 9066W        W80792  10.065  30.880  13.336
 9067W        W80793  24.108   0.945   1.930
 9068W        W80794  36.024  28.639   4.688
 9069W        W80795  21.181   8.375  11.575
 9070W        W80796  38.484  16.696   0.513
 9071W        W80797  41.269  24.167  11.151
 9072W        W80798   9.701  37.344  13.827
 9073W        W80799   2.181  30.492   2.530
 9074W        W80800  13.725   9.864  11.084
 9075W        W80801  21.127  39.540   3.729
 9076W        W80802   6.027  12.457   2.281
 9077W        W80803  37.516  44.737   5.097
 9078W        W80804  29.071  23.052  11.992
 9079W        W80805  34.040  36.810   3.849
 9080W        W80806  39.778  27.661  10.495
 9081W        W80807  41.146  32.126  11.573
 9082W        W80808  17.263  26.106   3.885
 9083W        W80809  16.781  42.385   4.591
 9084W        W80810  20.984   7.258   0.848
 9085W        W80811   0.888   3.685  10.754
 9086W        W80812  21.924   1.016   4.519
 9087W        W80813  24.773  12.217   0.121
 9088W        W80814  35.046  37.821  13.315
 9089W        W80815  33.425  42.916  11.133
 9090W        W80816  10.082  23.114   4.523
 9091W        W80817   2.495   8.107  11.613
 9092W        W80818   5.770  19.846   3.151
 9093W        W80819  34.136  24.146  13.526
 9094W        W80820  19.556  20.696   3.144
 9095W        W80821  29.023   4.045  12.964
 9096W        W80822  36.110  25.571  13.285
 9097W        W80823  12.655  30.187   2.227
 9098W        W80824  31.841  12.775  14.248
 9099W        W80825  36.686  24.462  12.366
 9100W        W80826  35.752  11.767   2.234
 9101W        W80827   8.877   4.796  13.807
 9102W        W80828  22.171   2.244  12.536
 9103W        W80829   6.222  30.027   0.045
 9104W        W80830   5.093  21.996   0.901
 9105W        W80831  22.273  40.853   1.612
 9106W        W80832  10.646  26.974  11.395
 9107W        W80833  11.874  13.852   2.738
 9108W        W80834   4.663  43.411   3.652
 9109W        W80835  36.542   4.825  13.951
 9110W        W80836  19.226  22.537   1.276
 9111W        W80837  25.216  21.178   1.484
 9112W        W80838  44.898  22.745  11.591
 9113W        W80839   0.993   1.411   0.842
 9114W        W80840  23.300  18.983   3.636
 9115W        W80841  18.150  21.330  10.619
 9116W        W80842  30.417  20.717   1.301
 9117W        W80843  11.422  38.563  14.987
 9118W        W80844  18.546   6.483   4.666
 9119W        W80845  22.029  23.148   1.728
 9120W        W80846  22.707  13.049   0.353
 9121W        W80847  28.001   6.395   3.209
 9122W        W80848  18.195  44.363  13.767
 9123W        W80849   9.408  22.659   1.551
 9124W        W80850  29.618  27.959   3.256
 9125W        W80851  31.820  36.964   0.784
 9126W        W80852  11.504  24.624   1.700
 9127W        W80853   6.907  19.086   1.366
 9128W        W80854   4.894  24.753   1.764
 9129W        W80855  20.533  44.961   2.788
 9130W        W80856  19.802  39.352   1.143
 9131W        W80857   3.753  20.368   4.068
 9132W        W80858   1.717  33.400   5.018
 9133W        W80859  25.221  25.661   3.186
 9134W        W80860  33.993  11.616  12.310
 9135W        W80861  33.497  32.559   2.736
 9136W        W80862  30.849  33.995   1.330
 9137W        W80863   2.307  30.962   0.643
 9138W        W80864  20.820  15.360   1.298
 9139W        W80865  11.675   7.948  13.043
 9140W        W80866  38.794  39.281  11.606
 9141W        W80867   3.403  29.269   4.573
 9142W        W80868  44.650  37.391   0.812
 9143W        W80869  31.660  18.809  14.448
 9144W        W80870  13.613  38.596   0.389
 9145W        W80871  13.279  22.062   3.718
 9146W        W80872   0.740   7.622  12.008
 9147W        W80873  27.608  42.023   2.909
 9148W        W80874  20.034  28.110   2.370
 9149W        W80875  44.925  28.653  13.412
 9150W        W80876  38.853  29.158  10.761
 9151W        W80877  24.165  29.294   4.401
 9152W        W80878   9.308   5.917   3.620
 9153W        W80879  34.725  19.636   3.260
 9154W        W80880  10.832   9.668  14.601
 9155W        W80881   2.648  25.095  11.124
 9156W        W80882  28.039   0.056   1.306
 9157W        W80883   6.322  12.275  14.600
 9158W        W80884   8.935  40.142   5.018
 9159W        W80885  17.507  12.520   0.906
 9160W        W80886  18.645   7.544  14.071
 9161W        W80887  29.977  44.728  13.298
 9162W        W80888  30.515   0.161   0.961
 9163W        W80889  22.990  20.527  11.402
 9164W        W80890   4.504   4.469  13.845
 9165W        W80891   7.971  15.053   4.336
 9166W        W80892  40.529  10.255   3.418
 9167W        W80893   0.672   4.457   3.718
 9168W        W80894  43.945  32.861  11.184
 9169W        W80895  11.641  11.626   4.395
 9170W        W80896  17.826  32.835  11.629
 9171W        W80897  18.007   6.265  13.424
 9172W        W80898  10.865   1.489  12.920
 9173W        W80899  42.548   1.372  14.011
 9174W        W80900  12.505   7.293  12.128
 9175W        W80901  24.726   4.285  13.746
 9176W        W80902  21.694  37.307   3.634
 9177W        W80903  20.340  38.748  12.104
 9178W        W80904  42.915   1.242  13.313
 9179W        W80905  12.590   9.842   1.008
 9180W        W80906   1.987  17.659   0.815
 9181W        W80907   9.661   4.839   3.283
 9182W        W80908  41.994  32.904   0.336
 9183W        W80909  21.259  17.771  10.667
 9184W        W80910  41.453   3.313   3.249
 9185W        W80911  38.045  39.036  12.956
 9186W        W80912  24.237   7.749  12.116
 9187W        W80913  20.151  35.111   3.664
 9188W        W80914   8.161  35.821  14.962
 9189W        W80915  33.992  37.130  14.404
 9190W        W80916  22.510   9.681  12.404
 9191W        W80917  43.685  17.121   3.656
 9192W        W80918  22.245  12.526  11.601
 9193W        W80919  14.817  25.021  13.510
 9194W        W80920  28.024  44.445  11.142
 9195W        W80921  34.621  22.046  13.095
 9196W        W80922  22.811  12.817  10.678
 9197W        W80923  41.498  32.574   4.068
 9198W        W80924  36.628  19.187   1.829
 9199W        W80925  35.321  35.862   4.437
 9200W        W80926   7.817   1.403   2.234
 9201W        W80927  21.987  17.296   9.953
 9202W        W80928  35.256  29.709   1.319
 9203W        W80929  30.594  39.322  14.722
 9204W        W80930  30.888  19.388  12.535
 9205W        W80931  16.938   8.701   0.245
 9206W        W80932  11.223   6.205   3.142
 9207W        W80933  43.162  14.775  10.957
 9208W        W80934  35.429  15.302  10.746
 9209W        W80935   7.821   8.128  13.026
 9210W        W80936  28.878  36.486  11.082
 9211W        W80937  21.688  23.124   3.537
 9212W        W80938  26.222  27.143   3.592
 9213W        W80939  32.433   2.752   0.746
 9214W        W80940  14.806  28.553   0.860
 9215W        W80941   2.244  32.553  11.134
 9216W        W80942  38.481   7.170  10.850
 9217W        W80943  29.352  29.847  11.949
 9218W        W80944  18.267  44.030   1.539
 9219W        W80945  29.938  17.774  14.326
 9220W        W80946   1.820  23.509   1.343
 9221W        W80947  44.536  41.010  13.953
 9222W        W80948  13.378   4.774   3.539
 9223W        W80949   0.017   6.898   2.527
 9224W        W80950  44.515  32.849   4.045
 9225W        W80951  43.360  20.062  14.209
 9226W        W80952  44.728  37.881  13.028
 9227W        W80953  31.160  15.680  11.659
 9228W        W80954  41.018   2.854   2.274
 9229W        W80955  18.614  15.219  13.417
 9230W        W80956   2.538  14.065   5.063
 9231W        W80957  32.426  21.842  14.795
 9232W        W80958  32.158  34.068   0.270
 9233W        W80959  33.104   2.830  11.564
 9234W        W80960   0.736  19.678  12.092
 9235W        W80961  32.573   7.944   2.591
 9236W        W80962  42.291  23.459   2.395
 9237W        W80963   8.743  36.880   4.699
 9238W        W80964  40.724  26.156  12.393
 9239W        W80965  18.235  17.833  11.935
 9240W        W80966  20.686  39.311   0.770
 9241W        W80967  43.924  35.968  11.172
 9242W        W80968  15.292   5.719  12.075
 9243W        W80969  33.331  10.684   1.240
 9244W        W80970  11.568  38.020   2.214
 9245W        W80971  43.108   8.656  12.870
 9246W        W80972  42.815  17.222   4.701
 9247W        W80973  33.655  13.636   0.783
 9248W        W80974  29.734  25.477   0.281
 9249W        W80975   1.393  37.377   0.325
 9250W        W80976  35.358  11.146  10.757
 9251W        W80977  42.473  33.628   0.274
 9252W        W80978  10.643  39.333  13.276
 9253W        W80979   6.403  30.485   1.692
 9254W        W80980  32.688  19.334  13.764
 9255W        W80981   2.898  35.614  10.747
 9256W        W80982  24.503  42.952   1.256
 9257W        W80983  28.204  41.441  13.124
 9258W        W80984  32.082  41.670  11.885
 9259W        W80985  15.350  35.882   2.614
 9260W        W80986  18.813  17.615   2.248
 9261W        W80987  21.498   6.124   1.652
 9262W        W80988  28.506  12.407   1.917
 9263W        W80989   1.724  13.193   2.678
 9264W        W80990  11.181   3.865   2.725
 9265W        W80991  33.566  23.832   4.169
 9266W        W80992  14.914  12.244   3.733
 9267W        W80993  44.937  31.463  11.673
 9268W        W80994  37.020  11.838  13.558
 9269W        W80995  41.292  33.125  14.535
 9270W        W80996  28.022  19.447   3.130
 9271W        W80997  39.310  35.995  13.573
 9272W        W80998  10.032   8.125   3.348
 9273W        W80999  27.511  29.103  11.537
 9274W        W81000  39.545  32.224   1.069
 9275W        W81001   2.959  36.111  13.318
 9276W        W81002   6.206  10.875  14.507
 9277W        W81003  40.598   8.454   3.851
 9278W        W81004  22.427  29.385  12.813
 9279W        W81005  17.245  11.842  11.487
 9280W        W81006   4.973  31.536  14.747
 9281W        W81007  22.759  34.830  12.460
 9282W        W81008  15.454   9.593  14.864
 9283W        W81009  10.685   1.970  11.646
 9284W        W81010   7.933   1.437   1.282
 9285W        W81011  11.153  41.767   2.494
 9286W        W81012   6.488  19.668  12.604
 9287W        W81013  19.662  40.707   2.303
 9288W        W81014  27.833   3.323  12.029
 9289W        W81015   1.870  11.325  14.058
 9290W        W81016   7.095   9.093  11.648
 9291W        W81017  17.456   6.707   0.817
 9292W        W81018  34.650  36.898  12.451
 9293W        W81019  24.601  40.427   3.197
 9294W        W81020  14.797  17.277   2.652
 9295W        W81021  11.437  27.974  14.513
 9296W        W81022  33.420  27.928  14.176
 9297W        W81023  16.206  14.194  14.491
 9298W        W81024  40.250  11.230  14.242
 9299W        W81025  11.401  24.668  12.350
 9300W        W81026  12.584  16.830  11.245
 9301W        W81027   7.234  41.419  12.465
 9302W        W81028  19.673   4.255   3.943
 9303W        W81029  33.510  34.872   0.393
 9304W        W81030   4.250  21.842   0.913
 9305W        W81031  19.103  43.928   4.579
 9306W        W81032  27.364  37.153   1.367
 9307W        W81033  21.486  39.104  14.339
 9308W        W81034  21.482  41.422   1.689
 9309W        W81035   5.019  25.030  12.506
 9310W        W81036   9.826  37.661  10.397
 9311W        W81037  36.882  17.037  14.657
 9312W        W81038  42.723   4.804   0.691
 9313W        W81039   1.708  43.389   3.186
 9314W        W81040  21.628  14.327   0.440
 9315W        W81041  40.996   3.571  14.750
 9316W        W81042  30.211  29.106  14.372
 9317W        W81043  27.959  28.445   4.803
 9318W        W81044  31.632  24.693  11.941
 9319W        W81045  14.146  22.778   0.935
 9320W        W81046  18.887  12.596  10.483
 9321W        W81047  34.412  14.349  12.362
 9322W        W81048  39.461  20.636   1.845
 9323W        W81049  19.041  33.259  10.916
 9324W        W81050  31.561  23.358  12.344
 9325W        W81051   7.989   5.441  12.873
 9326W        W81052   2.811   6.978  14.760
 9327W        W81053  38.465   2.797  12.549
 9328W        W81054  42.076  10.377   0.928
 9329W        W81055  20.785  33.998   3.582
 9330W        W81056  32.639  26.479   3.702
 9331W        W81057  37.367  19.580   2.483
 9332W        W81058  11.316  33.912   2.731
 9333W        W81059  29.421  27.010  10.912
 9334W        W81060   3.723  23.038   3.073
 9335W        W81061  20.161   8.096  12.928
 9336W        W81062  17.842   3.375  13.883
 9337W        W81063   7.807  36.731   1.757
 9338W        W81064  26.304  38.769  12.161
 9339W        W81065  11.300  19.927   3.417
 9340W        W81066  43.081  37.446  10.695
 9341W        W81067  37.796  42.850   2.693
 9342W        W81068  22.231  10.669  11.865
 9343W        W81069  25.433  14.613  12.905
 9344W        W81070  18.136   7.270   3.126
 9345W        W81071  12.711   5.404  14.418
 9346W        W81072  11.732  39.372  13.496
 9347W        W81073  39.917   8.384  13.891
 9348W        W81074  11.694   5.043   0.280
 9349W        W81075  44.479  39.827  12.910
 9350W        W81076  20.138  40.960   4.227
 9351W        W81077  17.785   8.368   3.278
 9352W        W81078  41.917  21.250  10.690
 9353W        W81079  13.101  39.428   4.516
 9354W        W81080   5.024  30.140   3.313
 9355W        W81081  19.122   9.297  12.125
 9356W        W81082  32.159  24.076   2.135
 9357W        W81083  25.479   2.931   3.220
 9358W        W81084  29.882  22.222  11.468
 9359W        W81085  43.313  12.519  11.631
 9360W        W81086  12.856  22.806  13.625
 9361W        W81087   7.363  34.483  11.423
 9362W        W81088  19.563   4.974  12.821
 9363W        W81089  20.714  28.593   3.801
 9364W        W81090  11.413  17.080   3.246
 9365W        W81091  22.614   6.298   3.608
 9366W        W81092  16.287  33.400   3.776
 9367W        W81093  33.341   4.221  14.881
 9368W        W81094  21.910   0.317  11.105
 9369W        W81095  39.456   0.535   0.298
 9370W        W81096   0.800   5.826   3.774
 9371W        W81097  44.279  23.701   2.304
 9372W        W81098  16.323  28.105  11.975
 9373W        W81099  44.307  27.987   1.925
 9374W        W81100  19.206   4.176   2.477
 9375W        W81101  15.703  15.696  14.528
 9376W        W81102  40.700  16.339  13.294
 9377W        W81103   3.712   5.966  11.124
 9378W        W81104  21.528  15.635   4.253
 9379W        W81105   8.338  39.469  14.789
 9380W        W81106  13.181  43.711   3.257
 9381W        W81107  43.761  10.340   3.182
 9382W        W81108  41.453  26.442  12.605
 9383W        W81109  18.006  16.706  11.178
 9384W        W81110  11.594  16.750   4.738
 9385W        W81111  42.851  19.513   4.186
 9386W        W81112   8.594  33.595  11.870
 9387W        W81113  11.972  14.724   3.160
 9388W        W81114  12.848  32.570   0.047
 9389W        W81115   8.862  14.557   1.933
 9390W        W81116  39.745   1.412   0.455
 9391W        W81117  27.107  30.370   2.698
 9392W        W81118  27.577  15.579   0.244
 9393W        W81119  39.317  20.144   1.956
 9394W        W81120  37.102   8.371  13.607
 9395W        W81121   5.403   9.437  11.997
 9396W        W81122  25.706  38.343   2.193
 9397W        W81123   6.386   8.911  11.225
 9398W        W81124  23.292  13.367   3.434
 9399W        W81125  26.567   3.980   4.965
 9400W        W81126   2.330  27.799   2.366
 9401W        W81127  29.393   6.372  12.462
 9402W        W81128  27.050   4.204  12.505
 9403W        W81129  18.511  43.348   2.964
 9404W        W81130  24.769  13.606  14.422
 9405W        W81131  14.431  31.629   2.398
 9406W        W81132  39.932  22.289  13.725
 9407W        W81133   9.906   9.151  10.715
 9408W        W81134  19.747  17.613   1.754
 9409W        W81135  19.537  43.522  13.071
 9410W        W81136  12.291  10.158   4.100
 9411W        W81137   0.094  23.737  12.180
 9412W        W81138  26.188  36.472   2.673
 9413W        W81139   2.818  32.897   2.341
 9414W        W81140  11.090  42.586  14.436
 9415W        W81141  12.436  23.217  11.619
 9416W        W81142   8.313  42.449   4.428
 9417W        W81143  16.730  41.462   4.398
 9418W        W81144  27.709  42.962  10.549
 9419W        W81145  42.822  43.824  10.799
 9420W        W81146   8.647  32.571   4.640
 9421W        W81147  32.128  27.916   1.455
 9422W        W81148  34.542  31.432  13.804
 9423W        W81149  13.717  10.972   2.143
 9424W        W81150  42.845   8.316   4.116
 9425W        W81151  30.215  33.830   0.156
 9426W        W81152  40.834   8.154  14.122
 9427W        W81153  11.875  17.153   4.118
 9428W        W81154  19.739   4.316   3.420
 9429W        W81155  17.058  32.033  10.359
 9430W        W81156   8.850  43.646  12.843
 9431W        W81157   3.305  28.925   3.210
 9432W        W81158  20.480  26.558   3.016
 9433W        W81159  31.884  40.401  14.477
 9434W        W81160   0.717  12.728  12.029
 9435W        W81161  10.868  20.025   3.685
 9436W        W81162   8.696   5.728   1.223
 9437W        W81163  18.756  41.154  10.744
 9438W        W81164  35.807  27.874  14.951
 9439W        W81165  29.419  41.428   2.606
 9440W        W81166  30.528  36.233   4.100
 9441W        W81167   1.354   8.905  12.585
 9442W        W81168  18.240   5.165  13.453
 9443W        W81169   8.795  19.334  13.420
 9444W        W81170  39.450  26.556   4.418
 9445W        W81171  13.738  36.528  10.972
 9446W        W81172  21.634  12.212  10.726
 9447W        W81173  31.323  44.972  14.091
 9448W        W81174  44.296  34.159   1.257
 9449W        W81175  34.447   8.276   1.362
 9450W        W81176  40.579  30.220  13.836
 9451W        W81177  13.728  15.854   2.185
 9452W        W81178   8.255   9.949   1.703
 9453W        W81179  11.867  35.980  12.470
 9454W        W81180  13.641  22.151  10.968
 9455W        W81181  18.028  42.111   4.342
 9456W        W81182  42.611  29.193  10.740
 9457W        W81183  11.848  19.466  12.447
 9458W        W81184  28.836  33.827   2.385
 9459W        W81185  27.776  32.921  10.628
 9460W        W81186  36.810  20.572   3.417
 9461W        W81187  13.363  19.670   2.686
 9462W        W81188  30.812  34.071   4.164
 9463W        W81189  18.301   8.310  14.470
 9464W        W81190  39.099  31.894  14.854
 9465W        W81191  11.794  40.840  11.926
 9466W        W81192  11.883  42.419   1.347
 9467W        W81193  35.696  39.858  11.393
 9468W        W81194  10.866  31.140  10.619
 9469W        W81195  17.820   2.407   0.394
 9470W        W81196  29.492  17.329   4.081
 9471W        W81197  27.967  18.828   4.557
 9472W        W81198  26.655  12.526   3.686
 9473W        W81199  39.833  16.233   0.052
 9474W        W81200   4.687  17.652  14.989
 9475W        W81201  16.087  36.061  13.042
 9476W        W81202  10.328   8.745   4.132
 9477W        W81203   8.641  27.744  11.143
 9478W        W81204  31.358  10.860   1.287
 9479W        W81205   7.839  26.389  14.419
 9480W        W81206   1.661   8.205   0.429
 9481W        W81207  44.843  36.878   2.839
 9482W        W81208  14.692   2.922  12.556
 9483W        W81209  15.748  10.618  13.409
 9484W        W81210  29.942  23.046   4.238
 9485W        W81211  35.621  43.404  14.850
 9486W        W81212  40.299  16.054   0.331
 9487W        W81213   6.726  38.566   4.195
 9488W        W81214   8.952   6.285  14.281
 9489W        W81215  41.898  21.799   0.351
 9490W        W81216   5.581  27.711  11.866
 9491W        W81217  21.220  37.589  13.565
 9492W        W81218  40.071  15.917   3.672
 9493W        W81219  32.259  17.048   2.129
 9494W        W81220  24.715  29.205  12.005
 9495W        W81221  43.122   6.364   4.959
 9496W        W81222  37.733  28.671   1.664
 9497W        W81223   0.678  28.561  10.839
 9498W        W81224  27.039  23.719   4.291
 9499W        W81225  13.054   8.844  12.484
 9500W        W81226  40.372  29.237  11.353
 9501W        W81227  36.865  43.592  12.548
 9502W        W81228  40.761   9.605   0.316
 9503W        W81229  23.227  40.395  10.944
 9504W        W81230  19.290  43.328  12.553
 9505W        W81231  42.290  23.795  12.580
 9506W        W81232   5.269   7.702  14.631
 9507W        W81233  22.533  35.205   4.630
 9508W        W81234  37.386  34.917   4.259
 9509W        W81235   7.754  12.968  11.579
 9510W        W81236   3.377  30.085  12.001
 9511W        W81237   4.181   0.145   3.795
 9512W        W81238  37.073   7.626  12.463
 9513W        W81239  39.267  36.757   1.245
 9514W        W81240  17.130  30.183  12.902
 9515W        W81241  35.556  33.853   3.721
 9516W        W81242  38.362  18.031  13.894
 9517W        W81243  34.694  35.040  13.784
 9518W        W81244  12.232   1.430   0.806
 9519W        W81245  24.907   4.169   0.842
 9520W        W81246  37.618   2.395  11.471
 9521W        W81247   9.899  29.574   0.913
 9522W        W81248  12.863  28.962  11.958
 9523W        W81249  26.681  10.201   5.039
 9524W        W81250  18.361   0.569  12.253
 9525W        W81251  20.539  26.562  10.527
 9526W        W81252  37.787  19.541   1.769
 9527W        W81253  33.959   7.436   1.473
 9528W        W81254  31.183  20.991  14.929
 9529W        W81255  42.607   8.681  13.032
 9530W        W81256  41.256  29.575   3.862
 9531W        W81257  37.888  28.692   3.876
 9532W        W81258  21.559  18.894  11.462
 9533W        W81259   1.550  28.933  14.463
 9534W        W81260   3.957  39.534  13.982
 9535W        W81261  12.818  40.263   2.304
 9536W        W81262  12.920  35.101  13.719
 9537W        W81263   6.317   8.288   1.014
 9538W        W81264  21.641   7.867   1.610
 9539W        W81265  20.213   5.924  12.072
 9540W        W81266  29.379   5.416  13.560
 9541W        W81267   0.493  32.930   2.850
 9542W        W81268  23.693  40.218  12.957
 9543W        W81269  36.521  27.420  10.738
 9544W        W81270  14.025   8.337  14.457
 9545W        W81271  15.868   0.696  12.029
 9546W        W81272  17.481  17.822   0.367
 9547W        W81273  42.296  40.095  10.729
 9548W        W81274  11.186   3.810  14.954
 9549W        W81275  23.320   8.051   1.792
 9550W        W81276  10.168  36.445  13.313
 9551W        W81277  32.603  23.069   2.160
 9552W        W81278  37.765  19.675   0.250
 9553W        W81279   8.725  24.503  11.042
 9554W        W81280  37.799  37.051  11.438
 9555W        W81281  27.049  43.017   4.574
 9556W        W81282  17.065  34.036  14.080
 9557W        W81283  16.885   9.363   3.174
 9558W        W81284   1.790  40.562  14.853
 9559W        W81285  15.359   2.225  14.437
 9560W        W81286  38.111  41.071  10.643
 9561W        W81287   1.272  38.058   3.224
 9562W        W81288  13.029   8.439  12.141
 9563W        W81289  42.413  26.052   4.544
 9564W        W81290  17.845  30.127  12.443
 9565W        W81291  27.284  34.847   2.409
 9566W        W81292  28.510   4.847  10.343
 9567W        W81293  37.541   7.151  11.171
 9568W        W81294  32.785   9.950  10.523
 9569W        W81295  35.861   2.511  10.754
 9570W        W81296  29.027   9.144   1.676
 9571W        W81297  43.411  25.116   1.860
 9572W        W81298  25.000  16.147  13.456
 9573W        W81299   4.857   2.660   1.853
 9574W        W81300  28.529   1.023  13.773
 9575W        W81301  29.042  42.739   1.903
 9576W        W81302   5.137   4.288  14.805
 9577W        W81303  19.933  37.709  12.056
 9578W        W81304   9.720  18.527   0.656
 9579W        W81305  43.019  37.500  14.161
 9580W        W81306   2.482   9.513  14.813
 9581W        W81307   8.886  39.864   1.864
 9582W        W81308  33.380  15.354   0.932
 9583W        W81309  37.433  40.925  14.900
 9584W        W81310  18.014  16.134   4.475
 9585W        W81311  21.649  20.204   3.608
 9586W        W81312   6.896  29.079  11.397
 9587W        W81313  38.569   8.880  10.245
 9588W        W81314   5.347   9.363   3.931
 9589W        W81315  23.838  29.341  11.251
 9590W        W81316  26.108  44.724   1.316
 9591W        W81317  34.509  41.137   1.789
 9592W        W81318  35.340  36.010   3.297
 9593W        W81319  26.448  13.756  11.822
 9594W        W81320  21.953  23.494   3.809
 9595W        W81321  27.946  24.912   0.025
 9596W        W81322  33.957  32.633   4.992
 9597W        W81323  21.699  44.856  11.940
 9598W        W81324  16.291   3.866   4.467
 9599W        W81325  35.064  44.290   4.188
 9600W        W81326   2.707  11.606   4.176
 9601W        W81327  40.449  22.794   3.237
 9602W        W81328  37.327  41.695   4.669
 9603W        W81329  28.035  21.983  13.458
 9604W        W81330  40.635  29.549   0.400
 9605W        W81331  40.946   7.310  12.957
 9606W        W81332   9.742  28.030  14.853
 9607W        W81333  19.144  23.199   1.662
 9608W        W81334  21.606  34.021  12.885
 9609W        W81335  37.985  34.647  12.690
 9610W        W81336   8.720  28.101  12.057
 9611W        W81337  18.370  16.774   1.233
 9612W        W81338   4.902  31.288   4.162
 9613W        W81339  20.000   0.899   3.211
 9614W        W81340  11.595  34.945  12.759
 9615W        W81341  36.857  22.567  11.651
 9616W        W81342  36.259   7.774  11.244
 9617W        W81343  19.792  13.753  11.405
 9618W        W81344  26.625  40.080   2.271
 9619W        W81345   6.672   6.375   1.939
 9620W        W81346  16.933  34.608   4.235
 9621W        W81347   8.098  42.610   2.690
 9622W        W81348  29.397  37.931   4.605
 9623W        W81349  29.141  37.759  12.977
 9624W        W81350   7.144  11.232   1.418
 9625W        W81351  16.277   2.037   2.297
 9626W        W81352  35.924   5.355   3.620
 9627W        W81353   0.506  35.994  11.955
 9628W        W81354  40.634  28.613  10.739
 9629W        W81355   2.367  25.219   3.193
 9630W        W81356  10.816  14.878   2.607
 9631W        W81357  15.606  37.955   2.400
 9632W        W81358  35.780  34.533   4.660
 9633W        W81359   5.326   2.897   1.092
 9634W        W81360  17.798  17.637  12.159
 9635W        W81361  16.253  35.334   4.115
 9636W        W81362  23.889  16.726  14.437
 9637W        W81363   4.717  19.142  13.000
 9638W        W81364   0.940   4.715   2.218
 9639W        W81365  23.252  42.963   1.737
 9640W        W81366  42.929  35.851  14.313
 9641W        W81367   1.964   4.313  10.435
 9642W        W81368  10.197  29.139   4.224
 9643W        W81369  39.676   0.121   1.865
 9644W        W81370   2.656  43.889  14.315
 9645W        W81371  21.038  40.724   4.148
 9646W        W81372  17.178  29.613  12.195
 9647W        W81373  22.764  24.497   1.335
 9648W        W81374  41.393  17.693  14.127
 9649W        W81375  41.386  33.111   4.739
 9650W        W81376  12.277  13.273   4.485
 9651W        W81377   1.771  10.056  14.582
 9652W        W81378  18.817  34.943   0.627
 9653W        W81379  22.834   2.973   2.257
 9654W        W81380  33.384  38.797  12.010
 9655W        W81381  39.491  14.453   4.900
 9656W        W81382  34.570  16.574   2.358
 9657W        W81383  44.203  21.708   0.829
 9658W        W81384  43.041  18.653  13.453
 9659W        W81385  18.592  21.666   1.498
 9660W        W81386  18.319  38.457  14.040
 9661W        W81387  41.657  12.222  13.032
 9662W        W81388  18.425  30.644  10.640
 9663W        W81389  15.842   3.323  13.787
 9664W        W81390   9.314  20.621   0.048
 9665W        W81391   8.860  27.965  12.989
 9666W        W81392  25.982   4.525  14.362
 9667W        W81393  24.460  29.046   3.069
 9668W        W81394  11.408   1.488  11.195
 9669W        W81395   0.557  18.340  11.384
 9670W        W81396  23.227  21.691  12.944
 9671W        W81397  12.088  34.536  13.473
 9672W        W81398  37.397  11.918  11.516
 9673W        W81399   6.840  34.647  10.697
 9674W        W81400  18.970   5.819   4.670
 9675W        W81401  12.954  20.770   3.163
 9676W        W81402  34.555   8.941  12.383
 9677W        W81403   6.324  10.172  12.919
 9678W        W81404  18.774  19.484  13.961
 9679W        W81405   0.535  42.726   1.997
 9680W        W81406   1.452  26.721   2.018
 9681W        W81407  21.773  25.070  12.768
 9682W        W81408  14.804  36.616   3.992
 9683W        W81409  41.830   5.746  11.499
 9684W        W81410  29.115  36.056   4.739
 9685W        W81411  26.351  41.892   0.118
 9686W        W81412  43.013  17.002  13.875
 9687W        W81413  23.251  41.882   3.089
 9688W        W81414  31.102  21.141  12.609
 9689W        W81415   9.858  29.242  12.762
 9690W        W81416  13.297  17.230  11.211
 9691W        W81417  43.445  14.061  14.860
 9692W        W81418  26.475  16.812  13.921
 9693W        W81419   9.159  17.296  13.622
 9694W        W81420  19.508  30.123  11.893
 9695W        W81421  43.534  40.615  13.978
 9696W        W81422  15.717   7.656  13.320
 9697W        W81423  31.078   4.911   0.310
 9698W        W81424   6.153  28.553  12.360
 9699W        W81425   2.189  21.454   0.732
 9700W        W81426  12.357  22.051  11.557
 9701W        W81427  37.147  40.381  13.396
 9702W        W81428  19.189  20.704  13.279
 9703W        W81429  35.815  32.373  11.110
 9704W        W81430   4.295  36.685   2.319
 9705W        W81431  31.103  12.861  10.953
 9706W        W81432  12.171  43.689  13.573
 9707W        W81433   0.728  36.541  13.066
 9708W        W81434   5.149  12.114  11.193
 9709W        W81435  36.546  34.584  13.956
 9710W        W81436   8.517  31.587   4.365
 9711W        W81437  31.670  15.419  10.053
 9712W        W81438  18.058  10.007  12.353
 9713W        W81439  16.525   0.250  11.571
 9714W        W81440  22.151  13.366   2.238
 9715W        W81441  10.268   8.446  14.007
 9716W        W81442  26.221  40.495  14.541
 9717W        W81443  15.571   2.215   0.767
 9718W        W81444  12.284  33.358  14.062
 9719W        W81445  19.650   8.957   2.179
 9720W        W81446  11.725  38.969   2.421
 9721W        W81447  39.364  22.284   0.478
 9722W        W81448   4.843  20.393   3.285
 9723W        W81449   8.403  14.122   4.308
 9724W        W81450  25.964  29.388   0.406
 9725W        W81451   1.011  14.633   0.396
 9726W        W81452  13.367   6.973  11.972
 9727W        W81453   9.137   8.963  13.490
 9728W        W81454  35.557   0.471   3.015
 9729W        W81455   8.674  28.661  12.016
 9730W        W81456  28.743  43.475   4.502
 9731W        W81457  24.129  43.482   3.441
 9732W        W81458  44.295  36.544  13.706
 9733W        W81459   6.400  31.184   2.369
 9734W        W81460   1.987   9.614   4.717
 9735W        W81461  13.297  40.752   0.169
 9736W        W81462  25.490  21.895  14.535
 9737W        W81463  39.492  23.698  11.212
 9738W        W81464  14.135  28.894  10.689
 9739W        W81465  10.475  28.710   4.271
 9740W        W81466  28.403  13.874  14.846
 9741W        W81467  18.493  19.411   2.026
 9742W        W81468  33.002  41.352  11.474
 9743W        W81469  36.574  40.811  11.595
 9744W        W81470   0.779   6.753  12.222
 9745W        W81471  27.113   0.825  12.672
 9746W        W81472  40.554  23.103  10.408
 9747W        W81473  29.077   8.313   4.697
 9748W        W81474  18.372   9.165  13.445
 9749W        W81475  26.627  20.887   0.092
 9750W        W81476   4.312  23.478  11.971
 9751W        W81477  36.644   7.861   2.783
 9752W        W81478  35.300  23.616  12.834
 9753W        W81479   3.379   8.941   5.056
 9754W        W81480  23.813  25.326  10.142
 9755W        W81481   5.929  12.332  13.350
 9756W        W81482   3.421  43.899   4.808
 9757W        W81483  34.991  31.448  13.229
 9758W        W81484  14.693  17.283  11.302
 9759W        W81485  37.445  10.985  10.494
 9760W        W81486  36.031   5.947  13.508
 9761W        W81487  38.385   3.114   0.432
 9762W        W81488  39.841  36.106  10.775
 9763W        W81489  34.638  38.013   4.112
 9764W        W81490  31.022   7.747   3.592
 9765W        W81491  22.905  42.850  12.095
 9766W        W81492   9.463  40.086  13.348
 9767W        W81493  26.404  21.519  14.227
 9768W        W81494  43.925  42.272  12.688
 9769W        W81495  24.513  16.356   2.403
 9770W        W81496  29.662   9.867  11.588
 9771W        W81497  18.867  21.168  11.042
 9772W        W81498   1.344   7.753   2.727
 9773W        W81499   5.153   5.506  13.945
 9774W        W81500   3.166   3.255  12.783
 9775W        W81501   0.686  43.877   0.760
 9776W        W81502  43.803  10.323  11.697
 9777W        W81503  29.730  25.557   3.254
 9778W        W81504  40.350   0.901  10.778
 9779W        W81505  26.132  37.407   2.087
 9780W        W81506  29.400  27.546  13.082
 9781W        W81507  41.191  30.953  14.404
 9782W        W81508  30.055  17.555   3.213
 9783W        W81509  23.302   3.662  14.507
 9784W        W81510  24.050  40.826  11.980
 9785W        W81511  14.782  29.010  13.549
 9786W        W81512  20.128   8.215   4.392
 9787W        W81513  39.258  25.267   5.066
 9788W        W81514   0.804  40.861  10.736
 9789W        W81515  29.614   0.591  14.780
 9790W        W81516  15.255  31.274  11.416
 9791W        W81517  13.648   0.490  13.069
 9792W        W81518  40.889  39.591  12.546
 9793W        W81519  17.148  42.064  12.545
 9794W        W81520   8.802  22.713   1.837
 9795W        W81521  27.486  27.603   0.036
 9796W        W81522  29.749   2.948  14.402
 9797W        W81523  10.618  23.094   2.807
 9798W        W81524  15.096  22.956   1.201
 9799W        W81525  21.489  22.726  11.594
 9800W        W81526   3.253  39.652  14.802
 9801W        W81527  16.563  25.276   0.397
 9802W        W81528  11.692   6.851   3.659
 9803W        W81529  35.981  36.725  12.959
 9804W        W81530  35.742  12.624   0.323
 9805W        W81531  17.305  33.325   3.017
 9806W        W81532  29.057  12.313  10.793
 9807W        W81533  11.287  35.648  14.387
 9808W        W81534  29.845  38.084  11.282
 9809W        W81535   5.436  34.562  10.147
 9810W        W81536   3.066  27.734  14.943
 9811W        W81537  10.329   6.953   3.985
 9812W        W81538  31.852   2.851  13.129
 9813W        W81539  31.138  34.432   1.174
 9814W        W81540  27.361  38.809  11.374
 9815W        W81541   1.226  25.843   3.156
 9816W        W81542  33.923  30.855  12.505
 9817W        W81543   6.149   6.683  11.050
 9818W        W81544   6.909  37.499  11.501
 9819W        W81545  29.799   0.018   1.188
 9820W        W81546   1.370  39.865   3.653
 9821W        W81547  43.040   3.355   0.986
 9822W        W81548  18.801  36.879   3.212
 9823W        W81549  36.491  36.974   1.258
 9824W        W81550  15.588  16.434  12.691
 9825W        W81551  33.085  36.022  10.913
 9826W        W81552  25.890  34.624   1.508
 9827W        W81553  36.368  12.916  13.119
 9828W        W81554  38.407  40.548   2.769
 9829W        W81555  27.659   8.355  12.193
 9830W        W81556  37.905  38.404   0.342
 9831W        W81557  22.720  25.471   4.428
 9832W        W81558  18.128  35.059   4.659
 9833W        W81559  33.482   9.330   3.021
 9834W        W81560  15.282  25.988  11.184
 9835W        W81561  28.834  39.089   1.792
 9836W        W81562  26.444  20.309   0.955
 9837W        W81563   1.027   2.193  13.878
 9838W        W81564   3.708  21.548  13.318
 9839W        W81565  19.142  30.107  10.551
 9840W        W81566  33.397  23.762  14.727
 9841W        W81567  14.052  41.365   4.212
 9842W        W81568  25.172   4.504  14.921
 9843W        W81569  40.533  37.434   4.530
 9844W        W81570   2.804  17.655   0.321
 9845W        W81571  34.966   4.268   3.597
 9846W        W81572  35.867  40.711  13.821
 9847W        W81573   1.827   8.601   3.986
 9848W        W81574  31.490  14.088  11.163
 9849W        W81575  21.940  42.820  14.968
 9850W        W81576  26.057  27.713  10.390
 9851W        W81577  37.869   1.304   2.410
 9852W        W81578  40.847  34.080   1.467
 9853W        W81579   1.208  25.613   0.056
 9854W        W81580   1.991   7.161   3.100
 9855W        W81581  36.806  12.647  13.042
 9856W        W81582   9.706   8.273   1.666
 9857W        W81583   1.912  44.234  13.924
 9858W        W81584  11.141  30.464   2.727
 9859W        W81585  12.543   7.855   3.161
 9860W        W81586  38.431  40.387   1.763
 9861W        W81587   4.723  29.482  12.021
 9862W        W81588  25.692  33.154  13.956
 9863W        W81589  24.004  11.875   0.496
 9864W        W81590  39.115  14.734  11.033
 9865W        W81591   3.778  39.928  12.685
 9866W        W81592  23.022  29.664   1.907
 9867W        W81593   8.276  17.310  13.956
 9868W        W81594  12.910  34.093   2.988
 9869W        W81595  19.663   8.157  13.219
 9870W        W81596   4.662  23.525  14.838
 9871W        W81597  41.656   8.773   2.517
 9872W        W81598  39.419  16.062   2.423
 9873W        W81599   4.392  23.328  12.462
 9874W        W81600  16.581  42.409  11.948
 9875W        W81601  31.288  30.659  14.915
 9876W        W81602  43.104  12.792  13.052
 9877W        W81603  31.931   8.848  13.499
 9878W        W81604  28.122  15.630  12.934
 9879W        W81605  28.556  10.719   2.296
 9880W        W81606   4.176  30.466  14.373
 9881W        W81607  27.010  40.866   3.174
 9882W        W81608   2.647  19.506  12.048
 9883W        W81609  15.083  10.701  14.387
 9884W        W81610  21.988   8.353   2.293
 9885W        W81611   5.761  39.129  12.620
 9886W        W81612  44.827  32.170  14.781
 9887W        W81613  43.740  10.842  12.001
 9888W        W81614  14.280   7.594  11.038
 9889W        W81615  27.220   7.686   2.605
 9890W        W81616  41.073   1.871  11.160
 9891W        W81617  38.417  12.148  12.003
 9892W        W81618   7.344  18.032  12.077
 9893W        W81619   9.792  23.575   4.646
 9894W        W81620  34.561   6.648   1.848
 9895W        W81621  22.611  26.795  13.454
 9896W        W81622  36.357  12.344  10.660
 9897W        W81623  22.553  36.965   3.721
 9898W        W81624  22.474   7.228  12.570
 9899W        W81625  39.522  14.830  14.001
 9900W        W81626  25.621  34.821  13.514
 9901W        W81627  36.335  23.146  13.850
 9902W        W81628   8.010  43.616   2.984
 9903W        W81629  31.085  14.443  14.390
 9904W        W81630  28.486   5.901  12.340
 9905W        W81631  26.321  24.312   4.129
 9906W        W81632   7.888  26.176  13.952
 9907W        W81633  26.620  42.751   4.704
 9908W        W81634  40.804  26.284   0.727
 9909W        W81635  22.267  11.691  10.707
 9910W        W81636   6.838  11.582   0.227
 9911W        W81637   2.851  12.895   2.215
 9912W        W81638  20.704  21.778   0.344
 9913W        W81639   9.079  20.856   3.691
 9914W        W81640  32.084  39.480   2.333
 9915W        W81641  21.275  27.256   2.822
 9916W        W81642  31.020  12.154   2.147
 9917W        W81643  23.409   3.986   3.669
 9918W        W81644  11.800  13.896   4.528
 9919W        W81645  24.175   6.151   1.693
 9920W        W81646  28.172  22.254  11.500
 9921W        W81647  20.546   5.159  12.464
 9922W        W81648  39.619  26.216   4.079
 9923W        W81649   6.128  17.233  10.666
 9924W        W81650  20.772  44.972  10.199
 9925W        W81651  36.157  13.055   1.815
 9926W        W81652   1.446  42.689  13.144
 9927W        W81653   9.273  14.448  13.264
 9928W        W81654  20.339  19.233  11.193
 9929W        W81655  25.463  23.075  13.114
 9930W        W81656  38.596  35.777  10.389
 9931W        W81657  43.894  18.463  14.752
 9932W        W81658   2.352  22.889   3.807
 9933W        W81659  16.063  40.825  14.935
 9934W        W81660  44.955   8.693  12.614
 9935W        W81661  31.931  43.396   4.293
 9936W        W81662  27.284   0.355   5.496
 9937W        W81663  10.599  23.583  13.564
 9938W        W81664  31.794  32.948   0.453
 9939W        W81665   7.015  32.541   3.774
 9940W        W81666  17.059  40.355   0.709
 9941W        W81667  20.597   4.519   5.012
 9942W        W81668   0.871  35.856  11.519
 9943W        W81669  44.920  11.843  11.771
 9944W        W81670  41.860  31.897  12.044
 9945W        W81671   8.290  41.961  11.224
 9946W        W81672  24.457  27.511  12.796
 9947W        W81673   8.670  12.351  13.418
 9948W        W81674  21.482  31.631  12.060
 9949W        W81675  24.848  28.948   2.679
 9950W        W81676  40.815  25.021   3.637
 9951W        W81677  27.663  14.059  13.152
 9952W        W81678  29.419  42.456   1.125
 9953W        W81679  25.250  44.039   1.214
 9954W        W81680  10.597  22.481   2.338
 9955W        W81681  31.155  28.889   0.911
 9956W        W81682  11.816  17.253   3.576
 9957W        W81683  33.031  31.427  13.438
 9958W        W81684  11.599  29.496  14.668
 9959W        W81685  34.799   5.810   0.345
 9960W        W81686  22.221   7.627   3.330
 9961W        W81687  25.747  40.319  14.634
 9962W        W81688   2.776  41.114   2.371
 9963W        W81689  35.949  25.544   4.575
 9964W        W81690   2.478  34.276   4.254
 9965W        W81691  14.764  32.823   1.829
 9966W        W81692   3.331  42.000   4.559
 9967W        W81693  35.323   7.032   2.172
 9968W        W81694  19.764  38.803   3.802
 9969W        W81695  19.018  31.655  11.953
 9970W        W81696  21.709  36.390  13.508
 9971W        W81697  23.494   9.174   1.895
 9972W        W81698  19.964  11.796   2.726
 9973W        W81699  24.956  28.550  11.135
 9974W        W81700  35.949  21.243   4.030
 9975W        W81701  12.204  21.121  13.375
 9976W        W81702   5.647   2.689  14.980
 9977W        W81703  22.104  30.511   3.997
 9978W        W81704  35.095  32.490  12.502
 9979W        W81705  30.278  10.311  11.127
 9980W        W81706  23.142  41.408  13.561
 9981W        W81707  11.211   3.408   3.194
 9982W        W81708  16.509  35.304   3.274
 9983W        W81709  18.722  35.877  11.618
 9984W        W81710  27.040  11.050  14.974
 9985W        W81711  10.392  33.494   4.432
 9986W        W81712  19.000  16.546   4.272
 9987W        W81713   1.665  23.085  10.656
 9988W        W81714  43.540  22.556  14.496
 9989W        W81715  20.138  34.453  12.190
 9990W        W81716  12.748   9.170   4.605
 9991W        W81717  16.800  17.078  13.322
 9992W        W81718  23.644   7.631   4.154
 9993W        W81719  35.376  14.245   3.870
 9994W        W81720   8.318  23.164   1.383
 9995W        W81721  31.413  32.558  10.606
 9996W        W81722   3.433  28.071  14.959
 9997W        W81723  35.269  20.118   3.632
 9998W        W81724   1.979  32.394   3.104
 9999W        W81725   9.783   1.483  10.767
10000W        W81726  18.730   7.281   3.305
10001W        W81727  13.282  35.265   3.327
10002W        W81728  10.232  25.744   5.452
10003W        W81729  11.471  22.777   0.904
10004W        W81730  32.134  13.679  13.046
10005W        W81731   4.738  15.604   1.371
10006W        W81732  12.368  19.703   2.889
10007W        W81733   4.304  21.147   0.933
10008W        W81734  34.661  36.420   4.861
10009W        W81735  15.834  22.532  11.970
10010W        W81736  11.900   2.668  13.939
10011W        W81737   3.866  35.311  10.881
10012W        W81738   8.901  43.177   2.797
10013W        W81739  20.153  31.334  13.368
10014W        W81740  42.981  11.764  13.179
10015W        W81741   5.042   1.227  12.436
10016W        W81742   0.280   9.166  14.904
10017W        W81743  21.604  11.337  12.882
10018W        W81744  44.509   0.900   4.886
10019W        W81745  14.850  31.798  12.257
10020W        W81746  15.666  16.633  12.166
10021W        W81747  14.795  44.846   0.500
10022W        W81748  24.767   0.603   4.600
10023W        W81749   7.845  11.832  12.353
10024W        W81750  32.145   2.505  13.443
10025W        W81751  27.325  10.324  10.744
10026W        W81752   3.904  23.878  14.682
10027W        W81753  18.298   4.475   1.544
10028W        W81754  39.751  23.671   2.337
10029W        W81755  31.444   0.925  10.715
10030W        W81756   1.351  24.161   1.663
10031W        W81757  19.513  40.122   4.851
10032W        W81758  31.001  27.538  13.574
10033W        W81759  20.023  10.403   1.400
10034W        W81760  42.957  18.007   1.224
10035W        W81761  39.417  34.987   2.324
10036W        W81762   5.867  21.320  14.889
10037W        W81763  23.061  34.996  11.944
10038W        W81764   2.542  16.420  12.395
10039W        W81765  32.755  16.047   1.303
10040W        W81766  35.548  42.080  14.800
10041W        W81767   4.709  29.629   2.233
10042W        W81768  27.755  42.066   1.445
10043W        W81769  11.774  33.162   0.999
10044W        W81770  37.113  24.001  10.548
10045W        W81771   6.181  18.283  14.348
10046W        W81772  44.319  22.943   1.708
10047W        W81773   9.839   9.167   1.142
10048W        W81774  22.972  23.520  14.004
10049W        W81775  19.659   9.874   0.797
10050W        W81776   8.314  21.148   4.146
10051W        W81777  11.517  21.936  13.810
10052W        W81778  19.561   8.646   1.311
10053W        W81779   1.753   3.511   4.534
10054W        W81780  24.890  32.251   4.214
10055W        W81781  37.831  21.677   1.476
10056W        W81782  20.002   1.311   0.778
10057W        W81783  36.424   8.853   2.946
10058W        W81784  32.924   1.739  10.742
10059W        W81785  21.701  39.403  13.302
10060W        W81786  12.859  21.161  11.516
10061W        W81787  41.061  26.451   4.117
10062W        W81788  23.029  36.057  12.447
10063W        W81789  26.702  30.870  10.719
10064W        W81790   2.981  39.089  10.638
10065W        W81791  19.016  33.973   3.531
10066W        W81792  31.945   2.009   0.750
10067W        W81793  38.315  38.348  13.890
10068W        W81794  32.648  12.916  13.340
10069W        W81795   9.205  12.115  13.026
10070W        W81796  13.020  41.567   4.132
10071W        W81797   6.133   5.930   4.773
10072W        W81798  10.859   1.703  13.532
10073W        W81799   6.451  14.185  13.962
10074W        W81800  25.464  30.128  12.886
10075W        W81801   1.187  19.998   2.694
10076W        W81802  10.489  36.118  10.467
10077W        W81803  11.250  44.831   3.662
10078W        W81804   6.841   5.238  14.317
10079W        W81805  44.912  30.479  13.968
10080W        W81806   2.298   9.175   4.683
10081W        W81807  19.173  40.581  14.882
10082W        W81808  35.637  27.427   0.936
10083W        W81809   0.105  15.849   0.357
10084W        W81810  32.763  42.222  13.915
10085W        W81811  19.314  26.819   2.803
10086W        W81812   7.930  13.312  10.649
10087W        W81813  24.587  10.867   2.960
10088W        W81814   9.927   1.745  13.624
10089W        W81815  20.820  42.410   4.238
10090W        W81816  12.806  28.609  10.738
10091W        W81817   1.971  21.596   3.107
10092W        W81818  32.847  24.289  14.421
10093W        W81819   1.640  44.426   0.185
10094W        W81820  35.086  29.556   4.174
10095W        W81821   8.344  16.035   3.294
10096W        W81822   0.039   5.799  13.954
10097W        W81823   3.323  18.370  11.617
10098W        W81824   2.498  15.306   0.825
10099W        W81825  11.671   9.480   2.835
10100W        W81826   1.350  24.224   4.620
10101W        W81827   9.083  19.023  13.807
10102W        W81828  30.361  12.136  12.741
10103W        W81829   2.240  31.665  11.975
10104W        W81830  11.015  24.995   4.852
10105W        W81831  29.104  41.003   2.711
10106W        W81832  25.152  13.325  11.155
10107W        W81833  27.627  37.594   1.403
10108W        W81834  11.367   6.307  12.686
10109W        W81835  22.038  20.362   0.737
10110W        W81836  26.153  25.116  14.933
10111W        W81837  37.659  42.188  14.813
10112W        W81838  37.093  23.549   0.291
10113W        W81839   6.257  18.876   4.335
10114W        W81840  24.214  10.739   3.322
10115W        W81841  32.750  16.230   3.981
10116W        W81842  11.058  18.747  12.600
10117W        W81843  21.273  19.175   4.745
10118W        W81844  44.375  16.258  11.835
10119W        W81845   7.353  17.756   2.679
10120W        W81846  18.849  33.452  13.907
10121W        W81847  42.447  11.155  11.055
10122W        W81848  29.344  14.079  14.028
10123W        W81849  17.813  26.982  14.047
10124W        W81850  31.466   4.855  10.138
10125W        W81851  30.193  20.102  12.497
10126W        W81852  11.898  38.329  13.513
10127W        W81853  39.520  35.959   0.862
10128W        W81854  35.878  37.469  12.308
10129W        W81855  17.031  19.260  13.973
10130W        W81856   8.433  44.029   0.365
10131W        W81857  17.024  35.105  13.061
10132W        W81858   4.403  19.584  11.947
10133W        W81859  16.894  13.876   2.814
10134W        W81860  16.771   1.767   2.326
10135W        W81861  23.104  14.125  10.654
10136W        W81862  33.894  41.814   3.144
10137W        W81863  25.394  32.682   0.361
10138W        W81864  11.487  11.624   2.725
10139W        W81865  39.512   2.756  14.518
10140W        W81866  17.150  31.568   2.517
10141W        W81867  31.516  38.509  14.834
10142W        W81868  17.048   4.825  12.959
10143W        W81869   7.323   7.954  11.518
10144W        W81870  11.295  22.537  11.493
10145W        W81871  12.189  18.463   1.818
10146W        W81872   1.562  42.820  10.715
10147W        W81873  43.290  10.739  12.949
10148W        W81874   3.538  25.230  12.540
10149W        W81875  22.689  38.315   2.642
10150W        W81876  34.994  14.726   2.332
10151W        W81877  30.901   3.146   3.402
10152W        W81878  35.879  36.041  12.058
10153W        W81879   4.294  40.938   3.111
10154W        W81880  11.751  26.123  14.974
10155W        W81881  36.147  37.169  11.223
10156W        W81882  14.336  44.867   4.535
10157W        W81883  22.607  15.628  14.830
10158W        W81884  35.353  22.267   3.639
10159W        W81885  43.818  22.069  13.508
10160W        W81886  11.691  44.348   0.514
10161W        W81887  38.352  15.241   4.848
10162W        W81888   4.207  35.442   0.872
10163W        W81889  32.872  10.806   0.385
10164W        W81890   0.364  40.352   0.288
10165W        W81891  22.921  37.165  12.433
10166W        W81892  29.959  11.222   1.814
10167W        W81893  32.959   7.868  12.955
10168W        W81894  43.551  13.289  12.149
10169W        W81895  19.997  30.996  12.534
10170W        W81896  37.417  36.504   3.323
10171W        W81897  29.574  16.326  11.186
10172W        W81898  18.194  27.995   0.512
10173W        W81899  40.231  16.033   4.692
10174W        W81900  37.359   4.358   1.373
10175W        W81901   0.237  11.928   1.929
10176W        W81902  26.872  21.052  13.429
10177W        W81903   2.989  35.997  14.718
10178W        W81904  18.792  20.248  12.082
10179W        W81905  28.683  38.666   3.680
10180W        W81906  25.773   3.202   4.061
10181W        W81907   9.389  11.103   3.108
10182W        W81908   0.981  35.915   3.135
10183W        W81909   0.349  33.528   2.822
10184W        W81910  20.051  38.839  12.541
10185W        W81911  19.144  37.056   2.168
10186W        W81912  11.904   0.911  11.890
10187W        W81913  23.693  44.818   3.171
10188W        W81914   8.110  37.437   0.870
10189W        W81915  32.452  32.886  12.830
10190W        W81916   4.479   7.727   4.968
10191W        W81917  34.535  17.788   2.309
10192W        W81918  25.958  37.826   2.956
10193W        W81919  14.591   3.820   3.816
10194W        W81920  17.267  22.530  10.307
10195W        W81921  23.796  27.582   9.703
10196W        W81922  24.949   1.245   0.745
10197W        W81923   6.769   5.409  10.840
10198W        W81924   9.292  32.987   2.338
10199W        W81925   0.728  17.621  11.686
10200W        W81926  26.927  33.633   3.136
10201W        W81927  28.109  15.908   0.403
10202W        W81928  21.080  11.160   0.108
10203W        W81929  34.000  44.729  12.029
10204W        W81930  35.307  16.708   1.862
10205W        W81931  38.816   3.257   0.208
10206W        W81932  18.242   2.225  12.519
10207W        W81933   2.936   9.521   0.055
10208W        W81934  34.896   3.910   2.288
10209W        W81935  17.798  21.344   1.189
10210W        W81936  34.373  33.055   0.471
10211W        W81937  37.626  39.972   0.375
10212W        W81938  27.430  20.390  11.661
10213W        W81939   9.425  10.872  12.109
10214W        W81940  28.047  16.072   3.104
10215W        W81941  12.143   5.246  11.534
10216W        W81942  22.028  35.853   2.812
10217W        W81943  24.173  15.315  11.130
10218W        W81944  34.299  33.017  12.097
10219W        W81945  41.355  22.574  12.550
10220W        W81946  43.854  36.503   4.324
10221W        W81947  43.879   4.008  13.873
10222W        W81948  24.606   0.903   2.619
10223W        W81949  17.119  39.926  10.590
10224W        W81950  15.377  32.710  11.557
10225W        W81951  36.878  15.857   3.255
10226W        W81952  24.088   6.242   0.248
10227W        W81953  10.163  43.056  13.822
10228W        W81954  18.681  44.257  11.365
10229W        W81955  18.234  40.835  11.981
10230W        W81956  13.342   4.292   1.499
10231W        W81957   0.033  31.410  12.537
10232W        W81958  26.539   2.391  14.104
10233W        W81959  24.955   1.070   4.660
10234W        W81960  13.895  12.359  12.921
10235W        W81961  18.531  13.395  14.826
10236W        W81962  40.794  10.775  11.594
10237W        W81963   7.975  44.574  13.889
10238W        W81964  25.723  42.806  11.585
10239W        W81965  24.053  19.841   4.602
10240W        W81966  14.901  31.495   3.305
10241W        W81967   3.912   2.825   0.392
10242W        W81968  30.131  44.265  13.541
10243W        W81969   9.820  27.492  10.629
10244W        W81970   7.930  19.327   1.379
10245W        W81971  41.378  20.626  10.648
10246W        W81972  18.550  16.831   0.726
10247W        W81973  16.287   2.253  14.462
10248W        W81974   5.385  14.904  14.585
10249W        W81975  41.121  20.753   0.933
10250W        W81976  14.203  34.606  11.904
10251W        W81977   4.355  36.036   0.373
10252W        W81978  37.997   8.228  14.288
10253W        W81979  11.175  34.031  10.228
10254W        W81980  23.943  16.612  10.971
10255W        W81981  18.804  13.114  12.454
10256W        W81982  39.038   1.392   4.517
10257W        W81983  27.128  18.284   3.760
10258W        W81984  39.435   4.770  11.520
10259W        W81985  24.213  19.966  11.084
10260W        W81986  10.301  31.509  14.434
10261W        W81987  30.918  30.976  13.979
10262W        W81988  44.980  10.689   3.770
10263W        W81989   7.851   6.582  14.258
10264W        W81990   0.700  43.084  11.171
10265W        W81991  43.339  11.654   1.413
10266W        W81992  29.173  12.137  12.941
10267W        W81993  14.742  19.225  11.005
10268W        W81994  33.739   3.981   5.007
10269W        W81995  25.781  11.132   3.012
10270W        W81996  19.313  21.885  11.976
10271W        W81997  28.285  20.728  14.276
10272W        W81998  13.157  21.477   1.982
10273W        W81999  33.464   1.811  13.420
10274W        W82000   0.157  41.092  12.873
10275W        W82001  24.275  44.581  10.625
10276W        W82002  13.080  18.093  11.163
10277W        W82003  41.506   1.432  13.034
10278W        W82004  27.199   3.688  14.396
10279W        W82005  10.360  32.441  10.373
10280W        W82006  22.921  41.066  12.168
10281W        W82007   3.997  38.436  14.980
10282W        W82008  20.665  20.655   3.322
10283W        W82009   6.188  37.033   1.331
10284W        W82010  13.131   6.741  11.575
10285W        W82011  42.763  22.642  12.882
10286W        W82012  32.428  30.493   0.480
10287W        W82013   5.948   8.956   1.324
10288W        W82014  25.525   3.668   3.992
10289W        W82015  14.164  14.665  13.475
10290W        W82016   8.619  42.361  14.428
10291W        W82017  38.300  28.950  11.915
10292W        W82018  17.594  41.505  12.033
10293W        W82019  18.206   2.457   3.275
10294W        W82020  12.261  24.696   2.373
10295W        W82021  22.557  40.085  10.434
10296W        W82022  19.279  21.295  11.891
10297W        W82023  32.823  34.631  14.825
10298W        W82024  11.676  24.557  10.773
10299W        W82025  27.197  20.390  14.384
10300W        W82026  14.352   1.053  14.904
10301W        W82027   6.131  18.615   2.611
10302W        W82028   1.000  33.568   0.539
10303W        W82029  21.073  40.087   3.736
10304W        W82030  32.658  30.196  14.868
10305W        W82031  40.262  44.113   4.163
10306W        W82032  15.342   0.967   4.889
10307W        W82033  21.184   2.467   2.510
10308W        W82034   0.689  39.827  10.576
10309W        W82035  18.785   9.675   3.443
10310W        W82036  15.944   7.787   4.706
10311W        W82037  39.288   9.166  12.064
10312W        W82038  29.933  18.448  12.938
10313W        W82039  44.424  23.780   3.338
10314W        W82040  13.262   3.224   3.313
10315W        W82041  31.498  12.032  11.122
10316W        W82042  27.675   1.998   3.763
10317W        W82043  34.298   5.000  10.654
10318W        W82044   1.473  22.009  11.166
10319W        W82045   7.656  11.314  14.099
10320W        W82046   3.400   8.482   4.750
10321W        W82047  16.263  14.145   2.451
10322W        W82048  30.956  41.033  12.631
10323W        W82049  29.390  22.219   4.189
10324W        W82050  21.005   3.848   1.272
10325W        W82051  13.201   5.393  14.214
10326W        W82052  10.236  42.798   2.141
10327W        W82053  33.837  27.739   3.701
10328W        W82054  38.001  24.756  11.539
10329W        W82055  17.117  14.623   4.863
10330W        W82056  23.252  14.209   1.851
10331W        W82057  21.074  44.294   3.192
10332W        W82058  24.922  44.202  11.078
10333W        W82059  41.981  40.915   2.431
10334W        W82060  28.081  24.493  14.480
10335W        W82061   9.666  16.153   2.904
10336W        W82062  18.214   2.825   1.259
10337W        W82063  11.698   6.670  12.555
10338W        W82064  33.098  40.529   4.377
10339W        W82065  34.011  41.623  11.377
10340W        W82066  43.776  14.697  11.626
10341W        W82067  17.814  35.516   1.828
10342W        W82068  15.700  16.584   0.355
10343W        W82069  12.457  33.711  14.420
10344W        W82070   1.871  13.652  13.484
10345W        W82071   1.147  32.255   0.595
10346W        W82072  38.588  40.427  14.843
10347W        W82073  24.933  17.552   3.168
10348W        W82074  14.703  31.577   0.439
10349W        W82075  32.258  41.950   9.752
10350W        W82076  33.211  14.457   3.270
10351W        W82077  25.145  42.288   1.432
10352W        W82078  32.743  13.937   1.890
10353W        W82079  23.427  33.510   0.273
10354W        W82080  36.172  14.826   1.804
10355W        W82081  25.569  43.403  14.265
10356W        W82082  17.801  14.087  13.478
10357W        W82083  22.108  36.675   4.657
10358W        W82084  27.957  18.721   0.788
10359W        W82085   8.875  30.971   3.820
10360W        W82086  19.017  42.972   9.955
10361W        W82087   5.379   2.879   0.569
10362W        W82088  40.721  35.429  14.823
10363W        W82089  24.152  25.245  12.572
10364W        W82090  14.603  21.488   4.493
10365W        W82091   2.715   1.487  11.944
10366W        W82092  17.184  41.771   4.434
10367W        W82093  28.559  27.763  14.219
10368W        W82094  44.993  39.336   2.703
10369W        W82095   7.201  31.607   3.804
10370W        W82096   4.932   9.602   0.410
10371W        W82097  33.922  37.411   3.167
10372W        W82098  19.301  11.345  11.532
10373W        W82099   8.910  42.161  12.960
10374W        W82100  16.817  37.821   4.700
10375W        W82101   5.181  13.043  11.081
10376W        W82102  14.623   4.715  11.147
10377W        W82103   8.507  10.812   2.219
10378W        W82104   5.207   6.661   4.995
10379W        W82105  14.748  34.392   1.828
10380W        W82106  34.780  36.585  14.886
10381W        W82107  27.697   9.626   0.490
10382W        W82108  21.314  11.785   3.330
10383W        W82109  35.034  42.277  12.839
10384W        W82110  23.570  12.283  14.040
10385W        W82111  23.963  20.348   4.619
10386W        W82112   8.222  21.822  14.870
10387W        W82113   5.682  23.711  12.056
10388W        W82114  34.170  20.826  13.485
10389W        W82115   9.806  34.664   4.171
10390W        W82116  26.894  43.323  13.056
10391W        W82117   3.774   5.564  10.254
10392W        W82118  31.560  24.075   0.976
10393W        W82119  28.485  24.563   1.914
10394W        W82120  30.966  27.427   2.503
10395W        W82121  30.135  41.871   3.938
10396W        W82122  21.445  13.723   3.705
10397W        W82123  16.941  29.330  10.596
10398W        W82124   7.707  11.324   2.284
10399W        W82125  19.458  39.394  11.684
10400W        W82126  29.912   9.985  13.799
10401W        W82127  10.900  26.012  12.102
10402W        W82128  43.238   4.868   3.714
10403W        W82129  23.497  35.791  10.411
10404W        W82130  11.464  26.156  10.716
10405W        W82131  39.785  13.290  12.876
10406W        W82132  13.904  33.188  14.463
10407W        W82133  24.921  21.718   2.798
10408W        W82134  27.244  42.095  14.168
10409W        W82135  27.103  32.309   2.086
10410W        W82136  11.128  10.419   4.158
10411W        W82137  29.247  44.760  11.738
10412W        W82138  20.961  22.800  11.615
10413W        W82139  19.301  37.879  13.549
10414W        W82140  25.535  30.137   3.719
10415W        W82141   2.794  32.037  13.034
10416W        W82142  20.995  28.939   0.709
10417W        W82143  17.176  18.780   2.322
10418W        W82144  26.127  30.728   2.845
10419W        W82145  29.424  21.223   2.179
10420W        W82146  32.576  28.678   4.318
10421W        W82147   3.721   5.635   2.757
10422W        W82148  36.082  13.343  13.476
10423W        W82149  31.286  28.171  11.139
10424W        W82150  26.417  26.988   4.110
10425W        W82151  21.306  36.481   4.687
10426W        W82152   1.861  10.901  14.988
10427W        W82153   3.843  34.576   2.781
10428W        W82154  35.667  30.872  13.336
10429W        W82155  19.011  25.172   9.851
10430W        W82156  33.302  33.015  10.555
10431W        W82157   0.967  29.613   0.445
10432W        W82158  14.515  33.163   0.341
10433W        W82159   3.688  17.294  11.979
10434W        W82160  28.845  29.495   0.501
10435W        W82161   9.240  39.910  11.447
10436W        W82162  34.857   3.119  14.987
10437W        W82163  33.275   9.351  11.727
10438W        W82164  44.185  13.227   3.505
10439W        W82165  42.961  28.628  13.248
10440W        W82166  12.593   6.203  11.454
10441W        W82167  14.377  11.110  14.458
10442W        W82168  41.972   7.673   2.314
10443W        W82169  18.737   8.556  11.684
10444W        W82170  33.970  40.410  13.940
10445W        W82171   7.201  11.273   2.223
10446W        W82172  23.992   2.856   0.886
10447W        W82173  29.712   8.183   1.742
10448W        W82174   9.731  44.384   0.722
10449W        W82175  25.638  11.872  14.443
10450W        W82176  12.314   7.257  13.978
10451W        W82177  37.073  14.894  12.394
10452W        W82178  20.616  40.057  10.665
10453W        W82179  21.268  32.617   2.179
10454W        W82180  32.508   3.423  14.553
10455W        W82181  34.484  36.924   1.949
10456W        W82182  27.506  42.262  14.999
10457W        W82183  18.309  15.304  10.729
10458W        W82184   3.495   6.906  12.994
10459W        W82185   8.730  32.975  13.210
10460W        W82186   1.182  40.992   0.807
10461W        W82187  36.662  20.155  12.028
10462W        W82188   2.739   1.685   2.401
10463W        W82189  15.389  14.502   2.268
10464W        W82190  37.017  13.788  13.276
10465W        W82191  44.604  26.282  10.970
10466W        W82192  36.640  11.077  12.057
10467W        W82193   3.329  19.326  11.322
10468W        W82194  14.815   1.618   2.700
10469W        W82195  44.603  15.202  13.143
10470W        W82196  12.239   8.347  11.697
10471W        W82197  32.291   2.333   4.567
10472W        W82198  30.746  40.838  10.897
10473W        W82199   8.153   5.266  14.594
10474W        W82200  21.757  31.168   4.435
10475W        W82201   2.494  27.175   1.683
10476W        W82202   9.121  28.597   0.334
10477W        W82203  12.328   7.670  12.484
10478W        W82204  26.045  20.570   3.706
10479W        W82205   5.402  32.487   4.077
10480W        W82206  40.442  43.008  11.539
10481W        W82207   2.239  15.517  14.249
10482W        W82208  38.069  11.688   2.726
10483W        W82209  33.633  12.796  13.435
10484W        W82210  33.616  26.771   2.733
10485W        W82211  31.959  39.032  13.677
10486W        W82212  27.564  17.362   3.334
10487W        W82213  26.931  22.023  12.477
10488W        W82214  24.013  23.701   4.372
10489W        W82215  33.354  19.960  10.143
10490W        W82216  38.367  17.098  12.985
10491W        W82217  20.154  20.615  14.395
10492W        W82218  44.005  28.925   4.034
10493W        W82219  22.233  20.628  14.387
10494W        W82220  34.386  40.568  11.937
10495W        W82221  10.363  43.818  11.234
10496W        W82222  38.622  31.900   2.712
10497W        W82223  44.461   6.094   3.692
10498W        W82224  37.292  39.590  14.971
10499W        W82225  30.494  13.125   3.108
10500W        W82226   3.024  33.007   4.451
10501W        W82227  22.999  31.505   4.297
10502W        W82228  34.890  36.341  12.619
10503W        W82229  19.766   8.338  11.509
10504W        W82230  34.854  41.422  13.809
10505W        W82231   5.915  27.233  13.959
10506W        W82232  29.741  30.377  11.558
10507W        W82233  35.352  19.649   0.489
10508W        W82234  25.137  44.681  14.372
10509W        W82235  29.666  33.685  14.471
10510W        W82236  38.803  15.380   3.133
10511W        W82237  40.097  18.985  12.444
10512W        W82238  33.669  37.919  12.171
10513W        W82239  43.338  22.586  10.304
10514W        W82240  22.658  30.957   1.536
10515W        W82241  34.056   6.363  12.058
10516W        W82242   6.963   3.436   4.072
10517W        W82243   0.854   0.531  12.259
10518W        W82244  27.179  37.914   4.056
10519W        W82245  13.138  32.056  14.392
10520W        W82246  20.161  37.356   2.206
10521W        W82247  21.528  23.634   1.472
10522W        W82248   3.871   2.202   0.190
10523W        W82249  31.549   9.758  14.201
10524W        W82250   0.476  40.804  12.469
10525W        W82251  18.783  43.418  12.411
10526W        W82252  32.798  21.287   0.470
10527W        W82253   8.909  16.711   1.837
10528W        W82254  29.996  23.117  14.361
10529W        W82255  39.936  20.560   4.073
10530W        W82256  21.282   1.367   3.497
10531W        W82257  31.652  30.498  11.624
10532W        W82258   6.298  21.534   0.260
10533W        W82259  15.179  10.768  12.509
10534W        W82260   8.682  28.543  14.269
10535W        W82261   6.260  11.666  10.761
10536W        W82262  21.479  29.060   2.152
10537W        W82263   1.751   9.787   4.302
10538W        W82264   7.741  27.547  12.130
10539W        W82265  32.630   0.007   9.978
10540W        W82266   3.330  30.901  14.428
10541W        W82267  11.191  41.502   3.536
10542W        W82268  32.054  25.970  14.441
10543W        W82269  32.529  16.037  13.946
10544W        W82270   9.573  36.043   9.981
10545W        W82271  39.792  30.925  13.992
10546W        W82272  44.834  40.391  12.841
10547W        W82273   7.583   9.880   1.332
10548W        W82274  26.172  33.498  14.421
10549W        W82275  39.829  13.641   3.237
10550W        W82276  37.748   5.739  11.694
10551W        W82277   4.785   8.222   4.307
10552W        W82278   5.337  16.573  11.123
10553W        W82279  17.609  39.761  10.642
10554W        W82280   2.337  31.020  11.495
10555W        W82281  39.906  19.530   0.762
10556W        W82282  19.072  38.379   4.797
10557W        W82283  29.582   0.105  13.911
10558W        W82284  19.502   3.891   0.319
10559W        W82285  39.903  13.165  11.133
10560W        W82286  19.107   5.485   2.285
10561W        W82287  41.837   5.709   0.755
10562W        W82288  37.448  12.400   0.915
10563W        W82289  26.579   5.301   3.580
10564W        W82290  41.092  23.530   2.780
10565W        W82291  39.098  14.784   5.024
10566W        W82292  30.194  39.645  12.079
10567W        W82293  10.492  35.527  13.761
10568W        W82294   0.479  30.408   1.916
10569W        W82295  17.700  38.779   2.821
10570W        W82296   3.038  25.989   3.367
10571W        W82297  11.677  31.582  14.924
10572W        W82298   8.855  44.933   3.674
10573W        W82299  19.984   1.748  13.061
10574W        W82300  12.686  24.070   0.819
10575W        W82301  10.728  27.886  10.923
10576W        W82302  23.531  20.582   4.388
10577W        W82303  21.295  31.646   1.303
10578W        W82304  33.330  38.201   1.024
10579W        W82305  30.217  18.583  11.746
10580W        W82306  28.967  26.174   1.177
10581W        W82307  34.841  31.790  12.043
10582W        W82308  32.469  21.145   0.923
10583W        W82309  33.511  38.692   4.683
10584W        W82310  35.938  25.518   3.588
10585W        W82311  42.304  29.580  10.968
10586W        W82312  42.535   5.302  14.855
10587W        W82313  41.400   7.666   1.706
10588W        W82314  15.257  24.416   4.687
10589W        W82315  21.277   1.044   0.541
10590W        W82316  12.583  35.444  13.427
10591W        W82317  25.250  11.162  14.099
10592W        W82318  27.630  13.088   2.144
10593W        W82319  22.075  24.612   4.745
10594W        W82320  33.106   8.606  12.452
10595W        W82321  38.391   9.840   1.662
10596W        W82322  24.931   0.939  12.992
10597W        W82323   6.879  39.698   2.819
10598W        W82324  36.869  30.972  12.638
10599W        W82325  36.991  25.970   0.754
10600W        W82326  10.003  27.691   4.971
10601W        W82327  32.619  30.427  10.421
10602W        W82328   8.698  18.218   2.715
10603W        W82329  11.669  40.411   0.455
10604W        W82330  31.439  27.003  11.672
10605W        W82331  10.830  32.611  10.614
10606W        W82332  31.448  23.638   2.287
10607W        W82333  37.843  28.187   2.260
10608W        W82334  12.833  26.624   1.640
10609W        W82335  35.524   1.526   3.282
10610W        W82336  26.669  39.489  14.787
10611W        W82337   1.853  21.298  14.386
10612W        W82338  39.109  10.657   9.962
10613W        W82339  29.684  34.552  13.513
10614W        W82340  11.359   3.359  11.151
10615W        W82341  11.916   1.766  11.556
10616W        W82342  33.770  27.705  12.016
10617W        W82343   1.203   3.353   2.769
10618W        W82344   8.385  39.388  13.335
10619W        W82345  15.012   8.543   3.718
10620W        W82346   4.258   4.300   1.444
10621W        W82347  43.767  35.121   0.306
10622W        W82348  31.081  20.976   2.729
10623W        W82349  34.590  28.232  12.867
10624W        W82350   6.462  12.737   1.433
10625W        W82351  12.053  19.038  11.545
10626W        W82352  31.085  42.803  13.787
10627W        W82353   9.739  17.148   0.163
10628W        W82354   6.890  18.548  14.435
10629W        W82355  36.574  35.605  13.881
10630W        W82356  21.666  14.831   0.360
10631W        W82357   7.634  24.269   4.641
10632W        W82358  41.521  25.424  12.180
10633W        W82359  19.498  31.875   4.833
10634W        W82360  37.558  13.269   0.467
10635W        W82361  18.225  41.841  12.476
10636W        W82362  19.293  42.054   1.747
10637W        W82363   1.414  37.461  12.453
10638W        W82364  25.990  39.385  13.005
10639W        W82365  13.134  38.210   4.069
10640W        W82366   8.721  33.462  12.379
10641W        W82367  18.178  32.575  10.677
10642W        W82368   9.312  18.212   0.560
10643W        W82369   0.170  27.160  11.041
10644W        W82370  23.643   7.407   1.050
10645W        W82371  17.629  12.106   3.610
10646W        W82372  34.420   8.984   3.255
10647W        W82373  44.392   9.974  10.540
10648W        W82374  27.891  12.211   2.647
10649W        W82375  37.586  17.600  12.980
10650W        W82376  16.030  32.808  10.594
10651W        W82377  21.544  36.959   2.644
10652W        W82378  28.588   4.115   1.281
10653W        W82379  38.328  33.920   0.512
10654W        W82380  39.548  20.150   4.410
10655W        W82381  44.251  33.930  14.898
10656W        W82382  31.683  40.345  13.391
10657W        W82383  39.959  25.314   4.530
10658W        W82384   5.771  13.148  12.460
10659W        W82385  43.394  15.710   1.602
10660W        W82386  35.038  16.104   2.738
10661W        W82387  18.744   5.780  13.615
10662W        W82388  30.118  14.888  11.119
10663W        W82389   8.245  16.638   1.186
10664W        W82390   2.439  22.546   1.229
10665W        W82391  17.624   7.102  11.521
10666W        W82392  25.086  40.849   1.896
10667W        W82393  13.825  25.092  14.024
10668W        W82394  38.822  42.887  12.986
10669W        W82395   9.235   5.367   0.663
10670W        W82396  11.992  39.619  14.855
10671W        W82397  40.949   3.198  12.081
10672W        W82398  13.619  32.026  14.988
10673W        W82399   4.697  44.375  14.832
10674W        W82400   4.595  44.978   3.075
10675W        W82401  16.069  19.210  12.621
10676W        W82402   7.196   9.332  14.468
10677W        W82403  32.591  35.662   0.031
10678W        W82404  23.000  21.725  10.698
10679W        W82405  16.305  42.132   4.538
10680W        W82406  20.467  38.873  13.565
10681W        W82407  23.872  30.502   4.111
10682W        W82408  35.861  35.494   0.249
10683W        W82409  41.036   4.043  12.462
10684W        W82410  29.698  13.673   2.724
10685W        W82411  15.103  32.434  14.389
10686W        W82412  15.123  32.275   0.452
10687W        W82413   0.319   5.181  14.752
10688W        W82414  16.725  35.241  12.477
10689W        W82415  13.333  40.063   2.220
10690W        W82416  27.169  11.815  14.602
10691W        W82417   8.404   1.262  10.463
10692W        W82418  27.025  10.689  12.341
10693W        W82419  10.695  11.567   0.869
10694W        W82420  26.398  25.869   0.312
10695W        W82421  21.427  11.556   2.154
10696W        W82422  32.643   5.013   1.275
10697W        W82423  42.848  24.245   3.128
10698W        W82424  19.636  11.432  12.505
10699W        W82425  35.005  44.897  14.827
10700W        W82426  24.494  15.181  14.791
10701W        W82427  34.989  12.787  13.823
10702W        W82428  19.647   9.050  13.390
10703W        W82429  19.614  44.748  11.107
10704W        W82430  39.579  37.790  13.879
10705W        W82431   1.426  27.865  11.125
10706W        W82432  41.396   2.809   3.362
10707W        W82433   3.289   7.780  13.414
10708W        W82434  27.942   7.034   2.784
10709W        W82435   7.784  30.679   2.875
10710W        W82436  26.477   6.163   3.331
10711W        W82437  43.028  22.498  11.311
10712W        W82438  33.517  11.690   5.034
10713W        W82439  35.918  39.909  10.466
10714W        W82440   0.460  30.031   4.633
10715W        W82441  19.461  43.842  11.180
10716W        W82442  39.425   4.910  13.980
10717W        W82443  14.227  37.782  14.102
10718W        W82444  38.348  31.990   1.004
10719W        W82445  35.043  27.428  14.932
10720W        W82446  29.157  24.794   4.859
10721W        W82447  21.801  29.121   3.142
10722W        W82448  14.692  23.213  12.910
10723W        W82449   6.211  39.038  14.948
10724W        W82450  32.978  36.058  12.420
10725W        W82451  11.606  40.382   1.836
10726W        W82452  31.896  10.620  14.417
10727W        W82453  24.151   7.137  12.729
10728W        W82454   3.997  14.318   1.251
10729W        W82455  29.988  42.496   2.244
10730W        W82456  14.213  34.952   2.850
10731W        W82457  38.050  27.424  14.534
10732W        W82458   1.735   4.729   3.938
10733W        W82459  44.442  13.169  11.952
10734W        W82460  18.648   5.367  12.798
10735W        W82461   2.734  25.999   1.901
10736W        W82462  33.424  40.914  12.059
10737W        W82463  21.660  26.495  13.886
10738W        W82464   7.580   4.837  10.704
10739W        W82465  10.776   8.600   5.361
10740W        W82466  16.550   8.766  11.250
10741W        W82467   9.400  14.059   5.124
10742W        W82468  32.004  27.036  12.961
10743W        W82469   5.136  11.833  13.443
10744W        W82470   3.776  18.071  11.530
10745W        W82471   5.336  27.691   4.073
10746W        W82472   3.593  20.846   3.855
10747W        W82473  18.615   9.775  12.978
10748W        W82474  44.403  23.610  13.888
10749W        W82475  30.576  32.671  13.018
10750W        W82476   0.482  25.311   4.789
10751W        W82477  27.058   8.342   4.612
10752W        W82478   7.887  11.863   4.724
10753W        W82479  13.663  41.723  14.326
10754W        W82480  33.072  13.388  11.184
10755W        W82481  22.315  39.934  11.422
10756W        W82482  27.989  37.635  12.872
10757W        W82483  43.697   9.414   4.642
10758W        W82484   1.659   6.334   2.784
10759W        W82485  11.606   5.347  12.451
10760W        W82486  22.962  10.884   2.309
10761W        W82487   5.329  23.171   4.529
10762W        W82488  37.481  38.622   4.061
10763W        W82489  32.895  29.521  11.877
10764W        W82490  18.547  40.723   0.248
10765W        W82491  21.131  34.391   3.547
10766W        W82492  24.031  34.944   1.385
10767W        W82493  42.058  42.945  13.286
10768W        W82494  44.012  17.443  12.525
10769W        W82495   9.356  38.350   4.372
10770W        W82496  41.366  21.601  13.538
10771W        W82497   4.261  30.452   1.881
10772W        W82498  13.820  27.879  13.349
10773W        W82499  44.211  44.972  10.212
10774W        W82500  36.895  38.058   1.775
10775W        W82501   0.507  36.134   1.031
10776W        W82502  10.785  41.048   3.801
10777W        W82503  20.844  13.346  14.905
10778W        W82504  24.551   5.127   1.412
10779W        W82505  38.815  13.740  12.220
10780W        W82506  40.275  41.525   3.283
10781W        W82507   5.982  40.531  12.453
10782W        W82508  35.386  31.281  14.887
10783W        W82509  28.587  34.158   2.082
10784W        W82510  40.840  13.309   3.692
10785W        W82511  31.926  40.537   3.658
10786W        W82512  28.491   4.667   2.738
10787W        W82513   1.397   2.197   1.806
10788W        W82514  28.718  17.225  14.934
10789W        W82515  37.926  34.837   3.661
10790W        W82516  15.321  33.173  11.791
10791W        W82517  11.426  43.582  11.097
10792W        W82518  22.686   1.880   3.760
10793W        W82519  39.461   5.076  12.400
10794W        W82520  43.022   5.955  13.841
10795W        W82521  21.703  31.620  12.563
10796W        W82522  18.151   1.280  11.556
10797W        W82523  18.766   9.120   4.119
10798W        W82524  30.343  37.953   2.657
10799W        W82525  12.930  42.399   1.308
10800W        W82526  16.970  29.579  11.184
10801W        W82527  25.308  42.559  12.475
10802W        W82528  20.548  38.377  10.696
10803W        W82529  35.399  38.866  10.672
10804W        W82530  20.154  40.599  14.862
10805W        W82531  32.924  10.639   0.883
10806W        W82532  18.355  16.262  12.896
10807W        W82533   7.740  33.378   1.927
10808W        W82534  30.266  23.286  11.247
10809W        W82535  31.088  36.115   0.706
10810W        W82536   4.379  34.851  13.458
10811W        W82537  12.949  18.581  10.988
10812W        W82538  20.541   6.061  12.466
10813W        W82539  22.093  30.519   4.503
10814W        W82540  33.101  12.608   0.804
10815W        W82541  15.686  35.544  13.841
10816W        W82542  13.578   2.922   4.860
10817W        W82543  35.063  31.870   0.513
10818W        W82544  36.805   4.732  10.534
10819W        W82545  26.351   5.960   1.071
10820W        W82546  39.268  41.443  11.064
10821W        W82547  26.656  30.089  13.641
10822W        W82548  44.026  41.849   4.159
10823W        W82549  34.181  26.066   4.710
10824W        W82550  38.332  30.412  12.534
10825W        W82551  20.540   6.498   4.236
10826W        W82552  20.734  41.599  12.276
10827W        W82553   7.920   6.170   4.778
10828W        W82554  18.810  26.195   1.563
10829W        W82555  41.082   7.331   4.210
10830W        W82556  28.953   8.675  12.951
10831W        W82557  19.624  38.987  14.410
10832W        W82558  23.542  41.751   1.264
10833W        W82559  22.719  41.362  14.020
10834W        W82560  38.907  31.132   0.524
10835W        W82561   2.823   5.702   2.675
10836W        W82562  38.942  42.921  12.485
10837W        W82563  12.744  36.547   1.893
10838W        W82564  13.663  26.527  11.184
10839W        W82565  39.959  29.122  14.314
10840W        W82566  17.730  32.705  13.431
10841W        W82567  40.070  34.627  12.940
10842W        W82568  43.307  21.082   2.385
10843W        W82569   8.320  19.981   0.920
10844W        W82570  15.063   4.281   0.395
10845W        W82571   2.209  26.469   1.154
10846W        W82572  41.315  22.427  13.067
10847W        W82573  14.726   9.353   1.347
10848W        W82574   1.018  20.471  10.685
10849W        W82575  14.742  41.597  13.398
10850W        W82576  36.874  12.675  14.562
10851W        W82577  44.184  21.016   4.680
10852W        W82578  44.359  25.243  13.172
10853W        W82579  17.029  11.811  14.395
10854W        W82580  35.794   1.423   0.263
10855W        W82581  10.920  21.128   0.791
10856W        W82582  39.789  22.450   0.734
10857W        W82583  42.030  33.398   0.428
10858W        W82584   5.579  30.605  14.761
10859W        W82585   0.447  34.544  13.855
10860W        W82586  43.062  35.036  12.561
10861W        W82587  39.605   1.885   3.567
10862W        W82588  12.188  26.247   4.594
10863W        W82589  11.314  22.060  14.733
10864W        W82590  30.876  10.960   3.808
10865W        W82591  20.319  31.500  11.482
10866W        W82592  36.573  43.371  10.976
10867W        W82593  25.703   2.224   2.608
10868W        W82594  19.744  44.290  13.963
10869W        W82595   5.286  29.161   1.149
10870W        W82596   8.136  44.251   4.145
10871W        W82597  21.758  18.767  13.233
10872W        W82598  18.564   5.468   1.438
10873W        W82599  42.000  26.865  14.850
10874W        W82600  34.177  27.557  10.721
10875W        W82601  26.060  21.991  12.890
10876W        W82602  32.370  39.113  11.074
10877W        W82603   7.820  34.064  12.105
10878W        W82604   9.572  10.715   0.503
10879W        W82605  40.055  15.620   0.834
10880W        W82606  22.181  14.619  11.494
10881W        W82607  17.682  12.407  12.284
10882W        W82608   8.441  16.651   2.670
10883W        W82609  22.146  37.440  10.983
10884W        W82610   5.457   7.015  13.824
10885W        W82611  35.099  31.738  11.179
10886W        W82612  35.431  40.735   1.832
10887W        W82613  25.548   2.044  14.015
10888W        W82614  25.046  19.120   3.909
10889W        W82615  29.001  14.799   3.429
10890W        W82616   5.266  28.232   0.005
10891W        W82617  24.250  32.904  12.297
10892W        W82618   3.013  28.483   2.329
10893W        W82619  36.297  23.170   0.412
10894W        W82620  12.638   7.993   0.528
10895W        W82621  16.241  39.442   2.325
10896W        W82622  42.301  23.029   0.281
10897W        W82623  19.472  41.141  12.766
10898W        W82624  28.580  41.383  12.316
10899W        W82625  39.521   1.764  13.484
10900W        W82626  40.897  31.953  12.898
10901W        W82627  21.309  31.330   4.648
10902W        W82628  11.304  18.175   4.789
10903W        W82629  40.192  32.506  12.403
10904W        W82630  31.898  32.727   4.168
10905W        W82631  18.669   0.313   4.699
10906W        W82632  17.383  31.530   3.788
10907W        W82633  18.894  18.009  10.841
10908W        W82634   2.370  44.803  13.950
10909W        W82635  15.308  26.677   2.838
10910W        W82636  23.657   3.936   2.985
10911W        W82637  16.588   9.286   2.762
10912W        W82638  22.932  25.458  14.252
10913W        W82639  36.993  28.184  14.461
10914W        W82640  41.178  38.205  11.011
10915W        W82641   6.750  25.442   3.616
10916W        W82642  20.238  32.414   1.600
10917W        W82643  37.486  37.253  10.937
10918W        W82644  22.100  19.984   1.724
10919W        W82645  40.938  27.552   1.500
10920W        W82646  28.087  14.300  13.308
10921W        W82647  29.688  33.181  14.458
10922W        W82648   4.871   2.070   4.487
10923W        W82649  15.452  29.976  14.489
10924W        W82650  39.070   4.864   1.203
10925W        W82651  36.236  44.874  11.667
10926W        W82652  32.310  12.929  12.062
10927W        W82653  21.215  40.780   2.342
10928W        W82654   6.275  25.198  11.640
10929W        W82655   4.958  41.414   3.710
10930W        W82656  20.237  12.545   2.096
10931W        W82657  16.339  41.786   4.912
10932W        W82658  11.099  16.158   3.281
10933W        W82659   8.415  27.468  12.478
10934W        W82660  39.565  43.533   1.185
10935W        W82661  15.888  31.534  10.749
10936W        W82662  40.349  42.836   3.648
10937W        W82663  40.844  20.173  14.886
10938W        W82664  35.539  18.048   1.861
10939W        W82665  38.630  31.133   1.474
10940W        W82666  27.644  44.804   3.342
10941W        W82667  16.407  36.537   2.266
10942W        W82668  13.344  38.389   1.300
10943W        W82669  20.753  43.924  14.780
10944W        W82670  39.827  17.556  10.700
10945W        W82671   8.329  36.492  13.207
10946W        W82672  27.572  17.099  14.647
10947W        W82673  29.009  32.411   2.730
10948W        W82674  12.857  17.669   1.647
10949W        W82675  43.935  31.621   3.081
10950W        W82676  31.350  35.510   3.170
10951W        W82677  23.185   2.634  14.287
10952W        W82678   0.392   6.950   1.745
10953W        W82679  42.966  17.147   0.756
10954W        W82680  21.492  42.238   0.072
10955W        W82681  16.259  40.312   1.271
10956W        W82682  14.177  34.902  14.021
10957W        W82683   9.427  10.638  12.964
10958W        W82684   7.801  38.557   1.478
10959W        W82685  13.959   1.870  11.510
10960W        W82686   9.635  13.122   4.247
10961W        W82687  19.697   8.790   0.822
10962W        W82688  38.960  30.070  14.690
10963W        W82689  43.739  33.940  14.905
10964W        W82690   6.856   3.402   4.922
10965W        W82691  32.848   9.883   3.211
10966W        W82692  21.120  25.952   0.024
10967W        W82693  12.496  34.460  11.230
10968W        W82694  24.539  12.608  12.650
10969W        W82695  40.851  37.111  12.414
10970W        W82696  36.602   5.228   0.008
10971W        W82697  11.127  13.840  13.532
10972W        W82698  43.795   7.663  11.981
10973W        W82699   8.972   1.397  12.951
10974W        W82700  18.021  44.884  14.426
10975W        W82701  43.367   3.745   1.080
10976W        W82702  20.081  11.482  12.779
10977W        W82703  40.357   6.067   4.996
10978W        W82704   9.231  33.826  13.011
10979W        W82705   3.626   6.671  13.459
10980W        W82706  43.383  42.873   4.727
10981W        W82707  20.335  14.927   1.322
10982W        W82708  27.072  10.789   0.400
10983W        W82709  23.695  15.245   4.090
10984W        W82710  36.089  15.644  12.019
10985W        W82711  41.940  34.014  12.986
10986W        W82712  27.386  31.504  12.329
10987W        W82713  39.581  15.174   3.807
10988W        W82714  34.978  28.421  13.773
10989W        W82715  22.119  13.578  11.526
10990W        W82716   9.633  22.956  13.076
10991W        W82717   9.380   4.806   2.480
10992W        W82718  21.387  37.496   2.426
10993W        W82719   3.037  11.788   1.857
10994W        W82720   8.294  20.138  10.856
10995W        W82721  44.089  41.733  14.934
10996W        W82722  18.159  32.336   3.107
10997W        W82723  40.081  11.731  14.463
10998W        W82724   2.401  44.917   0.421
10999W        W82725   7.246  37.017   2.818
11000W        W82726  25.174  17.760   2.741
11001W        W82727  17.328  18.469   3.675
11002W        W82728  35.952  16.077  13.327
11003W        W82729   8.187  26.233   3.136
11004W        W82730  33.433  29.851  13.469
11005W        W82731   8.211   1.223  12.564
11006W        W82732  44.943  28.432  12.882
11007W        W82733  31.491  41.511   4.523
11008W        W82734  19.033  32.730   2.713
11009W        W82735  27.725  43.076   1.718
11010W        W82736  13.885  21.055   3.131
11011W        W82737  16.137   8.330  14.137
11012W        W82738  20.513   8.479  11.168
11013W        W82739  44.357   5.287   3.066
11014W        W82740  16.104  12.493   1.884
11015W        W82741  21.281  40.277   2.411
11016W        W82742  11.815  35.611  12.111
11017W        W82743   1.249   5.598   0.663
11018W        W82744  35.310  18.443   4.234
11019W        W82745  42.463  17.813   2.866
11020W        W82746   1.168  40.022  12.885
11021W        W82747  38.064  16.867   2.575
11022W        W82748  37.853  34.819   1.169
11023W        W82749   6.460  30.630   3.669
11024W        W82750   1.827  29.176   0.780
11025W        W82751   8.301  31.022  13.719
11026W        W82752   9.139  25.316   1.271
11027W        W82753  44.886  24.271   2.820
11028W        W82754  17.790  20.822  13.151
11029W        W82755   0.988   5.861   1.953
11030W        W82756  19.595  15.595  12.374
11031W        W82757   3.917   1.128  11.689
11032W        W82758  13.260  23.011   2.634
11033W        W82759  23.310   4.388   2.241
11034W        W82760  20.100  26.993  10.422
11035W        W82761  18.299  37.822   3.179
11036W        W82762  32.819  20.349   1.401
11037W        W82763  40.945  30.085   2.872
11038W        W82764  28.744  14.627   4.549
11039W        W82765  13.519  36.986   1.048
11040W        W82766  39.050  36.482  10.969
11041W        W82767  27.563  37.498  11.409
11042W        W82768  43.418  20.932   0.763
11043W        W82769  22.615  31.368   3.597
11044W        W82770  26.533   0.892   5.391
11045W        W82771  40.343  40.473  13.000
11046W        W82772   5.367  32.949   3.332
11047W        W82773  11.958  35.345   4.630
11048W        W82774  34.384  22.445  13.326
11049W        W82775   8.746  36.926   3.773
11050W        W82776  33.921  29.517   2.775
11051W        W82777  31.885  32.090  11.175
11052W        W82778  29.591  40.363   0.252
11053W        W82779  13.750  29.603   2.392
11054W        W82780  13.927  36.143   4.184
11055W        W82781   9.967  28.030   1.384
11056W        W82782  16.642  26.924   3.823
11057W        W82783  27.071  39.627   1.929
11058W        W82784  22.031  42.033  13.431
11059W        W82785  44.300  37.033  14.452
11060W        W82786  43.524  38.266  14.359
11061W        W82787  41.162  17.797   2.220
11062W        W82788   7.077  35.318  10.133
11063W        W82789  44.828  44.447   4.160
11064W        W82790  29.687  36.465   1.282
11065W        W82791  15.412  13.369   3.378
11066W        W82792  40.110  27.077  12.032
11067W        W82793  21.731  36.247  12.450
11068W        W82794  17.266  26.448  10.749
11069W        W82795  43.828   0.222   4.461
11070W        W82796  12.234  15.807  12.068
11071W        W82797  21.934  28.999   5.800
11072W        W82798  11.646  34.495  10.509
11073W        W82799  20.009  18.098  14.917
11074W        W82800  32.246   5.280   2.658
11075W        W82801  20.639  24.839   4.743
11076W        W82802  41.596   2.503  12.089
11077W        W82803  17.087  20.554   1.778
11078W        W82804   9.972   9.587  14.276
11079W        W82805  31.624  18.093  11.785
11080W        W82806   5.018  41.773   4.977
11081W        W82807  27.485  15.566   4.564
11082W        W82808   6.801  19.668   2.917
11083W        W82809  10.794  22.054   2.576
11084W        W82810  14.869   5.115   2.029
11085W        W82811  15.198  22.479  13.911
11086W        W82812  10.811  34.553  12.730
11087W        W82813   9.160  18.506  13.884
11088W        W82814  11.070  18.202  13.885
11089W        W82815  19.024  10.829  14.879
11090W        W82816  37.614  41.578   1.743
11091W        W82817  23.676  27.084  13.004
11092W        W82818  38.929  15.333  14.359
11093W        W82819  43.566  15.122  13.854
11094W        W82820  26.244   8.643  12.052
11095W        W82821  19.093  35.479   3.694
11096W        W82822  35.593   2.521   2.371
11097W        W82823  25.883   6.976   0.041
11098W        W82824  11.612  41.407   3.238
11099W        W82825  17.675   5.462   4.787
11100W        W82826  26.239  36.446  11.652
11101W        W82827  14.883  35.901  12.094
11102W        W82828  41.586  37.794   0.269
11103W        W82829  31.960  10.306  10.491
11104W        W82830  43.798  17.703  13.877
11105W        W82831  37.621  39.574  11.019
11106W        W82832  29.142   0.452   3.260
11107W        W82833  28.612  11.707   2.107
11108W        W82834  13.698   6.382   2.584
11109W        W82835  24.253   8.976   0.247
11110W        W82836  15.600  24.648  14.859
11111W        W82837   8.762  33.455   1.040
11112W        W82838   1.177  44.051   3.740
11113W        W82839   3.330  22.010  11.651
11114W        W82840  10.261  27.585   1.819
11115W        W82841   3.425  20.964   1.330
11116W        W82842   0.658  31.901  11.633
11117W        W82843  33.313  14.038  13.618
11118W        W82844  18.506  27.316  13.422
11119W        W82845  15.712  43.847   1.752
11120W        W82846  12.589  39.088   3.667
11121W        W82847  17.564  40.448  10.975
11122W        W82848  10.215  27.054   3.662
11123W        W82849   7.794  12.159   0.412
11124W        W82850  14.794   6.784   1.203
11125W        W82851  30.149   8.619   3.129
11126W        W82852  15.252  12.339   4.123
11127W        W82853   9.118  44.919   1.860
11128W        W82854  24.990  30.633  12.196
11129W        W82855  17.764  10.948  12.622
11130W        W82856  17.541  22.750   2.886
11131W        W82857  15.250  42.089   1.424
11132W        W82858   7.110  21.942  11.123
11133W        W82859  18.792  13.137   0.877
11134W        W82860  29.702  29.947   4.314
11135W        W82861  20.162  24.300  11.134
11136W        W82862   8.574  12.294   0.806
11137W        W82863  10.660  18.226   4.604
11138W        W82864  37.417  16.145   1.247
11139W        W82865  22.817   3.455  14.430
11140W        W82866  29.826  34.120   1.353
11141W        W82867  29.012   4.229   2.205
11142W        W82868  26.926  31.630  12.146
11143W        W82869   8.390   0.669  11.610
11144W        W82870  44.788   6.352  13.773
11145W        W82871  29.411  40.311  11.481
11146W        W82872  27.080  36.233   2.200
11147W        W82873  10.754  21.168   3.201
11148W        W82874  26.895  27.664  14.120
11149W        W82875   2.766  36.111  12.461
11150W        W82876  17.793  21.169  10.936
11151W        W82877  14.357  43.256  12.077
11152W        W82878  20.050  14.312   5.221
11153W        W82879  11.108   6.163   0.347
11154W        W82880  25.103  32.142   3.734
11155W        W82881  26.623  27.660   5.027
11156W        W82882  19.688  37.573  12.520
11157W        W82883  26.486  31.314   3.834
11158W        W82884  25.584  23.289  13.565
11159W        W82885  26.657  18.210   4.772
11160W        W82886  20.565  19.112   1.308
11161W        W82887   4.218  31.226  12.390
11162W        W82888  37.528  13.883  14.781
11163W        W82889  31.449  14.754   0.989
11164W        W82890  22.370  17.754   3.567
11165W        W82891  31.335  19.039  12.818
11166W        W82892  17.312  17.781  13.141
11167W        W82893  37.579  37.567   4.212
11168W        W82894  28.458  18.211   4.033
11169W        W82895  37.434   3.384  14.533
11170W        W82896  25.719  40.890   0.791
11171W        W82897   1.212  24.875   5.248
11172W        W82898   8.240  12.352  13.144
11173W        W82899  36.073  12.043   1.879
11174W        W82900  17.478   1.387  12.802
11175W        W82901  26.234  21.253   2.762
11176W        W82902  14.113  14.380  12.080
11177W        W82903  16.569  24.528   2.494
11178W        W82904  24.733  17.367  11.093
11179W        W82905  33.445  21.502   0.951
11180W        W82906   8.096  15.337  14.885
11181W        W82907   8.170  33.140   1.168
11182W        W82908   3.303  31.455  11.632
11183W        W82909  26.884  43.065  14.413
11184W        W82910  32.099  11.043  10.670
11185W        W82911  28.586  42.878   2.173
11186W        W82912   2.638   1.428  14.426
11187W        W82913  23.662   6.315  14.952
11188W        W82914  21.640  23.080   4.109
11189W        W82915  25.418  44.700  13.925
11190W        W82916  13.430  44.499  11.632
11191W        W82917  30.861  38.217  13.365
11192W        W82918  30.669  27.880  13.787
11193W        W82919  11.763  32.391  11.389
11194W        W82920  12.408  33.121  12.102
11195W        W82921  36.415  15.520  10.375
11196W        W82922  42.487  35.195  14.760
11197W        W82923  18.953   3.722   4.490
11198W        W82924  25.631   4.453   1.225
11199W        W82925   7.669  29.905   0.019
11200W        W82926  37.035  41.045   1.237
11201W        W82927  13.893  37.989   0.926
11202W        W82928  11.771  10.293  12.547
11203W        W82929  32.975   9.923  14.817
11204W        W82930  25.206  30.432   0.500
11205W        W82931  43.236  12.018  11.622
11206W        W82932  29.185  18.617   3.197
11207W        W82933   6.777  10.492   3.398
11208W        W82934  25.718  41.536  12.611
11209W        W82935   0.832  40.334  10.664
11210W        W82936  10.814   1.471   3.147
11211W        W82937   5.449  30.658   2.696
11212W        W82938   4.538   9.838  12.199
11213W        W82939   7.261  20.699  12.391
11214W        W82940   4.447  31.418   2.269
11215W        W82941   4.242   0.413  11.800
11216W        W82942  38.420  29.081  11.070
11217W        W82943  33.955  26.554  14.570
11218W        W82944  30.086  33.079   3.974
11219W        W82945   2.295   1.194  13.179
11220W        W82946  41.597  18.532  12.523
11221W        W82947  13.145  24.235  14.473
11222W        W82948  43.959  31.612   2.567
11223W        W82949   5.798  16.765  11.061
11224W        W82950   8.617  11.621  10.599
11225W        W82951  21.744  31.146   3.928
11226W        W82952   6.505   5.885   2.325
11227W        W82953  33.729  24.073   0.257
11228W        W82954   9.234  36.871   4.098
11229W        W82955  16.722  27.631   4.652
11230W        W82956  44.243   3.253  13.522
11231W        W82957  36.050   8.778   1.127
11232W        W82958  32.977   1.354  13.650
11233W        W82959  29.027  39.772  12.008
11234W        W82960  41.198  44.836   3.713
11235W        W82961  21.766   6.236  11.556
11236W        W82962  25.541  41.777  14.953
11237W        W82963  19.652  28.002   4.816
11238W        W82964  34.151  34.341  11.856
11239W        W82965  12.432  32.877  13.037
11240W        W82966  30.041  41.782   3.419
11241W        W82967   8.537  16.863  13.262
11242W        W82968  36.721  28.940   1.592
11243W        W82969  31.556  26.635  14.987
11244W        W82970  27.470  42.943  14.405
11245W        W82971  44.862  34.467   2.211
11246W        W82972  20.178  40.074  14.851
11247W        W82973  39.273  19.139  12.860
11248W        W82974   4.891  34.565  14.904
11249W        W82975  21.764  35.640  12.007
11250W        W82976  41.932  11.610   4.537
11251W        W82977  12.649   1.077  13.521
11252W        W82978  31.174  25.930   5.432
11253W        W82979  29.518  29.076   2.446
11254W        W82980  17.270  14.078  12.913
11255W        W82981  27.721   4.936  13.553
11256W        W82982  15.728  33.372   3.181
11257W        W82983   0.413  15.649   3.154
11258W        W82984  22.309  25.007  11.951
11259W        W82985  23.665  24.939   3.708
11260W        W82986   9.793  40.207  12.489
11261W        W82987  27.077  33.104  12.536
11262W        W82988  38.172  11.421   0.365
11263W        W82989   3.770  12.051  14.997
11264W        W82990  27.736   1.694   4.167
11265W        W82991  10.916  31.453   4.164
11266W        W82992  27.032  35.075  14.873
11267W        W82993  32.933  20.596   4.117
11268W        W82994  37.487  32.479   1.952
11269W        W82995   4.909  25.273  14.361
11270W        W82996   8.875  15.409   2.869
11271W        W82997  17.126  40.576  11.621
11272W        W82998  32.637  27.344   4.120
11273W        W82999  29.725  19.669   1.486
11274W        W83000  16.644   4.303   4.430
11275W        W83001   6.589  17.672   1.165
11276W        W83002   2.702  21.318   0.864
11277W        W83003  39.299   8.077  11.722
11278W        W83004   2.013  40.896  14.048
11279W        W83005  32.458   7.860   3.124
11280W        W83006  28.447   1.482   0.565
11281W        W83007  32.929  10.738   3.345
11282W        W83008  10.550  19.989   2.710
11283W        W83009  30.548   5.654  14.936
11284W        W83010  20.572  29.158   9.723
11285W        W83011  30.951  42.061  10.164
11286W        W83012  33.189   1.400   0.528
11287W        W83013  42.647  23.341   0.030
11288W        W83014  38.879   0.001  14.540
11289W        W83015  21.541   0.021  12.608
11290W        W83016  20.238  30.502  11.007
11291W        W83017  40.387  23.232  14.418
11292W        W83018  27.873  26.492  11.028
11293W        W83019   7.280   7.537  13.333
11294W        W83020  12.878   4.668  12.473
11295W        W83021  14.132  28.725   3.460
11296W        W83022  40.466  26.572   0.474
11297W        W83023   6.494   7.595  13.865
11298W        W83024  43.815  24.636   3.132
11299W        W83025  15.525   5.701  12.552
11300W        W83026  28.616   3.944   2.413
11301W        W83027   7.685  40.438  13.970
11302W        W83028  31.021  29.234  11.063
11303W        W83029   8.429  12.810  13.502
11304W        W83030  44.158  28.915  14.892
11305W        W83031   2.654   7.198  13.861
11306W        W83032  24.697  38.863  10.567
11307W        W83033  10.085  26.166  11.377
11308W        W83034  24.930  28.982   3.222
11309W        W83035  24.050  14.166  13.468
11310W        W83036   0.177  39.454  14.970
11311W        W83037   9.535  32.640  14.444
11312W        W83038  17.812   8.693   3.708
11313W        W83039  21.125  18.673   4.616
11314W        W83040  33.575  37.453  14.472
11315W        W83041   6.228  19.609  10.845
11316W        W83042   2.543   3.694  14.397
11317W        W83043  22.718  37.184  12.933
11318W        W83044   6.801   4.876  14.820
11319W        W83045  16.717  32.937  13.386
11320W        W83046  38.749  14.783   1.723
11321W        W83047  16.656   7.384  13.347
11322W        W83048  29.841  40.450  11.257
11323W        W83049  33.876  35.297  11.988
11324W        W83050   4.676  14.775  14.810
11325W        W83051  24.918  42.989   0.323
11326W        W83052  19.803  36.496   1.993
11327W        W83053   7.433  10.796  12.427
11328W        W83054   5.792  42.568  12.833
11329W        W83055  37.265  24.102   0.474
11330W        W83056  20.361   9.174   0.784
11331W        W83057  30.102   9.626  13.039
11332W        W83058  30.608  43.423   0.634
11333W        W83059  18.607  19.484   3.683
11334W        W83060  20.036  36.934   1.803
11335W        W83061   4.298   9.822   3.598
11336W        W83062  40.891  20.258  13.389
11337W        W83063  37.382   2.413  11.944
11338W        W83064   2.539  31.228  11.907
11339W        W83065  31.460  23.124   5.106
11340W        W83066  43.677  15.792  11.092
11341W        W83067  25.667  35.539  13.713
11342W        W83068  19.456   2.179  12.073
11343W        W83069  42.964   7.224  12.158
11344W        W83070  42.867  20.694   1.798
11345W        W83071  18.025  43.433  12.841
11346W        W83072  30.444  25.061  12.502
11347W        W83073  38.665  29.011  11.534
11348W        W83074  28.470  14.093  14.380
11349W        W83075   0.715  41.811  12.428
11350W        W83076  31.506  33.790   2.649
11351W        W83077  18.563   4.429  14.285
11352W        W83078  35.127  37.543   1.267
11353W        W83079  24.322  13.605   4.399
11354W        W83080  27.160  17.696  13.036
11355W        W83081  19.830  21.534   1.301
11356W        W83082  14.212  27.432   4.382
11357W        W83083  29.117  24.198   4.702
11358W        W83084  10.641  13.183  11.384
11359W        W83085  21.000  43.540  14.443
11360W        W83086  29.556  16.537  14.050
11361W        W83087  16.313   8.181   4.186
11362W        W83088  14.290   9.353   1.890
11363W        W83089   8.372   7.298  12.815
11364W        W83090  17.179  25.716  14.934
11365W        W83091  23.800   4.736  13.690
11366W        W83092  31.217  18.243   2.978
11367W        W83093  35.283  14.738   1.872
11368W        W83094  24.122   1.924  13.814
11369W        W83095  17.059   7.110  14.864
11370W        W83096  36.069  23.076  12.867
11371W        W83097  35.593  21.001   1.231
11372W        W83098  41.739  12.824  12.473
11373W        W83099  22.709  21.635  12.897
11374W        W83100  37.956  37.417  10.508
11375W        W83101  17.553   4.999   2.909
11376W        W83102  18.231  19.567   0.304
11377W        W83103  27.641  21.945  13.983
11378W        W83104   7.876  30.941   1.440
11379W        W83105  27.227   7.020   4.280
11380W        W83106   6.108   4.827  14.270
11381W        W83107   8.860  24.961   3.796
11382W        W83108  27.021  16.871   3.739
11383W        W83109  15.185  29.198   3.433
11384W        W83110  25.255  33.486   0.910
11385W        W83111  31.159  42.859   5.112
11386W        W83112   5.894   0.493  11.455
11387W        W83113  36.743   4.271   3.586
11388W        W83114  14.161  30.632   2.280
11389W        W83115   2.999  16.199  12.369
11390W        W83116  40.495  21.020  13.299
11391W        W83117  17.554  44.341   0.068
11392W        W83118  15.913  21.804  13.731
11393W        W83119  42.056  44.427  11.247
11394W        W83120  38.781  39.970   1.759
11395W        W83121   8.433  44.907  13.907
11396W        W83122  25.181  16.996  14.448
11397W        W83123  36.008  11.969  13.447
11398W        W83124  14.739   3.443   1.190
11399W        W83125  17.087  34.225  14.560
11400W        W83126   0.216  15.225  11.942
11401W        W83127  11.352  31.543  10.439
11402W        W83128  18.306  26.171   1.446
11403W        W83129  40.778  37.439  14.953
11404W        W83130  34.489  35.147   4.250
11405W        W83131   7.685   9.671  14.344
11406W        W83132  32.962  34.673   2.897
11407W        W83133   6.288  28.725   1.414
11408W        W83134  10.669  34.424  13.203
11409W        W83135  44.459  14.018   1.939
11410W        W83136  25.442   5.071   0.737
11411W        W83137   8.722  42.336   4.100
11412W        W83138  27.389  12.408  12.588
11413W        W83139  20.080  11.003  12.927
11414W        W83140  20.260   7.060  12.515
11415W        W83141  18.325   2.395  11.088
11416W        W83142   5.314  26.044   1.172
11417W        W83143  33.544  31.550  14.921
11418W        W83144  15.845  41.037  14.500
11419W        W83145  20.271  21.501  12.945
11420W        W83146  30.465   6.815  11.726
11421W        W83147   7.688  19.204   2.705
11422W        W83148  25.988  41.429   2.458
11423W        W83149  23.081  14.987  11.993
11424W        W83150  10.826  40.289  13.351
11425W        W83151  26.423  20.570   1.394
11426W        W83152  43.486  22.828  13.422
11427W        W83153   7.946  19.917  14.246
11428W        W83154  32.797  25.192  11.552
11429W        W83155  38.869  41.962   0.512
11430W        W83156   7.258  35.103   3.418
11431W        W83157  14.689  29.022   3.360
11432W        W83158  12.185  28.677   0.730
11433W        W83159  18.765  44.748  12.396
11434W        W83160  44.767   6.226  11.614
11435W        W83161  31.467  23.034  10.936
11436W        W83162   0.839  28.711  12.318
11437W        W83163  37.784  33.052  14.197
11438W        W83164  44.391  34.893   2.863
11439W        W83165  11.960  31.002  12.921
11440W        W83166   6.750  43.822  14.985
11441W        W83167  31.215  23.156   5.557
11442W        W83168  42.511  13.139  12.898
11443W        W83169  26.836  30.166  11.981
11444W        W83170  30.959  23.024   0.653
11445W        W83171  12.241  12.348  11.040
11446W        W83172  30.417  34.223  14.072
11447W        W83173  11.620  24.318   1.277
11448W        W83174  29.933  22.394  14.748
11449W        W83175  43.073  34.278  10.251
11450W        W83176   8.741  41.209  13.322
11451W        W83177   1.045  19.700  14.877
11452W        W83178   6.788  40.978   3.264
11453W        W83179  34.998   5.721  11.140
11454W        W83180  23.941  29.117  11.714
11455W        W83181  14.239   7.100  10.960
11456W        W83182  20.738  39.053  10.652
11457W        W83183  31.552  30.666   4.705
11458W        W83184  19.073   6.855  12.030
11459W        W83185  26.556  31.777  11.094
11460W        W83186  40.985   6.261   1.810
11461W        W83187  25.155  35.676  13.455
11462W        W83188   5.337   1.454   0.061
11463W        W83189  27.092  34.679   1.973
11464W        W83190   1.948  22.453   1.455
11465W        W83191  14.145  32.624  13.162
11466W        W83192  36.271  44.714   2.227
11467W        W83193   3.327  14.907  12.648
11468W        W83194  19.012  31.306  12.814
11469W        W83195  39.076  36.113  14.497
11470W        W83196   7.431  12.851  13.374
11471W        W83197  21.470   9.393   1.328
11472W        W83198  11.615  17.608   3.208
11473W        W83199  20.761  16.379  13.591
11474W        W83200  36.615  44.384  11.190
11475W        W83201  16.357  16.641  14.538
11476W        W83202  32.838  19.119  14.875
11477W        W83203  40.821  20.244   1.731
11478W        W83204  16.616  20.064   3.384
11479W        W83205  36.103  16.564  10.960
11480W        W83206  28.528  26.076  10.475
11481W        W83207  24.024   1.188   1.484
11482W        W83208  17.658  32.950  14.415
11483W        W83209   6.867   7.321  11.974
11484W        W83210   6.095   1.734   0.986
11485W        W83211  28.672  36.017   1.454
11486W        W83212  11.144   5.640  11.547
11487W        W83213  43.895  41.037  10.410
11488W        W83214   0.550  44.814   1.935
11489W        W83215  15.267  14.727   2.739
11490W        W83216  19.060  14.446  13.845
11491W        W83217   1.756  36.425  12.103
11492W        W83218  22.304   6.305  10.661
11493W        W83219  40.526  17.704  12.934
11494W        W83220  27.991  33.593  12.702
11495W        W83221  22.793  32.468  14.546
11496W        W83222   7.625  15.376   0.140
11497W        W83223  20.242  11.576   4.736
11498W        W83224  17.281  36.426  11.481
11499W        W83225  25.798   7.778  14.208
11500W        W83226  13.064  33.084  12.503
11501W        W83227  27.364  32.677   3.349
11502W        W83228  21.956   5.358  12.461
11503W        W83229  39.562  18.253  13.840
11504W        W83230  18.209  39.313  13.494
11505W        W83231  15.998  34.429   3.194
11506W        W83232   8.557  26.146   2.747
11507W        W83233  34.882  16.810   0.723
11508W        W83234  37.088  14.222  10.759
11509W        W83235   4.656  16.928  14.279
11510W        W83236  39.872  33.588   2.282
11511W        W83237  40.479  15.754  13.032
11512W        W83238  14.514  32.957   3.213
11513W        W83239   6.288  23.002  12.053
11514W        W83240  12.528  14.631   0.882
11515W        W83241  10.261  32.021   0.029
11516W        W83242  37.444  23.296  12.926
11517W        W83243  12.272  40.064   2.158
11518W        W83244  15.785  26.145   0.815
11519W        W83245  39.847  11.100  13.438
11520W        W83246  18.222  38.523  12.503
11521W        W83247  11.252  42.474  14.925
11522W        W83248  29.699  32.389  13.348
11523W        W83249   5.293  12.201  14.463
11524W        W83250  27.634  30.536  13.937
11525W        W83251  26.645  38.143   0.936
11526W        W83252  25.635  27.439  10.596
11527W        W83253  15.160  23.000  13.800
11528W        W83254  17.906  16.122   3.632
11529W        W83255  18.864  42.053   0.209
11530W        W83256  27.829  38.557   4.093
11531W        W83257  20.679  13.830   3.080
11532W        W83258   6.717  26.887  12.066
11533W        W83259  28.161   7.353  14.441
11534W        W83260  41.469  21.084  10.906
11535W        W83261   1.821  38.817   1.804
11536W        W83262  42.522  32.822   3.702
11537W        W83263  39.947  34.119   1.364
11538W        W83264  43.117  29.474  13.571
11539W        W83265  36.611  11.258   2.544
11540W        W83266  11.356   8.807  11.961
11541W        W83267   3.335  11.698  11.280
11542W        W83268   5.740   2.776   1.881
11543W        W83269   7.423  13.315  12.875
11544W        W83270  10.780  17.717   1.332
11545W        W83271  25.750  13.221   3.144
11546W        W83272  24.968  41.332   1.968
11547W        W83273  16.567  13.698  11.605
11548W        W83274  38.509  32.959   1.788
11549W        W83275  23.965  19.757   0.660
11550W        W83276   3.196   2.796   3.817
11551W        W83277  42.978  33.407   2.294
11552W        W83278  32.025  24.432  14.516
11553W        W83279  41.433  25.647   0.657
11554W        W83280   7.947   6.504  12.882
11555W        W83281  31.422  43.760  13.994
11556W        W83282  26.675  14.188   0.172
11557W        W83283  42.962   1.295   1.594
11558W        W83284  43.254  31.301   0.397
11559W        W83285  30.704  17.711  11.042
11560W        W83286  10.123   8.642  14.463
11561W        W83287   4.674  37.361  14.309
11562W        W83288  31.463  23.612   1.760
11563W        W83289   3.784  26.575   4.227
11564W        W83290   0.179  40.764   1.810
11565W        W83291  34.251  40.163   3.696
11566W        W83292  37.819  29.053   3.326
11567W        W83293  13.366  29.147  13.135
11568W        W83294  20.581  13.772  13.473
11569W        W83295   6.684  41.531  10.799
11570W        W83296   8.911  10.207  12.364
11571W        W83297  31.190  25.230   3.319
11572W        W83298  37.072  14.629  11.376
11573W        W83299  36.175  20.152  11.934
11574W        W83300  31.223  35.842  13.531
11575W        W83301  15.389  20.518   2.183
11576W        W83302  40.510  24.629  12.630
11577W        W83303   2.253   7.779  14.513
11578W        W83304  42.708  25.147   2.659
11579W        W83305  11.776  10.917  13.373
11580W        W83306  14.439  12.287   3.886
11581W        W83307  25.580  29.589  10.661
11582W        W83308  28.556  41.789  11.065
11583W        W83309  17.042  24.616  11.482
11584W        W83310  16.519  23.179   2.766
11585W        W83311  14.571  16.079   1.782
11586W        W83312   0.524  11.029   2.285
11587W        W83313  22.770  44.388  11.539
11588W        W83314  34.428   0.933  10.722
11589W        W83315  16.086  28.032   2.354
11590W        W83316  34.134   5.171   1.253
11591W        W83317  17.548  44.888   2.319
11592W        W83318  22.517  43.794  10.717
11593W        W83319  22.110  28.700   4.207
11594W        W83320  32.123  31.712   1.585
11595W        W83321   0.642   0.606  10.491
11596W        W83322  16.251  42.473   1.448
11597W        W83323  24.076  20.045  13.816
11598W        W83324   0.849  34.464  12.133
11599W        W83325  11.427  21.042   0.774
11600W        W83326  25.593  42.496   0.273
11601W        W83327  38.056  25.882   2.153
11602W        W83328   7.535  41.883   4.516
11603W        W83329  27.226   4.155   1.132
11604W        W83330  38.440   1.596  11.249
11605W        W83331  28.088  12.363  14.328
11606W        W83332   1.365  43.056   2.900
11607W        W83333  19.604  20.742  13.628
11608W        W83334  25.135  15.525   1.830
11609W        W83335  35.869   7.809   2.447
11610W        W83336   5.922  39.980   2.366
11611W        W83337  39.438   0.893  10.762
11612W        W83338   5.387  33.779   0.943
11613W        W83339  42.100  34.920  12.676
11614W        W83340  35.088  38.395  14.816
11615W        W83341  44.609  40.436  11.433
11616W        W83342   3.275   5.789   2.923
11617W        W83343  24.063  40.357   3.212
11618W        W83344   5.777  33.388  12.468
11619W        W83345  20.786  19.050   4.550
11620W        W83346  10.877  11.658  13.371
11621W        W83347   8.856  31.335   3.405
11622W        W83348  24.939  31.742   4.273
11623W        W83349  31.180  22.831   1.310
11624W        W83350  27.999  11.404   0.451
11625W        W83351  21.324  28.145   2.698
11626W        W83352  22.394   9.190   2.757
11627W        W83353  25.541  31.723  14.351
11628W        W83354  44.884  37.643  12.073
11629W        W83355   9.832  43.882   0.489
11630W        W83356  39.290   5.811   1.726
11631W        W83357  29.933  28.960  10.794
11632W        W83358  11.621  13.499   3.584
11633W        W83359  23.400  41.030  12.691
11634W        W83360   8.354   8.134   1.196
11635W        W83361  22.087  18.116  13.134
11636W        W83362   4.881  40.268   1.234
11637W        W83363  23.514  41.804  11.695
11638W        W83364  22.743  41.039  11.556
11639W        W83365  18.173  17.764   4.017
11640W        W83366  41.573  23.123  10.399
11641W        W83367  36.455   8.152   3.697
11642W        W83368   4.840   4.046  13.916
11643W        W83369  41.483  40.994  12.093
11644W        W83370  23.465  17.779   0.537
11645W        W83371  33.466  25.570  12.004
11646W        W83372  38.633   8.323   1.791
11647W        W83373  39.243  31.135   3.157
11648W        W83374  39.812  22.953   0.471
11649W        W83375  21.593  23.831   0.018
11650W        W83376  22.659  31.907   3.617
11651W        W83377   1.411  39.158  13.401
11652W        W83378  33.699  37.559   3.624
11653W        W83379  25.623  27.415  13.349
11654W        W83380  31.157  42.375   5.406
11655W        W83381  26.613  11.567  11.132
11656W        W83382  15.637  44.139  14.953
11657W        W83383   8.808  44.811  11.308
11658W        W83384   3.188  17.252  14.552
11659W        W83385   2.205  40.871  13.553
11660W        W83386   6.194  37.672   3.196
11661W        W83387  38.798  32.397  14.474
11662W        W83388  31.597  12.492   4.771
11663W        W83389  27.844  23.824  13.934
11664W        W83390  20.266  40.998  12.389
11665W        W83391  21.068  35.439   3.652
11666W        W83392  13.271   1.368   2.827
11667W        W83393  34.428  19.107  14.762
11668W        W83394  37.598  19.241   0.033
11669W        W83395  42.985  40.898   2.219
11670W        W83396  36.365  35.214  12.192
11671W        W83397  44.993  13.158   2.395
11672W        W83398  29.497  18.494   5.011
11673W        W83399   8.024  20.534   0.893
11674W        W83400  26.486  41.033  10.709
11675W        W83401   4.336  24.467  13.986
11676W        W83402  15.574  36.187  12.886
11677W        W83403  17.139  11.096   2.417
11678W        W83404  31.197   6.961  12.264
11679W        W83405  10.359  21.078  12.986
11680W        W83406  42.878  20.553   4.958
11681W        W83407  26.522  41.356  11.945
11682W        W83408   7.676   9.042   0.407
11683W        W83409  23.738  31.578  14.574
11684W        W83410  21.623  26.953   4.409
11685W        W83411  44.950  15.239   1.881
11686W        W83412  19.763   4.425  12.949
11687W        W83413   6.869  31.210   3.908
11688W        W83414   8.696  41.709  13.147
11689W        W83415  23.709  17.687   1.924
11690W        W83416  19.277  18.167   2.811
11691W        W83417  33.878  24.616   0.320
11692W        W83418  12.392  29.232   4.542
11693W        W83419  20.068  32.973   3.719
11694W        W83420  12.850  10.450  13.892
11695W        W83421  37.093   8.224   2.860
11696W        W83422  33.988  28.512   0.173
11697W        W83423  11.935   7.023   2.269
11698W        W83424  42.477   5.741   3.326
11699W        W83425   1.423   7.462   2.271
11700W        W83426  32.010  37.324  13.796
11701W        W83427   0.392   1.275  11.979
11702W        W83428   8.247  44.554  11.398
11703W        W83429  44.891  16.734   1.474
11704W        W83430  27.266  38.900  10.512
11705W        W83431  34.538   1.287   3.197
11706W        W83432   0.314  15.685   0.882
11707W        W83433   2.283   4.493  14.769
11708W        W83434  13.107  44.871  10.721
11709W        W83435  37.014  30.530   4.486
11710W        W83436  30.917  23.960  12.094
11711W        W83437  11.111  42.524   2.644
11712W        W83438   1.114  13.941   5.125
11713W        W83439  16.478  34.455  13.566
11714W        W83440  20.795  34.618   1.441
11715W        W83441   1.956  34.749   2.216
11716W        W83442  15.984  44.046  11.180
11717W        W83443  23.817  27.187  10.740
11718W        W83444  14.692   3.355   4.129
11719W        W83445  10.686   2.859   4.394
11720W        W83446  31.362  14.790   3.291
11721W        W83447  32.452  29.176   2.389
11722W        W83448  22.575  33.824  13.020
11723W        W83449  22.121  22.326  11.543
11724W        W83450   5.620  16.671   3.013
11725W        W83451  22.569  17.820   1.345
11726W        W83452  42.019  22.743  14.946
11727W        W83453  17.217  33.597  12.583
11728W        W83454  28.181  28.048  13.962
11729W        W83455  13.582  30.521   2.104
11730W        W83456   8.372  25.736   9.958
11731W        W83457  24.389  34.607   1.225
11732W        W83458   0.665  41.393   4.186
11733W        W83459  21.205  35.571  13.367
11734W        W83460   4.721  27.208  13.565
11735W        W83461  30.641  29.984   2.817
11736W        W83462  39.990  12.373  10.861
11737W        W83463  28.867  26.993   1.478
11738W        W83464  33.549  30.767   4.699
11739W        W83465   6.667  42.724  14.974
11740W        W83466   8.975  31.885  14.131
11741W        W83467  18.246  31.300  14.922
11742W        W83468   7.616   0.392   3.254
11743W        W83469   5.048  29.315   3.607
11744W        W83470  21.176  20.068   3.754
11745W        W83471  30.669  28.556  14.771
11746W        W83472  34.834  34.956   2.245
11747W        W83473  20.527  40.828  11.148
11748W        W83474  16.548  35.832   3.277
11749W        W83475  12.569   8.502   0.609
11750W        W83476  33.434  36.482   0.610
11751W        W83477  33.065  13.931   3.275
11752W        W83478  26.857  13.325  13.412
11753W        W83479  30.400  28.906   1.618
11754W        W83480  23.471  34.573  11.185
11755W        W83481  25.013  42.946  14.005
11756W        W83482  29.584   2.571   0.667
11757W        W83483  24.488  35.136  12.120
11758W        W83484   1.533  25.218   0.803
11759W        W83485  22.203  25.841  13.574
11760W        W83486  11.328  44.899   1.220
11761W        W83487  37.873  12.885   3.200
11762W        W83488  36.091   3.494  10.599
11763W        W83489  42.462  12.381  13.474
11764W        W83490  44.750   0.410  10.830
11765W        W83491  32.524  18.243   1.787
11766W        W83492  19.775  29.065  12.429
11767W        W83493  24.247  13.607  14.379
11768W        W83494   8.785  25.245   4.210
11769W        W83495   3.358  35.431  11.223
11770W        W83496  11.955  13.126   0.769
11771W        W83497  44.820  24.097   0.498
11772W        W83498   5.282  31.883   3.299
11773W        W83499  19.664  11.694  10.772
11774W        W83500   0.257   1.711   4.118
11775W        W83501  28.174  21.970   0.780
11776W        W83502  41.584   0.893  12.151
11777W        W83503  18.123  31.037  11.462
11778W        W83504  38.496  12.202  11.059
11779W        W83505   2.141  19.892   4.912
11780W        W83506  24.628  14.678  14.518
11781W        W83507   1.284  13.033  14.396
11782W        W83508  20.877  43.371   3.607
11783W        W83509  21.057  25.692   3.619
11784W        W83510  24.144   3.579   2.394
11785W        W83511  12.254  24.964   2.956
11786W        W83512  17.115  18.630   4.684
11787W        W83513   6.426  19.237   1.509
11788W        W83514  42.912   5.874   4.072
11789W        W83515  28.912  42.083  12.517
11790W        W83516  34.312  38.411   4.134
11791W        W83517   0.659  41.472  14.087
11792W        W83518   5.129  41.453  11.934
11793W        W83519  17.157   8.911  14.806
11794W        W83520  11.086  25.659   2.275
11795W        W83521  38.248  28.988   4.121
11796W        W83522   9.872  29.730  11.898
11797W        W83523  37.245  15.068   3.272
11798W        W83524  19.698  32.279  14.808
11799W        W83525  18.594  37.992  12.391
11800W        W83526  40.540  22.180   4.305
11801W        W83527   3.733   6.140  11.952
11802W        W83528  36.078  41.303   1.254
11803W        W83529  43.877  17.270   0.765
11804W        W83530  25.061  17.028  10.905
11805W        W83531  40.581  22.769  14.455
11806W        W83532  41.445  22.052  12.294
11807W        W83533  10.546   5.076   1.132
11808W        W83534   5.068  19.443   5.131
11809W        W83535  30.907  13.222   2.691
11810W        W83536  35.386  37.446  13.461
11811W        W83537  19.499  27.804   3.528
11812W        W83538  35.894  41.319   4.323
11813W        W83539  32.551  31.356  11.594
11814W        W83540   5.491  19.697  14.010
11815W        W83541   9.802  21.599   2.748
11816W        W83542   2.563  40.264  12.028
11817W        W83543  23.592  36.096   0.637
11818W        W83544   5.649   4.649   5.058
11819W        W83545   8.162  23.973   2.789
11820W        W83546  28.091  41.835  13.503
11821W        W83547   3.336  23.102   0.056
11822W        W83548  13.751  30.869  12.032
11823W        W83549  38.853  16.679   3.670
11824W        W83550  15.135   2.976  14.974
11825W        W83551  24.013   2.948  10.630
11826W        W83552  35.881  37.546  12.819
11827W        W83553  11.583  32.599   3.142
11828W        W83554  22.052  25.133   1.754
11829W        W83555  42.302  27.155  11.568
11830W        W83556  34.055  17.332   4.611
11831W        W83557  21.182  31.845   3.685
11832W        W83558  17.566   7.504  13.831
11833W        W83559   6.184  22.491   0.172
11834W        W83560  33.806  42.177   3.910
11835W        W83561   4.720  15.640   4.084
11836W        W83562  33.721  18.106  12.744
11837W        W83563  21.261  22.684   2.699
11838W        W83564  37.774  41.064  11.922
11839W        W83565  26.618   1.271  11.121
11840W        W83566   1.972  29.074  11.564
11841W        W83567  21.698  14.343   3.783
11842W        W83568  10.204  10.599   3.713
11843W        W83569  37.569  18.788   3.132
11844W        W83570  40.242  41.181   0.952
11845W        W83571   1.350  39.457   1.516
11846W        W83572  36.525  18.600  13.879
11847W        W83573  20.695  31.348  14.254
11848W        W83574  23.870  37.870  12.527
11849W        W83575  37.286  17.281   4.982
11850W        W83576  12.832  31.171   2.405
11851W        W83577  32.330  30.201  10.788
11852W        W83578  11.071  23.867  13.802
11853W        W83579  18.520  44.930   3.791
11854W        W83580  19.280  12.256   3.261
11855W        W83581  25.476  26.105  10.882
11856W        W83582  14.799  28.616   2.742
11857W        W83583  11.255  32.552  11.431
11858W        W83584   4.336  38.814   0.900
11859W        W83585  10.901   1.954   3.303
11860W        W83586  23.428   9.737  10.542
11861W        W83587  15.632  43.803  10.371
11862W        W83588  38.765   1.962  13.932
11863W        W83589  20.080  12.867   1.126
11864W        W83590  29.980   8.162   2.781
11865W        W83591  32.202   0.576   4.107
11866W        W83592  31.534  29.197   0.138
11867W        W83593  30.081  22.788  10.526
11868W        W83594  13.687   0.016  12.868
11869W        W83595  31.319  43.280   3.409
11870W        W83596  44.098  18.496   2.619
11871W        W83597  11.529  12.119   4.600
11872W        W83598  29.571  38.434   4.586
11873W        W83599  41.067  35.442   1.196
11874W        W83600  10.985  30.544   4.654
11875W        W83601  15.187  41.325  13.343
11876W        W83602   4.237  23.850   2.388
11877W        W83603  37.446  23.709  14.381
11878W        W83604  36.882  16.311  10.599
11879W        W83605  26.417  36.595   0.813
11880W        W83606   7.684  13.790  12.000
11881W        W83607   2.905  25.643   4.658
11882W        W83608  22.770  23.166   0.202
11883W        W83609  35.827  19.270   3.784
11884W        W83610   2.909  43.772   4.801
11885W        W83611  31.538  17.170  10.661
11886W        W83612  24.624  32.132  12.958
11887W        W83613   9.100   3.844   0.714
11888W        W83614  28.112  13.217  10.682
11889W        W83615  16.517  16.032   0.467
11890W        W83616  26.876  26.599  11.099
11891W        W83617  38.192  22.061   2.357
11892W        W83618   6.735   5.822  11.648
11893W        W83619  20.043  30.616   0.310
11894W        W83620  29.242   2.842   1.844
11895W        W83621  17.523  37.493   3.424
11896W        W83622  17.218  41.244   2.190
11897W        W83623   0.308  13.347   4.118
11898W        W83624   9.150  29.495  11.622
11899W        W83625   6.309  34.490  10.632
11900W        W83626  12.908  12.672   0.940
11901W        W83627  33.141  42.828   4.047
11902W        W83628  21.998  42.775   2.640
11903W        W83629   6.887  32.644  14.993
11904W        W83630  17.014  25.560   0.438
11905W        W83631  30.572  24.903   4.238
11906W        W83632  16.538  17.475  13.532
11907W        W83633   2.724  23.921   0.968
11908W        W83634   3.391  26.854  13.848
11909W        W83635  21.768   9.367  14.019
11910W        W83636   1.434   5.619   2.083
11911W        W83637  43.777   7.932   4.717
11912W        W83638   8.366   4.264   0.729
11913W        W83639   4.277   2.168   2.430
11914W        W83640  25.417  10.782  11.593
11915W        W83641  17.264   0.532   0.255
11916W        W83642  20.011  30.355  12.895
11917W        W83643  24.941  44.328  11.897
11918W        W83644   7.261  23.811  11.541
11919W        W83645  19.693  27.767   1.167
11920W        W83646  34.985   8.577   4.401
11921W        W83647   5.504  12.748  10.564
11922W        W83648  22.556  16.631  10.999
11923W        W83649  24.226   2.693  13.047
11924W        W83650  29.511  17.558   0.525
11925W        W83651  33.172  16.633   2.089
11926W        W83652  25.098  19.884  10.421
11927W        W83653  39.997  28.692  13.093
11928W        W83654   5.783  23.967   0.860
11929W        W83655  27.068   6.610   2.928
11930W        W83656  39.673   4.157   2.251
11931W        W83657  43.753  43.386  13.561
11932W        W83658  12.969  15.829  12.765
11933W        W83659  43.398   3.724  10.620
11934W        W83660   1.945  18.707   4.720
11935W        W83661  20.105  23.714   3.605
11936W        W83662  40.858  15.176  10.730
11937W        W83663  19.225   9.610   0.862
11938W        W83664  22.300  15.419   2.875
11939W        W83665  37.512  32.509  10.585
11940W        W83666   2.787  14.650  11.518
11941W        W83667  26.472  24.482  11.877
11942W        W83668   4.898  23.935  13.537
11943W        W83669   2.457  18.100  12.706
11944W        W83670  17.056  30.907  11.448
11945W        W83671   1.506   2.862  12.700
11946W        W83672  18.317  26.761   0.556
11947W        W83673  34.581   2.628   3.304
11948W        W83674  32.523  35.066   2.431
11949W        W83675  15.734   9.321  13.090
11950W        W83676  20.271  43.048  12.577
11951W        W83677  38.625   4.449  12.056
11952W        W83678  39.942  40.004  11.439
11953W        W83679   5.859   5.679   3.578
11954W        W83680   0.297  31.256  14.292
11955W        W83681  29.167   7.626   2.744
11956W        W83682   5.622   0.019  12.569
11957W        W83683  35.522  17.992  13.314
11958W        W83684  26.089  39.391   4.489
11959W        W83685  41.746   4.712   4.593
11960W        W83686  29.289  15.785   0.952
11961W        W83687  12.589   8.741   4.912
11962W        W83688  29.974  17.825  14.823
11963W        W83689  30.420  10.404  14.402
11964W        W83690   6.443  26.544   1.034
11965W        W83691  30.730   7.713   2.705
11966W        W83692  22.725  26.450  14.410
11967W        W83693  33.977  14.283  12.971
11968W        W83694  13.466  10.382   2.720
11969W        W83695   3.301  24.406   4.124
11970W        W83696  30.092  35.773  12.045
11971W        W83697  44.919  35.560   2.260
11972W        W83698  21.517  43.093   4.278
11973W        W83699  39.249  27.140  12.363
11974W        W83700  34.937  32.325  13.448
11975W        W83701  27.122  34.900  12.033
11976W        W83702  30.225   6.389   4.574
11977W        W83703   4.805  29.389  11.201
11978W        W83704  17.856  31.930   1.176
11979W        W83705  28.771  20.583  14.648
11980W        W83706  26.386  26.478  11.115
11981W        W83707  30.815   3.443  14.749
11982W        W83708  26.363  26.211  12.225
11983W        W83709  27.595   5.820   4.370
11984W        W83710  12.779  31.575   1.671
11985W        W83711  35.422  20.754  11.186
11986W        W83712  18.841  16.458  12.977
11987W        W83713  14.705   1.402   3.857
11988W        W83714   1.942   4.891   4.792
11989W        W83715  41.908  37.048   3.714
11990W        W83716  38.881  21.012   2.853
11991W        W83717   3.868  36.983   4.834
11992W        W83718   8.721  23.640  14.323
11993W        W83719  41.334  23.007  11.331
11994W        W83720  25.544  37.332  12.001
11995W        W83721  36.964  13.217  10.691
11996W        W83722  27.180  39.343  11.495
11997W        W83723   5.799  38.662  10.927
11998W        W83724   2.352  14.096  10.672
11999W        W83725  43.607   2.620   3.154
12000W        W83726  23.069  27.748  13.096
12001W        W83727  29.176  24.201   2.316
12002W        W83728  42.220   3.489  13.112
12003W        W83729  44.168  34.056   0.750
12004W        W83730  18.506   3.225  14.437
12005W        W83731  32.175  12.887   1.143
12006W        W83732   2.986  38.372   2.961
12007W        W83733   2.570  41.222  13.424
12008W        W83734  19.619   3.385   0.546
12009W        W83735  18.006   1.751   2.692
12010W        W83736  30.919   1.349   1.743
12011W        W83737  21.596  12.839  14.281
12012W        W83738  31.339  24.423   1.640
12013W        W83739  13.502  34.005   2.247
12014W        W83740  43.516  20.699   3.600
12015W        W83741  41.919  31.788  10.689
12016W        W83742   5.087   7.874   3.616
12017W        W83743  34.079  43.932   2.260
12018W        W83744  42.222   7.571  10.700
12019W        W83745  16.266  10.664   0.981
12020W        W83746  20.233   0.943   2.747
12021W        W83747  18.733  12.061   4.412
12022W        W83748  25.427  16.405   2.214
12023W        W83749  25.964  34.699   3.865
12024W        W83750  22.529  44.871  13.446
12025W        W83751  40.115   0.967   1.818
12026W        W83752   8.645  12.036  12.452
12027W        W83753  29.423  18.973   1.211
12028W        W83754  34.425   7.657   0.849
12029W        W83755  19.193  23.955   4.324
12030W        W83756  38.039  29.644  10.747
12031W        W83757   9.166  32.387   0.847
12032W        W83758  29.619   6.911   1.451
12033W        W83759   1.233  39.579   0.369
12034W        W83760  20.288   6.321  12.908
12035W        W83761  30.167   0.277   3.256
12036W        W83762  40.789   1.925  13.027
12037W        W83763  29.700   8.930  13.406
12038W        W83764  16.190   7.258  14.023
12039W        W83765  21.689   8.662   0.712
12040W        W83766  22.215  43.841   2.609
12041W        W83767  43.386   1.005   1.699
12042W        W83768  25.427  22.663   4.561
12043W        W83769  10.956  42.560   0.378
12044W        W83770  15.841  23.226   0.905
12045W        W83771  31.220   5.643   3.901
12046W        W83772  31.004  18.443  10.655
12047W        W83773   1.669  33.123  11.885
12048W        W83774  18.146  39.882  10.650
12049W        W83775   8.705  34.439  12.560
12050W        W83776  37.427  32.895   0.146
12051W        W83777   7.189  12.379   3.855
12052W        W83778  11.601   5.840   1.418
12053W        W83779   3.928  43.085  12.964
12054W        W83780  31.659  14.648   1.462
12055W        W83781  14.261  23.468  13.054
12056W        W83782  32.910  13.872  14.480
12057W        W83783  25.977  15.612  10.067
12058W        W83784  33.582   1.498   0.132
12059W        W83785  26.685  42.504   2.928
12060W        W83786  14.193  29.513   0.456
12061W        W83787  27.649   2.281   3.341
12062W        W83788  22.994  23.534   0.470
12063W        W83789   7.628  36.363  12.927
12064W        W83790  39.321   5.429   4.886
12065W        W83791   2.773   0.783   2.525
12066W        W83792  22.365  12.601  10.849
12067W        W83793  43.199  33.969   3.719
12068W        W83794  42.923  31.070  13.730
12069W        W83795  27.449   8.606   1.324
12070W        W83796  31.676  10.669  12.220
12071W        W83797  20.153  44.750   4.567
12072W        W83798  24.134  19.127   3.543
12073W        W83799  33.816  11.399   0.339
12074W        W83800   0.519  11.228  12.918
12075W        W83801  16.776  39.375  13.508
12076W        W83802  33.537  10.674  11.604
12077W        W83803  20.785   0.343   0.331
12078W        W83804  16.836  14.706   1.803
12079W        W83805  42.208  23.723   0.939
12080W        W83806  22.156  18.576  12.897
12081W        W83807  26.284   5.692  11.355
12082W        W83808  27.712  28.762   0.980
12083W        W83809   8.255  36.535   3.425
12084W        W83810  42.302  44.378   5.007
12085W        W83811  21.724  21.603  10.977
12086W        W83812   7.231  23.793   3.237
12087W        W83813  25.548  37.115   3.749
12088W        W83814   0.616  44.800   0.173
12089W        W83815  14.644  20.772   2.773
12090W        W83816  28.520  26.323   3.849
12091W        W83817  37.949  39.792  10.699
12092W        W83818  40.768   1.012  13.777
12093W        W83819  28.116   3.408   0.458
12094W        W83820  31.580  21.208   2.813
12095W        W83821  35.551  21.977   2.332
12096W        W83822  34.124   0.509  14.785
12097W        W83823  11.376  13.318   1.966
12098W        W83824  33.607  41.982  10.809
12099W        W83825  38.048  40.268   1.439
12100W        W83826  26.095  13.952   3.201
12101W        W83827  31.681  13.072   1.321
12102W        W83828  24.789  29.951   1.674
12103W        W83829  15.270  42.463  14.453
12104W        W83830  15.939  39.771  10.143
12105W        W83831   7.150  27.722  11.174
12106W        W83832  40.828  18.990  12.937
12107W        W83833  19.171  24.225  12.098
12108W        W83834  28.654  32.428   2.355
12109W        W83835  18.227  22.878  14.428
12110W        W83836  16.075  30.682   0.716
12111W        W83837   4.717  27.129  12.376
12112W        W83838  24.564  23.200   3.287
12113W        W83839  32.346  22.124   4.507
12114W        W83840  20.074   2.180   0.461
12115W        W83841  29.512  19.683  13.617
12116W        W83842  17.712  23.827  12.005
12117W        W83843  22.518  31.952   2.317
12118W        W83844   5.566  17.647   1.294
12119W        W83845  18.418  16.232  14.974
12120W        W83846  30.990   6.802  10.446
12121W        W83847   8.644  38.368  13.759
12122W        W83848  26.627  44.738   3.348
12123W        W83849  33.381   1.500  11.831
12124W        W83850  42.534  35.569   0.667
12125W        W83851   8.214   4.339   2.328
12126W        W83852  27.147  11.421  11.260
12127W        W83853   5.081   0.019  11.608
12128W        W83854  44.252  44.903   2.805
12129W        W83855  30.979  30.391   1.209
12130W        W83856  35.106  40.473  10.744
12131W        W83857   4.713  43.059   4.547
12132W        W83858  18.844   1.798   3.653
12133W        W83859  25.574  22.205   4.355
12134W        W83860  41.375  24.436  11.619
12135W        W83861  38.393  26.066  13.430
12136W        W83862  28.365  38.414   1.467
12137W        W83863  16.519  36.835  11.717
12138W        W83864   1.708  17.087  14.546
12139W        W83865  29.513  30.171  12.399
12140W        W83866  19.453   9.035   0.329
12141W        W83867  44.922  14.742   1.707
12142W        W83868   7.270  35.646   4.792
12143W        W83869  27.151  43.271  13.531
12144W        W83870  14.080  14.737   0.677
12145W        W83871   9.419  35.564   1.489
12146W        W83872   1.878  37.282  12.819
12147W        W83873  16.092  41.985   1.546
12148W        W83874  28.210   7.502   1.147
12149W        W83875   1.894  24.970  11.648
12150W        W83876  20.356  25.586   0.894
12151W        W83877  44.181  28.007  11.599
12152W        W83878  22.334   0.177  10.821
12153W        W83879   8.686  16.626   4.289
12154W        W83880  16.118  22.307  14.922
12155W        W83881  22.677  23.067  10.504
12156W        W83882  10.695  16.780   1.858
12157W        W83883  42.102  42.346  14.472
12158W        W83884   4.350  26.457  13.552
12159W        W83885  31.664  22.112  11.308
12160W        W83886  31.502   1.877  10.762
12161W        W83887  25.606  29.190  14.204
12162W        W83888  12.317  36.852   2.169
12163W        W83889  22.939  37.659  12.582
12164W        W83890  39.004  16.332  12.174
12165W        W83891  44.302  30.365   3.683
12166W        W83892  21.031  33.535  14.580
12167W        W83893  24.466   6.640   2.335
12168W        W83894  22.197   5.077  12.833
12169W        W83895  11.150  35.495  12.794
12170W        W83896  43.984  17.708  11.174
12171W        W83897  15.301  14.746   3.242
12172W        W83898  43.886  18.368   2.181
12173W        W83899  31.218  20.041  14.336
12174W        W83900   5.875  33.566   0.917
12175W        W83901  43.716  25.186   3.625
12176W        W83902   8.184   1.713   3.761
12177W        W83903  32.632  23.095  14.285
12178W        W83904  25.393   9.654   0.734
12179W        W83905  22.026  29.426   4.527
12180W        W83906  25.703   5.369  14.329
12181W        W83907   6.598  12.581  11.089
12182W        W83908  23.273  10.786   3.369
12183W        W83909  19.255  40.575  11.162
12184W        W83910  15.796  20.931  10.410
12185W        W83911  26.968  23.269  11.105
12186W        W83912   6.649  30.912  12.825
12187W        W83913  36.208  31.054  11.928
12188W        W83914  12.569  24.629  13.869
12189W        W83915  36.376  41.570   2.758
12190W        W83916   4.541  21.071   1.381
12191W        W83917  20.533   3.827  10.652
12192W        W83918  42.230  22.548   0.450
12193W        W83919  35.641  15.315   2.791
12194W        W83920  37.404   6.410   3.868
12195W        W83921  39.265   7.225  12.146
12196W        W83922   8.580  38.462  10.648
12197W        W83923  33.836  10.970  13.834
12198W        W83924   1.038  14.612   1.975
12199W        W83925  28.906   9.107  12.002
12200W        W83926  31.999  34.918  10.947
12201W        W83927  41.419  34.218   4.430
12202W        W83928  23.115   7.887  13.478
12203W        W83929  19.263  19.678  14.228
12204W        W83930  39.708  41.755  11.933
12205W        W83931  39.494  27.876  11.758
12206W        W83932  20.846  42.227  12.079
12207W        W83933  12.781  37.174   0.659
12208W        W83934  19.753  22.195  13.451
12209W        W83935   1.973   3.188  13.910
12210W        W83936  44.856   2.722  14.964
12211W        W83937  30.967  26.222   4.204
12212W        W83938  28.571  36.845   4.555
12213W        W83939  23.681  23.057  14.985
12214W        W83940  24.703  13.212  14.843
12215W        W83941  32.898  10.278  13.316
12216W        W83942  42.500  36.584  11.667
12217W        W83943   3.759   9.839   2.224
12218W        W83944  20.561  11.091  13.919
12219W        W83945  17.328  38.653   2.484
12220W        W83946  37.373  17.274   2.207
12221W        W83947  10.140  27.228   2.181
12222W        W83948  23.002  42.751  10.716
12223W        W83949  18.689  17.025  11.098
12224W        W83950   5.644  32.662   2.970
12225W        W83951  23.767   1.723  11.205
12226W        W83952  40.863  38.361   0.464
12227W        W83953  25.210  15.667   4.166
12228W        W83954  13.121   9.569   2.735
12229W        W83955   2.690   3.474   4.607
12230W        W83956  29.931   7.357  14.261
12231W        W83957   8.899  41.730   2.265
12232W        W83958  43.542  30.247  14.759
12233W        W83959  44.045  28.508  13.465
12234W        W83960  17.559  36.195   1.318
12235W        W83961  35.345  41.870  14.372
12236W        W83962  12.194   1.298   2.349
12237W        W83963  41.011  33.889   4.252
12238W        W83964  15.601   5.883  11.666
12239W        W83965  28.348   5.973   2.618
12240W        W83966   9.810  35.920   1.659
12241W        W83967  40.543   3.550   4.044
12242W        W83968  20.764  24.260   0.465
12243W        W83969  44.586   3.383   3.685
12244W        W83970  24.640  32.641  12.057
12245W        W83971   0.735  30.532   4.742
12246W        W83972   3.235  26.070   4.637
12247W        W83973  20.846  13.932   4.276
12248W        W83974  39.019  35.031   1.972
12249W        W83975   9.432  37.384   1.840
12250W        W83976  17.288  30.880   1.215
12251W        W83977  41.043   5.183   3.629
12252W        W83978  28.533  26.998   4.062
12253W        W83979  26.184  42.558   4.494
12254W        W83980   7.227  33.349   3.875
12255W        W83981   0.682  22.794  14.878
12256W        W83982   4.793  15.876  12.913
12257W        W83983   6.928  18.918   4.554
12258W        W83984  13.717   1.296  10.642
12259W        W83985  35.929  44.699   3.745
12260W        W83986  37.069   7.872  11.169
12261W        W83987  26.186  38.791  14.523
12262W        W83988  39.644   6.703  13.446
12263W        W83989  14.090  26.955  14.701
12264W        W83990  41.317  39.160   1.676
12265W        W83991  33.467  19.185   3.587
12266W        W83992  20.793  35.220  13.351
12267W        W83993  14.089  43.437  13.465
12268W        W83994  17.522  31.034  10.874
12269W        W83995  18.686  33.656   3.116
12270W        W83996  33.658  35.399   1.807
12271W        W83997  15.823  21.585   1.480
12272W        W83998  42.823  13.188  13.290
12273W        W83999  32.124  33.216  11.691
12274W        W84000  17.739   2.780   4.552
12275W        W84001  40.852  16.452   4.566
12276W        W84002  24.713  17.781  13.919
12277W        W84003  13.778  39.472   0.200
12278W        W84004   8.611   2.955  11.517
12279W        W84005  32.550  15.819  11.034
12280W        W84006  22.455  23.466  13.943
12281W        W84007  41.181  29.929   4.890
12282W        W84008  23.770   4.843   4.238
12283W        W84009  22.504  29.487  14.228
12284W        W84010  13.481  17.785  14.758
12285W        W84011   9.378  42.349  13.203
12286W        W84012  35.307  28.025   2.230
12287W        W84013   0.771   5.750  12.108
12288W        W84014  28.003  14.099   4.127
12289W        W84015   3.810   7.256   4.998
12290W        W84016  21.627  42.393   4.734
12291W        W84017  37.380  24.402   0.020
12292W        W84018  28.906  12.613   4.216
12293W        W84019  24.053  11.555  12.058
12294W        W84020  28.981  21.980  10.559
12295W        W84021   7.912   3.285   1.694
12296W        W84022   7.291  25.759   0.633
12297W        W84023  33.621  23.285   3.287
12298W        W84024  19.908   6.436  10.354
12299W        W84025   4.127   3.507  12.967
12300W        W84026  11.173  10.399   1.701
12301W        W84027   2.198   8.386   4.279
12302W        W84028  25.991  38.952  13.309
12303W        W84029  27.589  43.905  11.476
12304W        W84030  16.706  27.204  11.146
12305W        W84031   1.349   1.736   2.055
12306W        W84032  43.361  18.135   0.927
12307W        W84033  17.007  21.491   0.270
12308W        W84034  41.813  42.475  14.068
12309W        W84035  18.838  20.387  13.030
12310W        W84036  28.158  41.019  10.283
12311W        W84037   3.616  36.387   0.677
12312W        W84038  11.162  16.559   4.507
12313W        W84039  27.468  33.521   1.883
12314W        W84040  29.262  33.419  14.256
12315W        W84041  44.763  17.210   0.610
12316W        W84042  24.980  27.570   3.232
12317W        W84043  43.282  31.573   0.871
12318W        W84044  34.328  19.778  12.116
12319W        W84045  17.973  28.488  12.965
12320W        W84046  23.126  15.316   1.846
12321W        W84047  31.524  44.839   1.844
12322W        W84048  28.239  44.906  11.171
12323W        W84049  37.806  18.715  13.414
12324W        W84050  32.687  21.178   4.844
12325W        W84051   1.815   3.382  14.920
12326W        W84052  21.323   6.053   4.170
12327W        W84053   7.834  29.038   3.360
12328W        W84054   5.902  24.632   4.796
12329W        W84055  27.614  24.503   1.196
12330W        W84056   3.397  13.698   0.411
12331W        W84057  38.522   9.487   1.285
12332W        W84058  38.561  17.608  11.130
12333W        W84059  10.933   9.135  10.707
12334W        W84060  19.238  11.253   0.101
12335W        W84061   4.899  14.062   1.222
12336W        W84062  19.181  17.089   4.308
12337W        W84063  35.498  37.232   1.342
12338W        W84064  22.565  42.538   2.109
12339W        W84065  17.266  28.976   2.392
12340W        W84066  44.351  27.027   3.408
12341W        W84067  14.696  20.271   1.693
12342W        W84068   5.387  41.559   1.340
12343W        W84069  20.812   1.903  11.227
12344W        W84070  25.659  37.094  14.519
12345W        W84071   3.109  17.350  10.769
12346W        W84072  30.551   2.966   5.017
12347W        W84073  23.513  14.812   3.239
12348W        W84074  31.965  23.047  13.485
12349W        W84075  30.996  27.876  12.311
12350W        W84076  42.643   8.809   2.252
12351W        W84077  29.510  14.781   3.247
12352W        W84078  29.867  27.151  10.667
12353W        W84079  40.243  34.436  14.046
12354W        W84080   0.388  16.193  14.878
12355W        W84081  41.269  14.845  10.812
12356W        W84082  23.404  26.169   3.137
12357W        W84083  14.396  38.507  11.999
12358W        W84084  27.749   0.495   4.662
12359W        W84085  32.337   6.286  13.077
12360W        W84086  12.620   9.208  13.397
12361W        W84087   7.541  19.340  10.807
12362W        W84088  23.397  44.743   3.591
12363W        W84089  12.042   9.693   1.944
12364W        W84090  22.292  11.627   3.700
12365W        W84091   7.271  13.906   9.981
12366W        W84092  26.518   4.473   3.049
12367W        W84093  34.553   3.951   1.298
12368W        W84094  44.254   1.346   2.628
12369W        W84095   0.920  24.557  11.605
12370W        W84096  40.218  44.317  12.339
12371W        W84097  39.080   1.839  11.030
12372W        W84098  13.301   8.417  14.015
12373W        W84099  40.946  41.864   3.188
12374W        W84100  20.912  36.701   3.427
12375W        W84101  13.087  26.516   2.687
12376W        W84102  29.092  30.579   4.195
12377W        W84103  14.606  32.583  14.419
12378W        W84104   4.135   5.990   2.741
12379W        W84105   9.726  25.133  12.787
12380W        W84106  17.326   4.864   2.415
12381W        W84107  36.743  14.597  10.761
12382W        W84108   5.645  21.999  14.435
12383W        W84109   6.699  39.065   4.669
12384W        W84110   7.812  22.762   3.614
12385W        W84111  16.637  32.388   2.227
12386W        W84112   8.842  27.515   1.548
12387W        W84113  14.223  23.183  10.736
12388W        W84114  40.409   7.186   2.437
12389W        W84115   3.639   4.277   0.426
12390W        W84116  36.232  35.429   4.679
12391W        W84117  20.763  26.973  13.801
12392W        W84118  42.157  11.506  13.031
12393W        W84119  28.102  27.991  10.510
12394W        W84120   9.109  22.344   5.107
12395W        W84121  43.446  23.987  14.275
12396W        W84122  24.044  34.931  11.227
12397W        W84123  33.190  35.586  11.215
12398W        W84124   0.839  26.204  14.084
12399W        W84125  19.966  32.728  14.258
12400W        W84126  38.834  27.196   0.868
12401W        W84127   8.378  26.530  12.870
12402W        W84128  25.668  31.215  10.720
12403W        W84129  38.388  40.898   4.776
12404W        W84130   3.645  16.280  12.170
12405W        W84131  17.556  37.490  14.964
12406W        W84132   4.864  29.518   0.383
12407W        W84133  41.769   2.835   4.685
12408W        W84134  27.540  39.367   1.834
12409W        W84135  20.847  43.794  13.003
12410W        W84136  41.886  23.527   1.950
12411W        W84137  15.722  27.094  11.227
12412W        W84138  11.170  17.493   0.327
12413W        W84139  14.133  14.863   4.458
12414W        W84140  11.659  11.673  12.948
12415W        W84141   5.912   0.442   1.455
12416W        W84142  21.768  32.441  14.465
12417W        W84143   1.016  18.456  13.946
12418W        W84144  22.450   9.289   1.754
12419W        W84145  30.848   7.788  12.888
12420W        W84146  19.286  14.528   4.284
12421W        W84147  40.903  19.882   4.283
12422W        W84148   2.482   5.836   0.163
12423W        W84149  43.075  27.019  13.355
12424W        W84150  15.350  37.821  14.254
12425W        W84151   1.271  22.219  11.618
12426W        W84152  19.954  25.267   0.284
12427W        W84153  42.852  40.825  12.737
12428W        W84154  17.167   9.403  14.950
12429W        W84155  28.531   3.454   4.298
12430W        W84156  35.953  35.825  14.414
12431W        W84157  19.087  20.242   4.719
12432W        W84158  19.121  43.504   0.370
12433W        W84159   3.076  20.275   1.816
12434W        W84160   3.763  21.059  11.088
12435W        W84161  29.978  27.893  14.414
12436W        W84162  11.677   8.470   0.444
12437W        W84163   4.529   0.138  10.608
12438W        W84164  20.043  25.898  11.987
12439W        W84165  27.556  23.118   3.564
12440W        W84166   7.486  36.788  10.604
12441W        W84167  13.902  44.836  14.300
12442W        W84168  14.265  17.595   3.227
12443W        W84169  15.724  28.620  12.113
12444W        W84170  32.440   0.453   1.419
12445W        W84171  34.963   4.265   2.664
12446W        W84172  42.999   6.793  11.416
12447W        W84173  12.147  29.591  12.348
12448W        W84174  32.056  30.177  12.072
12449W        W84175  34.789  36.013  11.420
12450W        W84176  21.732  20.794  14.470
12451W        W84177  29.498   6.408   1.384
12452W        W84178  26.519   8.275   4.588
12453W        W84179  44.693   2.097   3.449
12454W        W84180  22.646  42.388   2.606
12455W        W84181  29.217  10.657  13.918
12456W        W84182   5.067  34.977  12.882
12457W        W84183  25.488  27.174  11.842
12458W        W84184  35.017  22.118  10.545
12459W        W84185  36.880  16.222   4.305
12460W        W84186   6.161  36.297  10.631
12461W        W84187  19.800   5.311   3.692
12462W        W84188   8.246   4.517  12.014
12463W        W84189   4.378  30.931   2.447
12464W        W84190  41.751  12.727   2.641
12465W        W84191   3.666   0.849   2.691
12466W        W84192   0.974  23.721   1.049
12467W        W84193  15.078  20.846  14.951
12468W        W84194  33.956  21.070  10.829
12469W        W84195   1.442  19.045  14.230
12470W        W84196  37.848  39.417  11.453
12471W        W84197  42.963  20.984   0.040
12472W        W84198  12.861  37.058  14.024
12473W        W84199  15.102  42.597  11.959
12474W        W84200  13.747  27.593   4.536
12475W        W84201  17.359  35.921   4.138
12476W        W84202  43.425  37.005   2.438
12477W        W84203  38.557  32.960   1.279
12478W        W84204  42.940  13.347  11.538
12479W        W84205  35.346  24.990  11.130
12480W        W84206  29.596  14.927  11.072
12481W        W84207  24.426  20.981  11.953
12482W        W84208   3.997  36.610   3.251
12483W        W84209   1.677  33.219  14.972
12484W        W84210   7.928  29.052  14.352
12485W        W84211  21.668  33.269  13.486
12486W        W84212  27.026   3.385  13.346
12487W        W84213  26.678  17.928  10.493
12488W        W84214  15.386  19.067  12.453
12489W        W84215  27.039   2.922   4.424
12490W        W84216  10.730  42.075   3.769
12491W        W84217  37.928  35.975  13.043
12492W        W84218  23.585  20.101   0.269
12493W        W84219  43.550  43.735   2.922
12494W        W84220  35.999  25.432  12.807
12495W        W84221  31.001  27.472   1.447
12496W        W84222   3.654  41.985   3.669
12497W        W84223  18.534   9.860  10.429
12498W        W84224  13.399  28.985   3.716
12499W        W84225  41.033  25.454   3.855
12500W        W84226  26.489  41.491   2.926
12501W        W84227  26.105  37.314  11.631
12502W        W84228  33.451  13.216   1.414
12503W        W84229  27.465  43.359  10.342
12504W        W84230  26.697  42.541  12.875
12505W        W84231  31.042  22.528   4.566
12506W        W84232  36.123   6.836   3.696
12507W        W84233  41.645  31.483  12.254
12508W        W84234  23.617  26.519   1.676
12509W        W84235  19.539   2.159   4.082
12510W        W84236   6.303  12.326  12.011
12511W        W84237  28.505  19.352  11.384
12512W        W84238  21.288  13.279  10.277
12513W        W84239   0.815   4.821  14.064
12514W        W84240  20.055  22.493  11.006
12515W        W84241  16.318   1.264  13.449
12516W        W84242  23.983  27.217  12.593
12517W        W84243  18.992  44.723   3.698
12518W        W84244  10.812   2.312   4.763
12519W        W84245  19.583  38.039  12.288
12520W        W84246   2.306  35.112  12.595
12521W        W84247  18.696  44.435  13.960
12522W        W84248  29.932  40.743   3.100
12523W        W84249  35.561   2.825   0.735
12524W        W84250  40.526   2.814  13.471
12525W        W84251  29.083  38.012  11.626
12526W        W84252  35.214   3.885  10.718
12527W        W84253  41.537  32.366  13.070
12528W        W84254   2.328  36.151   4.333
12529W        W84255  23.335  17.153  11.827
12530W        W84256  20.014  15.113  11.644
12531W        W84257   0.493  29.037  11.389
12532W        W84258   8.722  42.107   1.670
12533W        W84259  25.799  39.476  14.467
12534W        W84260  24.036  27.442  12.123
12535W        W84261  18.042  25.993  11.232
12536W        W84262  41.728   3.992  14.057
12537W        W84263   3.470  34.522   2.357
12538W        W84264   4.970  12.610   3.224
12539W        W84265  19.699  43.422  12.130
12540W        W84266  31.639  34.089   4.533
12541W        W84267   0.695  16.536  13.486
12542W        W84268  40.941  40.962  13.688
12543W        W84269  41.871  10.073   3.110
12544W        W84270  37.462  14.261   0.622
12545W        W84271  37.826  10.394  12.705
12546W        W84272  43.230  13.719  12.907
12547W        W84273  37.174  17.839   1.609
12548W        W84274   9.263  37.367  13.088
12549W        W84275   2.709  11.370  10.640
12550W        W84276  35.983  44.350   4.730
12551W        W84277  22.092  42.089   3.576
12552W        W84278   9.286   5.869  14.379
12553W        W84279   8.750   5.851  14.472
12554W        W84280  17.782  43.531  12.411
12555W        W84281   2.827  30.102   3.185
12556W        W84282  28.474  12.911   4.216
12557W        W84283  17.803  29.386   1.577
12558W        W84284  15.588  43.157  12.106
12559W        W84285  23.227  17.382  14.325
12560W        W84286  11.787  25.261   4.920
12561W        W84287  40.446   8.180  12.801
12562W        W84288  39.600  19.653   4.597
12563W        W84289  22.748  27.030  11.653
12564W        W84290  15.245   8.128  11.092
12565W        W84291   7.833  35.450   0.253
12566W        W84292   5.971   9.258  14.921
12567W        W84293  34.281   3.635   2.780
12568W        W84294  29.020  21.726  11.523
12569W        W84295  38.165  15.685  12.913
12570W        W84296  16.263  20.732  13.747
12571W        W84297  42.826  29.066   2.116
12572W        W84298  20.967   0.149   4.095
12573W        W84299  19.767  18.698   3.070
12574W        W84300   8.411  34.696   9.856
12575W        W84301  13.597  42.282   4.018
12576W        W84302  43.355   4.359  11.267
12577W        W84303  41.117  19.395   2.342
12578W        W84304  14.651  31.612   2.863
12579W        W84305  26.122  14.282   2.797
12580W        W84306  20.009  13.160   2.892
12581W        W84307   1.590  13.962   0.431
12582W        W84308  39.301  36.456   0.804
12583W        W84309  29.021  23.350   3.708
12584W        W84310  10.775  28.007   2.260
12585W        W84311  31.671  17.196  14.599
12586W        W84312  28.699  42.823  13.918
12587W        W84313  14.570  17.045  13.773
12588W        W84314  42.900  19.465  13.886
12589W        W84315  42.866  44.754  14.872
12590W        W84316  44.783   9.112   3.753
12591W        W84317  11.217  23.663   4.005
12592W        W84318   5.701   3.344   4.186
12593W        W84319  36.508   6.363  11.684
12594W        W84320   0.817  30.066   0.865
12595W        W84321   8.370  24.198  14.809
12596W        W84322  39.582  22.950  14.483
12597W        W84323  24.941  35.989  10.667
12598W        W84324  12.634   8.205   1.049
12599W        W84325  34.607  41.414   2.224
12600W        W84326  24.316   6.783   4.868
12601W        W84327   3.432  31.993  14.081
12602W        W84328  21.494  25.028   1.175
12603W        W84329   8.340   2.161   4.599
12604W        W84330  17.051  30.039  11.968
12605W        W84331   1.938  22.335  14.406
12606W        W84332  24.886   9.148   3.641
12607W        W84333  12.545  43.182  12.479
12608W        W84334   8.196  19.776   1.390
12609W        W84335  34.107   1.795   0.020
12610W        W84336  19.536  10.991  13.883
12611W        W84337  21.222  24.608   2.831
12612W        W84338  22.728  33.456   4.826
12613W        W84339   7.488  43.657  13.460
12614W        W84340  43.383   4.941   2.298
12615W        W84341  42.794  35.215  12.132
12616W        W84342  39.542  28.882  11.553
12617W        W84343  27.913  27.954   0.769
12618W        W84344  11.409  24.298  12.979
12619W        W84345  24.023  24.526  10.707
12620W        W84346   7.594   3.363   1.253
12621W        W84347  35.326  36.906  11.657
12622W        W84348  31.569  24.258  11.083
12623W        W84349  14.993  34.892   2.543
12624W        W84350  26.684  15.920   2.972
12625W        W84351   4.382  28.524   4.107
12626W        W84352  20.728  29.025  12.847
12627W        W84353  24.696  31.852   2.516
12628W        W84354  15.356  29.818  12.563
12629W        W84355  30.902  14.648   0.960
12630W        W84356  38.665  25.973   3.266
12631W        W84357   8.240  17.621  13.472
12632W        W84358  12.676  41.518  10.503
12633W        W84359   2.717  21.812  14.285
12634W        W84360  34.459  36.453   2.240
12635W        W84361  19.315  38.277   2.784
12636W        W84362  13.290  10.603  11.891
12637W        W84363  42.712   4.728  11.213
12638W        W84364  40.368  11.105  11.638
12639W        W84365  18.448  12.286   4.033
12640W        W84366  42.932   8.269  10.405
12641W        W84367  32.368  26.027   1.136
12642W        W84368  31.878  40.823   3.213
12643W        W84369  24.957  25.065  13.526
12644W        W84370   4.777  26.301  13.874
12645W        W84371  40.880  31.674   1.410
12646W        W84372  24.046  39.292   4.301
12647W        W84373  33.848   0.272  10.833
12648W        W84374  37.835  13.671   2.188
12649W        W84375  15.040  36.576   0.871
12650W        W84376  21.828  21.501  12.357
12651W        W84377  27.274  44.485   1.525
12652W        W84378  26.084   7.347   0.890
12653W        W84379  17.569  13.599  10.708
12654W        W84380  30.187  28.557   0.044
12655W        W84381  24.038  23.993  12.028
12656W        W84382  19.581  33.082   0.459
12657W        W84383  29.199   4.295  13.948
12658W        W84384  27.917  12.076   3.781
12659W        W84385   5.313  31.839  10.385
12660W        W84386   4.745   0.500   4.619
12661W        W84387  27.787  36.824  13.143
12662W        W84388  39.416  39.070   0.342
12663W        W84389  19.008  13.149   4.077
12664W        W84390  43.593  24.236   1.862
12665W        W84391  28.850  36.428   0.729
12666W        W84392  10.110   5.011  10.789
12667W        W84393   5.225   0.714   4.452
12668W        W84394  18.674  33.910  14.833
12669W        W84395  31.644  24.996   3.414
12670W        W84396  41.273  13.804   4.231
12671W        W84397   4.474  23.524  11.483
12672W        W84398   8.294  42.275   3.444
12673W        W84399  29.898  31.699  10.568
12674W        W84400   8.569   3.317   2.836
12675W        W84401   3.801  42.591   1.646
12676W        W84402  15.207  23.950   0.778
12677W        W84403  19.846  10.209   4.986
12678W        W84404  34.377  32.540   0.274
12679W        W84405  39.829  13.301   3.653
12680W        W84406  26.650   0.499   0.810
12681W        W84407  25.218  18.335  12.544
12682W        W84408  10.487  11.197  12.346
12683W        W84409   8.281  15.524   4.220
12684W        W84410   1.878  40.812   0.329
12685W        W84411  44.494  26.232   1.188
12686W        W84412   2.436  43.974   3.616
12687W        W84413  44.401  29.202   2.424
12688W        W84414  10.456  39.730  10.555
12689W        W84415   7.301  42.964  12.417
12690W        W84416   8.904  14.191   0.776
12691W        W84417  20.514  31.193   3.723
12692W        W84418  37.271  38.954  13.299
12693W        W84419  17.311   8.849  11.556
12694W        W84420  12.617   1.859   4.412
12695W        W84421   6.998  16.432   1.499
12696W        W84422  28.062  34.350  10.548
12697W        W84423  16.410  10.412   5.136
12698W        W84424   5.995  35.063  14.261
12699W        W84425  35.392  37.765   4.571
12700W        W84426  16.084  22.230   1.254
12701W        W84427  27.789  27.939  12.127
12702W        W84428  22.132  41.866  12.412
12703W        W84429  30.839  19.344   3.424
12704W        W84430  10.698  13.842   3.783
12705W        W84431   7.267  21.469  12.838
12706W        W84432  32.510  11.321  11.051
12707W        W84433   6.174  33.396  14.074
12708W        W84434  22.673  26.163  11.371
12709W        W84435  16.799  42.999   0.355
12710W        W84436  23.056  10.870   1.476
12711W        W84437  44.051  16.045   4.247
12712W        W84438  35.875  29.741  12.080
12713W        W84439  22.248  25.305  14.814
12714W        W84440  27.001  20.091  11.586
12715W        W84441  27.925   1.195   1.946
12716W        W84442  43.169  26.028  12.021
12717W        W84443  42.973  19.688   3.220
12718W        W84444  21.277   5.189   1.996
12719W        W84445  39.389  37.298   3.233
12720W        W84446  32.049  39.723   3.366
12721W        W84447   1.321   3.960  13.948
12722W        W84448  21.300  23.656  13.669
12723W        W84449  22.418  11.424  13.910
12724W        W84450  42.109  16.346   2.134
12725W        W84451  38.552   1.187   0.889
12726W        W84452  24.956  23.964  13.992
12727W        W84453  16.515   2.160   0.876
12728W        W84454   4.843  37.526  11.062
12729W        W84455  37.323  40.032   4.614
12730W        W84456   5.926  44.928  13.005
12731W        W84457  17.061  21.110   3.777
12732W        W84458  22.721  28.930   4.282
12733W        W84459  24.298  44.352  12.555
12734W        W84460  23.855  35.251  11.666
12735W        W84461  31.478  10.795  14.738
12736W        W84462  39.105  32.939  14.793
12737W        W84463   7.494  19.720  11.148
12738W        W84464  13.679  21.771   4.586
12739W        W84465  41.362  14.040  11.456
12740W        W84466  39.317  15.700  11.097
12741W        W84467  32.037  33.493  14.428
12742W        W84468   3.680  13.172  14.383
12743W        W84469   6.186   7.126   1.355
12744W        W84470  36.051  30.564  10.725
12745W        W84471  11.431  32.148  11.704
12746W        W84472   4.048  32.937  10.716
12747W        W84473  44.827  28.471  11.398
12748W        W84474   5.781  44.656   3.628
12749W        W84475   5.231  22.669  14.760
12750W        W84476  34.798   6.314   2.245
12751W        W84477   1.319  23.914   2.179
12752W        W84478  11.749  14.746  12.032
12753W        W84479  27.926  42.107  12.448
12754W        W84480  23.676  32.829   0.258
12755W        W84481  23.259  21.076  13.428
12756W        W84482  16.069  38.579  12.880
12757W        W84483   9.169  22.081  12.155
12758W        W84484  35.441  11.338  13.884
12759W        W84485  17.770  40.195   2.776
12760W        W84486  27.526  30.159  11.583
12761W        W84487  31.957  32.610  11.109
12762W        W84488  21.707   5.509   0.336
12763W        W84489  42.231  19.712   3.925
12764W        W84490  16.408   8.694   4.146
12765W        W84491  21.138   7.038   5.013
12766W        W84492   6.755  37.735  13.697
12767W        W84493   5.077  34.529   3.100
12768W        W84494   7.644  24.709   2.375
12769W        W84495  36.799  20.282  13.330
12770W        W84496  38.834  40.028   0.906
12771W        W84497  10.720  28.737   0.489
12772W        W84498   8.747   9.425   4.260
12773W        W84499   4.426  43.891   4.792
12774W        W84500  11.181  14.117  12.292
12775W        W84501  40.859   1.349   2.331
12776W        W84502  43.282   8.469  12.031
12777W        W84503   0.901   4.839  12.605
12778W        W84504  44.860  32.609   0.964
12779W        W84505  23.552   2.004  10.832
12780W        W84506  34.860   3.268  12.986
12781W        W84507   0.922  34.090   3.206
12782W        W84508  27.390  40.084  13.572
12783W        W84509  35.635   7.852   3.711
12784W        W84510  42.425   5.956  13.028
12785W        W84511  24.400   1.193   2.266
12786W        W84512  43.347  13.062  14.878
12787W        W84513  34.155  10.584   0.910
12788W        W84514  23.688  13.800  12.920
12789W        W84515   7.837  26.677  13.266
12790W        W84516  37.880  40.524   1.866
12791W        W84517  31.198  20.040  13.424
12792W        W84518  17.050   6.531   1.116
12793W        W84519  37.841  44.425   1.486
12794W        W84520  28.230  43.346  11.848
12795W        W84521   8.729  24.183   1.926
12796W        W84522  15.303  37.979  11.970
12797W        W84523  42.026  39.496  14.781
12798W        W84524   7.891  32.960  10.554
12799W        W84525  13.582  15.174   2.766
12800W        W84526  11.748  28.125   4.497
12801W        W84527   4.462  27.793  10.423
12802W        W84528   6.127  24.210  14.277
12803W        W84529  39.421  15.325  14.136
12804W        W84530  27.384  42.450   3.130
12805W        W84531   9.386  18.521  12.055
12806W        W84532  35.498  34.664   1.221
12807W        W84533  32.449  29.540  13.753
12808W        W84534  31.015  13.878   3.812
12809W        W84535  16.358  38.650   1.658
12810W        W84536  43.911  44.880  14.572
12811W        W84537   3.769  18.616  14.303
12812W        W84538  41.863  15.761  14.098
12813W        W84539   7.889  15.094   3.428
12814W        W84540  20.323  33.094   4.787
12815W        W84541  27.537  23.811   4.439
12816W        W84542  22.238  27.182  10.707
12817W        W84543   3.210   7.751   0.808
12818W        W84544  38.278  29.750  13.957
12819W        W84545  33.959  21.610  13.055
12820W        W84546  27.038  38.531   0.693
12821W        W84547  37.516  43.634   0.088
12822W        W84548  36.347  27.567   1.308
12823W        W84549   4.594  26.153  14.347
12824W        W84550  11.163   4.815   3.908
12825W        W84551  37.842  37.934   0.824
12826W        W84552   7.804  44.343  14.322
12827W        W84553  10.381  12.261  13.048
12828W        W84554  37.037  42.842  12.114
12829W        W84555  34.146  44.062   0.424
12830W        W84556  43.870   2.823  14.244
12831W        W84557  35.316  31.950   1.781
12832W        W84558  40.471  38.246  12.470
12833W        W84559  39.282  27.994  12.197
12834W        W84560  41.284   5.733   1.675
12835W        W84561  14.835   5.491   0.341
12836W        W84562  10.600  31.190   3.225
12837W        W84563  22.031  25.889  14.554
12838W        W84564  43.059  35.445   4.172
12839W        W84565  37.399  42.642  14.941
12840W        W84566   1.505  44.297  10.661
12841W        W84567  34.329  36.264  12.568
12842W        W84568  13.165  27.195  14.492
12843W        W84569  25.598  22.063  12.672
12844W        W84570   4.914   6.209  13.070
12845W        W84571  29.958  43.601   5.723
12846W        W84572  34.584  24.219  13.808
12847W        W84573   8.900  14.767  14.446
12848W        W84574  16.626  19.825   1.931
12849W        W84575   2.870  42.526   0.891
12850W        W84576  20.049  14.606  11.692
12851W        W84577  15.871  31.878   1.223
12852W        W84578  28.595  22.405   4.447
12853W        W84579  22.496  26.906  12.078
12854W        W84580   5.230  17.289  12.884
12855W        W84581  18.098   6.408  10.933
12856W        W84582  18.264  27.510   1.642
12857W        W84583  19.801   8.098  13.723
12858W        W84584  18.488  32.494  11.064
12859W        W84585  24.146   5.997   4.957
12860W        W84586   8.267  36.382  10.242
12861W        W84587  10.390  42.252  12.775
12862W        W84588  44.840  43.293  14.255
12863W        W84589  27.852  34.981  13.753
12864W        W84590  12.332   4.612  13.465
12865W        W84591  10.280  11.070   4.604
12866W        W84592  33.030   1.432  13.137
12867W        W84593  31.680  43.371   0.430
12868W        W84594  29.539  35.355  13.780
12869W        W84595  43.695  42.032  12.307
12870W        W84596  34.388  20.992  10.066
12871W        W84597   7.647  22.553  13.479
12872W        W84598  20.781  18.214  13.495
12873W        W84599  32.877   0.297  10.410
12874W        W84600   2.160   4.495   3.572
12875W        W84601  14.881  36.652   0.231
12876W        W84602  32.500  29.598   4.541
12877W        W84603  17.214  31.364   3.347
12878W        W84604  12.166  20.652   4.705
12879W        W84605  39.379  28.046   0.720
12880W        W84606  32.996  41.700  10.182
12881W        W84607  15.210  25.473  11.163
12882W        W84608   2.494   7.800   3.751
12883W        W84609   2.049  13.919  13.082
12884W        W84610  22.324  24.920  11.127
12885W        W84611   0.290   9.810  11.071
12886W        W84612  44.857  13.744  12.524
12887W        W84613   0.748  32.181  12.964
12888W        W84614  23.718  25.475  11.632
12889W        W84615  35.425  44.766  13.843
12890W        W84616  18.127  27.118   4.763
12891W        W84617  19.824  11.833   0.423
12892W        W84618   0.304   2.323   4.088
12893W        W84619  40.224  35.798  10.926
12894W        W84620  23.249  33.621   4.893
12895W        W84621  39.468  40.607   2.567
12896W        W84622  36.942  14.349  14.397
12897W        W84623  35.066  42.301  11.109
12898W        W84624  17.084  14.323   0.259
12899W        W84625  34.842  33.163   4.626
12900W        W84626  27.905   8.320   0.363
12901W        W84627  14.048  44.327  14.408
12902W        W84628   0.993  31.604  14.355
12903W        W84629  19.764  13.799   4.759
12904W        W84630  29.418  28.980  10.760
12905W        W84631  22.649  10.921  13.221
12906W        W84632  15.601  26.265   0.346
12907W        W84633  23.880  20.169  14.853
12908W        W84634   0.043  14.330   4.074
12909W        W84635  32.172  26.647   4.728
12910W        W84636  23.187  13.000   3.819
12911W        W84637  14.671  12.810  13.090
12912W        W84638  20.824  15.454  12.123
12913W        W84639  21.086  29.371   1.870
12914W        W84640  35.873  20.788   3.110
12915W        W84641  23.575  39.884  13.821
12916W        W84642  39.218   5.223   3.386
12917W        W84643  27.259  41.286  12.488
12918W        W84644  10.328  14.681   2.351
12919W        W84645  23.058  34.759  12.920
12920W        W84646  21.669   7.255   2.759
12921W        W84647  10.031  31.020   4.043
12922W        W84648  44.973  12.288  12.037
12923W        W84649  42.084  37.655  12.928
12924W        W84650  42.376  33.980   4.948
12925W        W84651   0.400  38.925   3.544
12926W        W84652  11.005  41.149   4.541
12927W        W84653  34.088   7.673   4.705
12928W        W84654  28.632  42.894   1.159
12929W        W84655  13.469  25.516  10.786
12930W        W84656  15.838  15.116   3.275
12931W        W84657  14.586  30.088   4.628
12932W        W84658  43.815   3.854   1.500
12933W        W84659   3.463  42.749  11.596
12934W        W84660  17.328  27.270  14.786
12935W        W84661  22.448   3.551  12.125
12936W        W84662  43.816  42.235   4.497
12937W        W84663   6.953  11.098  11.067
12938W        W84664  19.701   1.947   2.768
12939W        W84665   7.154  42.392  10.936
12940W        W84666   4.006  16.665   2.805
12941W        W84667   2.506   4.003  14.846
12942W        W84668  22.755  40.897  10.467
12943W        W84669  13.639  42.506   0.540
12944W        W84670  40.994  14.857   4.559
12945W        W84671  30.911   8.091   2.359
12946W        W84672  17.472  36.036  11.173
12947W        W84673  36.518  12.164   2.137
12948W        W84674  37.848  14.067   3.821
12949W        W84675  32.453  26.928   3.887
12950W        W84676  27.790   7.253  13.493
12951W        W84677  14.689  35.191   2.874
12952W        W84678  19.254  34.584   3.318
12953W        W84679  15.257  41.572  10.953
12954W        W84680  28.706  43.808  13.068
12955W        W84681  35.885  20.954   3.592
12956W        W84682  24.695  41.239  14.968
12957W        W84683  26.789  24.718   3.454
12958W        W84684   0.541   3.365  10.553
12959W        W84685  41.179   6.411   1.338
12960W        W84686   7.818  38.531   3.295
12961W        W84687  43.244  38.572   2.220
12962W        W84688  23.453  39.169   3.581
12963W        W84689  36.767  44.373   2.851
12964W        W84690  36.851  31.524  12.672
12965W        W84691  42.001   4.430   0.028
12966W        W84692   6.381   6.908  14.398
12967W        W84693  41.752  25.123   2.132
12968W        W84694  38.029  27.780   3.800
12969W        W84695  23.837  11.340   0.544
12970W        W84696   1.340  43.305  14.637
12971W        W84697  21.510  16.685   4.643
12972W        W84698   6.876  15.803   0.279
12973W        W84699  40.015  35.026   0.917
12974W        W84700  34.556  26.710  12.926
12975W        W84701  13.029  41.896   4.586
12976W        W84702   7.840  24.180   4.174
12977W        W84703   7.259  20.726   4.805
12978W        W84704  10.600   6.562  13.950
12979W        W84705  42.526  24.934   2.188
12980W        W84706   1.344  28.580   1.296
12981W        W84707  12.922  24.623  10.717
12982W        W84708  29.124  17.641  13.224
12983W        W84709   8.662   4.365   2.044
12984W        W84710  41.949   0.161  14.340
12985W        W84711   8.356  23.065  12.564
12986W        W84712  25.214  44.254  14.116
12987W        W84713  25.102   5.414   3.220
12988W        W84714   7.723  26.494   4.560
12989W        W84715  18.079  14.124  11.206
12990W        W84716  41.902  25.363  14.906
12991W        W84717  29.438  41.492  11.988
12992W        W84718   0.850  43.064  13.310
12993W        W84719  30.088  23.261  10.763
12994W        W84720  17.204  13.574  12.927
12995W        W84721   4.100  20.195   2.771
12996W        W84722  32.903  44.911   2.695
12997W        W84723   5.810  20.833   3.457
12998W        W84724  27.125   8.221  14.864
12999W        W84725  22.141  43.299  14.993
13000W        W84726  37.954   1.266  11.946
13001W        W84727   3.495  28.452   3.312
13002W        W84728  34.893  19.603  13.057
13003W        W84729  30.504  36.589   5.013
13004W        W84730  12.600  32.015  14.498
13005W        W84731   0.138  14.843  12.348
13006W        W84732  25.138   7.663  12.685
13007W        W84733  35.359  38.924  14.069
13008W        W84734  28.062  26.098  12.582
13009W        W84735   9.195   4.567   0.314
13010W        W84736   8.771  30.679   3.423
13011W        W84737  28.436  39.031  14.941
13012W        W84738  13.156  33.662   0.375
13013W        W84739  30.460  26.241  11.224
13014W        W84740  41.514  41.529  12.056
13015W        W84741  38.409  20.769  12.849
13016W        W84742  15.926  11.571   1.562
13017W        W84743  38.605   2.357   2.787
13018W        W84744  20.494  24.661  14.732
13019W        W84745   0.784   7.619   4.779
13020W        W84746  10.085  19.326  13.138
13021W        W84747  30.863  37.447   3.153
13022W        W84748  39.422   0.976   0.567
13023W        W84749  44.500  42.782   3.078
13024W        W84750   1.238  22.771  10.717
13025W        W84751   9.285  33.369   1.092
13026W        W84752   2.827  22.995   4.595
13027W        W84753  16.352  19.633   3.184
13028W        W84754  22.950   8.160   3.277
13029W        W84755  34.925  40.739  11.143
13030W        W84756  28.588  37.258   3.183
13031W        W84757  11.505  42.505   0.375
13032W        W84758  23.795   9.808   0.858
13033W        W84759   8.125  38.463  10.408
13034W        W84760   9.776   4.892   2.783
13035W        W84761   8.851   4.774   1.210
13036W        W84762  40.393  12.929  13.480
13037W        W84763   8.219   7.750   2.654
13038W        W84764  24.459   1.331  13.705
13039W        W84765   9.671  26.176  11.040
13040W        W84766  34.037   1.368   0.338
13041W        W84767  34.419  31.718  14.795
13042W        W84768   4.445  27.410   0.288
13043W        W84769  33.211   5.233  13.354
13044W        W84770  30.405  34.651  11.690
13045W        W84771  29.354  10.487   2.705
13046W        W84772  10.096  23.968   3.772
13047W        W84773  25.289  16.674  12.054
13048W        W84774  37.593   4.261   3.445
13049W        W84775  28.679  14.891  14.750
13050W        W84776   5.329  38.377   3.719
13051W        W84777  37.073   0.754  12.030
13052W        W84778  22.218   4.883   4.613
13053W        W84779  10.270  32.828  12.689
13054W        W84780   7.636  22.685   0.757
13055W        W84781   6.973   9.315   0.895
13056W        W84782   7.851  25.879  14.437
13057W        W84783   0.976  42.006  12.008
13058W        W84784  34.746  41.011  14.138
13059W        W84785  23.721  14.242   3.645
13060W        W84786  31.095   3.026  13.259
13061W        W84787  23.975  14.098   3.222
13062W        W84788  43.568  24.156   2.404
13063W        W84789  38.664  35.390  13.505
13064W        W84790  31.096  31.784  12.848
13065W        W84791  42.900  18.766   3.256
13066W        W84792   3.871   2.777  13.347
13067W        W84793  39.257  10.956  14.314
13068W        W84794  11.132  29.924   1.485
13069W        W84795   8.883  17.794  11.715
13070W        W84796  34.136  21.917  13.492
13071W        W84797  23.775  10.241   0.190
13072W        W84798  18.976  33.088  12.619
13073W        W84799  11.835  30.309  14.533
13074W        W84800   8.910  18.114   4.191
13075W        W84801  24.117  18.992  14.018
13076W        W84802   4.306  24.489  14.948
13077W        W84803  37.388  24.462  10.599
13078W        W84804   6.996  28.598   4.222
13079W        W84805   4.172  31.443   0.413
13080W        W84806  42.008  44.368   2.154
13081W        W84807  40.434  10.721  10.857
13082W        W84808  26.007   8.156   0.372
13083W        W84809  39.734  33.031   4.241
13084W        W84810  25.967  10.055   4.770
13085W        W84811  24.247  29.517   0.659
13086W        W84812  42.763   7.319  13.131
13087W        W84813  38.424  27.243  13.896
13088W        W84814  35.039  39.994   3.393
13089W        W84815  33.974  37.424  13.506
13090W        W84816  15.388  40.743  11.997
13091W        W84817  18.605  19.038  12.982
13092W        W84818   6.374  21.701  12.567
13093W        W84819  25.839  17.750  13.050
13094W        W84820  13.345  28.527   0.388
13095W        W84821  38.126   8.596  14.966
13096W        W84822  35.320   9.367  13.007
13097W        W84823   4.491  12.981  12.682
13098W        W84824  24.648   5.657   1.387
13099W        W84825  14.092  33.446  14.893
13100W        W84826   3.350  21.397  12.907
13101W        W84827   7.117   6.455  13.254
13102W        W84828   5.450  31.550  14.949
13103W        W84829   0.385   9.347  12.350
13104W        W84830  21.680   0.413   3.349
13105W        W84831  44.002  13.711   3.363
13106W        W84832  41.036  18.873   2.449
13107W        W84833   1.751   0.645   1.209
13108W        W84834  14.677  26.075  14.479
13109W        W84835  35.878  35.595  11.144
13110W        W84836  35.637   5.785  12.439
13111W        W84837  20.318  10.541  13.003
13112W        W84838   3.521   9.240  10.747
13113W        W84839  22.437  10.161  14.775
13114W        W84840   1.314  36.494   4.558
13115W        W84841  33.676  10.559   4.057
13116W        W84842  41.009  38.365   2.260
13117W        W84843   4.613  42.941  11.110
13118W        W84844  20.111   6.703   4.962
13119W        W84845   1.268  11.762  13.903
13120W        W84846   9.859  44.476   1.824
13121W        W84847  12.285  38.456   0.277
13122W        W84848  41.338  36.081  14.897
13123W        W84849  13.225  24.850  12.385
13124W        W84850  28.179  38.131  13.929
13125W        W84851   3.768  19.660   3.029
13126W        W84852  10.249  27.942  12.464
13127W        W84853  23.661  34.828  13.700
13128W        W84854  17.537   1.294   4.798
13129W        W84855  43.705  19.607  11.627
13130W        W84856   0.251  40.856  13.313
13131W        W84857   8.166  29.236  13.067
13132W        W84858   0.857  36.646   0.356
13133W        W84859  25.785  38.110   3.779
13134W        W84860   3.916  30.713   2.278
13135W        W84861  38.994   0.339  13.794
13136W        W84862  29.549   5.224  11.232
13137W        W84863  18.488  36.416  14.351
13138W        W84864  17.387   8.862   2.604
13139W        W84865  24.238  17.660   4.520
13140W        W84866  11.126  36.980   4.233
13141W        W84867   1.832  22.673  11.724
13142W        W84868  44.336   6.111  10.720
13143W        W84869  41.730  30.163  14.292
13144W        W84870  39.065  34.450   4.587
13145W        W84871  32.376  29.868  11.159
13146W        W84872  35.815  10.298   1.220
13147W        W84873  19.666  42.919   2.206
13148W        W84874  32.855  12.600   0.357
13149W        W84875  23.963  44.438  12.128
13150W        W84876   5.333  37.801  12.393
13151W        W84877  44.107   7.466   4.973
13152W        W84878  44.614  38.239   5.069
13153W        W84879   7.137   4.424   5.076
13154W        W84880  11.889  30.122  13.985
13155W        W84881  39.787   1.214  12.842
13156W        W84882  15.212   3.000   4.665
13157W        W84883  28.717  32.370   0.720
13158W        W84884  41.486  15.871  11.473
13159W        W84885  13.263  37.235   4.347
13160W        W84886  17.471  21.677  12.072
13161W        W84887  39.810  21.275   1.861
13162W        W84888  36.461  14.721   4.000
13163W        W84889  42.405  28.417   0.376
13164W        W84890   8.182  17.185   3.658
13165W        W84891  39.740  15.031  14.451
13166W        W84892  27.566   0.887  12.992
13167W        W84893   4.286  10.902   1.977
13168W        W84894  35.637  33.374  14.823
13169W        W84895  12.607  27.492   1.655
13170W        W84896  11.732  42.443   2.325
13171W        W84897  33.823  25.356   4.078
13172W        W84898  42.552  33.954   4.362
13173W        W84899  36.450  36.424   2.742
13174W        W84900  29.049   6.095  11.873
13175W        W84901  25.635  23.549   2.931
13176W        W84902  35.983  20.978  12.508
13177W        W84903  11.839  31.290  10.523
13178W        W84904  12.430   9.374   3.154
13179W        W84905  33.404  36.485   2.157
13180W        W84906  40.885  24.528   3.760
13181W        W84907  37.971   1.354   4.686
13182W        W84908  25.132  17.926   0.042
13183W        W84909   5.304  31.685  11.576
13184W        W84910  25.701  21.279   1.335
13185W        W84911  13.047   8.422   0.823
13186W        W84912  35.972   9.856   3.726
13187W        W84913  22.161  25.688   1.448
13188W        W84914  18.734  25.402   4.117
13189W        W84915   3.223  18.697   1.645
13190W        W84916  35.809  23.272  11.913
13191W        W84917  28.217  38.959   4.227
13192W        W84918  12.829  22.593  11.277
13193W        W84919   9.619  12.631   0.427
13194W        W84920  41.946  18.767  14.321
13195W        W84921  24.917  15.791   0.913
13196W        W84922  34.669   2.178   4.259
13197W        W84923  23.551  42.275   1.312
13198W        W84924  32.002  20.851   1.251
13199W        W84925  17.101  28.795  11.266
13200W        W84926  32.962  31.234  10.705
13201W        W84927  32.895  32.108   1.365
13202W        W84928   6.844  42.098   1.273
13203W        W84929  33.421   6.484   4.025
13204W        W84930  12.814   5.693  13.960
13205W        W84931  25.432  33.882   1.706
13206W        W84932  32.993  36.330  14.302
13207W        W84933   1.222  34.484  12.599
13208W        W84934  43.377  15.850   0.576
13209W        W84935   3.945  27.968   4.568
13210W        W84936  24.346  25.654  13.353
13211W        W84937  34.945  39.659  14.393
13212W        W84938  34.172  27.549  14.292
13213W        W84939  39.325  17.712   2.204
13214W        W84940  42.302  11.581  11.441
13215W        W84941  42.179  43.487  11.876
13216W        W84942   3.597  44.047  12.121
13217W        W84943   2.521  22.519   0.239
13218W        W84944  38.859  34.605   2.735
13219W        W84945   1.350   8.473   2.009
13220W        W84946  20.233  22.036   0.195
13221W        W84947  24.969  38.353  10.669
13222W        W84948  15.992   5.699   0.801
13223W        W84949  14.557  11.245   0.429
13224W        W84950  26.667   0.248   1.276
13225W        W84951  30.842  16.689   3.219
13226W        W84952   8.344  17.094  11.694
13227W        W84953  36.047  16.698   4.208
13228W        W84954  37.109  41.548  11.518
13229W        W84955  25.443   3.746  14.569
13230W        W84956  15.703  22.983  12.146
13231W        W84957  22.797  28.195   1.701
13232W        W84958  42.563  30.042   3.264
13233W        W84959   9.339  39.612  13.516
13234W        W84960  15.344  44.019   2.201
13235W        W84961  19.525  15.558   2.708
13236W        W84962   0.462  20.304  13.466
13237W        W84963  23.886  11.885  14.129
13238W        W84964  13.291  26.988   2.832
13239W        W84965  21.806  44.508   0.364
13240W        W84966  28.879  32.060  10.688
13241W        W84967   4.668  34.565  12.024
13242W        W84968  28.442   0.696  13.378
13243W        W84969  14.565  23.366   4.199
13244W        W84970  41.868  36.210  10.585
13245W        W84971  10.794  44.370   2.798
13246W        W84972   3.151   0.692  12.117
13247W        W84973  16.279   0.969   1.431
13248W        W84974  14.649  27.628  11.417
13249W        W84975   5.387   3.552   2.724
13250W        W84976   2.740  17.711  10.586
13251W        W84977   5.910  24.802   3.800
13252W        W84978  32.501   3.660  11.609
13253W        W84979  36.112  23.605  12.239
13254W        W84980  31.587  10.258  10.840
13255W        W84981  15.268  35.985  14.773
13256W        W84982  42.557  24.998   0.369
13257W        W84983  31.134   4.975  13.295
13258W        W84984  18.628  28.123  13.114
13259W        W84985  39.604  37.795  11.976
13260W        W84986  15.209  40.888  10.224
13261W        W84987  24.580  19.815   3.732
13262W        W84988  24.146  42.949  11.497
13263W        W84989  37.936  28.652   0.020
13264W        W84990  37.486  36.368  11.046
13265W        W84991  19.034  19.676   2.745
13266W        W84992  19.127  22.541  14.047
13267W        W84993  23.533  19.786  12.507
13268W        W84994  36.587  35.632  13.244
13269W        W84995  21.733  10.282   0.439
13270W        W84996  20.702  27.328   1.240
13271W        W84997   0.350  26.125  14.936
13272W        W84998  22.524  25.326   1.766
13273W        W84999  30.464  38.569  13.382
13274W        W85000   6.585  37.605   0.696
13275W        W85001  19.463  38.889  13.283
13276W        W85002  26.018  28.135  10.709
13277W        W85003  12.039  13.430   1.466
13278W        W85004  17.379  37.440  12.495
13279W        W85005   8.883  20.834   0.773
13280W        W85006  33.327  15.132   2.687
13281W        W85007  28.677   4.326   1.755
13282W        W85008  44.937  44.735   0.720
13283W        W85009  11.960   0.337   1.657
13284W        W85010   9.743  29.617   2.016
13285W        W85011  28.533  29.770  13.880
13286W        W85012   2.135  24.097   3.386
13287W        W85013  35.043  38.422   1.260
13288W        W85014  26.263  33.151  11.656
13289W        W85015   0.250  14.287  11.938
13290W        W85016  12.128  12.761   2.574
13291W        W85017  10.166  21.667   4.690
13292W        W85018   9.790  11.183   0.494
13293W        W85019  29.126  27.414   1.161
13294W        W85020  37.594  19.653  12.297
13295W        W85021  12.913  14.247   0.274
13296W        W85022  22.168  36.571   0.935
13297W        W85023  11.310  29.734   0.915
13298W        W85024  41.517  33.271  12.154
13299W        W85025  39.490  19.982   2.421
13300W        W85026  41.021  30.657  12.482
13301W        W85027  24.122  30.461  13.917
13302W        W85028  14.785  41.769   3.847
13303W        W85029  40.429  12.104  11.720
13304W        W85030  11.403  34.454   1.392
13305W        W85031  27.512   0.752  11.220
13306W        W85032  25.666  39.135   4.341
13307W        W85033  10.773  11.304   1.440
13308W        W85034  20.344  12.656   5.074
13309W        W85035  25.596  39.588   0.737
13310W        W85036  11.198   3.347   4.141
13311W        W85037  13.194  42.806   1.096
13312W        W85038  26.759  32.496   2.417
13313W        W85039  43.051  23.019  10.567
13314W        W85040   0.482   1.473  10.433
13315W        W85041  22.580  30.574   3.313
13316W        W85042  44.058  29.044   4.528
13317W        W85043  29.662  20.223   0.480
13318W        W85044  11.422  13.144  13.095
13319W        W85045  11.739   3.580   4.981
13320W        W85046  14.689   4.360   1.656
13321W        W85047   2.744  14.550  13.330
13322W        W85048   8.442  11.701  11.949
13323W        W85049  16.708  26.555  14.162
13324W        W85050  24.460  44.265   4.970
13325W        W85051  34.843  11.582   1.328
13326W        W85052  12.522  19.649  12.893
13327W        W85053  33.622  11.298  13.499
13328W        W85054   8.269  21.215   3.248
13329W        W85055  28.610  42.913   0.655
13330W        W85056  25.995  15.078  13.836
13331W        W85057  22.440  13.807  14.762
13332W        W85058  43.813  33.615  11.006
13333W        W85059   3.321   6.652   3.285
13334W        W85060   3.886  23.010  13.497
13335W        W85061  35.870  37.666  11.380
13336W        W85062  15.347  23.657  14.521
13337W        W85063  12.263  42.893  14.380
13338W        W85064  26.605  13.023  10.948
13339W        W85065   6.516  16.148  12.925
13340W        W85066   2.222  10.567   3.799
13341W        W85067  30.581   6.986  13.070
13342W        W85068  30.152  38.533   3.350
13343W        W85069  18.903  30.619   2.029
13344W        W85070  41.270   9.252   0.942
13345W        W85071  44.516  21.941   0.457
13346W        W85072  21.467  13.779   4.555
13347W        W85073   7.009  44.098   0.342
13348W        W85074   6.406  41.989   4.499
13349W        W85075   8.459  26.302   4.541
13350W        W85076  12.537   7.344  14.448
13351W        W85077  43.714  11.268   0.893
13352W        W85078  12.933   4.356  12.949
13353W        W85079  41.291  17.537  11.857
13354W        W85080  14.266   9.438   4.557
13355W        W85081  30.491  18.628   3.774
13356W        W85082  33.862   8.737   3.943
13357W        W85083  35.972  13.780   5.036
13358W        W85084   1.811  21.699  12.458
13359W        W85085   1.423  24.727  12.762
13360W        W85086  43.803  22.128   1.847
13361W        W85087  13.165  28.121   2.107
13362W        W85088  12.907   3.186   0.744
13363W        W85089   3.840  24.075   2.118
13364W        W85090  18.319   3.318   1.924
13365W        W85091  20.223   9.717  11.896
13366W        W85092  42.997  21.022  11.953
13367W        W85093  29.547  24.076   1.501
13368W        W85094  23.536   9.874  13.343
13369W        W85095  17.576  26.790   2.236
13370W        W85096  12.020   5.461   1.341
13371W        W85097   7.158  33.882  11.323
13372W        W85098  42.178  13.159  14.691
13373W        W85099  43.705  11.181   3.745
13374W        W85100  35.657   9.618  14.555
13375W        W85101  20.739  44.238   2.239
13376W        W85102   1.074  37.355   2.640
13377W        W85103  22.289  10.517   1.840
13378W        W85104  27.888  28.106   2.785
13379W        W85105  19.587  44.516   4.811
13380W        W85106  11.450  31.654  11.835
13381W        W85107  14.281  35.902  13.976
13382W        W85108  21.412   9.360   4.316
13383W        W85109  20.776  34.267  10.975
13384W        W85110  36.398  15.234   0.661
13385W        W85111  11.663  26.644   1.990
13386W        W85112  44.779  21.727   1.773
13387W        W85113  10.133   6.335  13.581
13388W        W85114  18.092  29.953  11.680
13389W        W85115  24.181  20.736   4.301
13390W        W85116  33.982  36.434   3.237
13391W        W85117  14.866  38.764   4.562
13392W        W85118  11.551   2.026   0.862
13393W        W85119  10.360  22.020   0.898
13394W        W85120  13.388  18.873   2.354
13395W        W85121  35.418  28.971  10.576
13396W        W85122  31.060  25.416  11.943
13397W        W85123  26.554  37.497  13.762
13398W        W85124  38.084  15.879   0.989
13399W        W85125  34.100  42.480  11.135
13400W        W85126  40.353  23.212  13.485
13401W        W85127  12.725  26.721  12.446
13402W        W85128  11.156   6.011  14.589
13403W        W85129  39.084  29.597   2.340
13404W        W85130  42.431   3.043   0.445
13405W        W85131  11.235   6.357  11.684
13406W        W85132  18.120  20.156  11.519
13407W        W85133  34.532   9.942  11.110
13408W        W85134  40.229  40.763  10.473
13409W        W85135  31.482  13.727  14.595
13410W        W85136  23.100  12.353  11.983
13411W        W85137  19.707  11.895   1.779
13412W        W85138  34.949  27.570   3.633
13413W        W85139   3.771  18.989   0.843
13414W        W85140  36.902  26.659   2.913
13415W        W85141  38.977  33.569   4.651
13416W        W85142  39.950  43.747   2.426
13417W        W85143  14.258  18.985  11.148
13418W        W85144  39.852  25.295  14.357
13419W        W85145  40.777   9.815  11.660
13420W        W85146  36.831  30.582   1.435
13421W        W85147  24.125  24.735  12.624
13422W        W85148  13.827  24.836   0.440
13423W        W85149  41.491   6.215   1.763
13424W        W85150   5.949  18.619  11.113
13425W        W85151  17.110  16.265   4.245
13426W        W85152  20.758   6.422   3.337
13427W        W85153  38.406  40.703  13.940
13428W        W85154  33.881   7.754   0.465
13429W        W85155  31.163  16.277  14.394
13430W        W85156  27.540  24.327  11.690
13431W        W85157  14.555  14.750   0.902
13432W        W85158  31.622  30.951   2.304
13433W        W85159  31.372   8.402  12.251
13434W        W85160  28.507  30.125   4.852
13435W        W85161   2.668  44.171   4.029
13436W        W85162  30.097  22.237   1.287
13437W        W85163  39.467  40.417  13.562
13438W        W85164  23.432  15.430  10.657
13439W        W85165  26.954   3.555   1.247
13440W        W85166  38.646  23.941  11.869
13441W        W85167   5.767  16.617  10.092
13442W        W85168   9.266   6.698   4.536
13443W        W85169  37.938  22.554  12.668
13444W        W85170  34.266  42.865   3.364
13445W        W85171  31.161  20.192   2.195
13446W        W85172   8.662   3.156  12.313
13447W        W85173   0.925  36.042   2.613
13448W        W85174   2.289  33.600   1.188
13449W        W85175   3.891  33.812  13.062
13450W        W85176   6.142  31.677  11.330
13451W        W85177  29.693   3.389  13.239
13452W        W85178   1.871  22.083  14.854
13453W        W85179  35.525  28.460   2.035
13454W        W85180  24.504  22.301   1.321
13455W        W85181  11.085  15.261   4.734
13456W        W85182   6.502   0.792  10.315
13457W        W85183  40.938   5.258  13.191
13458W        W85184  13.599  17.023   3.698
13459W        W85185   6.804  28.670   1.467
13460W        W85186  34.623  39.537   2.714
13461W        W85187   8.587  23.594   5.112
13462W        W85188  43.936  23.066  14.498
13463W        W85189   2.342  22.637  14.262
13464W        W85190  24.673  21.734   4.061
13465W        W85191  19.169  23.715   1.522
13466W        W85192  42.734  21.225  11.553
13467W        W85193  19.572  32.631  13.884
13468W        W85194  42.946  36.429   1.905
13469W        W85195   6.423  19.404   2.662
13470W        W85196  34.529   7.581  14.011
13471W        W85197  17.053  24.524   0.823
13472W        W85198  36.500  14.271   0.712
13473W        W85199  13.469   9.341  13.268
13474W        W85200  11.794   7.445   0.416
13475W        W85201  20.693  25.035  13.784
13476W        W85202  12.283  39.373   0.253
13477W        W85203  11.070  29.395  13.306
13478W        W85204  38.548  34.306   4.567
13479W        W85205  39.334  24.615   0.934
13480W        W85206  11.591  20.296  14.325
13481W        W85207  30.697  36.507  14.004
13482W        W85208  44.148  43.226  13.827
13483W        W85209   0.704  15.374   1.393
13484W        W85210  40.897  20.760  14.528
13485W        W85211  23.779  39.592  14.299
13486W        W85212  13.436  37.807  10.681
13487W        W85213  17.860  30.884  11.904
13488W        W85214  14.286  35.661   3.524
13489W        W85215  24.159  30.174   3.832
13490W        W85216  25.895  29.200   3.620
13491W        W85217  25.889   0.214  11.430
13492W        W85218  13.592  30.539  12.426
13493W        W85219  37.903  27.139  13.820
13494W        W85220  31.971   0.808  10.753
13495W        W85221  10.616   4.912  10.704
13496W        W85222  34.501  30.903  11.970
13497W        W85223  19.948  21.987   2.779
13498W        W85224  21.202  36.435   3.795
13499W        W85225   1.218  31.693  10.989
13500W        W85226  27.135  26.767   2.636
13501W        W85227   3.280  16.581  13.301
13502W        W85228  39.658  32.549   1.972
13503W        W85229   0.318  39.602   3.110
13504W        W85230  21.776  13.082   0.205
13505W        W85231   3.010  38.051  11.915
13506W        W85232  10.542  15.194  14.809
13507W        W85233  44.952  24.542   0.713
13508W        W85234  30.256  40.792  10.702
13509W        W85235  43.405  41.398  12.827
13510W        W85236  42.010  12.725  11.154
13511W        W85237  39.378  12.369  14.368
13512W        W85238  26.472  16.247   3.850
13513W        W85239  37.614  33.961   1.390
13514W        W85240  15.826  27.949  12.603
13515W        W85241   7.846  35.537  12.607
13516W        W85242  10.991  33.681  14.616
13517W        W85243  44.528   6.723   3.726
13518W        W85244  34.655   4.022  11.573
13519W        W85245  42.944   9.845  13.298
13520W        W85246  15.604   5.729   4.608
13521W        W85247  44.763  13.497   4.096
13522W        W85248  28.648   0.327   3.224
13523W        W85249  19.422  18.366   1.834
13524W        W85250  13.246   9.819  10.935
13525W        W85251  31.951  10.827   2.819
13526W        W85252  10.872  42.303  10.885
13527W        W85253  41.471   0.675  12.611
13528W        W85254   3.480  43.875   1.417
13529W        W85255  18.231   1.237  13.927
13530W        W85256  34.425   7.312   1.245
13531W        W85257   0.750  44.019  11.160
13532W        W85258  42.360  38.436  10.833
13533W        W85259  21.335  29.305  13.401
13534W        W85260  43.344  26.603  13.216
13535W        W85261  10.613   6.132   1.321
13536W        W85262  24.576  35.808   3.151
13537W        W85263  10.836  39.447  10.786
13538W        W85264   6.562  18.879  14.698
13539W        W85265   3.377  41.941  14.078
13540W        W85266  26.276   8.630   3.775
13541W        W85267  31.000   3.905  14.649
13542W        W85268  39.736  17.173   3.051
13543W        W85269  38.036  21.143   0.733
13544W        W85270  39.867  16.747   0.753
13545W        W85271  31.461   1.066   3.639
13546W        W85272  12.575  26.945  12.894
13547W        W85273  34.507  41.503  12.004
13548W        W85274  34.803  20.223   4.611
13549W        W85275  19.020   6.383   3.439
13550W        W85276  15.013  23.133   4.296
13551W        W85277   3.459  14.254   4.714
13552W        W85278  14.722  11.256   4.636
13553W        W85279   4.080  42.849  14.510
13554W        W85280   5.470  26.138  14.672
13555W        W85281  13.781  25.337  13.047
13556W        W85282   1.041  41.050   2.270
13557W        W85283  24.246   9.918   3.647
13558W        W85284  34.705   4.184   3.135
13559W        W85285  39.418   1.390  10.577
13560W        W85286  39.558  30.204  13.798
13561W        W85287  41.789   0.768   3.791
13562W        W85288   7.435   4.651   4.440
13563W        W85289  12.335   3.747  10.621
13564W        W85290  12.344  38.354   3.167
13565W        W85291  41.199  13.986  13.737
13566W        W85292   8.174  10.718  10.610
13567W        W85293  21.801   5.330   1.894
13568W        W85294  18.782   2.762  11.713
13569W        W85295  15.139  44.354  14.798
13570W        W85296  40.036  41.394   0.208
13571W        W85297  43.118  26.083   2.911
13572W        W85298   3.883  44.892   1.797
13573W        W85299  21.671  13.831  11.528
13574W        W85300  44.594  30.779   0.388
13575W        W85301  44.891  14.628   0.315
13576W        W85302  35.004  32.376  14.736
13577W        W85303  38.902  42.573   1.862
13578W        W85304   6.431  20.755  11.169
13579W        W85305  36.560  22.061  14.883
13580W        W85306  36.491  21.689  11.131
13581W        W85307  12.852  10.690   3.000
13582W        W85308  16.594  20.765  11.466
13583W        W85309  10.401   4.151   2.078
13584W        W85310  37.082  41.593  14.183
13585W        W85311  16.165  39.417  12.109
13586W        W85312  15.813  14.223   0.872
13587W        W85313   3.263  43.578  11.213
13588W        W85314  40.517  43.918  11.009
13589W        W85315  28.519  29.938  12.404
13590W        W85316  22.117  35.541  13.440
13591W        W85317  27.180  10.421   2.286
13592W        W85318  31.333  30.380  11.235
13593W        W85319  39.475  17.250  13.085
13594W        W85320  16.079   4.911  11.014
13595W        W85321  22.740  43.122  12.526
13596W        W85322  39.813   7.889   3.290
13597W        W85323  37.299   2.935   2.699
13598W        W85324  30.829  36.482   3.170
13599W        W85325   6.214   4.257   1.925
13600W        W85326  17.259  41.727   0.772
13601W        W85327  24.423  31.148   0.914
13602W        W85328  17.037  24.916  11.890
13603W        W85329  24.747  34.480  10.713
13604W        W85330  18.307  27.729   4.610
13605W        W85331  41.786   9.640  11.192
13606W        W85332  15.241   0.775   2.401
13607W        W85333   6.643  32.942  11.673
13608W        W85334  17.181  35.140  11.230
13609W        W85335   2.502  24.302   1.552
13610W        W85336  21.137  36.379  10.774
13611W        W85337  24.188   9.958   0.504
13612W        W85338  37.070  37.767   4.101
13613W        W85339  28.535  22.948   2.776
13614W        W85340  43.511  13.391   4.666
13615W        W85341  43.443  30.489   3.751
13616W        W85342  23.588   4.297  10.410
13617W        W85343   5.887   7.900  13.261
13618W        W85344  41.123   5.601  14.175
13619W        W85345   1.649   6.582   2.314
13620W        W85346  17.090  37.632   3.665
13621W        W85347  13.578  14.913   2.311
13622W        W85348  33.484  31.545  11.197
13623W        W85349   0.386   3.790   4.412
13624W        W85350   9.499  22.530  10.596
13625W        W85351  30.991   8.175   0.816
13626W        W85352  14.627  10.794   0.020
13627W        W85353  12.622  34.492  13.457
13628W        W85354   3.264   4.701  12.141
13629W        W85355   6.986  26.008   1.831
13630W        W85356  32.811  19.782   3.728
13631W        W85357   2.978  11.956  13.416
13632W        W85358  22.575  34.871  14.455
13633W        W85359  29.269   3.268   1.233
13634W        W85360  23.954  18.035  12.843
13635W        W85361  44.808  27.513   0.964
13636W        W85362  28.950  30.443   0.903
13637W        W85363  32.103  37.589  11.056
13638W        W85364  32.512   0.910   0.390
13639W        W85365  18.744  37.804   1.850
13640W        W85366   7.292   2.640   0.965
13641W        W85367  22.807  31.040  12.058
13642W        W85368  34.629  21.670   3.855
13643W        W85369  15.181  27.240   0.641
13644W        W85370  44.060   6.818   2.146
13645W        W85371  30.559  30.115  13.485
13646W        W85372  28.078  28.931   1.316
13647W        W85373  44.756   7.156   0.372
13648W        W85374  31.132  14.953  14.557
13649W        W85375  36.000   6.403   4.529
13650W        W85376  16.770  31.815  10.736
13651W        W85377  17.222  39.375  11.772
13652W        W85378  26.056  30.503   3.306
13653W        W85379   6.667  16.564   4.265
13654W        W85380  21.186  16.836  14.276
13655W        W85381   3.025   1.245  11.629
13656W        W85382  36.636   1.023  12.053
13657W        W85383   0.773  44.510  13.491
13658W        W85384  14.619  12.869  10.921
13659W        W85385  23.605  23.499   1.349
13660W        W85386  35.569  39.050   4.216
13661W        W85387  29.383  35.870   2.142
13662W        W85388  22.771  11.636   3.894
13663W        W85389   4.919  16.674  11.578
13664W        W85390  20.794  11.234  12.435
13665W        W85391  16.728  17.104   2.901
13666W        W85392   0.285  39.917   1.640
13667W        W85393   5.743  19.468   1.255
13668W        W85394  42.770  34.366  12.539
13669W        W85395  39.982  17.996   3.238
13670W        W85396  22.084  26.191   1.760
13671W        W85397  19.502  23.558  12.463
13672W        W85398   7.196  12.743   0.806
13673W        W85399  41.506  40.884  13.022
13674W        W85400  34.936  12.952   0.181
13675W        W85401  16.639  34.854  13.280
13676W        W85402  10.816  35.404  14.477
13677W        W85403  38.837  10.593  14.396
13678W        W85404   4.976  20.278  14.337
13679W        W85405  41.084  26.011  12.723
13680W        W85406  34.878  20.245  12.378
13681W        W85407  21.018   3.749  11.581
13682W        W85408   4.488   5.548   3.794
13683W        W85409  42.551  41.919   5.061
13684W        W85410  22.573   5.727  13.848
13685W        W85411  22.744  27.538   1.284
13686W        W85412  38.135  31.159  11.431
13687W        W85413   5.809   3.981  14.827
13688W        W85414  43.485  35.322  12.498
13689W        W85415  38.746  27.619   2.566
13690W        W85416   7.288  43.843   3.003
13691W        W85417   0.471  21.922  12.738
13692W        W85418  20.569  44.429   2.747
13693W        W85419   8.040   3.923   5.200
13694W        W85420   2.325  17.705  10.905
13695W        W85421  44.409   3.962  13.855
13696W        W85422   3.650   5.931   1.553
13697W        W85423  24.161  24.215  11.570
13698W        W85424  34.625  35.616  14.297
13699W        W85425  17.699  25.248   0.503
13700W        W85426   5.420   2.927  12.935
13701W        W85427  40.297  38.535   3.452
13702W        W85428  11.188  13.857  11.552
13703W        W85429  36.488  39.317   3.369
13704W        W85430  37.045  18.683   0.389
13705W        W85431  12.580  21.603  11.536
13706W        W85432  42.790  12.510   3.055
13707W        W85433  33.422  26.257  12.963
13708W        W85434   7.961  18.630  14.296
13709W        W85435  12.807  18.746  12.432
13710W        W85436   6.225   1.990  11.673
13711W        W85437  38.392  18.328   3.385
13712W        W85438   5.460   3.234   2.024
13713W        W85439  19.842  12.156  10.536
13714W        W85440   7.980  20.966   1.858
13715W        W85441   7.878  24.288  13.003
13716W        W85442  38.271  14.352   3.823
13717W        W85443  25.488  11.054  12.170
13718W        W85444   5.678  38.651  13.836
13719W        W85445  38.471  34.467   0.478
13720W        W85446   1.377  30.904  12.049
13721W        W85447  27.087  18.162   1.767
13722W        W85448  33.370  32.057   2.065
13723W        W85449  26.154  15.548   0.898
13724W        W85450  39.753   0.266   4.648
13725W        W85451   9.153  31.804  12.973
13726W        W85452   6.939  33.278   2.540
13727W        W85453   1.291   1.721   4.276
13728W        W85454  34.895  14.076   2.262
13729W        W85455   6.280   0.289  12.865
13730W        W85456  37.394  18.828   0.831
13731W        W85457   6.249  31.567   3.875
13732W        W85458  43.349   6.196   4.139
13733W        W85459  10.662  13.967  12.412
13734W        W85460  18.169  18.829   1.347
13735W        W85461  41.378  28.723   4.009
13736W        W85462  32.930  34.920  14.416
13737W        W85463  17.291   9.956  13.292
13738W        W85464  44.313   7.081  10.605
13739W        W85465  30.321  27.468   4.277
13740W        W85466  10.770  42.112   2.439
13741W        W85467   4.122  11.340  14.098
13742W        W85468  43.046  30.083  14.892
13743W        W85469  15.156  16.785   4.964
13744W        W85470  40.997  43.939  10.677
13745W        W85471  17.798  38.376  12.881
13746W        W85472   8.148   8.361   4.167
13747W        W85473  36.157  21.141   4.512
13748W        W85474  43.413  34.575   2.806
13749W        W85475  14.608  32.427  11.601
13750W        W85476   9.531   8.172   3.367
13751W        W85477  20.877  14.999   4.204
13752W        W85478   8.734  40.529   0.543
13753W        W85479  17.527   7.912   4.544
13754W        W85480  19.899   4.460  11.142
13755W        W85481  29.039  25.700   0.952
13756W        W85482  18.848   0.500  13.422
13757W        W85483  29.773  38.085   4.251
13758W        W85484  11.042  15.647   3.214
13759W        W85485  33.903  11.669   3.257
13760W        W85486  14.967   9.371   4.184
13761W        W85487  27.130  22.174  13.891
13762W        W85488  22.970  42.456   1.020
13763W        W85489  17.812  16.731  14.563
13764W        W85490  22.159  17.069  13.189
13765W        W85491   5.078  38.581   4.124
13766W        W85492  34.581  43.559  11.369
13767W        W85493  44.732  11.347  11.660
13768W        W85494   5.885   5.921  12.641
13769W        W85495  27.981  34.637  10.987
13770W        W85496  15.809  40.458  13.320
13771W        W85497  35.040   4.731  11.208
13772W        W85498  29.446   9.973   2.716
13773W        W85499  16.374   0.751  11.992
13774W        W85500   5.908  22.162   2.671
13775W        W85501   9.667  24.266  13.185
13776W        W85502  37.478   2.407   4.705
13777W        W85503  29.600   0.218   0.736
13778W        W85504  44.094   6.694   2.666
13779W        W85505  34.391  43.097   2.920
13780W        W85506  17.742   1.497  14.945
13781W        W85507  12.671  20.132   2.878
13782W        W85508  35.995   2.469   2.814
13783W        W85509   0.270  17.798   1.266
13784W        W85510  39.924  35.862  12.910
13785W        W85511  26.950   1.170  11.935
13786W        W85512  21.739   9.857  12.050
13787W        W85513   3.406  33.167  13.329
13788W        W85514  32.006  32.171   4.223
13789W        W85515  14.073  43.710  12.104
13790W        W85516  23.009  19.404  14.710
13791W        W85517  33.631  28.923   2.323
13792W        W85518   6.658  44.448   2.906
13793W        W85519   7.302  17.225   4.121
13794W        W85520  12.361  28.488   2.133
13795W        W85521  34.198  18.244  12.584
13796W        W85522  12.310  17.190   0.916
13797W        W85523  16.454  41.552   2.012
13798W        W85524  10.866  21.053  13.062
13799W        W85525  25.253  36.826   1.318
13800W        W85526  24.737  32.504   0.978
13801W        W85527  40.470  20.065   4.609
13802W        W85528  14.856  30.031   3.540
13803W        W85529  34.517  32.345  13.801
13804W        W85530  18.725   9.030  13.803
13805W        W85531  18.658  11.020   2.759
13806W        W85532  38.942  19.236   0.467
13807W        W85533  20.522  23.996  10.829
13808W        W85534   2.827  37.180   1.316
13809W        W85535  32.441  23.548  14.492
13810W        W85536  11.174   4.252   1.904
13811W        W85537  16.128  15.329  12.034
13812W        W85538  35.771  10.428   0.329
13813W        W85539   8.218  11.287  11.255
13814W        W85540  43.406  34.102   1.294
13815W        W85541  15.649  12.133  12.553
13816W        W85542   4.193   1.719   2.729
13817W        W85543  23.743  32.079   2.608
13818W        W85544  36.358  16.180  13.012
13819W        W85545  31.614  22.739   2.861
13820W        W85546  10.778  12.664  13.610
13821W        W85547  41.985  28.133   4.477
13822W        W85548  14.763  16.548  12.065
13823W        W85549  27.179   9.227  10.844
13824W        W85550  22.249  36.320   2.269
13825W        W85551  17.657   9.032   2.139
13826W        W85552  10.315  16.930  11.068
13827W        W85553   3.413  43.647   0.486
13828W        W85554  22.626  17.478   4.167
13829W        W85555   8.888  32.630   1.335
13830W        W85556  19.744  30.457  14.298
13831W        W85557  31.805  13.700   1.341
13832W        W85558   6.113   3.888   0.759
13833W        W85559  10.107   8.127  14.409
13834W        W85560  31.014  39.122  11.576
13835W        W85561  31.389   4.530   0.477
13836W        W85562  18.800  23.690  10.730
13837W        W85563  31.593  14.340  13.826
13838W        W85564   8.771  33.134  14.429
13839W        W85565  34.884   6.397  13.269
13840W        W85566  37.074  22.402  11.175
13841W        W85567  39.564   3.341  12.861
13842W        W85568  29.440   6.651   2.599
13843W        W85569  20.927  31.089  13.775
13844W        W85570   2.359  27.546   3.755
13845W        W85571  33.888  11.507   2.126
13846W        W85572  12.392  37.592   4.308
13847W        W85573  39.139   5.495  11.419
13848W        W85574  27.441  17.125   0.375
13849W        W85575  25.585  25.240  13.842
13850W        W85576  35.535  36.483   3.194
13851W        W85577   5.885  23.269  11.072
13852W        W85578  31.488  40.997  10.297
13853W        W85579  41.680  38.831   1.831
13854W        W85580  17.243  18.133  11.942
13855W        W85581  34.806  15.081  10.787
13856W        W85582   6.670   4.867   3.826
13857W        W85583  16.749  14.280  11.614
13858W        W85584  21.571  14.051  12.874
13859W        W85585  20.658  37.803   1.773
13860W        W85586   5.206  31.878   4.602
13861W        W85587   0.903  31.273   0.412
13862W        W85588  43.238   5.939  14.761
13863W        W85589   6.468  24.723  13.377
13864W        W85590   4.429  33.741  14.821
13865W        W85591  31.609   5.786  12.882
13866W        W85592  31.126  13.250  11.581
13867W        W85593  14.513  39.265  14.778
13868W        W85594   1.850   0.980   2.286
13869W        W85595  10.924  12.322  10.893
13870W        W85596  14.706  38.486  13.512
13871W        W85597  37.503  13.602   1.433
13872W        W85598   6.654  19.805  11.558
13873W        W85599  22.323  12.608   4.963
13874W        W85600  30.654  19.836  12.253
13875W        W85601  20.155  34.481   4.684
13876W        W85602   5.633  28.099  10.270
13877W        W85603  30.609  17.644  12.095
13878W        W85604   3.299  21.208  14.551
13879W        W85605  15.764  44.949  11.163
13880W        W85606  34.609  38.362  14.483
13881W        W85607  33.496  33.959  11.258
13882W        W85608  18.522  43.252   4.892
13883W        W85609  29.567  31.473   2.291
13884W        W85610  27.654  36.352   1.434
13885W        W85611  13.618  30.103   3.345
13886W        W85612  24.228  43.077  14.906
13887W        W85613  10.668  21.794  11.702
13888W        W85614  32.305   6.645   0.012
13889W        W85615   6.001  19.001   1.359
13890W        W85616   8.837  23.139   9.869
13891W        W85617  32.376  23.659   1.320
13892W        W85618  37.416  10.842   0.649
13893W        W85619  42.688   1.729  13.570
13894W        W85620   8.121  40.220   2.795
13895W        W85621  15.739  20.266  12.030
13896W        W85622  44.038  12.524  12.976
13897W        W85623  13.218  13.083   3.664
13898W        W85624  10.637  36.365   4.818
13899W        W85625  39.581  28.962   2.863
13900W        W85626  38.976  20.031  10.194
13901W        W85627   2.870  14.149   1.847
13902W        W85628  17.767  14.977  12.859
13903W        W85629  37.077  22.588   2.768
13904W        W85630  12.212  38.902  14.997
13905W        W85631  29.190   1.402   2.267
13906W        W85632  11.686  39.368  14.028
13907W        W85633   7.949  40.306   1.003
13908W        W85634  28.502  29.252  13.917
13909W        W85635  31.824   0.453   0.748
13910W        W85636  27.218   3.178   3.563
13911W        W85637  16.670  42.661   2.560
13912W        W85638  16.637  36.569   2.943
13913W        W85639   2.411  42.708   5.024
13914W        W85640  35.874  10.085   2.865
13915W        W85641  19.671   5.371   4.198
13916W        W85642   8.369   6.072   2.739
13917W        W85643  32.815  20.010  13.914
13918W        W85644  43.984  14.384   1.161
13919W        W85645   7.078  14.078   0.050
13920W        W85646   6.468  33.059  11.198
13921W        W85647  11.263   2.718   0.420
13922W        W85648  25.944  44.114  12.474
13923W        W85649  22.682   4.103   1.314
13924W        W85650  11.118  11.742  14.288
13925W        W85651  31.516  25.705  11.998
13926W        W85652  21.744  11.568  11.455
13927W        W85653   9.885  19.620  12.036
13928W        W85654  40.191   3.565  10.349
13929W        W85655  27.654   7.304  11.386
13930W        W85656  14.857  37.376   3.132
13931W        W85657  27.258  11.917  12.488
13932W        W85658  22.967  31.340  12.911
13933W        W85659  23.103   8.131   0.003
13934W        W85660   6.526  38.657  14.014
13935W        W85661  25.319  41.994   4.717
13936W        W85662  16.328  22.648   1.465
13937W        W85663  23.123  11.336   1.273
13938W        W85664  23.398  20.623   0.290
13939W        W85665   8.150  39.937  10.624
13940W        W85666  43.778  22.602  11.933
13941W        W85667  40.531   7.707  11.443
13942W        W85668  31.905  11.763   3.084
13943W        W85669  10.627  20.103  12.086
13944W        W85670   0.725  13.132   0.857
13945W        W85671  34.099   4.864   4.992
13946W        W85672  25.440  19.162  11.472
13947W        W85673  36.221   4.149  12.414
13948W        W85674  34.989   0.395  13.287
13949W        W85675  17.177   0.710  13.443
13950W        W85676   0.756  27.764   0.390
13951W        W85677  11.311  19.506  11.427
13952W        W85678   0.015   8.973   5.046
13953W        W85679  11.298  42.940   2.890
13954W        W85680   6.383  37.192  10.679
13955W        W85681  37.007  31.676   2.172
13956W        W85682  23.110  29.184   4.577
13957W        W85683  13.346  41.927   1.683
13958W        W85684  13.200  33.849  13.997
13959W        W85685  28.398  37.590  11.182
13960W        W85686  14.637   7.379   4.315
13961W        W85687  19.209  12.776  12.499
13962W        W85688   0.530  18.596   1.636
13963W        W85689  19.320  16.307   0.864
13964W        W85690  18.219   2.233  14.442
13965W        W85691  31.486  11.093  11.983
13966W        W85692  16.607  44.535  12.616
13967W        W85693  29.551   7.846  13.857
13968W        W85694  26.202  30.195  12.359
13969W        W85695  39.243  36.902  11.583
13970W        W85696  37.021   7.508  14.263
13971W        W85697  36.483  32.698  14.748
13972W        W85698  18.772  15.802   3.091
13973W        W85699  22.696  33.715   3.142
13974W        W85700  30.214  30.786   0.336
13975W        W85701  41.480  25.726   3.842
13976W        W85702  12.254  32.879   3.619
13977W        W85703  22.691  38.469   2.139
13978W        W85704  34.499  32.257   2.362
13979W        W85705  37.232  41.422   4.216
13980W        W85706  31.841  32.414  14.458
13981W        W85707   0.307  23.515   4.102
13982W        W85708  34.262  17.117   4.132
13983W        W85709  43.328  10.247   3.765
13984W        W85710   0.723  26.138  12.087
13985W        W85711  17.860  28.093   3.773
13986W        W85712  19.903  40.716   0.456
13987W        W85713  37.080  37.408   2.372
13988W        W85714  33.309  34.430  12.829
13989W        W85715   0.025  38.424  13.420
13990W        W85716  17.274  38.365  12.118
13991W        W85717  15.163  44.872   0.013
13992W        W85718  15.826  42.461   2.764
13993W        W85719  21.125  24.112  12.006
13994W        W85720  11.186   8.536  12.358
13995W        W85721  16.237   7.681   4.084
13996W        W85722  19.095  37.310   1.461
13997W        W85723  30.029  25.799   3.603
13998W        W85724   8.314  25.097  14.807
13999W        W85725   7.285   8.807   2.490
14000W        W85726  28.666  23.670  12.840
14001W        W85727  19.869  31.663   0.354
14002W        W85728  10.466  14.328   0.826
14003W        W85729   2.838   1.096   1.630
14004W        W85730  40.555   8.921   3.625
14005W        W85731  30.012  12.834   3.835
14006W        W85732  36.913  39.425  11.221
14007W        W85733   3.743  10.098  13.873
14008W        W85734  29.510  44.434   2.801
14009W        W85735  19.521  36.107  13.761
14010W        W85736  30.114   4.307  10.519
14011W        W85737  19.667  10.301   4.509
14012W        W85738  18.020  15.615   0.713
14013W        W85739  40.835  30.966   2.947
14014W        W85740  35.604  35.573   3.207
14015W        W85741  42.413  18.162  14.965
14016W        W85742  32.983  44.585   4.540
14017W        W85743  43.052   8.361   0.835
14018W        W85744   7.670  42.368  11.623
14019W        W85745  30.447  21.237  14.413
14020W        W85746  42.365   3.627  12.584
14021W        W85747  39.145   4.691  12.484
14022W        W85748  43.393  25.138  13.219
14023W        W85749   5.408  15.295   0.537
14024W        W85750  17.106   1.125  12.563
14025W        W85751   9.157  44.300  12.450
14026W        W85752  26.898  16.438  11.606
14027W        W85753  24.988  37.902  14.844
14028W        W85754   8.855  38.540  11.077
14029W        W85755  20.225  25.685   0.382
14030W        W85756  33.534  39.138   3.872
14031W        W85757  17.581   0.626  10.660
14032W        W85758  28.389  34.083   4.135
14033W        W85759   1.517   0.198   1.375
14034W        W85760  44.398   4.044   0.324
14035W        W85761  10.926  28.470   4.210
14036W        W85762  14.297   9.800  10.416
14037W        W85763  14.420  42.666   3.933
14038W        W85764  40.224  17.929  12.552
14039W        W85765  32.185  42.079  10.635
14040W        W85766  15.034  38.842   2.592
14041W        W85767  42.301   7.944   4.370
14042W        W85768  23.543   4.181   0.231
14043W        W85769  37.499  40.265   2.188
14044W        W85770  33.501  40.386  11.995
14045W        W85771   7.444  17.598   0.919
14046W        W85772  11.618  36.567   2.378
14047W        W85773  40.062   9.712   1.417
14048W        W85774  28.717  42.051   1.195
14049W        W85775  17.819  11.615  14.993
14050W        W85776  40.849  28.683   0.853
14051W        W85777  30.042  34.380   0.956
14052W        W85778  27.109   8.671  11.534
14053W        W85779   4.101  29.666  14.866
14054W        W85780  19.651  41.359   2.853
14055W        W85781  13.198  32.432   2.917
14056W        W85782   0.463  12.977  12.496
14057W        W85783  28.357  16.110   4.687
14058W        W85784  14.589   1.938  12.569
14059W        W85785  15.203  31.340   3.745
14060W        W85786  41.568  14.043  14.148
14061W        W85787  39.506   5.378  13.727
14062W        W85788   8.106  32.084  10.608
14063W        W85789  12.838  24.986  14.346
14064W        W85790  37.368  38.320   3.630
14065W        W85791  28.726   5.398  13.070
14066W        W85792  20.399   1.775  10.639
14067W        W85793   6.818   6.623  12.416
14068W        W85794  33.616  23.203   1.461
14069W        W85795  30.087   3.274  11.268
14070W        W85796  28.611  25.277   3.643
14071W        W85797  25.667  29.495  13.793
14072W        W85798  11.845  13.110   3.251
14073W        W85799  23.985  19.188  11.726
14074W        W85800  31.628  44.375  14.713
14075W        W85801  24.598  37.583   0.298
14076W        W85802   3.197   7.490   2.128
14077W        W85803  42.898  28.446   4.909
14078W        W85804   7.313  14.155  13.547
14079W        W85805  11.100  37.378  11.214
14080W        W85806  35.949  21.118   2.690
14081W        W85807   4.530   5.756   1.812
14082W        W85808  27.607  25.804  12.559
14083W        W85809  38.990  31.577   3.823
14084W        W85810  33.870  44.470   4.606
14085W        W85811  16.819  38.492  14.956
14086W        W85812  12.749  21.092   0.333
14087W        W85813  23.070  17.628   1.353
14088W        W85814   5.280  16.208   3.134
14089W        W85815   6.286  24.107   1.557
14090W        W85816  43.864  34.209   0.353
14091W        W85817   0.810  15.668   4.715
14092W        W85818  26.648  23.626  10.891
14093W        W85819   0.501  21.513  11.556
14094W        W85820   9.582  38.807   1.880
14095W        W85821  28.962  24.500  14.621
14096W        W85822  20.077   1.442   3.199
14097W        W85823  16.167  44.688   3.151
14098W        W85824  41.533   9.275   1.379
14099W        W85825  38.477  19.723  14.810
14100W        W85826   5.401  12.217  13.656
14101W        W85827   4.787  35.321   4.579
14102W        W85828   8.645   4.882  11.981
14103W        W85829  13.448  13.220   1.315
14104W        W85830  32.897  21.334   4.181
14105W        W85831  20.753   3.979   1.737
14106W        W85832  27.443  38.824   0.879
14107W        W85833  37.075  38.318   4.058
14108W        W85834  15.687  34.779   1.916
14109W        W85835  11.599   4.472  14.401
14110W        W85836   4.175  30.952   3.818
14111W        W85837  17.272  34.698  11.549
14112W        W85838  27.740  39.592   1.192
14113W        W85839  21.511  19.272   1.402
14114W        W85840   3.857  27.816  14.886
14115W        W85841  16.035  18.247   3.080
14116W        W85842  40.510  38.259  13.489
14117W        W85843  16.309  29.247   0.642
14118W        W85844  10.086   2.535  11.848
14119W        W85845  27.744  20.893   3.333
14120W        W85846  20.625  44.040  10.585
14121W        W85847  21.796  14.776  10.666
14122W        W85848  14.606   6.255  13.201
14123W        W85849  26.240  22.889   1.770
14124W        W85850  41.914  43.410  10.500
14125W        W85851  22.292   7.727  14.811
14126W        W85852  12.383  19.976   2.424
14127W        W85853  16.649  24.226  13.405
14128W        W85854  24.654   9.777   2.209
14129W        W85855   0.456  11.551   1.657
14130W        W85856  23.557   6.078  12.049
14131W        W85857  37.096  40.919   2.773
14132W        W85858  22.245  35.889  12.896
14133W        W85859   8.343  41.125   2.579
14134W        W85860  20.451  28.132  11.669
14135W        W85861  40.086  42.344   0.035
14136W        W85862   4.683  16.585  14.656
14137W        W85863  43.534  40.384   2.683
14138W        W85864   9.816  11.887  14.035
14139W        W85865  41.350   9.177  13.872
14140W        W85866  43.444  29.766  14.922
14141W        W85867  12.398  21.718  10.984
14142W        W85868  19.068   9.615  13.979
14143W        W85869  25.099  36.491   0.947
14144W        W85870  41.419   4.237  10.568
14145W        W85871  11.614  14.236  13.840
14146W        W85872  31.878  38.128   0.409
14147W        W85873   1.821  16.046  13.704
14148W        W85874  15.262  25.306   2.077
14149W        W85875  30.351  16.663   1.317
14150W        W85876  27.697  43.102  14.847
14151W        W85877  37.961  22.779   0.985
14152W        W85878  33.435  26.540  14.508
14153W        W85879   4.980  30.526   0.441
14154W        W85880  26.623  41.009  14.911
14155W        W85881  43.004   4.031  14.810
14156W        W85882  44.201  30.083  13.043
14157W        W85883  37.889  41.531   0.935
14158W        W85884   8.279  26.747   3.271
14159W        W85885   4.296  21.330  13.303
14160W        W85886   8.649  36.329   9.633
14161W        W85887  30.761   3.736  12.047
14162W        W85888  33.534  34.214   4.050
14163W        W85889  25.223  22.601  14.686
14164W        W85890   2.457  21.008  12.565
14165W        W85891  28.518  26.725  13.397
14166W        W85892  38.805  24.950   4.596
14167W        W85893  37.933  14.166  12.368
14168W        W85894  35.792  26.674  14.925
14169W        W85895  32.629   6.239  14.856
14170W        W85896  21.536   8.167  13.056
14171W        W85897   0.273   1.316   2.846
14172W        W85898  20.253  20.228   0.828
14173W        W85899  26.985  22.166  11.201
14174W        W85900  36.362   4.418   0.564
14175W        W85901  37.509   3.348   2.962
14176W        W85902  40.955  34.199   3.813
14177W        W85903  25.490  43.049  10.272
14178W        W85904  15.283   0.289   2.659
14179W        W85905  43.904  10.757   0.803
14180W        W85906  18.550  39.299  11.446
14181W        W85907  44.345  37.452  11.199
14182W        W85908  30.617  39.048  10.982
14183W        W85909  30.014  36.455  11.496
14184W        W85910  27.650  28.671   4.409
14185W        W85911   8.123  11.729  14.788
14186W        W85912  34.847  37.796   4.529
14187W        W85913  11.640  42.800   5.041
14188W        W85914   3.325  18.869  14.599
14189W        W85915  19.074  33.979  14.443
14190W        W85916  33.012   4.521   0.772
14191W        W85917   1.510  27.110  12.791
14192W        W85918  38.992  14.259  13.010
14193W        W85919  16.710   9.958   1.252
14194W        W85920  35.312  30.361   1.865
14195W        W85921  41.762  29.147   4.555
14196W        W85922   6.295  11.785  14.459
14197W        W85923  32.372  12.396   0.449
14198W        W85924  17.515  36.841   1.710
14199W        W85925  33.141   5.246  14.348
14200W        W85926  28.065  22.467   3.257
14201W        W85927  20.076  38.775   0.301
14202W        W85928  18.914  24.538   0.735
14203W        W85929  22.345  13.631   0.543
14204W        W85930  44.920  21.712   0.212
14205W        W85931  19.775  41.028   1.877
14206W        W85932  24.950  30.438  13.135
14207W        W85933   3.678   1.487   1.839
14208W        W85934  35.868  41.432  12.140
14209W        W85935   5.356  15.828  13.383
14210W        W85936  25.173  24.002   3.684
14211W        W85937   3.400  14.726  10.894
14212W        W85938  42.985  10.666  10.510
14213W        W85939  15.582  35.896   1.324
14214W        W85940   8.791  17.302   1.315
14215W        W85941  25.590  44.394   4.234
14216W        W85942  11.647  16.261  10.667
14217W        W85943  10.761  12.163   1.396
14218W        W85944   2.294  12.104   0.420
14219W        W85945  37.232  42.982   3.565
14220W        W85946  28.670  43.249  13.554
14221W        W85947   9.681  32.317   0.727
14222W        W85948  13.785   6.039  12.908
14223W        W85949   8.682  11.889   4.255
14224W        W85950  25.532  19.221  13.352
14225W        W85951  22.691  15.310   2.205
14226W        W85952  22.244  41.247   0.331
14227W        W85953  24.027   2.204  12.960
14228W        W85954  14.191  29.201   3.253
14229W        W85955  34.074  16.786  13.210
14230W        W85956  27.689   5.850   1.280
14231W        W85957  29.712  27.983  12.133
14232W        W85958  29.806  44.956  14.359
14233W        W85959  28.614  17.561  11.103
14234W        W85960  25.178  15.642  13.494
14235W        W85961  11.896  37.035   3.889
14236W        W85962  35.954  18.515   3.099
14237W        W85963  18.329  35.016  12.047
14238W        W85964  13.859  44.931   3.588
14239W        W85965  44.821   3.864  11.445
14240W        W85966  33.810  42.462  14.007
14241W        W85967  29.142  10.382  11.632
14242W        W85968  24.020  20.258   0.812
14243W        W85969  40.731  44.432   1.681
14244W        W85970  13.748  17.038  14.652
14245W        W85971  28.024   1.845   4.577
14246W        W85972  17.268   6.667   1.580
14247W        W85973  17.038  12.650  10.302
14248W        W85974   5.531  14.349   3.076
14249W        W85975  20.546  16.203  14.039
14250W        W85976  39.275   6.604  11.660
14251W        W85977  36.353  22.590   1.675
14252W        W85978  24.721  34.799  14.336
14253W        W85979  13.719  41.905   0.371
14254W        W85980   0.767  38.843   2.684
14255W        W85981  16.110   3.433   4.780
14256W        W85982  22.684   7.632   4.565
14257W        W85983  40.459  10.440   2.405
14258W        W85984  43.972  34.404  13.918
14259W        W85985  25.229  43.491   4.128
14260W        W85986  30.068  34.558  14.830
14261W        W85987  42.372  27.792   4.533
14262W        W85988  27.217   1.440   5.643
14263W        W85989  37.580  18.072   1.850
14264W        W85990  44.882  32.339   3.269
14265W        W85991  28.083  12.290  13.379
14266W        W85992   4.925   4.555   4.534
14267W        W85993  23.442  24.935   3.257
14268W        W85994   6.917  10.026  11.891
14269W        W85995  41.447   1.011   0.343
14270W        W85996  33.592  44.886  14.945
14271W        W85997  41.328  39.156  14.447
14272W        W85998   9.164   3.299  11.669
14273W        W85999  37.439  30.476   0.308
14274W        W86000  32.638  35.621  13.528
14275W        W86001  43.663  27.887  11.509
14276W        W86002  11.040  42.080   2.892
14277W        W86003  25.787  19.849   1.054
14278W        W86004   5.353  11.560  14.954
14279W        W86005  18.176  40.514   2.912
14280W        W86006  36.468  33.097   1.955
14281W        W86007  23.377  27.923   9.777
14282W        W86008   9.309  24.668   0.048
14283W        W86009  21.698  10.107   3.435
14284W        W86010  30.251  37.525  13.388
14285W        W86011   3.558   9.603  11.138
14286W        W86012  36.526  25.088  12.625
14287W        W86013   7.223   1.147  14.192
14288W        W86014  26.938  21.649   4.147
14289W        W86015   5.480  38.494  11.627
14290W        W86016  18.645   9.781  10.951
14291W        W86017   9.168  20.120  11.141
14292W        W86018   8.805  12.020   1.562
14293W        W86019  30.972  30.347  12.624
14294W        W86020  35.605  16.171  11.464
14295W        W86021  30.006  23.150   3.730
14296W        W86022   2.012   2.758   1.176
14297W        W86023  26.690  14.632   2.467
14298W        W86024  18.127  14.707   2.313
14299W        W86025  44.413  10.696   0.918
14300W        W86026  24.628  41.938   2.653
14301W        W86027  31.190  10.765  13.485
14302W        W86028  19.239  35.368  13.756
14303W        W86029  14.369   8.372  11.179
14304W        W86030   7.762  30.352  14.783
14305W        W86031   4.610  30.574   0.093
14306W        W86032  16.174  43.384  13.743
14307W        W86033  35.030  37.484   0.755
14308W        W86034  22.603  23.159   3.561
14309W        W86035  25.209  20.739  14.944
14310W        W86036  11.778  15.859   4.626
14311W        W86037  38.962  17.186   3.658
14312W        W86038  36.890  25.619  14.802
14313W        W86039   2.442  21.627   2.894
14314W        W86040  33.143  32.013   3.870
14315W        W86041  33.147  40.458  12.479
14316W        W86042  17.969  22.092   3.703
14317W        W86043  40.026  27.810   2.342
14318W        W86044   8.183  40.315  14.152
14319W        W86045  15.205  32.048  10.505
14320W        W86046  37.457  28.845  12.934
14321W        W86047  22.734  41.010  14.841
14322W        W86048   3.776  26.397  14.831
14323W        W86049  16.758  20.173  14.868
14324W        W86050   0.869  22.727  12.491
14325W        W86051  34.144  42.869  12.373
14326W        W86052   7.884  17.324  11.675
14327W        W86053  18.613  20.434   4.111
14328W        W86054  41.470  33.080  10.753
14329W        W86055  38.190  23.073   4.514
14330W        W86056  20.035   8.262  14.882
14331W        W86057  41.392  34.463  11.168
14332W        W86058  28.660  23.712   1.850
14333W        W86059  27.089  30.449   3.203
14334W        W86060   7.827   3.281  11.187
14335W        W86061  27.492  33.730  12.835
14336W        W86062  26.022  13.100  13.728
14337W        W86063  42.415   1.712   3.381
14338W        W86064   8.118   7.862   3.618
14339W        W86065  26.974   5.789  13.848
14340W        W86066  14.610  42.817  12.893
14341W        W86067  30.734  30.479   2.994
14342W        W86068  20.613  22.057  11.620
14343W        W86069   8.407  39.113  12.056
14344W        W86070  22.148  25.039  13.925
14345W        W86071  13.856  12.165  12.052
14346W        W86072   4.737   3.978  14.699
14347W        W86073  26.449  34.407   4.713
14348W        W86074   3.243   7.300   1.631
14349W        W86075   9.617  19.589  13.020
14350W        W86076  38.934   4.961   0.333
14351W        W86077  20.097  39.320   0.284
14352W        W86078  19.507  13.255   4.202
14353W        W86079  43.199  40.853   1.740
14354W        W86080  40.940  33.944   3.336
14355W        W86081  13.824  40.806  11.117
14356W        W86082   5.803  19.787   1.724
14357W        W86083  25.561  25.808  12.101
14358W        W86084   6.383  26.419  13.518
14359W        W86085  25.244  12.588  13.391
14360W        W86086  12.789  14.228   1.720
14361W        W86087  34.545   9.811   1.168
14362W        W86088  19.088  44.748   0.732
14363W        W86089  18.081   1.908  12.049
14364W        W86090  26.387   1.332   9.656
14365W        W86091  22.116   5.866   4.667
14366W        W86092  30.137   0.344   1.428
14367W        W86093   5.189  23.474  13.897
14368W        W86094  13.005  43.399  12.641
14369W        W86095  21.569  16.942   2.734
14370W        W86096  42.260  26.408   1.353
14371W        W86097  40.805  23.074   4.658
14372W        W86098   2.007  41.745   5.026
14373W        W86099  18.355   2.000  14.894
14374W        W86100   1.806  17.728  12.688
14375W        W86101  20.340  21.662   1.306
14376W        W86102  16.377  29.341  13.876
14377W        W86103  36.988  11.652  11.663
14378W        W86104  14.221  27.897  13.000
14379W        W86105  22.976  36.448   0.455
14380W        W86106  40.014  32.384   0.868
14381W        W86107  31.412   8.899  12.124
14382W        W86108  20.294   5.357  14.306
14383W        W86109  41.854  13.591  10.825
14384W        W86110  36.075  14.357  14.876
14385W        W86111  20.087   0.818  14.359
14386W        W86112  27.872  23.312   3.208
14387W        W86113   5.604   6.292  14.478
14388W        W86114  32.378  18.557  12.113
14389W        W86115   4.849   5.740  14.971
14390W        W86116  31.966  15.103   1.490
14391W        W86117  27.265  43.625  12.133
14392W        W86118  14.149  27.095   3.380
14393W        W86119  19.461   6.278   3.677
14394W        W86120  21.160   2.390   0.961
14395W        W86121  40.886   6.299   0.876
14396W        W86122  39.865   8.124  11.099
14397W        W86123  34.649  35.562  14.842
14398W        W86124  42.458  29.682   4.114
14399W        W86125  26.703  26.634   3.560
14400W        W86126  16.279   8.972  10.681
14401W        W86127  33.576  43.496   3.825
14402W        W86128   0.497  26.776  11.045
14403W        W86129  41.822  26.095  13.911
14404W        W86130  27.150   2.356  12.872
14405W        W86131  37.570  10.328   3.372
14406W        W86132  18.969  22.096  14.793
14407W        W86133  34.397   4.384  11.912
14408W        W86134   8.423   4.411  13.131
14409W        W86135  33.508   4.711  14.935
14410W        W86136  23.759  14.123  11.928
14411W        W86137  41.648  44.749  11.076
14412W        W86138  15.704  27.678  14.022
14413W        W86139  18.195   2.557  13.033
14414W        W86140  17.365   2.251   1.187
14415W        W86141  31.529  37.091  10.628
14416W        W86142  39.421  12.539  12.483
14417W        W86143  24.686   0.705  14.783
14418W        W86144  13.178  35.317  14.113
14419W        W86145  20.068   7.901  12.173
14420W        W86146   6.417  38.624   4.607
14421W        W86147  25.891  32.685  13.846
14422W        W86148   3.203   1.728  12.016
14423W        W86149  42.293  32.439   0.950
14424W        W86150  20.743  39.477  13.319
14425W        W86151  24.428  34.135  12.992
14426W        W86152  18.340  31.109   3.943
14427W        W86153  23.093   4.670  11.925
14428W        W86154  17.622  20.027  11.569
14429W        W86155  18.172  29.700  11.250
14430W        W86156  25.658  23.302   3.819
14431W        W86157  13.538  15.661   0.892
14432W        W86158  20.687  42.877   3.749
14433W        W86159  28.586   9.682   1.081
14434W        W86160   5.843  16.862   1.863
14435W        W86161  39.991  26.971  13.400
14436W        W86162  35.907  18.508  12.069
14437W        W86163  22.513  44.581   2.264
14438W        W86164  35.571  40.791   3.529
14439W        W86165  19.265  44.336  11.146
14440W        W86166  13.334  26.774  13.549
14441W        W86167  24.187   6.261   4.132
14442W        W86168  42.429   8.460   4.397
14443W        W86169  15.662  19.143   0.314
14444W        W86170   7.866  27.067   3.372
14445W        W86171   8.511  28.159   4.104
14446W        W86172  32.535  20.265   0.728
14447W        W86173  22.162   9.942   3.251
14448W        W86174  29.230   2.235  13.381
14449W        W86175  26.015  17.861   1.388
14450W        W86176  36.253   5.372  11.546
14451W        W86177  28.472  38.524  13.720
14452W        W86178  44.481  27.020  13.316
14453W        W86179  18.178  17.518   3.058
14454W        W86180  42.682  16.645   1.108
14455W        W86181  20.769  15.981  12.137
14456W        W86182   4.764  35.316  11.417
14457W        W86183  26.046  29.546  13.095
14458W        W86184  43.719   3.079   2.089
14459W        W86185   2.463  43.392   1.401
14460W        W86186  35.107  12.841   1.540
14461W        W86187  44.735   3.074  13.535
14462W        W86188  14.842  33.549   2.251
14463W        W86189   4.179  30.603   4.207
14464W        W86190  19.342   0.710  13.584
14465W        W86191  16.053   6.600  13.517
14466W        W86192  43.273   9.485  13.070
14467W        W86193  18.693   0.487   2.638
14468W        W86194   8.075   9.327  11.623
14469W        W86195  34.871  14.524  12.494
14470W        W86196  20.196  14.877  14.902
14471W        W86197  26.139  13.627   3.621
14472W        W86198   8.381   7.757  12.445
14473W        W86199  16.345  37.937   4.588
14474W        W86200  18.046   5.368   1.294
14475W        W86201  43.848  22.116   2.826
14476W        W86202   0.382  35.186   4.844
14477W        W86203  13.330  20.647   1.409
14478W        W86204   7.892  40.936  12.015
14479W        W86205   1.396   1.508   3.037
14480W        W86206  18.145  17.704   0.617
14481W        W86207  28.083  39.352   3.858
14482W        W86208  35.548  32.171  10.691
14483W        W86209  38.603  18.273  10.549
14484W        W86210  40.592  22.726   1.727
14485W        W86211   7.457  26.565   3.617
14486W        W86212  24.231  39.470   0.267
14487W        W86213  23.781  22.147  12.578
14488W        W86214  13.972  43.917   2.288
14489W        W86215  24.002  36.363  12.445
14490W        W86216   0.423  14.127   1.008
14491W        W86217  17.695  43.758   3.666
14492W        W86218  35.931  23.236   1.273
14493W        W86219  21.830  24.588   5.789
14494W        W86220  34.877   6.893   3.321
14495W        W86221  17.024  23.939   1.908
14496W        W86222  40.902   2.750   0.135
14497W        W86223   3.837  13.128  12.439
14498W        W86224  29.374  29.145   4.560
14499W        W86225  44.972   0.200   2.456
14500W        W86226   1.577  22.187   0.282
14501W        W86227  43.796  38.076   2.572
14502W        W86228  14.720  18.788   4.645
14503W        W86229   8.911   5.368   4.127
14504W        W86230  10.026  21.277  11.599
14505W        W86231   7.278  13.713  13.159
14506W        W86232  21.580  24.938   3.568
14507W        W86233  37.837   5.993   0.935
14508W        W86234  29.937  10.684  11.201
14509W        W86235  36.330  14.129   1.185
14510W        W86236  15.233  15.378  11.891
14511W        W86237  26.685  35.367  14.526
14512W        W86238  32.590  21.527  12.528
14513W        W86239  38.974   3.882  11.625
14514W        W86240  13.119   6.218  11.528
14515W        W86241   1.263   1.638   4.799
14516W        W86242  17.999  10.119   3.858
14517W        W86243  37.785  19.718   2.240
14518W        W86244  37.344  31.904   1.013
14519W        W86245  22.071  26.313   5.298
14520W        W86246  17.079  25.635   2.645
14521W        W86247  18.593  39.774  11.614
14522W        W86248  25.898  12.374   2.721
14523W        W86249  37.958  20.131   0.399
14524W        W86250  21.610   9.088   3.242
14525W        W86251   5.471  28.446   0.841
14526W        W86252  29.063  44.445   4.172
14527W        W86253  34.471  24.575   3.184
14528W        W86254  17.076  11.931   4.209
14529W        W86255  23.263  25.405   4.652
14530W        W86256   6.295  18.108   3.809
14531W        W86257   0.752  33.543   1.985
14532W        W86258   7.418   8.809  13.921
14533W        W86259  35.179  15.228   1.986
14534W        W86260  19.851  16.442  11.862
14535W        W86261  42.353  17.241   1.443
14536W        W86262  34.370  35.750  12.705
14537W        W86263  30.553  30.474   0.538
14538W        W86264  27.190  34.955   2.885
14539W        W86265  36.281  10.430   0.472
14540W        W86266  28.854  28.941  11.992
14541W        W86267  10.425  25.174  13.945
14542W        W86268  20.023   0.006   3.997
14543W        W86269   1.469  17.123  14.073
14544W        W86270  43.530   9.084   2.337
14545W        W86271  42.631  42.626   3.772
14546W        W86272  14.219  39.904  10.124
14547W        W86273  14.217  41.244  11.719
14548W        W86274  36.766  32.053  14.226
14549W        W86275   9.188  25.684  10.714
14550W        W86276  21.618   9.582   4.762
14551W        W86277  13.826   7.181   2.018
14552W        W86278  26.209   5.881   4.640
14553W        W86279  20.493  12.113   3.734
14554W        W86280  13.671  31.526   4.630
14555W        W86281  39.239   3.456  13.868
14556W        W86282  18.341  38.629   3.701
14557W        W86283  21.287  35.488  12.861
14558W        W86284  18.904   5.800  14.609
14559W        W86285  32.330  18.726   4.699
14560W        W86286  44.315  39.480  14.574
14561W        W86287  21.927  42.108   0.397
14562W        W86288  44.792  31.126   2.748
14563W        W86289  21.299  10.277   0.067
14564W        W86290  23.066  13.922   4.766
14565W        W86291  26.062  13.836   1.849
14566W        W86292  19.195   4.733  13.974
14567W        W86293  29.455  30.708  10.284
14568W        W86294  37.576  42.912   1.853
14569W        W86295  10.769  33.851   2.159
14570W        W86296  35.458  33.044   2.369
14571W        W86297  40.498  26.162   2.786
14572W        W86298  33.216  37.809   0.704
14573W        W86299  29.119  17.848  11.976
14574W        W86300  33.908   5.365  13.848
14575W        W86301   2.947  10.635  11.147
14576W        W86302  31.277  42.093   9.771
14577W        W86303  41.795  15.863  13.067
14578W        W86304  44.439  12.985   5.021
14579W        W86305  17.778  39.929   9.793
14580W        W86306  38.459  16.384  14.622
14581W        W86307  42.577  18.750  14.255
14582W        W86308  23.033  26.559  13.912
14583W        W86309  19.199   2.911   1.424
14584W        W86310  27.891   6.821  11.554
14585W        W86311  16.758  30.642   4.137
14586W        W86312  19.208   8.737   2.405
14587W        W86313   5.742  11.833  12.820
14588W        W86314   3.848  33.408  14.173
14589W        W86315  37.990  40.793   1.382
14590W        W86316  19.663  34.153  12.990
14591W        W86317   6.769   2.715  11.938
14592W        W86318  24.796  16.792  12.228
14593W        W86319   3.841  39.422  12.641
14594W        W86320  14.854  18.172  12.942
14595W        W86321  19.063  11.876  13.422
14596W        W86322   3.234  17.845  10.732
14597W        W86323  30.456  17.625  14.996
14598W        W86324  43.949  43.682  10.942
14599W        W86325  27.017  43.871  14.301
14600W        W86326  20.683  27.869   5.030
14601W        W86327   3.416   3.853   0.188
14602W        W86328  12.728  44.334  14.191
14603W        W86329  41.914   2.770  14.381
14604W        W86330  13.386  30.471   0.527
14605W        W86331  22.207  39.616   4.098
14606W        W86332  27.993  36.446  13.446
14607W        W86333  24.181  21.539   2.138
14608W        W86334  42.440   9.893  12.527
14609W        W86335  33.992  43.974   9.655
14610W        W86336  28.623  21.079   2.870
14611W        W86337  41.510  27.732   3.816
14612W        W86338  28.410   6.793  12.484
14613W        W86339   7.875   3.267   3.075
14614W        W86340  25.890  36.901  11.915
14615W        W86341  43.847   4.958  10.261
14616W        W86342  25.859  15.281  14.483
14617W        W86343  14.658   9.300   0.440
14618W        W86344  38.040  14.536   1.224
14619W        W86345  43.047   4.682  10.408
14620W        W86346  42.570   0.763   2.250
14621W        W86347   3.525  37.433   4.680
14622W        W86348  19.562  21.831  13.068
14623W        W86349  32.150   8.789  12.513
14624W        W86350  40.225  17.220   1.898
14625W        W86351  28.375  40.582   1.534
14626W        W86352  29.389  18.790  14.027
14627W        W86353   0.471   8.274  10.334
14628W        W86354  35.064  12.518  11.541
14629W        W86355  14.679  36.856  10.624
14630W        W86356  18.207  18.665   3.070
14631W        W86357   5.208   9.078   1.113
14632W        W86358  26.591   2.130  14.565
14633W        W86359  39.431  44.914   4.082
14634W        W86360  11.386   1.295   4.549
14635W        W86361  30.706  40.105  11.589
14636W        W86362   0.890  30.500   1.228
14637W        W86363  18.818  27.723   2.761
14638W        W86364  41.913  41.130  10.119
14639W        W86365   5.154  10.102  13.488
14640W        W86366  33.310  32.827  12.245
14641W        W86367  22.230  36.018  11.370
14642W        W86368  28.235  13.830   2.635
14643W        W86369  32.195  36.208  10.692
14644W        W86370   9.446   8.960   0.701
14645W        W86371  12.754   0.400  11.570
14646W        W86372  32.936   4.148   4.458
14647W        W86373  18.478  11.385  12.084
14648W        W86374  32.148  29.372  14.920
14649W        W86375   4.247   1.916  12.449
14650W        W86376  38.912  10.862   3.653
14651W        W86377  30.375  22.820  13.022
14652W        W86378  23.665  21.240   2.885
14653W        W86379   4.221   1.784   3.696
14654W        W86380  37.780  14.774   4.268
14655W        W86381   0.526   2.935   4.930
14656W        W86382   0.087  12.269  12.940
14657W        W86383  13.408  35.491   1.241
14658W        W86384  43.005  24.054  14.526
14659W        W86385  39.943  29.933   2.771
14660W        W86386  10.858   5.075   4.275
14661W        W86387  14.647   1.224  12.936
14662W        W86388  16.637  22.915   0.474
14663W        W86389  22.250  10.424  12.633
14664W        W86390  33.464  39.564   3.568
14665W        W86391   0.505  27.171  14.834
14666W        W86392  13.738  23.701   4.183
14667W        W86393  17.459  40.003  10.213
14668W        W86394   5.307  28.876   2.143
14669W        W86395  43.940  22.714  11.482
14670W        W86396  22.130  24.884  14.524
14671W        W86397  12.295  28.352   1.149
14672W        W86398   8.951  36.507   5.023
14673W        W86399   2.756  35.352  11.183
14674W        W86400   9.415  25.955   5.214
14675W        W86401  38.887  41.071  12.806
14676W        W86402   0.502  32.546   1.986
14677W        W86403  34.796  20.648   2.403
14678W        W86404  27.345   7.681  11.625
14679W        W86405  17.156  23.647   0.536
14680W        W86406   3.326   3.626  14.287
14681W        W86407  41.528  36.436   2.182
14682W        W86408  43.975  25.490   0.028
14683W        W86409  13.599  44.845  13.443
14684W        W86410  32.615   7.653   3.590
14685W        W86411  35.276  17.871   2.785
14686W        W86412  34.393  44.110   2.676
14687W        W86413  41.663  20.722   2.367
14688W        W86414  44.458  19.208  12.381
14689W        W86415  21.357  39.847   4.099
14690W        W86416   5.134  43.327  14.090
14691W        W86417  41.354  41.252   0.043
14692W        W86418   2.820  17.683  11.628
14693W        W86419  15.013  18.562   1.205
14694W        W86420   8.717  29.224   0.002
14695W        W86421  42.693  33.851   0.952
14696W        W86422  10.262  18.429  11.241
14697W        W86423   1.508   5.231   3.163
14698W        W86424  33.196  34.417   1.196
14699W        W86425  43.222  44.387  13.465
14700W        W86426  26.850  35.966   3.697
14701W        W86427  35.040  18.021  13.079
14702W        W86428  41.467  13.086  11.588
14703W        W86429  40.280  31.392   4.182
14704W        W86430  32.141  23.974  11.881
14705W        W86431  32.384  42.451  14.722
14706W        W86432  34.042   9.197  12.697
14707W        W86433   3.016   5.167  12.174
14708W        W86434   2.260   0.302  10.191
14709W        W86435  19.805  38.496  13.081
14710W        W86436   7.372  44.548  11.660
14711W        W86437  42.791  32.645  12.089
14712W        W86438  42.607   6.251   4.913
14713W        W86439  42.759  11.287  12.379
14714W        W86440  43.602  35.323  10.725
14715W        W86441  29.938  37.185   2.834
14716W        W86442  13.644  40.849  14.739
14717W        W86443  28.932  15.247  12.558
14718W        W86444  11.384  30.520  14.420
14719W        W86445  23.413   5.676  13.417
14720W        W86446  12.204  32.162   0.341
14721W        W86447  15.565  44.719  12.124
14722W        W86448   1.274   2.073  14.968
14723W        W86449   2.373  32.047   1.192
14724W        W86450  12.883  36.145   0.959
14725W        W86451  25.117  38.901   1.823
14726W        W86452  31.664  15.074  12.143
14727W        W86453   7.937  19.361  10.480
14728W        W86454   1.020   9.579   0.364
14729W        W86455   7.657  21.719   2.796
14730W        W86456  41.564  42.542  14.504
14731W        W86457  38.929  15.484   1.269
14732W        W86458  16.074  22.976   2.267
14733W        W86459  19.528  16.409  11.388
14734W        W86460  33.816  41.933  13.100
14735W        W86461  23.215  15.001   3.615
14736W        W86462  34.403  26.896   0.344
14737W        W86463   5.461   9.273  14.723
14738W        W86464  15.278  39.964   3.650
14739W        W86465  27.825  26.206   3.230
14740W        W86466  11.742  33.536  13.122
14741W        W86467  19.015  44.650  14.322
14742W        W86468  44.264  31.179   4.085
14743W        W86469  20.553   3.029  12.773
14744W        W86470   9.738   9.762  13.556
14745W        W86471   0.822  16.339   0.192
14746W        W86472  44.462  11.610  13.826
14747W        W86473   5.912  28.199   0.673
14748W        W86474  20.041   4.922  14.533
14749W        W86475  25.912   9.406   0.757
14750W        W86476  31.591  13.003   4.893
14751W        W86477  11.385  44.048  12.273
14752W        W86478   6.200  31.621   4.409
14753W        W86479  11.066  44.503   4.458
14754W        W86480  42.865  26.461   5.102
14755W        W86481  29.405  27.097  12.378
14756W        W86482  10.721  22.216  14.192
14757W        W86483   1.168  35.022  14.308
14758W        W86484  13.657  32.654   2.729
14759W        W86485   1.049  14.485  12.489
14760W        W86486  20.270   6.263  14.869
14761W        W86487   0.843  44.435   3.703
14762W        W86488  44.698  15.722  12.017
14763W        W86489   8.109  19.048   4.089
14764W        W86490   6.662  21.666   3.667
14765W        W86491  18.470  44.246   3.240
14766W        W86492  14.072  39.671   4.981
14767W        W86493  20.528  13.012  12.090
14768W        W86494   9.963  39.251   1.891
14769W        W86495  22.234  11.473   0.021
14770W        W86496  14.820   7.713   3.115
14771W        W86497  17.512  37.942   1.850
14772W        W86498   5.297  16.510   4.097
14773W        W86499  41.443  30.596  11.543
14774W        W86500  29.207  41.383   1.687
14775W        W86501  10.838  27.353   0.885
14776W        W86502   0.220  32.265   5.012
14777W        W86503  22.497   0.711  12.844
14778W        W86504  27.991  44.505   2.779
14779W        W86505  37.695  13.758  11.109
14780W        W86506  11.683  33.414  11.569
14781W        W86507  16.126   4.365  14.045
14782W        W86508  34.630  44.901  12.510
14783W        W86509  10.083  39.173   5.047
14784W        W86510  12.620  16.581  14.441
14785W        W86511  30.990  31.195   3.711
14786W        W86512  19.549  29.406   4.581
14787W        W86513  33.924   5.044  14.954
14788W        W86514  38.579  29.525   2.333
14789W        W86515  32.533   1.344  13.064
14790W        W86516   2.044  39.930   3.664
14791W        W86517  44.658  33.418   3.198
14792W        W86518  40.061   1.872   0.376
14793W        W86519  20.401  35.535   1.449
14794W        W86520  28.077  22.692   2.780
14795W        W86521  32.140  30.681  10.793
14796W        W86522   1.283  38.178  12.953
14797W        W86523  23.001  38.442  14.264
14798W        W86524   8.004  19.064   2.277
14799W        W86525  41.841  44.588   1.203
14800W        W86526  37.996  43.693  14.389
14801W        W86527  12.183  11.823   0.189
14802W        W86528  27.650  31.467   4.603
14803W        W86529  13.262  25.161  11.970
14804W        W86530  15.232  44.239   2.999
14805W        W86531   1.435  40.782  12.235
14806W        W86532  26.863  35.276   0.421
14807W        W86533  35.552  32.076   4.601
14808W        W86534  41.340  31.867  11.161
14809W        W86535  27.449  20.733  11.293
14810W        W86536  10.845  43.013  13.252
14811W        W86537  27.560  31.926   2.431
14812W        W86538  28.473  27.083  14.762
14813W        W86539  27.771   0.785   2.255
14814W        W86540   5.171  12.466  10.298
14815W        W86541  41.804   0.866  11.677
14816W        W86542  29.050  24.639  12.190
14817W        W86543   6.939  10.692  12.391
14818W        W86544  13.988  21.425   2.764
14819W        W86545  36.429  44.533   0.095
14820W        W86546   2.217  12.086  10.519
14821W        W86547  24.142  29.465   3.129
14822W        W86548  13.673   5.829   0.355
14823W        W86549  19.201  29.767   3.587
14824W        W86550  31.385  31.237   2.698
14825W        W86551  16.237  30.934  14.775
14826W        W86552  37.980   6.764   3.340
14827W        W86553   4.447   7.874   2.588
14828W        W86554  40.866  19.126   4.796
14829W        W86555  22.105   8.626  13.984
14830W        W86556  17.195  19.540   2.768
14831W        W86557  16.392  33.077   4.529
14832W        W86558  40.266  32.619  11.907
14833W        W86559  38.099  25.989   3.178
14834W        W86560  20.519  25.299   1.977
14835W        W86561  31.875  21.548  13.975
14836W        W86562  21.360  22.721  10.629
14837W        W86563  30.181  24.606  13.347
14838W        W86564   7.691   7.129   9.956
14839W        W86565  16.798  37.521   2.333
14840W        W86566  41.561  27.169   1.903
14841W        W86567   1.134   6.996  13.092
14842W        W86568   2.295   8.837  12.108
14843W        W86569  23.448  11.178  14.011
14844W        W86570   0.452  42.388  10.747
14845W        W86571  32.705  15.283  14.273
14846W        W86572  19.436  22.602   2.190
14847W        W86573  17.532  31.503  13.976
14848W        W86574  34.802  22.447   2.397
14849W        W86575  15.112  39.948   4.130
14850W        W86576  36.574  19.567  11.111
14851W        W86577  11.356  40.228  10.791
14852W        W86578  28.896  26.895   0.430
14853W        W86579  32.954   5.922  14.557
14854W        W86580  13.341  22.562   0.019
14855W        W86581  44.761  26.507   3.290
14856W        W86582  37.026  26.003  13.479
14857W        W86583  32.129  26.396   2.690
14858W        W86584  19.686  30.289   2.939
14859W        W86585  25.710   0.291   0.273
14860W        W86586  43.398  43.230   3.771
14861W        W86587  26.589   5.637  14.449
14862W        W86588   2.395  18.071  14.877
14863W        W86589  19.570   7.789   4.561
14864W        W86590  12.788  12.830   1.818
14865W        W86591   3.290   8.734  14.468
14866W        W86592  26.260  15.806   0.437
14867W        W86593  44.721   6.494  12.851
14868W        W86594  44.861   9.651   2.679
14869W        W86595  11.966  11.128  14.684
14870W        W86596  22.455  32.510  11.405
14871W        W86597  22.955  13.791  14.771
14872W        W86598  10.631  38.054  11.523
14873W        W86599  39.291  32.462  11.726
14874W        W86600  37.469  12.761  14.417
14875W        W86601  38.486  30.626  12.063
14876W        W86602  18.749   2.722  10.784
14877W        W86603  19.808   1.937   3.704
14878W        W86604  15.662  17.779   1.815
14879W        W86605  41.257   3.552   0.455
14880W        W86606  31.631  28.645  13.375
14881W        W86607  31.251   2.789   3.203
14882W        W86608  28.661  10.126   3.698
14883W        W86609   1.795  39.782  10.845
14884W        W86610   7.802  30.387  10.003
14885W        W86611   4.967  22.682   1.733
14886W        W86612  14.594  27.073  13.808
14887W        W86613  12.163  21.036  12.490
14888W        W86614  14.607  38.995  13.506
14889W        W86615  37.453  31.197   2.818
14890W        W86616  17.557  15.259   2.750
14891W        W86617  19.581  42.551  14.112
14892W        W86618   3.851  39.147   2.827
14893W        W86619  43.769  40.043   1.751
14894W        W86620  29.401  10.074  13.074
14895W        W86621  44.321  37.068  10.684
14896W        W86622  26.551  27.527  12.544
14897W        W86623  28.210  13.160  12.967
14898W        W86624  20.206  16.627  14.064
14899W        W86625  30.768  43.032  10.520
14900W        W86626  43.022  13.554  14.687
14901W        W86627  30.594  20.917   1.782
14902W        W86628  24.043   1.854  14.325
14903W        W86629  26.494  13.361  14.815
14904W        W86630  15.039  29.387  12.658
14905W        W86631  31.741  15.573  14.336
14906W        W86632  23.055  13.286  11.183
14907W        W86633  26.733  41.347   1.516
14908W        W86634  25.233  26.404  14.414
14909W        W86635  19.188  27.699   1.818
14910W        W86636  19.633  36.720  12.076
14911W        W86637  18.740   7.393  13.073
14912W        W86638   6.835  23.552  11.633
14913W        W86639   9.286   3.572   4.212
14914W        W86640  40.081  22.004   4.640
14915W        W86641  24.545  40.341  12.417
14916W        W86642  34.645  23.726  14.628
14917W        W86643   0.162  17.257   3.648
14918W        W86644  29.968  15.634  11.573
14919W        W86645  36.966  44.910  10.569
14920W        W86646  24.240  33.686  12.021
14921W        W86647   1.960  30.210  13.937
14922W        W86648   6.304  42.387   2.427
14923W        W86649  18.579  28.702   0.492
14924W        W86650  29.465  36.679  14.514
14925W        W86651   1.885   7.859   2.673
14926W        W86652  14.202  40.609   4.952
14927W        W86653   5.347  21.373  12.946
14928W        W86654  17.150  28.306  11.412
14929W        W86655  41.625  28.471   5.009
14930W        W86656  13.905  16.536   0.897
14931W        W86657  14.106   3.693   1.928
14932W        W86658  30.517   4.427  14.037
14933W        W86659  28.707  19.180   0.716
14934W        W86660   8.589  15.349   1.676
14935W        W86661   6.990  30.744   3.714
14936W        W86662  42.330  22.191   2.640
14937W        W86663  14.192  38.020  12.828
14938W        W86664  19.753  18.038  14.471
14939W        W86665   8.235   6.193  11.663
14940W        W86666  36.253  29.799   1.308
14941W        W86667  22.518  24.277   1.729
14942W        W86668  42.382   6.947   3.774
14943W        W86669  44.447   8.692   0.879
14944W        W86670  14.698  23.021   2.378
14945W        W86671  42.008  25.546  11.907
14946W        W86672  14.249  22.933   1.453
14947W        W86673  42.105  24.247  12.371
14948W        W86674  11.716   0.791   1.803
14949W        W86675  42.275  28.100  13.120
14950W        W86676  17.739  29.717  10.526
14951W        W86677   8.083  20.753   2.795
14952W        W86678  44.773  10.792   1.273
14953W        W86679  22.496  13.211  13.414
14954W        W86680  31.607  32.461   2.221
14955W        W86681  29.961  32.556   3.575
14956W        W86682  39.303  10.714   3.322
14957W        W86683  30.421   1.960   2.862
14958W        W86684   4.298  19.800  11.504
14959W        W86685   4.627  27.997  14.408
14960W        W86686  17.762   1.880   0.412
14961W        W86687  34.686  22.408   1.506
14962W        W86688   8.053  12.127  11.182
14963W        W86689  42.319   0.163  14.861
14964W        W86690   6.418   4.487  10.506
14965W        W86691  14.132  26.068  14.340
14966W        W86692  43.838  19.328  10.441
14967W        W86693  31.493  11.609   3.743
14968W        W86694  29.413   0.887   3.246
14969W        W86695   2.541   4.422   0.669
14970W        W86696  38.577  26.157  13.934
14971W        W86697  34.791  20.538  14.577
14972W        W86698  30.081   3.916  14.660
14973W        W86699  17.076   0.981   3.371
14974W        W86700  33.915  25.022   2.852
14975W        W86701  42.875  31.024  12.494
14976W        W86702   9.627  29.951   2.650
14977W        W86703  35.902  44.456   1.364
14978W        W86704  12.783  30.339   0.921
14979W        W86705  13.207  35.339  12.475
14980W        W86706  34.404  30.679   0.034
14981W        W86707  38.983  33.757  14.356
14982W        W86708  20.688  25.710  14.475
14983W        W86709  31.242  10.287   0.408
14984W        W86710  31.598  28.859  12.915
14985W        W86711  38.620  14.818  11.015
14986W        W86712  38.484  24.234   1.488
14987W        W86713  32.803  13.092   0.939
14988W        W86714  36.262  24.038   3.640
14989W        W86715   2.967  23.102  11.086
14990W        W86716  20.733  30.103   1.827
14991W        W86717  42.014  35.444   4.198
14992W        W86718  16.824  37.310   0.523
14993W        W86719  27.508  25.577   4.139
14994W        W86720   3.852  34.174  12.693
14995W        W86721  27.067  43.197   1.717
14996W        W86722  21.169  44.900   0.778
14997W        W86723   3.546  35.386  11.714
14998W        W86724   6.381  35.852   0.325
14999W        W86725  31.403  42.296  12.533
15000W        W86726  33.519  19.530   0.880
15001W        W86727  33.632  35.303  11.093
15002W        W86728  27.496   3.755   2.929
15003W        W86729  26.138   7.253   1.788
15004W        W86730   6.677  32.453  10.494
15005W        W86731  33.443   2.472   0.022
15006W        W86732  14.298   6.421  12.113
15007W        W86733   1.580  28.491  12.959
15008W        W86734   3.701  41.444   2.473
15009W        W86735  42.873  13.696  13.277
15010W        W86736  18.823  14.666   0.242
15011W        W86737  22.730   0.299   0.041
15012W        W86738  30.931  13.048  13.747
15013W        W86739  30.040   0.765  14.184
15014W        W86740  34.375  27.537   0.493
15015W        W86741  38.121   4.790  12.480
15016W        W86742   4.245  13.415  12.554
15017W        W86743  35.319  39.744   0.747
15018W        W86744  30.574   5.157  14.784
15019W        W86745  28.300   2.395  13.588
15020W        W86746  28.089  10.711   0.796
15021W        W86747  38.257  19.718   0.278
15022W        W86748   5.808  16.847   0.477
15023W        W86749  27.147  21.746   0.265
15024W        W86750  19.287  13.281  12.468
15025W        W86751  36.299  41.568   4.078
15026W        W86752   3.227  27.603  14.342
15027W        W86753  38.696  38.827  11.787
15028W        W86754  44.788   0.932  10.749
15029W        W86755  11.007  27.490   2.706
15030W        W86756  23.239  34.580  11.667
15031W        W86757  17.724  44.276   3.689
15032W        W86758  31.587  32.078   0.761
15033W        W86759  31.467  44.586  11.481
15034W        W86760   2.845  11.464  13.414
15035W        W86761  31.878  42.063   1.880
15036W        W86762  23.976  34.549  14.923
15037W        W86763  17.285  24.621   0.213
15038W        W86764  37.379  12.910   0.952
15039W        W86765  14.105  29.673  11.164
15040W        W86766  14.912  19.262   2.868
15041W        W86767   8.267  11.817  13.095
15042W        W86768  32.610  38.617  14.373
15043W        W86769  42.023   6.115   1.220
15044W        W86770  38.118   8.551  13.473
15045W        W86771  29.163  10.205  11.147
15046W        W86772  38.878  25.175  11.119
15047W        W86773  39.812  17.678   2.878
15048W        W86774  40.218  35.098   1.407
15049W        W86775  31.734  18.665   1.233
15050W        W86776  33.125  22.109  12.973
15051W        W86777   3.012  40.247   2.599
15052W        W86778  28.519  22.455  11.145
15053W        W86779   9.637  42.504  10.621
15054W        W86780  34.752  25.951   3.151
15055W        W86781  31.081   8.614  14.744
15056W        W86782  29.402   1.244  12.402
15057W        W86783  10.312  43.732   0.855
15058W        W86784  27.998  15.381   0.472
15059W        W86785   1.449   6.671  14.919
15060W        W86786  44.358  41.230  11.376
15061W        W86787  30.432  23.083   4.044
15062W        W86788   2.902   0.672   4.344
15063W        W86789  44.074   1.969  13.882
15064W        W86790  16.739  34.548  14.809
15065W        W86791  18.154  21.334  14.794
15066W        W86792  30.572   8.231   1.980
15067W        W86793  44.002   0.612   4.157
15068W        W86794  28.492   1.854   2.620
15069W        W86795   9.755   6.373  13.998
15070W        W86796  23.105  43.078  14.393
15071W        W86797   4.362  18.805   0.311
15072W        W86798  21.522  38.543  10.628
15073W        W86799  26.951  36.802   1.339
15074W        W86800  18.060  11.594   4.177
15075W        W86801  10.418   7.442   3.819
15076W        W86802  28.067  32.418   2.778
15077W        W86803   2.306   2.183  12.910
15078W        W86804  17.725  28.515   1.116
15079W        W86805   3.216  44.961   0.899
15080W        W86806  21.132  15.957   5.125
15081W        W86807   4.763  28.285  12.052
15082W        W86808   7.230  31.132  12.346
15083W        W86809  41.142  29.955  10.715
15084W        W86810   7.222  44.733  12.108
15085W        W86811  44.255  41.858  10.562
15086W        W86812   1.398  43.847  14.613
15087W        W86813   4.318  25.939  11.855
15088W        W86814  13.362   9.100   1.864
15089W        W86815  40.753  31.388  12.077
15090W        W86816  15.849   6.270   0.126
15091W        W86817  42.875  27.512  13.418
15092W        W86818   6.921  15.386  13.000
15093W        W86819  37.825   9.884  12.945
15094W        W86820  29.595  15.760  14.383
15095W        W86821  40.546  44.847   4.520
15096W        W86822  11.773  19.264  14.146
15097W        W86823  32.350   0.919   1.682
15098W        W86824  37.431  35.024  10.680
15099W        W86825  11.721  26.915  11.131
15100W        W86826  25.217  39.884   1.952
15101W        W86827  13.571  26.477  13.218
15102W        W86828  14.876   0.537  11.187
15103W        W86829   9.791  19.264  11.177
15104W        W86830  38.112  35.824  10.624
15105W        W86831  34.427  24.729  10.435
15106W        W86832  20.024  35.175   1.444
15107W        W86833  44.848  31.659   1.596
15108W        W86834  20.313  24.155   1.255
15109W        W86835  11.267   0.371   4.128
15110W        W86836  24.969  40.018  11.148
15111W        W86837   2.422   4.805   1.479
15112W        W86838  29.405  38.553   2.620
15113W        W86839  39.963  42.758   0.302
15114W        W86840   3.351  13.305  14.989
15115W        W86841  41.300   7.740  12.962
15116W        W86842   5.408  37.155  11.647
15117W        W86843   1.761  35.219  11.061
15118W        W86844   2.275  16.067  10.794
15119W        W86845  16.194  16.478  11.066
15120W        W86846   5.206  24.074   4.505
15121W        W86847  32.028  29.765   1.816
15122W        W86848  19.711  41.061   0.932
15123W        W86849   7.853  29.634  11.097
15124W        W86850  30.262  44.545  11.926
15125W        W86851  24.668  17.735  14.855
15126W        W86852  13.012  33.932   2.369
15127W        W86853  29.339  11.876  10.707
15128W        W86854   2.945   3.707  12.073
15129W        W86855  15.801   4.400   1.817
15130W        W86856  17.367   3.831  10.922
15131W        W86857  25.905  32.440  12.924
15132W        W86858  27.455  20.813   0.109
15133W        W86859  30.115  35.967   3.197
15134W        W86860  18.295   8.869  11.616
15135W        W86861  27.665  10.961   4.934
15136W        W86862  22.108  41.508  11.107
15137W        W86863   4.250  38.970   3.650
15138W        W86864  20.386  11.829   0.356
15139W        W86865  43.393   8.905  11.429
15140W        W86866   9.955  10.357   4.938
15141W        W86867  29.166   0.243  14.481
15142W        W86868  40.980  39.691  13.054
15143W        W86869  29.831  17.545   1.852
15144W        W86870  30.439  18.637   0.690
15145W        W86871  43.899  16.082  12.422
15146W        W86872  38.915  22.270   0.748
15147W        W86873   5.106  44.037   3.083
15148W        W86874  27.004   4.413  11.035
15149W        W86875  30.898  28.582  13.848
15150W        W86876  19.442  16.765  11.908
15151W        W86877  21.252  28.918   3.931
15152W        W86878  39.468  40.082  12.674
15153W        W86879  31.045  43.353   2.431
15154W        W86880  12.004   0.154  11.240
15155W        W86881   3.828  19.954  11.636
15156W        W86882  27.662  21.462   1.418
15157W        W86883  19.271  27.581  11.787
15158W        W86884  27.116  19.838  14.435
15159W        W86885  27.590   6.150   0.309
15160W        W86886  16.739  42.502   1.166
15161W        W86887   6.882  43.938  14.231
15162W        W86888   0.215  40.835   3.682
15163W        W86889  44.821  36.809  14.324
15164W        W86890  26.149  23.382   1.734
15165W        W86891  11.469  26.644   3.670
15166W        W86892  42.963   4.990   5.155
15167W        W86893  23.003   6.108  11.116
15168W        W86894  10.258   8.644   4.659
15169W        W86895  41.671  43.879   4.400
15170W        W86896   2.853  15.131  12.557
15171W        W86897  39.960  27.217  10.719
15172W        W86898  34.054  16.676  13.732
15173W        W86899  25.606  33.135  14.889
15174W        W86900  15.794  22.630   1.390
15175W        W86901   2.294  20.852  13.033
15176W        W86902  39.039  12.053  10.972
15177W        W86903  19.307  16.241  12.905
15178W        W86904   5.736  14.636   2.667
15179W        W86905  26.136  24.397   4.643
15180W        W86906   2.292  17.656  12.970
15181W        W86907  39.890   3.434   0.486
15182W        W86908   8.955  42.391  14.818
15183W        W86909  24.754   0.088   4.519
15184W        W86910   2.334   1.088  12.568
15185W        W86911  18.753  27.361   3.124
15186W        W86912  17.680  44.160   4.802
15187W        W86913   6.176   2.015  10.571
15188W        W86914  12.829  37.570   0.999
15189W        W86915  36.754  41.314   4.064
15190W        W86916  22.979  28.114  10.524
15191W        W86917  14.708  22.589   3.223
15192W        W86918  11.318  44.374   1.940
15193W        W86919   0.263   6.006  13.534
15194W        W86920  44.828  19.800   2.018
15195W        W86921   1.793  10.463  11.604
15196W        W86922  36.082  10.264   3.308
15197W        W86923  27.726  34.748   4.067
15198W        W86924  11.489  36.654  14.852
15199W        W86925  32.166   8.769  11.239
15200W        W86926  40.385  24.094  12.562
15201W        W86927   2.630  30.127  12.567
15202W        W86928  39.014  30.878   9.789
15203W        W86929  38.188  13.959  13.525
15204W        W86930  44.442  17.004   4.161
15205W        W86931  31.086  14.779   4.111
15206W        W86932  17.094  24.953   1.772
15207W        W86933   3.439  44.168   0.557
15208W        W86934   5.087   4.498   2.650
15209W        W86935  17.100   2.850   3.549
15210W        W86936  21.965  28.124   3.149
15211W        W86937  14.811  26.644   2.991
15212W        W86938  28.029  14.205  14.680
15213W        W86939  39.512  12.051   2.704
15214W        W86940   0.554  24.683  14.845
15215W        W86941  14.047  15.190  10.496
15216W        W86942  40.356  44.494   2.758
15217W        W86943  22.816   7.029  14.451
15218W        W86944  39.595  12.783   2.802
15219W        W86945  27.528  11.568   0.277
15220W        W86946  28.736  10.193   0.396
15221W        W86947  37.958  23.094   0.194
15222W        W86948  41.537  44.123  10.418
15223W        W86949  34.549  12.533  11.598
15224W        W86950  14.295   7.524   1.421
15225W        W86951  16.221  38.140   3.730
15226W        W86952   0.609  35.070   2.656
15227W        W86953  21.708  37.369  10.084
15228W        W86954   6.145  26.018   2.384
15229W        W86955  28.442  22.321   0.467
15230W        W86956  43.027   1.317  12.769
15231W        W86957   3.616  13.700   0.911
15232W        W86958  15.144  30.157   3.111
15233W        W86959   5.464   2.354  11.053
15234W        W86960  32.451   1.640   2.873
15235W        W86961  32.925   7.300  10.994
15236W        W86962   8.679  17.642   3.369
15237W        W86963   6.679  20.588   2.177
15238W        W86964  24.421  16.264  13.033
15239W        W86965  10.170  10.560   4.517
15240W        W86966   3.816  36.121   3.267
15241W        W86967  28.759  16.018  11.051
15242W        W86968  18.494  17.752  13.483
15243W        W86969  31.828  11.216   3.660
15244W        W86970  29.712  21.716  14.011
15245W        W86971  34.415  20.224  14.794
15246W        W86972  12.227  12.589  13.502
15247W        W86973   9.303  20.330  10.677
15248W        W86974  12.145  16.138   1.414
15249W        W86975  26.276  38.869   4.588
15250W        W86976  12.110  38.834   3.713
15251W        W86977   7.053  18.380   4.407
15252W        W86978  37.575  38.163  10.654
15253W        W86979  44.294  18.965   1.414
15254W        W86980  33.426  27.772  10.188
15255W        W86981  13.556  11.908  14.948
15256W        W86982   5.853  35.020   1.209
15257W        W86983  13.064  37.262  10.747
15258W        W86984  37.514  40.411   0.654
15259W        W86985  30.476   0.276  11.419
15260W        W86986  35.542  21.022  10.742
15261W        W86987  30.154  26.890   4.148
15262W        W86988   0.866  18.886  14.188
15263W        W86989  33.363   0.395   2.729
15264W        W86990  38.490   4.026   0.577
15265W        W86991  37.640   0.762  14.850
15266W        W86992   0.476  40.870   4.176
15267W        W86993  44.299  39.107  10.673
15268W        W86994  29.517   5.010   3.368
15269W        W86995  24.145  42.260   1.268
15270W        W86996  24.522  30.138  13.289
15271W        W86997  37.081  43.669   4.554
15272W        W86998  11.890  28.234   0.868
15273W        W86999  44.870   1.380  12.538
15274W        W87000  15.306  39.522  14.862
15275W        W87001   8.575  17.102   5.002
15276W        W87002  11.882  42.440  11.535
15277W        W87003  44.018  23.232   2.282
15278W        W87004  33.493  10.302   1.916
15279W        W87005   6.359  12.753   0.273
15280W        W87006  10.893  34.822  11.534
15281W        W87007  27.157  41.883  14.948
15282W        W87008  43.949  35.115  14.398
15283W        W87009   2.114  34.422  13.078
15284W        W87010  42.484   7.249   0.987
15285W        W87011  18.188   5.338   2.809
15286W        W87012   4.861  15.390   4.513
15287W        W87013  13.158  31.420   4.712
15288W        W87014  41.945  27.462   3.720
15289W        W87015  21.702  32.043   1.071
15290W        W87016   1.232  44.428  12.558
15291W        W87017  11.342   5.848   1.861
15292W        W87018   4.935  21.195  11.450
15293W        W87019   9.166  33.075   1.493
15294W        W87020  41.021  40.306  12.491
15295W        W87021   1.000   6.951  14.964
15296W        W87022  40.387   2.175  12.391
15297W        W87023   4.286  10.639   0.507
15298W        W87024  42.529  15.100  13.840
15299W        W87025  19.498  27.035  11.506
15300W        W87026  18.835  43.078   0.413
15301W        W87027  39.333   6.312   3.817
15302W        W87028  31.668   5.850  14.256
15303W        W87029  10.654  34.578   4.833
15304W        W87030  44.460  15.044   1.848
15305W        W87031  44.209  25.118  14.756
15306W        W87032  34.082   9.729  12.809
15307W        W87033  32.499  20.395   3.296
15308W        W87034  22.166   4.475   3.258
15309W        W87035  38.372   8.488   4.692
15310W        W87036  20.483  26.567   0.418
15311W        W87037  15.823  37.171  13.059
15312W        W87038  42.994  21.680   2.318
15313W        W87039   7.833   3.798   1.413
15314W        W87040  30.480  17.800   4.132
15315W        W87041  31.855  20.358  11.601
15316W        W87042  29.967  13.607  13.425
15317W        W87043  27.413   3.238  14.311
15318W        W87044  44.255  35.048   1.481
15319W        W87045   8.695   7.671   1.929
15320W        W87046  26.249  21.022   3.577
15321W        W87047  31.455  15.111  11.050
15322W        W87048  36.774  37.409  14.319
15323W        W87049  24.031  20.018  11.950
15324W        W87050   8.940  34.287   1.123
15325W        W87051  25.498  36.116   3.082
15326W        W87052  14.175  15.120  11.420
15327W        W87053  26.480  26.164   3.620
15328W        W87054  19.426   9.097  14.553
15329W        W87055  41.664  25.595   4.770
15330W        W87056  19.247  39.670   3.491
15331W        W87057   1.980   0.961   0.867
15332W        W87058  29.348  40.431   1.258
15333W        W87059  43.295  32.204  10.982
15334W        W87060  15.368  11.369  13.292
15335W        W87061   0.103  19.577   2.810
15336W        W87062  29.919   7.212  13.764
15337W        W87063  29.194  14.599  11.118
15338W        W87064  31.190   7.578  11.082
15339W        W87065  20.272  13.841   1.228
15340W        W87066  23.551  15.330  14.364
15341W        W87067  31.427  41.681  14.459
15342W        W87068  43.809   5.853   3.078
15343W        W87069  44.504   4.655   0.170
15344W        W87070  32.686  13.892   0.323
15345W        W87071  13.804   9.369   1.224
15346W        W87072  31.117  33.954   1.780
15347W        W87073  31.453  11.442   4.622
15348W        W87074   4.442  44.705   3.790
15349W        W87075   7.705  20.953  12.580
15350W        W87076  42.930  38.292   1.960
15351W        W87077   0.917  23.610   0.541
15352W        W87078  43.712  31.478  11.136
15353W        W87079  31.002   3.758   0.156
15354W        W87080  21.496   9.704  11.169
15355W        W87081  35.391  32.340   2.644
15356W        W87082   0.520  22.014  12.227
15357W        W87083  40.388  36.960   4.673
15358W        W87084   3.382   6.830  14.479
15359W        W87085   0.021  42.003   1.462
15360W        W87086  19.805  29.733   0.061
15361W        W87087  42.031  42.576  12.350
15362W        W87088  32.978   6.702   2.403
15363W        W87089   5.927  15.291   3.297
15364W        W87090   7.401   2.880   1.406
15365W        W87091  21.776   8.975  13.124
15366W        W87092  18.168  12.178   2.161
15367W        W87093  43.972   5.963   2.136
15368W        W87094  17.707  24.068   0.872
15369W        W87095  10.603  30.215   4.557
15370W        W87096   2.486  14.104   4.568
15371W        W87097  43.579  10.114   4.213
15372W        W87098  16.734  32.375   1.197
15373W        W87099  28.364   2.774  12.414
15374W        W87100  42.797  36.012   1.663
15375W        W87101  24.618  39.691   1.945
15376W        W87102  27.653   8.612  12.755
15377W        W87103  25.433  17.972  12.104
15378W        W87104  26.454   2.426  12.516
15379W        W87105  34.756  13.215  14.773
15380W        W87106   6.484  10.449   2.888
15381W        W87107  26.980  38.800  13.993
15382W        W87108  35.084  35.468   2.313
15383W        W87109   7.008  41.860  12.582
15384W        W87110  32.175   3.336  14.978
15385W        W87111   1.176  21.345  11.711
15386W        W87112  36.496  23.082   4.256
15387W        W87113  40.027  30.207  11.174
15388W        W87114  23.935   7.543  12.485
15389W        W87115  18.132  27.074   2.962
15390W        W87116  29.998  37.581   3.680
15391W        W87117  31.950  24.938  12.867
15392W        W87118  16.789  24.140  12.899
15393W        W87119  24.814   8.258  12.621
15394W        W87120  39.540  11.043  14.736
15395W        W87121  21.421  13.589  13.043
15396W        W87122  40.160  16.011   3.171
15397W        W87123   8.420  17.761  10.957
15398W        W87124  29.372  25.196   1.245
15399W        W87125  27.724  29.058  14.385
15400W        W87126  15.831   7.820  14.786
15401W        W87127   7.658  23.477   1.284
15402W        W87128  18.241  41.747  13.923
15403W        W87129  33.335  41.229  14.360
15404W        W87130  28.411  41.388   2.673
15405W        W87131   9.168  12.903   4.270
15406W        W87132  16.215  35.063   4.568
15407W        W87133  25.530  14.411  14.413
15408W        W87134  35.023  43.434  11.652
15409W        W87135  43.464  16.283  14.072
15410W        W87136   4.458  13.668   1.875
15411W        W87137  25.517  26.217  11.814
15412W        W87138  21.403   2.724  12.599
15413W        W87139  15.926  35.485   4.672
15414W        W87140  20.153  40.155   3.752
15415W        W87141  30.977  33.872  10.232
15416W        W87142  44.807  34.310  10.751
15417W        W87143  32.975  31.113  13.008
15418W        W87144  36.615   0.267  12.561
15419W        W87145  41.464  19.673   0.359
15420W        W87146   9.019   3.815   0.209
15421W        W87147  26.677  18.091  14.462
15422W        W87148  27.251  14.250   1.351
15423W        W87149  33.287  17.669  13.007
15424W        W87150  12.896   4.365  14.118
15425W        W87151  21.798  22.269   4.544
15426W        W87152   5.883  19.528  14.374
15427W        W87153  41.317  40.769  12.541
15428W        W87154   9.335  32.495   3.808
15429W        W87155  39.850  12.780  12.851
15430W        W87156  11.657  30.735  12.583
15431W        W87157  10.269   8.378  14.872
15432W        W87158  21.740  13.517   4.156
15433W        W87159  28.093  42.256   1.797
15434W        W87160  22.748  33.085  12.666
15435W        W87161  11.097  17.353  14.122
15436W        W87162   9.973  26.084  11.865
15437W        W87163  20.529  12.117  14.885
15438W        W87164  22.982  39.342  11.474
15439W        W87165  36.385  38.735   2.240
15440W        W87166  24.178  35.511  11.980
15441W        W87167  15.077  34.008  12.298
15442W        W87168   7.188  35.013  13.896
15443W        W87169   6.327  13.687   0.657
15444W        W87170   7.178  41.532  10.956
15445W        W87171  18.589  23.248  10.596
15446W        W87172   6.742  34.441   3.397
15447W        W87173   3.732  20.930  14.578
15448W        W87174   2.961  16.806  11.592
15449W        W87175   7.466  19.332  12.570
15450W        W87176  11.069  27.320   4.118
15451W        W87177  40.443  31.881   3.688
15452W        W87178  11.803  17.377  13.997
15453W        W87179  33.631  28.148   3.027
15454W        W87180  33.872  28.894  12.508
15455W        W87181  11.142   4.252  14.328
15456W        W87182  36.839  24.614  11.909
15457W        W87183  40.753  24.989   2.717
15458W        W87184  42.350  42.630  10.634
15459W        W87185  33.870  21.965  10.600
15460W        W87186  28.611  41.787   2.940
15461W        W87187  10.389  42.655   9.991
15462W        W87188   9.366  33.091   5.400
15463W        W87189  35.673  34.614  11.932
15464W        W87190   9.881   4.951   1.740
15465W        W87191  23.816  31.804  11.915
15466W        W87192  10.666  26.694  12.414
15467W        W87193  39.305  15.225   0.412
15468W        W87194  23.573  10.692  14.956
15469W        W87195  25.507  18.487  12.152
15470W        W87196  19.846  27.994   1.888
15471W        W87197  16.333   0.840   0.943
15472W        W87198  34.859  18.103  14.851
15473W        W87199  18.078   6.004   1.751
15474W        W87200  26.223  11.868  11.341
15475W        W87201  16.142   2.529   3.786
15476W        W87202  34.022  38.873   3.636
15477W        W87203  39.318  24.199   4.579
15478W        W87204  29.660  32.546   2.300
15479W        W87205  17.679  22.626   1.820
15480W        W87206   1.886   5.759  13.570
15481W        W87207   5.758  35.483   2.192
15482W        W87208  17.169  31.635   4.620
15483W        W87209  37.141   7.905  13.926
15484W        W87210  42.006   0.882   1.464
15485W        W87211   7.261  17.330  10.377
15486W        W87212  20.157   0.848  11.823
15487W        W87213  21.064  19.754  14.831
15488W        W87214   5.455  29.501  11.594
15489W        W87215  29.105  31.858  11.093
15490W        W87216  12.343  19.203  14.994
15491W        W87217   0.873  18.351  12.194
15492W        W87218  18.557   4.893  14.545
15493W        W87219   5.540  19.716   4.578
15494W        W87220   5.820  11.210   2.698
15495W        W87221  15.566  42.947   1.136
15496W        W87222  30.878  11.756  13.310
15497W        W87223  26.216  32.069   0.876
15498W        W87224  21.783  23.612  10.449
15499W        W87225  34.915  31.013  12.948
15500W        W87226  17.671  12.912   4.611
15501W        W87227  11.467  25.486   2.895
15502W        W87228  23.448  23.620  10.719
15503W        W87229   4.984   9.100  11.882
15504W        W87230  33.780  34.217  12.205
15505W        W87231  41.510  24.071   0.781
15506W        W87232  28.842   8.941   2.237
15507W        W87233  17.077  17.604   0.590
15508W        W87234  21.763  16.080  11.446
15509W        W87235  24.524  27.331  14.278
15510W        W87236  20.356  37.337   1.693
15511W        W87237  37.625  21.189   2.301
15512W        W87238  26.239  42.832  11.594
15513W        W87239  39.242   8.986   2.939
15514W        W87240  15.198   5.528  13.569
15515W        W87241  41.761  21.613  11.017
15516W        W87242  29.640  39.749  14.146
15517W        W87243  32.425  39.679  14.284
15518W        W87244  41.520  31.180   4.750
15519W        W87245   9.254  23.038  14.846
15520W        W87246  34.580  19.539   1.841
15521W        W87247  41.959  30.089   3.756
15522W        W87248   6.589  35.892  10.707
15523W        W87249   2.327  37.303  13.511
15524W        W87250  24.521   7.143   2.210
15525W        W87251  26.504  33.685   1.416
15526W        W87252  42.396  41.791   3.545
15527W        W87253  12.117  30.698   2.720
15528W        W87254  16.007  40.761   9.892
15529W        W87255  24.330   7.773  14.363
15530W        W87256  28.066  29.598   4.023
15531W        W87257  23.373  14.593  14.613
15532W        W87258   5.541  40.305   0.816
15533W        W87259  25.012  38.590  13.525
15534W        W87260  28.695  29.676  11.985
15535W        W87261  28.669  19.807   4.114
15536W        W87262   9.924  11.233  10.994
15537W        W87263  44.022   3.742   1.962
15538W        W87264  13.976  29.493  12.527
15539W        W87265  14.469  13.182   1.398
15540W        W87266  39.115  31.069  10.576
15541W        W87267  11.149  28.063  13.606
15542W        W87268   1.436  12.043   2.258
15543W        W87269  39.677  20.813  11.108
15544W        W87270  18.787  34.962   0.101
15545W        W87271  27.083  25.097   1.553
15546W        W87272  44.327   8.953   0.356
15547W        W87273   5.595  36.840  13.544
15548W        W87274  27.966  16.174  14.856
15549W        W87275   0.111  10.587  12.078
15550W        W87276   1.524  20.240   0.750
15551W        W87277  31.131  40.122   4.580
15552W        W87278  37.279  37.256  14.304
15553W        W87279   9.720  41.215  14.310
15554W        W87280   6.399  42.345  12.177
15555W        W87281  10.650  13.679  13.421
15556W        W87282  34.994  22.663   4.532
15557W        W87283   3.213  18.341  10.600
15558W        W87284  24.572   9.634   0.768
15559W        W87285  31.003  14.123   1.835
15560W        W87286  10.085  38.091   2.275
15561W        W87287  44.894   9.867  12.568
15562W        W87288  42.505  24.222   4.306
15563W        W87289  20.569   7.990   3.150
15564W        W87290  21.575  25.362  11.068
15565W        W87291  38.865  34.940   0.050
15566W        W87292  42.357   6.773   1.983
15567W        W87293  32.150   3.772  13.562
15568W        W87294   6.376  15.664  14.482
15569W        W87295  17.457  23.039   0.799
15570W        W87296   4.624  22.612   3.198
15571W        W87297  27.443  38.440  14.360
15572W        W87298  20.684   2.429   0.239
15573W        W87299  36.569  23.986   4.063
15574W        W87300   3.698  23.700  11.203
15575W        W87301  28.991  14.467  13.992
15576W        W87302  17.604  11.643   1.880
15577W        W87303  19.687   7.901   2.347
15578W        W87304   1.174  21.179  12.951
15579W        W87305  10.019  21.613   0.274
15580W        W87306  33.791  38.334  11.189
15581W        W87307  10.650   1.835   4.528
15582W        W87308  38.036   0.991  10.662
15583W        W87309  12.909  35.759   3.081
15584W        W87310  44.941   4.820  14.867
15585W        W87311  19.650  42.866  12.049
15586W        W87312  14.355  11.212  13.478
15587W        W87313  37.341  16.178  12.065
15588W        W87314   8.246   4.223   1.774
15589W        W87315  36.774  10.329   0.611
15590W        W87316  31.090  30.342  10.134
15591W        W87317  10.326   3.705  14.503
15592W        W87318  33.595  34.568  11.887
15593W        W87319   8.092  11.847  14.279
15594W        W87320  39.298  26.074   3.687
15595W        W87321  19.222  38.982  11.961
15596W        W87322   6.871  38.188  11.016
15597W        W87323   9.665   3.285  12.447
15598W        W87324  30.565  22.251  14.835
15599W        W87325  21.124  27.501   1.842
15600W        W87326  37.688  34.078  10.950
15601W        W87327  26.822  27.647   2.602
15602W        W87328   0.123  41.790  13.249
15603W        W87329  17.925  42.644  12.606
15604W        W87330  12.406  28.999  12.182
15605W        W87331  25.458   2.849   4.772
15606W        W87332  20.983  23.497   3.574
15607W        W87333   8.625  22.702   3.940
15608W        W87334  37.279   4.387  11.058
15609W        W87335   5.183  43.291   4.595
15610W        W87336  21.404   1.099   2.194
15611W        W87337  32.174  22.499  11.250
15612W        W87338  34.458  17.606   1.814
15613W        W87339   0.292  14.047  14.032
15614W        W87340   1.158  22.183   3.236
15615W        W87341  43.010  22.138   0.413
15616W        W87342  31.351  14.096  12.068
15617W        W87343  24.273  23.931  12.918
15618W        W87344  14.225  23.949   2.462
15619W        W87345  18.009  39.830  13.778
15620W        W87346  37.280  39.940  11.940
15621W        W87347  34.142  29.514  13.795
15622W        W87348  26.628  16.311   0.845
15623W        W87349  37.094  44.772   1.766
15624W        W87350  39.846   9.783  11.549
15625W        W87351  21.145  42.904  12.566
15626W        W87352  13.696  36.815   2.754
15627W        W87353  40.662  35.528   2.653
15628W        W87354  17.616  40.765  11.530
15629W        W87355   9.644  42.450   1.109
15630W        W87356  27.487   3.970  13.503
15631W        W87357  39.057  18.797  11.489
15632W        W87358  27.833  33.526  11.057
15633W        W87359  27.586   1.289   1.469
15634W        W87360  41.217  17.864   4.189
15635W        W87361   6.505  27.807  13.427
15636W        W87362   9.779  42.163  14.049
15637W        W87363  44.672  39.524  14.958
15638W        W87364  15.596  22.115  12.079
15639W        W87365  35.040  29.636  10.515
15640W        W87366  26.091  30.664  14.310
15641W        W87367  37.793  11.662   2.292
15642W        W87368   3.413  43.870   3.813
15643W        W87369   3.799  14.183  14.016
15644W        W87370  20.068  11.891  14.961
15645W        W87371  39.536  17.059   3.672
15646W        W87372   4.343   0.928   0.622
15647W        W87373  41.101  13.456  13.017
15648W        W87374  21.770  40.398   0.339
15649W        W87375   2.227  15.929  14.575
15650W        W87376  24.012  39.955   0.056
15651W        W87377   3.458   0.450   3.201
15652W        W87378  28.415  28.910  10.645
15653W        W87379  13.701  26.702  13.914
15654W        W87380  44.293  12.553   1.001
15655W        W87381  12.163   9.720  13.018
15656W        W87382   8.397  25.273   4.745
15657W        W87383  29.626  44.335   0.381
15658W        W87384  36.477  21.674   0.225
15659W        W87385  42.380  38.807   1.402
15660W        W87386   4.735  26.092   0.397
15661W        W87387  40.386  15.655   9.929
15662W        W87388  35.754  17.629  11.573
15663W        W87389   5.208  42.238   4.641
15664W        W87390  37.791   1.844  14.223
15665W        W87391  17.402  34.143   0.471
15666W        W87392  14.450  29.160   4.770
15667W        W87393  13.324   9.895   4.128
15668W        W87394  39.802  40.748  14.782
15669W        W87395   4.229   6.912   0.283
15670W        W87396  21.755  22.517   0.899
15671W        W87397  37.124  36.367  13.428
15672W        W87398  19.241  13.602  11.603
15673W        W87399  26.124  44.540   3.544
15674W        W87400  39.541  34.424   1.441
15675W        W87401  30.533   8.194   2.754
15676W        W87402  17.259  25.434   4.216
15677W        W87403  35.070   4.512  14.246
15678W        W87404  38.948   7.336  10.697
15679W        W87405  24.241  11.809  11.083
15680W        W87406  13.413  11.433   1.232
15681W        W87407  26.678  34.153  13.914
15682W        W87408   3.711  31.835  13.315
15683W        W87409  28.262  18.204  12.182
15684W        W87410   5.190  33.697   2.841
15685W        W87411   8.588   6.373  14.653
15686W        W87412  36.858  15.873   2.134
15687W        W87413  35.386  11.974   2.985
15688W        W87414  26.027  21.855  14.403
15689W        W87415  27.727   6.765  13.765
15690W        W87416  39.977  28.573   3.298
15691W        W87417  21.606  11.858  12.895
15692W        W87418  39.091  21.739  14.344
15693W        W87419  35.127  34.706  13.900
15694W        W87420  22.651   6.532  11.318
15695W        W87421   4.632  20.191   2.809
15696W        W87422  29.669  25.736  12.023
15697W        W87423  42.497   8.887   0.315
15698W        W87424  28.626  40.951   4.606
15699W        W87425  41.838  30.630  11.872
15700W        W87426   7.861  34.252   2.681
15701W        W87427  27.670   2.443  12.104
15702W        W87428  14.380  24.212   5.135
15703W        W87429   9.759  40.922   4.878
15704W        W87430  42.065  19.422   2.179
15705W        W87431  43.198  18.830   0.260
15706W        W87432  19.786   1.817  11.738
15707W        W87433  31.519   0.198   1.442
15708W        W87434  29.401  18.313  11.968
15709W        W87435  31.968  23.666  11.496
15710W        W87436  29.013   5.174   3.297
15711W        W87437  22.841  41.878  12.020
15712W        W87438  12.119   2.425   3.854
15713W        W87439   9.288  18.674  11.566
15714W        W87440   2.191  42.076   1.668
15715W        W87441  36.140  20.001   0.347
15716W        W87442  33.816   6.775  13.892
15717W        W87443   9.925   6.357  13.063
15718W        W87444  40.325   8.330   2.932
15719W        W87445   6.318  13.560   3.195
15720W        W87446  36.209  37.675   1.238
15721W        W87447  14.782  27.551   0.830
15722W        W87448  35.583  34.347  11.491
15723W        W87449  32.719  39.711  13.856
15724W        W87450  39.371  18.733  11.943
15725W        W87451   0.669  16.963  14.466
15726W        W87452  17.361  28.102   3.688
15727W        W87453  34.600   3.475   4.615
15728W        W87454  20.273  43.564  14.815
15729W        W87455  24.691   6.887   4.550
15730W        W87456   1.761  26.665  14.221
15731W        W87457  13.718  42.871   5.220
15732W        W87458  32.029  33.688  11.818
15733W        W87459   1.850   8.474  11.077
15734W        W87460  26.794  27.881   3.648
15735W        W87461   7.492   6.684   4.591
15736W        W87462  29.368   0.225  12.595
15737W        W87463  13.700  21.159  14.348
15738W        W87464  23.536  44.229   0.777
15739W        W87465  36.544   9.595   0.039
15740W        W87466  13.182  39.001   2.788
15741W        W87467  15.442  23.926   1.243
15742W        W87468  28.864  27.525  13.022
15743W        W87469  18.347   9.185   3.345
15744W        W87470  11.583  40.781  14.555
15745W        W87471  43.075  12.365   0.215
15746W        W87472  42.930  11.294   4.202
15747W        W87473  12.717  24.021   2.860
15748W        W87474   3.437  32.688  11.977
15749W        W87475  14.090  24.730   2.170
15750W        W87476   9.165  44.460  14.470
15751W        W87477  15.538  41.671  12.000
15752W        W87478  38.359   9.018  11.093
15753W        W87479  43.962  19.383   2.420
15754W        W87480  12.426   3.670   1.741
15755W        W87481  19.173  19.773  13.722
15756W        W87482  37.397  21.308   2.763
15757W        W87483  17.301  41.509  10.685
15758W        W87484   3.758   3.281   1.597
15759W        W87485  36.887  44.728   4.644
15760W        W87486  34.643  24.131  13.302
15761W        W87487  17.322  10.366   0.217
15762W        W87488  12.699   6.615  13.946
15763W        W87489  15.129  40.370   3.327
15764W        W87490  32.139  42.207  11.902
15765W        W87491  44.184   0.871  11.535
15766W        W87492  24.804  15.161  14.371
15767W        W87493  15.590  41.452  14.791
15768W        W87494  11.258  14.256   3.147
15769W        W87495  21.758   1.991  13.415
15770W        W87496  41.239  28.323  14.381
15771W        W87497  25.487  22.605   1.937
15772W        W87498  31.557  33.864  11.026
15773W        W87499  26.402  12.286   2.797
15774W        W87500  20.745  24.465   1.167
15775W        W87501  21.526  17.374  12.402
15776W        W87502  29.096  28.198  12.438
15777W        W87503  23.191   0.164  11.520
15778W        W87504  10.057   7.078  11.960
15779W        W87505  38.357  37.082  14.944
15780W        W87506  18.514   8.797  12.085
15781W        W87507  14.176  25.993   0.347
15782W        W87508  21.083  23.970  14.904
15783W        W87509  28.514  25.577  12.046
15784W        W87510  13.265  36.345   0.665
15785W        W87511  25.953  24.967  12.019
15786W        W87512   4.530   3.227   5.093
15787W        W87513  20.067  19.569  13.027
15788W        W87514  33.061  22.743  10.966
15789W        W87515   1.160   7.207  10.849
15790W        W87516  10.215  32.402  12.409
15791W        W87517  41.371  18.718   0.680
15792W        W87518  32.825  30.005  14.411
15793W        W87519  33.655   1.748  11.476
15794W        W87520  11.430  12.813   0.799
15795W        W87521  21.152  23.590   0.244
15796W        W87522  20.449  23.708  13.976
15797W        W87523  12.380  13.810   1.810
15798W        W87524  43.358  37.141  13.793
15799W        W87525  22.504  35.966   3.661
15800W        W87526  44.354  34.302   0.234
15801W        W87527  18.293   3.919   2.757
15802W        W87528   7.032   5.168  12.825
15803W        W87529  23.936  13.149   0.335
15804W        W87530  20.415  20.212   4.151
15805W        W87531   1.753   0.442  13.413
15806W        W87532  41.945  12.965  14.285
15807W        W87533  28.321  11.833  10.723
15808W        W87534  41.063  13.776   3.768
15809W        W87535  21.396  12.093  13.720
15810W        W87536   6.350  29.626  10.233
15811W        W87537  20.717   2.819  10.656
15812W        W87538   8.259  37.277   2.841
15813W        W87539  22.334  15.769  13.874
15814W        W87540  44.442   4.962  11.609
15815W        W87541   1.205  37.528   4.118
15816W        W87542  16.614  37.828  11.646
15817W        W87543   0.434   3.566  14.816
15818W        W87544  13.863  23.911   0.020
15819W        W87545  12.499  28.706  13.919
15820W        W87546  12.852  18.579  13.802
15821W        W87547   1.359  35.149   4.906
15822W        W87548  30.587  24.381   4.126
15823W        W87549   0.088  40.471   4.107
15824W        W87550  41.017  40.046   1.288
15825W        W87551  32.567  18.768   4.209
15826W        W87552  25.778   0.538  11.041
15827W        W87553  28.530  12.057  13.409
15828W        W87554   2.908  32.617   0.119
15829W        W87555  28.553  26.294  11.459
15830W        W87556   2.489  43.195   2.961
15831W        W87557  26.476   4.378   3.570
15832W        W87558  19.579  44.025   0.751
15833W        W87559  26.463  17.033  14.513
15834W        W87560  34.506   7.370  14.882
15835W        W87561  39.731   7.951  13.013
15836W        W87562  23.963   7.682   1.797
15837W        W87563  17.182  19.812  12.518
15838W        W87564   4.848   6.904  14.283
15839W        W87565  27.352   4.401   3.802
15840W        W87566  13.345  22.008  11.400
15841W        W87567   6.406  44.333  13.778
15842W        W87568  39.780  27.131  12.423
15843W        W87569  43.554  30.581  11.600
15844W        W87570   3.413   4.747   4.764
15845W        W87571  25.979  22.186  14.002
15846W        W87572  26.821  41.784  13.958
15847W        W87573  33.587  41.505   5.038
15848W        W87574  15.413  12.838  14.819
15849W        W87575  35.326  28.339   3.863
15850W        W87576  28.862  28.297  11.198
15851W        W87577  37.118  15.529  10.680
15852W        W87578  10.696  38.513   4.118
15853W        W87579  17.146   4.895  12.454
15854W        W87580   1.846  25.055   1.832
15855W        W87581  23.243  30.080  10.678
15856W        W87582  18.285  28.252  12.616
15857W        W87583  39.455  14.556   2.412
15858W        W87584  43.789  34.891   1.315
15859W        W87585  26.169  44.355  10.918
15860W        W87586  44.278  11.014  11.999
15861W        W87587  34.959  32.485  10.716
15862W        W87588  41.469  43.805  11.376
15863W        W87589  21.974  25.124   3.831
15864W        W87590   5.924   3.765  10.093
15865W        W87591  12.648  19.241  11.181
15866W        W87592  12.626   1.219   1.846
15867W        W87593  43.369   7.168   3.844
15868W        W87594   2.764  10.048  13.107
15869W        W87595  13.627  38.960   2.013
15870W        W87596  19.054  34.112   2.529
15871W        W87597  39.597  23.136   3.239
15872W        W87598  13.586  43.418  12.617
15873W        W87599  23.144  22.000  11.163
15874W        W87600  30.051   1.056  11.464
15875W        W87601   2.883   8.099  12.888
15876W        W87602  27.494  30.807   3.319
15877W        W87603  43.370  41.482  14.758
15878W        W87604  20.150  13.026  14.057
15879W        W87605   7.908  17.752  11.410
15880W        W87606  37.240  26.373  10.369
15881W        W87607   2.441  23.902   3.746
15882W        W87608  23.266  40.466   3.761
15883W        W87609   2.301  35.862   0.273
15884W        W87610   6.712  17.120  12.637
15885W        W87611  25.143  28.568  12.422
15886W        W87612  28.666  32.896   0.799
15887W        W87613  39.611  20.810  12.829
15888W        W87614  17.604  13.633   1.236
15889W        W87615  39.619  17.979   3.621
15890W        W87616  41.744   6.566   4.942
15891W        W87617  30.332  38.391   1.144
15892W        W87618  19.834   3.434   3.768
15893W        W87619  32.585   1.406  12.162
15894W        W87620  34.116  32.437   2.099
15895W        W87621   8.829  43.016  10.656
15896W        W87622  32.006  26.889  10.453
15897W        W87623   5.263  15.903  10.174
15898W        W87624  23.131  29.343   0.451
15899W        W87625  16.074   3.514  14.229
15900W        W87626  11.855  44.458   2.824
15901W        W87627  15.986  13.031   0.509
15902W        W87628  35.146  43.296  14.594
15903W        W87629   5.401  40.998  10.690
15904W        W87630  32.212  13.210   5.136
15905W        W87631  39.557   9.399   0.261
15906W        W87632  20.021  16.981  12.505
15907W        W87633  24.835   1.411  13.285
15908W        W87634  28.597  28.591   2.830
15909W        W87635   2.332  19.428  13.239
15910W        W87636  17.478  41.832   3.590
15911W        W87637  28.300  29.122   1.759
15912W        W87638  42.858  19.752   0.252
15913W        W87639  13.933  29.057   4.737
15914W        W87640  39.303   5.869   2.601
15915W        W87641   4.652  35.428   1.341
15916W        W87642   7.899   8.057   0.386
15917W        W87643  28.464  40.546   3.420
15918W        W87644  21.657  22.672   3.785
15919W        W87645  33.031  38.766   3.841
15920W        W87646  29.498  37.514   3.586
15921W        W87647  34.533  10.302  13.362
15922W        W87648  15.769  18.785  14.863
15923W        W87649  44.294  41.742   3.131
15924W        W87650   8.454  39.262   4.371
15925W        W87651  21.126   8.810  12.529
15926W        W87652  34.074  16.354   1.696
15927W        W87653   9.412  43.743   1.728
15928W        W87654  43.859  41.421   4.420
15929W        W87655  44.460  14.599   4.094
15930W        W87656  26.013   4.752   1.412
15931W        W87657  42.796  28.571   1.924
15932W        W87658   1.187  30.643  14.456
15933W        W87659   7.945  24.359   1.402
15934W        W87660  11.795  12.413   2.315
15935W        W87661   9.589  43.420  11.630
15936W        W87662  35.337  41.449   0.344
15937W        W87663  25.900  29.176  10.496
15938W        W87664  13.849  16.751   3.300
15939W        W87665  22.079  15.869  10.945
15940W        W87666  38.921  34.877   4.336
15941W        W87667  24.525  21.567   2.535
15942W        W87668   9.924  39.475  12.942
15943W        W87669  33.642  20.695  10.652
15944W        W87670  44.364   1.388  11.600
15945W        W87671   5.192  19.125  11.087
15946W        W87672  25.566   0.950  14.438
15947W        W87673   6.065  20.075  12.890
15948W        W87674   0.294  13.345  12.167
15949W        W87675  17.138  26.544   3.116
15950W        W87676   7.725  15.567  13.491
15951W        W87677  36.089  30.379   3.953
15952W        W87678  41.024  41.475  10.740
15953W        W87679  44.901  43.850   4.828
15954W        W87680  34.489  41.743  10.644
15955W        W87681  38.431  14.403  13.585
15956W        W87682   0.575   9.161  10.811
15957W        W87683  16.409  11.572   2.794
15958W        W87684  12.241  25.068   5.014
15959W        W87685  44.757   7.700   0.346
15960W        W87686  15.193  39.523  12.447
15961W        W87687  10.738   6.856  14.380
15962W        W87688  25.128  10.177   1.406
15963W        W87689  22.212  39.431   0.202
15964W        W87690  22.945  40.517  14.836
15965W        W87691  26.528  38.391   0.426
15966W        W87692  32.740  36.523  12.490
15967W        W87693  13.309  15.651  10.582
15968W        W87694  19.890  28.691  14.340
15969W        W87695   5.015  34.035   3.565
15970W        W87696  13.444  35.421  12.946
15971W        W87697  28.521  15.163  12.881
15972W        W87698  33.676  37.994  13.291
15973W        W87699   9.779  24.494  14.139
15974W        W87700  24.430   6.776  12.485
15975W        W87701  26.399  33.641  11.019
15976W        W87702  19.723  19.282   2.991
15977W        W87703   6.813  39.353  14.367
15978W        W87704  33.434  40.998   0.500
15979W        W87705   8.750  17.487   0.374
15980W        W87706  19.981   5.635   1.738
15981W        W87707  29.900  10.011   4.530
15982W        W87708  42.126  12.648   0.435
15983W        W87709  29.633  24.507  11.074
15984W        W87710   2.208  13.353   3.399
15985W        W87711   0.516  44.893  12.985
15986W        W87712  43.486  10.707  11.578
15987W        W87713   2.344  18.262  10.686
15988W        W87714  44.208  15.653   2.165
15989W        W87715  15.146  37.833   2.685
15990W        W87716  40.398  20.638  12.460
15991W        W87717   1.017  36.364  12.653
15992W        W87718  32.990   7.708  10.685
15993W        W87719  26.922   8.364  10.747
15994W        W87720  29.438  10.586   0.299
15995W        W87721  44.017  29.297   0.458
15996W        W87722  31.912  29.992  12.544
15997W        W87723  35.502   2.299  12.471
15998W        W87724   7.371  20.988  11.128
15999W        W87725  11.338  39.089   1.467
16000W        W87726   9.938  22.327   0.869
16001W        W87727   3.258  28.650   4.595
16002W        W87728  14.612  26.979  14.850
16003W        W87729   4.903  19.297   1.935
16004W        W87730  12.171  17.787   0.181
16005W        W87731  30.041  11.135   1.292
16006W        W87732   4.372   7.144  14.417
16007W        W87733   4.751  28.223   4.560
16008W        W87734   6.848  41.761   2.801
16009W        W87735  27.644  13.723  12.154
16010W        W87736  34.224   5.791  13.961
16011W        W87737  19.050  14.526   0.938
16012W        W87738  34.188  29.086  12.871
16013W        W87739   8.315  12.755   0.719
16014W        W87740  11.695   1.837  12.885
16015W        W87741  23.608  35.046   2.679
16016W        W87742  33.067   4.722   1.229
16017W        W87743  33.290  25.227   4.796
16018W        W87744  19.319  21.447   1.309
16019W        W87745   9.146   4.396   1.843
16020W        W87746   3.235  14.815  14.869
16021W        W87747  29.588  12.082   4.644
16022W        W87748  34.616  33.055  14.355
16023W        W87749  44.349  39.147  13.557
16024W        W87750  21.100  23.622  13.169
16025W        W87751  42.174   8.623  13.699
16026W        W87752   6.320  10.640   4.734
16027W        W87753   5.726  23.106   3.027
16028W        W87754   7.726  31.511  14.378
16029W        W87755  38.326  40.894   3.761
16030W        W87756   0.487   7.851  11.576
16031W        W87757   8.738  26.556  14.771
16032W        W87758  35.279  22.590  11.524
16033W        W87759  41.054  34.135   4.779
16034W        W87760   7.330  25.429  10.757
16035W        W87761  30.886  21.349  14.016
16036W        W87762  19.140  29.206   3.360
16037W        W87763   4.570  11.810   3.266
16038W        W87764  15.298   4.203  11.385
16039W        W87765  19.794  10.315  11.962
16040W        W87766  31.083  16.909   4.917
16041W        W87767   7.758  33.065  11.176
16042W        W87768   0.683   7.423  10.781
16043W        W87769  13.337   3.737  10.752
16044W        W87770  30.165  40.003  11.169
16045W        W87771   6.179  32.018   1.142
16046W        W87772  14.374   5.126   2.261
16047W        W87773  14.973   5.805   2.819
16048W        W87774  23.179  15.355  12.368
16049W        W87775  38.527  41.610   2.179
16050W        W87776  18.880  31.478   3.040
16051W        W87777  33.878  40.716  11.936
16052W        W87778  30.644  43.816   1.265
16053W        W87779  29.956   2.993  14.920
16054W        W87780   8.090  44.818  14.799
16055W        W87781  33.863  12.260  14.274
16056W        W87782   2.501  42.291   3.359
16057W        W87783  15.440  20.281  11.577
16058W        W87784  38.599  15.238   1.561
16059W        W87785  40.984  41.479  13.539
16060W        W87786  28.268   1.688  10.974
16061W        W87787  16.591  42.879   3.789
16062W        W87788  11.292   1.489  13.785
16063W        W87789  19.555  15.308   4.453
16064W        W87790   2.643  33.074  12.888
16065W        W87791  12.369  10.292  14.722
16066W        W87792  19.765  22.170   0.008
16067W        W87793  41.180  14.252   1.353
16068W        W87794   7.193  40.260  12.060
16069W        W87795  34.384  13.334  10.718
16070W        W87796  41.750  15.332   0.328
16071W        W87797  24.813   2.978   2.579
16072W        W87798  14.723  37.473   4.577
16073W        W87799  43.500  13.240   2.711
16074W        W87800  14.037  15.616   0.746
16075W        W87801  13.138  44.405   0.507
16076W        W87802  11.135  16.511   1.585
16077W        W87803  29.310  14.070  13.017
16078W        W87804  11.732   3.529   3.289
16079W        W87805  39.986  31.597   3.480
16080W        W87806  11.732   7.102  13.424
16081W        W87807  15.089   3.485  10.671
16082W        W87808  25.152  38.011   2.516
16083W        W87809  22.634  16.149  13.501
16084W        W87810  39.526  23.470  14.431
16085W        W87811  31.695   5.139   1.197
16086W        W87812  29.370  14.304  12.549
16087W        W87813  22.492  16.680   3.140
16088W        W87814  23.712  26.623  11.997
16089W        W87815  21.515  34.462  14.788
16090W        W87816  14.525  18.938   2.751
16091W        W87817  17.559  39.747  11.506
16092W        W87818  26.088  39.890  13.807
16093W        W87819  24.776  15.587  11.665
16094W        W87820   5.077   3.348   2.347
16095W        W87821  21.941  16.677   2.411
16096W        W87822  37.850   1.431   1.214
16097W        W87823  11.341  16.674  13.905
16098W        W87824  38.382   7.284   3.796
16099W        W87825  40.452  39.585  12.821
16100W        W87826   8.304  36.711   4.445
16101W        W87827  38.401  42.440   1.687
16102W        W87828   0.231  27.901   1.479
16103W        W87829  38.811  36.473  13.825
16104W        W87830   1.364  31.433   0.187
16105W        W87831  20.191  27.839  10.558
16106W        W87832  20.543  29.454  11.277
16107W        W87833  14.804  38.362   5.769
16108W        W87834   1.615  34.402   4.446
16109W        W87835  10.948  17.281   4.436
16110W        W87836   9.666  16.655   2.826
16111W        W87837  38.629   6.131   1.335
16112W        W87838   4.337  17.073  13.865
16113W        W87839  15.965   6.460   1.854
16114W        W87840  40.482  36.818  12.201
16115W        W87841  25.420   1.558   3.701
16116W        W87842   5.283  42.304   0.786
16117W        W87843  32.045  26.002  11.394
16118W        W87844  25.288   0.972  10.271
16119W        W87845  41.517  19.320   4.224
16120W        W87846  15.384  14.611  14.978
16121W        W87847   8.777   6.974  10.894
16122W        W87848  22.648  13.198  14.837
16123W        W87849  33.397  44.222   4.657
16124W        W87850  30.847  41.894   4.057
16125W        W87851  33.412  37.724   1.222
16126W        W87852  28.847   3.025   4.263
16127W        W87853  20.019  42.884   4.434
16128W        W87854  34.112  15.888  10.620
16129W        W87855  11.529   0.832   0.835
16130W        W87856  41.551  14.536   1.878
16131W        W87857  11.321  10.128   1.274
16132W        W87858  22.603  17.112   0.789
16133W        W87859  41.824  16.310   1.679
16134W        W87860  42.952  35.164   1.628
16135W        W87861  41.100  32.935   0.491
16136W        W87862  32.016   9.872   3.862
16137W        W87863   7.202  44.904   1.174
16138W        W87864  22.980  26.165   2.161
16139W        W87865  40.037  11.136  14.704
16140W        W87866  34.823  40.673  14.514
16141W        W87867  36.495  25.135   1.904
16142W        W87868   6.234  23.561  14.786
16143W        W87869  41.542  17.355  11.073
16144W        W87870   2.351  28.553   3.991
16145W        W87871  17.161  31.697  14.522
16146W        W87872   4.355  18.239   2.912
16147W        W87873  32.119  32.603  12.493
16148W        W87874   2.924  26.471   2.298
16149W        W87875   7.440   6.398   2.498
16150W        W87876  43.892  19.922  13.563
16151W        W87877  32.412  25.603  13.428
16152W        W87878  39.546  16.725   3.240
16153W        W87879  38.799  22.073  11.799
16154W        W87880  26.363  18.252  11.259
16155W        W87881  21.965  25.925  11.108
16156W        W87882  29.938  44.343  11.580
16157W        W87883   7.332  15.043   4.965
16158W        W87884  41.601   1.570   2.828
16159W        W87885   4.274  27.857   3.441
16160W        W87886   3.198  25.682  13.343
16161W        W87887  41.979  17.882   2.187
16162W        W87888  21.471  44.293   1.738
16163W        W87889  22.495  38.054   0.732
16164W        W87890   6.293  23.779  13.406
16165W        W87891   5.721  23.044   1.312
16166W        W87892  43.265  24.620   0.767
16167W        W87893  12.617  14.610  13.884
16168W        W87894  38.074  16.055   4.080
16169W        W87895  44.366   9.250   3.020
16170W        W87896   3.630  27.873  13.899
16171W        W87897  15.809  24.630   3.347
16172W        W87898  27.138  16.810  10.713
16173W        W87899  39.813  21.264  14.006
16174W        W87900   9.758   9.771   4.631
16175W        W87901  17.151   2.687  12.935
16176W        W87902  27.354  28.034   2.726
16177W        W87903   1.827  38.006  13.570
16178W        W87904  14.859  17.652   4.071
16179W        W87905  41.780   0.227   0.337
16180W        W87906  36.451  14.149  14.602
16181W        W87907  43.470  34.515  11.503
16182W        W87908  16.263  23.969  14.382
16183W        W87909  26.560  35.560   3.839
16184W        W87910  24.647  12.974   3.701
16185W        W87911  13.602   5.507  14.951
16186W        W87912  44.310   7.700   1.758
16187W        W87913   6.758  39.299   1.501
16188W        W87914   6.465  15.149  12.759
16189W        W87915  41.206  40.664   2.850
16190W        W87916  40.452  34.846  13.785
16191W        W87917  14.056  43.181   3.245
16192W        W87918  35.157  12.742   3.567
16193W        W87919  17.069  23.519  13.521
16194W        W87920  16.328   9.717  11.603
16195W        W87921  33.184  31.834  12.036
16196W        W87922  22.988  32.174   2.300
16197W        W87923   3.975   9.112   1.778
16198W        W87924   5.742   8.097   0.328
16199W        W87925  42.008  43.253  10.991
16200W        W87926   3.972  38.396  12.444
16201W        W87927  10.713  33.874   0.461
16202W        W87928  21.143  40.504   1.011
16203W        W87929  20.951  20.244  14.195
16204W        W87930   1.962  36.534  13.316
16205W        W87931  29.077  15.055  10.895
16206W        W87932  44.326  24.172   3.690
16207W        W87933  37.888  38.405  11.422
16208W        W87934  26.495  27.708  10.696
16209W        W87935  17.561   6.560  13.048
16210W        W87936  13.780  28.706  12.926
16211W        W87937  39.772  44.214  14.551
16212W        W87938   6.191  38.523   4.133
16213W        W87939  13.617  31.496   1.171
16214W        W87940  17.270  25.636  11.449
16215W        W87941  13.005   9.615  13.285
16216W        W87942   0.472  23.595  11.862
16217W        W87943  27.889   0.255   3.496
16218W        W87944  29.079  34.086   1.966
16219W        W87945  26.750  31.432   4.710
16220W        W87946  28.753  14.613   2.108
16221W        W87947  14.371  44.269   2.793
16222W        W87948  44.431   4.954  14.749
16223W        W87949  11.695  19.081  14.629
16224W        W87950  18.459  24.230  11.597
16225W        W87951   0.402  36.521  11.904
16226W        W87952  37.958  33.363  14.596
16227W        W87953  23.253  15.066   0.274
16228W        W87954  20.120  22.623   3.477
16229W        W87955  34.178   3.412  11.203
16230W        W87956  10.192  22.440  14.734
16231W        W87957  12.167   9.919  14.335
16232W        W87958  41.481   7.009  10.790
16233W        W87959   9.045  11.157   3.867
16234W        W87960  11.043  26.906   0.713
16235W        W87961  27.326   4.924   1.736
16236W        W87962  19.595  12.247   2.196
16237W        W87963  25.183   6.642   3.859
16238W        W87964  12.426  13.363   1.108
16239W        W87965  41.511   3.008  12.007
16240W        W87966  26.920  42.401   3.362
16241W        W87967   7.899  27.640   1.855
16242W        W87968  42.583  19.089  10.948
16243W        W87969   5.860   9.815   4.777
16244W        W87970  37.313  33.252  14.182
16245W        W87971   6.317  22.500  12.959
16246W        W87972   5.632  15.411   1.616
16247W        W87973  20.730  39.376   2.229
16248W        W87974  42.762  34.373  14.321
16249W        W87975  28.965  31.893   1.630
16250W        W87976  29.097  29.036  14.219
16251W        W87977  10.331  39.050  12.066
16252W        W87978  35.546  40.313   2.170
16253W        W87979  44.608  10.643  12.002
16254W        W87980   6.095  21.049  14.502
16255W        W87981  41.049  41.995   4.604
16256W        W87982  37.066   1.225  11.832
16257W        W87983  12.667  11.167   3.191
16258W        W87984  27.058  37.150   3.111
16259W        W87985  25.670   9.972  14.310
16260W        W87986  17.047  31.941   5.001
16261W        W87987   6.145  28.913  14.150
16262W        W87988  39.014  37.069  12.011
16263W        W87989  26.453  41.569  10.682
16264W        W87990  12.710  42.849  11.762
16265W        W87991  44.767  30.115   2.465
16266W        W87992  39.689  32.769  13.921
16267W        W87993  39.100  44.331   0.768
16268W        W87994  44.904  20.309   0.134
16269W        W87995  13.133  21.052  13.774
16270W        W87996   8.483  25.552   0.444
16271W        W87997  35.780   9.342  10.707
16272W        W87998   4.969  17.327  14.317
16273W        W87999  42.427  28.901  12.584
16274W        W88000  42.514  11.781   2.245
16275W        W88001  18.161  34.080   4.235
16276W        W88002   4.484  17.612   3.672
16277W        W88003  43.665   5.687  11.067
16278W        W88004  38.024   5.494  10.910
16279W        W88005  25.333  23.328  11.118
16280W        W88006  20.549  20.530  13.344
16281W        W88007  31.939  26.033   1.749
16282W        W88008  18.122  30.803   4.429
16283W        W88009  42.904  14.887  12.127
16284W        W88010  12.052  19.750  10.669
16285W        W88011  21.849  23.553   4.291
16286W        W88012   2.663  38.926  11.909
16287W        W88013  10.448  27.490  13.588
16288W        W88014  39.318  38.439   2.973
16289W        W88015  19.613  29.255   2.812
16290W        W88016  32.468  18.776  11.233
16291W        W88017   5.730  15.657   4.240
16292W        W88018  40.099  21.810  13.622
16293W        W88019  24.655  24.102   1.943
16294W        W88020  10.554  43.739  12.741
16295W        W88021  11.800   4.927   0.779
16296W        W88022   8.916  37.386   1.867
16297W        W88023   7.849  39.856   0.779
16298W        W88024  34.284  41.024   3.229
16299W        W88025  39.606  31.533   1.716
16300W        W88026  27.441   5.110  11.146
16301W        W88027  25.575  24.743  13.087
16302W        W88028  31.972   7.887   4.584
16303W        W88029  17.763  24.822   1.410
16304W        W88030   5.677  11.112  11.572
16305W        W88031   7.406  32.629   1.237
16306W        W88032  14.503   2.886   4.850
16307W        W88033  22.521  26.496   4.094
16308W        W88034  12.189   4.066  12.377
16309W        W88035  22.278  29.448  10.951
16310W        W88036  25.909  14.086   4.682
16311W        W88037  27.085  13.165  11.662
16312W        W88038  30.639  39.672   3.832
16313W        W88039  18.032  25.433  12.430
16314W        W88040  22.664  34.043  11.197
16315W        W88041   0.118  11.873   4.259
16316W        W88042   9.278  29.664   1.241
16317W        W88043  24.722   6.940   2.641
16318W        W88044  38.902  29.115  12.509
16319W        W88045  31.848  43.994   3.735
16320W        W88046  37.421  18.287   3.215
16321W        W88047   6.727   0.829   2.322
16322W        W88048   1.496  39.532   4.443
16323W        W88049  33.586  37.650   0.367
16324W        W88050  22.762  28.395  10.126
16325W        W88051  37.849  16.681  11.448
16326W        W88052  19.981  44.955  11.394
16327W        W88053  34.691  20.631  10.715
16328W        W88054  34.949  20.191  10.550
16329W        W88055  44.338  17.618   2.752
16330W        W88056  16.198   2.464   3.253
16331W        W88057   7.926   2.713  13.398
16332W        W88058  37.109  41.677  12.330
16333W        W88059  31.421  16.032  12.184
16334W        W88060  17.209   8.921   5.023
16335W        W88061  12.789  43.331   4.297
16336W        W88062   9.773  35.480  11.201
16337W        W88063  23.772  44.532  10.524
16338W        W88064   5.738   2.280  10.629
16339W        W88065   8.611   9.957   3.387
16340W        W88066  39.335  23.178   3.733
16341W        W88067  26.652   2.753   2.383
16342W        W88068  28.800  16.672  12.115
16343W        W88069  14.902  12.691  12.633
16344W        W88070  19.091   1.786   4.116
16345W        W88071  22.518  21.486  11.562
16346W        W88072  25.093   6.583  13.487
16347W        W88073  16.793  21.476   4.926
16348W        W88074   7.410  27.218   0.255
16349W        W88075  39.280  27.794  10.488
16350W        W88076   8.609  23.165   5.518
16351W        W88077  20.973   8.116   0.248
16352W        W88078  39.523  41.393   1.506
16353W        W88079  23.999  35.076  13.997
16354W        W88080  23.025   1.607   4.084
16355W        W88081  10.135   7.754   2.165
16356W        W88082  10.674   3.384   3.170
16357W        W88083  17.366   4.320   0.319
16358W        W88084  40.335  20.183  14.728
16359W        W88085  20.774  41.598  12.778
16360W        W88086  42.756  29.106   0.730
16361W        W88087   0.084  34.100   1.877
16362W        W88088   6.049  24.904   0.824
16363W        W88089  22.548   2.209   0.186
16364W        W88090  20.086  17.726   4.106
16365W        W88091  44.670   4.164  13.429
16366W        W88092  17.696  35.940  11.646
16367W        W88093  25.130   7.411  14.208
16368W        W88094   0.361   6.170   1.362
16369W        W88095  39.577  19.227   4.182
16370W        W88096   8.799  37.446   3.813
16371W        W88097  20.043   3.696  11.567
16372W        W88098  23.672  42.364   4.985
16373W        W88099  25.141  29.476   0.978
16374W        W88100   1.069  41.410  10.690
16375W        W88101  17.661  44.855  10.696
16376W        W88102   1.845  34.864  11.422
16377W        W88103  24.618  40.677   4.119
16378W        W88104  38.475  42.416   2.768
16379W        W88105   9.775  11.156  13.455
16380W        W88106  16.545  13.672   0.919
16381W        W88107  37.866  10.158   1.752
16382W        W88108  44.952   4.932  10.443
16383W        W88109  32.162  21.142   3.724
16384W        W88110   0.517  19.205  13.379
16385W        W88111  42.961  11.133  12.919
16386W        W88112  20.199  21.637  14.298
16387W        W88113  26.953   1.709   2.722
16388W        W88114  30.990  36.554  12.994
16389W        W88115  21.801   2.814   1.761
16390W        W88116  15.785  25.184  13.089
16391W        W88117   6.036  29.436   0.718
16392W        W88118  31.949  36.161   3.663
16393W        W88119  14.369  29.853   2.635
16394W        W88120  23.592  21.038   3.398
16395W        W88121  23.581  12.320   1.962
16396W        W88122   5.195  28.886   3.315
16397W        W88123  18.839   1.221  10.439
16398W        W88124   9.716   6.911  12.310
16399W        W88125   4.827  30.022   5.016
16400W        W88126  23.554  18.548   4.159
16401W        W88127  30.547  25.553  10.254
16402W        W88128   8.837  38.978   2.880
16403W        W88129  44.241  26.720   4.537
16404W        W88130  19.427  39.438  10.492
16405W        W88131  19.099  13.444  13.955
16406W        W88132   6.210  17.138   3.764
16407W        W88133  14.609  44.381  12.099
16408W        W88134  20.214   7.364  11.252
16409W        W88135  37.766  43.222   0.324
16410W        W88136  26.244  17.809  14.350
16411W        W88137  25.072  26.496   4.059
16412W        W88138   8.085  29.559   0.037
16413W        W88139  27.832  13.703   1.740
16414W        W88140   7.859  26.526   2.681
16415W        W88141  20.643  15.909   4.272
16416W        W88142  18.194   2.592  11.565
16417W        W88143  21.658  16.155  10.943
16418W        W88144  34.112   3.276   4.580
16419W        W88145  26.471  42.234   4.803
16420W        W88146  30.550   0.821  13.388
16421W        W88147  16.650   3.175   0.915
16422W        W88148   4.267  14.240  14.395
16423W        W88149  12.319  34.574   4.370
16424W        W88150  40.519  32.628  13.402
16425W        W88151   4.212  40.428   0.285
16426W        W88152  11.886  12.728  11.056
16427W        W88153  44.938   7.423   0.780
16428W        W88154  13.845  33.411  10.442
16429W        W88155  21.192  26.749   4.608
16430W        W88156  10.199  20.557   1.230
16431W        W88157   7.383  33.504  14.626
16432W        W88158   4.722  35.498   0.809
16433W        W88159  42.222  40.026   4.457
16434W        W88160   7.100  31.767   3.248
16435W        W88161  40.495  21.248   0.450
16436W        W88162  44.634  19.973   2.811
16437W        W88163  25.362  39.036  12.277
16438W        W88164  42.283  11.616   0.490
16439W        W88165  11.410  36.455   1.903
16440W        W88166   7.874  41.373   2.566
16441W        W88167   2.420  29.365  13.941
16442W        W88168   4.773  32.481  14.964
16443W        W88169  17.122  37.917  14.609
16444W        W88170  20.334  24.789   1.151
16445W        W88171  13.070   1.221   0.249
16446W        W88172  41.475  30.110  11.357
16447W        W88173  37.492   1.377   3.770
16448W        W88174   6.493  27.666   1.781
16449W        W88175  14.752  15.051  10.698
16450W        W88176  10.251  23.986   2.280
16451W        W88177  38.280  34.404  13.599
16452W        W88178  20.633  10.535  10.487
16453W        W88179   0.854  26.272   1.442
16454W        W88180  40.200  34.031  13.423
16455W        W88181  30.082  42.045  11.153
16456W        W88182  23.984  12.117  10.068
16457W        W88183  37.045  44.312  12.853
16458W        W88184  36.167  11.717   4.528
16459W        W88185  41.059  17.446   4.918
16460W        W88186   1.222  27.381  11.046
16461W        W88187   4.832  44.909   3.506
16462W        W88188  23.362  22.181  13.899
16463W        W88189  35.864  37.559   2.765
16464W        W88190   5.695  17.355   5.008
16465W        W88191  33.899  22.599  13.208
16466W        W88192  32.100   5.415   3.838
16467W        W88193   5.734   9.114   4.163
16468W        W88194   8.895  14.130   3.117
16469W        W88195  18.263   5.884   1.286
16470W        W88196   2.494  43.454   2.002
16471W        W88197  44.097  37.503  11.630
16472W        W88198  40.007  29.594   4.249
16473W        W88199  12.244  37.004   3.064
16474W        W88200   6.198   4.996  10.516
16475W        W88201  31.350  23.268  14.292
16476W        W88202  44.884  12.526   1.042
16477W        W88203  10.083  31.454  13.929
16478W        W88204  44.296  29.147  13.897
16479W        W88205  30.470  12.644  12.877
16480W        W88206  40.924   8.253  12.606
16481W        W88207  40.587  37.453   2.396
16482W        W88208  32.688   9.831  13.447
16483W        W88209   2.788  36.057   0.195
16484W        W88210   3.721  30.646   0.915
16485W        W88211  14.402   4.461  14.322
16486W        W88212  10.336   8.346  11.525
16487W        W88213   9.389  15.999   3.328
16488W        W88214   2.401   8.597   0.689
16489W        W88215  12.331  41.474  14.549
16490W        W88216  13.704   1.818  10.521
16491W        W88217  14.313  18.698  13.560
16492W        W88218   5.256  38.306  12.485
16493W        W88219  22.728  13.551   0.202
16494W        W88220   7.164  42.854  14.899
16495W        W88221   4.492  35.414  13.509
16496W        W88222  42.499  41.880  11.150
16497W        W88223  39.335   9.750  11.418
16498W        W88224   0.444   2.821  11.670
16499W        W88225  17.260  25.363  12.032
16500W        W88226  11.198  19.151  12.899
16501W        W88227  23.180  29.233  14.436
16502W        W88228  39.082   0.686  14.688
16503W        W88229  11.349   1.496  14.701
16504W        W88230  41.211  40.268   0.777
16505W        W88231  43.354  25.962  10.624
16506W        W88232  39.463  40.339   4.390
16507W        W88233   6.901   6.218   2.386
16508W        W88234   9.188  11.234   2.657
16509W        W88235   7.992  11.736   2.432
16510W        W88236   9.841   1.972   4.711
16511W        W88237  17.999   8.142   4.553
16512W        W88238   4.288  14.132  10.186
16513W        W88239  33.257   9.093   1.880
16514W        W88240  18.499  38.866  10.707
16515W        W88241  11.309  19.678  11.919
16516W        W88242  44.985  33.354  11.611
16517W        W88243  21.144  10.281   4.659
16518W        W88244  25.792   2.342   0.794
16519W        W88245  14.195  24.089   1.521
16520W        W88246  43.980   8.685   0.024
16521W        W88247   0.440  23.014  11.240
16522W        W88248   6.772  42.007  10.987
16523W        W88249  10.497  25.388  11.563
16524W        W88250   0.766  10.582  12.425
16525W        W88251   1.476   0.023  13.889
16526W        W88252  44.436  27.417  14.272
16527W        W88253  18.582   4.139  10.875
16528W        W88254   1.464  42.354  10.397
16529W        W88255  27.140  12.719  14.340
16530W        W88256  23.311  31.099  13.393
16531W        W88257  20.512   6.137  13.326
16532W        W88258  14.097  26.502   2.886
16533W        W88259  18.722  40.897   5.079
16534W        W88260  44.238   6.110   3.230
16535W        W88261  28.263  43.218   5.038
16536W        W88262  38.412  38.651   2.666
16537W        W88263  19.516  10.108   0.338
16538W        W88264  23.177   1.628  13.349
16539W        W88265  39.564  21.479  14.409
16540W        W88266  41.017  28.581   0.364
16541W        W88267   6.948  25.505   2.227
16542W        W88268   2.588   0.781  12.898
16543W        W88269  33.959  10.263  12.141
16544W        W88270  14.415  26.241  13.498
16545W        W88271   0.493  40.278  11.501
16546W        W88272  31.174  31.832   0.934
16547W        W88273  15.423  27.095   4.182
16548W        W88274  29.367  37.771  13.453
16549W        W88275  24.118  33.637   1.997
16550W        W88276  23.378  32.511  11.121
16551W        W88277  24.516  31.042  11.222
16552W        W88278  13.092  17.617  10.897
16553W        W88279   9.662  17.632   4.108
16554W        W88280   8.198  41.888  12.146
16555W        W88281   2.830  19.817   3.272
16556W        W88282  28.418  23.249   2.347
16557W        W88283  25.037  19.048  13.869
16558W        W88284   3.042  16.238  10.955
16559W        W88285  35.511  13.482  12.962
16560W        W88286  23.298  28.310   4.802
16561W        W88287  20.094   3.927   2.348
16562W        W88288  11.885  40.818   1.888
16563W        W88289   7.414   4.405  12.315
16564W        W88290  40.191  22.779  10.611
16565W        W88291  40.097  20.665  12.025
16566W        W88292  39.025  30.347   1.835
16567W        W88293   6.594  16.291   1.832
16568W        W88294  38.042  10.694  11.543
16569W        W88295  24.740  21.182  13.839
16570W        W88296   1.751   1.097  14.177
16571W        W88297  14.372  21.462  12.891
16572W        W88298   2.126   2.970  13.459
16573W        W88299   3.315  33.975   2.336
16574W        W88300  42.551  23.452   3.313
16575W        W88301  25.025   4.247   3.832
16576W        W88302  42.836  27.065  12.484
16577W        W88303   2.008  42.856   4.583
16578W        W88304  10.679  28.408  14.924
16579W        W88305  41.982   7.372   0.924
16580W        W88306  13.238  30.433   0.019
16581W        W88307  27.051  24.022   4.699
16582W        W88308   9.919  13.623  11.959
16583W        W88309  32.966  27.967  11.890
16584W        W88310  34.666  13.721  13.106
16585W        W88311  41.840  11.239   0.475
16586W        W88312  19.142   8.736  13.645
16587W        W88313  40.034   4.185  14.943
16588W        W88314  21.110  33.399  14.072
16589W        W88315  14.150  20.021  13.551
16590W        W88316  33.149  22.282   2.275
16591W        W88317  37.321  44.534  10.716
16592W        W88318  40.196  31.109   3.336
16593W        W88319  39.547   9.220  13.833
16594W        W88320  39.611  41.067  14.314
16595W        W88321   0.508   6.876   4.069
16596W        W88322  25.480  28.449  11.078
16597W        W88323   2.732  23.160  12.537
16598W        W88324   0.939  21.047  10.637
16599W        W88325  43.069  10.659   3.571
16600W        W88326  20.260  31.926   3.218
16601W        W88327  27.440  44.017   0.826
16602W        W88328  16.562   2.202  14.032
16603W        W88329  34.113  32.133   3.713
16604W        W88330  44.726  21.214   3.090
16605W        W88331   8.831   2.726  13.816
16606W        W88332  19.228   8.839   3.381
16607W        W88333  37.819  30.393   3.014
16608W        W88334  35.173  29.036  13.375
16609W        W88335  36.146  28.734  14.471
16610W        W88336  40.754  20.286  14.386
16611W        W88337  10.441  20.147  12.658
16612W        W88338  12.877  30.486  12.095
16613W        W88339   7.376  11.386  13.636
16614W        W88340  13.706   0.327   0.784
16615W        W88341  39.510  32.884   2.873
16616W        W88342  22.532  34.668  13.937
16617W        W88343  32.249  26.147   4.543
16618W        W88344  17.153  43.774  13.049
16619W        W88345  44.130  19.422   1.238
16620W        W88346   0.983  40.565   4.055
16621W        W88347  26.949   4.307   2.824
16622W        W88348   0.339  20.706  14.421
16623W        W88349  37.834  18.051  12.981
16624W        W88350   3.129   6.632  13.283
16625W        W88351  22.931  29.826   0.785
16626W        W88352  40.291  30.404   4.096
16627W        W88353  37.879  36.193   5.003
16628W        W88354  21.432   1.904   4.275
16629W        W88355  33.933  10.326  11.648
16630W        W88356  11.402   7.783  10.652
16631W        W88357   1.607  23.563  10.858
16632W        W88358  32.059  14.711  10.878
16633W        W88359   8.777   2.384   1.175
16634W        W88360  35.046  28.202  10.329
16635W        W88361  30.011  26.734   0.903
16636W        W88362  32.951  12.694  14.082
16637W        W88363  12.166  34.362  12.157
16638W        W88364   5.320  17.072  11.086
16639W        W88365  15.163   3.024  13.291
16640W        W88366   7.742  39.471  12.530
16641W        W88367  21.760  42.585   2.162
16642W        W88368  10.636  29.627   2.166
16643W        W88369   0.706  43.364   2.915
16644W        W88370  26.650  21.971  13.377
16645W        W88371  39.985  33.889  10.693
16646W        W88372   5.720  13.268  10.250
16647W        W88373  37.735   8.856  13.626
16648W        W88374   7.701  16.050   2.774
16649W        W88375  16.142  26.229   2.846
16650W        W88376  17.518  20.276   1.954
16651W        W88377  38.397  36.392  12.047
16652W        W88378  18.646  17.685   3.851
16653W        W88379  23.883  11.564   5.021
16654W        W88380  31.301   3.500  14.537
16655W        W88381  28.294  18.729  13.480
16656W        W88382  15.632  37.900  11.549
16657W        W88383  24.690  29.089   4.578
16658W        W88384  35.677   2.875  10.430
16659W        W88385  26.622  25.961   4.104
16660W        W88386  23.007   3.768  12.494
16661W        W88387  23.492  31.874   3.526
16662W        W88388   0.294  22.645   3.303
16663W        W88389  24.960  25.477  14.774
16664W        W88390  40.462  12.901   3.612
16665W        W88391   3.432   7.996  12.432
16666W        W88392   2.599  38.609  13.268
16667W        W88393  19.552  28.730   1.306
16668W        W88394  11.944  11.784   2.924
16669W        W88395  40.452  32.549   2.600
16670W        W88396  26.258  30.699   3.789
16671W        W88397   5.259  36.183  11.169
16672W        W88398  41.637  16.694  12.839
16673W        W88399  11.730  24.916  10.262
16674W        W88400   9.400  33.440   9.815
16675W        W88401  38.041  30.107   0.220
16676W        W88402  42.059  17.992   0.744
16677W        W88403  19.756   8.286  10.679
16678W        W88404   4.374  10.286  11.976
16679W        W88405  44.324  16.308  11.311
16680W        W88406  16.211  17.089  13.418
16681W        W88407  44.414  28.958  10.652
16682W        W88408  42.454  37.440   1.704
16683W        W88409  42.909  20.546  12.376
16684W        W88410  18.665   5.219   0.985
16685W        W88411  28.916   4.334   4.607
16686W        W88412  42.576   8.826  10.820
16687W        W88413  21.773  31.683   2.782
16688W        W88414  43.834  14.002   3.758
16689W        W88415  32.986  24.200  13.573
16690W        W88416  39.560  20.976   3.740
16691W        W88417  33.659  43.976   3.675
16692W        W88418  41.975  21.087   3.689
16693W        W88419  42.176  14.425   1.293
16694W        W88420  38.958  14.658   2.609
16695W        W88421  19.516  20.671  11.679
16696W        W88422  16.767  33.354  12.470
16697W        W88423  25.032  11.203  12.904
16698W        W88424   9.536  32.572   4.312
16699W        W88425  43.447  22.549   2.168
16700W        W88426  42.791  32.513   0.912
16701W        W88427  28.039  39.315  14.314
16702W        W88428  19.670  29.842   3.823
16703W        W88429  21.849  38.034  12.153
16704W        W88430  32.392   7.414   1.676
16705W        W88431   5.704  19.258  12.864
16706W        W88432  21.534  43.761   0.931
16707W        W88433  22.688  12.080  14.601
16708W        W88434  29.559  22.643   0.691
16709W        W88435  27.932  27.202   1.843
16710W        W88436  11.383  13.670  11.086
16711W        W88437  17.062  17.376  14.347
16712W        W88438  16.452   8.864  11.796
16713W        W88439  30.224  26.673  11.436
16714W        W88440  32.913  32.441   4.136
16715W        W88441  38.165  16.813  13.387
16716W        W88442  33.464  14.692  10.715
16717W        W88443  14.590  33.392  13.441
16718W        W88444   2.994  21.722   1.177
16719W        W88445  25.807  17.857   4.485
16720W        W88446  12.742  24.652  12.482
16721W        W88447  42.401  14.120   2.379
16722W        W88448   0.427  37.967   3.084
16723W        W88449  17.049  28.844   0.357
16724W        W88450  22.547  34.416   5.001
16725W        W88451   1.648  31.140   4.151
16726W        W88452  32.592  35.812   3.364
16727W        W88453   8.177   2.944   0.760
16728W        W88454  19.749  26.440  13.096
16729W        W88455  15.027  41.201   3.187
16730W        W88456  14.778   1.951   1.141
16731W        W88457  12.922  17.292  10.454
16732W        W88458  15.824  26.688   2.794
16733W        W88459  17.050  36.871   2.751
16734W        W88460   2.214  35.526  11.999
16735W        W88461  33.117  34.068  13.138
16736W        W88462  16.213  15.609   0.413
16737W        W88463  15.143  15.427   3.764
16738W        W88464  42.938  39.163  11.972
16739W        W88465  18.504  36.140  11.226
16740W        W88466  29.359  25.584   5.454
16741W        W88467  13.258  20.019   1.758
16742W        W88468  44.719  18.802   4.182
16743W        W88469  26.418   6.800   1.731
16744W        W88470  22.636  14.768  13.966
16745W        W88471  28.541  25.872  12.459
16746W        W88472  22.694  23.267  14.379
16747W        W88473  15.660  11.341   3.721
16748W        W88474   6.409  14.641  13.040
16749W        W88475  44.172  40.593   1.284
16750W        W88476  38.048  29.114  14.797
16751W        W88477  41.551  26.482   0.789
16752W        W88478  31.566   9.332  11.228
16753W        W88479  38.038  20.922  14.727
16754W        W88480  39.035   2.443   0.654
16755W        W88481  29.464   8.026   3.505
16756W        W88482  11.601  11.180  11.443
16757W        W88483  14.172   8.164  13.594
16758W        W88484  15.721  15.782   1.667
16759W        W88485  29.384  28.221   3.777
16760W        W88486  27.498  36.784   1.697
16761W        W88487  33.961  17.700   0.510
16762W        W88488  24.716  28.283  14.479
16763W        W88489   7.337  12.651  11.585
16764W        W88490  20.580  13.836  12.077
16765W        W88491   7.838  26.453   2.107
16766W        W88492  25.055  39.924  14.240
16767W        W88493  33.894  34.991  12.909
16768W        W88494  24.756   4.716  11.086
16769W        W88495   9.439  10.776   2.642
16770W        W88496  30.069  33.974   1.790
16771W        W88497   1.458   0.648  11.648
16772W        W88498  44.002  20.746   2.824
16773W        W88499  40.669  17.344   2.743
16774W        W88500  15.500  26.647  11.073
16775W        W88501  17.079  22.616   3.111
16776W        W88502  23.585  29.885  11.447
16777W        W88503  21.161   2.288  12.424
16778W        W88504  29.779   7.851  12.587
16779W        W88505  12.863  32.887  12.052
16780W        W88506  33.950  26.049   1.846
16781W        W88507   1.177  30.195   4.171
16782W        W88508   8.292  18.791   4.503
16783W        W88509  30.532  44.454  12.369
16784W        W88510   9.713   5.081  12.485
16785W        W88511  35.514  35.312   2.570
16786W        W88512  24.831   7.977  13.053
16787W        W88513  31.894  41.273   5.606
16788W        W88514  10.824  29.220  10.663
16789W        W88515  31.193   0.061   4.373
16790W        W88516   3.720  26.514   3.274
16791W        W88517  14.635  27.724   4.266
16792W        W88518  30.124  40.657   4.804
16793W        W88519  28.524  23.794   0.420
16794W        W88520  12.768   6.019   4.029
16795W        W88521  17.371   9.380   4.515
16796W        W88522  43.504   2.479  14.515
16797W        W88523  23.477  17.475   2.376
16798W        W88524  43.759  24.404  14.357
16799W        W88525   9.542  25.745   1.647
16800W        W88526  14.664   4.454  12.827
16801W        W88527  25.028  30.851   3.328
16802W        W88528   6.398   6.654  14.955
16803W        W88529   8.736   9.864  14.924
16804W        W88530  16.780  30.158   3.266
16805W        W88531  43.297  10.393  12.555
16806W        W88532  34.234   8.096  10.650
16807W        W88533  39.068   6.861   3.743
16808W        W88534  42.365  33.236   1.697
16809W        W88535  14.654  41.019  11.595
16810W        W88536  13.257  35.919  14.882
16811W        W88537  28.089  13.757   3.762
16812W        W88538  16.608   7.380  14.318
16813W        W88539  36.181  39.336   2.957
16814W        W88540   9.207  43.184   2.388
16815W        W88541  30.561  24.566  14.539
16816W        W88542  23.873   2.319  12.092
16817W        W88543  29.603   3.953  10.758
16818W        W88544  44.872  42.329  14.541
16819W        W88545  31.351   0.847   1.665
16820W        W88546  36.475  26.898   2.703
16821W        W88547  11.898  36.637   1.916
16822W        W88548  38.808  14.530  11.400
16823W        W88549  23.708  39.086  14.215
16824W        W88550  15.478   5.919   1.043
16825W        W88551  13.524  11.451   2.113
16826W        W88552   8.603  16.050   4.951
16827W        W88553  19.337   6.279  14.001
16828W        W88554   0.437   7.154  11.159
16829W        W88555  21.007  35.434  12.428
16830W        W88556  39.366  31.539  12.134
16831W        W88557  24.684  20.523  11.853
16832W        W88558  20.536  26.655  11.565
16833W        W88559  22.143   5.196  11.555
16834W        W88560   0.046   8.198  11.995
16835W        W88561  39.558  42.568  14.374
16836W        W88562  10.866   7.819  10.592
16837W        W88563  27.496  37.020  13.538
16838W        W88564  17.281  37.553   0.466
16839W        W88565  33.033  44.908  11.252
16840W        W88566  35.941  33.882   0.275
16841W        W88567   3.378  26.177  10.430
16842W        W88568  10.263  29.826  14.481
16843W        W88569  24.882   5.334  12.702
16844W        W88570  22.248  31.901   2.763
16845W        W88571   8.405  37.259   1.315
16846W        W88572  36.780  35.084  11.046
16847W        W88573  42.526   2.222   0.929
16848W        W88574  37.387  23.987  12.414
16849W        W88575  30.674   0.416  13.082
16850W        W88576   8.682  38.822   1.908
16851W        W88577  23.098  22.545  11.072
16852W        W88578  25.432  27.651   4.603
16853W        W88579  37.907   5.368   2.706
16854W        W88580   2.771  27.937   0.337
16855W        W88581   0.447  25.422   1.281
16856W        W88582  23.761  23.156  13.897
16857W        W88583  13.096  21.061   2.672
16858W        W88584  32.504  11.485  11.987
16859W        W88585   2.845   9.676   4.189
16860W        W88586  13.293  38.767  10.598
16861W        W88587  31.064  33.482  13.345
16862W        W88588   7.003   8.733   3.864
16863W        W88589  35.727  32.823   4.798
16864W        W88590  25.968   1.650  14.792
16865W        W88591  10.439   4.636  12.506
16866W        W88592   5.498  10.008  13.874
16867W        W88593  16.195   0.722  10.281
16868W        W88594  23.984  28.844  11.274
16869W        W88595  26.562   0.463  13.755
16870W        W88596   8.212  14.374   2.437
16871W        W88597  23.259   8.381  11.098
16872W        W88598  39.821  26.255  14.607
16873W        W88599  27.929  44.346  14.036
16874W        W88600  33.702  39.755   5.173
16875W        W88601  41.357  43.382  14.962
16876W        W88602  23.048  41.421   1.823
16877W        W88603  26.553  19.431   0.739
16878W        W88604  39.784  17.846   1.221
16879W        W88605   7.969  23.057   2.834
16880W        W88606  24.579  36.499   3.987
16881W        W88607  28.561  38.426  13.234
16882W        W88608   4.213  38.274  13.779
16883W        W88609  34.251   6.392   1.487
16884W        W88610  37.441   5.174   2.735
16885W        W88611  36.431  19.180   0.095
16886W        W88612  36.125   0.940   2.359
16887W        W88613  10.096  38.738   1.824
16888W        W88614  20.286  35.953  14.226
16889W        W88615   1.689  44.873   3.905
16890W        W88616  26.246  42.867  14.858
16891W        W88617  23.989  16.591   2.187
16892W        W88618  31.531   6.991   3.663
16893W        W88619  30.716  23.723  14.699
16894W        W88620  22.501  14.535   3.212
16895W        W88621  32.823   2.307  12.992
16896W        W88622  13.236  39.071  13.267
16897W        W88623   3.467  33.597   3.321
16898W        W88624  43.277  31.917   2.300
16899W        W88625  26.087  32.007   4.781
16900W        W88626   0.029  13.955   2.631
16901W        W88627  25.644  40.267  12.113
16902W        W88628  29.127  27.914  12.843
16903W        W88629  15.319  16.334   3.230
16904W        W88630  44.948  10.362   1.010
16905W        W88631  34.920  30.162  11.962
16906W        W88632  18.663  23.432  11.971
16907W        W88633  33.389  19.612  11.976
16908W        W88634  14.598  23.277  14.929
16909W        W88635  34.703   3.990  10.705
16910W        W88636   7.789  10.158   1.697
16911W        W88637  36.855  14.192  11.202
16912W        W88638   5.597   8.331  13.359
16913W        W88639  36.070  19.850   4.599
16914W        W88640   2.684   0.296   4.685
16915W        W88641  19.971   8.768  13.885
16916W        W88642  24.920  32.735   2.988
16917W        W88643  29.128   0.740   2.771
16918W        W88644   2.704  22.815  11.704
16919W        W88645  29.775  21.581   0.779
16920W        W88646  21.468  29.090  14.784
16921W        W88647  35.497  13.428   2.352
16922W        W88648  17.042  26.574   1.282
16923W        W88649  30.533   9.654  14.242
16924W        W88650  37.354  15.640   5.055
16925W        W88651  22.106  23.096   4.346
16926W        W88652  30.635  16.382   0.981
16927W        W88653  43.361  13.081   3.674
16928W        W88654  31.505  12.550  11.095
16929W        W88655  38.957  25.607  12.022
16930W        W88656  42.086  16.242   0.244
16931W        W88657  29.258  18.506   1.263
16932W        W88658   9.583  34.989  11.133
16933W        W88659  36.791   2.188  10.727
16934W        W88660   7.351  15.821   3.199
16935W        W88661  44.205  24.994   4.518
16936W        W88662  17.711  38.872  13.988
16937W        W88663  11.828   5.446   0.860
16938W        W88664  40.145  17.191  11.633
16939W        W88665   6.978  41.915  10.536
16940W        W88666  38.942   7.415   4.496
16941W        W88667  13.265   1.024   3.818
16942W        W88668  43.485  25.658  14.859
16943W        W88669  16.070   1.267   4.212
16944W        W88670  19.492  34.141   3.410
16945W        W88671  32.120  36.611  12.083
16946W        W88672  28.773   4.316  14.899
16947W        W88673  28.944   2.196   0.497
16948W        W88674   1.558  38.970   1.368
16949W        W88675  28.406  30.906   3.180
16950W        W88676   6.049  23.950   2.982
16951W        W88677  38.727  27.082  12.359
16952W        W88678  11.105  31.550   1.030
16953W        W88679  40.908  27.993   1.822
16954W        W88680  35.367  44.771   2.325
16955W        W88681  17.731  22.870  12.089
16956W        W88682  25.981  21.448  12.882
16957W        W88683  37.117  29.736   4.089
16958W        W88684  10.196  41.020   0.890
16959W        W88685  25.673  12.201   0.586
16960W        W88686   8.173  39.984   0.038
16961W        W88687  22.066   9.943  12.452
16962W        W88688  14.713   1.941  10.772
16963W        W88689  31.744  42.480   4.593
16964W        W88690  17.778   3.934  11.229
16965W        W88691  15.600  38.637   4.910
16966W        W88692  29.022  13.168  14.699
16967W        W88693  11.238  42.214   2.237
16968W        W88694   1.938  16.568  14.845
16969W        W88695   9.630  12.336  14.988
16970W        W88696  34.352  30.212  11.443
16971W        W88697  35.335  13.899   2.897
16972W        W88698  27.456  24.263   0.765
16973W        W88699  29.489  22.640  13.130
16974W        W88700   8.871   8.368  10.623
16975W        W88701   7.589  20.663   2.698
16976W        W88702  22.343  35.680   3.220
16977W        W88703  37.538  35.162   3.815
16978W        W88704  15.699  19.713   4.141
16979W        W88705  11.153  37.089  14.853
16980W        W88706   8.075   5.102   3.713
16981W        W88707   1.019   9.277   1.360
16982W        W88708  34.078   2.780   3.152
16983W        W88709   8.628  10.036  11.215
16984W        W88710  18.791   9.982   4.544
16985W        W88711  11.199   8.901   4.277
16986W        W88712  20.053  11.319   3.441
16987W        W88713  34.849   4.655  14.694
16988W        W88714  41.519   8.220  14.777
16989W        W88715   4.505  34.229  14.975
16990W        W88716   4.441  39.332  13.884
16991W        W88717  36.421  39.082  10.677
16992W        W88718  30.673  31.705   2.812
16993W        W88719   0.906  20.941   1.746
16994W        W88720  39.839  26.661   1.696
16995W        W88721  13.508  18.238   1.242
16996W        W88722  42.511  16.657   2.088
16997W        W88723  36.414  26.709  13.465
16998W        W88724  40.007  22.440  13.242
16999W        W88725   1.502  42.852  11.603
17000W        W88726  20.159  22.876  14.599
17001W        W88727   5.622  18.269   0.567
17002W        W88728  14.403  18.001  11.253
17003W        W88729   2.736  23.312  11.520
17004W        W88730  23.747   0.179   3.662
17005W        W88731  13.960  27.827  14.717
17006W        W88732  16.555  35.801  10.998
17007W        W88733  39.047  10.676  11.087
17008W        W88734  39.747  24.958  14.962
17009W        W88735  42.958   9.783   2.268
17010W        W88736  26.575  36.836   1.781
17011W        W88737  40.322  15.080  10.704
17012W        W88738  11.715  42.883   4.126
17013W        W88739   1.216  18.755   3.864
17014W        W88740  22.002  16.188  13.802
17015W        W88741  17.892  38.520   1.204
17016W        W88742  42.904   6.831   3.197
17017W        W88743  16.053  43.905   1.355
17018W        W88744  10.569   4.186   4.866
17019W        W88745  21.200  26.712   3.711
17020W        W88746  28.927  26.521  14.343
17021W        W88747  28.032   7.314   2.332
17022W        W88748  35.839  27.661   1.434
17023W        W88749  21.530  33.422  14.433
17024W        W88750  13.635  12.628  11.137
17025W        W88751  24.615   6.154   3.234
17026W        W88752   7.998  23.776   3.890
17027W        W88753  15.086  15.962   3.605
17028W        W88754  31.954   0.898  12.788
17029W        W88755  40.391  22.054  11.637
17030W        W88756  15.663   6.698   2.221
17031W        W88757   6.312  15.327  12.286
17032W        W88758   7.344   9.805   4.060
17033W        W88759  10.661  29.503  14.420
17034W        W88760  17.305  35.404   1.187
17035W        W88761  22.447  44.810   5.053
17036W        W88762  43.496   4.374   0.228
17037W        W88763  34.462  32.017   3.236
17038W        W88764  44.560  37.395  12.951
17039W        W88765   0.775   4.706   4.543
17040W        W88766  36.104  44.366  11.632
17041W        W88767  44.975  12.923  10.770
17042W        W88768  25.783   2.762   1.922
17043W        W88769   3.916  41.431   5.026
17044W        W88770  43.332  41.470  13.790
17045W        W88771  17.069  16.290  14.901
17046W        W88772   3.352  28.774  11.074
17047W        W88773   2.213  12.793   4.173
17048W        W88774  22.503  28.499   2.377
17049W        W88775  40.981  17.474   4.404
17050W        W88776   7.252  12.091  14.422
17051W        W88777   2.334  11.856  14.882
17052W        W88778  35.229  17.665  11.558
17053W        W88779  18.139  11.417   0.503
17054W        W88780  14.519  18.400   1.238
17055W        W88781  21.450  40.857   1.252
17056W        W88782  34.903  19.316   1.480
17057W        W88783  20.973  41.016   0.332
17058W        W88784  20.268  18.187  13.518
17059W        W88785  17.190  18.964   3.742
17060W        W88786   5.861  21.699  11.907
17061W        W88787  42.912   6.447  11.784
17062W        W88788   6.463  11.165  11.066
17063W        W88789  25.990   3.845   1.376
17064W        W88790  24.602  19.123   3.322
17065W        W88791  25.634  17.534   1.397
17066W        W88792  16.653   6.733  14.822
17067W        W88793  42.078  28.610  11.137
17068W        W88794  25.690  37.355  12.506
17069W        W88795   6.737   2.855  10.594
17070W        W88796  15.588  34.476   2.906
17071W        W88797  33.496   9.791   1.810
17072W        W88798  41.096  19.038  14.950
17073W        W88799  44.059  37.354  14.031
17074W        W88800  31.459  36.629   2.271
17075W        W88801  15.127  39.814  14.452
17076W        W88802  35.488  32.552  11.453
17077W        W88803  24.185  29.720  12.537
17078W        W88804   8.767  28.830  14.684
17079W        W88805  20.068  14.609  10.767
17080W        W88806   1.279  33.066   4.729
17081W        W88807  44.766  22.477  10.676
17082W        W88808  24.675  16.634  11.735
17083W        W88809   3.909  44.230   1.661
17084W        W88810  36.327  10.879   3.208
17085W        W88811  38.297  24.498  13.936
17086W        W88812  34.275  20.285  12.946
17087W        W88813   0.934  10.873   2.731
17088W        W88814  37.998   7.949   1.192
17089W        W88815  16.302   9.283  12.283
17090W        W88816  39.771  27.112  14.488
17091W        W88817  37.831  11.837   4.015
17092W        W88818  17.692  17.350   4.795
17093W        W88819   2.826  23.209  14.991
17094W        W88820  26.886  36.759   2.184
17095W        W88821   6.812  13.015  14.676
17096W        W88822  39.634  10.020   1.353
17097W        W88823  18.637   0.273   9.954
17098W        W88824  26.178  23.955  12.964
17099W        W88825   0.378  25.768  12.036
17100W        W88826  11.779  19.065   4.755
17101W        W88827  18.247  29.439  11.682
17102W        W88828  12.750  34.178  11.554
17103W        W88829   4.885  12.433   1.907
17104W        W88830   9.674  24.609   3.771
17105W        W88831  23.439   9.716   1.284
17106W        W88832  44.472  37.923   0.007
17107W        W88833  16.387   5.111  10.648
17108W        W88834  31.612  39.011   3.712
17109W        W88835  40.545  29.453  13.376
17110W        W88836  31.905  13.418   4.772
17111W        W88837   1.565   8.192   2.919
17112W        W88838   9.788  39.521   4.413
17113W        W88839  21.570  37.816   1.816
17114W        W88840  19.994  11.828   1.346
17115W        W88841  42.974  23.573   0.428
17116W        W88842  16.339  29.096  11.693
17117W        W88843  42.046  21.097  13.071
17118W        W88844  28.551  35.324  14.929
17119W        W88845  38.389   3.943  10.833
17120W        W88846  44.118  28.126   4.131
17121W        W88847  37.740  29.467   4.651
17122W        W88848  25.656  27.218   4.409
17123W        W88849  24.510  18.081   1.924
17124W        W88850  18.907   0.441   1.778
17125W        W88851  33.350  26.391  10.696
17126W        W88852  13.194  21.106   4.462
17127W        W88853  42.639  37.406  13.800
17128W        W88854   5.819  17.783  11.194
17129W        W88855  35.673  32.583   1.288
17130W        W88856  26.576  37.636  12.842
17131W        W88857  30.079  31.603   0.526
17132W        W88858  41.051  33.901   2.818
17133W        W88859   3.420  22.784  12.084
17134W        W88860  38.465  29.885   0.425
17135W        W88861  42.378  28.154   0.925
17136W        W88862   0.121  17.584   3.166
17137W        W88863   8.196  44.998   3.897
17138W        W88864  14.871   8.325  14.161
17139W        W88865  14.040   8.688  12.980
17140W        W88866  31.927  28.431  11.530
17141W        W88867  18.544  43.407  12.854
17142W        W88868   8.795  32.606  13.915
17143W        W88869  21.292   7.699   2.003
17144W        W88870  27.394  28.980   3.262
17145W        W88871  41.970  18.716  13.409
17146W        W88872  34.874  44.445   1.366
17147W        W88873  21.610   2.433   2.781
17148W        W88874   5.671  15.991   0.883
17149W        W88875  11.567  22.679   2.238
17150W        W88876  37.157  39.815   4.174
17151W        W88877  31.925   2.435   0.415
17152W        W88878  29.950  17.161  12.051
17153W        W88879  37.268  41.267   3.160
17154W        W88880  42.282  29.965   0.429
17155W        W88881  14.407   8.226   4.508
17156W        W88882  10.129  35.910   2.849
17157W        W88883   4.743  18.103   4.811
17158W        W88884  22.572  15.735  11.029
17159W        W88885  32.620  33.759   4.492
17160W        W88886  39.444  15.295   4.306
17161W        W88887  39.572   6.833   3.720
17162W        W88888  13.661  16.546  14.819
17163W        W88889  34.439  43.090  12.782
17164W        W88890   9.130  13.588  11.646
17165W        W88891  37.430   7.307   3.841
17166W        W88892  18.107   3.612  11.483
17167W        W88893  39.397   1.397   2.360
17168W        W88894  43.192  39.346   0.303
17169W        W88895  31.714  13.536   3.680
17170W        W88896  24.810  38.139  12.198
17171W        W88897  27.482  19.972  13.026
17172W        W88898  32.076  27.052   2.213
17173W        W88899  33.908  35.680   1.392
17174W        W88900  10.192  19.408   1.957
17175W        W88901  29.090  14.255  11.748
17176W        W88902  27.713  18.546  13.631
17177W        W88903  37.450  44.585  11.517
17178W        W88904  21.231  33.124   2.213
17179W        W88905  11.292  40.264  13.615
17180W        W88906   5.355  43.791  13.279
17181W        W88907   5.660  33.614  12.029
17182W        W88908  37.164  19.263   0.984
17183W        W88909  29.144  10.848   4.746
17184W        W88910  16.798   3.669   0.924
17185W        W88911  13.324   7.347  10.588
17186W        W88912   9.255  21.062   4.149
17187W        W88913  29.610   0.835   4.628
17188W        W88914  24.978  16.373   4.661
17189W        W88915  20.078  38.242   0.380
17190W        W88916  30.186  29.938   3.648
17191W        W88917  37.984  32.772  12.510
17192W        W88918  28.779  40.826   0.991
17193W        W88919  10.774  25.436  11.105
17194W        W88920  23.657  16.214   2.935
17195W        W88921  28.099  24.273   1.290
17196W        W88922  13.830  40.143   4.877
17197W        W88923   9.035  44.458   3.887
17198W        W88924  35.160   5.020  14.472
17199W        W88925   1.714  30.239   4.310
17200W        W88926  14.254  28.543  14.729
17201W        W88927   7.498  27.975  13.398
17202W        W88928  38.465  15.263   0.534
17203W        W88929  18.545  27.077   1.581
17204W        W88930  18.355  37.400   0.910
17205W        W88931  14.097  42.314   4.176
17206W        W88932  17.815   1.879   2.219
17207W        W88933  34.332  11.237  12.995
17208W        W88934  10.184  36.646  12.837
17209W        W88935  11.865  24.600   0.845
17210W        W88936  35.986  38.856  14.827
17211W        W88937  30.004  44.767  13.837
17212W        W88938  29.504  16.583   2.128
17213W        W88939  17.967  20.743  11.186
17214W        W88940   2.384   8.861   2.126
17215W        W88941  27.227  31.157  13.482
17216W        W88942   0.031  28.344   2.333
17217W        W88943  32.603  19.623  12.922
17218W        W88944   5.553   5.917   1.235
17219W        W88945  36.077  31.703   2.360
17220W        W88946  25.964   6.023  14.831
17221W        W88947  26.754  24.233   3.273
17222W        W88948  44.396  14.754  13.012
17223W        W88949  42.500  18.153   1.000
17224W        W88950  14.828  20.692   0.376
17225W        W88951  40.073  33.081   2.210
17226W        W88952  22.217  18.817  14.570
17227W        W88953  15.237  21.134   0.981
17228W        W88954  26.968  37.329  13.029
17229W        W88955  43.551   4.921  13.490
17230W        W88956   5.985  43.061  12.073
17231W        W88957  14.516  20.049  14.405
17232W        W88958  38.998  21.233  14.377
17233W        W88959   2.233  39.836   4.158
17234W        W88960   3.204  14.382   2.219
17235W        W88961   3.911  19.520  14.770
17236W        W88962  31.067   8.069  11.105
17237W        W88963  37.511  34.527  12.906
17238W        W88964   1.375  21.687   1.284
17239W        W88965  21.333  19.707  11.616
17240W        W88966  20.199  43.814   2.088
17241W        W88967  36.387  13.776   3.856
17242W        W88968  12.629  13.768   0.369
17243W        W88969  16.501  44.794  11.291
17244W        W88970  17.006  41.784   2.877
17245W        W88971  27.517  25.010   1.298
17246W        W88972  24.930  12.158  13.334
17247W        W88973   6.387  31.592  13.320
17248W        W88974  18.550  38.835  11.227
17249W        W88975   4.890  16.302   5.098
17250W        W88976  13.175   3.968  12.027
17251W        W88977  20.488   5.656  11.570
17252W        W88978   9.188  17.723   0.526
17253W        W88979  18.180   2.541   4.670
17254W        W88980  32.470  26.952   4.405
17255W        W88981   2.262  19.285  10.557
17256W        W88982  24.488  12.064   1.505
17257W        W88983   6.316  18.783  14.260
17258W        W88984  11.649   8.407   3.867
17259W        W88985  42.621  11.361  10.619
17260W        W88986  24.400   2.784   2.930
17261W        W88987   3.446  18.022   0.846
17262W        W88988  13.872  16.669  13.811
17263W        W88989   6.160   9.923  14.946
17264W        W88990  41.311   1.932  12.961
17265W        W88991  24.265   7.209   4.582
17266W        W88992   3.884  41.359  10.778
17267W        W88993  38.536  18.413  12.327
17268W        W88994  38.628  43.424   0.770
17269W        W88995  41.293  24.562  12.132
17270W        W88996  37.581  43.886  12.047
17271W        W88997  33.002  33.953  11.418
17272W        W88998  38.244  16.231  11.720
17273W        W88999  23.177  40.887   3.129
17274W        W89000  14.193  33.548   1.635
17275W        W89001  19.183  27.666   3.120
17276W        W89002  27.894  17.589   4.694
17277W        W89003  33.463  38.003   4.605
17278W        W89004   9.347  27.369   3.692
17279W        W89005  13.379  32.613  12.417
17280W        W89006  12.421  29.547   1.230
17281W        W89007   4.256  39.856  14.960
17282W        W89008  40.559  18.646  11.496
17283W        W89009   0.239  41.268  12.406
17284W        W89010  12.822  37.309   3.584
17285W        W89011  25.476  39.253  13.955
17286W        W89012  42.195  32.944   3.332
17287W        W89013  41.647  29.015   3.234
17288W        W89014   6.784  12.804   5.112
17289W        W89015   6.410  33.185   1.222
17290W        W89016  38.949  28.344   4.052
17291W        W89017  19.852   1.730  14.843
17292W        W89018  16.673  43.680  10.788
17293W        W89019  17.013  34.829  10.358
17294W        W89020  41.780  29.716  14.560
17295W        W89021  28.684   2.249  13.259
17296W        W89022   3.276  26.356  13.967
17297W        W89023  31.618  37.560  14.554
17298W        W89024  31.407   6.158  12.588
17299W        W89025   6.152  20.633   0.930
17300W        W89026   1.360  14.008   2.639
17301W        W89027   9.913  41.665  14.149
17302W        W89028   6.735  12.572  14.945
17303W        W89029  34.898   3.114   2.162
17304W        W89030  14.061  11.179  13.984
17305W        W89031   9.464   7.133  10.317
17306W        W89032  18.507  42.326   4.442
17307W        W89033  17.910  17.678  11.185
17308W        W89034  22.464   0.594   0.981
17309W        W89035  29.414   1.037  14.947
17310W        W89036  19.043  24.557   3.702
17311W        W89037  37.378  38.909   1.381
17312W        W89038  21.603  12.731   3.754
17313W        W89039  21.941  43.497   0.441
17314W        W89040  34.560   9.343   0.397
17315W        W89041  36.769   8.246   2.463
17316W        W89042  42.324   2.071   1.856
17317W        W89043   7.832  16.894   1.441
17318W        W89044   9.375  41.927  12.855
17319W        W89045  29.966  14.631   2.970
17320W        W89046  43.485  28.884   3.248
17321W        W89047   5.629  39.369   4.083
17322W        W89048  39.708   6.312   3.095
17323W        W89049   0.466   7.423  13.333
17324W        W89050  41.110  39.344   3.756
17325W        W89051   4.614  15.269  10.376
17326W        W89052  21.281  39.525   0.803
17327W        W89053   4.283  32.162  12.096
17328W        W89054  26.656  36.668  12.449
17329W        W89055  25.137  11.740  13.580
17330W        W89056  44.382  35.705  13.238
17331W        W89057   4.785  26.240  13.360
17332W        W89058  16.521   3.907   1.269
17333W        W89059  22.592   6.798   3.830
17334W        W89060  41.112  17.259  13.402
17335W        W89061  13.307  30.654  11.856
17336W        W89062  43.214  35.889  10.590
17337W        W89063  36.992  15.212  14.093
17338W        W89064  23.301  26.946   2.720
17339W        W89065  15.972  19.030  14.449
17340W        W89066   3.441   7.922  11.603
17341W        W89067  30.599  38.786   2.188
17342W        W89068  25.590  28.165  14.013
17343W        W89069  32.249  21.493   3.345
17344W        W89070  31.168  28.498   0.008
17345W        W89071  13.860  21.688   1.440
17346W        W89072  13.878  30.521   3.150
17347W        W89073  14.510  37.164   0.762
17348W        W89074  26.512   7.624   1.841
17349W        W89075  44.994   5.737   3.189
17350W        W89076  25.554   0.187  13.885
17351W        W89077  27.251  14.923  11.728
17352W        W89078  30.388  24.741  12.898
17353W        W89079  35.620  31.704   1.376
17354W        W89080  27.209  31.400   1.258
17355W        W89081  39.613  20.118   3.385
17356W        W89082  32.794  30.577  13.271
17357W        W89083  21.199  36.454  13.039
17358W        W89084  15.212  27.541  12.578
17359W        W89085   4.776  33.073  14.981
17360W        W89086  17.026  23.089  13.780
17361W        W89087   1.380  34.925   3.907
17362W        W89088   1.346  18.730   0.417
17363W        W89089  10.001  35.384  13.605
17364W        W89090  28.465  36.071  10.909
17365W        W89091  11.357  39.866  14.449
17366W        W89092  40.403   2.465   3.318
17367W        W89093   3.287  16.839   2.360
17368W        W89094  41.004  14.869   0.900
17369W        W89095  44.391  34.794  11.209
17370W        W89096  24.040   7.658   4.495
17371W        W89097  33.299  28.915   0.871
17372W        W89098  18.257  37.700   2.269
17373W        W89099   4.310  19.048   4.867
17374W        W89100   1.916  15.088   3.590
17375W        W89101  21.262  27.470   0.134
17376W        W89102  33.423  19.672   2.802
17377W        W89103   0.902  25.627  12.087
17378W        W89104  18.720   4.972  12.458
17379W        W89105  40.329  11.821   4.561
17380W        W89106  14.797   2.151  11.233
17381W        W89107   3.025   9.260   3.431
17382W        W89108  28.092  16.384   1.377
17383W        W89109  35.201   9.825   3.632
17384W        W89110  40.529   9.185   1.410
17385W        W89111  27.235  29.571  12.452
17386W        W89112  23.407  40.041   4.030
17387W        W89113  20.812  27.244  14.253
17388W        W89114  26.247   5.297  11.691
17389W        W89115   6.343   2.372   1.749
17390W        W89116  19.781   6.752  13.370
17391W        W89117  23.130  18.635  10.758
17392W        W89118  21.619  18.585   1.898
17393W        W89119  29.365   3.949   4.086
17394W        W89120  42.711  41.787   2.263
17395W        W89121  36.093  44.696  13.372
17396W        W89122  12.164   6.130   4.861
17397W        W89123  43.506  35.015   1.745
17398W        W89124  13.098   2.891   4.635
17399W        W89125   5.359  19.472  14.455
17400W        W89126   0.347  30.923   3.562
17401W        W89127  22.785  32.637  12.411
17402W        W89128  32.358   9.195   2.348
17403W        W89129   7.295  35.154   4.775
17404W        W89130   7.768  40.407  12.127
17405W        W89131  30.454  17.103  12.161
17406W        W89132   7.999  16.320  12.385
17407W        W89133  24.999  12.994   4.301
17408W        W89134  25.145   1.858  14.538
17409W        W89135  18.158  35.576   0.741
17410W        W89136  11.211  40.866   4.133
17411W        W89137  22.087  15.589   1.450
17412W        W89138  27.512   4.974  14.048
17413W        W89139  42.785  15.580  13.831
17414W        W89140   5.500  37.720   3.322
17415W        W89141  10.843  34.380   0.427
17416W        W89142  43.945   1.367  12.804
17417W        W89143  18.792  33.812  11.474
17418W        W89144   0.307   6.416  10.810
17419W        W89145   4.899  27.949   4.133
17420W        W89146   5.708  19.332   3.131
17421W        W89147   2.735  17.049  13.648
17422W        W89148  17.625  26.321   3.098
17423W        W89149  26.952  42.814   1.379
17424W        W89150   1.698   6.239  13.432
17425W        W89151  27.893  29.257   0.937
17426W        W89152  34.381  42.734   2.450
17427W        W89153  15.117  26.244  14.699
17428W        W89154  29.031   1.910   4.490
17429W        W89155  31.715   5.012   3.795
17430W        W89156  13.904  29.110  12.034
17431W        W89157  42.081  30.526  14.214
17432W        W89158  36.919  12.737   0.681
17433W        W89159  39.763  41.920  14.241
17434W        W89160  38.116  43.376  11.136
17435W        W89161  27.547  15.262   1.237
17436W        W89162   4.776  22.207  11.569
17437W        W89163  15.790  16.092   3.345
17438W        W89164  32.669  33.374  14.363
17439W        W89165  40.311  13.797   3.197
17440W        W89166  34.895   0.250  12.791
17441W        W89167  17.807  13.308   3.318
17442W        W89168  24.254  33.021  10.597
17443W        W89169   6.241   3.232   2.426
17444W        W89170  36.390   2.351  12.933
17445W        W89171  11.871  35.875   4.522
17446W        W89172   7.187   1.280   4.868
17447W        W89173  15.233  37.071   5.635
17448W        W89174   3.749  29.536   3.382
17449W        W89175   6.740  44.939   0.919
17450W        W89176  28.390  44.455   4.846
17451W        W89177  16.639   7.410   3.212
17452W        W89178   5.388  41.335   4.977
17453W        W89179  35.872  23.562   4.490
17454W        W89180  32.771  10.070  14.358
17455W        W89181  38.014  35.187  14.036
17456W        W89182   5.660  13.749  13.328
17457W        W89183  28.286  43.220   1.891
17458W        W89184  22.421  36.345   1.349
17459W        W89185  31.660  41.911   1.235
17460W        W89186  38.129  29.010  13.275
17461W        W89187  38.385  30.695   1.263
17462W        W89188  16.576  10.293  10.643
17463W        W89189  27.640  41.124   2.601
17464W        W89190  22.997  42.295   1.984
17465W        W89191  11.495  32.450   4.056
17466W        W89192  24.013   1.853   4.047
17467W        W89193  28.211  14.726  13.049
17468W        W89194   4.581  15.417  12.910
17469W        W89195  22.088   0.711  10.811
17470W        W89196  42.241  33.513  14.438
17471W        W89197  42.572  44.820  12.480
17472W        W89198  23.483   0.257   0.972
17473W        W89199  16.710  13.731   4.259
17474W        W89200  29.959  14.096   4.961
17475W        W89201  33.035  17.734  10.656
17476W        W89202  19.951  32.412   0.608
17477W        W89203  39.703  39.800   1.911
17478W        W89204  27.097  12.171  12.067
17479W        W89205  23.147  11.148   1.908
17480W        W89206  12.205  44.466  13.982
17481W        W89207  32.204  28.107  12.906
17482W        W89208  17.068  24.135   4.510
17483W        W89209  38.589  38.791  13.831
17484W        W89210  15.701  39.497  12.352
17485W        W89211  26.901  12.556  14.864
17486W        W89212   9.716  22.503  14.311
17487W        W89213  28.398  25.951   4.669
17488W        W89214  13.275   3.473  11.988
17489W        W89215  34.407  36.346  11.612
17490W        W89216   2.981  13.236  13.811
17491W        W89217  38.022  13.266  12.019
17492W        W89218  34.612  23.300  14.351
17493W        W89219  26.674  27.123   5.068
17494W        W89220  10.680  39.975   2.300
17495W        W89221  14.705  11.889  12.976
17496W        W89222  12.229  20.042  11.574
17497W        W89223  36.615  32.090  12.347
17498W        W89224  17.328  44.259  11.975
17499W        W89225  44.404  35.573   3.710
17500W        W89226  31.862  27.838   1.016
17501W        W89227  13.696   0.256   0.250
17502W        W89228  36.293  43.359   0.542
17503W        W89229  13.669  21.032   1.493
17504W        W89230  29.731  10.863   2.723
17505W        W89231   1.858   5.393   2.799
17506W        W89232  41.491  30.140   4.534
17507W        W89233  14.235  22.650  10.937
17508W        W89234  33.883   4.765   3.715
17509W        W89235  28.014  16.637   2.207
17510W        W89236   7.768  16.345   4.183
17511W        W89237  35.066   0.239   1.813
17512W        W89238  35.376   1.882   4.164
17513W        W89239  13.746  20.442   2.356
17514W        W89240  23.907  22.019  14.945
17515W        W89241  35.063  34.947   4.632
17516W        W89242  15.245   7.028   1.308
17517W        W89243   8.226  25.404  10.362
17518W        W89244   4.433  35.423   1.842
17519W        W89245  12.338   9.728   1.444
17520W        W89246   2.724  26.125  12.714
17521W        W89247  21.587   8.579  13.389
17522W        W89248  31.410  42.420   4.968
17523W        W89249  25.072  17.525   2.281
17524W        W89250   8.598  23.710  12.432
17525W        W89251  12.892   6.894   1.486
17526W        W89252  30.273  15.088  14.372
17527W        W89253  37.050  34.691  13.897
17528W        W89254  38.482  11.219  11.468
17529W        W89255  35.593   8.476  10.799
17530W        W89256  41.352  42.865   1.218
17531W        W89257   7.058   4.983  11.623
17532W        W89258  25.690  21.229  12.207
17533W        W89259   4.396  15.211  13.995
17534W        W89260  41.506   0.380  12.128
17535W        W89261  43.992   1.801   3.579
17536W        W89262  20.190  28.648   3.691
17537W        W89263   6.905  22.162  14.973
17538W        W89264  22.792  12.509  11.121
17539W        W89265  14.804   8.194   3.309
17540W        W89266   9.125  30.183  13.540
17541W        W89267  10.852  37.356  10.771
17542W        W89268  21.207  19.053  11.107
17543W        W89269  25.060  37.948   1.352
17544W        W89270  24.695  25.065   2.833
17545W        W89271  13.406  39.803   4.737
17546W        W89272  24.242  40.027  11.568
17547W        W89273   7.393   4.771   9.380
17548W        W89274  39.971  10.277   4.977
17549W        W89275  26.682  32.019  14.935
17550W        W89276  20.258  21.770  12.497
17551W        W89277  35.765  44.804  14.223
17552W        W89278   3.398  39.253  14.464
17553W        W89279  37.032  22.191   3.290
17554W        W89280   1.309  21.198   0.174
17555W        W89281  14.224  22.449  12.910
17556W        W89282  10.207  14.583  13.749
17557W        W89283   7.913  18.071   4.082
17558W        W89284  22.205  27.517   1.387
17559W        W89285  38.366  35.182  14.853
17560W        W89286  20.425   1.215   0.412
17561W        W89287  18.482  21.680  13.561
17562W        W89288   0.994  19.299   4.614
17563W        W89289  20.115   8.328  13.388
17564W        W89290   6.748  19.059  11.118
17565W        W89291   1.240  10.415   0.698
17566W        W89292  37.717  23.202   4.945
17567W        W89293  40.536  35.537   0.314
17568W        W89294  28.769  39.889  11.537
17569W        W89295   4.795  42.261  13.978
17570W        W89296  44.429  42.251   3.315
17571W        W89297  37.650   5.968   3.682
17572W        W89298   2.215   5.157  14.446
17573W        W89299   3.347   7.206  11.176
17574W        W89300  39.162   6.211   1.279
17575W        W89301  25.178  39.711  11.494
17576W        W89302   8.309  11.320   0.456
17577W        W89303   7.641  27.117  14.825
17578W        W89304   3.949   4.227  13.065
17579W        W89305  13.841  26.731  10.709
17580W        W89306  14.053  37.825   4.740
17581W        W89307  14.860  18.168   9.781
17582W        W89308  40.540   0.365   1.928
17583W        W89309   8.684  36.407   3.760
17584W        W89310  40.721   5.850  13.944
17585W        W89311  11.611  42.505   1.807
17586W        W89312  33.572  15.105  11.024
17587W        W89313  11.525  21.634   0.436
17588W        W89314  28.419   4.181   2.923
17589W        W89315   9.736  38.288  13.560
17590W        W89316  10.584  11.854   2.765
17591W        W89317   5.755  17.557   3.132
17592W        W89318  12.842  25.902   3.572
17593W        W89319  41.597  30.634  14.032
17594W        W89320  12.278   5.835  12.319
17595W        W89321  36.939   4.990   3.766
17596W        W89322   1.765  39.134   3.214
17597W        W89323  26.122  29.428  14.017
17598W        W89324   2.698   1.357  10.848
17599W        W89325   4.156  35.005   0.190
17600W        W89326   3.343   4.369   3.957
17601W        W89327  43.817  31.158  13.294
17602W        W89328  35.567  41.570  14.897
17603W        W89329  37.968  25.434  14.486
17604W        W89330  40.405  36.234  10.763
17605W        W89331  31.682  24.160   3.864
17606W        W89332  21.978  25.177  12.291
17607W        W89333  15.119   6.466  13.441
17608W        W89334  17.968  29.209  14.519
17609W        W89335  34.628  19.982   0.885
17610W        W89336   2.479  41.041   4.143
17611W        W89337   5.897  26.088  14.961
17612W        W89338  27.664   2.510   3.801
17613W        W89339  17.331  34.837  12.082
17614W        W89340   1.527  16.685   1.734
17615W        W89341  32.513  39.438   4.689
17616W        W89342   3.104  17.635   4.122
17617W        W89343  21.063  11.814  12.836
17618W        W89344   7.129  15.757   0.798
17619W        W89345  20.149  37.047   4.576
17620W        W89346  32.102  22.945   2.842
17621W        W89347  28.986  36.331  13.331
17622W        W89348  24.878  25.055  11.564
17623W        W89349  34.052  43.324   5.479
17624W        W89350  15.163   7.186  11.421
17625W        W89351   8.329   8.677   4.586
17626W        W89352  30.180  12.823   4.775
17627W        W89353  29.046  28.902   1.119
17628W        W89354  39.881   3.460  14.018
17629W        W89355  44.285  21.680  12.153
17630W        W89356  19.208   6.357  14.527
17631W        W89357  25.869   7.130  10.908
17632W        W89358  34.028  21.647   0.051
17633W        W89359  37.156  36.088   1.942
17634W        W89360   3.721   0.842  13.524
17635W        W89361  41.719  37.606  13.802
17636W        W89362   5.041  22.715   4.554
17637W        W89363  27.209  36.125   4.908
17638W        W89364  44.497   8.931  12.482
17639W        W89365  42.388  12.923   4.661
17640W        W89366  17.146  27.542   0.222
17641W        W89367  29.816   3.349  12.728
17642W        W89368  31.867  27.575   3.732
17643W        W89369  27.630  33.123  11.954
17644W        W89370  12.102   3.363   0.344
17645W        W89371  11.154  33.630  13.271
17646W        W89372  11.589   9.209   1.271
17647W        W89373  27.281  27.933  12.013
17648W        W89374  18.123   1.913   1.348
17649W        W89375   5.690  29.193  11.973
17650W        W89376  33.300  44.241   3.420
17651W        W89377  22.082  40.343   0.783
17652W        W89378  38.866  35.830  11.651
17653W        W89379  26.128   4.834  10.938
17654W        W89380  42.001  23.519  14.343
17655W        W89381   1.340  42.979   1.530
17656W        W89382   6.373  31.830   1.634
17657W        W89383  35.427   5.455   3.894
17658W        W89384   8.923  25.675  13.025
17659W        W89385   8.651  10.308   4.573
17660W        W89386  16.120  28.612   3.944
17661W        W89387   5.375  34.045   3.185
17662W        W89388  34.165  13.293   2.515
17663W        W89389  18.687  21.805   3.349
17664W        W89390  40.401  44.752  12.580
17665W        W89391  19.676  13.314  11.149
17666W        W89392  44.059   1.360  11.184
17667W        W89393   9.906  36.918   2.921
17668W        W89394  29.770  44.508   1.262
17669W        W89395  27.448  43.470   1.464
17670W        W89396   2.822  41.442  13.831
17671W        W89397  10.271  11.236   1.205
17672W        W89398   3.719  37.951  10.720
17673W        W89399  10.601  13.756  10.758
17674W        W89400  30.469  41.883  10.096
17675W        W89401  38.767  13.411  12.950
17676W        W89402  13.783  37.464   0.853
17677W        W89403   9.284  30.980   3.525
17678W        W89404   1.201   6.795  11.670
17679W        W89405  29.648  37.446  12.103
17680W        W89406   9.209   8.174   1.857
17681W        W89407  43.161  11.763   4.202
17682W        W89408  29.090  40.788  12.996
17683W        W89409  17.873  35.228  11.229
17684W        W89410  38.099   4.335  10.651
17685W        W89411  39.484  31.032  10.926
17686W        W89412  36.158  11.094   2.762
17687W        W89413  14.985  38.357   0.313
17688W        W89414  28.506   4.705  13.940
17689W        W89415  17.819   1.774   4.871
17690W        W89416  43.333  14.430   4.555
17691W        W89417  21.559  43.586  12.305
17692W        W89418  12.014  28.268  12.124
17693W        W89419  43.712  29.557  12.542
17694W        W89420  44.013  32.686  11.687
17695W        W89421  37.833  41.380   0.419
17696W        W89422   2.955   2.753  14.367
17697W        W89423  12.002   0.506   2.738
17698W        W89424   9.827   1.459   3.261
17699W        W89425  34.054   7.648  14.937
17700W        W89426  34.682  40.863  11.645
17701W        W89427  15.364  38.754  13.572
17702W        W89428  35.863  14.576  12.889
17703W        W89429  22.369   1.740  11.561
17704W        W89430  20.620   6.887   2.165
17705W        W89431   3.842  43.982   3.579
17706W        W89432   3.454  16.791   4.592
17707W        W89433  16.841  29.947  12.547
17708W        W89434  31.959  35.605  12.924
17709W        W89435  17.774  44.054  13.660
17710W        W89436  22.603  44.790   1.799
17711W        W89437   3.999   0.948  13.071
17712W        W89438  29.542  21.229   0.298
17713W        W89439  28.138  30.152   0.305
17714W        W89440  32.307  13.141  13.900
17715W        W89441   8.724   1.285   0.332
17716W        W89442  25.122  11.846   2.600
17717W        W89443   1.892  42.574   2.367
17718W        W89444  24.683  11.392   1.745
17719W        W89445  22.642   4.422  14.487
17720W        W89446  31.012   9.718   2.314
17721W        W89447  31.842  22.219   0.415
17722W        W89448  14.785  26.192   2.109
17723W        W89449   3.435  41.945  11.149
17724W        W89450  38.749   0.932   4.765
17725W        W89451  31.978  20.646   1.746
17726W        W89452  10.454  17.569   3.588
17727W        W89453   7.288  20.301  14.754
17728W        W89454  38.902  20.055  11.645
17729W        W89455  41.330  16.467  14.753
17730W        W89456   7.021  32.979   1.173
17731W        W89457   3.893   2.774  14.877
17732W        W89458  18.048  12.775  11.074
17733W        W89459  25.518   8.332  13.381
17734W        W89460  43.154   6.322  10.309
17735W        W89461  37.089  35.990   3.663
17736W        W89462  29.249  32.910  14.508
17737W        W89463   3.711  32.321  13.472
17738W        W89464  34.638  17.100  14.843
17739W        W89465   8.323  44.764   3.435
17740W        W89466  41.361  15.299  10.490
17741W        W89467   3.246  17.547  14.983
17742W        W89468  38.984  13.361  11.090
17743W        W89469  36.023  33.974   3.885
17744W        W89470   8.806   7.674   3.890
17745W        W89471  10.389   9.270   3.871
17746W        W89472  24.560  33.830   3.234
17747W        W89473  12.538  22.166   4.726
17748W        W89474   5.734  38.113  12.396
17749W        W89475  30.938   8.809   1.661
17750W        W89476  14.235  17.531  12.919
17751W        W89477  29.019  14.405   3.753
17752W        W89478  44.941  27.844   3.676
17753W        W89479  14.194  22.530  11.480
17754W        W89480  44.002  29.128  13.458
17755W        W89481  35.081  34.554  11.739
17756W        W89482  15.440  13.530  14.848
17757W        W89483  44.543  30.145  13.899
17758W        W89484   1.921   2.320   0.285
17759W        W89485  23.255  32.844  11.500
17760W        W89486   1.128   7.291   2.803
17761W        W89487  39.714  36.023   3.499
17762W        W89488  35.796  22.450   2.222
17763W        W89489  36.880  27.392  11.706
17764W        W89490  31.955   0.835   2.699
17765W        W89491  20.086  20.598   5.043
17766W        W89492   5.484  11.268  11.131
17767W        W89493  10.629  21.707   4.336
17768W        W89494  22.632   8.219  12.485
17769W        W89495  10.155  10.424  13.813
17770W        W89496   5.794  27.727  10.975
17771W        W89497  25.818  35.371  14.174
17772W        W89498  39.586  31.241   1.157
17773W        W89499   7.860  38.601  10.829
17774W        W89500  26.640  43.468   1.820
17775W        W89501  24.514  36.420  13.245
17776W        W89502  44.099  11.093  13.362
17777W        W89503  12.783  36.684   2.806
17778W        W89504  34.812  32.217  11.182
17779W        W89505  34.809  12.671   3.198
17780W        W89506   4.193   6.160  14.452
17781W        W89507  18.162   6.370  14.514
17782W        W89508  32.850  17.698   2.635
17783W        W89509  42.619  27.530  11.765
17784W        W89510  40.964  29.190   0.920
17785W        W89511  21.488  11.908  12.292
17786W        W89512  44.403   0.960  12.063
17787W        W89513  34.640   0.566   2.677
17788W        W89514   3.707  17.293   3.899
17789W        W89515  29.508  25.866  12.866
17790W        W89516  37.429   9.672   4.703
17791W        W89517   3.146  24.177   0.824
17792W        W89518  21.569  44.797  13.603
17793W        W89519   3.225   1.450  14.282
17794W        W89520  41.221   6.911  14.708
17795W        W89521  28.388  29.973   3.910
17796W        W89522  19.672  33.820   4.950
17797W        W89523  14.818  17.189   0.906
17798W        W89524  41.684  12.727   0.186
17799W        W89525  16.574  27.614  14.567
17800W        W89526  21.694  43.579   2.354
17801W        W89527  27.003  22.006   4.534
17802W        W89528  21.022  26.550   2.891
17803W        W89529   1.316  16.738  12.826
17804W        W89530  35.324  32.503   3.151
17805W        W89531  36.149  27.139  14.267
17806W        W89532  11.329  10.287  11.393
17807W        W89533  31.970  38.549   0.070
17808W        W89534   7.381  43.525   0.516
17809W        W89535  44.302  24.762  11.168
17810W        W89536   7.339   7.481   3.757
17811W        W89537  15.294  15.220   0.927
17812W        W89538  19.364   6.438   3.075
17813W        W89539  39.017  44.365  13.308
17814W        W89540   3.683  12.381   0.409
17815W        W89541  31.625   1.357  13.884
17816W        W89542  34.349  34.109   3.204
17817W        W89543  15.070  17.959  13.812
17818W        W89544   7.772  10.576  11.101
17819W        W89545  12.770  31.095   1.894
17820W        W89546  32.088  28.658  12.844
17821W        W89547  33.469  11.060   4.065
17822W        W89548  15.655  17.626   1.325
17823W        W89549  41.902  42.453  13.301
17824W        W89550  39.022  32.806   0.832
17825W        W89551   9.219  28.206  14.963
17826W        W89552  36.614  34.268   4.305
17827W        W89553   6.950   0.264  13.911
17828W        W89554   6.327   3.002   0.632
17829W        W89555   0.223  17.831   2.222
17830W        W89556  19.257  42.767  10.392
17831W        W89557  38.436  44.662   2.486
17832W        W89558  35.629  22.191  14.467
17833W        W89559  35.049  10.705  12.958
17834W        W89560  40.764  14.335  14.367
17835W        W89561  44.792  25.069   3.650
17836W        W89562   0.726  15.500  11.172
17837W        W89563  40.265  14.088  10.247
17838W        W89564  20.866  36.204   2.397
17839W        W89565  25.090  43.879  12.912
17840W        W89566  11.375  41.139  14.069
17841W        W89567   3.218   1.434  12.880
17842W        W89568  16.011   9.689  13.999
17843W        W89569  22.504  19.806  12.575
17844W        W89570  39.103  18.174  10.657
17845W        W89571  33.323  13.595  14.276
17846W        W89572   4.420  16.169   0.362
17847W        W89573  11.310   7.246   2.862
17848W        W89574  28.607  34.271  12.577
17849W        W89575  31.644  42.229  13.215
17850W        W89576  31.575  39.854   3.537
17851W        W89577   5.683  17.398  11.979
17852W        W89578  36.569  31.343   3.238
17853W        W89579  40.368  11.231   1.233
17854W        W89580  31.105  16.157   0.313
17855W        W89581   8.867   5.836   2.756
17856W        W89582   0.405   3.695   2.828
17857W        W89583  19.294  13.900   2.490
17858W        W89584  39.451   7.720  12.069
17859W        W89585  18.157  41.796  11.414
17860W        W89586  17.260  30.990  14.368
17861W        W89587  35.088   2.907   4.735
17862W        W89588   3.384  37.798  11.667
17863W        W89589   6.861   2.958   1.386
17864W        W89590  30.260  25.031  10.902
17865W        W89591  15.227  31.020  13.690
17866W        W89592  41.563  21.057  13.352
17867W        W89593  23.987  32.254  11.581
17868W        W89594  38.272   0.362   1.778
17869W        W89595   8.235  28.270  12.096
17870W        W89596   8.466  43.046   1.329
17871W        W89597  25.786  17.132   3.317
17872W        W89598  35.118  23.145  13.546
17873W        W89599   7.912  17.112   3.205
17874W        W89600   0.121  13.063  11.305
17875W        W89601  28.488  27.131   3.042
17876W        W89602   8.228  44.072  14.441
17877W        W89603  12.891  27.244   3.839
17878W        W89604   1.838  33.877   4.548
17879W        W89605  33.489  22.496   4.592
17880W        W89606  33.469  17.162  14.249
17881W        W89607  20.585   6.324  12.017
17882W        W89608  21.686  24.714   2.622
17883W        W89609  30.654  44.305  13.581
17884W        W89610  35.504  43.375  13.286
17885W        W89611  43.394   2.908  13.581
17886W        W89612  42.498  36.982  13.463
17887W        W89613   1.675   9.781  11.048
17888W        W89614  43.519  10.738  14.406
17889W        W89615   1.188  36.916   2.380
17890W        W89616  44.003  33.195  11.645
17891W        W89617   8.913  28.786  12.459
17892W        W89618  41.101   4.469  12.142
17893W        W89619  19.160  30.032  13.128
17894W        W89620  13.548   4.352  11.963
17895W        W89621   5.728   0.397   0.453
17896W        W89622   6.916  38.779   1.739
17897W        W89623  32.725  35.407  11.068
17898W        W89624  33.664   9.219   4.028
17899W        W89625  15.663  31.605  14.011
17900W        W89626   2.137  40.423  13.299
17901W        W89627  24.669  29.658   4.920
17902W        W89628   3.231  17.313   3.715
17903W        W89629  10.249  24.169  11.955
17904W        W89630  39.062  18.230  11.527
17905W        W89631  23.325  13.172   2.471
17906W        W89632  22.538   2.392   0.740
17907W        W89633  26.112  34.109   1.488
17908W        W89634  36.123  41.581   0.808
17909W        W89635  10.548  19.207   3.920
17910W        W89636  17.237  44.352   3.614
17911W        W89637  30.477  36.340  11.246
17912W        W89638  10.730  16.321  13.359
17913W        W89639  19.168  15.445   0.905
17914W        W89640  18.359  25.504  13.799
17915W        W89641  39.782   1.352   0.972
17916W        W89642  26.181  41.081   2.781
17917W        W89643   3.010  42.259   0.262
17918W        W89644  14.749  27.151  11.545
17919W        W89645  42.829  35.452  11.093
17920W        W89646  11.676  38.913  14.255
17921W        W89647  17.142  32.054   1.703
17922W        W89648  31.036  36.184   4.044
17923W        W89649  18.288   4.998   3.213
17924W        W89650  35.745  29.578   0.400
17925W        W89651  33.412  13.408   3.684
17926W        W89652  43.954  18.204  13.866
17927W        W89653  37.905  37.432   4.623
17928W        W89654   9.721  25.226   4.847
17929W        W89655   5.599  25.068  10.768
17930W        W89656  19.908  34.800   0.236
17931W        W89657  33.945  38.517   0.352
17932W        W89658  23.093   7.225   2.173
17933W        W89659  41.574  44.435   1.913
17934W        W89660  20.222  31.954   2.700
17935W        W89661  32.063  22.231  14.825
17936W        W89662   3.828   3.642  13.871
17937W        W89663  37.391  18.512  12.089
17938W        W89664  16.530  18.497  14.019
17939W        W89665  34.559  20.329   4.184
17940W        W89666  33.382  14.049  14.489
17941W        W89667  16.609  25.305  13.482
17942W        W89668   2.816  26.178  13.198
17943W        W89669   7.216  19.725   0.384
17944W        W89670  11.982  24.464   0.349
17945W        W89671  16.147   0.333  14.281
17946W        W89672  29.664  41.026   2.332
17947W        W89673  34.702  24.258   0.369
17948W        W89674  10.763  35.602   3.669
17949W        W89675  40.735  16.083   4.133
17950W        W89676   1.316  35.905   0.456
17951W        W89677  44.770  11.372   1.852
17952W        W89678  27.460   7.361  14.901
17953W        W89679  39.748  37.104   2.410
17954W        W89680  18.010  38.282  14.423
17955W        W89681  10.749  15.380   2.398
17956W        W89682  24.207  35.085   4.173
17957W        W89683  25.183  31.948   1.866
17958W        W89684  15.819   2.497   0.366
17959W        W89685   3.608   3.449  12.948
17960W        W89686  32.524  13.082  12.507
17961W        W89687   2.839  18.301   3.577
17962W        W89688   8.786  17.700   2.859
17963W        W89689  34.520  30.636   3.255
17964W        W89690  24.227   4.725   3.982
17965W        W89691  21.052   3.279   2.438
17966W        W89692  34.313   0.008   3.733
17967W        W89693  13.380   8.717   1.490
17968W        W89694  38.426   0.707   4.387
17969W        W89695  36.009  18.891   3.462
17970W        W89696   3.953  41.386   3.803
17971W        W89697   9.884  12.862   0.828
17972W        W89698  22.103   5.462   4.215
17973W        W89699  26.098   7.786   3.427
17974W        W89700   3.874  18.081   3.018
17975W        W89701   0.401  11.060  11.577
17976W        W89702  32.108   7.063   0.863
17977W        W89703   6.999  28.848  11.889
17978W        W89704  28.977   2.525   3.374
17979W        W89705  10.557   1.212  14.255
17980W        W89706  30.541   9.677   3.776
17981W        W89707  25.477  38.820   2.256
17982W        W89708  15.492  13.402  14.299
17983W        W89709   3.988  18.098   0.863
17984W        W89710  28.070  25.083  13.514
17985W        W89711  25.754  20.300   4.300
17986W        W89712  24.086  35.204  12.945
17987W        W89713  28.503  37.411   0.122
17988W        W89714  11.689   3.954   3.648
17989W        W89715  39.884  28.953  12.192
17990W        W89716  26.198  22.702  13.700
17991W        W89717   3.528  41.822   0.295
17992W        W89718  22.461  27.237   1.830
17993W        W89719  43.517  31.894   3.808
17994W        W89720  30.169   8.863  11.754
17995W        W89721  43.761  21.576  13.725
17996W        W89722  15.595  15.897   0.919
17997W        W89723  29.986   7.898   4.629
17998W        W89724  12.400  15.319  12.064
17999W        W89725   0.400   4.648   1.020
18000W        W89726  13.397  40.614  14.293
18001W        W89727  21.272  20.577   1.842
18002W        W89728  16.536  38.316  10.728
18003W        W89729  12.843  30.135  12.506
18004W        W89730  25.242  35.563   2.216
18005W        W89731  39.034  28.674   0.438
18006W        W89732  36.927  39.485   0.336
18007W        W89733  16.743  10.873   0.755
18008W        W89734   1.964  17.983   2.124
18009W        W89735  16.709  17.333   2.438
18010W        W89736  37.123  39.935   0.497
18011W        W89737  40.954  15.371   4.601
18012W        W89738  34.127  29.934  14.937
18013W        W89739  31.007  17.727  14.740
18014W        W89740  32.000  28.608  13.887
18015W        W89741  13.189  29.961   1.324
18016W        W89742  36.814  11.271   1.647
18017W        W89743  18.022  43.615   3.022
18018W        W89744   5.991   4.974   2.139
18019W        W89745   1.353  27.741   3.551
18020W        W89746  26.728  19.003  11.026
18021W        W89747   7.915   4.221  12.303
18022W        W89748  15.109   7.634  11.100
18023W        W89749  25.367  19.458  10.248
18024W        W89750  18.545  42.817   4.612
18025W        W89751  25.931  36.073  13.602
18026W        W89752  35.563  12.668  12.651
18027W        W89753  10.806   3.625  13.967
18028W        W89754   0.513  10.298  12.982
18029W        W89755   7.175   5.152   0.795
18030W        W89756  13.350  37.072  12.421
18031W        W89757  44.457  10.419  10.297
18032W        W89758  33.562  14.064   3.400
18033W        W89759  35.536  37.000   1.933
18034W        W89760  22.243  37.566   4.784
18035W        W89761  13.259  18.045   5.150
18036W        W89762   5.402  17.149  14.094
18037W        W89763  10.860  12.161  14.518
18038W        W89764  24.525  27.054  10.311
18039W        W89765  41.366  17.667   0.469
18040W        W89766  29.990   0.281  11.608
18041W        W89767  21.811   9.838  14.225
18042W        W89768  44.428  42.459  14.309
18043W        W89769  12.770  42.351   4.393
18044W        W89770   6.897  18.670   0.962
18045W        W89771  25.170  10.313  11.519
18046W        W89772  43.055  27.052   4.208
18047W        W89773  10.235  15.158  13.646
18048W        W89774  11.574  24.170  12.511
18049W        W89775   2.702  15.835  11.119
18050W        W89776  19.127   0.202   2.702
18051W        W89777  42.017  17.631  12.525
18052W        W89778  18.662  12.398  11.185
18053W        W89779  42.347  10.408  13.422
18054W        W89780  11.367   3.674  12.407
18055W        W89781  14.242  34.484   1.717
18056W        W89782   0.366  23.463   0.422
18057W        W89783  36.856  22.253   3.779
18058W        W89784   0.507   7.753  14.122
18059W        W89785  43.007  32.469  13.568
18060W        W89786   0.630  27.971   1.179
18061W        W89787  43.666  11.241  11.600
18062W        W89788  43.448   0.307  14.010
18063W        W89789   9.175  20.912  11.308
18064W        W89790  22.705  13.061   3.642
18065W        W89791  28.040  22.630   1.056
18066W        W89792  39.481  14.029   2.288
18067W        W89793   0.984   7.966  14.870
18068W        W89794  42.982  16.070  13.923
18069W        W89795  19.060   6.156  13.526
18070W        W89796  27.358  14.536   4.558
18071W        W89797  37.089  43.346  12.977
18072W        W89798  11.227  25.003   2.898
18073W        W89799  38.031  32.070  13.506
18074W        W89800  13.307  36.856  13.845
18075W        W89801  43.494  16.112  10.706
18076W        W89802   8.732   9.333   4.769
18077W        W89803  37.251   9.222   1.789
18078W        W89804  16.198   7.383   2.769
18079W        W89805  29.179  14.938   3.887
18080W        W89806  43.330  26.191   4.356
18081W        W89807  24.388   6.927  14.861
18082W        W89808  42.205  33.977   0.822
18083W        W89809   7.155  11.592  10.672
18084W        W89810  16.592  43.582   4.156
18085W        W89811  16.185  23.561   4.632
18086W        W89812  21.578  42.390   3.746
18087W        W89813  24.766  29.637   2.413
18088W        W89814   3.711  43.636   0.043
18089W        W89815  23.703   1.729   3.603
18090W        W89816  39.011   2.778   0.233
18091W        W89817  30.203  40.590  12.037
18092W        W89818  27.344   4.907   4.011
18093W        W89819  19.249   4.096  11.527
18094W        W89820  29.884   4.969   1.398
18095W        W89821  19.600  35.635  11.068
18096W        W89822  21.897  30.083   4.218
18097W        W89823  35.829  44.222  13.315
18098W        W89824   6.378  43.509   1.351
18099W        W89825   4.004  10.260   2.434
18100W        W89826  33.343  18.515   2.679
18101W        W89827  13.576  19.853   4.399
18102W        W89828  44.522  29.690   4.164
18103W        W89829   6.951  36.965  11.501
18104W        W89830  33.718   2.723   3.789
18105W        W89831  22.262  37.609   1.864
18106W        W89832  14.607  40.355  13.956
18107W        W89833  21.749  13.813  13.360
18108W        W89834  22.064  42.961   3.124
18109W        W89835  38.094  39.069   2.835
18110W        W89836   8.922  35.544  13.819
18111W        W89837  22.195  43.790  11.722
18112W        W89838  40.572   5.721   2.224
18113W        W89839  31.207   7.604  14.863
18114W        W89840  35.049  17.176  12.315
18115W        W89841  12.888   7.988  13.666
18116W        W89842  12.826  11.694   0.781
18117W        W89843  24.619   3.857  14.920
18118W        W89844   2.377   3.312  10.614
18119W        W89845  34.633  15.648   1.228
18120W        W89846  27.291  11.200  10.805
18121W        W89847  19.033  21.286  14.048
18122W        W89848  27.137   2.786   1.760
18123W        W89849  33.566  40.909  13.041
18124W        W89850  41.537  44.296   2.427
18125W        W89851  26.046   3.008   0.296
18126W        W89852   6.577  40.812   3.731
18127W        W89853  36.129  35.646   3.271
18128W        W89854  38.015  27.666  11.500
18129W        W89855   6.901  26.471   3.669
18130W        W89856   3.571  19.135   1.329
18131W        W89857  28.097  35.140  11.033
18132W        W89858  36.858   8.734   4.063
18133W        W89859  17.875  35.933   4.150
18134W        W89860  29.516  20.700   2.255
18135W        W89861   5.985  15.256  10.166
18136W        W89862  34.470  41.070  13.702
18137W        W89863  33.077  30.547   3.980
18138W        W89864  12.150  41.043  12.788
18139W        W89865  18.780  30.650  13.426
18140W        W89866  44.840   4.521  12.966
18141W        W89867  26.537  25.196   2.290
18142W        W89868  12.145   3.945  12.882
18143W        W89869  23.285  24.563  11.414
18144W        W89870  26.612  44.789  12.063
18145W        W89871  36.030  35.352  11.575
18146W        W89872  25.767  40.341   2.295
18147W        W89873  14.225  33.856  14.012
18148W        W89874  32.981   4.649   4.664
18149W        W89875   7.743   1.716   1.775
18150W        W89876   3.155   7.287  13.888
18151W        W89877  10.831  38.126   2.838
18152W        W89878  24.488  30.085  11.256
18153W        W89879  18.541  17.701   4.390
18154W        W89880  14.167  40.602  13.838
18155W        W89881  14.782  41.087  14.351
18156W        W89882  27.204  35.446  14.431
18157W        W89883  31.020  15.814   2.844
18158W        W89884  24.710  26.548   0.830
18159W        W89885  19.767  23.981  12.661
18160W        W89886  27.196  19.078  14.134
18161W        W89887  34.493  13.032   4.144
18162W        W89888  43.522  38.937   2.900
18163W        W89889   3.941  31.233   2.331
18164W        W89890  37.766  31.032   3.602
18165W        W89891  21.163  17.027   1.310
18166W        W89892   8.149  27.019   1.704
18167W        W89893  37.131  19.277   1.779
18168W        W89894  24.185   2.467  13.945
18169W        W89895  16.690  33.895  14.403
18170W        W89896   2.448   6.760   4.756
18171W        W89897   3.716  21.213  12.032
18172W        W89898  23.725  16.929  10.593
18173W        W89899  11.732  11.085   1.626
18174W        W89900  37.829  39.008   4.068
18175W        W89901  38.983  13.093   0.450
18176W        W89902  34.444  36.778   4.547
18177W        W89903  22.153  23.589   4.693
18178W        W89904  42.339  31.972  12.787
18179W        W89905   4.347   5.806   2.294
18180W        W89906  10.884   5.692   2.939
18181W        W89907  19.321  17.560  12.488
18182W        W89908   5.989  12.695   2.747
18183W        W89909  19.786  40.694  11.152
18184W        W89910   5.707   4.693  13.957
18185W        W89911  31.623  42.972   1.797
18186W        W89912  20.316  32.006   0.434
18187W        W89913  29.912  21.230  10.527
18188W        W89914  40.662  29.292   3.134
18189W        W89915  14.064  27.081  13.896
18190W        W89916  25.042  18.310   1.517
18191W        W89917  36.430  41.920   3.399
18192W        W89918  29.434   3.016  11.531
18193W        W89919   4.837  22.615   5.042
18194W        W89920  23.173  23.983  12.170
18195W        W89921   6.435  27.096   2.859
18196W        W89922  16.066   1.175  12.077
18197W        W89923  20.287  33.006  13.971
18198W        W89924  39.916  35.560  11.601
18199W        W89925   9.911  24.290   3.425
18200W        W89926  42.487  26.308   0.546
18201W        W89927  26.947   4.419   0.167
18202W        W89928  44.205  42.260   3.774
18203W        W89929  15.619  35.303   1.835
18204W        W89930  17.042  35.952  10.241
18205W        W89931   5.805   5.199   4.114
18206W        W89932  31.071  19.640   0.256
18207W        W89933  27.061  44.758  14.209
18208W        W89934  42.913  41.065  13.577
18209W        W89935  33.080  30.165   3.603
18210W        W89936   6.326  39.045  10.704
18211W        W89937  16.089  10.876  10.997
18212W        W89938  27.093   1.821  13.605
18213W        W89939  41.829  23.194   2.394
18214W        W89940   2.411  42.767  12.382
18215W        W89941  20.144   2.326  14.945
18216W        W89942  22.683   7.238  13.054
18217W        W89943  18.776  20.263   3.269
18218W        W89944  30.246  35.020  10.751
18219W        W89945   7.360  44.907   3.244
18220W        W89946  25.824  43.223   3.782
18221W        W89947  14.709   9.823   3.695
18222W        W89948  42.626  41.832   3.097
18223W        W89949   5.681  11.320  12.952
18224W        W89950  30.924  29.469   2.359
18225W        W89951  40.036  38.601   0.928
18226W        W89952  16.245  15.236  12.992
18227W        W89953  28.095  14.132  10.507
18228W        W89954  14.125   8.952  12.544
18229W        W89955  29.087  17.403   0.246
18230W        W89956  29.623  11.071  14.587
18231W        W89957  10.913  20.144  12.883
18232W        W89958   9.121  22.516  13.634
18233W        W89959   6.205  23.534  12.096
18234W        W89960  28.645  44.787   0.899
18235W        W89961  35.090  10.292   2.504
18236W        W89962  17.508  14.315  13.905
18237W        W89963  40.715  37.841  13.768
18238W        W89964  35.926  28.177   1.821
18239W        W89965  39.512   9.707  12.434
18240W        W89966  20.110  16.472   2.773
18241W        W89967  43.854   8.289  13.477
18242W        W89968  11.211  33.026   4.222
18243W        W89969  19.158  38.760  14.427
18244W        W89970   5.854  37.903  14.139
18245W        W89971  14.682  40.857  11.116
18246W        W89972  29.869   5.497  13.443
18247W        W89973  43.959  31.572   0.077
18248W        W89974  13.745  44.830  11.857
18249W        W89975   3.407  42.799  10.745
18250W        W89976  41.173  39.417   2.982
18251W        W89977  22.258  22.233  13.362
18252W        W89978  43.187  15.743  11.990
18253W        W89979   6.268  21.519   0.790
18254W        W89980  30.637  23.044  12.616
18255W        W89981  17.715   3.840  14.022
18256W        W89982  33.659  39.401  14.134
18257W        W89983  14.799  37.607  10.245
18258W        W89984  35.297  12.230  14.145
18259W        W89985  28.387  30.592  13.108
18260W        W89986   8.177  22.461  11.373
18261W        W89987   9.831  26.127   2.416
18262W        W89988  33.893  44.524   1.353
18263W        W89989  20.753  11.349   1.231
18264W        W89990  39.811   2.244  10.735
18265W        W89991  20.743  27.107   0.743
18266W        W89992  28.986  42.858  13.492
18267W        W89993   7.200  27.091  12.082
18268W        W89994  11.372  25.091   1.501
18269W        W89995   5.913  23.921   2.165
18270W        W89996   6.917   0.629   4.174
18271W        W89997  23.704  21.997  13.507
18272W        W89998  20.324  12.868  12.542
18273W        W89999  41.365  40.449   3.349
18274W        W90000  10.670  11.149   3.775
18275W        W90001  35.252  15.045  13.180
18276W        W90002  22.723   5.782   4.317
18277W        W90003   2.197  42.297   2.908
18278W        W90004   3.490   3.380   0.365
18279W        W90005  21.276  15.046   1.265
18280W        W90006  37.976  32.840   0.815
18281W        W90007  42.847  31.569   1.661
18282W        W90008  37.405   8.621   1.182
18283W        W90009  34.286  26.917   3.736
18284W        W90010   5.751  44.727  10.816
18285W        W90011  29.034   2.416  12.057
18286W        W90012   8.246  19.810  12.801
18287W        W90013  21.713  14.253   4.569
18288W        W90014  30.460  12.972   3.621
18289W        W90015   9.209  13.567   2.436
18290W        W90016   6.681  35.000  10.261
18291W        W90017  20.280  29.452  11.840
18292W        W90018  22.008  35.594  13.934
18293W        W90019  30.373   7.218  12.165
18294W        W90020   8.180  38.061  11.158
18295W        W90021   5.816  13.174  13.536
18296W        W90022  26.920  26.441  14.721
18297W        W90023  32.679   4.685   2.844
18298W        W90024   4.308  40.252   4.849
18299W        W90025  29.096  41.725  13.960
18300W        W90026  35.405  40.158   5.053
18301W        W90027  25.074  29.441  13.169
18302W        W90028  39.000   2.945  10.309
18303W        W90029   2.212  44.777  12.434
18304W        W90030  13.182  36.852   0.673
18305W        W90031  28.987  32.420   0.287
18306W        W90032  34.539  44.826   3.262
18307W        W90033  25.912  30.027  11.514
18308W        W90034   2.964   3.214  14.129
18309W        W90035   8.270  23.053   0.316
18310W        W90036  19.718  27.554   4.509
18311W        W90037   0.229  24.125   0.874
18312W        W90038   0.755  40.887  13.437
18313W        W90039  10.598  23.508  10.652
18314W        W90040  20.672  34.530   3.749
18315W        W90041  13.667  29.910  12.497
18316W        W90042   2.095  30.608  12.922
18317W        W90043   0.895  25.979   0.979
18318W        W90044  37.769  22.247  13.043
18319W        W90045  25.931  21.647  11.632
18320W        W90046  28.034  19.332  14.784
18321W        W90047  15.428  21.479  14.380
18322W        W90048  14.193  34.543  10.552
18323W        W90049  14.896   5.927  11.080
18324W        W90050  25.348  23.477   4.245
18325W        W90051  20.559  26.143   5.006
18326W        W90052   3.201  28.928   1.380
18327W        W90053  23.154  42.547   4.925
18328W        W90054  10.140  18.771   4.619
18329W        W90055  18.072  15.877   1.572
18330W        W90056  12.599   7.257   3.852
18331W        W90057   4.250  16.877   3.229
18332W        W90058  37.580  20.900   5.024
18333W        W90059  31.550  44.949  12.932
18334W        W90060  21.643  11.383  13.406
18335W        W90061  12.948   9.410   1.778
18336W        W90062   8.690   4.360  11.819
18337W        W90063  26.458  38.354  14.549
18338W        W90064  22.733  37.178  14.317
18339W        W90065  36.186  33.910  14.441
18340W        W90066  13.751  11.814  11.522
18341W        W90067  22.802   2.306   2.660
18342W        W90068  35.895  38.110   1.217
18343W        W90069  12.567   8.065  10.812
18344W        W90070  17.758  36.079  14.438
18345W        W90071  16.504  11.002   1.975
18346W        W90072  20.712  22.160   3.200
18347W        W90073  24.793   0.215  14.920
18348W        W90074   3.047  43.766   3.187
18349W        W90075   4.387  37.970  13.133
18350W        W90076  36.483   2.781  12.417
18351W        W90077  12.696  35.755   1.257
18352W        W90078  39.990  18.512   3.241
18353W        W90079  25.796  20.209  14.639
18354W        W90080  42.816  42.944  10.215
18355W        W90081   2.421  14.112   3.709
18356W        W90082  39.566  38.836   2.751
18357W        W90083  28.629  17.159  12.855
18358W        W90084  27.729  28.716  12.467
18359W        W90085  17.976  32.555  11.166
18360W        W90086  20.162  25.441  13.598
18361W        W90087  14.313   5.410   3.789
18362W        W90088  22.209  27.145  13.591
18363W        W90089  31.143  28.684   1.842
18364W        W90090  41.533   0.786   0.813
18365W        W90091  11.094  34.978  11.084
18366W        W90092  12.162   4.217  11.886
18367W        W90093   0.189   8.285  11.473
18368W        W90094   4.221  34.088   0.379
18369W        W90095   5.191  34.531  14.486
18370W        W90096   5.399  14.730   5.295
18371W        W90097  11.906  15.812  11.477
18372W        W90098   8.620  28.674   0.143
18373W        W90099  19.065  42.149  14.733
18374W        W90100  36.432  26.533  11.675
18375W        W90101  10.170  21.347  12.094
18376W        W90102   1.771  40.796  13.160
18377W        W90103  27.208  40.393  11.282
18378W        W90104  38.494  12.512  11.645
18379W        W90105  12.683  25.161   1.222
18380W        W90106  20.223   2.235  13.010
18381W        W90107  14.062  39.267   4.622
18382W        W90108  42.080  40.510  12.462
18383W        W90109  12.062  24.489   2.806
18384W        W90110  29.495  17.657   0.021
18385W        W90111  38.362  17.580  11.623
18386W        W90112   8.384  15.638   1.258
18387W        W90113   8.880  18.335  13.468
18388W        W90114  15.344  10.708  11.815
18389W        W90115  24.139  28.838  10.320
18390W        W90116  19.586   2.785  10.793
18391W        W90117  36.506   0.692   3.287
18392W        W90118  22.001  34.626  11.112
18393W        W90119  25.558  20.050   2.776
18394W        W90120   6.307   6.136  14.907
18395W        W90121  23.350   9.222   1.097
18396W        W90122  38.739  22.905   4.558
18397W        W90123  10.293  17.806  13.248
18398W        W90124  21.296   6.357  13.829
18399W        W90125  34.472  38.077   3.622
18400W        W90126  10.319  35.344   2.292
18401W        W90127   3.238  10.869   4.536
18402W        W90128  12.768  21.329   2.373
18403W        W90129  43.900  36.882  13.825
18404W        W90130  42.824  44.254   3.217
18405W        W90131  20.120   1.532   2.159
18406W        W90132  31.403   6.862   0.205
18407W        W90133  14.813   0.039   2.698
18408W        W90134  20.165   5.450  11.211
18409W        W90135  40.296  18.652  11.019
18410W        W90136  44.453   4.673   4.175
18411W        W90137  38.779  28.875   4.149
18412W        W90138   4.033  10.902  12.454
18413W        W90139  20.035  24.510   4.097
18414W        W90140  26.738  38.870   0.390
18415W        W90141   4.604  16.252   4.263
18416W        W90142  15.785  26.102  12.971
18417W        W90143   8.316  15.284  10.479
18418W        W90144  32.876  20.090  13.043
18419W        W90145  44.137  27.477   3.595
18420W        W90146  18.450  38.626   4.983
18421W        W90147   9.814   5.886  12.412
18422W        W90148  15.999  14.676   4.582
18423W        W90149   5.860  12.316  13.904
18424W        W90150  25.413   8.235  11.944
18425W        W90151   8.965   4.281  13.983
18426W        W90152  15.345   4.207   1.572
18427W        W90153   4.172   2.608   3.619
18428W        W90154  27.205  24.193  14.333
18429W        W90155  19.804   6.103   2.337
18430W        W90156  22.505   1.512   4.110
18431W        W90157  13.132  20.676   4.892
18432W        W90158   0.094  44.184  10.638
18433W        W90159   8.335  15.538  11.511
18434W        W90160  22.972  16.534  11.955
18435W        W90161  43.057  10.068   0.895
18436W        W90162   7.707  29.677  13.122
18437W        W90163  43.226   5.342  12.760
18438W        W90164  44.925  39.331  10.324
18439W        W90165  23.003  25.726  14.717
18440W        W90166  31.593  10.369   2.026
18441W        W90167  17.260   6.724  10.962
18442W        W90168   9.188  18.728   4.640
18443W        W90169  31.802  36.714   4.956
18444W        W90170  28.182  11.682  12.747
18445W        W90171  43.826   3.928   0.974
18446W        W90172   5.939   8.880  13.017
18447W        W90173  44.881  26.202  10.519
18448W        W90174  13.412   0.998   2.495
18449W        W90175   0.095  19.146   4.123
18450W        W90176  23.231   8.096   1.277
18451W        W90177  16.999  42.911  10.671
18452W        W90178  31.466  36.948  14.032
18453W        W90179  19.549  23.035   1.930
18454W        W90180  40.840  33.029   3.092
18455W        W90181  24.776  16.076   5.025
18456W        W90182  25.061  41.128   9.862
18457W        W90183   3.250  16.671  10.771
18458W        W90184  19.935  42.936  11.236
18459W        W90185  39.538  38.943  10.762
18460W        W90186  41.765   6.903   0.421
18461W        W90187  31.465  10.617  11.195
18462W        W90188   6.650  20.180   4.300
18463W        W90189  37.392   0.805  13.472
18464W        W90190  14.173  40.043  14.715
18465W        W90191  34.489  39.106   3.524
18466W        W90192  24.465  40.799  11.151
18467W        W90193  44.280  21.046   5.179
18468W        W90194  17.264   3.017   4.502
18469W        W90195   4.780   3.809   0.194
18470W        W90196  36.304  39.977   0.019
18471W        W90197   9.252  31.453  12.546
18472W        W90198  23.468  28.176  10.644
18473W        W90199  32.012  20.591   3.175
18474W        W90200  44.281   1.452  12.108
18475W        W90201  34.066  17.753   4.904
18476W        W90202  10.787   2.794  12.478
18477W        W90203  17.654  26.481  14.906
18478W        W90204  37.835  14.132   0.263
18479W        W90205  20.560  41.766  13.488
18480W        W90206  40.470   4.247   2.703
18481W        W90207  19.594  25.963  13.017
18482W        W90208  34.073  10.258   4.777
18483W        W90209  43.431  25.488  14.106
18484W        W90210  27.887  33.555   2.178
18485W        W90211   0.097  25.004  14.476
18486W        W90212  13.189  38.264  10.717
18487W        W90213  22.552   8.222   1.791
18488W        W90214  23.488  25.018  11.532
18489W        W90215  30.348  40.726  14.309
18490W        W90216  31.637   7.028   4.160
18491W        W90217  16.298  36.892  11.222
18492W        W90218  41.166   8.686  10.861
18493W        W90219  31.625  37.979  14.867
18494W        W90220  37.488  13.883   4.125
18495W        W90221  28.936  10.665  11.234
18496W        W90222  11.705  34.369  14.476
18497W        W90223  23.692  14.911  14.957
18498W        W90224  23.727   8.664  11.130
18499W        W90225  32.923   8.817  13.600
18500W        W90226  43.940  26.414   4.232
18501W        W90227   3.403   4.745   0.383
18502W        W90228  28.464  11.128   2.720
18503W        W90229  10.669  10.206   3.050
18504W        W90230  12.140   9.161  10.779
18505W        W90231   8.465  36.458   2.796
18506W        W90232   4.846  22.526  13.867
18507W        W90233  33.441  36.926   2.988
18508W        W90234  11.560  32.945  13.504
18509W        W90235  31.946   1.565  13.537
18510W        W90236   5.153   0.678   3.604
18511W        W90237   7.645  18.069  13.069
18512W        W90238  34.434   7.748   3.428
18513W        W90239  32.410  30.621   2.863
18514W        W90240  41.956  39.779  14.331
18515W        W90241  14.661  15.150   1.619
18516W        W90242  33.874   1.284   2.818
18517W        W90243  36.496  43.516   3.899
18518W        W90244  43.294  41.786  12.500
18519W        W90245  13.615  39.009  10.909
18520W        W90246  24.792   0.800  11.099
18521W        W90247  14.207  29.330   1.744
18522W        W90248  41.248  43.619   4.139
18523W        W90249  10.281  25.773   4.364
18524W        W90250  19.079  19.693  14.801
18525W        W90251  13.093  34.269   3.536
18526W        W90252   2.366  10.742   4.274
18527W        W90253  17.979  34.534   4.002
18528W        W90254  39.901  43.331  10.694
18529W        W90255  22.972  31.922   3.195
18530W        W90256  15.264  32.333  12.406
18531W        W90257  13.658  37.216   1.833
18532W        W90258   6.688  42.358  10.634
18533W        W90259  40.903  24.021  12.436
18534W        W90260   8.903  42.826   4.131
18535W        W90261  11.231  38.678  10.646
18536W        W90262  17.833  38.891   1.616
18537W        W90263  26.002  21.093  14.926
18538W        W90264  15.135  38.616  14.841
18539W        W90265  28.756  11.146  11.181
18540W        W90266  22.033  36.950   2.872
18541W        W90267   0.794  20.015  10.619
18542W        W90268  38.360   7.542  12.169
18543W        W90269  21.379   6.354   4.600
18544W        W90270  43.375  24.342  12.550
18545W        W90271   8.339  34.375  10.843
18546W        W90272  40.302   4.495   1.675
18547W        W90273  29.035   2.426   3.867
18548W        W90274  39.835  15.837   0.423
18549W        W90275  16.355   5.355  14.964
18550W        W90276  34.938  28.861  12.489
18551W        W90277   7.635  21.159  12.095
18552W        W90278  43.488   6.123  10.693
18553W        W90279  39.973  17.189   3.928
18554W        W90280   6.927   1.197  11.617
18555W        W90281  25.674  29.409   2.671
18556W        W90282  30.152  26.277   0.483
18557W        W90283   6.300   5.610  14.809
18558W        W90284  17.854  37.909   0.079
18559W        W90285  30.948  11.069  14.931
18560W        W90286  30.561  26.225  12.150
18561W        W90287  25.049  28.433   4.861
18562W        W90288  17.052  15.303  11.507
18563W        W90289  28.624  21.067  13.806
18564W        W90290  23.665   5.215  13.456
18565W        W90291  29.340   3.119  12.867
18566W        W90292   4.225   4.656   2.801
18567W        W90293  37.510  39.094   0.872
18568W        W90294  23.216  43.897  12.849
18569W        W90295  21.643  24.797  14.999
18570W        W90296   8.643  36.962   2.636
18571W        W90297  44.286  42.080   2.730
18572W        W90298  12.349  18.751   1.200
18573W        W90299  15.007   8.866   3.303
18574W        W90300  11.316  28.781  14.111
18575W        W90301  22.779   2.860  14.923
18576W        W90302  43.521  34.789  12.595
18577W        W90303  38.278  41.267   0.718
18578W        W90304  20.110  16.688  12.971
18579W        W90305   9.743  11.953   2.906
18580W        W90306  14.267  23.751  13.485
18581W        W90307  12.552  32.397   1.596
18582W        W90308  13.377  11.904  11.148
18583W        W90309  25.321  38.000   1.830
18584W        W90310  29.575  17.382  14.264
18585W        W90311   2.250  27.857  14.104
18586W        W90312  22.894  26.971   1.766
18587W        W90313  32.508  17.184  12.637
18588W        W90314  13.015  23.093  12.873
18589W        W90315  41.081  40.855   0.356
18590W        W90316  35.840  37.845   3.248
18591W        W90317  31.650  26.616   4.658
18592W        W90318  33.157  24.605   2.656
18593W        W90319  33.031  30.681   3.475
18594W        W90320  40.326  39.833   4.535
18595W        W90321  38.244  36.995   2.855
18596W        W90322  24.743  17.094   4.110
18597W        W90323  39.163  42.090   1.789
18598W        W90324  19.994  10.711   2.292
18599W        W90325  14.869  44.387  12.546
18600W        W90326  12.232  14.540  12.518
18601W        W90327  39.715  10.606  13.503
18602W        W90328  12.426  12.738  11.733
18603W        W90329  38.082   3.331   1.841
18604W        W90330  22.049  10.828   1.362
18605W        W90331  36.282  14.201   3.128
18606W        W90332  15.315  35.570   2.196
18607W        W90333  23.815  33.370   1.369
18608W        W90334  10.362   0.816   4.933
18609W        W90335  24.128   0.539  11.514
18610W        W90336  24.035  31.144   1.242
18611W        W90337  10.769  41.383  14.322
18612W        W90338  22.841  17.089  11.971
18613W        W90339   9.979  19.039  13.574
18614W        W90340  36.025  10.688   1.491
18615W        W90341  10.641  38.262   3.655
18616W        W90342  27.710   9.907  13.300
18617W        W90343  22.520  24.865   3.077
18618W        W90344  30.713  43.273  14.440
18619W        W90345  32.603  39.773  11.649
18620W        W90346  25.691  18.787  13.091
18621W        W90347  25.281  17.694   4.080
18622W        W90348  24.178  14.194   2.745
18623W        W90349  31.504  16.967   0.695
18624W        W90350   4.334  26.452  11.882
18625W        W90351  32.504  30.946  13.902
18626W        W90352  21.975   6.204   2.329
18627W        W90353  42.524  13.225  10.779
18628W        W90354  37.909   6.487   0.811
18629W        W90355  23.239  34.565   1.942
18630W        W90356   2.707  15.783  13.031
18631W        W90357   5.437  20.117   3.794
18632W        W90358   6.184  42.485   0.007
18633W        W90359   5.545  21.309  10.279
18634W        W90360  11.196  35.052   4.200
18635W        W90361  31.595  26.119   2.172
18636W        W90362   5.302  30.977   0.533
18637W        W90363  21.209  16.528  13.857
18638W        W90364  38.963  43.216   3.776
18639W        W90365   8.177   5.101   5.079
18640W        W90366  34.874  11.608   0.300
18641W        W90367   5.437  16.360   2.645
18642W        W90368  14.728  38.390  10.708
18643W        W90369   2.553   8.173  12.490
18644W        W90370  22.089   6.235  12.099
18645W        W90371   4.625  19.049  11.950
18646W        W90372   2.859  30.682  14.039
18647W        W90373  18.730  44.687  14.935
18648W        W90374  25.153   3.185  11.961
18649W        W90375  23.106   2.471   0.072
18650W        W90376  31.573  30.004   2.668
18651W        W90377  15.336  26.176   4.156
18652W        W90378   3.226  25.160   3.788
18653W        W90379  20.059   2.714   3.230
18654W        W90380  38.384   4.871  12.932
18655W        W90381  25.906  20.572  12.006
18656W        W90382  24.045  32.484   0.380
18657W        W90383  18.475  23.963   3.346
18658W        W90384  42.048  43.868  13.782
18659W        W90385   4.923  17.117  12.511
18660W        W90386   5.285  16.585   2.213
18661W        W90387  42.401   7.546  14.271
18662W        W90388  31.558  36.377  11.918
18663W        W90389  17.574  34.830  11.102
18664W        W90390  21.667  17.312  13.344
18665W        W90391   0.881   1.208   2.346
18666W        W90392  24.581  13.807   3.241
18667W        W90393  16.882  17.799  11.773
18668W        W90394  40.028  26.441   2.127
18669W        W90395   1.794   4.640   3.212
18670W        W90396  44.378  11.181   5.243
18671W        W90397   7.111   0.265  12.125
18672W        W90398   7.434  27.226  14.380
18673W        W90399   6.842   4.163   5.426
18674W        W90400  33.361  15.219   1.450
18675W        W90401  19.967  39.109  11.990
18676W        W90402  23.461  12.562   3.682
18677W        W90403  11.708   6.159   3.902
18678W        W90404  26.687  13.565   4.569
18679W        W90405  29.691  19.727   3.126
18680W        W90406  33.799  33.945   2.798
18681W        W90407  43.363  17.019   3.208
18682W        W90408  34.690  29.126  14.783
18683W        W90409  37.376  15.650   4.089
18684W        W90410  14.242   3.230   3.337
18685W        W90411  10.567   4.298   3.211
18686W        W90412  29.261  29.897  13.195
18687W        W90413  40.773   5.800   1.731
18688W        W90414  40.370  29.427   2.345
18689W        W90415  29.126  22.643  13.543
18690W        W90416  38.312  21.653  14.729
18691W        W90417  31.555  28.208  10.703
18692W        W90418   0.405  12.502   1.203
18693W        W90419  37.917  36.382   4.051
18694W        W90420   8.068  41.017   3.034
18695W        W90421  34.566  18.881  10.680
18696W        W90422  33.077  11.685   1.752
18697W        W90423   5.693   3.167   0.262
18698W        W90424  30.534   3.822   2.335
18699W        W90425   7.216  21.459   2.741
18700W        W90426  12.289  30.619  11.137
18701W        W90427   9.153   9.439  12.984
18702W        W90428  20.236  41.483  12.180
18703W        W90429  14.712  40.584  13.501
18704W        W90430   5.714   8.325   1.762
18705W        W90431  12.744  21.359   4.473
18706W        W90432  31.341  21.266   9.820
18707W        W90433  39.389  42.989   2.528
18708W        W90434   4.634  22.658   0.057
18709W        W90435  40.483  14.152  10.762
18710W        W90436   6.863  12.402   3.265
18711W        W90437  25.160   8.114   4.944
18712W        W90438  27.034   2.488   2.218
18713W        W90439  41.877  29.510  11.284
18714W        W90440  12.749  16.137   0.139
18715W        W90441  23.218  18.796  12.166
18716W        W90442  24.199   9.182  14.272
18717W        W90443  11.579  24.571  13.495
18718W        W90444  31.890  36.354   3.143
18719W        W90445  42.363  41.005  11.893
18720W        W90446  18.639  39.417   4.118
18721W        W90447  17.170  31.136   4.790
18722W        W90448  22.785  35.097  14.056
18723W        W90449   4.278  33.668  14.322
18724W        W90450   9.884  34.016   4.893
18725W        W90451  34.703  24.232   5.177
18726W        W90452  33.535  37.981  10.140
18727W        W90453  31.396  44.055   0.886
18728W        W90454   5.857  30.908   4.308
18729W        W90455  25.050   2.832   3.576
18730W        W90456  14.100   6.675  12.550
18731W        W90457  14.332  32.463  10.604
18732W        W90458  23.588  17.371  11.441
18733W        W90459  12.279  23.308   4.098
18734W        W90460  11.470  32.467  10.470
18735W        W90461  38.321  27.149  14.899
18736W        W90462   4.981  25.913   4.905
18737W        W90463  12.872  27.481   1.217
18738W        W90464  24.701  31.679  13.903
18739W        W90465  21.149  42.640  12.138
18740W        W90466  27.593  40.334   1.956
18741W        W90467  30.615  33.507   1.271
18742W        W90468   4.836  20.100   0.660
18743W        W90469  19.262  29.088  12.654
18744W        W90470  26.089  28.216   1.714
18745W        W90471  31.588  26.570  10.332
18746W        W90472  18.275   8.619  12.520
18747W        W90473  24.177  33.059   2.748
18748W        W90474   7.372  30.408  13.951
18749W        W90475  42.341  21.314   0.831
18750W        W90476   0.484  25.678   3.866
18751W        W90477  37.386  24.006  11.468
18752W        W90478   8.221  14.736   3.619
18753W        W90479  24.751   0.323  12.581
18754W        W90480  43.549  33.894  12.646
18755W        W90481  22.721  32.115   2.769
18756W        W90482   5.119  17.328   2.858
18757W        W90483  38.497  21.597   2.304
18758W        W90484  28.077  41.308  12.164
18759W        W90485  10.659  40.983   1.238
18760W        W90486  40.965  41.454   0.362
18761W        W90487  41.824  44.971  14.807
18762W        W90488  30.602  40.580  11.720
18763W        W90489  44.268  38.059   1.355
18764W        W90490  37.656  11.045   1.352
18765W        W90491  19.693  33.327   3.805
18766W        W90492  39.305  30.014  14.271
18767W        W90493  24.777  38.991   3.295
18768W        W90494  40.826  22.212  13.145
18769W        W90495  26.432  27.236  12.100
18770W        W90496  43.353  18.590  12.973
18771W        W90497   2.205  11.583  10.606
18772W        W90498   1.472  31.928  13.836
18773W        W90499  34.510  10.195  10.611
18774W        W90500   5.876  24.240  13.829
18775W        W90501  37.808  11.824  12.631
18776W        W90502  33.994  17.851  11.048
18777W        W90503  12.431  43.014   3.141
18778W        W90504  14.572  24.068   3.286
18779W        W90505  37.337  43.819  11.301
18780W        W90506  20.466  17.527   3.378
18781W        W90507  28.131  28.045  10.003
18782W        W90508  15.800  17.553   0.441
18783W        W90509  28.920  24.957  13.881
18784W        W90510  15.271  26.255  12.020
18785W        W90511  14.639  44.969   4.096
18786W        W90512  32.356   6.347   1.224
18787W        W90513  22.243  13.163   1.150
18788W        W90514  43.195   4.991  11.415
18789W        W90515  19.182  19.721   4.729
18790W        W90516  15.636  28.165  13.082
18791W        W90517  35.644  25.764   1.373
18792W        W90518  41.849  23.756   2.406
18793W        W90519  32.163  37.423   2.884
18794W        W90520  25.777   5.126  12.449
18795W        W90521  13.347   9.748   2.151
18796W        W90522  33.906   5.732  10.221
18797W        W90523  26.793  30.027  11.106
18798W        W90524  35.508   1.522  12.997
18799W        W90525  22.288  19.203   0.456
18800W        W90526  23.603  35.793  14.781
18801W        W90527  10.718  10.738  11.458
18802W        W90528   4.477  19.503  14.133
18803W        W90529  42.342  30.102   1.934
18804W        W90530  34.105   1.726  14.019
18805W        W90531  36.142   6.155   0.325
18806W        W90532  26.685   9.803  11.125
18807W        W90533   7.869  13.724   4.640
18808W        W90534  43.039  26.013   1.154
18809W        W90535  43.644  38.025   3.922
18810W        W90536   6.389  36.498   3.654
18811W        W90537  25.346  27.182  13.749
18812W        W90538   7.758  24.067  13.478
18813W        W90539  43.964   2.163  13.408
18814W        W90540  11.771  40.309  11.659
18815W        W90541  26.680   5.753   5.269
18816W        W90542  31.577  24.393  13.337
18817W        W90543  15.306  33.770  14.317
18818W        W90544  34.605  19.662  12.550
18819W        W90545  13.912  38.293   0.062
18820W        W90546   0.033  31.656  13.035
18821W        W90547   7.904  41.057  13.429
18822W        W90548  30.578   7.368   1.409
18823W        W90549  30.003   5.651   4.230
18824W        W90550   8.401  14.399  11.063
18825W        W90551  21.153  26.172  11.497
18826W        W90552  31.907  23.580   1.496
18827W        W90553  26.451  39.270   3.765
18828W        W90554   2.641  33.129   1.774
18829W        W90555  22.591  20.288   4.715
18830W        W90556  41.533  36.102   0.877
18831W        W90557  26.800  14.815  10.822
18832W        W90558  21.585  35.466   0.219
18833W        W90559  42.288  10.261   3.342
18834W        W90560  18.144  16.456   0.418
18835W        W90561   4.484  36.009   3.767
18836W        W90562  44.683  27.403   3.570
18837W        W90563  34.638  32.686  11.941
18838W        W90564   3.597   0.015  14.617
18839W        W90565  42.469   1.992   0.457
18840W        W90566   2.254  29.651  13.462
18841W        W90567  35.450  22.111  11.589
18842W        W90568   9.475   2.352  12.509
18843W        W90569  35.139  27.672   2.666
18844W        W90570  25.990  24.941  12.882
18845W        W90571   9.845   1.263  12.040
18846W        W90572  11.853  38.916  12.707
18847W        W90573  41.997  22.728  11.458
18848W        W90574  32.160  31.458   1.126
18849W        W90575  20.278   7.127   1.398
18850W        W90576   4.165  23.469  14.905
18851W        W90577   4.360  24.983  11.931
18852W        W90578  21.970   8.731   3.405
18853W        W90579  14.289  32.659   0.311
18854W        W90580  42.398  32.184  10.716
18855W        W90581   0.798  10.277   0.431
18856W        W90582  26.022  31.603  12.216
18857W        W90583   6.723   5.404  11.354
18858W        W90584  16.109   1.535   4.643
18859W        W90585   8.330  14.081   1.498
18860W        W90586  37.890   8.446   1.170
18861W        W90587  17.747  21.868   1.155
18862W        W90588  42.539  28.229  11.984
18863W        W90589  15.094  11.877  11.236
18864W        W90590  10.742  17.180  14.994
18865W        W90591  38.569  21.057  13.518
18866W        W90592  36.648  25.283   1.010
18867W        W90593  21.893  22.012  11.223
18868W        W90594  24.799  31.005   2.886
18869W        W90595  15.283  42.883   2.785
18870W        W90596  14.414  39.846   1.383
18871W        W90597   5.263  20.953  11.139
18872W        W90598   9.664   0.046  14.357
18873W        W90599  44.249  40.110   1.942
18874W        W90600  33.481  20.340  12.327
18875W        W90601   5.858  40.274   3.694
18876W        W90602  14.314  26.728  13.569
18877W        W90603  22.652  31.425  14.735
18878W        W90604  20.667  35.032   3.881
18879W        W90605   6.319   8.491  11.592
18880W        W90606  37.757   4.752  13.297
18881W        W90607  30.281   2.420  11.468
18882W        W90608  31.109  29.000  13.007
18883W        W90609  11.039   2.563  12.074
18884W        W90610  29.611  13.069   3.576
18885W        W90611  30.726  15.061   2.880
18886W        W90612  42.688   7.418   1.418
18887W        W90613   7.287   8.947   2.974
18888W        W90614  22.726  20.916  12.584
18889W        W90615   5.328   5.019   4.193
18890W        W90616  28.857  34.090   1.490
18891W        W90617  30.595  28.506   2.797
18892W        W90618  14.052  18.185   2.133
18893W        W90619  25.931   6.014   2.832
18894W        W90620  12.304  22.080  14.299
18895W        W90621  25.541  17.247   2.717
18896W        W90622  14.242  18.473  11.211
18897W        W90623  23.255  42.540  12.940
18898W        W90624  17.554  35.901  14.947
18899W        W90625   7.962  13.510   2.372
18900W        W90626  34.989  10.208  14.911
18901W        W90627  14.695  29.270   0.533
18902W        W90628   5.754   4.733   4.304
18903W        W90629  35.616  20.485   1.299
18904W        W90630  42.364  27.598  11.272
18905W        W90631  33.679  16.161   2.307
18906W        W90632  16.106   6.870  10.716
18907W        W90633  19.188   7.037   0.170
18908W        W90634  38.601  13.462   0.456
18909W        W90635  19.225   5.837  12.348
18910W        W90636   5.798  12.718   4.170
18911W        W90637  40.407  35.828   9.936
18912W        W90638  41.038  37.795   0.280
18913W        W90639  35.544  30.479   3.239
18914W        W90640  33.090   5.310  11.065
18915W        W90641  35.527  35.110   0.315
18916W        W90642   7.853   2.215  14.834
18917W        W90643  32.146  23.530  10.688
18918W        W90644   2.559  10.790  12.074
18919W        W90645  40.310  32.034  11.422
18920W        W90646  21.161  11.212  12.029
18921W        W90647  36.684  27.549   0.860
18922W        W90648  20.124  44.979  12.834
18923W        W90649  38.167   0.943  14.735
18924W        W90650  36.465   1.830   1.414
18925W        W90651  42.442  12.634  11.706
18926W        W90652  36.033   5.930   3.749
18927W        W90653  24.042  38.177  13.458
18928W        W90654  29.580  44.280  10.604
18929W        W90655  32.073  25.744   0.728
18930W        W90656   6.929  40.815  14.682
18931W        W90657  20.273  27.047   2.987
18932W        W90658  11.826  42.390   4.319
18933W        W90659   8.151  34.101   3.264
18934W        W90660  15.819  17.610   3.679
18935W        W90661  15.511  39.018  14.860
18936W        W90662  20.216  38.787   1.653
18937W        W90663  43.973  23.061  10.695
18938W        W90664  40.572  36.289   4.626
18939W        W90665  16.038   2.810   1.291
18940W        W90666  28.936  17.199  11.454
18941W        W90667   5.966   3.265  11.665
18942W        W90668  41.756   3.836   4.347
18943W        W90669  29.285  14.122  11.303
18944W        W90670   3.426   0.740   3.756
18945W        W90671   6.144  26.347  13.965
18946W        W90672  41.137   0.837   1.740
18947W        W90673  15.813  12.799  10.577
18948W        W90674   6.285   0.206   0.774
18949W        W90675  13.066  18.738   2.731
18950W        W90676  17.961  40.463  11.755
18951W        W90677   5.168  19.740   0.358
18952W        W90678  41.137   0.273  12.458
18953W        W90679  32.529  30.933  10.492
18954W        W90680   8.944  30.406   3.811
18955W        W90681   2.098  21.217  13.878
18956W        W90682  35.821  42.747  14.364
18957W        W90683  38.864  43.958  12.567
18958W        W90684  31.863  26.495   5.112
18959W        W90685  22.996  24.939   1.121
18960W        W90686  44.593   5.864   4.133
18961W        W90687   8.644  17.301  13.542
18962W        W90688  12.156   7.454   2.496
18963W        W90689  31.674   3.364  14.868
18964W        W90690  39.797  16.014   4.406
18965W        W90691  27.520  19.712   2.837
18966W        W90692  27.060  40.385  14.570
18967W        W90693  22.336  11.685   4.679
18968W        W90694  32.038  20.921   2.770
18969W        W90695   3.178  12.345   4.184
18970W        W90696  10.424   7.719  12.393
18971W        W90697   7.113  17.220   1.027
18972W        W90698   2.208  22.528  12.440
18973W        W90699   6.174  22.730  11.625
18974W        W90700  43.264  35.572  12.936
18975W        W90701  37.953  27.935   0.855
18976W        W90702  31.706  20.031  13.349
18977W        W90703   6.300  33.641   3.312
18978W        W90704  28.958  43.703   2.802
18979W        W90705  30.003  24.038   2.314
18980W        W90706  44.494  35.435  10.602
18981W        W90707  30.430  23.481   0.920
18982W        W90708   2.689  39.918  14.370
18983W        W90709  25.406   9.301   4.786
18984W        W90710  26.559  24.001   0.131
18985W        W90711  22.692  16.181   2.394
18986W        W90712  21.480  12.030   2.362
18987W        W90713  17.164  40.501   4.574
18988W        W90714  26.263  33.302  13.035
18989W        W90715  10.827  29.909   0.838
18990W        W90716   2.655   8.970   1.485
18991W        W90717  37.818  37.390  12.267
18992W        W90718   9.114  13.819   0.475
18993W        W90719  41.999  43.913  10.601
18994W        W90720  21.757  29.108   4.152
18995W        W90721  12.690   0.743   2.665
18996W        W90722   4.394  15.016   3.338
18997W        W90723  42.315  17.710   1.211
18998W        W90724  33.583  27.970  10.661
18999W        W90725   5.799  34.020   0.675
19000W        W90726   4.971  17.634   2.442
19001W        W90727  20.085  28.440   4.177
19002W        W90728  24.100  33.337  11.372
19003W        W90729   8.733  40.237  12.888
19004W        W90730   8.298  41.040  12.998
19005W        W90731  42.346  11.568  14.532
19006W        W90732  40.845  11.754  10.704
19007W        W90733  12.294   5.445  14.721
19008W        W90734   6.196  42.475  14.494
19009W        W90735   1.189  33.339   0.105
19010W        W90736  34.585  39.475   4.819
19011W        W90737  24.581  19.789   2.843
19012W        W90738  32.612  33.839   0.147
19013W        W90739   6.650  26.449   5.193
19014W        W90740   8.895   8.262   2.862
19015W        W90741   4.926  32.857  10.181
19016W        W90742  35.313   1.403  12.166
19017W        W90743  21.268  16.135   1.177
19018W        W90744  35.301  10.108   2.949
19019W        W90745   4.115  19.160  11.923
19020W        W90746  11.549  41.169   2.758
19021W        W90747  37.931   3.985  12.943
19022W        W90748  16.579  23.723  13.266
19023W        W90749  23.309   5.980  12.498
19024W        W90750  42.445   1.962  14.523
19025W        W90751  30.012  27.708   3.942
19026W        W90752  13.687  11.309  11.395
19027W        W90753   7.379  18.462   2.142
19028W        W90754  10.403   0.545  12.059
19029W        W90755   2.159   1.330  11.507
19030W        W90756  25.557  40.556  12.514
19031W        W90757  10.943  36.148  12.927
19032W        W90758   1.798  18.125  10.461
19033W        W90759   6.650   9.339   2.290
19034W        W90760  39.050  39.016   5.057
19035W        W90761  28.071  39.447  14.835
19036W        W90762   6.480   8.652   3.841
19037W        W90763  23.320  41.893  14.923
19038W        W90764  38.425  44.624   1.951
19039W        W90765  36.085  38.411  10.507
19040W        W90766  41.753   3.742   0.417
19041W        W90767  12.798  10.648  12.564
19042W        W90768  24.721  39.481   0.553
19043W        W90769  31.596  40.075  10.758
19044W        W90770  25.668  18.707  13.584
19045W        W90771  21.027  25.378   5.377
19046W        W90772  38.449  11.459  14.909
19047W        W90773  43.964  15.238   3.784
19048W        W90774  20.007   6.249  13.356
19049W        W90775   7.587  38.370  13.868
19050W        W90776  18.135   9.343  14.935
19051W        W90777  31.112   2.825  14.193
19052W        W90778  34.976  43.057   0.886
19053W        W90779  21.191  31.968  13.173
19054W        W90780  18.243  18.579  11.430
19055W        W90781  34.875  21.521   2.383
19056W        W90782  28.401  26.559   4.311
19057W        W90783   9.176  19.618   4.260
19058W        W90784  15.292  37.085  12.968
19059W        W90785  24.235  30.190   4.945
19060W        W90786  40.853  28.471  13.564
19061W        W90787   2.878  19.309   3.393
19062W        W90788  13.100  16.802   1.822
19063W        W90789  43.386  41.401   3.598
19064W        W90790  41.832   5.285  14.198
19065W        W90791  38.806  32.037   2.180
19066W        W90792  38.953  32.034  13.920
19067W        W90793  27.904  10.208   2.789
19068W        W90794  21.091  13.765   2.249
19069W        W90795   1.272  31.599  13.376
19070W        W90796  28.521  33.416   5.010
19071W        W90797  11.962  25.995  10.684
19072W        W90798  43.269  12.549   4.643
19073W        W90799  34.464   8.060   3.006
19074W        W90800   0.338  37.303  10.681
19075W        W90801  36.043  16.230   4.414
19076W        W90802  12.799   8.550  14.182
19077W        W90803  30.499  28.511   1.283
19078W        W90804  30.005   1.226  12.002
19079W        W90805   3.034  31.650  14.052
19080W        W90806  23.197  11.403   2.904
19081W        W90807  30.481  44.311   5.269
19082W        W90808  38.988  20.295  14.485
19083W        W90809   2.475  34.800  10.715
19084W        W90810  34.327  21.627   4.314
19085W        W90811  19.222  11.464   2.342
19086W        W90812  34.593  25.129   1.057
19087W        W90813   4.894  41.642  13.329
19088W        W90814  41.936   9.590   1.331
19089W        W90815  24.955  38.969  11.874
19090W        W90816  21.329   5.076  13.690
19091W        W90817  43.267  29.253  14.898
19092W        W90818  23.923  26.958   0.827
19093W        W90819  16.052  16.117  12.510
19094W        W90820  39.830  27.122  11.553
19095W        W90821  20.345  23.049  12.120
19096W        W90822   6.522   5.326   3.654
19097W        W90823  41.602   1.191  11.021
19098W        W90824  36.867   0.865  14.285
19099W        W90825  16.559   1.966  11.083
19100W        W90826  23.711   3.210  11.888
19101W        W90827  38.911   3.703   0.445
19102W        W90828  25.513  23.681  11.944
19103W        W90829  32.564  42.782   2.711
19104W        W90830  25.208   6.950  14.380
19105W        W90831  41.029  22.192  12.669
19106W        W90832   5.877   1.294   0.317
19107W        W90833  10.133  17.601  11.640
19108W        W90834  38.508  26.720   4.980
19109W        W90835   7.727  32.098  10.991
19110W        W90836   7.051  30.393   4.145
19111W        W90837  35.501  20.036   4.104
19112W        W90838   1.520  12.587  11.705
19113W        W90839  43.170   7.917   4.964
19114W        W90840  43.507  29.836  13.832
19115W        W90841  41.698  30.645  14.542
19116W        W90842  21.657  44.565   2.164
19117W        W90843  26.129  39.780   2.946
19118W        W90844  38.919  34.050  10.622
19119W        W90845  19.843   3.477   1.966
19120W        W90846  36.252  24.392   4.029
19121W        W90847  14.699  34.154   2.787
19122W        W90848  18.903   3.601   3.184
19123W        W90849  20.077  44.691   2.767
19124W        W90850  21.589  44.442  10.627
19125W        W90851  13.368  22.811   0.501
19126W        W90852  39.407  34.333  11.429
19127W        W90853  27.196  20.113   2.717
19128W        W90854  43.375   2.549   0.432
19129W        W90855  23.383   9.386   3.741
19130W        W90856  44.340  25.608  14.570
19131W        W90857  16.750  22.247   2.437
19132W        W90858  30.423   8.626  14.525
19133W        W90859  16.253  27.806  11.569
19134W        W90860  11.690  17.156  11.005
19135W        W90861   8.678  35.477  11.450
19136W        W90862   4.305   0.647   3.898
19137W        W90863  44.469  24.523  11.634
19138W        W90864  39.459   5.887  11.202
19139W        W90865  15.294  14.796   1.852
19140W        W90866   9.137   2.112   0.426
19141W        W90867  12.046  19.502   3.259
19142W        W90868  32.077   6.394  14.324
19143W        W90869  16.700  20.742  13.468
19144W        W90870  27.425  41.377  13.296
19145W        W90871   3.204  35.222   3.190
19146W        W90872  24.715  21.151   1.639
19147W        W90873  22.153  38.484   2.891
19148W        W90874  13.130  10.697  10.856
19149W        W90875  24.208  39.285  14.383
19150W        W90876  23.350  27.828  10.292
19151W        W90877  36.807  26.412  12.529
19152W        W90878  18.389  26.467   4.610
19153W        W90879  24.151  36.331   2.788
19154W        W90880  29.000  23.996  14.428
19155W        W90881  18.337  31.689   0.285
19156W        W90882  42.831   7.389  13.625
19157W        W90883  35.634  37.024  11.257
19158W        W90884  12.498  31.261  12.089
19159W        W90885  36.448  40.497  13.858
19160W        W90886   6.848  36.699   2.782
19161W        W90887   5.422  10.902   4.236
19162W        W90888   3.162  33.674  12.012
19163W        W90889  12.873  11.964  11.511
19164W        W90890  18.719  37.862   0.387
19165W        W90891  25.535  39.470  14.922
19166W        W90892  33.093  41.948  10.672
19167W        W90893  42.829  43.192   0.793
19168W        W90894  37.888  37.869   1.752
19169W        W90895  15.369   3.818   4.330
19170W        W90896  31.881  14.678  14.848
19171W        W90897  20.752  17.007  12.030
19172W        W90898  41.999   5.442   2.605
19173W        W90899  38.808  21.535   2.724
19174W        W90900  11.414  11.769  10.355
19175W        W90901  23.469  10.310   3.601
19176W        W90902   7.748  36.875  12.424
19177W        W90903  34.862  13.594   1.984
19178W        W90904  43.992  38.388   1.765
19179W        W90905  43.071  22.167   3.697
19180W        W90906  44.668   9.157   1.723
19181W        W90907  19.108  39.904   2.281
19182W        W90908   6.429   2.703  12.993
19183W        W90909  20.898   1.716  14.787
19184W        W90910  28.354  14.731   1.803
19185W        W90911  33.586  11.715  11.594
19186W        W90912  41.458  18.943  14.124
19187W        W90913  18.077  31.071  12.391
19188W        W90914  35.844   3.374  10.168
19189W        W90915  20.302  34.888  12.425
19190W        W90916  10.224  30.478   1.252
19191W        W90917  27.595  10.164   3.647
19192W        W90918  18.857  25.173   3.657
19193W        W90919  40.630  40.057  11.142
19194W        W90920   3.291  12.430   3.270
19195W        W90921  11.677  35.579   3.687
19196W        W90922   0.279  35.258  10.381
19197W        W90923  23.712  11.726   2.553
19198W        W90924  19.409  10.834   4.712
19199W        W90925   6.842  20.736  14.019
19200W        W90926  39.484  14.811  12.070
19201W        W90927  29.889  31.180   0.334
19202W        W90928  41.940   5.339  10.676
19203W        W90929  35.452  19.987  13.511
19204W        W90930  30.442  21.362  12.073
19205W        W90931   9.184   5.119  14.336
19206W        W90932  41.738   4.717   3.623
19207W        W90933  26.619  35.943   2.284
19208W        W90934  36.971  18.999  13.836
19209W        W90935   0.932  24.993   3.415
19210W        W90936  30.411   0.753  10.583
19211W        W90937  10.653  24.287   1.608
19212W        W90938  32.595  16.726  12.384
19213W        W90939   1.877   6.120   3.216
19214W        W90940  44.000  20.726  13.863
19215W        W90941   7.876  39.613  13.392
19216W        W90942  43.487   1.206  14.074
19217W        W90943  11.859   5.770  12.651
19218W        W90944  12.844  10.765  12.065
19219W        W90945  39.547   9.780  10.411
19220W        W90946  15.825  32.477   3.253
19221W        W90947   3.722   1.689   3.739
19222W        W90948  15.689  39.034  12.612
19223W        W90949   4.783  29.487   5.082
19224W        W90950  20.237   0.433  12.572
19225W        W90951  37.026  13.466   3.240
19226W        W90952  23.983  22.731  13.673
19227W        W90953   3.442   6.557   2.241
19228W        W90954  23.685  28.251   3.564
19229W        W90955  42.062  33.573   5.082
19230W        W90956  39.559  15.784  13.954
19231W        W90957  18.691  23.090   2.823
19232W        W90958   4.771  29.174  14.295
19233W        W90959  17.568  14.234  11.216
19234W        W90960  33.363  31.992  12.955
19235W        W90961  11.091  29.760   2.360
19236W        W90962  23.143  20.723  12.302
19237W        W90963  19.716  43.387  11.182
19238W        W90964  41.551  29.775  13.447
19239W        W90965  43.414  11.410   1.847
19240W        W90966  30.654  19.745  14.953
19241W        W90967  25.912  10.950   1.843
19242W        W90968  17.291  16.569   4.656
19243W        W90969  18.263   5.654   0.418
19244W        W90970  10.121   5.230  14.428
19245W        W90971  39.002  43.832   0.498
19246W        W90972  19.039  27.420   0.055
19247W        W90973   1.250  13.974   3.167
19248W        W90974  39.749  20.199  11.999
19249W        W90975  21.025  18.137   0.023
19250W        W90976  37.011  20.046  11.675
19251W        W90977  41.831  18.897   3.092
19252W        W90978   3.896  33.469   2.102
19253W        W90979  23.201  12.546   4.130
19254W        W90980  27.896  12.770  12.062
19255W        W90981  14.995   5.330   1.013
19256W        W90982   9.297  17.141   1.153
19257W        W90983  23.066  44.924   2.664
19258W        W90984  21.977  13.178  14.296
19259W        W90985  14.605  29.576  11.065
19260W        W90986  10.663  19.065  13.024
19261W        W90987  16.611  37.869  12.515
19262W        W90988  30.801  21.203  10.731
19263W        W90989  13.847  20.116   4.757
19264W        W90990  10.400  11.863  13.372
19265W        W90991  43.734  33.406  12.023
19266W        W90992  40.192  27.626   1.889
19267W        W90993  22.535  24.543  12.015
19268W        W90994  32.167  44.557  11.040
19269W        W90995   6.141  39.384   3.181
19270W        W90996  12.615  34.921  12.026
19271W        W90997  33.523  35.866  13.090
19272W        W90998   9.216  38.864   4.588
19273W        W90999  30.932  28.374  10.781
19274W        W91000  12.623  24.271  14.882
19275W        W91001  22.342  28.472   0.990
19276W        W91002  31.344  26.639   5.070
19277W        W91003  11.529  24.981   1.020
19278W        W91004  31.582  29.624  10.428
19279W        W91005  36.413  39.957   3.556
19280W        W91006   0.816  15.814   0.961
19281W        W91007  41.454   4.891   1.934
19282W        W91008  23.905  39.944   1.431
19283W        W91009   8.766   0.416  10.480
19284W        W91010  20.008  31.966   0.889
19285W        W91011   0.923  23.257  12.485
19286W        W91012  29.350   2.888   3.284
19287W        W91013  11.612  41.248  11.276
19288W        W91014  32.159   9.893  12.009
19289W        W91015  38.822  20.827   0.890
19290W        W91016  30.020  41.416   0.194
19291W        W91017  13.914  19.488   0.844
19292W        W91018  32.578  21.301  12.048
19293W        W91019  27.070  32.450   3.829
19294W        W91020  42.814  23.466  13.884
19295W        W91021  10.810   0.233  13.960
19296W        W91022  14.808  20.376  14.912
19297W        W91023   7.284   1.978   1.744
19298W        W91024   7.476  29.922   3.813
19299W        W91025  34.526   1.025  13.070
19300W        W91026  11.340   0.507  14.080
19301W        W91027  28.822  26.043  13.867
19302W        W91028  44.639  11.703   4.152
19303W        W91029  39.522  24.627   0.299
19304W        W91030  15.768   4.200   4.968
19305W        W91031   3.212  33.012   0.806
19306W        W91032  43.012  36.474  14.367
19307W        W91033  27.209  41.511   1.344
19308W        W91034  33.981  17.546  14.012
19309W        W91035  22.167   0.577   4.620
19310W        W91036  19.337  17.163   0.635
19311W        W91037  37.813  32.791   2.265
19312W        W91038  39.688   0.797   4.540
19313W        W91039   1.598  31.147  12.450
19314W        W91040  39.480  39.196  10.320
19315W        W91041  37.545  22.855   2.815
19316W        W91042  20.756   3.851   3.182
19317W        W91043  24.936  15.726  10.869
19318W        W91044  34.190  28.878  11.033
19319W        W91045  22.788   7.748  13.082
19320W        W91046  20.049  23.996  13.594
19321W        W91047  43.857  20.136  10.835
19322W        W91048  15.269  25.027  12.450
19323W        W91049   7.432  10.207  10.705
19324W        W91050   6.128  23.431   2.242
19325W        W91051  22.716  29.070  12.065
19326W        W91052   0.113  34.829   3.514
19327W        W91053  39.506  37.606   4.550
19328W        W91054  39.507  39.511  14.425
19329W        W91055  35.556   1.098  14.570
19330W        W91056  22.724   3.309  11.317
19331W        W91057  21.827   4.330  14.073
19332W        W91058   1.932  37.542  13.249
19333W        W91059   6.241  32.046   3.606
19334W        W91060  21.286   3.282  12.303
19335W        W91061  18.587  14.575   0.719
19336W        W91062  15.691  32.364   2.736
19337W        W91063   1.571  18.994  13.346
19338W        W91064  18.965   6.007  13.055
19339W        W91065   0.465  31.203  11.047
19340W        W91066  12.749  10.882   0.886
19341W        W91067  21.652  30.294   0.076
19342W        W91068   1.499  32.615   3.212
19343W        W91069   7.596  25.216  12.979
19344W        W91070  43.935  21.564  11.746
19345W        W91071  43.432  21.434   3.324
19346W        W91072  28.481   7.779  11.206
19347W        W91073  38.030  30.439  12.980
19348W        W91074   0.808  30.137   0.346
19349W        W91075  32.745  23.697  13.485
19350W        W91076  21.175  37.414   3.795
19351W        W91077  24.727   4.603   2.249
19352W        W91078  36.840  31.949   0.974
19353W        W91079   1.772  14.574   4.660
19354W        W91080  32.465  27.206  12.768
19355W        W91081  23.441  34.136   2.673
19356W        W91082  43.832  12.105  12.760
19357W        W91083   3.716  25.218   0.504
19358W        W91084  15.794  21.186  11.604
19359W        W91085  20.675  17.581  12.571
19360W        W91086  20.591   6.755  12.977
19361W        W91087  32.472  44.821  13.510
19362W        W91088  22.219  41.443   4.007
19363W        W91089  30.169  38.897  10.788
19364W        W91090  18.820   7.125  14.331
19365W        W91091  11.697  39.584   3.427
19366W        W91092   3.116  13.511   0.814
19367W        W91093  18.532  24.736  11.571
19368W        W91094  34.648   6.446  14.788
19369W        W91095  12.360  17.551   1.626
19370W        W91096  16.378  36.332   5.269
19371W        W91097  29.490  11.410   1.866
19372W        W91098  32.828  17.590   4.274
19373W        W91099  43.989  38.772  14.772
19374W        W91100  35.625  44.866   4.126
19375W        W91101  19.255  41.859  10.478
19376W        W91102   7.713   9.172  14.484
19377W        W91103  21.514  23.466  12.893
19378W        W91104  11.651  38.388  10.686
19379W        W91105  22.686  38.538   0.327
19380W        W91106  42.018  17.219   4.085
19381W        W91107  29.317  17.554  11.586
19382W        W91108  27.635  26.308   5.013
19383W        W91109  21.634  12.368   9.799
19384W        W91110   6.933  25.020  14.626
19385W        W91111  15.393  36.109   3.386
19386W        W91112   5.680   6.927   5.068
19387W        W91113   7.393   1.481  11.573
19388W        W91114  11.668   1.301  11.605
19389W        W91115  28.098  42.754   1.973
19390W        W91116  26.197  34.560  11.716
19391W        W91117  31.521   6.164   2.198
19392W        W91118  40.257  31.907   4.166
19393W        W91119   6.206  44.590  10.605
19394W        W91120  24.780  25.933  13.673
19395W        W91121  35.649  29.258  13.719
19396W        W91122  41.889  44.110  12.581
19397W        W91123  37.949   5.292  12.426
19398W        W91124  24.007  33.481   2.474
19399W        W91125  24.811  34.774  11.951
19400W        W91126  27.942  31.451  11.301
19401W        W91127  17.290  39.501  13.112
19402W        W91128  22.261  23.502  11.265
19403W        W91129  22.293  16.440   2.725
19404W        W91130  30.497   0.692   0.901
19405W        W91131  30.121  21.611   4.172
19406W        W91132  21.214  10.120   3.255
19407W        W91133  35.525  15.675  11.605
19408W        W91134   1.799  15.627  14.500
19409W        W91135  12.877  38.556  12.947
19410W        W91136  12.037   7.920   3.270
19411W        W91137  26.411  40.208   2.764
19412W        W91138   8.632  25.661  14.879
19413W        W91139  17.069   3.031  12.557
19414W        W91140  17.190  24.045   0.911
19415W        W91141  22.476  17.039   2.700
19416W        W91142  25.666   8.259   3.254
19417W        W91143   4.903  26.201   3.575
19418W        W91144  27.623  38.634  13.376
19419W        W91145  35.021  27.974   3.109
19420W        W91146  28.290   1.299  14.179
19421W        W91147   0.079  23.954  14.316
19422W        W91148  26.506  29.473  11.718
19423W        W91149  12.831  23.957   2.340
19424W        W91150  30.819  35.098   4.210
19425W        W91151  23.620  16.229   4.314
19426W        W91152  20.662   8.382   3.971
19427W        W91153  22.088  24.444  11.123
19428W        W91154  17.514  10.884  11.225
19429W        W91155  19.962   0.388   3.168
19430W        W91156  43.699  32.921  12.506
19431W        W91157   1.455  26.746   4.647
19432W        W91158  40.706  41.944   0.696
19433W        W91159   4.800  15.559  11.439
19434W        W91160  37.881  10.706  10.537
19435W        W91161  33.844   0.777  13.938
19436W        W91162  22.011  21.203  13.793
19437W        W91163  17.192   2.269  13.398
19438W        W91164  32.897  26.564   2.276
19439W        W91165  43.661  30.926   1.275
19440W        W91166  40.744  19.299  14.673
19441W        W91167  11.585  16.454   2.405
19442W        W91168  14.473  12.100  12.109
19443W        W91169  14.452   0.209  12.106
19444W        W91170   0.844  18.568  11.738
19445W        W91171   6.414  16.793  10.630
19446W        W91172  20.750  15.873   1.293
19447W        W91173   7.292   9.815   3.497
19448W        W91174  18.598  18.099  14.805
19449W        W91175  10.903  10.334   3.484
19450W        W91176  10.353   5.902   0.923
19451W        W91177  17.512  33.178  13.432
19452W        W91178  19.497  30.448   4.282
19453W        W91179  27.868  39.112  12.465
19454W        W91180  18.083  23.751  14.602
19455W        W91181  33.164  26.232  12.484
19456W        W91182   6.023  19.899   4.503
19457W        W91183  27.077   1.268   3.817
19458W        W91184  37.053  19.498   4.664
19459W        W91185  24.159  17.299  13.361
19460W        W91186  23.177  36.112  14.248
19461W        W91187   8.369  44.264  13.924
19462W        W91188   4.373  17.013   4.286
19463W        W91189  42.902  10.900   1.291
19464W        W91190  27.591  29.416   3.749
19465W        W91191  20.176   4.627   3.292
19466W        W91192  13.375  30.691   5.101
19467W        W91193  13.103   8.587  12.935
19468W        W91194  38.085  19.067  11.603
19469W        W91195  35.726  35.547  11.972
19470W        W91196  25.758   9.193   4.061
19471W        W91197   3.393  38.396  11.124
19472W        W91198  40.044   3.188   1.521
19473W        W91199  37.736  24.245  11.169
19474W        W91200  15.101  31.955  13.268
19475W        W91201   6.132  14.222  14.986
19476W        W91202  27.922  22.750   1.562
19477W        W91203  16.599  34.891  14.280
19478W        W91204  41.629  43.706   0.248
19479W        W91205  22.496  23.612   0.219
19480W        W91206  28.340  33.702   1.981
19481W        W91207  36.354   3.005  13.395
19482W        W91208   3.986   6.409  11.107
19483W        W91209  15.004  12.822  13.503
19484W        W91210  34.645  27.620  14.076
19485W        W91211  24.836  15.305   2.736
19486W        W91212  28.950  43.439   0.512
19487W        W91213   8.867   1.701   3.078
19488W        W91214  17.152  42.436  13.817
19489W        W91215   9.777  11.801   2.395
19490W        W91216  31.199   0.964   4.049
19491W        W91217  42.138   4.121   0.426
19492W        W91218  17.788  13.136  10.818
19493W        W91219  16.112  14.887   1.360
19494W        W91220  23.135  13.160   0.981
19495W        W91221   4.447  20.509  12.012
19496W        W91222  40.590  30.336   1.909
19497W        W91223   1.314  17.128  11.178
19498W        W91224  13.343  12.393   0.681
19499W        W91225  31.372   9.163  12.561
19500W        W91226  22.871  27.106   3.701
19501W        W91227  29.886  23.428   4.589
19502W        W91228  11.243   6.795  12.371
19503W        W91229   0.028  38.885   0.474
19504W        W91230  11.306  25.387   4.752
19505W        W91231  34.497  32.648  11.311
19506W        W91232  33.442  26.672  11.159
19507W        W91233  20.549  36.789   1.645
19508W        W91234  23.032   5.577   0.185
19509W        W91235  35.920  40.556   3.178
19510W        W91236  43.795  20.436  13.489
19511W        W91237  10.451   8.239  10.732
19512W        W91238  17.126  21.661   2.658
19513W        W91239  37.886  29.867  14.251
19514W        W91240  43.452  24.629  10.932
19515W        W91241  18.926  18.522   1.799
19516W        W91242  20.403   0.985   0.893
19517W        W91243  23.328   9.247  14.349
19518W        W91244   8.278   9.974   0.820
19519W        W91245  30.470  32.473  10.354
19520W        W91246  41.247   8.934  13.423
19521W        W91247  12.779  25.088   4.156
19522W        W91248  40.582  40.823   0.263
19523W        W91249  35.332  17.551  13.603
19524W        W91250  34.885  28.079   3.700
19525W        W91251  32.576  14.604   0.991
19526W        W91252  17.493   6.182  13.421
19527W        W91253  25.138  33.173   3.127
19528W        W91254  17.159   3.779   1.308
19529W        W91255  33.530  38.834   2.129
19530W        W91256  41.425  24.782  13.355
19531W        W91257   6.198  25.565   2.641
19532W        W91258  43.266   1.161   3.359
19533W        W91259  17.155  36.502   3.156
19534W        W91260  28.081  35.299  12.390
19535W        W91261  43.100  40.578  13.643
19536W        W91262  24.995  12.865  10.643
19537W        W91263  30.224  25.516  13.825
19538W        W91264  35.057  21.200  13.879
19539W        W91265  20.497  36.132   4.687
19540W        W91266   9.568  26.709   1.346
19541W        W91267  40.545  19.135  11.685
19542W        W91268  29.619  18.489  12.420
19543W        W91269  29.076  11.545  13.990
19544W        W91270   1.745  38.288   3.133
19545W        W91271   1.316  25.966   4.130
19546W        W91272  35.563  13.016   3.230
19547W        W91273  11.302  31.146  12.696
19548W        W91274  14.213  35.729   4.031
19549W        W91275  18.066   2.660  13.863
19550W        W91276  31.927  20.533  11.117
19551W        W91277   6.390  39.899   2.562
19552W        W91278  36.184   8.748  14.025
19553W        W91279   0.408  19.805   3.162
19554W        W91280  37.920  41.105  12.927
19555W        W91281  24.968  38.367   3.473
19556W        W91282  19.061  16.145  11.519
19557W        W91283  21.165  41.302   3.289
19558W        W91284  27.285  37.593   2.762
19559W        W91285  38.453   6.755   0.229
19560W        W91286  35.983   3.696   3.797
19561W        W91287  31.890  32.940   2.181
19562W        W91288  27.644  22.784   4.548
19563W        W91289  24.601  25.531  10.899
19564W        W91290  31.925  41.606   2.190
19565W        W91291  33.453  27.774   2.655
19566W        W91292  39.781  26.162   0.924
19567W        W91293   1.463  37.301  14.808
19568W        W91294  27.513  44.802   2.192
19569W        W91295  15.268  17.023   2.108
19570W        W91296   8.252   8.374   1.664
19571W        W91297  41.759  39.813   4.470
19572W        W91298  36.520   6.346  11.184
19573W        W91299   7.089  35.586  13.098
19574W        W91300   8.138   2.016  13.987
19575W        W91301   1.930  18.314   1.719
19576W        W91302  15.725  43.499  13.960
19577W        W91303  34.958   7.815   2.281
19578W        W91304   5.967  44.579   3.131
19579W        W91305   0.923  28.996   0.859
19580W        W91306  43.534  44.005   0.371
19581W        W91307   4.858  27.659   2.847
19582W        W91308  30.871  42.846   4.676
19583W        W91309  10.905   7.828  12.939
19584W        W91310  33.563  44.680   2.089
19585W        W91311   5.251  16.048  12.013
19586W        W91312  37.936  22.969  11.144
19587W        W91313  11.935  10.181   2.137
19588W        W91314  32.216  33.586   4.753
19589W        W91315   9.697  32.161   3.644
19590W        W91316  42.938   8.897  14.938
19591W        W91317  40.200   7.274  11.045
19592W        W91318  35.625  10.657  11.622
19593W        W91319  23.929  20.424   3.151
19594W        W91320   0.920  24.169  14.004
19595W        W91321  31.922   1.557  14.968
19596W        W91322   7.853   6.649   2.270
19597W        W91323  39.384  12.179   0.245
19598W        W91324  12.777   7.863   1.416
19599W        W91325   3.466  39.955   4.905
19600W        W91326  41.093  31.018  12.120
19601W        W91327  17.346  35.391  13.357
19602W        W91328  26.432   4.298   4.571
19603W        W91329  37.546  27.240  14.566
19604W        W91330  19.521  22.217  13.907
19605W        W91331  13.050  19.694   3.097
19606W        W91332  32.196   5.810   2.766
19607W        W91333  11.111  25.257   3.869
19608W        W91334  10.166  18.185   0.823
19609W        W91335  29.241  19.680  14.967
19610W        W91336   9.116   0.275  11.268
19611W        W91337  30.869  32.646   1.546
19612W        W91338  30.535   3.461  11.622
19613W        W91339   8.175   2.500   1.409
19614W        W91340   5.246  23.374   4.999
19615W        W91341  25.553  11.131   4.701
19616W        W91342  11.913   2.818  10.721
19617W        W91343   1.871   8.195  14.050
19618W        W91344  36.929  19.146  12.412
19619W        W91345  10.330   1.182  12.925
19620W        W91346  42.489  35.681   1.155
19621W        W91347  41.322   2.351   3.110
19622W        W91348  19.418  43.305   3.914
19623W        W91349   3.469   9.872   4.746
19624W        W91350  30.484  25.984   1.409
19625W        W91351   5.772   9.126   0.384
19626W        W91352  13.761  28.577  11.925
19627W        W91353   1.998   3.998  12.972
19628W        W91354  34.192   3.789  11.567
19629W        W91355   8.656  26.165  10.998
19630W        W91356  12.174  28.462   4.495
19631W        W91357  24.321  29.191  12.536
19632W        W91358  22.587  25.636   0.027
19633W        W91359  20.237   9.302   2.963
19634W        W91360  30.791  43.908  11.558
19635W        W91361  42.115  12.481  13.086
19636W        W91362  39.388  32.903   3.387
19637W        W91363  30.640  30.454  14.100
19638W        W91364  38.526  43.928   4.764
19639W        W91365  25.154  15.135  13.404
19640W        W91366  34.804  41.282  13.317
19641W        W91367  21.611  42.860   1.743
19642W        W91368  33.021  11.970   2.187
19643W        W91369   8.402   4.605   5.092
19644W        W91370  28.125   8.683   3.724
19645W        W91371  32.920  35.074  12.016
19646W        W91372   0.653   2.889  11.177
19647W        W91373  28.787   8.317   0.670
19648W        W91374  11.372  27.164  11.527
19649W        W91375   4.459  35.037  11.953
19650W        W91376  13.265  20.178   3.138
19651W        W91377  39.717  11.900  13.070
19652W        W91378  10.286  15.794  14.776
19653W        W91379  18.837  18.207  13.476
19654W        W91380  15.197  42.762   0.676
19655W        W91381  39.807  35.519   1.407
19656W        W91382  38.594  31.268  11.220
19657W        W91383  43.188   6.738   0.830
19658W        W91384   1.877  11.402  12.973
19659W        W91385  32.431   4.188   2.836
19660W        W91386   6.600  19.249  13.769
19661W        W91387   3.974  18.002  12.604
19662W        W91388  30.902  17.563  12.842
19663W        W91389   5.895   4.726   1.224
19664W        W91390   4.300  12.538  11.857
19665W        W91391  22.151  21.661   4.563
19666W        W91392  14.361  13.636  13.830
19667W        W91393  40.785   7.055  11.755
19668W        W91394  12.141  39.903  12.047
19669W        W91395  16.502  11.300  12.398
19670W        W91396  19.296  16.013  11.083
19671W        W91397   6.980  15.154   4.176
19672W        W91398   7.813  21.463   3.220
19673W        W91399  27.718  25.497   3.662
19674W        W91400  32.496   4.290   4.726
19675W        W91401   5.393  17.769  12.711
19676W        W91402  32.207   5.127  11.142
19677W        W91403  15.056  40.400   4.742
19678W        W91404   0.495  17.637   4.508
19679W        W91405  25.099  20.790  10.043
19680W        W91406   7.303   5.938  12.312
19681W        W91407   4.001   0.383   4.219
19682W        W91408  12.110  29.658  11.095
19683W        W91409  34.895   2.220  12.397
19684W        W91410  28.099  34.873  10.529
19685W        W91411  42.445  42.976  11.013
19686W        W91412   7.913  16.839   0.479
19687W        W91413  16.809  40.776   1.707
19688W        W91414  26.221  44.429  12.053
19689W        W91415   1.399  31.639  12.444
19690W        W91416   9.112  39.375  10.703
19691W        W91417   5.235   2.935  12.220
19692W        W91418   5.835  13.766   2.271
19693W        W91419  33.626  23.137  11.161
19694W        W91420   5.735  31.336   0.919
19695W        W91421  18.662   0.151   3.051
19696W        W91422  43.212   0.797  10.555
19697W        W91423   0.643  34.069  13.859
19698W        W91424  43.604  40.527  11.528
19699W        W91425  10.740   9.352   4.660
19700W        W91426  23.636  33.342   2.156
19701W        W91427  32.877  32.149  13.009
19702W        W91428  44.840  18.047   0.604
19703W        W91429  32.408  23.145   0.294
19704W        W91430  34.072   3.605  14.790
19705W        W91431  32.366  27.414   3.672
19706W        W91432  39.654  12.219  11.733
19707W        W91433   1.331  13.715  12.580
19708W        W91434  18.068  22.527   2.331
19709W        W91435  40.954  36.126  12.419
19710W        W91436  41.104  12.329   3.290
19711W        W91437  11.206   2.533   1.332
19712W        W91438  42.285  21.130   2.204
19713W        W91439  23.729  43.209  14.914
19714W        W91440  34.384  12.186   4.408
19715W        W91441  29.241  23.285  12.468
19716W        W91442  22.805  12.859  12.415
19717W        W91443  16.118   9.230  12.767
19718W        W91444  36.067  31.677   0.994
19719W        W91445  33.493  24.683   3.611
19720W        W91446   3.518  35.148  13.470
19721W        W91447  17.687   6.452   3.598
19722W        W91448  17.236  18.124   0.758
19723W        W91449  16.672  10.740  14.873
19724W        W91450  37.386  18.997  13.135
19725W        W91451  19.107  38.489  11.859
19726W        W91452  42.856  17.985   0.186
19727W        W91453  34.458  28.668  12.549
19728W        W91454  31.477   8.091  11.863
19729W        W91455  27.870  19.121   3.690
19730W        W91456  21.109   9.903  12.534
19731W        W91457  15.203  10.121  13.153
19732W        W91458  18.157  44.419  11.572
19733W        W91459   3.289  12.146  14.344
19734W        W91460  37.968  43.720   0.341
19735W        W91461  44.490  13.116   2.519
19736W        W91462  18.245   0.569  10.751
19737W        W91463  23.086  35.987   0.763
19738W        W91464  40.429  34.140   4.146
19739W        W91465   5.645   8.832   0.890
19740W        W91466  38.420  25.222   2.834
19741W        W91467  35.000  26.639  12.617
19742W        W91468   2.268   1.665  12.916
19743W        W91469  32.140  15.433  10.317
19744W        W91470   7.942  21.263  12.967
19745W        W91471  21.520  19.565  14.657
19746W        W91472  26.967  26.469   1.070
19747W        W91473  16.662  13.200   1.796
19748W        W91474  33.389  24.148   0.809
19749W        W91475  15.733  39.510   4.122
19750W        W91476  14.760  23.231   2.843
19751W        W91477  14.398  39.810   3.288
19752W        W91478  39.058   1.575  13.363
19753W        W91479   0.836  26.179   4.986
19754W        W91480  29.917  34.889  11.582
19755W        W91481  17.103   3.144  13.530
19756W        W91482   3.380   9.556  10.365
19757W        W91483   0.399  44.486   2.792
19758W        W91484   2.808   8.502   2.185
19759W        W91485  31.626  17.335  12.614
19760W        W91486  16.548  16.381   2.366
19761W        W91487  10.256   9.334   3.386
19762W        W91488  31.658   8.282   3.336
19763W        W91489   9.189   1.763  11.635
19764W        W91490  24.112  42.997   3.301
19765W        W91491  21.483   4.011  13.863
19766W        W91492  32.218  15.214  10.788
19767W        W91493  43.945   8.287   2.293
19768W        W91494  36.808  39.583  12.979
19769W        W91495   7.380  42.341   4.340
19770W        W91496   7.748  23.566   0.743
19771W        W91497  12.152   7.468   1.998
19772W        W91498  14.790   8.520  14.902
19773W        W91499  34.632  11.524   2.796
19774W        W91500  33.517  34.150  13.461
19775W        W91501  41.230   4.907  14.936
19776W        W91502   8.205  35.289  14.882
19777W        W91503  21.675  10.647   0.069
19778W        W91504  10.690  34.918   1.417
19779W        W91505  18.034   8.444   0.822
19780W        W91506   0.631  41.331  11.629
19781W        W91507  40.919  42.773   0.803
19782W        W91508  10.155  19.190   2.897
19783W        W91509  44.222  16.179   3.770
19784W        W91510   0.059  26.520  10.981
19785W        W91511  30.976  34.775  14.573
19786W        W91512   1.270   9.397  12.447
19787W        W91513   3.403  29.263  10.904
19788W        W91514   6.979   5.439   0.359
19789W        W91515  27.049  17.344   4.595
19790W        W91516  30.491  12.234  11.611
19791W        W91517   0.279  11.011   0.054
19792W        W91518   0.385  38.051  13.447
19793W        W91519  27.080  35.565  13.258
19794W        W91520  17.633  31.014   0.806
19795W        W91521  44.846   9.416   4.270
19796W        W91522  22.412  10.525  13.842
19797W        W91523  24.981   8.483  13.080
19798W        W91524  39.809  34.053  11.615
19799W        W91525  41.264  31.704   2.287
19800W        W91526  13.201   0.736   0.040
19801W        W91527  40.323  31.390   2.247
19802W        W91528  30.785  11.281  11.550
19803W        W91529  41.614  21.186  14.349
19804W        W91530  23.068  16.855   0.839
19805W        W91531  39.456  39.592   0.380
19806W        W91532  12.740  34.072   3.880
19807W        W91533   8.239  18.771   0.203
19808W        W91534  28.100  42.953   0.428
19809W        W91535  28.370  11.618  14.464
19810W        W91536   2.487  23.575  14.341
19811W        W91537  39.384   7.603   3.354
19812W        W91538  41.065  44.817   4.623
19813W        W91539  31.892  44.768  13.291
19814W        W91540  39.522   3.242   0.805
19815W        W91541  32.759   9.203  12.012
19816W        W91542  24.650  42.022   1.282
19817W        W91543   4.655  37.005   4.199
19818W        W91544  41.024   4.315  14.278
19819W        W91545   3.798  37.448  13.475
19820W        W91546  44.815   6.726  11.683
19821W        W91547  27.267  31.202  11.925
19822W        W91548  30.895  44.645  13.288
19823W        W91549  22.126  10.665  10.524
19824W        W91550  18.075  35.072   1.858
19825W        W91551  16.736   1.203  13.873
19826W        W91552  38.843  38.875  12.761
19827W        W91553  42.995  16.202   0.753
19828W        W91554  12.186  40.353   0.405
19829W        W91555  33.746  32.916   1.882
19830W        W91556  37.433  23.223  12.039
19831W        W91557  19.261  44.509   0.314
19832W        W91558   9.282  19.603   0.066
19833W        W91559  12.487  39.004  12.101
19834W        W91560  38.835   3.635   4.450
19835W        W91561  31.885  30.214  13.011
19836W        W91562  24.192  34.349   2.801
19837W        W91563  13.250  16.225   3.656
19838W        W91564  21.488  10.469   3.033
19839W        W91565  22.559   6.025  11.993
19840W        W91566  41.733  12.782   1.528
19841W        W91567  21.919  17.228   1.695
19842W        W91568  12.893  15.581  11.932
19843W        W91569  14.195  29.471   0.984
19844W        W91570  21.585   1.503  10.961
19845W        W91571   2.814   8.853  10.599
19846W        W91572  38.529   5.419  14.849
19847W        W91573  38.269   6.242  14.118
19848W        W91574  19.039   6.728   4.743
19849W        W91575  25.238  18.650   1.845
19850W        W91576  12.795  19.213   3.250
19851W        W91577   6.803   2.835   0.839
19852W        W91578  17.730   7.516  11.953
19853W        W91579  29.235  35.570  13.428
19854W        W91580  25.555  34.600  12.966
19855W        W91581  26.124  10.879  10.411
19856W        W91582  44.222  28.148   0.954
19857W        W91583  31.231  33.594  11.940
19858W        W91584  20.706  25.137  14.824
19859W        W91585  41.050  42.855  10.843
19860W        W91586   8.979  41.873   4.068
19861W        W91587  36.429  22.224  12.921
19862W        W91588  40.963  14.973  13.069
19863W        W91589  33.084  24.578   0.803
19864W        W91590  23.124  22.724   3.212
19865W        W91591  31.898  12.584   2.059
19866W        W91592  18.638   0.569  11.086
19867W        W91593  31.928   8.914  11.673
19868W        W91594  37.706  14.793  13.977
19869W        W91595  17.217   6.747   0.334
19870W        W91596   9.866  28.161   0.352
19871W        W91597  22.768  14.609  13.480
19872W        W91598  18.054  40.069   3.226
19873W        W91599  17.211   4.713   1.440
19874W        W91600   2.278   1.269   0.429
19875W        W91601  22.186  37.000  10.670
19876W        W91602  13.606  29.947   4.743
19877W        W91603   2.211  31.551  13.478
19878W        W91604   9.280  24.223  12.374
19879W        W91605   2.930   6.032   4.038
19880W        W91606  44.026  15.831  13.378
19881W        W91607  28.444   0.872   0.295
19882W        W91608   6.313  36.820  13.827
19883W        W91609   3.206  28.186  13.972
19884W        W91610   1.198  40.239   2.342
19885W        W91611   5.224  13.514  13.480
19886W        W91612  44.333  30.494  12.007
19887W        W91613  33.904  39.628  11.094
19888W        W91614  40.329  21.087  11.873
19889W        W91615  43.757  23.478  14.813
19890W        W91616  41.518  15.323   3.375
19891W        W91617  20.566  39.569   0.335
19892W        W91618  34.591   0.783  14.876
19893W        W91619  26.904  42.430  13.343
19894W        W91620   5.686  40.919  12.589
19895W        W91621  44.746  39.774  11.146
19896W        W91622  42.379   6.242   4.355
19897W        W91623  20.614  26.583  14.908
19898W        W91624  22.113  30.899  12.435
19899W        W91625  34.036  23.596  12.312
19900W        W91626  11.555  12.362  10.279
19901W        W91627  19.495  17.074  12.371
19902W        W91628  22.674   4.368   0.446
19903W        W91629  33.664  24.448  13.939
19904W        W91630  14.278  22.984  13.871
19905W        W91631  16.212  38.517   0.728
19906W        W91632  27.974  15.134   0.939
19907W        W91633  34.389  35.834  11.703
19908W        W91634   8.231  22.623   2.692
19909W        W91635  42.052  43.828  12.971
19910W        W91636   1.949   1.839  13.653
19911W        W91637  31.636  27.588  11.290
19912W        W91638   2.731   6.188  11.206
19913W        W91639  13.278  22.574   4.628
19914W        W91640  38.786  25.625   1.699
19915W        W91641  31.746  30.546  12.461
19916W        W91642  28.113  36.345  10.645
19917W        W91643   3.492  11.765  10.499
19918W        W91644  15.062  11.766   1.287
19919W        W91645  25.599  32.080   2.194
19920W        W91646  26.165  28.643   2.627
19921W        W91647   9.382  40.258  14.303
19922W        W91648  43.390  28.500  13.534
19923W        W91649  25.498  23.686   3.428
19924W        W91650  37.961  12.472  10.979
19925W        W91651   3.954   9.352   2.244
19926W        W91652  38.324   9.625  12.861
19927W        W91653  10.651  24.074  10.493
19928W        W91654  19.301  24.127   1.836
19929W        W91655  37.911  26.276  13.411
19930W        W91656   5.447  36.661  11.074
19931W        W91657  33.430  30.971   3.317
19932W        W91658  23.626  38.783   2.774
19933W        W91659  27.192   1.889  14.589
19934W        W91660  24.317  18.914  14.486
19935W        W91661  15.928   0.763  14.079
19936W        W91662  27.210  35.014   1.609
19937W        W91663  15.741  33.959  11.178
19938W        W91664   8.817  22.999  13.841
19939W        W91665  27.643  13.591   2.238
19940W        W91666  32.222   9.138   1.334
19941W        W91667  35.478  26.622   2.722
19942W        W91668  17.796  28.711  11.676
19943W        W91669  34.499  44.506   1.727
19944W        W91670  31.645   5.963   2.735
19945W        W91671  34.320  18.478  10.923
19946W        W91672  39.309  41.280  13.921
19947W        W91673  34.338   6.879  12.445
19948W        W91674   8.253  41.553   0.896
19949W        W91675  15.795   4.450  12.957
19950W        W91676   4.574  26.703   4.602
19951W        W91677  13.287  30.184  12.222
19952W        W91678  44.728   1.230   0.377
19953W        W91679   7.694  19.089   0.951
19954W        W91680  29.808  27.448  14.143
19955W        W91681  26.906  25.154  12.046
19956W        W91682   5.364  24.412   2.730
19957W        W91683  17.345  20.040  12.013
19958W        W91684  23.050  17.888   0.862
19959W        W91685  13.669  34.948  13.611
19960W        W91686  15.713  11.647  11.144
19961W        W91687  17.390  44.824   0.782
19962W        W91688  23.465  26.148  10.622
19963W        W91689  11.733  19.558   4.546
19964W        W91690  31.364  17.851   0.744
19965W        W91691  33.430  34.549  12.361
19966W        W91692  21.613   2.353   1.251
19967W        W91693  27.090  27.738   1.658
19968W        W91694  10.160  14.325  10.731
19969W        W91695   8.533  28.028  13.405
19970W        W91696  27.079  37.947  10.804
19971W        W91697   1.923  29.362  11.991
19972W        W91698  15.100   3.789   2.372
19973W        W91699  33.524  33.649  13.302
19974W        W91700  12.643   9.296  10.611
19975W        W91701  35.105  41.503  10.654
19976W        W91702   3.196   4.272   1.218
19977W        W91703   2.534  11.767   1.731
19978W        W91704  36.536  37.596   4.185
19979W        W91705  38.454  39.296  13.939
19980W        W91706  13.046  37.424   5.239
19981W        W91707  42.485  16.200  13.831
19982W        W91708  42.805  12.036  11.901
19983W        W91709  23.680  19.322   3.727
19984W        W91710  11.707  17.735  11.212
19985W        W91711  16.904  10.669   2.833
19986W        W91712  39.350   0.405   4.363
19987W        W91713  21.964  31.527  12.148
19988W        W91714  14.854   7.803   2.601
19989W        W91715  40.737  43.455  12.535
19990W        W91716  36.412  23.994  14.361
19991W        W91717  11.226  11.340   1.835
19992W        W91718  42.292  34.518   3.638
19993W        W91719  39.318  19.544   2.648
19994W        W91720  31.125  44.942  11.603
19995W        W91721  35.754   0.725   3.597
19996W        W91722  43.181  24.451  11.968
19997W        W91723  34.699   1.242  11.073
19998W        W91724   2.491  13.352  11.231
19999W        W91725   7.242  44.014  14.882
20000W        W91726   4.860  36.393  14.293
20001W        W91727   7.590   1.939   4.372
20002W        W91728  34.903  17.202  14.356
20003W        W91729   7.775  25.910   1.267
20004W        W91730  10.690   4.179  12.492
20005W        W91731  11.578   6.093   9.563
20006W        W91732  36.160  21.652  10.696
20007W        W91733   6.862  13.235  13.798
20008W        W91734  13.801  13.988   2.053
20009W        W91735  14.149  10.094  11.234
20010W        W91736  18.172  22.827  12.381
20011W        W91737  32.115  38.562   0.557
20012W        W91738  11.782   3.029   3.236
20013W        W91739  29.759  38.820  11.456
20014W        W91740  34.487  27.982   1.894
20015W        W91741  21.461  29.719  13.035
20016W        W91742  42.458  43.527  13.763
20017W        W91743  33.136  20.095  14.366
20018W        W91744  37.963  10.260   2.334
20019W        W91745  37.582  23.577  13.340
20020W        W91746  10.460  28.127   1.476
20021W        W91747   7.666   6.894   1.855
20022W        W91748  28.219   3.249   1.357
20023W        W91749   1.429  32.158  13.370
20024W        W91750   8.705  13.247  13.521
20025W        W91751  26.148   0.343  12.477
20026W        W91752  29.030  10.050   1.778
20027W        W91753   5.839  29.896  14.277
20028W        W91754  43.750  31.363   1.588
20029W        W91755  38.492  18.592  13.335
20030W        W91756   1.572  32.986   4.276
20031W        W91757  30.587  42.841   4.236
20032W        W91758  20.837  12.148   1.497
20033W        W91759  16.165  42.745  10.266
20034W        W91760  37.981  44.195  12.905
20035W        W91761   9.783  15.087   3.339
20036W        W91762  38.114  32.093   1.462
20037W        W91763   2.913  13.367   0.336
20038W        W91764  10.247  11.904   1.763
20039W        W91765   0.517   8.664  11.529
20040W        W91766   9.151  36.932   1.747
20041W        W91767   8.704  16.435   0.373
20042W        W91768  22.082  33.590   4.131
20043W        W91769  35.547  32.003  14.383
20044W        W91770  21.856   3.312  11.477
20045W        W91771   6.910   3.735  11.945
20046W        W91772   1.308   5.882   3.666
20047W        W91773  11.701   3.994  12.630
20048W        W91774  28.987  27.430  10.626
20049W        W91775   5.326  13.392   3.055
20050W        W91776   8.053   6.109   0.432
20051W        W91777  12.690   0.314   3.489
20052W        W91778  14.044   3.143   5.076
20053W        W91779  20.737  13.078  12.781
20054W        W91780  12.227   2.811   3.054
20055W        W91781  28.643  41.508  12.822
20056W        W91782  20.127  29.904   4.046
20057W        W91783   5.991  34.581   1.518
20058W        W91784  30.956  37.645  11.102
20059W        W91785  44.622   2.901   0.793
20060W        W91786  43.076   0.393   4.878
20061W        W91787   9.057  13.260   0.837
20062W        W91788  16.031   0.533   2.329
20063W        W91789  30.427   9.764   1.292
20064W        W91790  36.085  39.179   3.657
20065W        W91791  24.283   0.205   1.396
20066W        W91792   8.065  32.902  12.347
20067W        W91793  34.778  23.096   3.550
20068W        W91794  36.309  32.963  13.293
20069W        W91795  33.722  26.710   1.846
20070W        W91796   4.836  14.039   2.755
20071W        W91797  44.064  37.923   4.264
20072W        W91798  24.078  41.576   1.870
20073W        W91799   8.722  10.233   0.730
20074W        W91800  39.174  21.685  13.460
20075W        W91801  22.415   1.070   4.405
20076W        W91802  33.364  17.769   3.336
20077W        W91803  12.687  41.887  14.561
20078W        W91804  11.521  24.701   0.297
20079W        W91805  26.614   8.991   3.663
20080W        W91806  37.632  44.109  11.590
20081W        W91807  16.208  12.735   1.151
20082W        W91808   8.788   7.914   4.340
20083W        W91809  18.341  19.936   3.409
20084W        W91810   1.934  39.482   4.782
20085W        W91811  34.492  43.545   1.276
20086W        W91812  13.600  23.263   1.361
20087W        W91813  36.713   1.422  13.529
20088W        W91814  17.816   3.519  12.046
20089W        W91815   7.330  23.787  12.528
20090W        W91816  13.724  40.284  14.022
20091W        W91817  20.179  41.465   0.733
20092W        W91818  27.688   4.478  10.409
20093W        W91819  33.613   0.419  14.886
20094W        W91820  22.615  15.782  14.334
20095W        W91821  43.199   7.431   1.424
20096W        W91822  17.271   5.636   1.313
20097W        W91823  36.471  10.727   4.572
20098W        W91824  26.054  20.931  12.927
20099W        W91825  27.450  12.530  12.077
20100W        W91826   3.238  13.869   2.181
20101W        W91827   3.450   9.597   2.574
20102W        W91828  24.956  14.747  13.103
20103W        W91829  40.393  29.237  11.979
20104W        W91830   5.111  42.856   1.857
20105W        W91831  31.076  38.536   2.638
20106W        W91832  34.654  34.661  11.159
20107W        W91833   4.729   2.384   3.186
20108W        W91834  11.992   0.826   4.071
20109W        W91835   1.214   0.979  11.303
20110W        W91836  29.271  43.377  14.402
20111W        W91837   3.329  33.435  10.760
20112W        W91838  35.815  40.350  14.376
20113W        W91839   5.472   1.939   3.176
20114W        W91840  43.079  42.388   3.755
20115W        W91841  44.378  13.783  12.148
20116W        W91842  11.079  25.618   5.135
20117W        W91843  29.466   2.184   3.982
20118W        W91844  29.752  44.007   1.318
20119W        W91845  40.530  12.054  11.200
20120W        W91846  21.582   7.254  12.421
20121W        W91847  42.063  18.220  13.739
20122W        W91848  35.425   9.645  11.605
20123W        W91849   5.001   7.678   4.957
20124W        W91850  28.908  43.720  13.637
20125W        W91851  25.329  33.636  12.730
20126W        W91852  34.414  26.605   2.439
20127W        W91853   6.833   9.751  14.694
20128W        W91854   7.806  20.493   1.742
20129W        W91855  23.953   6.431   4.707
20130W        W91856   6.814   4.956  11.159
20131W        W91857  25.197  27.707   2.781
20132W        W91858  26.260  40.106   0.486
20133W        W91859   0.491  19.532   4.098
20134W        W91860  33.906  18.949   3.740
20135W        W91861  17.714   4.575  11.199
20136W        W91862  26.960   9.355   3.575
20137W        W91863  16.194  22.346   3.646
20138W        W91864  40.500   0.863  12.054
20139W        W91865  20.191  37.006  10.686
20140W        W91866  18.700  41.797  11.461
20141W        W91867  30.912  30.886   4.139
20142W        W91868  10.776  32.173  14.885
20143W        W91869  20.543   0.903  14.602
20144W        W91870  29.674  44.748  10.913
20145W        W91871  36.412  43.166  11.686
20146W        W91872  21.411  28.114   0.792
20147W        W91873  41.169  10.356   1.817
20148W        W91874  21.119  12.251  11.890
20149W        W91875  33.746  15.124   3.616
20150W        W91876  24.666  23.768   0.698
20151W        W91877  15.057   9.313  10.714
20152W        W91878  11.148  19.665  12.836
20153W        W91879  33.361  13.715   1.244
20154W        W91880  26.541  42.835   0.300
20155W        W91881  26.741  10.145  13.532
20156W        W91882  35.558  29.025   4.700
20157W        W91883  10.606  21.037  13.521
20158W        W91884  37.517   5.071  10.358
20159W        W91885  38.699  33.032  14.472
20160W        W91886  18.577  33.417  11.172
20161W        W91887  39.808  21.781  14.026
20162W        W91888  27.086  34.830  11.064
20163W        W91889  36.011   1.930   1.019
20164W        W91890  32.936  30.927   0.821
20165W        W91891  23.739  19.330   1.884
20166W        W91892  41.478  23.205  10.888
20167W        W91893  11.509   6.910  13.856
20168W        W91894  22.078  21.767  11.632
20169W        W91895  32.917  18.520  14.066
20170W        W91896  12.961  31.505  12.029
20171W        W91897  11.843  35.544  11.489
20172W        W91898  15.383  24.089  12.212
20173W        W91899  24.668  14.044  12.450
20174W        W91900   9.799   6.986   3.734
20175W        W91901  20.028   5.513   0.708
20176W        W91902  19.993  14.724   1.681
20177W        W91903  18.386  35.142   0.902
20178W        W91904  21.130  27.057  10.130
20179W        W91905  34.248   9.751   0.287
20180W        W91906   8.976  31.380  11.142
20181W        W91907  20.145  27.149   2.476
20182W        W91908  32.578  17.893  14.387
20183W        W91909  34.465  29.529   1.901
20184W        W91910  15.612   1.757  13.978
20185W        W91911  28.960  32.462   3.242
20186W        W91912   5.261  38.729   2.115
20187W        W91913   5.233  37.574  10.733
20188W        W91914  14.309  35.402  11.544
20189W        W91915   9.084  16.298   4.236
20190W        W91916  33.010  39.423   2.632
20191W        W91917   7.863  36.962   0.856
20192W        W91918  24.665  15.575   4.895
20193W        W91919  26.183  11.874  12.847
20194W        W91920  14.280   4.843  10.444
20195W        W91921   1.281  40.902   3.708
20196W        W91922   4.208  23.201   3.649
20197W        W91923   3.468  24.086  13.506
20198W        W91924  18.220  19.362  14.781
20199W        W91925  11.050  14.568  14.842
20200W        W91926   6.707  10.644   0.722
20201W        W91927   2.782  10.698   1.938
20202W        W91928   8.188  21.818  11.958
20203W        W91929   9.977  11.321  12.429
20204W        W91930  31.529  37.361  13.565
20205W        W91931  34.288  31.881  13.780
20206W        W91932   0.015  13.573   3.642
20207W        W91933  40.606  26.075   0.291
20208W        W91934  19.221  15.173   4.818
20209W        W91935   5.023  35.932  14.570
20210W        W91936   2.993  32.277   5.206
20211W        W91937  20.159  12.537  14.277
20212W        W91938   7.166   8.505   3.170
20213W        W91939  18.991   6.423   1.374
20214W        W91940  20.028  36.071  12.994
20215W        W91941  43.293  23.999   3.345
20216W        W91942  10.639  39.985   0.922
20217W        W91943  27.116  38.011   0.790
20218W        W91944   3.516  35.255   4.127
20219W        W91945  31.936   7.439  11.310
20220W        W91946  13.110  39.077   3.652
20221W        W91947   1.524  34.339  11.550
20222W        W91948   0.482  31.819  13.218
20223W        W91949  22.772   0.745  13.310
20224W        W91950   0.612   6.363   5.103
20225W        W91951  34.414  21.064  10.580
20226W        W91952  37.264  28.353   1.622
20227W        W91953  35.793  14.032   3.119
20228W        W91954  33.087   2.153  12.062
20229W        W91955   2.420  29.480   3.135
20230W        W91956  13.126  42.569   4.052
20231W        W91957  37.918  13.721   1.147
20232W        W91958   7.252  19.348  13.055
20233W        W91959  12.110  32.563   4.796
20234W        W91960  25.971  31.382   2.201
20235W        W91961  41.855  39.236  14.308
20236W        W91962   0.490   7.269   4.441
20237W        W91963   3.410   0.242  12.829
20238W        W91964  22.169  42.327   2.387
20239W        W91965  29.122  29.259  11.186
20240W        W91966  19.140  26.569  10.396
20241W        W91967  42.655  13.860  10.737
20242W        W91968  22.653  40.488   1.157
20243W        W91969  34.547  27.568   1.012
20244W        W91970  11.843   3.018   4.987
20245W        W91971   8.073   6.738   3.133
20246W        W91972  43.465  22.437   3.414
20247W        W91973  12.183   2.388  13.093
20248W        W91974   9.103   0.303  13.433
20249W        W91975  33.927  27.496   4.556
20250W        W91976  33.866   7.823   4.228
20251W        W91977  22.448   2.163   1.252
20252W        W91978  25.097  21.246  14.879
20253W        W91979  38.330  22.578   2.318
20254W        W91980  34.472  25.267   1.539
20255W        W91981   7.429  28.799  13.037
20256W        W91982  17.024  31.523  13.882
20257W        W91983  27.975  16.195   0.838
20258W        W91984  39.849   0.532   2.679
20259W        W91985  12.306  18.879   3.686
20260W        W91986  17.124  11.960  10.553
20261W        W91987  19.650   8.873  12.707
20262W        W91988   7.143  26.677  13.981
20263W        W91989  36.905  20.361   0.811
20264W        W91990  16.660  44.269   2.217
20265W        W91991  33.636  21.995  12.911
20266W        W91992   2.086   9.901   1.099
20267W        W91993  10.249   3.158   3.328
20268W        W91994  17.311  33.661  11.478
20269W        W91995  14.850  31.074  12.684
20270W        W91996  18.743   9.650   0.717
20271W        W91997  17.560   0.868  12.623
20272W        W91998   8.040  44.164  11.100
20273W        W91999  36.950  32.247   3.158
20274W        W92000  41.078  23.533  12.448
20275W        W92001  17.711   9.181  10.674
20276W        W92002   6.782  22.958   0.500
20277W        W92003  36.490  16.214  10.951
20278W        W92004  29.661  41.640   0.791
20279W        W92005  26.436  32.481   4.730
20280W        W92006   2.501  41.699   0.690
20281W        W92007  25.914  10.297   0.793
20282W        W92008   2.008  35.589  14.884
20283W        W92009  26.364  17.329  11.445
20284W        W92010  29.473   1.272   1.856
20285W        W92011  39.631  29.687   3.110
20286W        W92012   0.971  23.785  13.217
20287W        W92013   1.017  44.774   4.525
20288W        W92014  15.802  21.696  11.879
20289W        W92015  44.972  42.127  12.030
20290W        W92016   3.197  23.688  13.743
20291W        W92017  22.529  16.329   1.912
20292W        W92018  16.661  30.640  12.985
20293W        W92019  11.822  23.968  12.949
20294W        W92020  24.321  41.873   0.880
20295W        W92021  42.847   0.892   3.424
20296W        W92022  17.013  12.842  14.360
20297W        W92023  20.757  33.893   2.293
20298W        W92024   8.834  10.840  11.682
20299W        W92025   6.903   3.808  10.245
20300W        W92026  30.701  27.594  10.791
20301W        W92027  19.725  13.710   2.234
20302W        W92028  39.042  31.049   2.277
20303W        W92029  17.048  25.670   3.641
20304W        W92030  35.989  24.810   0.521
20305W        W92031  44.922  20.710  12.578
20306W        W92032  22.967  40.423   3.360
20307W        W92033   9.779  11.023   1.958
20308W        W92034  22.047   6.806   3.138
20309W        W92035  18.296  14.869   1.681
20310W        W92036  14.045  15.531  12.325
20311W        W92037  41.394   5.925  13.850
20312W        W92038  43.523  41.855   4.290
20313W        W92039  32.572   2.401   2.267
20314W        W92040  36.948  30.640  11.681
20315W        W92041  12.865  32.439   4.984
20316W        W92042  42.146   6.881  12.029
20317W        W92043  17.265   7.015   1.197
20318W        W92044  34.184  30.373  12.585
20319W        W92045  28.057  17.419   1.265
20320W        W92046  22.620  44.800  14.849
20321W        W92047  30.377   7.641   4.376
20322W        W92048  34.583  21.170   4.453
20323W        W92049  16.861   9.542   4.303
20324W        W92050  37.893  38.582   2.786
20325W        W92051   9.411   0.957  12.005
20326W        W92052  26.153  10.151  12.548
20327W        W92053  35.519  15.188   4.239
20328W        W92054   4.364  38.154   1.380
20329W        W92055  18.197  16.711  14.924
20330W        W92056  27.672   1.279   2.373
20331W        W92057  30.800  14.694   5.013
20332W        W92058  33.667  14.121   1.515
20333W        W92059   5.627   8.733   2.606
20334W        W92060   1.362  29.286  13.069
20335W        W92061  39.936  32.780   2.598
20336W        W92062  16.607  35.375  14.009
20337W        W92063   5.891  32.955  14.008
20338W        W92064  22.245   1.960   2.798
20339W        W92065  17.978  31.969   4.485
20340W        W92066  16.707  36.327   3.403
20341W        W92067   2.695   9.669   3.230
20342W        W92068  42.514  43.024  12.917
20343W        W92069  15.671  31.023   0.650
20344W        W92070  11.064  39.825   4.131
20345W        W92071  31.016  27.011   2.205
20346W        W92072  27.710  33.364   4.372
20347W        W92073  32.639  11.766  13.938
20348W        W92074  37.270  26.536   4.300
20349W        W92075   1.297  44.764  12.092
20350W        W92076  22.157   4.270  11.658
20351W        W92077   5.355  36.961   0.960
20352W        W92078   7.479  28.674  11.172
20353W        W92079  10.494  29.763  13.983
20354W        W92080  22.460   7.827  10.585
20355W        W92081  17.553  18.870   0.305
20356W        W92082   2.264  10.087   3.632
20357W        W92083  44.942   5.033  13.017
20358W        W92084  21.082  43.497   1.267
20359W        W92085   0.595  22.808   3.713
20360W        W92086  22.691  12.795  11.564
20361W        W92087  33.855  16.273  14.307
20362W        W92088  29.012  40.242  11.803
20363W        W92089  26.196  20.076  14.922
20364W        W92090   0.793  22.485  10.760
20365W        W92091  22.071  17.656   3.138
20366W        W92092  37.135   5.789  12.505
20367W        W92093  41.842  38.575   2.773
20368W        W92094   4.893   8.106   0.416
20369W        W92095  20.599  42.082   0.217
20370W        W92096  38.013  13.631  11.625
20371W        W92097  10.701  10.060   4.405
20372W        W92098  31.343  10.149   9.809
20373W        W92099   4.748  42.331   1.414
20374W        W92100  36.495   4.294  10.655
20375W        W92101   1.295  21.014  11.334
20376W        W92102   3.370  28.557  14.802
20377W        W92103  21.558  41.420  14.810
20378W        W92104  35.063   2.251   1.914
20379W        W92105  19.196  34.413   4.856
20380W        W92106  24.099  33.503   4.971
20381W        W92107  26.587  31.280  14.409
20382W        W92108   4.154  38.645   1.382
20383W        W92109  16.320  36.656  13.818
20384W        W92110  17.995  34.936  10.788
20385W        W92111  43.053  36.908   3.248
20386W        W92112  30.390   2.338   2.202
20387W        W92113  34.468  10.070   4.176
20388W        W92114   3.763  32.857   4.373
20389W        W92115   5.493  39.881   5.129
20390W        W92116  24.642  31.897   2.000
20391W        W92117  11.546  23.666  10.594
20392W        W92118  12.592   9.942   0.102
20393W        W92119   3.650  43.105  14.312
20394W        W92120  13.320  37.690  14.448
20395W        W92121  33.600  27.662  14.982
20396W        W92122   8.586  35.856   3.275
20397W        W92123  13.618   3.734   3.803
20398W        W92124  27.028  33.911   4.062
20399W        W92125  25.489  36.384   4.880
20400W        W92126  15.321  40.976   3.719
20401W        W92127  44.497  20.169   0.875
20402W        W92128  43.511  10.262  11.239
20403W        W92129  23.973  37.162   3.246
20404W        W92130  33.371   7.297   1.120
20405W        W92131  39.297   3.196  10.663
20406W        W92132  37.249  24.594  14.172
20407W        W92133  12.434  18.757  11.094
20408W        W92134   6.671  26.445   1.841
20409W        W92135  28.146  35.045  12.838
20410W        W92136   6.875  36.348   1.793
20411W        W92137  31.941   1.585   2.157
20412W        W92138  34.268  32.869   1.869
20413W        W92139  31.992   7.319   1.314
20414W        W92140  40.268  42.918  14.917
20415W        W92141  28.291  25.478  14.522
20416W        W92142  42.324  36.624  12.939
20417W        W92143  21.598  42.598   4.222
20418W        W92144  22.656   1.298   3.588
20419W        W92145  16.119  32.685   2.824
20420W        W92146  19.185   2.854  12.043
20421W        W92147  36.565  32.603   0.262
20422W        W92148  42.096  44.119   4.590
20423W        W92149  23.250  33.162   3.818
20424W        W92150   1.678  16.072   0.237
20425W        W92151  21.576  18.761   2.831
20426W        W92152  22.399  30.181   4.248
20427W        W92153  31.867   5.462  13.834
20428W        W92154  28.980  29.697  11.570
20429W        W92155   7.831  37.580   0.411
20430W        W92156   7.167   4.832  14.418
20431W        W92157  20.618  24.713   0.700
20432W        W92158   4.851  21.104   0.925
20433W        W92159   5.891   6.719  14.378
20434W        W92160  16.155  26.684  12.411
20435W        W92161  17.769   2.808   3.339
20436W        W92162   4.579   1.302   0.910
20437W        W92163  11.526  38.979  11.257
20438W        W92164  42.160  29.605   1.983
20439W        W92165  29.526   5.645  13.082
20440W        W92166   6.870   1.895  12.704
20441W        W92167   2.331  12.236   4.080
20442W        W92168  16.030   2.916  12.947
20443W        W92169   3.815  20.544  11.165
20444W        W92170  17.278  25.188   1.345
20445W        W92171  10.575  37.572  11.672
20446W        W92172  11.690   8.977   0.279
20447W        W92173  11.039  39.475   0.252
20448W        W92174  31.423  34.036  14.021
20449W        W92175  34.402  32.464   2.841
20450W        W92176  39.098  24.697   4.237
20451W        W92177  35.013  25.400   2.198
20452W        W92178   3.057  41.812   1.287
20453W        W92179  10.191  33.066   1.219
20454W        W92180  30.122  29.934  12.954
20455W        W92181  22.041  35.440  11.609
20456W        W92182  38.056  24.968  14.259
20457W        W92183  13.314  21.419  14.109
20458W        W92184  10.192  19.629   9.930
20459W        W92185  34.094   6.714   3.713
20460W        W92186  26.798   0.885   0.424
20461W        W92187  12.865  32.703   1.931
20462W        W92188   7.365   5.330   3.271
20463W        W92189   1.506  35.548   1.752
20464W        W92190   9.162  21.590  13.520
20465W        W92191  13.483  39.339  13.886
20466W        W92192  22.831  18.242   3.627
20467W        W92193  15.637  19.713  13.542
20468W        W92194  15.346  37.032   5.027
20469W        W92195  14.276  37.648   0.835
20470W        W92196   7.977  25.458   0.486
20471W        W92197  26.657  19.995   2.704
20472W        W92198  12.203  20.789   2.698
20473W        W92199   2.769  24.084  13.912
20474W        W92200  23.470  15.848  14.279
20475W        W92201  27.962  38.133   1.660
20476W        W92202  11.605   7.790   1.320
20477W        W92203  23.558  40.070   0.773
20478W        W92204   5.179  15.325  10.638
20479W        W92205  43.542  37.417  14.172
20480W        W92206   3.670  30.965  11.574
20481W        W92207   3.489   1.450  11.554
20482W        W92208  34.524  21.177  11.571
20483W        W92209  31.855  27.067  14.913
20484W        W92210   9.748  12.125  13.040
20485W        W92211  30.550  32.194  14.365
20486W        W92212  14.780  13.411   1.876
20487W        W92213   6.576   3.568   2.718
20488W        W92214  30.124  44.759  12.805
20489W        W92215   6.710  40.820  12.764
20490W        W92216  10.055   1.911  11.033
20491W        W92217  42.470  16.270   2.512
20492W        W92218   3.586  23.179  13.092
20493W        W92219  29.479  38.540  12.071
20494W        W92220  29.117  27.384  11.138
20495W        W92221  26.169   1.274   1.657
20496W        W92222  37.950  26.739   3.841
20497W        W92223   7.667  37.078  11.942
20498W        W92224  29.040  10.838  14.413
20499W        W92225  26.026   0.970   9.798
20500W        W92226  29.597  28.493  11.596
20501W        W92227   4.921  39.784   1.450
20502W        W92228  17.751  11.628  11.695
20503W        W92229  24.704  11.420  11.588
20504W        W92230   2.170   1.359   4.533
20505W        W92231  27.636   0.528   0.368
20506W        W92232  36.833  23.543   4.589
20507W        W92233  28.051  30.012  14.467
20508W        W92234   2.309  14.389  14.902
20509W        W92235   9.728  43.868   2.499
20510W        W92236  31.211  31.042   4.572
20511W        W92237  15.312   7.349  13.418
20512W        W92238  31.670  41.975  12.042
20513W        W92239  12.170   1.513  14.764
20514W        W92240  25.584  33.431   3.199
20515W        W92241   8.916  18.059   0.248
20516W        W92242  32.524  25.088  12.101
20517W        W92243  42.452  12.686  10.753
20518W        W92244   0.825  10.106   1.997
20519W        W92245  33.006  38.157  14.026
20520W        W92246  27.708  33.558   3.323
20521W        W92247   9.199   4.006   5.000
20522W        W92248  42.419   1.514   2.913
20523W        W92249  33.621  27.456  10.735
20524W        W92250  32.600  34.657  12.772
20525W        W92251  20.298  31.352  13.877
20526W        W92252  29.683  28.427   4.119
20527W        W92253  25.202  41.577  12.404
20528W        W92254   9.789  22.812   4.163
20529W        W92255  10.788  18.636  11.246
20530W        W92256  17.958   9.054   0.357
20531W        W92257  14.701  42.511  14.424
20532W        W92258  35.459  42.689   2.173
20533W        W92259  42.801  11.273   3.688
20534W        W92260  21.680  38.223   4.108
20535W        W92261  22.099  18.151   1.244
20536W        W92262  39.977   7.726  12.140
20537W        W92263   8.441  40.928  11.979
20538W        W92264  32.143   4.164  13.193
20539W        W92265   5.805   6.115   0.837
20540W        W92266  18.029  16.625  14.094
20541W        W92267  43.060   8.707   4.819
20542W        W92268  44.801  35.257   3.604
20543W        W92269  15.400  32.084   1.354
20544W        W92270  26.662   9.741   0.219
20545W        W92271  17.308  38.362  12.657
20546W        W92272   6.856  20.465  13.566
20547W        W92273  14.896  44.404   0.263
20548W        W92274  24.285  18.030   0.533
20549W        W92275  32.801  21.995   3.840
20550W        W92276  12.324  23.755  14.207
20551W        W92277  36.846  41.379   0.220
20552W        W92278  33.116  13.029  11.557
20553W        W92279  38.289  39.068  13.471
20554W        W92280  41.873  20.748  14.456
20555W        W92281  23.605  43.823  10.629
20556W        W92282  37.012  25.470   5.107
20557W        W92283  22.128  24.564   2.874
20558W        W92284   5.076   8.175  13.558
20559W        W92285  29.697  25.936   9.699
20560W        W92286   0.052  10.087  12.076
20561W        W92287  27.075  10.353  14.321
20562W        W92288   4.730  25.719   4.438
20563W        W92289  36.887  16.075  14.826
20564W        W92290  17.441  43.444   0.320
20565W        W92291  28.539  27.652   3.968
20566W        W92292  14.390  14.315  11.649
20567W        W92293  42.447   5.255  10.466
20568W        W92294   0.211   7.457   0.319
20569W        W92295  41.581  27.657  14.796
20570W        W92296   5.406  18.291  12.570
20571W        W92297  22.617  16.293   0.466
20572W        W92298  23.679  43.289  11.503
20573W        W92299  33.401  15.875   0.854
20574W        W92300  24.985  14.398   4.849
20575W        W92301  17.233  39.445   0.254
20576W        W92302  41.201  23.467   1.026
20577W        W92303  13.926  34.367   4.150
20578W        W92304   9.660  24.997  13.271
20579W        W92305  35.171  11.252  12.097
20580W        W92306  43.004  34.477  11.221
20581W        W92307  25.648   4.732  10.735
20582W        W92308  33.153  42.725   0.886
20583W        W92309  32.194  21.308   1.349
20584W        W92310   8.406  14.556  11.946
20585W        W92311   8.187  10.478   5.167
20586W        W92312  28.112  43.755  11.504
20587W        W92313   9.585  40.975   2.135
20588W        W92314  37.520  24.626   0.453
20589W        W92315  20.969  33.644  13.216
20590W        W92316   2.611  38.495  14.565
20591W        W92317   8.824   6.424   4.371
20592W        W92318  32.701  34.387  14.375
20593W        W92319   9.155   1.577   0.370
20594W        W92320  25.430  37.269   4.570
20595W        W92321  11.860   7.245  11.394
20596W        W92322  31.476  36.955   4.264
20597W        W92323  33.247   3.300   4.811
20598W        W92324   6.167  43.914  13.575
20599W        W92325  41.212  22.733  10.853
20600W        W92326  12.787   1.990   1.350
20601W        W92327  38.790  12.319   3.740
20602W        W92328  18.811  40.823   1.807
20603W        W92329   0.896  27.293   1.251
20604W        W92330  14.138   7.204  13.922
20605W        W92331  33.975  35.001   1.836
20606W        W92332  29.440  19.549  12.431
20607W        W92333  25.742   0.271   0.776
20608W        W92334   5.902  31.485   3.031
20609W        W92335   3.372  27.225   2.769
20610W        W92336   6.930  18.628   3.625
20611W        W92337   5.051  18.132   3.267
20612W        W92338  38.109  32.639   3.138
20613W        W92339   8.928  17.271   3.126
20614W        W92340  28.878  34.295   3.439
20615W        W92341  33.611   8.358  11.617
20616W        W92342  42.258  37.470  14.757
20617W        W92343  28.661  10.647   3.650
20618W        W92344  24.005   5.198   3.826
20619W        W92345   3.682  26.130  11.138
20620W        W92346   2.185  29.035   3.867
20621W        W92347   9.394  42.519  11.619
20622W        W92348  18.968  23.441  13.628
20623W        W92349   8.418   5.729   0.378
20624W        W92350  20.036  18.162  13.053
20625W        W92351   8.208  19.206  12.149
20626W        W92352  37.846   8.924  11.165
20627W        W92353  13.899   0.616  10.809
20628W        W92354   8.823  33.278  10.701
20629W        W92355  39.384  19.826  11.960
20630W        W92356   5.678  44.579  12.321
20631W        W92357  29.646  14.264  10.350
20632W        W92358   1.812  38.979   2.696
20633W        W92359  16.885  39.873  12.311
20634W        W92360  35.346  21.854  13.341
20635W        W92361  28.681  30.734  14.123
20636W        W92362   3.623  13.103   4.128
20637W        W92363  19.815  27.038   1.732
20638W        W92364  32.637  25.465  13.877
20639W        W92365  32.344  41.074  14.518
20640W        W92366  21.256  30.932   2.118
20641W        W92367  37.554   7.192  11.681
20642W        W92368  12.286   2.299  14.519
20643W        W92369  20.622   4.971   1.679
20644W        W92370  31.129  39.993  13.763
20645W        W92371  38.885  43.273   2.331
20646W        W92372   3.497  40.891   1.212
20647W        W92373   0.224  35.823   0.691
20648W        W92374   6.863  28.424   0.389
20649W        W92375  12.722  27.942   1.878
20650W        W92376  29.817  26.376   2.217
20651W        W92377  42.412  28.940   0.379
20652W        W92378  42.816  36.099   1.160
20653W        W92379   5.349   5.849   0.725
20654W        W92380  27.110  21.513  12.545
20655W        W92381  33.365   0.817   4.138
20656W        W92382  12.154  27.450  14.262
20657W        W92383  11.799  37.892   4.455
20658W        W92384  37.490  31.160  14.510
20659W        W92385  26.535  33.010  10.229
20660W        W92386  35.481  15.162  11.715
20661W        W92387  11.714  29.478   0.678
20662W        W92388  40.935  19.787  14.537
20663W        W92389  25.110  25.866  10.609
20664W        W92390  28.430  36.136   4.231
20665W        W92391  32.013  29.548   0.387
20666W        W92392  24.948   4.327  14.226
20667W        W92393  19.195  16.689  12.606
20668W        W92394  25.993  40.586   0.456
20669W        W92395   5.251  27.412   3.120
20670W        W92396  10.859  33.732   4.585
20671W        W92397  16.435  44.732   0.982
20672W        W92398  19.018  19.061  11.523
20673W        W92399  34.540   9.483   2.929
20674W        W92400   0.450   9.267   4.120
20675W        W92401  29.911  12.727  14.341
20676W        W92402  14.814  39.476  10.695
20677W        W92403   8.887   1.609  10.989
20678W        W92404  12.410  31.513  14.408
20679W        W92405   0.304  17.840  11.509
20680W        W92406  21.939  18.486   3.619
20681W        W92407  16.624  41.038   2.575
20682W        W92408  42.862  25.424  13.385
20683W        W92409   3.095  38.450  13.494
20684W        W92410  27.680  39.215  11.411
20685W        W92411  31.023  29.688  14.664
20686W        W92412  27.332  16.838  12.013
20687W        W92413  12.810  19.717  11.067
20688W        W92414  10.819  19.761   4.609
20689W        W92415  30.022  10.741  14.476
20690W        W92416  18.985  21.173  12.550
20691W        W92417  44.587  43.368   1.297
20692W        W92418  40.291  40.735  12.124
20693W        W92419  22.449  41.036   3.324
20694W        W92420   2.238  12.411   4.542
20695W        W92421  11.838   9.702  10.659
20696W        W92422  36.576  22.547   2.735
20697W        W92423  30.951  12.845   1.469
20698W        W92424  17.795  40.520   0.911
20699W        W92425   8.517  21.479   2.018
20700W        W92426  18.156   7.244   4.641
20701W        W92427  32.206  40.902  13.822
20702W        W92428  43.383  38.902  14.087
20703W        W92429   3.311  42.228   1.049
20704W        W92430  22.473   5.486  12.481
20705W        W92431   4.467   8.320  11.481
20706W        W92432  31.534   4.827  13.911
20707W        W92433  12.023   1.758  12.434
20708W        W92434  14.953  11.254  12.523
20709W        W92435  33.459  28.708  13.896
20710W        W92436   9.208   2.598   1.370
20711W        W92437  33.406  22.776   1.682
20712W        W92438  16.889  35.963   0.778
20713W        W92439  14.597   2.894   2.424
20714W        W92440  17.867  35.082  14.386
20715W        W92441   9.664  13.159  13.921
20716W        W92442  16.105  20.832   3.657
20717W        W92443   9.221  37.393   4.098
20718W        W92444  41.966  23.462   2.809
20719W        W92445  29.980  41.811   1.995
20720W        W92446  15.735  18.748   4.522
20721W        W92447   0.299  11.096   1.828
20722W        W92448  10.896  25.563   0.748
20723W        W92449   8.269  43.011   0.308
20724W        W92450  19.907  35.102   3.231
20725W        W92451  15.774   7.412  12.837
20726W        W92452  14.435  26.624   0.927
20727W        W92453  13.873   9.015  13.343
20728W        W92454  14.291  12.466  11.422
20729W        W92455   0.122  35.152   2.495
20730W        W92456  20.216  39.093  10.711
20731W        W92457  34.539  26.410   0.238
20732W        W92458  37.118  38.560   0.510
20733W        W92459  37.974  20.698   4.714
20734W        W92460  16.181  38.582  14.299
20735W        W92461  33.736  41.366   4.152
20736W        W92462  40.812  22.202  14.004
20737W        W92463   8.904  18.185  12.057
20738W        W92464  44.033  23.491   2.731
20739W        W92465  39.482  13.252   3.199
20740W        W92466   7.887  27.974   0.353
20741W        W92467  38.801   8.247   4.841
20742W        W92468   2.355  37.888  13.728
20743W        W92469  22.484  18.738   0.018
20744W        W92470  44.559  23.709   3.818
20745W        W92471   4.120   6.689   4.549
20746W        W92472  26.522  19.235  11.492
20747W        W92473  32.320   8.885  12.006
20748W        W92474  35.977  16.550   2.807
20749W        W92475  19.610  12.652  14.983
20750W        W92476   4.798  14.991  13.718
20751W        W92477  34.652   0.526  11.649
20752W        W92478  24.454  25.448  14.829
20753W        W92479   9.903  18.724  14.364
20754W        W92480  24.749   9.922   1.708
20755W        W92481   9.888  24.739  11.952
20756W        W92482   9.621  10.651  10.684
20757W        W92483   9.079  31.633   1.407
20758W        W92484  38.104  13.124  11.486
20759W        W92485  30.492  16.229  13.616
20760W        W92486  28.103  11.228  12.521
20761W        W92487   7.721  42.833  14.530
20762W        W92488  30.018  34.299  14.388
20763W        W92489  39.335   7.843   0.495
20764W        W92490   1.817  14.252   1.954
20765W        W92491  43.695  35.925  14.936
20766W        W92492  14.642  33.640   2.707
20767W        W92493  24.990   8.927   4.137
20768W        W92494  28.877  24.762  11.711
20769W        W92495  32.868  11.698   4.312
20770W        W92496   1.258  35.938  11.173
20771W        W92497   4.458  15.748  10.560
20772W        W92498   2.169   8.254   0.382
20773W        W92499  31.397   9.041   2.865
20774W        W92500  43.055   8.664  10.709
20775W        W92501  16.920  20.844  14.988
20776W        W92502   9.597  23.488   1.267
20777W        W92503  22.108  22.873   0.768
20778W        W92504   3.478   2.916  13.686
20779W        W92505  26.488  17.789  13.867
20780W        W92506  38.373  32.958   4.632
20781W        W92507   8.984  38.488  12.401
20782W        W92508  35.662  41.043  12.442
20783W        W92509   9.664  19.497   4.044
20784W        W92510  12.728  23.404  11.100
20785W        W92511   3.867  24.328  10.889
20786W        W92512  42.418  44.099  11.041
20787W        W92513  20.001  15.394   4.229
20788W        W92514  14.887  43.423  13.044
20789W        W92515  17.184  10.133   0.688
20790W        W92516   1.462  17.786   0.794
20791W        W92517  22.922  27.603   3.144
20792W        W92518   5.975  29.665  13.819
20793W        W92519  24.170  14.705   2.871
20794W        W92520  13.264   2.219  14.558
20795W        W92521  35.510  35.016   4.380
20796W        W92522  16.908  44.549  12.165
20797W        W92523  38.429   7.442  14.190
20798W        W92524  27.463  18.751  12.145
20799W        W92525  34.905  17.662   1.550
20800W        W92526  33.101   7.509   3.678
20801W        W92527  35.960  39.331  12.527
20802W        W92528   8.838  12.840   2.535
20803W        W92529  18.290   7.534   0.187
20804W        W92530  38.603  14.729  14.886
20805W        W92531  42.604  33.586   5.188
20806W        W92532  10.350   2.366  10.927
20807W        W92533  36.809  31.039   4.828
20808W        W92534  34.752   0.020  11.521
20809W        W92535   5.376  15.866   2.771
20810W        W92536  42.537  34.396  12.014
20811W        W92537  32.443   5.237  10.570
20812W        W92538  18.758  19.580   0.202
20813W        W92539   5.866  29.551   3.092
20814W        W92540  39.012  41.865  11.179
20815W        W92541  43.565  10.709   3.587
20816W        W92542  12.235   1.795   3.223
20817W        W92543   1.427  17.551   4.890
20818W        W92544  38.486  20.642   4.554
20819W        W92545   7.793  41.051  14.326
20820W        W92546  40.482  13.779  14.862
20821W        W92547  34.512  22.760   1.836
20822W        W92548   9.032   2.116   3.338
20823W        W92549  19.807  27.868  13.933
20824W        W92550  34.577  25.893  12.519
20825W        W92551  21.026  36.214   3.273
20826W        W92552  11.883  33.323   4.489
20827W        W92553   8.178  39.499  13.794
20828W        W92554  39.552  36.661   1.681
20829W        W92555  24.763  32.900  10.680
20830W        W92556  44.848   9.813  10.779
20831W        W92557   3.121  13.517   3.534
20832W        W92558  31.305  33.305   2.826
20833W        W92559  31.820  42.459   2.991
20834W        W92560  28.149  17.377  11.108
20835W        W92561   6.659  13.588   4.158
20836W        W92562  32.429  12.309  11.417
20837W        W92563  27.255   8.381  11.139
20838W        W92564  34.018  44.148  13.313
20839W        W92565  17.431  26.558  12.506
20840W        W92566   3.709  22.513   3.246
20841W        W92567  42.886  41.343  14.926
20842W        W92568  22.470  17.056  13.625
20843W        W92569  37.278  44.887   2.385
20844W        W92570  12.353  20.567   4.224
20845W        W92571  42.303  12.604  14.389
20846W        W92572  32.074  11.102  14.333
20847W        W92573  44.371  16.086  10.408
20848W        W92574  10.480  24.491   0.488
20849W        W92575  44.116  38.009   3.753
20850W        W92576  10.615  43.522  13.246
20851W        W92577  33.477  42.315   2.185
20852W        W92578  11.305  27.684  11.361
20853W        W92579   8.417  27.700   3.785
20854W        W92580  32.453   8.743   4.842
20855W        W92581  29.341  44.249  14.410
20856W        W92582  12.067  37.400  12.402
20857W        W92583  34.534   3.849  14.828
20858W        W92584  36.607   4.677   0.049
20859W        W92585   3.264  23.988   2.259
20860W        W92586   5.948  20.034   3.799
20861W        W92587  25.483  22.131   1.193
20862W        W92588  44.427  21.380  10.249
20863W        W92589  15.168   6.504   2.305
20864W        W92590  34.091  34.522   0.940
20865W        W92591   7.644  41.811  13.971
20866W        W92592  24.169   8.226  14.570
20867W        W92593  15.755   3.455   1.439
20868W        W92594  11.615  39.965  11.165
20869W        W92595  16.717  15.735  12.400
20870W        W92596   2.496   8.835  12.933
20871W        W92597   7.811  19.077   4.508
20872W        W92598  13.742  12.449  10.671
20873W        W92599   6.139   4.716   1.697
20874W        W92600   2.918  16.972  10.468
20875W        W92601  16.549   6.698   0.922
20876W        W92602  20.528  38.587  11.599
20877W        W92603  15.170  34.421   4.334
20878W        W92604  35.384   0.301   2.272
20879W        W92605  19.127   5.531  12.895
20880W        W92606  29.396  34.634  10.719
20881W        W92607   4.180  20.591   3.617
20882W        W92608   0.919  39.870  12.461
20883W        W92609  13.619  40.518   1.980
20884W        W92610  31.006   6.436  14.435
20885W        W92611  31.477  23.582  13.145
20886W        W92612   3.731  41.708  14.834
20887W        W92613  12.564  22.197  11.104
20888W        W92614   7.466  26.701   0.278
20889W        W92615   9.050  17.308  10.075
20890W        W92616  24.186  13.057  11.107
20891W        W92617  40.919  37.489  13.146
20892W        W92618   3.522  16.136  13.176
20893W        W92619  25.567  29.572   0.148
20894W        W92620  22.632  15.106  13.438
20895W        W92621   2.297  20.331  12.554
20896W        W92622  29.879  15.678  13.929
20897W        W92623  20.725   1.967   1.942
20898W        W92624  28.033  42.306  11.610
20899W        W92625   8.196  14.804   2.712
20900W        W92626   8.177  38.845   4.557
20901W        W92627  18.719  12.854   1.332
20902W        W92628  10.186  23.199  10.637
20903W        W92629  15.135  26.653   4.189
20904W        W92630  38.025  24.191  12.715
20905W        W92631  16.538  26.571   1.451
20906W        W92632  28.902  32.560  14.782
20907W        W92633  39.948  11.388   0.349
20908W        W92634  17.972  39.125  10.141
20909W        W92635  19.683  39.368  13.386
20910W        W92636   0.909  20.663   4.661
20911W        W92637  24.049  11.836  13.637
20912W        W92638   0.199  29.399   0.930
20913W        W92639  29.119  41.823   2.932
20914W        W92640  22.295  12.700  10.340
20915W        W92641  27.541   1.570  12.419
20916W        W92642  33.839  39.482   3.156
20917W        W92643  24.041  36.830   1.099
20918W        W92644   8.163  13.344  11.559
20919W        W92645  43.060  15.276  11.647
20920W        W92646  26.565  13.645   0.277
20921W        W92647  44.388  31.696   0.354
20922W        W92648  41.329   7.819  10.598
20923W        W92649  31.734  44.361   1.798
20924W        W92650  25.719  19.436  11.120
20925W        W92651  41.827  23.150   1.147
20926W        W92652  11.595  13.697   0.256
20927W        W92653   7.697  15.492  10.349
20928W        W92654  14.619   7.854   4.083
20929W        W92655  28.482  32.897   2.182
20930W        W92656  22.177  22.603  14.881
20931W        W92657  27.498  33.719   0.059
20932W        W92658  29.542  15.243   0.827
20933W        W92659   8.591  21.691  11.044
20934W        W92660  31.834  34.304  10.269
20935W        W92661  28.722  22.015   0.785
20936W        W92662  42.456   6.730   0.193
20937W        W92663   0.464  10.595   4.521
20938W        W92664  41.750  21.904  10.595
20939W        W92665  43.284  23.594  12.509
20940W        W92666  18.732  23.000   3.361
20941W        W92667   7.849  36.157   5.056
20942W        W92668   0.676  20.068  14.831
20943W        W92669  30.501  26.829   1.776
20944W        W92670   2.218  13.911   1.125
20945W        W92671   2.644  18.547  11.970
20946W        W92672   7.155  35.729   9.512
20947W        W92673  29.050  11.267  10.762
20948W        W92674   7.906  34.724   9.728
20949W        W92675  27.784  38.781  11.692
20950W        W92676  28.516  31.239  12.120
20951W        W92677  14.921  39.898   3.208
20952W        W92678  32.909  12.233  13.863
20953W        W92679  31.558  43.605  14.476
20954W        W92680  44.297  37.741   3.132
20955W        W92681  20.632  11.606   0.770
20956W        W92682  38.251  28.630   2.880
20957W        W92683  23.509  18.819   1.031
20958W        W92684  28.667  42.983  11.453
20959W        W92685   8.520  32.720   1.743
20960W        W92686  25.626   7.295   1.922
20961W        W92687   5.386  22.736   2.840
20962W        W92688  18.288  13.158   0.811
20963W        W92689  43.058  34.022   4.245
20964W        W92690  44.321  23.992  12.618
20965W        W92691  13.392  17.696   0.782
20966W        W92692  10.747   4.430  13.433
20967W        W92693  26.457  13.216  12.443
20968W        W92694  24.532   8.496   3.299
20969W        W92695   8.019  19.298   0.377
20970W        W92696  19.286  29.629   4.185
20971W        W92697  28.990   6.380   2.277
20972W        W92698  34.081  43.918   4.177
20973W        W92699   8.925   6.668   3.797
20974W        W92700  19.473  33.056   1.503
20975W        W92701  39.296   5.784  13.466
20976W        W92702   3.781  31.051  14.202
20977W        W92703  15.319   3.867   3.056
20978W        W92704   4.406   7.375   3.751
20979W        W92705  18.303  40.321   1.474
20980W        W92706  13.264  38.568  13.448
20981W        W92707  21.256   8.644   5.036
20982W        W92708   6.255  36.816  14.366
20983W        W92709  26.024  23.529   0.828
20984W        W92710  19.317   0.377  10.725
20985W        W92711  17.824  20.656   3.260
20986W        W92712   4.750  40.616  13.514
20987W        W92713  27.939  14.049  10.979
20988W        W92714  10.906   3.677  11.619
20989W        W92715  23.707  25.492   1.511
20990W        W92716  21.691  35.923  14.862
20991W        W92717  35.392  40.908   4.483
20992W        W92718  39.202  36.861  10.627
20993W        W92719  35.280  33.445  12.493
20994W        W92720  35.621  26.171  10.748
20995W        W92721  38.076  18.039   4.289
20996W        W92722  30.780  29.155  13.790
20997W        W92723   2.516  36.136   1.502
20998W        W92724  35.868  26.616  10.656
20999W        W92725   9.338  11.900   1.657
21000W        W92726  31.209  12.536  14.948
21001W        W92727  33.441  42.829  12.910
21002W        W92728  17.066  19.576   1.323
21003W        W92729  26.662  10.333   2.368
21004W        W92730  14.036  32.388  13.609
21005W        W92731   3.746  40.420  10.839
21006W        W92732  29.125  28.671   3.731
21007W        W92733  18.811  43.807   1.231
21008W        W92734  41.539  44.250   0.780
21009W        W92735   3.692  35.740   4.139
21010W        W92736  14.391  16.560  11.657
21011W        W92737  27.594  14.071   4.477
21012W        W92738  28.874   8.771  11.561
21013W        W92739  20.230  30.185   3.094
21014W        W92740  29.835  39.278  12.190
21015W        W92741  15.175  10.875   2.321
21016W        W92742  35.131  42.789   1.779
21017W        W92743  34.324  42.841  13.218
21018W        W92744  44.373  21.843  14.365
21019W        W92745   2.024  27.473  11.519
21020W        W92746  32.660  21.278   3.127
21021W        W92747  16.307  35.217   2.790
21022W        W92748  26.666  12.592  11.297
21023W        W92749  11.458  38.549  13.357
21024W        W92750  33.532   3.463   3.297
21025W        W92751   2.322  25.234  10.745
21026W        W92752  37.348  43.779  14.012
21027W        W92753  18.223  32.693   4.065
21028W        W92754  39.487  23.161  13.998
21029W        W92755  10.418  17.189  13.396
21030W        W92756   5.468   6.646  10.044
21031W        W92757   9.256  12.628  11.482
21032W        W92758  24.275  41.027  13.515
21033W        W92759  21.559  10.138  12.448
21034W        W92760  30.174  39.397  10.786
21035W        W92761   2.305  12.215  11.380
21036W        W92762  21.714  19.650  11.965
21037W        W92763  20.710  11.078   3.616
21038W        W92764   6.158  26.525  13.062
21039W        W92765  38.585  21.681  12.054
21040W        W92766  33.424  38.559  11.557
21041W        W92767   4.745  35.485  14.443
21042W        W92768  36.985  43.238   4.899
21043W        W92769  43.588  34.674   3.312
21044W        W92770  39.339  24.719  14.775
21045W        W92771  12.531  12.385   2.417
21046W        W92772   0.364  27.289  12.510
21047W        W92773  37.807  38.942  14.540
21048W        W92774  34.607  44.400  13.973
21049W        W92775  21.720  10.298  10.478
21050W        W92776  31.602  27.161   4.550
21051W        W92777  28.913  38.443   2.739
21052W        W92778  26.388  26.720  12.149
21053W        W92779  13.828   5.737   4.148
21054W        W92780   0.375  24.040   4.122
21055W        W92781   9.845  27.535  11.590
21056W        W92782   2.994  40.316  14.521
21057W        W92783  37.968  20.763  14.146
21058W        W92784  31.763  13.378   2.369
21059W        W92785  11.284  38.494  11.969
21060W        W92786  30.695   6.797  12.196
21061W        W92787  16.720  27.379   1.885
21062W        W92788  28.208  24.918   3.178
21063W        W92789  41.889  17.986   1.229
21064W        W92790   6.210  37.785   0.379
21065W        W92791  41.538  42.028  11.927
21066W        W92792  13.294  11.514  12.374
21067W        W92793  10.781   6.613  12.556
21068W        W92794  42.086  21.565  14.921
21069W        W92795  12.586  40.791   4.680
21070W        W92796  19.178  18.218   4.586
21071W        W92797  30.513  10.138  12.991
21072W        W92798  15.269  18.725   4.771
21073W        W92799   9.898  12.653  12.107
21074W        W92800   0.775  30.968  11.607
21075W        W92801  33.002  43.974   3.093
21076W        W92802  30.154   3.216   0.354
21077W        W92803  41.785  19.102   1.808
21078W        W92804  31.575  33.611   4.207
21079W        W92805  13.127   8.631   1.948
21080W        W92806  21.855  22.038  13.980
21081W        W92807  38.932  27.283  14.457
21082W        W92808  42.525  38.572  14.319
21083W        W92809   4.057   7.167   1.966
21084W        W92810   4.258  19.839   0.004
21085W        W92811  43.084  33.450  13.897
21086W        W92812   6.914  26.675  12.550
21087W        W92813  24.662  22.868   0.482
21088W        W92814  24.230  14.205  12.141
21089W        W92815  13.830   8.406   3.226
21090W        W92816  44.195  12.667   4.692
21091W        W92817  42.508  42.779   0.956
21092W        W92818  17.072  22.142  10.608
21093W        W92819   8.405   7.336   1.671
21094W        W92820   1.494  41.080   3.172
21095W        W92821   8.355  23.974   4.190
21096W        W92822   0.533  10.235  12.043
21097W        W92823  30.103  26.473  10.949
21098W        W92824  11.880  25.069  13.824
21099W        W92825  19.848  23.196   0.466
21100W        W92826  36.552  18.147  12.463
21101W        W92827  25.699  31.753   1.782
21102W        W92828  30.515   1.819   2.368
21103W        W92829   1.393  21.555   2.740
21104W        W92830  27.457   6.472   3.241
21105W        W92831   7.916  27.412  14.477
21106W        W92832  19.126  44.081  14.466
21107W        W92833  16.629  14.901   1.332
21108W        W92834  14.163   5.678  13.912
21109W        W92835   6.511   5.386   0.525
21110W        W92836   1.505  10.466  12.124
21111W        W92837  18.557   6.209   4.164
21112W        W92838   0.538  17.606   0.868
21113W        W92839  25.261  40.526  11.189
21114W        W92840  39.048  10.867  14.793
21115W        W92841  36.510  34.318  12.173
21116W        W92842  10.938  29.045  11.508
21117W        W92843  18.363  35.020   3.300
21118W        W92844  40.784   6.880  14.978
21119W        W92845  14.226  33.988   1.884
21120W        W92846  14.823  25.938  14.961
21121W        W92847  32.398  37.490   2.420
21122W        W92848  12.710  38.954  14.831
21123W        W92849  39.452  38.084   0.197
21124W        W92850   8.772  25.126  12.447
21125W        W92851  26.454  22.038  11.193
21126W        W92852  25.266  27.067  14.633
21127W        W92853  31.296   1.871   3.255
21128W        W92854  19.400   3.059   3.754
21129W        W92855   1.248  34.752  11.719
21130W        W92856  18.808   8.386   3.693
21131W        W92857  15.096  41.739   0.456
21132W        W92858  12.423  11.049   1.287
21133W        W92859   2.462   5.253   4.097
21134W        W92860  25.070  21.117  10.910
21135W        W92861   4.777  31.980   3.232
21136W        W92862  36.042  38.444  12.036
21137W        W92863   4.405  31.001  13.009
21138W        W92864  10.840  39.452   2.178
21139W        W92865  24.957  41.544   2.442
21140W        W92866   8.180  24.718   2.481
21141W        W92867  18.647  29.852  12.353
21142W        W92868  44.989   3.258   0.701
21143W        W92869  22.948  31.676   2.142
21144W        W92870  20.692  12.679   2.305
21145W        W92871  22.033  33.184   1.812
21146W        W92872  36.430  39.929  13.102
21147W        W92873  44.065  43.432   1.370
21148W        W92874  44.314   6.700  12.109
21149W        W92875  10.578  40.870   4.631
21150W        W92876  21.070  32.572  11.827
21151W        W92877  31.327  34.926   4.161
21152W        W92878   2.110  23.546   2.824
21153W        W92879  16.264  10.884   1.534
21154W        W92880  41.304   8.650  13.861
21155W        W92881  22.029  18.480  14.909
21156W        W92882  13.681  19.262   3.196
21157W        W92883  13.763  17.716  13.003
21158W        W92884  18.785  25.449   4.646
21159W        W92885   8.237  38.023  14.955
21160W        W92886  23.704  44.815  14.308
21161W        W92887  28.153   5.614  14.775
21162W        W92888   2.513  28.084   4.158
21163W        W92889  35.457  44.286   4.868
21164W        W92890   6.746  37.570   3.207
21165W        W92891  31.276  40.747   3.984
21166W        W92892  44.917   6.215  12.475
21167W        W92893  17.680  17.484   2.855
21168W        W92894  40.094  17.105  14.456
21169W        W92895  39.334   8.204   1.316
21170W        W92896  22.953  18.888  14.825
21171W        W92897  25.932  32.032  12.549
21172W        W92898  20.295  40.408   4.600
21173W        W92899  23.656  11.206   2.728
21174W        W92900  39.396  40.753  12.075
21175W        W92901  32.493  32.081   1.694
21176W        W92902  23.794   1.931   1.020
21177W        W92903   2.548  20.663  10.784
21178W        W92904   3.770  14.295  10.229
21179W        W92905  39.966  13.667  14.586
21180W        W92906  22.166  18.603  10.736
21181W        W92907  40.089  42.566   4.129
21182W        W92908  19.470   9.198   4.577
21183W        W92909   6.348   9.652  12.921
21184W        W92910   0.060  36.026   3.197
21185W        W92911  25.929  39.311  11.124
21186W        W92912  44.016  28.384  14.332
21187W        W92913  35.029  24.200  10.657
21188W        W92914  38.940  20.696   3.298
21189W        W92915  18.213  10.818  11.649
21190W        W92916   1.949   2.371  11.107
21191W        W92917  21.089  30.387  12.155
21192W        W92918   3.715  18.170   4.968
21193W        W92919  32.987   4.183   2.200
21194W        W92920  34.466  11.593  13.889
21195W        W92921  14.912   7.714  14.315
21196W        W92922  25.475  44.537   0.942
21197W        W92923  44.331  39.392   4.287
21198W        W92924   5.297  28.669  12.157
21199W        W92925  31.304   5.931  13.296
21200W        W92926  28.058  16.504  12.601
21201W        W92927  41.735   0.500   1.212
21202W        W92928  41.262  20.719   3.124
21203W        W92929  34.711  35.247   0.925
21204W        W92930  41.317  41.268  13.913
21205W        W92931  29.498  17.100  12.279
21206W        W92932  30.388  35.619   0.467
21207W        W92933  14.684  13.767  13.334
21208W        W92934   7.836  38.409  14.403
21209W        W92935   3.859  33.800   1.702
21210W        W92936  15.879   3.077   1.746
21211W        W92937  27.281  17.646   1.789
21212W        W92938   0.852   7.408  12.927
21213W        W92939  19.495  30.477   3.396
21214W        W92940  17.552  25.543  14.536
21215W        W92941  41.361  18.620   3.134
21216W        W92942   7.620  42.017  14.746
21217W        W92943  10.565  42.760   1.708
21218W        W92944   9.777  18.219  11.078
21219W        W92945  38.124   1.338   1.948
21220W        W92946  14.626   5.854   3.744
21221W        W92947  21.174  26.680   1.210
21222W        W92948   6.242  24.275  13.430
21223W        W92949  28.501  33.903   4.841
21224W        W92950  13.766  36.368  11.599
21225W        W92951  18.150  31.000   2.171
21226W        W92952  15.850  28.703   1.854
21227W        W92953  16.420   9.588   0.998
21228W        W92954  13.825  16.353   2.039
21229W        W92955  22.909  43.595  11.006
21230W        W92956  39.604   5.734   4.531
21231W        W92957  35.585  35.879   0.064
21232W        W92958  27.671  33.023   1.130
21233W        W92959  28.164  28.931  11.515
21234W        W92960   2.430  26.250   0.747
21235W        W92961  20.204  27.393  12.159
21236W        W92962  41.977   4.452  11.246
21237W        W92963  33.601  26.947  11.585
21238W        W92964  29.850  40.524  13.945
21239W        W92965  39.432  24.518   3.436
21240W        W92966  15.714  36.839   3.529
21241W        W92967  28.761   1.692  11.095
21242W        W92968  13.180  16.017   1.445
21243W        W92969  29.671  10.582   2.261
21244W        W92970   0.959   3.765  14.812
21245W        W92971  30.106  22.878  14.807
21246W        W92972  17.624  24.521  10.683
21247W        W92973  34.588  34.563  12.017
21248W        W92974  16.751  26.075   3.758
21249W        W92975  13.376  44.413   1.865
21250W        W92976  44.242  29.394  11.673
21251W        W92977   6.306  17.856   0.739
21252W        W92978  27.936  17.631   3.578
21253W        W92979  42.561   1.041   1.802
21254W        W92980  20.994  36.501   4.267
21255W        W92981  17.705   2.018   1.688
21256W        W92982  24.210   0.733   2.921
21257W        W92983  44.744  12.203   4.160
21258W        W92984  21.796  38.597  10.172
21259W        W92985   0.307   8.747  13.580
21260W        W92986   7.795  17.836   0.377
21261W        W92987   4.251   1.035  12.619
21262W        W92988  28.621  28.221  14.443
21263W        W92989   8.919  31.938   0.957
21264W        W92990  19.483  31.249   2.794
21265W        W92991  32.078  42.897   2.903
21266W        W92992   3.198  35.939  11.044
21267W        W92993  36.842   5.932  11.612
21268W        W92994  15.682   8.297   1.015
21269W        W92995  14.205   9.707  10.911
21270W        W92996  35.696  12.729  12.015
21271W        W92997  21.551  26.560  10.682
21272W        W92998   7.795  22.313  13.025
21273W        W92999  42.820  16.651   0.086
21274W        W93000   7.701  41.481   1.611
21275W        W93001   5.352   6.625  10.581
21276W        W93002   0.289  26.698   4.548
21277W        W93003   0.976  34.381  14.105
21278W        W93004   2.707   3.604   2.812
21279W        W93005  20.513  28.701   3.296
21280W        W93006  41.025  27.290   3.354
21281W        W93007  24.087  17.465   4.998
21282W        W93008   1.923  14.614  12.358
21283W        W93009   6.232   7.760   1.765
21284W        W93010  34.380  29.832   2.798
21285W        W93011  28.502  14.316  13.909
21286W        W93012  41.624  20.289   3.273
21287W        W93013  23.796  44.848   4.528
21288W        W93014  24.361  26.419   4.488
21289W        W93015   4.010  22.013   4.630
21290W        W93016   1.862  38.974   0.441
21291W        W93017   5.242   6.449  12.069
21292W        W93018  23.708  16.626   0.827
21293W        W93019   9.726  12.326   2.419
21294W        W93020  28.690  25.135   3.113
21295W        W93021  10.219  44.527  13.798
21296W        W93022  32.329  14.805  12.073
21297W        W93023  42.460   7.754   3.183
21298W        W93024   7.419   2.046  14.497
21299W        W93025  27.115  15.711   2.071
21300W        W93026  14.567  25.052   4.561
21301W        W93027  19.062  37.411  13.836
21302W        W93028  34.499  12.230  14.819
21303W        W93029  16.078  21.766   1.880
21304W        W93030  38.470  30.398   0.300
21305W        W93031  10.053  17.965  14.008
21306W        W93032  18.248  19.124   2.867
21307W        W93033  11.677  44.369  11.052
21308W        W93034  33.933   5.794  11.970
21309W        W93035  39.405  20.998  14.578
21310W        W93036   7.296   5.980   4.027
21311W        W93037  32.876  17.415   3.631
21312W        W93038  42.808  10.279  14.113
21313W        W93039  26.093  20.785  11.076
21314W        W93040  28.587  22.006  11.693
21315W        W93041  34.079   0.008  14.885
21316W        W93042  31.638  31.043  11.560
21317W        W93043   9.709  19.828   0.275
21318W        W93044  25.925  14.560   0.820
21319W        W93045   3.884  40.923  14.325
21320W        W93046  23.931  21.085  11.999
21321W        W93047  22.239  35.489   3.683
21322W        W93048   0.333   9.166  11.814
21323W        W93049  37.307  40.540  10.717
21324W        W93050  11.079  21.481   4.169
21325W        W93051  21.509  44.278   0.940
21326W        W93052  23.286  39.705  14.395
21327W        W93053  41.103  22.563   3.671
21328W        W93054   0.767   1.479  13.022
21329W        W93055   5.273  25.240   2.746
21330W        W93056  32.364  11.726  10.253
21331W        W93057  27.922   2.433  11.129
21332W        W93058  32.196  33.114   1.798
21333W        W93059  40.024  34.401  10.961
21334W        W93060  29.109  17.897   0.389
21335W        W93061  41.394  14.707   2.347
21336W        W93062  12.919  17.725  13.837
21337W        W93063   7.844  28.518  11.474
21338W        W93064   1.825  36.059  13.444
21339W        W93065   2.437  19.622   1.870
21340W        W93066  33.363  38.980  14.243
21341W        W93067  32.418  38.815  13.936
21342W        W93068  27.646  32.116   2.905
21343W        W93069  35.789  32.293  12.868
21344W        W93070   2.019  12.279   3.225
21345W        W93071  28.995  22.300   2.090
21346W        W93072  24.484  27.595   4.129
21347W        W93073   3.494  31.127   0.895
21348W        W93074  42.933  36.977   3.802
21349W        W93075  37.494  32.959   1.701
21350W        W93076  34.647  16.577   3.818
21351W        W93077  23.711  20.531   2.244
21352W        W93078  37.428  13.470  14.472
21353W        W93079  27.098  41.009   1.289
21354W        W93080   2.459  18.505  14.545
21355W        W93081  39.837  24.158   4.511
21356W        W93082  42.367   7.663   0.666
21357W        W93083  36.122   1.465   1.246
21358W        W93084  27.183  17.081  11.150
21359W        W93085  44.464   5.830   2.415
21360W        W93086   7.817  30.992   2.443
21361W        W93087   9.162  21.217  10.557
21362W        W93088  16.382  42.805  14.404
21363W        W93089  38.448  13.322   3.770
21364W        W93090  16.252  29.860  13.915
21365W        W93091  43.896  36.883   1.193
21366W        W93092  33.193  44.165  13.892
21367W        W93093  36.564  22.098  13.927
21368W        W93094   7.293  13.832   3.379
21369W        W93095  22.387  25.602   0.977
21370W        W93096   1.798  44.432  11.539
21371W        W93097  42.267  34.073  10.418
21372W        W93098  32.523   3.381  13.513
21373W        W93099  26.982  41.552  13.096
21374W        W93100  36.646  34.617   1.642
21375W        W93101   9.803  33.041   2.336
21376W        W93102  29.050  38.798  11.968
21377W        W93103   2.427  35.856  10.707
21378W        W93104  21.880  18.127   1.720
21379W        W93105  12.202  13.889   1.315
21380W        W93106  43.084  27.342   1.877
21381W        W93107   8.860  40.567   2.927
21382W        W93108  21.199  14.548  12.216
21383W        W93109  15.849  18.201   1.286
21384W        W93110  36.004  35.377   1.835
21385W        W93111  29.169  18.407   0.379
21386W        W93112  22.881  32.408  12.966
21387W        W93113  15.329  35.575  10.771
21388W        W93114   6.842   6.725  14.210
21389W        W93115   1.609  17.594   2.004
21390W        W93116  11.910  43.913   1.441
21391W        W93117  10.793   0.466   4.333
21392W        W93118  25.277  24.035   3.137
21393W        W93119  24.903  15.815  12.112
21394W        W93120  37.563  31.940  14.949
21395W        W93121  15.056  19.296  12.782
21396W        W93122   9.220  44.826  11.015
21397W        W93123  23.973  31.206   2.674
21398W        W93124  33.711  21.933  11.977
21399W        W93125  18.980  18.727   0.210
21400W        W93126  36.464  15.284  13.335
21401W        W93127  28.115   2.994   2.740
21402W        W93128  13.568   9.280  10.476
21403W        W93129  10.709  33.323  12.077
21404W        W93130  30.156  34.917   1.704
21405W        W93131  30.721  25.885   0.360
21406W        W93132  25.065  21.792   2.292
21407W        W93133   8.102   5.537  11.905
21408W        W93134  33.609  11.814  12.603
21409W        W93135  11.163  33.851  12.546
21410W        W93136  33.667   8.305   4.172
21411W        W93137   8.775  30.686   0.496
21412W        W93138  33.736  21.107  13.860
21413W        W93139   3.255  26.067  11.421
21414W        W93140  34.392  35.900   1.457
21415W        W93141   3.660   8.766  14.067
21416W        W93142  15.391  22.273   2.533
21417W        W93143   9.803  16.166   4.257
21418W        W93144  33.664  23.828  10.552
21419W        W93145  37.114  39.535  12.548
21420W        W93146  38.488  15.381  11.636
21421W        W93147  19.171  37.986  11.718
21422W        W93148  11.225  18.351   2.385
21423W        W93149  30.684  27.249  13.094
21424W        W93150  37.382  25.667   4.319
21425W        W93151  31.973  19.198   3.844
21426W        W93152  39.608  37.420   1.979
21427W        W93153  28.016   8.817   1.352
21428W        W93154  42.992  20.523   0.959
21429W        W93155  29.441  20.623   3.604
21430W        W93156  12.851  13.781   2.802
21431W        W93157  19.955  41.952  12.036
21432W        W93158   7.325  40.805   0.450
21433W        W93159  34.471  32.974   4.267
21434W        W93160  33.017   7.826  13.814
21435W        W93161  35.771  28.139   4.672
21436W        W93162   7.110  37.370  13.810
21437W        W93163  28.296   0.178   0.823
21438W        W93164  40.786  17.119   1.247
21439W        W93165  15.016  41.740  12.070
21440W        W93166   3.763  29.214   4.164
21441W        W93167  29.164  44.729  12.512
21442W        W93168  37.171  42.878  11.626
21443W        W93169   1.995   6.359   1.417
21444W        W93170   8.304  36.590   1.746
21445W        W93171  19.717  30.102  12.495
21446W        W93172  23.733  37.100  12.049
21447W        W93173  11.625   9.785   3.699
21448W        W93174   7.415  10.970  13.294
21449W        W93175  15.149  11.385   2.239
21450W        W93176  35.301  27.875  14.856
21451W        W93177  12.308   8.809  13.400
21452W        W93178  31.501  34.095  14.898
21453W        W93179  39.932   8.205  11.895
21454W        W93180  12.630   3.300  11.631
21455W        W93181  36.307  26.522  12.168
21456W        W93182  34.187  31.550   2.338
21457W        W93183  32.628  10.177   4.874
21458W        W93184  22.542  35.051   3.667
21459W        W93185  44.852   2.741  13.970
21460W        W93186  16.221  13.276   2.669
21461W        W93187  23.521  36.026   1.646
21462W        W93188   7.842  35.615  12.084
21463W        W93189  22.605  42.323   1.617
21464W        W93190  13.850  14.708   2.722
21465W        W93191  42.441  16.919   3.154
21466W        W93192  23.137   7.198  10.666
21467W        W93193  14.550  34.633  12.693
21468W        W93194  15.327   1.715   3.203
21469W        W93195  33.421  16.943   0.255
21470W        W93196   3.346  40.910  10.713
21471W        W93197  23.535   8.712   3.270
21472W        W93198  16.960  20.792  11.110
21473W        W93199  15.314  43.354  10.423
21474W        W93200  36.925  27.675   1.495
21475W        W93201  36.974  10.387  11.133
21476W        W93202  13.357  33.869   0.822
21477W        W93203   7.447  19.438  14.628
21478W        W93204  31.138  20.292  10.825
21479W        W93205   4.899  14.124  10.804
21480W        W93206   8.753  12.638  10.230
21481W        W93207  39.927  40.333   2.674
21482W        W93208  20.083  15.000  12.391
21483W        W93209  39.123  18.756   0.322
21484W        W93210  34.595   1.810  14.817
21485W        W93211   2.691  36.695   0.353
21486W        W93212   9.826  12.866   4.640
21487W        W93213   6.456   1.251  12.527
21488W        W93214   5.903  27.100  10.542
21489W        W93215  36.575  17.766  12.055
21490W        W93216   4.413  34.747  14.802
21491W        W93217   3.809   6.710   4.146
21492W        W93218  16.948  10.530   3.515
21493W        W93219   7.933  16.364  14.093
21494W        W93220  41.309  11.637  11.453
21495W        W93221  38.456   2.146  11.235
21496W        W93222  31.139  37.077  14.892
21497W        W93223  13.091  12.745   3.171
21498W        W93224  32.893  13.434  12.465
21499W        W93225  18.213  27.176  14.320
21500W        W93226  28.384   3.790  13.694
21501W        W93227   1.002  36.146   1.264
21502W        W93228  40.061  18.224   3.693
21503W        W93229  20.691   3.395   2.098
21504W        W93230  12.581  38.452  11.588
21505W        W93231  10.309  22.667   2.793
21506W        W93232  44.465   1.894   4.344
21507W        W93233  18.554  41.679  11.955
21508W        W93234  38.531  16.807  10.524
21509W        W93235  15.724  17.292   1.959
21510W        W93236  35.261  25.540   1.652
21511W        W93237  40.485  19.569  10.483
21512W        W93238  26.222  37.967  13.062
21513W        W93239  35.305  20.558   2.319
21514W        W93240   3.000  38.853   2.329
21515W        W93241  26.543  24.409  13.537
21516W        W93242  38.917   7.539  14.353
21517W        W93243   2.680   3.312   4.109
21518W        W93244  13.726   2.925  12.442
21519W        W93245  41.963  10.787  12.266
21520W        W93246  42.880  33.053   2.719
21521W        W93247  40.742   9.399   1.917
21522W        W93248  42.799  32.114   3.124
21523W        W93249  19.065  20.610  14.320
21524W        W93250   8.434   4.526  14.781
21525W        W93251  22.017  33.686  10.362
21526W        W93252  44.925  33.175   1.883
21527W        W93253  33.013   4.523  12.617
21528W        W93254   7.984  38.954  10.290
21529W        W93255  10.799  10.528  13.979
21530W        W93256  25.961  30.632  13.798
21531W        W93257   1.393  21.342   4.157
21532W        W93258  40.595  14.786   2.730
21533W        W93259  23.776  26.222  14.950
21534W        W93260  35.060  10.863  10.445
21535W        W93261  23.412   1.518  10.524
21536W        W93262  10.634  11.746  11.527
21537W        W93263  43.809  12.756   0.896
21538W        W93264  24.175   5.727   2.082
21539W        W93265   0.905  15.291   3.767
21540W        W93266  18.225  36.322   0.215
21541W        W93267  36.903   4.231  14.890
21542W        W93268  35.434  10.366   4.926
21543W        W93269  23.074  39.010   2.647
21544W        W93270   5.898  31.338   3.555
21545W        W93271   2.269   4.770  10.386
21546W        W93272   3.331  41.108  12.401
21547W        W93273  14.834  14.088   3.534
21548W        W93274  18.705  37.340   0.483
21549W        W93275  27.889  30.987   1.305
21550W        W93276  27.073  38.056   2.585
21551W        W93277   4.742  40.762   0.776
21552W        W93278  34.350  42.032   3.056
21553W        W93279  21.213  37.598   1.533
21554W        W93280  13.803  40.338  10.882
21555W        W93281  31.643   3.934   0.712
21556W        W93282  16.841   7.382  12.511
21557W        W93283   9.856   6.308  11.481
21558W        W93284   8.412  17.263   2.261
21559W        W93285   7.408  27.586   2.221
21560W        W93286  28.495   7.380  14.051
21561W        W93287  25.470   5.286  13.291
21562W        W93288  13.227  28.704  11.694
21563W        W93289  14.327  36.802  12.449
21564W        W93290  29.643   6.181  12.041
21565W        W93291  40.604  20.958  12.789
21566W        W93292  30.227  15.846  11.934
21567W        W93293  36.298  15.041  14.161
21568W        W93294  32.493  17.394   2.883
21569W        W93295  37.630  31.334   1.794
21570W        W93296  14.585  16.033  10.829
21571W        W93297  18.247  39.553  11.047
21572W        W93298  39.751  35.032  12.831
21573W        W93299  36.322   4.783  10.691
21574W        W93300   9.879  43.933   3.880
21575W        W93301  40.491  19.572   3.262
21576W        W93302  30.975  34.836  13.439
21577W        W93303  11.244  17.686  13.467
21578W        W93304  24.255  12.865   2.840
21579W        W93305  38.817  35.876   0.341
21580W        W93306  44.787   6.597  10.793
21581W        W93307  10.336  43.908   4.418
21582W        W93308  22.336  43.775   4.642
21583W        W93309  14.889  21.241   3.174
21584W        W93310   6.447  15.793   1.236
21585W        W93311  28.109  28.502  10.576
21586W        W93312   0.562  40.082   3.070
21587W        W93313  17.579  21.803   0.330
21588W        W93314  33.332  35.671   4.529
21589W        W93315  17.766  40.747   2.684
21590W        W93316   3.173  13.196  13.312
21591W        W93317  15.805  28.488   2.347
21592W        W93318   3.804  30.439  13.558
21593W        W93319  37.459  42.827  12.419
21594W        W93320  34.484  20.710   1.847
21595W        W93321  30.923  33.936  10.753
21596W        W93322  32.380  11.949   4.281
21597W        W93323  21.556   5.802   3.058
21598W        W93324  40.336  34.060  14.601
21599W        W93325  27.207  22.225  12.884
21600W        W93326  24.505   5.342  13.933
21601W        W93327  22.228  13.694   4.171
21602W        W93328  36.701  41.880   3.846
21603W        W93329   3.004  22.019  12.070
21604W        W93330   4.716  38.897   3.454
21605W        W93331  17.407   8.688   4.011
21606W        W93332  42.586   9.437   2.394
21607W        W93333  43.371  26.826  12.340
21608W        W93334  25.492  17.057  14.009
21609W        W93335  38.431  31.629  14.031
21610W        W93336  41.774   0.794  10.270
21611W        W93337  20.741  27.019  12.973
21612W        W93338  19.529  29.679  12.122
21613W        W93339  17.202  37.504  14.291
21614W        W93340   7.705  34.353   1.775
21615W        W93341  10.162  21.773   3.441
21616W        W93342  12.365  39.888   3.185
21617W        W93343  21.317  15.106  12.944
21618W        W93344   4.019  25.503   0.851
21619W        W93345   4.846   6.245  11.530
21620W        W93346  26.512  34.294  12.272
21621W        W93347  29.647  14.349  11.744
21622W        W93348   5.877  23.567   4.181
21623W        W93349  42.106  14.690   3.792
21624W        W93350  16.030  38.613   2.863
21625W        W93351  35.979  34.650  10.797
21626W        W93352  26.605   5.197   2.256
21627W        W93353  42.309  29.123   1.756
21628W        W93354  18.040   4.856   2.777
21629W        W93355  20.956  43.953  13.540
21630W        W93356  12.651  10.244   2.832
21631W        W93357  38.002  30.618   3.988
21632W        W93358  18.856   9.542  12.520
21633W        W93359  12.561  28.861   2.460
21634W        W93360   5.844  23.045  13.296
21635W        W93361   4.459  43.217   2.414
21636W        W93362  19.675  11.714   2.256
21637W        W93363   2.342   7.943  13.985
21638W        W93364   9.310   0.795   3.762
21639W        W93365  18.614   5.075  11.896
21640W        W93366  14.686  31.280  10.686
21641W        W93367  32.848  36.298   3.255
21642W        W93368   0.528  25.110   3.121
21643W        W93369   6.862  32.959   2.151
21644W        W93370   7.940  15.214   2.922
21645W        W93371  11.724  25.349  11.084
21646W        W93372  26.902  29.948  12.445
21647W        W93373  23.649  33.646  13.489
21648W        W93374  19.775  41.715   2.345
21649W        W93375   6.256  37.668   4.481
21650W        W93376  20.824  23.558  11.613
21651W        W93377  11.659  28.662  12.971
21652W        W93378  10.300  30.555  14.440
21653W        W93379  18.148  30.301   4.315
21654W        W93380  29.056  22.819   0.791
21655W        W93381  32.164   4.774  12.099
21656W        W93382  12.377   4.761   2.869
21657W        W93383  34.593  13.393  14.326
21658W        W93384  20.089  12.036   2.128
21659W        W93385  21.727  26.227  13.422
21660W        W93386  34.603  39.415   1.277
21661W        W93387  14.906  28.508  12.562
21662W        W93388  20.471  23.813   4.608
21663W        W93389   9.874   2.352  12.858
21664W        W93390  41.876  39.352  12.412
21665W        W93391  17.091   4.642   2.006
21666W        W93392  14.203  12.706   3.120
21667W        W93393  43.044   0.865   2.040
21668W        W93394  26.249  38.609   3.375
21669W        W93395   5.608  23.518   2.328
21670W        W93396   6.220  23.246  14.371
21671W        W93397   1.996  19.108  12.550
21672W        W93398  20.611  13.084  10.967
21673W        W93399  24.725  12.194   4.192
21674W        W93400   5.042   2.545   0.810
21675W        W93401  44.264  20.564   4.252
21676W        W93402  19.240   9.827   2.128
21677W        W93403  23.006  43.248   4.300
21678W        W93404   6.476  23.229   2.569
21679W        W93405  43.289   4.261  10.761
21680W        W93406  38.927  42.440  14.336
21681W        W93407  33.891   4.310  11.249
21682W        W93408  14.728   2.891   3.286
21683W        W93409  15.097   2.050   2.835
21684W        W93410  44.311  30.672   1.346
21685W        W93411   1.055   0.984  13.060
21686W        W93412  40.937  16.193   2.850
21687W        W93413  28.550  30.152  14.374
21688W        W93414   7.851  16.145   3.735
21689W        W93415  15.157  14.695  11.984
21690W        W93416  33.410  28.280   2.556
21691W        W93417  32.934   2.674   4.092
21692W        W93418  31.977  25.200   0.873
21693W        W93419  18.195   6.478   1.925
21694W        W93420  18.838  43.224  10.386
21695W        W93421  28.533   2.007  13.825
21696W        W93422  37.436  27.937   0.832
21697W        W93423   1.820   6.359   3.657
21698W        W93424   0.714  13.242  13.711
21699W        W93425  26.884  35.074  13.315
21700W        W93426  21.242  30.385   3.788
21701W        W93427  37.429  40.770   1.964
21702W        W93428  44.602  34.457   4.702
21703W        W93429  16.283  43.432   1.395
21704W        W93430   1.600   7.655   1.426
21705W        W93431  30.477   8.761  12.622
21706W        W93432  37.390  33.948   1.855
21707W        W93433  37.089   2.509   3.784
21708W        W93434  16.604  23.985   0.212
21709W        W93435   3.232  26.466  14.514
21710W        W93436  39.400  34.871   4.604
21711W        W93437  28.144   9.924  11.580
21712W        W93438  20.073  44.173   2.800
21713W        W93439  15.522  18.654   2.613
21714W        W93440   6.444  39.004   0.440
21715W        W93441  15.425   9.719   4.231
21716W        W93442   8.802  19.046   3.737
21717W        W93443  24.409  33.376   4.167
21718W        W93444  23.087  21.000  11.234
21719W        W93445  40.516  22.526  13.472
21720W        W93446  34.437  24.481   1.213
21721W        W93447  29.503  39.712  13.661
21722W        W93448  33.440   7.354   1.639
21723W        W93449  14.060  18.957   2.530
21724W        W93450  40.009  32.532  13.572
21725W        W93451  20.194  26.889  12.008
21726W        W93452  36.091  11.659  11.685
21727W        W93453  19.852  19.502   1.148
21728W        W93454  44.912  26.470   0.959
21729W        W93455  30.734  14.760   1.711
21730W        W93456  31.463  18.038  14.013
21731W        W93457   1.279  39.738   2.514
21732W        W93458  19.842  19.747  10.740
21733W        W93459  38.930  11.765  11.981
21734W        W93460  41.237  12.667   4.027
21735W        W93461   9.759  40.417  12.003
21736W        W93462   4.361   5.246   2.825
21737W        W93463  24.714  41.026   0.992
21738W        W93464  16.782  28.406   1.833
21739W        W93465  30.187  40.977  14.929
21740W        W93466  24.948  40.724   1.408
21741W        W93467  15.727  19.823   1.750
21742W        W93468   8.248  12.609   1.263
21743W        W93469  14.848  31.985   4.560
21744W        W93470  13.355  16.223   4.551
21745W        W93471  17.629  44.341  14.560
21746W        W93472   6.127  17.607  10.307
21747W        W93473  20.733  20.067   2.297
21748W        W93474  20.698  22.171  10.753
21749W        W93475  17.121  16.026   3.792
21750W        W93476  30.772  15.310  14.422
21751W        W93477   8.976  13.785   4.961
21752W        W93478  32.981  18.091  11.486
21753W        W93479   2.557   1.907  11.694
21754W        W93480  43.304  40.292  14.360
21755W        W93481  38.743  25.842  11.583
21756W        W93482  18.212   0.615   3.392
21757W        W93483   1.494  35.004  12.565
21758W        W93484  27.040  33.627  12.563
21759W        W93485   8.202   9.358  12.551
21760W        W93486  24.208  18.515   1.752
21761W        W93487   1.334  12.471   0.317
21762W        W93488  16.167  31.916  14.872
21763W        W93489  19.076  14.210   0.362
21764W        W93490  43.048   7.749  13.121
21765W        W93491   8.840   3.668   3.750
21766W        W93492  13.226  36.300   4.678
21767W        W93493  34.120  29.436  14.757
21768W        W93494  16.574  25.114  11.092
21769W        W93495   4.658  20.471  10.592
21770W        W93496  37.037   1.096  12.429
21771W        W93497  31.392   6.699  11.493
21772W        W93498   1.005  44.110  14.803
21773W        W93499  31.596   3.298  13.022
21774W        W93500  18.311  22.793  10.596
21775W        W93501   7.703  35.348   1.700
21776W        W93502  11.056  41.871  11.560
21777W        W93503  28.714  33.829  13.310
21778W        W93504  18.869  42.474   4.837
21779W        W93505   0.246  23.218   0.876
21780W        W93506   4.660  43.440  14.355
21781W        W93507   7.892  20.324  10.600
21782W        W93508  32.990   9.700   4.261
21783W        W93509  24.942  23.688  12.406
21784W        W93510  38.486  42.254  14.169
21785W        W93511  15.373  17.713  11.497
21786W        W93512  28.575  36.144  11.411
21787W        W93513  34.055  39.703   3.578
21788W        W93514  22.480  13.672   2.982
21789W        W93515  15.262  24.424   1.842
21790W        W93516   5.451  34.048  12.996
21791W        W93517  36.634  30.140  12.985
21792W        W93518   1.427  33.048  12.336
21793W        W93519  39.965  36.318   2.758
21794W        W93520  34.499  31.765   3.698
21795W        W93521  13.929  37.621  11.753
21796W        W93522  44.282   6.323   2.314
21797W        W93523   5.040  20.965   1.457
21798W        W93524  24.251  31.437  12.403
21799W        W93525  38.472  25.479  11.254
21800W        W93526  29.956  21.670  11.719
21801W        W93527  34.690  35.003   3.203
21802W        W93528   5.853  25.634   3.916
21803W        W93529  35.042  42.247   0.406
21804W        W93530  26.591   0.482   1.744
21805W        W93531  17.507  34.903  10.597
21806W        W93532  39.880  36.986   4.768
21807W        W93533  24.585  24.047  12.484
21808W        W93534   8.247  11.869   0.715
21809W        W93535  21.120  43.351   4.507
21810W        W93536  32.891  15.063  12.995
21811W        W93537  37.375  20.605   3.147
21812W        W93538  10.235  12.358  11.625
21813W        W93539  40.106  19.740  14.896
21814W        W93540  23.002  12.411  14.796
21815W        W93541   0.214   3.193   2.813
21816W        W93542  13.193  37.758   0.473
21817W        W93543  11.905   4.439   2.789
21818W        W93544  31.464  39.807  14.355
21819W        W93545   3.705  20.715  13.594
21820W        W93546   8.740   7.580   0.386
21821W        W93547  23.677   2.776   2.473
21822W        W93548  43.319  10.614   1.375
21823W        W93549   2.298  39.128   1.856
21824W        W93550  31.063  17.210  13.304
21825W        W93551   3.515  27.554   0.259
21826W        W93552  11.079  27.003  10.614
21827W        W93553  40.680   8.658   1.378
21828W        W93554  17.681   6.633  10.638
21829W        W93555  43.950  43.972  13.044
21830W        W93556   3.148   4.935  12.633
21831W        W93557  41.886  21.760   1.810
21832W        W93558  17.046  22.097  10.075
21833W        W93559  32.871  16.261   3.471
21834W        W93560  14.243   2.403  13.922
21835W        W93561  12.673  31.566   0.745
21836W        W93562   8.599  35.033   5.039
21837W        W93563  28.447  27.363   4.414
21838W        W93564  39.263   3.733  12.985
21839W        W93565  11.452  39.465  12.807
21840W        W93566  35.546  24.697  14.739
21841W        W93567  21.757  28.191  14.847
21842W        W93568  14.759  42.293   2.596
21843W        W93569  33.018  42.283   2.428
21844W        W93570  15.809  13.335   4.791
21845W        W93571  36.288  38.310  13.876
21846W        W93572  15.018   8.127  11.901
21847W        W93573  43.204  29.738   4.413
21848W        W93574  25.668  25.607   3.874
21849W        W93575  13.548  35.542   2.974
21850W        W93576  29.774  14.940  11.976
21851W        W93577   8.358   5.258   3.287
21852W        W93578   4.375  12.866  14.819
21853W        W93579  34.628  43.404  11.971
21854W        W93580  14.840  24.766   0.428
21855W        W93581  34.510  22.809  14.251
21856W        W93582  26.159   0.389  13.010
21857W        W93583  22.059  24.034   1.779
21858W        W93584  16.694  28.481  12.093
21859W        W93585   6.435  24.544   4.179
21860W        W93586   7.461  44.539   3.624
21861W        W93587  34.303  39.368   0.345
21862W        W93588  39.358  34.780   3.359
21863W        W93589   7.682   0.871   2.208
21864W        W93590  18.623  29.463  12.683
21865W        W93591   4.040  16.270   5.046
21866W        W93592  42.458  25.139   0.858
21867W        W93593  40.055  31.259   4.798
21868W        W93594  28.588  33.994  11.960
21869W        W93595  17.824  25.208  11.967
21870W        W93596  33.845  14.105  13.581
21871W        W93597  28.325  25.234  13.063
21872W        W93598  31.058  20.245  13.894
21873W        W93599  21.819   6.929  14.326
21874W        W93600  23.095  28.320  11.431
21875W        W93601  35.986  29.202   4.951
21876W        W93602   8.173  28.602  14.218
21877W        W93603  44.773   1.791   0.245
21878W        W93604  19.562  41.891  14.868
21879W        W93605   0.376  22.580   1.477
21880W        W93606  19.543  23.684   1.163
21881W        W93607  42.543  21.571   2.116
21882W        W93608  29.626  33.616   0.416
21883W        W93609  12.216  15.069   3.473
21884W        W93610  31.885   9.847  13.819
21885W        W93611   6.310   1.732  13.136
21886W        W93612  38.829  29.960   2.608
21887W        W93613   3.642  12.843   0.814
21888W        W93614   8.521  10.628  12.546
21889W        W93615  26.007  22.255   0.339
21890W        W93616  38.900  12.794  11.716
21891W        W93617  23.078  27.110   1.267
21892W        W93618  18.184  19.747   2.290
21893W        W93619  12.858   1.000  13.028
21894W        W93620   6.216  33.164   0.730
21895W        W93621  34.961  38.862  12.501
21896W        W93622  37.468  35.594  12.811
21897W        W93623  39.613   0.271  13.359
21898W        W93624  34.165  43.382  11.635
21899W        W93625  14.378   0.014   3.640
21900W        W93626  36.488  22.779  14.739
21901W        W93627   1.513   9.609   0.522
21902W        W93628  30.611   3.578   3.231
21903W        W93629  27.110  44.956   1.372
21904W        W93630  35.003   3.503  13.959
21905W        W93631  34.572   9.888   4.658
21906W        W93632  19.226  44.274  13.995
21907W        W93633  12.385  19.675   1.678
21908W        W93634  25.844   5.614  11.629
21909W        W93635  39.601  40.913  12.854
21910W        W93636  39.291   6.548   3.361
21911W        W93637  22.426  25.354  13.524
21912W        W93638  11.442  31.126   4.254
21913W        W93639  21.519  19.690   3.558
21914W        W93640  10.490  20.394   3.548
21915W        W93641  12.109  42.252  13.967
21916W        W93642  39.346  19.272  12.021
21917W        W93643  40.757  21.416   2.930
21918W        W93644  22.916   8.242  12.019
21919W        W93645  38.076  44.402  14.782
21920W        W93646  24.048  36.135   1.814
21921W        W93647   4.094  36.975  12.459
21922W        W93648  33.732  37.492   2.696
21923W        W93649  43.753  20.786   2.344
21924W        W93650   3.877  26.186  11.997
21925W        W93651  11.782  16.475   0.297
21926W        W93652  23.019  39.959  11.142
21927W        W93653   6.764  20.036   0.497
21928W        W93654  32.648  11.077   0.990
21929W        W93655  22.135  17.082   2.149
21930W        W93656  37.326  41.928  13.163
21931W        W93657  38.758  28.970   3.654
21932W        W93658  36.380  30.041   4.223
21933W        W93659  29.191   9.910   3.753
21934W        W93660  14.234  29.061  12.427
21935W        W93661  31.919  25.584  13.532
21936W        W93662  14.197   8.135   4.060
21937W        W93663  14.688  14.021   0.454
21938W        W93664  13.106   7.374   0.923
21939W        W93665  25.543  41.333  12.002
21940W        W93666  26.488  42.005  11.276
21941W        W93667  28.030  31.888   1.656
21942W        W93668   6.280   2.751   2.182
21943W        W93669  40.524  16.778   1.892
21944W        W93670  44.723  16.750  12.500
21945W        W93671  22.212   4.329   4.103
21946W        W93672  36.594   0.194  10.806
21947W        W93673  35.405  36.496   1.758
21948W        W93674  11.766  14.202   0.261
21949W        W93675  42.938   3.807   2.896
21950W        W93676  10.832   5.112  11.521
21951W        W93677  33.115  29.039  12.073
21952W        W93678  15.612  14.205   0.344
21953W        W93679  11.394  10.321  14.412
21954W        W93680  24.631   5.643   3.217
21955W        W93681   5.156  21.230  13.498
21956W        W93682  24.419   2.431   1.240
21957W        W93683  16.638  30.748  11.691
21958W        W93684  37.630  41.114   4.195
21959W        W93685  33.682  12.775  12.908
21960W        W93686  25.544   4.300   3.130
21961W        W93687  13.865   2.336  12.386
21962W        W93688  15.048  25.975  11.635
21963W        W93689   8.667  18.073   1.802
21964W        W93690   4.880  44.536  11.713
21965W        W93691  16.779  11.821   4.610
21966W        W93692  41.830  36.513   4.436
21967W        W93693  31.449  42.787   3.223
21968W        W93694  22.032  27.519   1.885
21969W        W93695  31.001  17.568   2.264
21970W        W93696  43.968  29.092  10.411
21971W        W93697  34.499  37.978   2.584
21972W        W93698   0.214  31.800   2.292
21973W        W93699  18.130   6.727   4.866
21974W        W93700   7.384   0.663  14.047
21975W        W93701  22.270  10.993   2.770
21976W        W93702   3.386  41.318  14.927
21977W        W93703  22.220  22.250  12.490
21978W        W93704   0.915  39.637   3.580
21979W        W93705   6.242   8.767   3.288
21980W        W93706  24.823  37.336  11.202
21981W        W93707  11.738  12.201  11.100
21982W        W93708   7.197  36.445  13.713
21983W        W93709  38.326   5.726   4.672
21984W        W93710   6.942   4.554  12.579
21985W        W93711  26.095   2.758   0.729
21986W        W93712  22.570  28.421   4.186
21987W        W93713  26.964  43.244  10.248
21988W        W93714   6.742  13.063   4.208
21989W        W93715  19.215  37.886  11.221
21990W        W93716  14.282  41.509   4.664
21991W        W93717  27.869  39.520   4.888
21992W        W93718  26.456  13.750  13.487
21993W        W93719  42.292  13.731  12.503
21994W        W93720   9.767   3.948   2.537
21995W        W93721  16.120   2.478  14.924
21996W        W93722  23.461  40.891  12.184
21997W        W93723  26.080   8.912   0.892
21998W        W93724  15.823   6.186  14.623
21999W        W93725  18.210  39.825  11.966
22000W        W93726  18.524  41.343   4.159
22001W        W93727   4.503   9.781  11.198
22002W        W93728  37.081  27.718   2.360
22003W        W93729  25.048   8.638   3.701
22004W        W93730   1.573  27.015   2.751
22005W        W93731  26.581  25.723   1.298
22006W        W93732  29.844  27.939   1.504
22007W        W93733  17.055  37.658  11.055
22008W        W93734  36.103  21.311  11.607
22009W        W93735  16.224  14.992   2.289
22010W        W93736  41.893  13.752   0.355
22011W        W93737  33.782  41.882   2.192
22012W        W93738  39.761  22.672  12.336
22013W        W93739  22.708  28.672   2.841
22014W        W93740  29.807   1.762   0.105
22015W        W93741  17.012   3.412   4.755
22016W        W93742  36.112   0.391  11.597
22017W        W93743  30.156  28.381  14.531
22018W        W93744   7.568  15.548   2.824
22019W        W93745   3.867  33.659  12.531
22020W        W93746   0.215  28.143  12.408
22021W        W93747  19.824   3.219  14.612
22022W        W93748  17.296  26.609   1.768
22023W        W93749  21.549  15.104   0.829
22024W        W93750  31.534  38.227   4.568
22025W        W93751  37.614  44.531  14.511
22026W        W93752  19.851  14.599  11.232
22027W        W93753  28.031  40.753  14.333
22028W        W93754   8.952  11.104   1.772
22029W        W93755  42.037  24.018  10.667
22030W        W93756  24.566  30.399  14.334
22031W        W93757  19.738  42.092   0.326
22032W        W93758  32.464   9.828   3.569
22033W        W93759  21.554  12.405  11.534
22034W        W93760   0.887  36.850   1.918
22035W        W93761  40.730  40.422  14.987
22036W        W93762  13.030  22.558   2.831
22037W        W93763  22.526   3.525  12.665
22038W        W93764  40.074  12.967   1.262
22039W        W93765  20.011  22.651  13.301
22040W        W93766  21.794  25.417   3.448
22041W        W93767  17.182  13.605   4.503
22042W        W93768  42.845   7.904   1.377
22043W        W93769   6.643  35.890  12.454
22044W        W93770  21.631  36.867   4.792
22045W        W93771   2.765   4.565   3.702
22046W        W93772  37.137  40.791   0.299
22047W        W93773  33.894  23.309  14.023
22048W        W93774   8.939  35.899  14.424
22049W        W93775  36.949  38.501   4.536
22050W        W93776  25.999  23.511  14.805
22051W        W93777  33.836  17.298   0.147
22052W        W93778  26.012   0.806   5.429
22053W        W93779  43.959  11.613  12.909
22054W        W93780   2.872  18.729  14.789
22055W        W93781  39.635  38.556  14.297
22056W        W93782   0.965  37.904  14.358
22057W        W93783   2.711  37.819   0.202
22058W        W93784  25.478  29.015   3.889
22059W        W93785  22.847  44.856  11.727
22060W        W93786   6.197  33.816   1.978
22061W        W93787  24.838  23.306   4.132
22062W        W93788  11.659   5.940   2.276
22063W        W93789   5.158   4.982   5.055
22064W        W93790  22.026  32.608  10.660
22065W        W93791   9.120  16.207  12.523
22066W        W93792   7.812  28.732   0.824
22067W        W93793  41.484   9.771   1.549
22068W        W93794  23.112  15.811  14.976
22069W        W93795  35.663  15.765  10.678
22070W        W93796   2.661  27.041   0.235
22071W        W93797   1.318  42.010  11.627
22072W        W93798  36.875  36.822  13.410
22073W        W93799  34.774   8.323  14.861
22074W        W93800   7.357  25.637  13.124
22075W        W93801   0.010  23.302  14.865
22076W        W93802  18.361  31.540   3.621
22077W        W93803  42.732  13.922  12.285
22078W        W93804  37.110  34.187  12.985
22079W        W93805  36.459  10.719  14.696
22080W        W93806  26.885  22.029   0.955
22081W        W93807  28.550  37.012   4.057
22082W        W93808  43.953  39.610   2.656
22083W        W93809  20.740  38.907  14.008
22084W        W93810  35.964  14.059   0.294
22085W        W93811  40.100  40.938  14.397
22086W        W93812  10.738  44.643   2.363
22087W        W93813   5.482  14.100  12.936
22088W        W93814  39.808  10.391   0.832
22089W        W93815  41.908  32.336  10.507
22090W        W93816  23.023  44.177  11.979
22091W        W93817   1.232  27.872   1.746
22092W        W93818  15.432  43.909  14.210
22093W        W93819  37.615  25.615   2.473
22094W        W93820   0.347   7.821  13.636
22095W        W93821  31.851  39.024  11.133
22096W        W93822   4.124  27.202  10.639
22097W        W93823  43.609  25.920  14.344
22098W        W93824  27.140  23.670   2.904
22099W        W93825  21.055  17.976  11.916
22100W        W93826  13.785  36.149  14.883
22101W        W93827  11.930  17.911   4.544
22102W        W93828  36.435  22.506  13.411
22103W        W93829  31.178  26.914   4.659
22104W        W93830  21.267   6.803  12.474
22105W        W93831  13.377   2.301   1.903
22106W        W93832   7.227  40.874   0.980
22107W        W93833  40.285  28.141   1.181
22108W        W93834   5.790  16.518   0.925
22109W        W93835  24.189  14.079   0.119
22110W        W93836   3.677  42.273   2.833
22111W        W93837  14.799  43.287  11.121
22112W        W93838  22.329  38.060  14.072
22113W        W93839  21.780  34.281  12.467
22114W        W93840   2.911  21.799   3.352
22115W        W93841  35.260  28.011   4.833
22116W        W93842  18.281   4.663  13.484
22117W        W93843  18.690   4.655  10.578
22118W        W93844   1.579  18.323   0.117
22119W        W93845  16.733   9.287   4.739
22120W        W93846  21.042  39.296  11.868
22121W        W93847  29.822  30.661  12.018
22122W        W93848  44.406   0.479   5.165
22123W        W93849  23.720  28.220   4.511
22124W        W93850  39.258  29.876  11.651
22125W        W93851  27.510   1.217  10.967
22126W        W93852  42.823  41.754   4.256
22127W        W93853  13.562  32.876   0.443
22128W        W93854  31.151  11.623   2.186
22129W        W93855  27.043  44.775  12.340
22130W        W93856  31.840  15.736  13.040
22131W        W93857  36.644   1.913   3.718
22132W        W93858  23.021  18.620   4.820
22133W        W93859  38.046   1.767  11.942
22134W        W93860  34.166  36.714  12.385
22135W        W93861  15.291   6.873  13.154
22136W        W93862  44.360   2.389   3.148
22137W        W93863  44.008   6.181   2.743
22138W        W93864   0.803  36.599  11.314
22139W        W93865  10.422  18.802   5.053
22140W        W93866  39.119  30.008   4.240
22141W        W93867  20.026  19.641  11.204
22142W        W93868  32.509  40.238   2.845
22143W        W93869  20.258  44.363   2.348
22144W        W93870   0.333  40.066  12.903
22145W        W93871   2.713  12.658   0.950
22146W        W93872  20.306   3.239   1.797
22147W        W93873  17.467  27.145   0.325
22148W        W93874  24.771  13.275  13.966
22149W        W93875  44.887  17.252  11.043
22150W        W93876  26.988  38.882  11.704
22151W        W93877  13.728  11.817   4.055
22152W        W93878  12.692   0.815   0.013
22153W        W93879   7.964  36.478   0.283
22154W        W93880  33.521  36.203  10.742
22155W        W93881  38.620   4.392  10.725
22156W        W93882   1.532  39.279  14.580
22157W        W93883  31.953  40.410  13.864
22158W        W93884   0.261  36.174  13.877
22159W        W93885   6.140   8.972  11.681
22160W        W93886  18.659  41.009  13.750
22161W        W93887  22.651  40.361  13.804
22162W        W93888  11.121  13.804  12.679
22163W        W93889  28.444  22.178   1.184
22164W        W93890  32.642   6.328  12.002
22165W        W93891  27.219   6.513   0.861
22166W        W93892  26.227   7.340   4.154
22167W        W93893  18.170  22.764   1.879
22168W        W93894  27.152  23.976  11.625
22169W        W93895  29.021  41.890  14.463
22170W        W93896  42.459  13.865  13.546
22171W        W93897  11.575  23.150   0.427
22172W        W93898  18.504   4.618  11.065
22173W        W93899  26.739  39.875   0.339
22174W        W93900  35.111  11.576  11.649
22175W        W93901  39.978   1.450  12.336
22176W        W93902   3.470   3.132  14.228
22177W        W93903  25.478  40.681   1.624
22178W        W93904  21.791  24.924   2.160
22179W        W93905  40.105   9.212  11.801
22180W        W93906  43.590  41.835  13.035
22181W        W93907  25.704  37.136  13.017
22182W        W93908  34.586  12.819   1.495
22183W        W93909  33.339  28.722   4.782
22184W        W93910   8.465   4.135   3.698
22185W        W93911  29.924  29.819   3.214
22186W        W93912  18.191  44.921   4.199
22187W        W93913  32.865  15.690   2.243
22188W        W93914   1.390   2.987   3.545
22189W        W93915  13.357  17.367   3.297
22190W        W93916   3.201  23.005  10.488
22191W        W93917   4.583   0.059  11.727
22192W        W93918  37.424  12.747   0.444
22193W        W93919  18.229  34.614  11.707
22194W        W93920  21.796  40.858  10.620
22195W        W93921  16.073   6.758  11.592
22196W        W93922  26.487  28.684   2.188
22197W        W93923  44.281  16.436  13.362
22198W        W93924   6.193  17.493   3.383
22199W        W93925  35.991  31.279   3.681
22200W        W93926  21.994  27.039   4.767
22201W        W93927  37.637  37.522   1.456
22202W        W93928  41.189  18.369   4.322
22203W        W93929  19.723   5.872  13.854
22204W        W93930   1.230  27.220   3.607
22205W        W93931   8.404  32.012  13.456
22206W        W93932  23.148  28.005   0.033
22207W        W93933  36.145   8.677   2.485
22208W        W93934   8.179  16.174  10.625
22209W        W93935  19.790  33.456   1.317
22210W        W93936  19.467   6.909   3.229
22211W        W93937  25.565  35.399   0.880
22212W        W93938  33.234   7.311  11.941
22213W        W93939  32.053  15.179  13.039
22214W        W93940  22.185  31.182   4.770
22215W        W93941   2.349   8.129  13.470
22216W        W93942  32.396  40.252   1.271
22217W        W93943  38.884  23.871  12.334
22218W        W93944  23.537  26.189  13.418
22219W        W93945  16.475   5.880   4.142
22220W        W93946  29.476  12.115  13.890
22221W        W93947   4.428  42.559   0.417
22222W        W93948   9.485  44.894   4.089
22223W        W93949  40.092   1.635  11.119
22224W        W93950  38.601  32.697  14.872
22225W        W93951  33.229  40.487  11.547
22226W        W93952   3.482  12.971  12.066
22227W        W93953  12.297  31.093  11.637
22228W        W93954  26.422  15.448  14.531
22229W        W93955  32.045  31.919  14.507
22230W        W93956  38.336  19.313   1.159
22231W        W93957   7.242  32.264   2.398
22232W        W93958  22.999  21.607  12.467
22233W        W93959  34.551  19.614  14.343
22234W        W93960  43.060  15.197  12.542
22235W        W93961  15.182  38.323  13.365
22236W        W93962  19.663   2.686  12.944
22237W        W93963  15.431  37.985   0.843
22238W        W93964  39.252  20.040   2.869
22239W        W93965  36.188  12.169   4.218
22240W        W93966  36.975   4.568  12.967
22241W        W93967   5.078   4.743  14.586
22242W        W93968  40.365  34.138   1.692
22243W        W93969  25.405  28.489   1.208
22244W        W93970  29.569  28.521   2.833
22245W        W93971  21.141  22.495   4.666
22246W        W93972  18.678  44.340  14.538
22247W        W93973  28.400  41.494  11.826
22248W        W93974  25.768  13.193   4.504
22249W        W93975  20.065  37.944  12.484
22250W        W93976  14.261  14.870   3.722
22251W        W93977  17.097   5.742  11.971
22252W        W93978  27.760   8.809  10.552
22253W        W93979  15.806  29.024   4.159
22254W        W93980  10.166   3.487  13.591
22255W        W93981  30.564   4.448   4.355
22256W        W93982  41.757  30.870   1.988
22257W        W93983  32.318  12.425   1.323
22258W        W93984   4.703  12.827  11.956
22259W        W93985  31.075  25.184   2.003
22260W        W93986   9.752  33.815   9.732
22261W        W93987   7.856  19.981   1.762
22262W        W93988   7.356   5.211  10.158
22263W        W93989  16.320  20.564  14.409
22264W        W93990  14.730   4.955   4.812
22265W        W93991   7.959  39.468  12.069
22266W        W93992  36.406   6.805   1.346
22267W        W93993  41.973  13.852  13.377
22268W        W93994  43.004   3.785   1.918
22269W        W93995  15.244  17.740   2.898
22270W        W93996   5.339  22.268   2.624
22271W        W93997  23.143  21.763   2.295
22272W        W93998   8.607  43.226  11.612
22273W        W93999  23.470  35.994  10.879
22274W        W94000  36.524   4.208   4.411
22275W        W94001  44.778  22.104   2.551
22276W        W94002  14.524  43.213   3.520
22277W        W94003   4.974   6.309  13.573
22278W        W94004  19.588   1.813  14.405
22279W        W94005   3.554  40.255  14.500
22280W        W94006   6.670  13.281   3.742
22281W        W94007  36.082  36.826   0.922
22282W        W94008  35.568  10.409   1.669
22283W        W94009  28.260  19.092   2.805
22284W        W94010  15.174  38.098  11.478
22285W        W94011  15.337  43.377  10.938
22286W        W94012  36.035   3.603  12.535
22287W        W94013  29.171  26.866  14.027
22288W        W94014  40.650  43.942   1.697
22289W        W94015  26.455  16.550  13.018
22290W        W94016   7.811  32.208  13.979
22291W        W94017   9.544   6.056  14.838
22292W        W94018  43.360   5.218   2.755
22293W        W94019  24.501   9.170  13.463
22294W        W94020   7.843  14.575   0.268
22295W        W94021  24.935  35.129   2.337
22296W        W94022   0.348  31.420  14.961
22297W        W94023  29.484  29.500   2.186
22298W        W94024  28.816  21.431  11.168
22299W        W94025   5.628   4.611   1.867
22300W        W94026  13.569   6.284   4.108
22301W        W94027  33.536  24.626  10.901
22302W        W94028  34.897  15.359   4.732
22303W        W94029   4.669   2.371  13.910
22304W        W94030  37.960  11.904   1.223
22305W        W94031  13.277   5.773  10.733
22306W        W94032  12.106   7.298  10.397
22307W        W94033  36.382  41.506   4.576
22308W        W94034  17.691  41.336  13.994
22309W        W94035   6.453   4.695   2.127
22310W        W94036   1.858  41.607  11.169
22311W        W94037   8.429  16.289  13.868
22312W        W94038  20.444  37.788  12.152
22313W        W94039   5.912   6.476  14.849
22314W        W94040  20.500  15.296  12.485
22315W        W94041  29.573  35.900   4.511
22316W        W94042  28.051   0.971  13.564
22317W        W94043  32.149  16.733  11.122
22318W        W94044   9.245   1.900   2.817
22319W        W94045  35.157   3.414  10.931
22320W        W94046  36.653  29.615   4.288
22321W        W94047  22.592  24.806   1.720
22322W        W94048  33.475   1.252  11.403
22323W        W94049  21.756   8.577   2.742
22324W        W94050   4.410   5.331  12.385
22325W        W94051  25.657  33.526  14.352
22326W        W94052   8.672   0.014  13.379
22327W        W94053  39.733  17.155  12.212
22328W        W94054  16.579   3.049  13.659
22329W        W94055  26.319  32.548   2.684
22330W        W94056   2.447  29.527   2.624
22331W        W94057  25.460  31.855  12.436
22332W        W94058  13.203  34.501   5.086
22333W        W94059  42.030   2.612   2.403
22334W        W94060  14.185  22.965  13.044
22335W        W94061  21.311  35.060  13.490
22336W        W94062   4.707  38.558  10.072
22337W        W94063   4.971  17.855  10.901
22338W        W94064  29.713  41.251  12.376
22339W        W94065  13.176  27.721  10.460
22340W        W94066  33.995  44.329  12.800
22341W        W94067  23.118  24.273   1.667
22342W        W94068  23.371  16.889  14.446
22343W        W94069  22.797  15.341   3.757
22344W        W94070  18.090  13.737  12.604
22345W        W94071  36.470  37.835  13.955
22346W        W94072  12.773  10.641   2.468
22347W        W94073  17.211  23.462   1.899
22348W        W94074  14.668  40.391   0.425
22349W        W94075  16.871  28.663  13.053
22350W        W94076  10.608  44.409  13.432
22351W        W94077  32.212  38.630   1.256
22352W        W94078   5.728  25.295  12.101
22353W        W94079  33.359  26.488  13.975
22354W        W94080  23.017   4.310   0.869
22355W        W94081   7.898  39.388   0.048
22356W        W94082   9.675  14.085   1.836
22357W        W94083  21.020  39.250   0.362
22358W        W94084  29.731  26.283  11.955
22359W        W94085  26.987  31.280  10.445
22360W        W94086   0.409  15.915   2.712
22361W        W94087  36.193  42.370  14.513
22362W        W94088  32.941  29.493   4.783
22363W        W94089   2.068  31.490  13.993
22364W        W94090  23.475  24.721   0.696
22365W        W94091  31.818  24.189   5.143
22366W        W94092  28.408   9.212   1.381
22367W        W94093  12.070   7.217  12.465
22368W        W94094  17.293  31.044   1.706
22369W        W94095   2.282  36.864  11.620
22370W        W94096   7.807  33.598  13.042
22371W        W94097  34.654  11.375  12.037
22372W        W94098  14.051  40.503  11.888
22373W        W94099  22.814   5.481   1.673
22374W        W94100  16.602  29.097   0.231
22375W        W94101  43.320  19.034  13.246
22376W        W94102  41.552  26.664   3.682
22377W        W94103  18.188   3.061  12.933
22378W        W94104  44.396  27.948  10.723
22379W        W94105  44.021  15.361  10.544
22380W        W94106  10.106   7.366  12.930
22381W        W94107  26.056   7.344  13.316
22382W        W94108  15.077  44.050  13.843
22383W        W94109  34.961  14.911   4.986
22384W        W94110  15.260   4.875   0.897
22385W        W94111  13.225  26.638  12.878
22386W        W94112  16.130  19.326   0.843
22387W        W94113  34.447   5.409  10.956
22388W        W94114  27.170  36.460  13.795
22389W        W94115   6.505  44.059  12.427
22390W        W94116  44.824  44.836  13.353
22391W        W94117  36.116  22.101  14.626
22392W        W94118   3.471  17.121  12.438
22393W        W94119  15.653  30.931   3.621
22394W        W94120  14.519  42.879   4.426
22395W        W94121  37.973  42.929   2.195
22396W        W94122  27.066  28.681   3.620
22397W        W94123  36.850  26.477  13.627
22398W        W94124  37.793  23.491   2.430
22399W        W94125  25.415  31.031   1.151
22400W        W94126  43.978   4.847   4.839
22401W        W94127  42.174  25.224   3.466
22402W        W94128  37.004   4.114   2.262
22403W        W94129  34.214  15.256  12.126
22404W        W94130  41.522   7.073   3.436
22405W        W94131  24.740   2.476   2.681
22406W        W94132  32.518  30.748   3.357
22407W        W94133  32.946  37.443  14.907
22408W        W94134   9.205  24.437  14.601
22409W        W94135  17.267  44.401   1.266
22410W        W94136   3.397  40.307  12.817
22411W        W94137  23.666  19.056  12.107
22412W        W94138  10.666  11.679  14.567
22413W        W94139  17.581  41.973   4.099
22414W        W94140  40.321  44.809   2.346
22415W        W94141  13.095   0.657  11.073
22416W        W94142  38.409  13.313   1.845
22417W        W94143  18.202  33.186  11.547
22418W        W94144   2.416   0.901   4.515
22419W        W94145   4.036  12.665   1.551
22420W        W94146   6.292  41.386  12.382
22421W        W94147  35.376  24.929  12.017
22422W        W94148   8.772  24.253  13.198
22423W        W94149   2.969  31.545   2.204
22424W        W94150  30.103  21.710  10.678
22425W        W94151  43.001  40.567  10.972
22426W        W94152  17.803  19.050  12.044
22427W        W94153  11.043  19.073  11.356
22428W        W94154  29.896   8.186   4.202
22429W        W94155  36.512   4.640  12.459
22430W        W94156  18.786  27.536  11.480
22431W        W94157   7.952  40.051   4.118
22432W        W94158  19.805  10.251  12.477
22433W        W94159  21.015  31.337   3.770
22434W        W94160  40.363  31.909   2.183
22435W        W94161  15.125  38.266  14.405
22436W        W94162  44.582   5.260  10.248
22437W        W94163  32.983  40.477   2.469
22438W        W94164  15.428  11.701   2.599
22439W        W94165  42.961  35.621   1.374
22440W        W94166  43.736  38.419   2.201
22441W        W94167  16.597  36.547  12.155
22442W        W94168  23.163  27.188  13.114
22443W        W94169  28.006  35.916  14.506
22444W        W94170  33.270  20.537  11.913
22445W        W94171   2.286   6.527   3.802
22446W        W94172  15.313   9.678  13.433
22447W        W94173  16.105  29.477   4.137
22448W        W94174  21.672  16.884   1.352
22449W        W94175   8.413  32.928  13.734
22450W        W94176   0.184  40.907   3.113
22451W        W94177  27.262  39.079   2.790
22452W        W94178  35.157  29.423  13.750
22453W        W94179  36.895  16.868   4.974
22454W        W94180  13.740  40.323  14.564
22455W        W94181  33.963  22.957  12.483
22456W        W94182   8.327  23.208  14.820
22457W        W94183  19.083  15.539  11.111
22458W        W94184  21.789  27.235   2.798
22459W        W94185   9.913  17.003   1.640
22460W        W94186  11.967  13.280   0.277
22461W        W94187  32.877  32.373   1.888
22462W        W94188   2.656  40.430   1.299
22463W        W94189  27.605  18.326  10.174
22464W        W94190  39.467   2.793   0.020
22465W        W94191  42.642   9.803   5.078
22466W        W94192  29.835  30.130  12.008
22467W        W94193   1.333   5.107   0.733
22468W        W94194  11.393  21.358   3.756
22469W        W94195  23.386   3.877  10.655
22470W        W94196   1.248  41.072   1.754
22471W        W94197  34.982   7.731   4.473
22472W        W94198  26.114  42.832  12.866
22473W        W94199  36.898   2.125   3.211
22474W        W94200   8.676   4.481  12.320
22475W        W94201  26.613  20.009  11.017
22476W        W94202   8.104   3.824  12.612
22477W        W94203   7.089  44.822   2.249
22478W        W94204  33.716  39.930  13.914
22479W        W94205  26.010  14.096  14.786
22480W        W94206  20.685  30.681  13.178
22481W        W94207  31.520  42.778  10.589
22482W        W94208   1.310  13.482  11.314
22483W        W94209  37.795  39.802   4.688
22484W        W94210  13.214  44.168   1.398
22485W        W94211  39.153   6.244  13.743
22486W        W94212  42.568  44.000   2.871
22487W        W94213  44.832  41.475  12.943
22488W        W94214  29.005  44.823   4.550
22489W        W94215  10.650  17.279  12.429
22490W        W94216  19.896   2.489  13.361
22491W        W94217  15.557  23.044   2.303
22492W        W94218  19.112  40.829  14.436
22493W        W94219  31.603  38.202  10.572
22494W        W94220  32.357  13.665   4.974
22495W        W94221   4.927  28.662  13.010
22496W        W94222  26.683  20.115   1.369
22497W        W94223  29.526  43.575  14.851
22498W        W94224  10.285   3.952   0.932
22499W        W94225  24.235  36.143   0.039
22500W        W94226   7.600  12.755   5.098
22501W        W94227  43.474  37.446   1.607
22502W        W94228  23.407  35.944  13.810
22503W        W94229  17.726   5.264  12.813
22504W        W94230  25.203  36.877  12.881
22505W        W94231  23.112   0.865  14.802
22506W        W94232   1.716  43.041   2.102
22507W        W94233  24.513   6.634  10.761
22508W        W94234  36.426  40.030   4.065
22509W        W94235   9.420   1.677  12.961
22510W        W94236  19.015  22.951  13.321
22511W        W94237  42.392  15.384   3.301
22512W        W94238  34.093   7.771  12.130
22513W        W94239   9.627  33.415   1.978
22514W        W94240  30.026  31.206   2.396
22515W        W94241  34.489  21.669  11.330
22516W        W94242  25.702  34.102   4.163
22517W        W94243   8.028  13.182   0.700
22518W        W94244  38.759   7.233  12.180
22519W        W94245  41.320  13.583   1.983
22520W        W94246  14.427  37.588  11.932
22521W        W94247  20.531  35.046   1.347
22522W        W94248  16.391  21.064  12.923
22523W        W94249  12.163   4.806   0.398
22524W        W94250  23.187  11.973  13.871
22525W        W94251  25.180  12.100   3.893
22526W        W94252   0.109   4.340   1.338
22527W        W94253  18.559  44.802   1.329
22528W        W94254   0.768   5.785  12.666
22529W        W94255   8.964  24.084   2.430
22530W        W94256  33.493  31.968   3.068
22531W        W94257   8.795  39.413   2.143
22532W        W94258  22.778  12.856   4.120
22533W        W94259  37.856  35.307   1.339
22534W        W94260  27.953  21.961   3.310
22535W        W94261  12.216  36.973  11.445
22536W        W94262  19.064  43.690  10.599
22537W        W94263   5.988  30.170  12.900
22538W        W94264  22.039  23.195  13.383
22539W        W94265  15.453   7.775   3.803
22540W        W94266  36.553   9.926  14.658
22541W        W94267   5.400  27.018   3.700
22542W        W94268  18.121   4.754   0.932
22543W        W94269  26.532   1.903  11.824
22544W        W94270  12.605   2.859   3.909
22545W        W94271  25.560   1.984  14.828
22546W        W94272  29.998   8.923  14.416
22547W        W94273  22.477  44.014  13.361
22548W        W94274  18.845  41.339  11.664
22549W        W94275  11.283  20.785   2.322
22550W        W94276  34.350  16.180   3.539
22551W        W94277  15.768   1.277   4.979
22552W        W94278  41.042  16.161   0.503
22553W        W94279  21.089   6.787   4.590
22554W        W94280  12.762  23.114   3.976
22555W        W94281  12.138  28.333  13.885
22556W        W94282  11.621  27.272  14.963
22557W        W94283  36.875  13.231   2.734
22558W        W94284   0.921  15.811  10.817
22559W        W94285  42.733   1.214  11.449
22560W        W94286  44.359  18.406  14.998
22561W        W94287  24.621   1.277  14.223
22562W        W94288  39.734  11.201  10.698
22563W        W94289  34.267  37.407   1.952
22564W        W94290  41.645  38.764  12.037
22565W        W94291  25.133  40.222  11.587
22566W        W94292  30.931  18.225  14.912
22567W        W94293  39.553  12.119   9.977
22568W        W94294  30.823  14.363  12.854
22569W        W94295  16.248   0.715  13.357
22570W        W94296  23.300  20.851  10.644
22571W        W94297  14.633   4.330   1.140
22572W        W94298  27.444  20.127  11.234
22573W        W94299  34.539  40.086  11.963
22574W        W94300  42.987  36.012  12.785
22575W        W94301   7.002  22.444  11.113
22576W        W94302  34.154   1.242  12.372
22577W        W94303  20.582  30.151   2.317
22578W        W94304  20.588  16.677  12.800
22579W        W94305  13.212  38.092   4.580
22580W        W94306  29.672  40.535   2.115
22581W        W94307   7.684  25.438   3.624
22582W        W94308  11.349  22.701  10.924
22583W        W94309  21.370   9.912   1.240
22584W        W94310  20.555  18.027   3.569
22585W        W94311  18.238   0.915  11.900
22586W        W94312  17.638  37.009  12.549
22587W        W94313   8.615  16.362  14.487
22588W        W94314   0.331  36.759   0.322
22589W        W94315  39.836   1.081  14.716
22590W        W94316  43.394  20.186   4.893
22591W        W94317  30.589  23.595  11.498
22592W        W94318  36.274  14.754  12.069
22593W        W94319  17.557  10.686   4.557
22594W        W94320  12.020  25.125  11.580
22595W        W94321  34.507  16.874  13.475
22596W        W94322  16.148  12.376   4.099
22597W        W94323  23.268   1.701   0.358
22598W        W94324   2.462   6.977  10.292
22599W        W94325  22.558  11.192   3.617
22600W        W94326  12.722  21.772   0.884
22601W        W94327  27.586  27.674   1.073
22602W        W94328  14.834  35.452  10.736
22603W        W94329  32.902  41.568  13.363
22604W        W94330  27.666  38.432   2.291
22605W        W94331  24.476   5.372   3.676
22606W        W94332  20.585  26.778  14.275
22607W        W94333  37.328   1.599   0.875
22608W        W94334  40.427  41.522  11.598
22609W        W94335  16.660  21.926  10.426
22610W        W94336   3.987  41.010  11.560
22611W        W94337  32.385  29.510  12.757
22612W        W94338  29.257  14.812  12.559
22613W        W94339   6.730   9.373   0.447
22614W        W94340  22.054  42.282  13.892
22615W        W94341  26.548   0.710   2.199
22616W        W94342   1.576  43.438   1.655
22617W        W94343  22.032   1.828   2.288
22618W        W94344   1.744  26.646  10.850
22619W        W94345  42.510  19.494   1.462
22620W        W94346   2.088  31.128  12.640
22621W        W94347  36.429  42.951  13.366
22622W        W94348  19.580  11.795  11.675
22623W        W94349  38.926  44.971   0.861
22624W        W94350  11.243  34.442   5.515
22625W        W94351  20.788  43.985   2.912
22626W        W94352  17.982  11.616  13.522
22627W        W94353   8.466  41.835  10.757
22628W        W94354  35.128  17.527   4.251
22629W        W94355   5.280  36.498  12.435
22630W        W94356  10.911  34.451   3.854
22631W        W94357  39.174  35.403   0.093
22632W        W94358  36.581   0.713   2.346
22633W        W94359  24.632  32.591  14.615
22634W        W94360   2.761  42.915   1.317
22635W        W94361  16.771  25.084   1.296
22636W        W94362  41.426  43.318   3.743
22637W        W94363  16.284   8.956   0.960
22638W        W94364   6.136  40.405   1.671
22639W        W94365  26.524   3.825   1.351
22640W        W94366  21.646   5.440  13.499
22641W        W94367  15.819   4.833   3.148
22642W        W94368  14.252  21.310   2.327
22643W        W94369   8.688  39.800  13.191
22644W        W94370  11.295  20.763  12.482
22645W        W94371  14.786   4.904  12.092
22646W        W94372  23.165   8.728   4.345
22647W        W94373  14.269  27.566  10.441
22648W        W94374  26.172   0.186  10.995
22649W        W94375   9.425   5.179  13.880
22650W        W94376   4.234  30.389  11.126
22651W        W94377  17.899   4.829   1.479
22652W        W94378  26.178   7.270  11.855
22653W        W94379  42.291  41.363  11.223
22654W        W94380  14.495  22.396   1.776
22655W        W94381  10.582  14.612   3.384
22656W        W94382  36.012  23.522  10.810
22657W        W94383  31.453  30.100   1.283
22658W        W94384  21.728  13.623  11.019
22659W        W94385   3.174  17.204   4.804
22660W        W94386  35.545  38.068  14.955
22661W        W94387  21.538  30.352  13.905
22662W        W94388  25.441   4.797  13.116
22663W        W94389  11.813  15.643  14.647
22664W        W94390  19.729  35.617  12.160
22665W        W94391  13.166   1.151   1.229
22666W        W94392   9.327  12.267   3.197
22667W        W94393   8.523   3.244   3.700
22668W        W94394   9.468  25.589   0.110
22669W        W94395  27.258  39.860  11.427
22670W        W94396  42.039  32.973  13.076
22671W        W94397  16.033  28.250  10.800
22672W        W94398  20.334  42.434   4.467
22673W        W94399  34.675   5.138  14.370
22674W        W94400   1.835  42.921   3.569
22675W        W94401   1.790  24.221   5.285
22676W        W94402   9.640  19.144   3.102
22677W        W94403  18.541  32.973   2.679
22678W        W94404   6.472   6.321   2.719
22679W        W94405  29.538  29.166  12.485
22680W        W94406  14.146  44.995  12.526
22681W        W94407  27.995  29.414  11.514
22682W        W94408  36.467  19.986  14.551
22683W        W94409  16.515  20.475  11.959
22684W        W94410   5.297  31.588   0.843
22685W        W94411  15.586  40.867  13.547
22686W        W94412  18.054  24.753   4.203
22687W        W94413  43.989  40.593   2.685
22688W        W94414   8.692   9.932  11.961
22689W        W94415   1.762  13.383   4.589
22690W        W94416  28.484   4.943  12.877
22691W        W94417   9.307  26.228  10.623
22692W        W94418  14.894   0.018   3.633
22693W        W94419  42.787  31.996  12.410
22694W        W94420   6.395  27.169  10.775
22695W        W94421  14.656  15.358  11.583
22696W        W94422  13.393  10.289   0.573
22697W        W94423  15.968  42.622  12.891
22698W        W94424  44.256  13.874   0.405
22699W        W94425  17.836  11.081  13.503
22700W        W94426  32.636  43.596  10.393
22701W        W94427  11.614  30.974   1.999
22702W        W94428   9.469  34.654  13.615
22703W        W94429  40.564   7.324   4.188
22704W        W94430  12.448  24.960   3.787
22705W        W94431  43.368   2.918  13.077
22706W        W94432  20.814   7.688   1.808
22707W        W94433  34.727  38.743  12.036
22708W        W94434   2.751  24.113   2.362
22709W        W94435  13.747  10.402  11.845
22710W        W94436  26.764  28.490  11.528
22711W        W94437  30.705  30.018  14.399
22712W        W94438  41.770  21.783  13.839
22713W        W94439  18.689  38.397  10.984
22714W        W94440  12.858  16.059   2.080
22715W        W94441  19.633   0.253   0.028
22716W        W94442  29.936  30.901   3.288
22717W        W94443  34.843  11.307   2.354
22718W        W94444  20.035   6.146  12.496
22719W        W94445   3.424  14.844   1.634
22720W        W94446  36.557  25.699  10.565
22721W        W94447  16.545   5.256   1.008
22722W        W94448  27.781  21.147   0.349
22723W        W94449  14.803  40.503  12.423
22724W        W94450   0.356  20.488  14.920
22725W        W94451   1.809   3.399   0.426
22726W        W94452   5.291  11.308   4.564
22727W        W94453  22.729   2.738  12.975
22728W        W94454   6.322  39.781  11.868
22729W        W94455   6.435   0.389   2.178
22730W        W94456   1.368  17.215  14.959
22731W        W94457  33.157  15.649   2.789
22732W        W94458  32.886   4.849  13.507
22733W        W94459   1.444  10.433  14.337
22734W        W94460   8.831  20.976   0.276
22735W        W94461  31.205  30.913  12.980
22736W        W94462  13.394   9.138   2.741
22737W        W94463   4.116  19.577   4.609
22738W        W94464  17.632  41.961  11.773
22739W        W94465  19.830   9.781  12.702
22740W        W94466  29.831  11.651  14.401
22741W        W94467  13.216  44.604   2.402
22742W        W94468   4.747   1.575  13.282
22743W        W94469  21.092  16.679   3.481
22744W        W94470   7.942   3.803  11.090
22745W        W94471   0.473   2.742   2.658
22746W        W94472  36.907  34.628   2.624
22747W        W94473  36.480  25.657   0.121
22748W        W94474   5.307  13.833   4.794
22749W        W94475  28.726  40.103   0.309
22750W        W94476  43.584  37.491  11.612
22751W        W94477  10.416   8.910  14.100
22752W        W94478  16.712   9.242  11.013
22753W        W94479  42.791  40.698  13.243
22754W        W94480  12.380   0.649  13.484
22755W        W94481  12.702  38.523   0.556
22756W        W94482   3.238   9.056   2.599
22757W        W94483  30.811   7.826   1.136
22758W        W94484  26.434  15.041  12.919
22759W        W94485  22.122  10.146  11.245
22760W        W94486  22.751  27.070  10.762
22761W        W94487  37.561   1.985  13.209
22762W        W94488  26.238  42.446   2.703
22763W        W94489  27.374  30.592  14.406
22764W        W94490   7.455  23.138   0.956
22765W        W94491  40.735  14.634  12.511
22766W        W94492   0.190  18.303   1.330
22767W        W94493   9.295   1.920   1.494
22768W        W94494  40.967  34.587  13.939
22769W        W94495  25.604  42.854   2.040
22770W        W94496  22.726  37.911   3.423
22771W        W94497  18.186   0.935   4.402
22772W        W94498  41.018  41.170   1.769
22773W        W94499  28.439  22.612  12.965
22774W        W94500   9.254  37.350  11.006
22775W        W94501  23.514   5.293   4.115
22776W        W94502  14.713  29.542  13.521
22777W        W94503  41.549   3.732  13.629
22778W        W94504  37.093  34.133  10.750
22779W        W94505  34.878  39.714  10.317
22780W        W94506  21.787  24.123  13.887
22781W        W94507  41.772  42.107  12.379
22782W        W94508   5.890  38.936   4.220
22783W        W94509   2.412  24.889  12.032
22784W        W94510   0.013  26.152  13.561
22785W        W94511   2.440  43.934   4.592
22786W        W94512  22.993  37.483   1.157
22787W        W94513  22.348  41.991  11.974
22788W        W94514  44.778  18.110   4.730
22789W        W94515   9.875  20.528   3.278
22790W        W94516   3.816   7.379   0.990
22791W        W94517  25.236  34.821  10.836
22792W        W94518  17.394  28.214   4.561
22793W        W94519  25.963  42.929   4.199
22794W        W94520  32.094  25.959   0.261
22795W        W94521  22.987  17.298  11.440
22796W        W94522   5.208  17.067  12.016
22797W        W94523  12.901   5.858   2.844
22798W        W94524   8.396  13.631   1.228
22799W        W94525  12.987  42.534   2.624
22800W        W94526  11.840  21.080   3.805
22801W        W94527   9.342  18.796   2.460
22802W        W94528  18.129   9.789  13.924
22803W        W94529  29.442  33.516  11.962
22804W        W94530  24.285  11.278   3.969
22805W        W94531  13.092  38.388  12.507
22806W        W94532  25.211  34.335   4.091
22807W        W94533  25.656  14.880  11.586
22808W        W94534  34.487  16.823  10.718
22809W        W94535  26.464  39.079  12.547
22810W        W94536   9.872   5.215  12.028
22811W        W94537  41.923  17.809   4.695
22812W        W94538  44.883  11.719  12.259
22813W        W94539   2.295  33.327   4.035
22814W        W94540   9.412  24.544  11.951
22815W        W94541   6.183  31.074   0.960
22816W        W94542  13.415  37.665   1.785
22817W        W94543   2.774  14.087  13.901
22818W        W94544   6.770  16.328  13.465
22819W        W94545   4.851   5.305  11.573
22820W        W94546  30.822  16.547   2.348
22821W        W94547  34.261   7.434   5.172
22822W        W94548  27.510  27.519   4.322
22823W        W94549  27.653   6.959   2.339
22824W        W94550   2.952  42.740   3.267
22825W        W94551  18.344  42.770  12.326
22826W        W94552  11.368  24.165   4.184
22827W        W94553   3.729  30.632  14.592
22828W        W94554  10.710   3.588  14.832
22829W        W94555  27.770  12.652   2.918
22830W        W94556   0.162  27.407  12.984
22831W        W94557  31.566  28.582   0.766
22832W        W94558  11.769  22.559  11.182
22833W        W94559   2.193  35.034   4.526
22834W        W94560  23.268  41.361  14.072
22835W        W94561  37.337  11.264   1.713
22836W        W94562  31.660   7.982   0.716
22837W        W94563   1.851  29.949  11.401
22838W        W94564   0.231   4.985   0.676
22839W        W94565   8.372  41.515  12.807
22840W        W94566   1.986   0.644  14.403
22841W        W94567  16.598  12.677   1.918
22842W        W94568  32.490  31.474  10.615
22843W        W94569  35.539  19.118   3.339
22844W        W94570  38.593  22.253   4.898
22845W        W94571  16.572  32.873   0.386
22846W        W94572   5.389  41.284  11.424
22847W        W94573   6.947  24.071  13.964
22848W        W94574  35.391   3.007   3.347
22849W        W94575  41.764  24.871   5.032
22850W        W94576  35.130  22.577   5.050
22851W        W94577  28.212  33.439   3.054
22852W        W94578  31.918  44.246  10.647
22853W        W94579  23.898  35.346   3.831
22854W        W94580   5.921  18.501  13.510
22855W        W94581  43.028  39.346  10.855
22856W        W94582   7.244   1.958   2.644
22857W        W94583   7.012  40.366  12.861
22858W        W94584  19.591  40.320   1.296
22859W        W94585  22.780   3.921  13.609
22860W        W94586  28.926  22.017  14.229
22861W        W94587  23.775  38.416  13.094
22862W        W94588  29.627  39.984  11.147
22863W        W94589  35.026  29.845   4.946
22864W        W94590   8.909  37.929  13.885
22865W        W94591   6.454  35.354  14.325
22866W        W94592  43.584  15.539   4.890
22867W        W94593   7.252  17.600  13.430
22868W        W94594   7.659  31.432   1.301
22869W        W94595   0.410  23.863   2.701
22870W        W94596   1.231   4.842   4.780
22871W        W94597  39.679  13.781  12.808
22872W        W94598   0.432   0.014   0.638
22873W        W94599  17.729   6.697  14.986
22874W        W94600   5.911   4.986  14.810
22875W        W94601   5.737  34.163  10.791
22876W        W94602  31.285  26.058   2.584
22877W        W94603  34.930  33.315   0.437
22878W        W94604  32.358   0.279  12.169
22879W        W94605  10.246  27.423  12.465
22880W        W94606  26.897  13.511   1.773
22881W        W94607  12.794  34.077  14.236
22882W        W94608  29.727   2.944  11.939
22883W        W94609  18.313  37.354  11.527
22884W        W94610   1.106  30.419  11.446
22885W        W94611  15.059  40.003  14.947
22886W        W94612  17.368  43.380  14.784
22887W        W94613  44.942  31.005  11.025
22888W        W94614  10.636  27.031  10.899
22889W        W94615  19.757  27.235   1.241
22890W        W94616  30.153   6.221  12.015
22891W        W94617  16.630   3.777   2.574
22892W        W94618  15.441  30.120   1.097
22893W        W94619   6.635  32.456   1.003
22894W        W94620  31.000   8.297   0.319
22895W        W94621  11.142  36.405   4.577
22896W        W94622  10.990  14.112   4.153
22897W        W94623   6.389  10.261  14.410
22898W        W94624  27.721  13.306   3.251
22899W        W94625   4.941  16.077  12.434
22900W        W94626   8.308  44.358  14.887
22901W        W94627   0.944   3.143  10.798
22902W        W94628  21.827  11.230   2.884
22903W        W94629  24.814  29.745  13.510
22904W        W94630   3.426  23.584  12.747
22905W        W94631  16.101  26.774   3.824
22906W        W94632  27.031  20.620  14.879
22907W        W94633  17.040  33.030  13.907
22908W        W94634   2.542  34.569   1.386
22909W        W94635  31.467   4.075   3.589
22910W        W94636   6.620  11.318   1.329
22911W        W94637  24.074  26.184   9.956
22912W        W94638  23.178  12.558  11.493
22913W        W94639  12.216  40.771  10.642
22914W        W94640   7.224  37.915  13.881
22915W        W94641   9.730  36.855   4.620
22916W        W94642  40.335   7.262  14.343
22917W        W94643   4.260  42.855   1.652
22918W        W94644  29.839  42.376  14.326
22919W        W94645  21.811  38.963  10.580
22920W        W94646  42.294  19.138  13.519
22921W        W94647  29.037  43.970   2.352
22922W        W94648   0.480  39.024  11.922
22923W        W94649  20.085  23.371  14.765
22924W        W94650   4.851  11.101  11.933
22925W        W94651   7.054  15.463   2.860
22926W        W94652  12.197  10.259  12.956
22927W        W94653  44.901  32.106  10.157
22928W        W94654  31.436   8.550  10.409
22929W        W94655  16.903   8.541  12.650
22930W        W94656  36.877  38.479   0.018
22931W        W94657   8.883  32.699   0.464
22932W        W94658  26.494   3.933  10.657
22933W        W94659  24.108  11.980   2.793
22934W        W94660  22.680  27.144   2.296
22935W        W94661  34.580  32.089   0.513
22936W        W94662  26.241   3.386  10.717
22937W        W94663  12.719  42.441  14.703
22938W        W94664  22.011   8.453  13.108
22939W        W94665  42.484  26.661   1.788
22940W        W94666  42.001   6.478   0.187
22941W        W94667  21.285  42.202   4.162
22942W        W94668  38.039  15.167   4.463
22943W        W94669  44.072  37.306  13.054
22944W        W94670  30.994  34.437  10.703
22945W        W94671   4.444  21.825   3.844
22946W        W94672   5.712  39.207   2.274
22947W        W94673  22.336  22.105   1.357
22948W        W94674  12.198  35.113  13.408
22949W        W94675  15.359  23.935   4.468
22950W        W94676  19.063  11.807  11.635
22951W        W94677   8.553  34.875   0.074
22952W        W94678  43.840  23.555  10.658
22953W        W94679  19.696   7.956   4.093
22954W        W94680  17.392  23.398  11.940
22955W        W94681  32.884  33.608  13.163
22956W        W94682  10.604  27.458  12.087
22957W        W94683  44.329  26.946   1.880
22958W        W94684   0.644  29.089  14.840
22959W        W94685  42.834  28.679  13.749
22960W        W94686  29.998   7.359   4.601
22961W        W94687   2.959  36.561   3.252
22962W        W94688  13.268  26.000   2.631
22963W        W94689  43.264  11.945   4.681
22964W        W94690  15.784   7.912   1.663
22965W        W94691   4.673  41.787   4.190
22966W        W94692  26.166  22.297  11.591
22967W        W94693  19.707   3.671  14.863
22968W        W94694  11.875  15.593   5.077
22969W        W94695   5.192  13.565  11.035
22970W        W94696  18.566  29.731   0.375
22971W        W94697  12.065   4.769  12.087
22972W        W94698   2.495   6.057   3.748
22973W        W94699  35.782  44.278  12.504
22974W        W94700  14.878  14.472  11.567
22975W        W94701   3.947  26.527   3.741
22976W        W94702  24.604  44.414  10.274
22977W        W94703  17.366  27.000  12.000
22978W        W94704  11.379   2.238  10.741
22979W        W94705  42.886  31.548  13.526
22980W        W94706  14.778   9.853  11.672
22981W        W94707  29.174  18.513  13.181
22982W        W94708  41.754   8.803   4.699
22983W        W94709  43.002  23.607   3.581
22984W        W94710   4.362  35.328  11.046
22985W        W94711  16.761  41.036   3.549
22986W        W94712  14.874  30.928  14.040
22987W        W94713  31.643  11.093  13.414
22988W        W94714   1.811  12.079  14.268
22989W        W94715  28.072  17.667  13.391
22990W        W94716  23.558  36.420  13.620
22991W        W94717  33.680  21.473  11.043
22992W        W94718  29.059  20.790   2.898
22993W        W94719  41.574  25.011   3.097
22994W        W94720   5.735  11.090  14.383
22995W        W94721   9.801  39.472   3.842
22996W        W94722   9.571  31.525   4.592
22997W        W94723   8.085  43.685   3.481
22998W        W94724   2.992   2.000   1.437
22999W        W94725  32.734  29.050  11.699
23000W        W94726  40.814  23.941  11.048
23001W        W94727  20.458  21.684   3.235
23002W        W94728  29.575  22.973  14.845
23003W        W94729  18.284  28.467  11.760
23004W        W94730  20.513  14.787   4.522
23005W        W94731  43.390  40.214  11.164
23006W        W94732  32.078  12.446   0.859
23007W        W94733  44.287  22.243  11.224
23008W        W94734  27.161  43.890   5.093
23009W        W94735  11.170   5.312   4.634
23010W        W94736  25.675  14.263  10.967
23011W        W94737  19.530   4.790   0.315
23012W        W94738  14.707  19.732   3.204
23013W        W94739   8.026  11.711   1.230
23014W        W94740  14.331  32.501   3.953
23015W        W94741  10.491   1.449   4.019
23016W        W94742  11.185  44.853   1.779
23017W        W94743  26.275  33.118  10.729
23018W        W94744  11.201  41.113   3.145
23019W        W94745   0.988   8.843   4.136
23020W        W94746  27.343   9.839   1.859
23021W        W94747  41.455   4.864  12.193
23022W        W94748   1.256   9.896  12.539
23023W        W94749  42.792   0.015  12.921
23024W        W94750  35.275  37.380   3.616
23025W        W94751   4.693  11.428   1.701
23026W        W94752  33.122  29.199   4.024
23027W        W94753  17.335  20.574   0.257
23028W        W94754  31.483  41.367  10.782
23029W        W94755  14.488  35.844  11.759
23030W        W94756  29.359  38.511  14.332
23031W        W94757  23.232  22.102  12.559
23032W        W94758  43.076  37.456  12.877
23033W        W94759   4.901  24.899   2.291
23034W        W94760  12.571  37.408  12.373
23035W        W94761   3.500  38.354   1.743
23036W        W94762  29.711  31.908   3.288
23037W        W94763  31.393   1.985   4.681
23038W        W94764  19.851  17.036  12.009
23039W        W94765   6.682  29.776   2.785
23040W        W94766  26.457  24.606   3.081
23041W        W94767   1.995  27.300   1.489
23042W        W94768  32.485  25.674   1.496
23043W        W94769  13.469  12.296   2.174
23044W        W94770  10.598   9.931  14.981
23045W        W94771  16.656  11.764  10.720
23046W        W94772  13.600  38.875  14.585
23047W        W94773  22.545  37.723   0.332
23048W        W94774  19.611  36.590   0.088
23049W        W94775  24.239  17.658   1.737
23050W        W94776  12.160   8.359   2.418
23051W        W94777  38.312  14.151   1.449
23052W        W94778   6.974  22.148   0.471
23053W        W94779  22.505   9.212  12.615
23054W        W94780  39.073  36.007   3.432
23055W        W94781  10.787  41.765   4.723
23056W        W94782  42.848  27.095   0.448
23057W        W94783  38.792  21.441   1.427
23058W        W94784   1.486  18.108   1.999
23059W        W94785  22.705   4.656   1.359
23060W        W94786  42.371  34.822  11.735
23061W        W94787  19.134   1.020   2.300
23062W        W94788  20.612   0.226   2.354
23063W        W94789   6.116  39.432   4.248
23064W        W94790  25.455   9.769  13.570
23065W        W94791   5.772  16.686  13.527
23066W        W94792  13.662   7.371  12.125
23067W        W94793  44.720  41.544  11.554
23068W        W94794   0.564  23.744   3.693
23069W        W94795   5.273  44.547  10.678
23070W        W94796  37.461  30.483  12.333
23071W        W94797  13.273  37.375   0.817
23072W        W94798  24.117   2.125   0.275
23073W        W94799  32.483  22.993  13.424
23074W        W94800  21.742   3.442  10.507
23075W        W94801  36.994  39.303   0.983
23076W        W94802  11.282  19.296   4.744
23077W        W94803  13.052  11.281   3.640
23078W        W94804  18.077   4.721   1.944
23079W        W94805  15.669   2.799  14.039
23080W        W94806  10.781  42.811  12.328
23081W        W94807   4.172  29.072  11.601
23082W        W94808  44.339  44.886  11.612
23083W        W94809  39.074   6.666   2.253
23084W        W94810  40.764  16.645   2.655
23085W        W94811  39.281   1.466   0.219
23086W        W94812  40.427   8.873  13.539
23087W        W94813   5.699   7.787  14.923
23088W        W94814  42.725  35.869  10.767
23089W        W94815  42.080  17.231  12.229
23090W        W94816  21.131  43.471  14.967
23091W        W94817   6.690  15.483  11.182
23092W        W94818  18.481  37.566   0.033
23093W        W94819  37.483  40.259  11.561
23094W        W94820  15.449  27.153  12.242
23095W        W94821   2.428  17.195  12.194
23096W        W94822  27.380  21.763  11.215
23097W        W94823  28.103  38.555  12.481
23098W        W94824  33.529  21.742  12.434
23099W        W94825  20.044  25.290   2.656
23100W        W94826  36.905  35.911  13.537
23101W        W94827  12.236  41.533  12.583
23102W        W94828  40.869  26.042  11.894
23103W        W94829  24.051  39.865   1.921
23104W        W94830  11.352  11.188  14.232
23105W        W94831  44.907  38.132   4.227
23106W        W94832  14.240  28.289   3.764
23107W        W94833  19.602  29.605  13.609
23108W        W94834  41.255  39.772   0.924
23109W        W94835   3.473   2.277   4.578
23110W        W94836  37.278  42.459  13.676
23111W        W94837  30.058   1.177   3.383
23112W        W94838   7.209  41.653   1.750
23113W        W94839   6.894  28.689  12.994
23114W        W94840  30.176   5.788   1.370
23115W        W94841  19.121  41.280   2.172
23116W        W94842  40.342  24.147   3.644
23117W        W94843  17.526  12.001   0.860
23118W        W94844  32.910   3.669   2.174
23119W        W94845  22.274   5.535  11.161
23120W        W94846  16.031  28.545  13.329
23121W        W94847  26.781  40.601  12.972
23122W        W94848   6.100  13.715   5.532
23123W        W94849  38.011  24.508   3.779
23124W        W94850  13.282  20.543  13.865
23125W        W94851  30.049  19.574  13.849
23126W        W94852  22.944  33.475  10.670
23127W        W94853  11.841  36.518   0.357
23128W        W94854   2.349  15.327   2.825
23129W        W94855  23.245   1.521   1.843
23130W        W94856  36.609  26.165   0.228
23131W        W94857  40.209  24.458  11.060
23132W        W94858  43.751  36.952  12.887
23133W        W94859  35.135  14.183  13.798
23134W        W94860   4.014  41.844   1.959
23135W        W94861  19.563  34.695  11.019
23136W        W94862  36.596  42.205  14.825
23137W        W94863   4.303  18.635  14.116
23138W        W94864  17.750  39.604   4.068
23139W        W94865   0.253  38.498   1.334
23140W        W94866  16.860  26.591  13.216
23141W        W94867   4.433  27.620  12.437
23142W        W94868   7.118  24.575  11.058
23143W        W94869  20.432  25.171  12.412
23144W        W94870   0.953  33.135   2.701
23145W        W94871  23.020  25.118   4.218
23146W        W94872  16.798  26.157  12.027
23147W        W94873  40.373  37.435  13.677
23148W        W94874   6.086   1.280  11.183
23149W        W94875   0.430   8.260   4.451
23150W        W94876  30.450  11.677  12.394
23151W        W94877   5.931  22.226  14.809
23152W        W94878   6.159  42.914   2.607
23153W        W94879  27.905  44.346   3.441
23154W        W94880   2.875   1.312  13.411
23155W        W94881  17.035  20.788   2.726
23156W        W94882  11.258   4.723  14.083
23157W        W94883  39.715   0.142  12.882
23158W        W94884   7.822  18.683  11.545
23159W        W94885  34.136  35.316  10.902
23160W        W94886  42.443   1.926   4.681
23161W        W94887  24.356   2.259  14.414
23162W        W94888  20.173  30.885  13.056
23163W        W94889  43.917   5.973   3.605
23164W        W94890  19.516  19.758  11.163
23165W        W94891  13.298  33.024   1.795
23166W        W94892  40.521  11.178  12.993
23167W        W94893   7.382  41.072  11.103
23168W        W94894  17.985   9.770   1.018
23169W        W94895  32.998  17.287  14.871
23170W        W94896  11.548  40.580   3.778
23171W        W94897  17.031  37.532  14.965
23172W        W94898  10.307  11.910  13.862
23173W        W94899  37.418   1.386   4.687
23174W        W94900  16.100  28.942   0.262
23175W        W94901  11.522  11.762  13.958
23176W        W94902  11.811  16.780   3.379
23177W        W94903  27.659  32.905   0.200
23178W        W94904  37.624  25.058  13.951
23179W        W94905  21.292  34.046  13.318
23180W        W94906  20.702  20.807   2.811
23181W        W94907  22.676  23.562  10.945
23182W        W94908  19.763  41.900  10.614
23183W        W94909  34.124  36.067   1.855
23184W        W94910   0.207  19.674   0.547
23185W        W94911   7.900  14.688   1.716
23186W        W94912  17.320  21.336  11.699
23187W        W94913  22.127  21.176  10.905
23188W        W94914  34.979  38.609   3.569
23189W        W94915  32.206  19.741   0.343
23190W        W94916  38.915  35.322  11.624
23191W        W94917   2.846   9.143   1.945
23192W        W94918  42.515  43.043   1.888
23193W        W94919  20.845  10.526   0.802
23194W        W94920  18.321  21.987  11.141
23195W        W94921  14.093  38.397  11.587
23196W        W94922  39.164   7.181   2.173
23197W        W94923  23.028  35.117   1.378
23198W        W94924  39.407  38.294  13.853
23199W        W94925  36.030  44.757  12.441
23200W        W94926  12.522  42.022   2.617
23201W        W94927  14.671  42.878   2.150
23202W        W94928  43.355  37.776   4.276
23203W        W94929  25.283   2.077   1.870
23204W        W94930   6.957  24.540  13.438
23205W        W94931   3.693  20.465  12.589
23206W        W94932  12.201  44.991  13.996
23207W        W94933  29.712   7.308   0.799
23208W        W94934  18.420  16.215   3.625
23209W        W94935  39.852  27.141   0.502
23210W        W94936  14.804   4.830   3.021
23211W        W94937  26.611  17.214  11.894
23212W        W94938  20.220  14.421   2.454
23213W        W94939  34.042  39.553  14.450
23214W        W94940  31.672  23.216   2.081
23215W        W94941  41.061  29.456  13.342
23216W        W94942  30.407  35.623   2.290
23217W        W94943   3.844   6.984  14.309
23218W        W94944  29.661   6.637  11.291
23219W        W94945  29.488  21.063  14.796
23220W        W94946   5.828   2.263   1.772
23221W        W94947   3.884   0.201   3.352
23222W        W94948  39.436   7.930  13.456
23223W        W94949  19.255  22.038  13.419
23224W        W94950  36.352   9.938  12.488
23225W        W94951  42.001  37.556   3.639
23226W        W94952  26.928  37.426  14.606
23227W        W94953  12.575  38.104   1.516
23228W        W94954  33.619  14.562   0.678
23229W        W94955  42.394  31.561   1.971
23230W        W94956  10.386  24.004   3.322
23231W        W94957  23.527  41.562   4.130
23232W        W94958   4.392  32.784  12.016
23233W        W94959  28.267  39.273   3.372
23234W        W94960  12.723  18.520  11.494
23235W        W94961  31.391  18.773  10.538
23236W        W94962  17.748  37.963   1.375
23237W        W94963  26.440  21.665  13.022
23238W        W94964  32.681  37.474   3.701
23239W        W94965  29.963  28.099  10.571
23240W        W94966  13.582  19.259  13.138
23241W        W94967  28.190  23.819  12.985
23242W        W94968  44.508  23.803  11.026
23243W        W94969  27.954  41.310  10.706
23244W        W94970  15.625  37.151   2.023
23245W        W94971  14.791  15.342  14.161
23246W        W94972  26.491  18.323  14.035
23247W        W94973  29.633  24.423   2.445
23248W        W94974   3.970  24.456   1.234
23249W        W94975  20.664   4.442   1.487
23250W        W94976  30.812  33.546   1.889
23251W        W94977  10.126   5.380  11.602
23252W        W94978   4.038  34.169   1.349
23253W        W94979  17.246   1.312  11.123
23254W        W94980  41.308  31.625  13.584
23255W        W94981  23.653  18.981   2.366
23256W        W94982   2.052  42.466  14.967
23257W        W94983  35.922   9.641   0.719
23258W        W94984  22.679  36.124  12.060
23259W        W94985   2.878   7.826  10.684
23260W        W94986  36.788  31.950   3.571
23261W        W94987   5.842  12.034   1.401
23262W        W94988  23.983   6.201  11.228
23263W        W94989  11.197   6.771  12.883
23264W        W94990   5.412   7.411   3.795
23265W        W94991  30.092  18.443  12.223
23266W        W94992  39.946  40.251   4.084
23267W        W94993   2.757  11.700  12.966
23268W        W94994  38.508  27.727  10.621
23269W        W94995  30.422  39.990   3.122
23270W        W94996  28.891   9.828   4.630
23271W        W94997  27.981  18.786  13.060
23272W        W94998  25.519  36.091  13.301
23273W        W94999  27.322  32.388  11.230
23274W        W95000   8.315  14.591   1.367
23275W        W95001   4.800  10.379   4.641
23276W        W95002   7.918  24.642   0.243
23277W        W95003  19.791  30.655  14.830
23278W        W95004  21.768  27.390  10.518
23279W        W95005   5.581  27.986   0.338
23280W        W95006  27.395  31.391   0.489
23281W        W95007  23.160  30.084   2.741
23282W        W95008  20.240  18.438  14.617
23283W        W95009   9.089  44.444   1.361
23284W        W95010   0.095  22.268   1.797
23285W        W95011  44.159  42.251   2.227
23286W        W95012  13.881  40.339   1.074
23287W        W95013   3.804  14.730   9.957
23288W        W95014  39.402  30.436   4.647
23289W        W95015   2.669  36.485   3.798
23290W        W95016   4.882  35.403  11.906
23291W        W95017   5.818   1.834  11.956
23292W        W95018  44.083   9.307  13.552
23293W        W95019  33.193   1.826  13.860
23294W        W95020  17.337  31.203  13.025
23295W        W95021  15.227  21.632   3.859
23296W        W95022   5.577  26.740   2.599
23297W        W95023  23.269  41.996  13.005
23298W        W95024   8.471  22.295  14.896
23299W        W95025  33.520  18.269   3.208
23300W        W95026  38.017  43.265  12.917
23301W        W95027  35.698   3.330   3.109
23302W        W95028  34.502   5.653   3.806
23303W        W95029   4.833  33.110   1.774
23304W        W95030   0.904  37.276  12.550
23305W        W95031  42.314  43.778  14.225
23306W        W95032  42.324  41.798   4.046
23307W        W95033  40.856  11.813  11.681
23308W        W95034   1.718  15.295   3.156
23309W        W95035  14.084  36.871  14.267
23310W        W95036  19.161  10.458   1.325
23311W        W95037  13.236  10.863  13.729
23312W        W95038   1.998  34.507   1.270
23313W        W95039  12.651  17.321   1.273
23314W        W95040   8.209  31.331   2.863
23315W        W95041   2.201  30.349   0.447
23316W        W95042  28.999  23.521   3.037
23317W        W95043  23.098   2.713   3.236
23318W        W95044  40.443   8.669   0.534
23319W        W95045  44.258  31.463   0.855
23320W        W95046  28.801  33.989   4.425
23321W        W95047   1.349  15.772  14.726
23322W        W95048  17.311  27.386   2.419
23323W        W95049  27.617  39.642  13.754
23324W        W95050  10.654  31.556   3.673
23325W        W95051   3.588   4.310  10.642
23326W        W95052  32.386  37.070   3.832
23327W        W95053   3.804  40.936  12.535
23328W        W95054  12.308  16.382  11.196
23329W        W95055   8.213  12.581  10.972
23330W        W95056  36.788  11.342  14.237
23331W        W95057   8.249   5.288   9.764
23332W        W95058   8.755  12.707   4.492
23333W        W95059  30.040   4.179   0.379
23334W        W95060  29.473  39.849   0.032
23335W        W95061  28.953  12.278  11.671
23336W        W95062  31.409   8.709  13.457
23337W        W95063  26.041  29.174  13.464
23338W        W95064   2.826  30.984   4.817
23339W        W95065  10.754  44.592  12.179
23340W        W95066  40.790  34.983   2.718
23341W        W95067   2.345  15.490  13.351
23342W        W95068  37.482   1.543  12.915
23343W        W95069  21.800  36.916   4.298
23344W        W95070  44.546  25.968  13.879
23345W        W95071  44.982  32.316  12.455
23346W        W95072  18.223  37.395   2.804
23347W        W95073  22.220   2.226  14.358
23348W        W95074  18.691   0.694  14.960
23349W        W95075   1.691  10.401   0.953
23350W        W95076  38.955  16.740  14.788
23351W        W95077  34.908  31.365   4.762
23352W        W95078   0.014  39.521  13.984
23353W        W95079  16.823  21.693   1.297
23354W        W95080  12.185  36.156  10.959
23355W        W95081   1.207  37.841   2.356
23356W        W95082  22.298  26.375  12.888
23357W        W95083   1.399  10.696   1.315
23358W        W95084   8.664  26.010   1.079
23359W        W95085   3.209  11.878   3.293
23360W        W95086   0.400  34.761  11.227
23361W        W95087  20.751   7.379  10.807
23362W        W95088  43.230   8.881  12.401
23363W        W95089  16.355  15.991  11.134
23364W        W95090  39.624  41.019   0.267
23365W        W95091  28.748  40.883  13.884
23366W        W95092  22.791   5.637  11.113
23367W        W95093  13.580  24.536   2.704
23368W        W95094  10.677  13.313   5.033
23369W        W95095  44.233  11.083  14.965
23370W        W95096  20.771  39.458   4.639
23371W        W95097  44.431  38.947   3.408
23372W        W95098  40.138   1.504   1.805
23373W        W95099  28.227  35.564  11.955
23374W        W95100  18.177  20.596   2.791
23375W        W95101  38.062  19.379   4.292
23376W        W95102  24.756  36.620   1.491
23377W        W95103   4.811  13.513   0.960
23378W        W95104  41.768  20.574  13.517
23379W        W95105  34.597  43.299   1.903
23380W        W95106  41.551  23.757   2.837
23381W        W95107  29.501  15.191  10.621
23382W        W95108  17.237  38.543  11.141
23383W        W95109  29.966   6.614  11.699
23384W        W95110  30.042  33.862  14.101
23385W        W95111   6.471  36.863   0.068
23386W        W95112  28.553  23.230  14.496
23387W        W95113  20.622   5.823   4.592
23388W        W95114  10.461  23.754  12.203
23389W        W95115   8.378  27.154  11.456
23390W        W95116  13.720   2.395  14.708
23391W        W95117  44.196  43.022   2.727
23392W        W95118  19.582  40.595  12.858
23393W        W95119   9.637  36.989  11.011
23394W        W95120  43.245  15.282   4.036
23395W        W95121  33.368  21.173  13.522
23396W        W95122  25.587  37.225   2.834
23397W        W95123  32.962  20.696  12.997
23398W        W95124  24.609   9.600   0.264
23399W        W95125  19.679  41.087  10.723
23400W        W95126   6.254  40.513   2.654
23401W        W95127   7.690  10.077  11.166
23402W        W95128  39.570  11.851  14.475
23403W        W95129  19.277  37.886   3.138
23404W        W95130   6.280  27.479  13.033
23405W        W95131  19.198   6.557  10.704
23406W        W95132   2.567  21.533   1.408
23407W        W95133   3.703  38.312   0.387
23408W        W95134  36.889  35.402   0.358
23409W        W95135  18.101  33.563  13.332
23410W        W95136  10.176  31.872   4.272
23411W        W95137  23.904  39.037  11.884
23412W        W95138   0.736  33.188   3.243
23413W        W95139  40.795  39.654   4.699
23414W        W95140  41.230  37.420  13.988
23415W        W95141  32.053  33.403  10.464
23416W        W95142  42.178  13.419   4.577
23417W        W95143  18.590  27.457  12.500
23418W        W95144  11.573  28.921  13.423
23419W        W95145   4.821   8.238  11.852
23420W        W95146  27.849  20.097  11.555
23421W        W95147  30.651  11.631   0.958
23422W        W95148  40.839  25.278  12.995
23423W        W95149   3.961  35.496   4.534
23424W        W95150  11.090   6.679  14.036
23425W        W95151   6.285  38.469   2.661
23426W        W95152   9.334  17.018  11.968
23427W        W95153  15.376  43.252   0.750
23428W        W95154   1.196  25.760   2.294
23429W        W95155  42.306  43.744  14.746
23430W        W95156   0.407  36.902  14.817
23431W        W95157  34.629   5.020   1.322
23432W        W95158  38.540  39.401   1.945
23433W        W95159  24.620   7.291   0.156
23434W        W95160  25.141   8.750  10.589
23435W        W95161  18.095  20.709  11.684
23436W        W95162  27.712  30.471  11.149
23437W        W95163  42.741  15.155   4.674
23438W        W95164  39.963  24.275  14.314
23439W        W95165  10.841  21.543   2.844
23440W        W95166  17.238   5.914  12.552
23441W        W95167   0.704  39.992   0.440
23442W        W95168  19.531  14.159  13.990
23443W        W95169   3.746  22.838  14.893
23444W        W95170  36.083  42.743  12.418
23445W        W95171   6.678   6.789  13.273
23446W        W95172   2.047   7.207  14.404
23447W        W95173  20.310  42.044  13.865
23448W        W95174  34.440   9.659  10.684
23449W        W95175  22.573  19.265   1.850
23450W        W95176  18.758  27.446   4.615
23451W        W95177   9.329   1.946   3.784
23452W        W95178   8.959  34.561  13.776
23453W        W95179  33.474   9.728   1.273
23454W        W95180  35.959  39.877   4.339
23455W        W95181  23.660  25.997   1.699
23456W        W95182  27.492  25.008   2.731
23457W        W95183  22.143  12.292   3.120
23458W        W95184  26.107  29.669   2.834
23459W        W95185  39.089  39.507  13.430
23460W        W95186  42.403  37.839   3.793
23461W        W95187  20.753  24.205  14.084
23462W        W95188  26.944  21.794  12.960
23463W        W95189  19.706   8.155  12.705
23464W        W95190  43.277  15.487  12.927
23465W        W95191  14.802  24.202  14.908
23466W        W95192  43.254  24.502   2.199
23467W        W95193  17.857  30.565  11.486
23468W        W95194  27.592  21.741   0.990
23469W        W95195  26.924  14.568   3.232
23470W        W95196  32.145   5.351  13.359
23471W        W95197  24.074  13.013   2.365
23472W        W95198  38.587  28.683  10.750
23473W        W95199  26.058  16.514  14.017
23474W        W95200   4.911  25.709   3.391
23475W        W95201  11.403  37.055   2.300
23476W        W95202   4.306  25.987  13.341
23477W        W95203   2.835   9.257   4.619
23478W        W95204  43.350  36.403   4.145
23479W        W95205   9.488   0.938  14.037
23480W        W95206  36.373  34.405  14.447
23481W        W95207  23.878  36.144  13.909
23482W        W95208  23.381  37.561  11.287
23483W        W95209  19.367  29.384   5.080
23484W        W95210  44.956  26.194   0.424
23485W        W95211   6.269  24.751  11.238
23486W        W95212  28.947  17.297   1.730
23487W        W95213  18.389   6.930   1.758
23488W        W95214  26.116  15.993  14.018
23489W        W95215  35.957   0.445  12.905
23490W        W95216   7.188  19.603   2.573
23491W        W95217  11.756  44.819  13.790
23492W        W95218  39.244  39.394   3.365
23493W        W95219   7.408  33.070  10.385
23494W        W95220  17.017   8.212  14.015
23495W        W95221   1.847   0.317  11.494
23496W        W95222  13.261   5.874   0.730
23497W        W95223  27.060  38.055   3.089
23498W        W95224  37.859  13.233   0.921
23499W        W95225  44.939  14.799  13.102
23500W        W95226  11.393  19.582   0.781
23501W        W95227  41.417  39.546   0.274
23502W        W95228   7.599  36.013   3.171
23503W        W95229  13.827  15.999   4.927
23504W        W95230  26.912  20.029   1.825
23505W        W95231   5.236  28.221  12.953
23506W        W95232  41.226   4.706  10.715
23507W        W95233  33.934   5.224  10.147
23508W        W95234  42.964   6.877   4.093
23509W        W95235  43.205  37.853   1.810
23510W        W95236  43.969  22.633  14.774
23511W        W95237  11.480  10.669   3.866
23512W        W95238  10.072  16.332   0.715
23513W        W95239  23.881  42.651   3.608
23514W        W95240   5.024  27.184  10.453
23515W        W95241  44.833   0.205  14.580
23516W        W95242  27.697  13.126  12.882
23517W        W95243  40.066  14.739   4.517
23518W        W95244  28.159  38.488   2.042
23519W        W95245   4.218   5.349  10.436
23520W        W95246   8.673  20.958  10.628
23521W        W95247   4.880  17.507   3.316
23522W        W95248  36.696  12.316  12.317
23523W        W95249  34.528  14.353   3.019
23524W        W95250  19.807  30.487  13.522
23525W        W95251  40.786  29.431  12.892
23526W        W95252  18.645  15.231   1.840
23527W        W95253  12.340  27.088   1.818
23528W        W95254   7.431  14.104   1.330
23529W        W95255  11.332   7.924   2.373
23530W        W95256  10.532  34.832  10.240
23531W        W95257   8.709   7.842   0.884
23532W        W95258  14.355  20.586   1.447
23533W        W95259  14.564  42.984   4.922
23534W        W95260  38.460  40.926  14.946
23535W        W95261  44.949  16.624  12.061
23536W        W95262  13.757  27.216   4.186
23537W        W95263  26.656  26.965   1.800
23538W        W95264  27.599   1.991  14.934
23539W        W95265  16.318  37.297  11.589
23540W        W95266  30.434  14.421   0.887
23541W        W95267  40.542  20.124   0.704
23542W        W95268  42.395  29.252  14.887
23543W        W95269  35.599  18.641  11.652
23544W        W95270  23.522  33.423   3.213
23545W        W95271  30.031  18.134  13.942
23546W        W95272  29.049  19.482   2.263
23547W        W95273  15.670  39.779   5.007
23548W        W95274  36.197  42.523  14.023
23549W        W95275   8.841  32.589  12.819
23550W        W95276  39.042  33.755   2.686
23551W        W95277  14.359   8.911  10.807
23552W        W95278   8.331  24.414  11.435
23553W        W95279  19.096  42.983  14.772
23554W        W95280  43.725  44.748   2.769
23555W        W95281  17.561  26.157  11.378
23556W        W95282  29.854  33.225  13.340
23557W        W95283  27.012  31.246   1.693
23558W        W95284   4.360  24.604   3.544
23559W        W95285  44.960  34.982   2.958
23560W        W95286  20.718  29.352   0.495
23561W        W95287  31.964  25.567   3.738
23562W        W95288   8.920   4.445   5.069
23563W        W95289  26.749  25.990  14.934
23564W        W95290  29.434  19.436  11.127
23565W        W95291  39.070   9.383  12.495
23566W        W95292   8.240  25.990   0.307
23567W        W95293  40.953  20.788  12.394
23568W        W95294  14.213  22.481   3.325
23569W        W95295   2.292   7.702   4.774
23570W        W95296  19.285   3.482   0.904
23571W        W95297  14.302  19.494  11.158
23572W        W95298   4.285  29.530   3.381
23573W        W95299  10.458  31.489  12.022
23574W        W95300  44.712  44.194   2.291
23575W        W95301   5.686  25.791  12.168
23576W        W95302   0.413  11.107  13.843
23577W        W95303   0.721  27.908   3.580
23578W        W95304   7.215  10.168   0.018
23579W        W95305  43.543  39.547  10.802
23580W        W95306  40.495  18.072  14.306
23581W        W95307  39.521   8.318  12.694
23582W        W95308  37.808   0.588   5.096
23583W        W95309  18.482  43.006  10.690
23584W        W95310  16.949  43.326   2.001
23585W        W95311  22.594   3.499   3.108
23586W        W95312  31.429   2.555   0.339
23587W        W95313  16.720  18.438   0.811
23588W        W95314  27.323  28.942   2.756
23589W        W95315  19.111  15.346  13.371
23590W        W95316  20.044  10.884   3.174
23591W        W95317  40.947  26.939   2.967
23592W        W95318   6.028  22.670  10.277
23593W        W95319   9.515   9.041  12.855
23594W        W95320  11.172   8.056  12.559
23595W        W95321  29.710  12.366   3.130
23596W        W95322  12.615  10.899  14.056
23597W        W95323  39.339  22.598  11.351
23598W        W95324   7.943  24.140  11.141
23599W        W95325   6.059  31.846  12.505
23600W        W95326  34.893  33.101   2.435
23601W        W95327   6.626  16.838  12.021
23602W        W95328  44.405  32.626  12.243
23603W        W95329   9.901   6.500   3.821
23604W        W95330  18.600  39.889  14.795
23605W        W95331  17.997   9.372   2.357
23606W        W95332   5.732  19.925   0.294
23607W        W95333   5.369  41.499  10.510
23608W        W95334  17.673  42.945   4.157
23609W        W95335  39.276  18.785   4.253
23610W        W95336  44.045  33.123   2.061
23611W        W95337   6.750  10.395  14.037
23612W        W95338   5.726  33.930  12.458
23613W        W95339  19.225  44.488   1.482
23614W        W95340   9.008  40.076   4.137
23615W        W95341  35.958  33.966   1.918
23616W        W95342  28.020  39.169  13.823
23617W        W95343  12.374  37.252   3.920
23618W        W95344  34.445  33.138  13.426
23619W        W95345   9.352  36.352   4.101
23620W        W95346  22.566   3.755   0.297
23621W        W95347  10.307  26.761   4.165
23622W        W95348  41.920   6.439   1.954
23623W        W95349  21.810  40.959  13.537
23624W        W95350   2.036  41.933   0.716
23625W        W95351  12.331  39.280   1.647
23626W        W95352  24.106  30.986  12.654
23627W        W95353  26.256  44.025   0.385
23628W        W95354  38.310  42.794   4.665
23629W        W95355  25.463  41.296  10.705
23630W        W95356   1.220  18.347   4.211
23631W        W95357  15.369   4.896   4.738
23632W        W95358  40.874  39.447  12.052
23633W        W95359  18.302  39.500   3.304
23634W        W95360  15.749  14.909   2.039
23635W        W95361  26.084  22.157   2.575
23636W        W95362  44.953  15.410   0.058
23637W        W95363  39.254   0.725   2.349
23638W        W95364  12.102  36.042   3.237
23639W        W95365  30.589   7.654   1.867
23640W        W95366  31.109  38.958   2.319
23641W        W95367  31.887  13.762   1.836
23642W        W95368   6.166  38.542  13.076
23643W        W95369  26.045  42.098   1.692
23644W        W95370   9.108   8.527   0.567
23645W        W95371  36.682  30.465   4.029
23646W        W95372  31.396  18.345  11.025
23647W        W95373  20.618   1.771   4.167
23648W        W95374   1.363  23.439  13.844
23649W        W95375  25.651  22.605  11.816
23650W        W95376   8.319  15.844  11.970
23651W        W95377  16.050  15.545  11.170
23652W        W95378  14.656  28.349  12.074
23653W        W95379  44.696  21.118  11.480
23654W        W95380  28.038  27.647   4.174
23655W        W95381   3.697  23.067   3.581
23656W        W95382  12.264  38.062   2.748
23657W        W95383  15.048  43.910  12.949
23658W        W95384  20.295  21.070   0.141
23659W        W95385  38.916  31.511   4.324
23660W        W95386  15.147  40.902  12.411
23661W        W95387  25.226  18.637  12.956
23662W        W95388  21.134   5.692   2.144
23663W        W95389  24.760  13.334   4.602
23664W        W95390   3.866  26.105   4.042
23665W        W95391  16.044   8.899   0.456
23666W        W95392  28.156   8.971   4.166
23667W        W95393  37.514   2.437  10.939
23668W        W95394   0.743   1.134  11.631
23669W        W95395  42.555  22.112   1.313
23670W        W95396  41.601  26.727  13.549
23671W        W95397  34.629  12.209   3.321
23672W        W95398  20.214  34.695   3.925
23673W        W95399  29.389  32.000   2.417
23674W        W95400  26.568  12.089   4.577
23675W        W95401   4.762  20.568   2.399
23676W        W95402  16.171  28.441   0.461
23677W        W95403  12.699  20.834  12.636
23678W        W95404  29.434  21.300  10.688
23679W        W95405   7.356  31.967   2.804
23680W        W95406  38.451  44.789   0.906
23681W        W95407   3.506  42.309   0.025
23682W        W95408  13.901  10.393   0.493
23683W        W95409  10.123  30.459  11.166
23684W        W95410  30.518   4.692  14.541
23685W        W95411  33.397  41.500   4.560
23686W        W95412  39.012  23.962  10.100
23687W        W95413  18.590  22.496   1.778
23688W        W95414   6.338  30.893  11.213
23689W        W95415  25.932   5.897  12.823
23690W        W95416  37.120   2.115   2.239
23691W        W95417  13.156  21.970   1.792
23692W        W95418   1.246  44.306   4.650
23693W        W95419   1.077   8.287  14.492
23694W        W95420  40.894   7.136   2.297
23695W        W95421  23.675  12.771   5.433
23696W        W95422  22.100  27.215  14.612
23697W        W95423  21.229  13.195  11.916
23698W        W95424  39.657  19.516  13.750
23699W        W95425  28.448  24.541   2.891
23700W        W95426  24.087   0.229   1.868
23701W        W95427   3.907  33.505  14.681
23702W        W95428  29.657  41.764  12.357
23703W        W95429  43.045  21.060  13.450
23704W        W95430  31.069  39.020  12.366
23705W        W95431  36.258   3.496  13.420
23706W        W95432   8.990  33.828   4.300
23707W        W95433  40.293  29.547   1.349
23708W        W95434   6.672   3.923  13.565
23709W        W95435  15.633  20.251   2.643
23710W        W95436  39.266  41.648   3.488
23711W        W95437  41.824   3.331  13.415
23712W        W95438  44.809  12.424  10.732
23713W        W95439  43.593   8.002   4.032
23714W        W95440  25.395  11.898   1.878
23715W        W95441  27.164  11.313   3.315
23716W        W95442   9.797  34.246  11.515
23717W        W95443  20.201  37.390  12.453
23718W        W95444  37.438  42.120   1.403
23719W        W95445  41.031   3.037  14.676
23720W        W95446  27.701   0.123   5.040
23721W        W95447  43.922  11.374  12.050
23722W        W95448  22.211  20.547   3.905
23723W        W95449  39.374  34.248  12.488
23724W        W95450  39.783  37.035   1.377
23725W        W95451   2.714   3.828   4.213
23726W        W95452   6.860   5.751   4.647
23727W        W95453  39.344  24.944   3.844
23728W        W95454  36.404  23.646   1.872
23729W        W95455  37.426  38.255  11.150
23730W        W95456  10.697  39.824   4.635
23731W        W95457   7.664  38.115  11.047
23732W        W95458  21.128  20.940   0.238
23733W        W95459  36.451  18.127   3.130
23734W        W95460  14.081  27.124  12.083
23735W        W95461  34.902  23.676   3.647
23736W        W95462  14.119  16.789   4.858
23737W        W95463  44.487  15.630  14.876
23738W        W95464   9.254  44.475   4.366
23739W        W95465   0.888   0.731  14.049
23740W        W95466  24.023  16.583   3.099
23741W        W95467  26.461   1.728  13.076
23742W        W95468  29.941  30.345   3.319
23743W        W95469  37.861  44.856  13.486
23744W        W95470  38.446  17.502   1.942
23745W        W95471   0.849   0.265   1.419
23746W        W95472   8.784  21.742  11.507
23747W        W95473  35.284  30.450   0.939
23748W        W95474  44.099   3.328  11.973
23749W        W95475  28.903  17.982   3.841
23750W        W95476  21.311  41.458  11.874
23751W        W95477   9.579  35.116  14.989
23752W        W95478   2.953  32.185  10.350
23753W        W95479   1.824  18.525  13.439
23754W        W95480   3.419  12.196  13.364
23755W        W95481  23.166  18.531  11.750
23756W        W95482  18.856  24.429  11.274
23757W        W95483  17.330  17.053  10.969
23758W        W95484  40.293  24.580  14.786
23759W        W95485   0.262   6.169   4.692
23760W        W95486  40.534   7.468   0.908
23761W        W95487  27.067  11.673  13.105
23762W        W95488  21.063   6.507   4.167
23763W        W95489  21.643  36.884  11.395
23764W        W95490  18.977  26.251   4.217
23765W        W95491  36.623   6.739  13.270
23766W        W95492   1.902  14.992  11.446
23767W        W95493  39.026  12.258   4.235
23768W        W95494  20.759  40.391  13.534
23769W        W95495  11.590  13.845   3.168
23770W        W95496   3.603   7.838   2.679
23771W        W95497  37.046  44.171  10.956
23772W        W95498   9.174   9.457  11.156
23773W        W95499  17.520   3.475   4.628
23774W        W95500  22.016  34.559   1.277
23775W        W95501  34.077  32.060  11.649
23776W        W95502   4.193  14.042   2.115
23777W        W95503  28.016  19.113  10.706
23778W        W95504  17.569   0.925  11.076
23779W        W95505  24.336  23.123  10.834
23780W        W95506   1.257  42.444  13.794
23781W        W95507  12.446  42.602   0.483
23782W        W95508  12.361  33.966  11.889
23783W        W95509  16.208   6.509   2.337
23784W        W95510  14.748   5.776  13.018
23785W        W95511  34.742  43.896  14.980
23786W        W95512  25.712  33.661  14.848
23787W        W95513  29.966  16.181  13.823
23788W        W95514  26.721   4.022   3.222
23789W        W95515  10.217   7.140   1.968
23790W        W95516   6.599  31.688   0.894
23791W        W95517  27.469  19.095   4.184
23792W        W95518  12.948   9.563   4.309
23793W        W95519  41.347  11.159  11.644
23794W        W95520  36.433   4.532  10.200
23795W        W95521  32.336  23.460  11.176
23796W        W95522  21.998  40.785   3.282
23797W        W95523   4.645   9.605  14.979
23798W        W95524  28.791  44.919   0.405
23799W        W95525  44.947  28.958  11.276
23800W        W95526  42.596  38.447   3.168
23801W        W95527  43.105  24.154  10.650
23802W        W95528  26.628  30.188   0.520
23803W        W95529  15.301  14.255   0.733
23804W        W95530  23.006  27.062  11.215
23805W        W95531  44.443  23.262   4.056
23806W        W95532  40.777  36.373   0.919
23807W        W95533  12.859  25.501   4.506
23808W        W95534  29.512  13.064  14.936
23809W        W95535   0.662  20.255   3.214
23810W        W95536  12.575  31.416  13.896
23811W        W95537  14.371  33.514   3.114
23812W        W95538  33.903   6.753   0.178
23813W        W95539  21.344  10.899  13.005
23814W        W95540  41.774  21.131  14.977
23815W        W95541  11.023   3.760  14.464
23816W        W95542  29.681   1.427  14.188
23817W        W95543  10.111   7.648   0.302
23818W        W95544   2.545  39.658  10.185
23819W        W95545  16.538  17.704  10.838
23820W        W95546   3.265  11.851  12.986
23821W        W95547  42.326  20.570   1.293
23822W        W95548   5.271   3.825   1.249
23823W        W95549  14.374  13.404  10.506
23824W        W95550  19.870  44.032   0.317
23825W        W95551  12.884  28.915  13.086
23826W        W95552  25.652  30.350  13.460
23827W        W95553   4.273  44.417   0.364
23828W        W95554  37.294  13.343   4.819
23829W        W95555  22.969  12.571   9.544
23830W        W95556  18.080   6.657   0.409
23831W        W95557  31.950  43.823  13.256
23832W        W95558  43.519  40.490   4.743
23833W        W95559   2.953  40.260  11.205
23834W        W95560  11.874  34.166   3.565
23835W        W95561  27.617   2.516   1.705
23836W        W95562  37.122   3.697   3.201
23837W        W95563  16.567   0.225   0.878
23838W        W95564  34.783  33.434  10.691
23839W        W95565  11.936   5.025   1.644
23840W        W95566  31.150  23.141  12.726
23841W        W95567  42.007  40.821  12.904
23842W        W95568   4.696  28.809  14.663
23843W        W95569  35.244  34.423  12.679
23844W        W95570  42.778  44.991   3.608
23845W        W95571  26.552  29.898   1.508
23846W        W95572   0.251   6.499  14.447
23847W        W95573  24.870  18.846   4.588
23848W        W95574  42.873  19.709   2.699
23849W        W95575   5.955  20.962  12.680
23850W        W95576  26.408   8.815  14.732
23851W        W95577  24.481  27.404   3.218
23852W        W95578  30.148   4.273   2.213
23853W        W95579  20.313   2.552   1.410
23854W        W95580  34.921  33.593   1.749
23855W        W95581  13.097   4.069   1.041
23856W        W95582  15.507  28.059   2.384
23857W        W95583  35.500   5.941   3.758
23858W        W95584  24.551   5.668  10.453
23859W        W95585  30.256  32.482  12.364
23860W        W95586  14.771  16.098   1.287
23861W        W95587  24.535   0.960   5.499
23862W        W95588  44.153  42.796   5.045
23863W        W95589   1.078  33.546   2.397
23864W        W95590   7.088   1.865  14.881
23865W        W95591  35.567   4.067   0.251
23866W        W95592  38.297  37.537   2.729
23867W        W95593  23.246  29.120  12.077
23868W        W95594   2.179  27.698   4.256
23869W        W95595  26.579  41.511  12.762
23870W        W95596  42.462  18.643   2.269
23871W        W95597  19.219   6.845   2.767
23872W        W95598   0.690  24.169  12.967
23873W        W95599  31.875  35.520   0.332
23874W        W95600  42.891   4.921  12.504
23875W        W95601  36.382  15.782   1.923
23876W        W95602  12.797  17.630   3.980
23877W        W95603  32.527   6.955  10.931
23878W        W95604  23.622  17.865  11.416
23879W        W95605  19.609  18.357   1.255
23880W        W95606  29.576  30.212   0.255
23881W        W95607  19.792  42.424  14.572
23882W        W95608  19.312  12.786  10.697
23883W        W95609   4.196  38.938   3.153
23884W        W95610  30.016  21.141   0.537
23885W        W95611   3.794  21.427  14.764
23886W        W95612  17.594  34.911   3.673
23887W        W95613   5.900  20.437   0.271
23888W        W95614  29.435  44.911  13.421
23889W        W95615  39.972  42.128   1.986
23890W        W95616  24.939  20.567   0.395
23891W        W95617  25.843   6.223   4.000
23892W        W95618  25.727  25.338  14.735
23893W        W95619  39.300  10.641  13.083
23894W        W95620  44.818  15.647  12.947
23895W        W95621  27.108   7.870   2.111
23896W        W95622   1.496  21.751  11.643
23897W        W95623   0.486  11.786   2.978
23898W        W95624  21.259   9.667  12.100
23899W        W95625  34.582   6.553  14.267
23900W        W95626  11.635  39.914  11.999
23901W        W95627  41.091  24.243   3.108
23902W        W95628   1.017   0.888   2.745
23903W        W95629  10.594  44.872   0.911
23904W        W95630   4.633  37.339   3.780
23905W        W95631   9.807  11.839   4.608
23906W        W95632  38.116  14.849  13.507
23907W        W95633  14.035  15.071   3.032
23908W        W95634  43.261  44.258   0.743
23909W        W95635  14.749  28.777   5.016
23910W        W95636  19.298  35.079   0.868
23911W        W95637  14.828  43.409  10.625
23912W        W95638  35.827  24.501   1.803
23913W        W95639   0.486  26.251   2.804
23914W        W95640  40.007  32.615   3.520
23915W        W95641  21.229  14.011   1.287
23916W        W95642  26.863  16.649  11.133
23917W        W95643  42.462   3.257  14.117
23918W        W95644  20.342   0.117   4.919
23919W        W95645  40.440  10.819  10.357
23920W        W95646  43.325  44.959  12.907
23921W        W95647  30.377  22.304   4.579
23922W        W95648  40.409   2.987   1.843
23923W        W95649   1.295  26.891  10.891
23924W        W95650  27.978  29.917  11.570
23925W        W95651  12.288  27.532   4.246
23926W        W95652  24.507  37.053   2.436
23927W        W95653   1.895  25.323   3.492
23928W        W95654   2.924  31.591   4.064
23929W        W95655  41.683  30.515  10.144
23930W        W95656  33.127   8.722  14.080
23931W        W95657   2.677  35.826   9.918
23932W        W95658  44.753   6.716  13.389
23933W        W95659   9.967  18.773   3.290
23934W        W95660  17.582  39.368   1.836
23935W        W95661  22.709   4.984  12.009
23936W        W95662  11.739  33.009   0.087
23937W        W95663  23.676  44.301   1.264
23938W        W95664  24.907  38.111  13.360
23939W        W95665   7.064   7.761   0.168
23940W        W95666  28.619  12.655  10.767
23941W        W95667   7.153  15.379  11.022
23942W        W95668  30.116  28.968  11.270
23943W        W95669  33.505   7.205   3.793
23944W        W95670  18.065   8.837  14.876
23945W        W95671  40.341  43.945  11.989
23946W        W95672   5.385  26.896   4.617
23947W        W95673  19.463  42.837   1.251
23948W        W95674  13.323  13.053  10.390
23949W        W95675   3.192  27.450   3.271
23950W        W95676  35.363  25.589   4.247
23951W        W95677  36.172  42.965  12.924
23952W        W95678  33.137  32.832  13.441
23953W        W95679  20.795  36.312  13.352
23954W        W95680  12.126  32.456   0.750
23955W        W95681   8.259  14.695  11.473
23956W        W95682   0.479  14.603  10.783
23957W        W95683  39.562  25.240  10.650
23958W        W95684  37.169   7.282   3.339
23959W        W95685  43.508  42.395  14.277
23960W        W95686   3.736  23.092   4.087
23961W        W95687  13.168  41.394   0.835
23962W        W95688  23.584   0.203  12.629
23963W        W95689   2.720   4.771  11.174
23964W        W95690  26.459  20.999  14.300
23965W        W95691   9.719   0.350   0.341
23966W        W95692   5.877  22.238   4.471
23967W        W95693   2.742   3.934   0.331
23968W        W95694  11.126  30.980  14.297
23969W        W95695  40.813  44.170  12.016
23970W        W95696   2.932   4.947   2.380
23971W        W95697  33.445   7.981   3.355
23972W        W95698   4.965  37.495  12.604
23973W        W95699  22.334   1.002  13.374
23974W        W95700  27.479   1.936   4.547
23975W        W95701  28.997  31.971  14.050
23976W        W95702  38.660  12.602  12.124
23977W        W95703  34.519  12.266  11.135
23978W        W95704  31.360  26.755   9.860
23979W        W95705   5.747  34.038   2.164
23980W        W95706  18.980  15.278   3.817
23981W        W95707  42.062  20.636  11.299
23982W        W95708  23.516  40.046  11.168
23983W        W95709  30.622   8.204  11.365
23984W        W95710  16.593  29.645   0.379
23985W        W95711  15.222   4.037  12.167
23986W        W95712   5.443   5.958   2.113
23987W        W95713   7.823   2.957   4.323
23988W        W95714  33.335  19.584   1.793
23989W        W95715   7.957  12.232   2.614
23990W        W95716  20.270  23.777   0.772
23991W        W95717  12.849  18.087   0.419
23992W        W95718  42.710  44.652   3.986
23993W        W95719   2.496  10.882  11.195
23994W        W95720  10.885  14.814  10.987
23995W        W95721   4.038  35.344   4.046
23996W        W95722  43.282   1.738  11.726
23997W        W95723  10.597  24.167   3.791
23998W        W95724  10.214  16.901   4.606
23999W        W95725  28.895  43.547   1.399
24000W        W95726  32.088  10.687  13.369
24001W        W95727  25.449   3.898  10.618
24002W        W95728   7.361  41.313  10.526
24003W        W95729   1.453  33.155  14.413
24004W        W95730  14.555  37.018   3.790
24005W        W95731   4.683   6.258   1.721
24006W        W95732  20.345  43.817  12.829
24007W        W95733  22.748  19.561   2.275
24008W        W95734  10.360  24.562   3.330
24009W        W95735  41.928   4.484   1.360
24010W        W95736  30.634  25.397  13.552
24011W        W95737  43.036  31.794   0.461
24012W        W95738  12.292   1.799  11.932
24013W        W95739  33.734  19.162   2.753
24014W        W95740  30.640  22.763  12.192
24015W        W95741  42.579  16.452  12.116
24016W        W95742  41.752  21.993  11.828
24017W        W95743  40.257  15.957  12.213
24018W        W95744  26.748  41.216  12.384
24019W        W95745  33.441  41.611  10.482
24020W        W95746  44.881  15.360  12.320
24021W        W95747   9.357  39.047   0.299
24022W        W95748  32.712  32.385   4.602
24023W        W95749  14.803  10.400  13.357
24024W        W95750  22.431  36.445  11.158
24025W        W95751  23.660  14.759  10.140
24026W        W95752  35.328   1.119  11.731
24027W        W95753   1.146  23.812  10.788
24028W        W95754  17.348  15.602   4.695
24029W        W95755   4.674  32.307   2.765
24030W        W95756  37.931   2.505   2.218
24031W        W95757   4.693  40.011   4.551
24032W        W95758   6.767  23.019  13.321
24033W        W95759  23.744  40.861   3.136
24034W        W95760   6.275   7.400   4.642
24035W        W95761  40.380  42.871  13.070
24036W        W95762  29.833  36.165  11.092
24037W        W95763  37.852  26.614  10.638
24038W        W95764   4.218  29.378   4.395
24039W        W95765   9.101  44.864  10.516
24040W        W95766  35.551  41.619   3.607
24041W        W95767  34.883  21.548   1.852
24042W        W95768  41.772   2.889  11.561
24043W        W95769   8.384  30.351   0.514
24044W        W95770  13.181   3.421  12.861
24045W        W95771  41.292  12.822  12.179
24046W        W95772  40.398   6.883  12.596
24047W        W95773  41.547   6.134  13.019
24048W        W95774  32.891  27.203  13.044
24049W        W95775   9.177  35.650   3.642
24050W        W95776  44.729  20.244   4.254
24051W        W95777  43.064  25.423  11.467
24052W        W95778  22.202   8.834   2.420
24053W        W95779   7.663   3.009   0.866
24054W        W95780   3.070  14.316   3.142
24055W        W95781  37.474  24.281  12.837
24056W        W95782  18.088  27.146   3.472
24057W        W95783  15.824  11.767  11.655
24058W        W95784   2.619   2.917  11.688
24059W        W95785  16.123  38.583  10.521
24060W        W95786  36.282  25.102   3.712
24061W        W95787   7.022   9.212  13.791
24062W        W95788  24.071   3.502  11.515
24063W        W95789   0.720  34.375  12.617
24064W        W95790  22.671  43.281   3.700
24065W        W95791  14.814  18.804   1.660
24066W        W95792  16.020  10.405  10.735
24067W        W95793  13.752   4.300  12.450
24068W        W95794  38.487  29.375   3.843
24069W        W95795  42.413  10.540  14.303
24070W        W95796  32.697   9.403   3.756
24071W        W95797  12.605   9.271   1.325
24072W        W95798  15.548  27.913  14.456
24073W        W95799  44.395  38.563   1.426
24074W        W95800  14.503  23.652  11.794
24075W        W95801  29.254  33.615   0.789
24076W        W95802  21.239  32.364   3.604
24077W        W95803  30.678  19.775   1.301
24078W        W95804  32.589   9.226   3.264
24079W        W95805  34.418  17.847  14.354
24080W        W95806  37.841   4.334   0.109
24081W        W95807  23.585  31.553   2.705
24082W        W95808  20.523  23.176   2.893
24083W        W95809   3.915  31.192  12.819
24084W        W95810  32.117   1.951   0.258
24085W        W95811  40.259  18.443   4.181
24086W        W95812   7.031  39.363  11.962
24087W        W95813  42.915   1.619   1.183
24088W        W95814  41.419  34.985  11.871
24089W        W95815  32.026  17.114  13.420
24090W        W95816   7.892  39.803   3.672
24091W        W95817   1.444   8.009   1.788
24092W        W95818  32.513  35.123   1.914
24093W        W95819   2.709  38.440   1.520
24094W        W95820  38.932  35.707  12.914
24095W        W95821  24.568  24.585  14.660
24096W        W95822  34.321  16.540  11.119
24097W        W95823  33.640   5.812   2.701
24098W        W95824  13.609  44.869   4.068
24099W        W95825  14.195  21.912  13.115
24100W        W95826  18.156  14.638  12.997
24101W        W95827   2.236   3.482   0.741
24102W        W95828   1.852   4.803  14.745
24103W        W95829  11.411   0.328   3.556
24104W        W95830   6.734  21.703  11.979
24105W        W95831  41.042  19.260  12.540
24106W        W95832  38.986  33.618  10.897
24107W        W95833  37.023  28.416   4.365
24108W        W95834  16.689  43.992   2.646
24109W        W95835  24.974  18.547  12.108
24110W        W95836  27.547   7.968   2.345
24111W        W95837  42.324  35.980   4.164
24112W        W95838  40.500  34.362  13.155
24113W        W95839  10.042  37.566  14.567
24114W        W95840   4.147  31.020  10.675
24115W        W95841  35.866  11.779   4.118
24116W        W95842  34.584  19.266  13.910
24117W        W95843   0.281  15.948  11.229
24118W        W95844   6.933   5.271   1.783
24119W        W95845  26.504   7.212   2.173
24120W        W95846  20.242  42.914  13.070
24121W        W95847  32.210  37.487   4.612
24122W        W95848  29.428  41.937   4.267
24123W        W95849  37.829  18.185  14.940
24124W        W95850  31.121   5.023   1.284
24125W        W95851  33.694  18.567   2.146
24126W        W95852  39.986  10.777   1.721
24127W        W95853  10.823  31.394  11.084
24128W        W95854   0.823   5.231  10.731
24129W        W95855  33.345  31.098   4.352
24130W        W95856  37.464  14.564  10.743
24131W        W95857  37.148  25.823   3.806
24132W        W95858  37.429  43.052   2.346
24133W        W95859  31.326  37.053   0.948
24134W        W95860  41.724  17.673   4.142
24135W        W95861  12.151  35.358  11.100
24136W        W95862  39.736  42.847  10.760
24137W        W95863  33.618  12.809  14.872
24138W        W95864  38.827  14.999   0.301
24139W        W95865  31.408  24.649   0.655
24140W        W95866   3.101  18.906   5.038
24141W        W95867  44.861  24.146  10.872
24142W        W95868  24.212  20.575  14.949
24143W        W95869  11.524   3.732   2.275
24144W        W95870  12.162  17.120   1.419
24145W        W95871  29.167   7.756   0.404
24146W        W95872  38.524  33.809   4.773
24147W        W95873   8.216  30.678   2.272
24148W        W95874  29.076  42.802   0.877
24149W        W95875   4.845   6.724   1.574
24150W        W95876  40.205  40.788  13.550
24151W        W95877  30.552  14.087  13.917
24152W        W95878  17.119  26.953   3.422
24153W        W95879  20.679  20.105   4.588
24154W        W95880  16.339   7.107   1.278
24155W        W95881  20.551   4.864  13.802
24156W        W95882  14.468  10.520   3.136
24157W        W95883  35.059  44.781   3.257
24158W        W95884  30.042   5.268  11.526
24159W        W95885   2.965  16.408   1.248
24160W        W95886  19.478  40.854   1.417
24161W        W95887   0.867  13.209   4.092
24162W        W95888  16.640  34.392  14.340
24163W        W95889  44.184  21.218   2.299
24164W        W95890  24.747  40.248  11.950
24165W        W95891  10.030  12.542  11.147
24166W        W95892  20.304  20.781  12.565
24167W        W95893  32.999   9.169  11.110
24168W        W95894  41.303  31.945   1.297
24169W        W95895  39.929   5.424  12.914
24170W        W95896  11.792  29.234   2.600
24171W        W95897   8.825   2.692  12.438
24172W        W95898  22.710   5.973  10.688
24173W        W95899  42.411  11.638   3.639
24174W        W95900  16.133  44.280  12.635
24175W        W95901  38.953  30.630  13.500
24176W        W95902   4.254  26.595  14.910
24177W        W95903  12.593  38.528   2.770
24178W        W95904  31.110  29.201   1.732
24179W        W95905  35.346  31.522  14.420
24180W        W95906   3.874  14.255   3.633
24181W        W95907  36.002  20.494   0.402
24182W        W95908  18.572  34.000   1.244
24183W        W95909  44.445   0.528  13.836
24184W        W95910  21.648  35.064  12.018
24185W        W95911   2.870   5.688  11.321
24186W        W95912  31.705  23.200   2.609
24187W        W95913  12.578  16.679   1.922
24188W        W95914  31.521  15.291   2.261
24189W        W95915  42.896  14.778  13.558
24190W        W95916  32.921  22.073  13.487
24191W        W95917  20.820   5.306  11.735
24192W        W95918  24.190  30.183   4.376
24193W        W95919  36.848  32.150  13.192
24194W        W95920  27.977   9.916  10.225
24195W        W95921  36.827  18.270  12.048
24196W        W95922  31.455   4.580  13.435
24197W        W95923  20.635   5.802   3.625
24198W        W95924  12.165   5.302   4.215
24199W        W95925  17.137  13.899  14.744
24200W        W95926   7.814   3.377   0.253
24201W        W95927  16.584   2.730  14.932
24202W        W95928  35.641  25.481  13.468
24203W        W95929   7.213  23.512   3.669
24204W        W95930   8.725  17.808   1.256
24205W        W95931  38.141  15.006   1.439
24206W        W95932   0.849  27.279  13.373
24207W        W95933  22.686  35.889  11.569
24208W        W95934  20.600   0.190  12.866
24209W        W95935  16.824  22.835  11.154
24210W        W95936  21.342  27.970   1.756
24211W        W95937  18.836  20.137  14.958
24212W        W95938  38.058   9.593   4.149
24213W        W95939  22.727   2.487   4.416
24214W        W95940  32.947  29.906   2.700
24215W        W95941  18.269   0.255  11.268
24216W        W95942  40.603   8.115   0.024
24217W        W95943  29.151   3.744  12.047
24218W        W95944  37.805  28.217   3.649
24219W        W95945  14.193  34.557  13.062
24220W        W95946  43.316  42.952   1.422
24221W        W95947  25.620  44.846   3.974
24222W        W95948   0.442  32.578  14.181
24223W        W95949  36.400  40.041  12.127
24224W        W95950  23.915  40.836   1.349
24225W        W95951  23.416  10.222  12.163
24226W        W95952  22.655  20.465  13.547
24227W        W95953  44.970  42.381  10.529
24228W        W95954  42.217   9.312   0.566
24229W        W95955  24.419  12.625   2.408
24230W        W95956   4.271  26.796  11.523
24231W        W95957  43.360  11.823  10.737
24232W        W95958  28.586   9.712  12.823
24233W        W95959  43.306  11.035  13.977
24234W        W95960  30.774   9.753   1.823
24235W        W95961  42.862  21.639   0.267
24236W        W95962  10.812   6.409  11.154
24237W        W95963  34.421  15.072  12.957
24238W        W95964  43.859   3.772  14.321
24239W        W95965   4.248  18.317  11.615
24240W        W95966  12.336  24.636   3.354
24241W        W95967  44.825   2.507   3.854
24242W        W95968  28.980  12.633  12.907
24243W        W95969  30.690  19.096   4.649
24244W        W95970  36.406  40.974   3.718
24245W        W95971  18.298   4.433  13.027
24246W        W95972  33.920  26.335  12.084
24247W        W95973  33.287  29.016  10.800
24248W        W95974  11.126   9.697   3.728
24249W        W95975  14.218  21.545   4.126
24250W        W95976   5.355   6.896   2.866
24251W        W95977  15.084  40.158   2.388
24252W        W95978   8.513  25.946  12.034
24253W        W95979  41.632  11.032  10.695
24254W        W95980  41.253  10.794   1.495
24255W        W95981   2.484  18.113  12.197
24256W        W95982  18.232   8.926   0.825
24257W        W95983  27.403   6.496  14.086
24258W        W95984  21.239  40.581   2.830
24259W        W95985  11.159  19.107   2.662
24260W        W95986  22.547  32.182   1.349
24261W        W95987  42.999  29.434   5.096
24262W        W95988   4.900  37.978   0.713
24263W        W95989   0.426  32.802  13.522
24264W        W95990  28.674   3.480   0.455
24265W        W95991  23.977  22.703   3.620
24266W        W95992  24.245  42.418  12.694
24267W        W95993   7.177  13.268   0.979
24268W        W95994  40.415  34.607   2.759
24269W        W95995  14.855   9.691  12.511
24270W        W95996  12.262  41.881   0.341
24271W        W95997  11.915  39.822  11.566
24272W        W95998  22.213  39.864   3.114
24273W        W95999  30.431  26.946  14.479
24274W        W96000   0.962  40.963  11.719
24275W        W96001  37.967  23.304  12.058
24276W        W96002  32.193  15.316  12.142
24277W        W96003  10.456  11.806  12.009
24278W        W96004  34.109  37.954  11.920
24279W        W96005  37.597  18.612  11.499
24280W        W96006   4.282   2.716   2.312
24281W        W96007  10.454   8.190   4.551
24282W        W96008   7.392  42.868  13.920
24283W        W96009   2.085  32.007   0.742
24284W        W96010  13.218  13.837  10.852
24285W        W96011  10.227   2.939  12.419
24286W        W96012  36.432  42.344  12.391
24287W        W96013  37.567  32.000   3.772
24288W        W96014  42.097   9.383  13.429
24289W        W96015   7.071  36.410  12.028
24290W        W96016  33.903  23.504  12.814
24291W        W96017   2.791  25.929  11.606
24292W        W96018  10.324   9.842   2.352
24293W        W96019  23.931  42.867  10.465
24294W        W96020  23.103  16.623   3.636
24295W        W96021  36.006  40.328   4.093
24296W        W96022  30.142  37.140  11.002
24297W        W96023  11.435  30.620  13.512
24298W        W96024  19.731  18.501  12.305
24299W        W96025  12.673  39.753  14.977
24300W        W96026  28.035  34.664   4.782
24301W        W96027  35.432  44.341  10.739
24302W        W96028  27.083  12.638   3.424
24303W        W96029   4.381  22.222   0.221
24304W        W96030  23.091   5.205  11.198
24305W        W96031  28.477  10.195   4.556
24306W        W96032  23.572  11.595   1.241
24307W        W96033  32.196  20.681  13.537
24308W        W96034   9.309  44.265  14.934
24309W        W96035  18.065  40.983  14.340
24310W        W96036  33.041  42.335   3.495
24311W        W96037  41.092   6.185  10.733
24312W        W96038  42.783   5.090  14.303
24313W        W96039   3.228  29.996   0.508
24314W        W96040  38.644  31.686   0.059
24315W        W96041   1.565   3.002   1.277
24316W        W96042  33.041   9.749   4.786
24317W        W96043   8.701   6.859  14.795
24318W        W96044  26.499  19.675  11.967
24319W        W96045   2.884  20.150   3.668
24320W        W96046  32.948  23.637   0.017
24321W        W96047  39.483   1.426   3.274
24322W        W96048   1.169  13.289   4.562
24323W        W96049  11.198  13.180   1.474
24324W        W96050  25.407   0.269  11.254
24325W        W96051  38.383   0.869   2.809
24326W        W96052  42.895  12.195   2.095
24327W        W96053  23.972  33.477   2.981
24328W        W96054  26.118  16.230  11.057
24329W        W96055  35.017  30.896   0.443
24330W        W96056   7.714   0.263  13.328
24331W        W96057   4.910  10.750  12.315
24332W        W96058  21.207  13.620  14.257
24333W        W96059  20.704  39.291   2.769
24334W        W96060  43.442  31.512  11.636
24335W        W96061  10.878  40.852   2.848
24336W        W96062  36.901   5.077  12.985
24337W        W96063  36.610  19.227  14.161
24338W        W96064  22.502  25.637  14.502
24339W        W96065  11.347   6.328  12.176
24340W        W96066  30.641   2.932  13.974
24341W        W96067  27.633  15.823   3.278
24342W        W96068   9.468  37.077   1.360
24343W        W96069   8.282  10.205   2.997
24344W        W96070   1.648  27.271  14.074
24345W        W96071   8.387  36.171   0.288
24346W        W96072  23.646  31.087  12.290
24347W        W96073  21.201   4.323   5.090
24348W        W96074  37.181  44.872   0.410
24349W        W96075  20.044  15.282  13.540
24350W        W96076   9.412   9.429   0.917
24351W        W96077   5.800  18.119   4.020
24352W        W96078  40.985  13.808   1.188
24353W        W96079   1.857   0.428   1.697
24354W        W96080  42.935  32.132  11.934
24355W        W96081  32.916  41.157  10.115
24356W        W96082  32.137   9.943   2.256
24357W        W96083  10.874  16.767  10.725
24358W        W96084  42.752   4.340  13.504
24359W        W96085  24.068  22.270   2.614
24360W        W96086   3.045  34.111  11.099
24361W        W96087  11.147   9.750   0.251
24362W        W96088  13.461   7.738   4.543
24363W        W96089   9.254   6.130   4.471
24364W        W96090   3.344  27.190   3.742
24365W        W96091   2.290  10.094  13.364
24366W        W96092  19.814  10.950   2.729
24367W        W96093  36.342  14.250  13.429
24368W        W96094   2.961   7.427   1.224
24369W        W96095  16.088   0.264  12.497
24370W        W96096  30.546   2.447   4.758
24371W        W96097   4.757   6.708  13.284
24372W        W96098  36.861  16.744   2.713
24373W        W96099  29.064  43.307  11.450
24374W        W96100   0.014   0.901   0.725
24375W        W96101  34.986  24.620   4.949
24376W        W96102   2.304  32.863   2.271
24377W        W96103   4.375  25.049  13.501
24378W        W96104  36.790  34.540   0.232
24379W        W96105  42.783  20.078  11.588
24380W        W96106   4.400  33.120  14.132
24381W        W96107  17.024  23.845  10.050
24382W        W96108   8.518   4.112   5.023
24383W        W96109  30.894  13.852   0.421
24384W        W96110  12.608  22.369   4.248
24385W        W96111  17.291  25.171   3.376
24386W        W96112  23.083  28.004   3.889
24387W        W96113  35.987  33.716   4.514
24388W        W96114  42.529  36.921  12.079
24389W        W96115  44.033   6.748  11.308
24390W        W96116  14.406  17.283  13.339
24391W        W96117  17.746  32.637   3.179
24392W        W96118  25.596  14.828   3.253
24393W        W96119  27.747  28.313  10.219
24394W        W96120  20.724  26.518   9.725
24395W        W96121  29.636  11.115   2.274
24396W        W96122  35.942  15.064   0.408
24397W        W96123  14.712  15.714  14.545
24398W        W96124  24.615   8.706   1.364
24399W        W96125  33.540  19.438   2.325
24400W        W96126  22.459  26.100   3.163
24401W        W96127  21.321  21.295   3.547
24402W        W96128  22.094  16.115  10.488
24403W        W96129  33.015  39.944  12.483
24404W        W96130  21.748  39.556   4.345
24405W        W96131  29.715  10.622  13.814
24406W        W96132  25.103  25.028   3.753
24407W        W96133  15.358  25.138  11.495
24408W        W96134   5.741  37.947  14.630
24409W        W96135  24.596  13.040   1.229
24410W        W96136  23.531  31.899  14.938
24411W        W96137   8.138  25.286   9.844
24412W        W96138  16.966  26.091   1.448
24413W        W96139  23.983   4.342   0.439
24414W        W96140  24.664  25.457   4.696
24415W        W96141  35.865  15.844   1.789
24416W        W96142  18.645  21.280   3.318
24417W        W96143  21.814  38.607   2.210
24418W        W96144  17.398   2.859  14.389
24419W        W96145   2.245  35.521   4.725
24420W        W96146  39.361   2.806  12.129
24421W        W96147   8.218  13.398   1.667
24422W        W96148  35.074  18.120  12.497
24423W        W96149  26.473   8.124   3.640
24424W        W96150  27.594   8.130   1.208
24425W        W96151  14.791  30.382   1.357
24426W        W96152  23.766  35.820   3.615
24427W        W96153  16.729  20.080   1.451
24428W        W96154  36.940  18.766  12.074
24429W        W96155  44.685  12.339   3.193
24430W        W96156  21.471   6.276  12.565
24431W        W96157  43.219  21.159   4.589
24432W        W96158   4.741   1.768   3.594
24433W        W96159  42.134  40.275  13.378
24434W        W96160  40.660   0.910   1.902
24435W        W96161  36.834   2.159   4.580
24436W        W96162  31.755   7.750   2.732
24437W        W96163  44.306  32.906  10.420
24438W        W96164  13.302   6.706  12.424
24439W        W96165   6.759   1.984  13.201
24440W        W96166  13.838  42.326  13.004
24441W        W96167  44.383  12.610  14.043
24442W        W96168  30.604  15.525   2.711
24443W        W96169  22.578  24.618   4.688
24444W        W96170  27.877   6.283  13.998
24445W        W96171  35.660   4.847  14.914
24446W        W96172  16.253   2.557   2.315
24447W        W96173  13.725   6.111   0.799
24448W        W96174  29.892  22.758  11.484
24449W        W96175  24.104   1.328   4.750
24450W        W96176   0.245  18.096  11.079
24451W        W96177   1.844  20.227   3.396
24452W        W96178  34.791  13.936   2.777
24453W        W96179  16.515  42.079   3.260
24454W        W96180   3.373  41.328  11.904
24455W        W96181   9.337  41.878  12.341
24456W        W96182  29.972   5.169  12.955
24457W        W96183  44.561   0.656  14.327
24458W        W96184   2.904  32.932   2.848
24459W        W96185   6.598   2.025  14.894
24460W        W96186  24.384  31.858   1.557
24461W        W96187  14.283  19.620  11.649
24462W        W96188   1.068   4.321   4.723
24463W        W96189  44.271  10.470  12.625
24464W        W96190   2.265  39.886   4.751
24465W        W96191  28.472  33.498  12.087
24466W        W96192   9.662  39.522   1.346
24467W        W96193  16.518  24.593  13.017
24468W        W96194  17.729  40.298  13.820
24469W        W96195  40.756   3.876  12.903
24470W        W96196  22.636  20.665  13.050
24471W        W96197   9.159  40.425   0.198
24472W        W96198  37.192  36.334  11.485
24473W        W96199  18.483   9.277   2.237
24474W        W96200  11.369   0.004  12.442
24475W        W96201  20.162  18.206   1.298
24476W        W96202  15.710   0.984  11.180
24477W        W96203  28.258  36.630   2.248
24478W        W96204  28.864  16.768   4.459
24479W        W96205  17.215   7.199  10.792
24480W        W96206   4.385  35.068   4.332
24481W        W96207   4.463  25.645   0.371
24482W        W96208  34.700  13.827   0.149
24483W        W96209  15.415  16.719   3.942
24484W        W96210  15.368  15.883  11.848
24485W        W96211  18.746  26.141  12.484
24486W        W96212  29.937  32.646  13.814
24487W        W96213   6.310  44.744   3.479
24488W        W96214   2.148   9.612   3.009
24489W        W96215   8.882  35.545  14.917
24490W        W96216  10.427  41.324  13.047
24491W        W96217  15.036  12.390   3.258
24492W        W96218  36.297  24.284  11.131
24493W        W96219  40.130  33.744   2.762
24494W        W96220  17.366   7.896  11.890
24495W        W96221  38.649  16.226  13.976
24496W        W96222   7.732  13.665  10.103
24497W        W96223  19.470  10.463  13.934
24498W        W96224   4.250   5.789   0.427
24499W        W96225   5.016  16.324  12.901
24500W        W96226  38.529  31.160   4.308
24501W        W96227  31.438  30.400   0.399
24502W        W96228  41.754  28.928  11.947
24503W        W96229  38.164  23.071  11.600
24504W        W96230   6.195  26.536   3.379
24505W        W96231   5.254  34.584   3.586
24506W        W96232  18.290  41.460   0.890
24507W        W96233  43.787  33.441   4.497
24508W        W96234   6.829  18.703  11.478
24509W        W96235  19.617  22.984  11.130
24510W        W96236  18.503   4.924   0.588
24511W        W96237  15.146  30.630   4.331
24512W        W96238  33.652  25.057  11.624
24513W        W96239  11.585  33.141   3.241
24514W        W96240  21.001  20.562   3.745
24515W        W96241  17.822  35.407  11.745
24516W        W96242  38.821   9.788  14.005
24517W        W96243  22.837  22.537  12.048
24518W        W96244  41.511  32.142   4.343
24519W        W96245  18.474  33.114   3.743
24520W        W96246  35.293   5.562   2.507
24521W        W96247  41.073  37.321   2.307
24522W        W96248  18.363  26.648  12.977
24523W        W96249  31.200  37.635   0.845
24524W        W96250  41.442  31.443   1.309
24525W        W96251  18.788  15.313   3.301
24526W        W96252   5.023  40.243   0.730
24527W        W96253  14.752  17.150  10.813
24528W        W96254  38.040   5.277  14.927
24529W        W96255  32.481   7.201  11.565
24530W        W96256  23.712   6.692   2.185
24531W        W96257  39.929  12.616  12.359
24532W        W96258   7.782  36.386  13.443
24533W        W96259  10.078  10.567  10.420
24534W        W96260  25.815  43.871  12.022
24535W        W96261  41.523  38.005  14.765
24536W        W96262  36.398  33.467  10.585
24537W        W96263  31.747  14.510   1.967
24538W        W96264   4.695  41.880   3.682
24539W        W96265  21.150  25.487   0.263
24540W        W96266   5.264  32.968   2.045
24541W        W96267  25.091  15.354  12.017
24542W        W96268  13.820   4.312   4.699
24543W        W96269  37.402  30.190   1.671
24544W        W96270  37.154  27.160   2.361
24545W        W96271  21.241   8.916  13.587
24546W        W96272  33.140   4.917   2.925
24547W        W96273  24.621  10.164   0.748
24548W        W96274  19.615  14.344  12.984
24549W        W96275  22.459  19.247  12.923
24550W        W96276  43.897  17.298  14.754
24551W        W96277  13.817  32.317   1.744
24552W        W96278  21.163  19.202  11.612
24553W        W96279  24.921  14.906   4.314
24554W        W96280   2.797  31.604   0.465
24555W        W96281   9.685  26.667  12.675
24556W        W96282  28.959  25.013   9.632
24557W        W96283  21.637  19.747  13.627
24558W        W96284  15.206  38.106  10.595
24559W        W96285  39.458  22.979  13.001
24560W        W96286   3.354  11.126   3.587
24561W        W96287   3.520  36.869  13.848
24562W        W96288  28.719  40.503   1.926
24563W        W96289  32.913  38.331   4.109
24564W        W96290  19.645  22.296  12.154
24565W        W96291  21.116  25.188   3.466
24566W        W96292  22.103   1.259   4.950
24567W        W96293  11.665  14.863  10.726
24568W        W96294   8.294  29.289  14.674
24569W        W96295  10.803  32.740   1.178
24570W        W96296   1.175  30.092   1.251
24571W        W96297  31.658  18.274  14.459
24572W        W96298  38.063   5.901  11.271
24573W        W96299  10.872  20.666   0.506
24574W        W96300   1.365  22.142   4.595
24575W        W96301  32.041  27.698   0.551
24576W        W96302  32.320  10.282   3.342
24577W        W96303  11.367  18.008   3.876
24578W        W96304  14.893   6.114   1.855
24579W        W96305  24.177  21.878  13.351
24580W        W96306  27.650   2.788   2.625
24581W        W96307   4.688  13.696  11.009
24582W        W96308  14.698  39.863  12.048
24583W        W96309  40.797  42.254  14.193
24584W        W96310  36.615  12.884  14.951
24585W        W96311  19.890  22.024  11.136
24586W        W96312  37.912  26.447   3.409
24587W        W96313  30.547  16.601   2.806
24588W        W96314  28.578  27.257   3.604
24589W        W96315  35.415  39.813   2.126
24590W        W96316  36.061  35.541  12.411
24591W        W96317  23.757  30.983  10.623
24592W        W96318  42.411  44.454  14.075
24593W        W96319  32.505  25.684  14.337
24594W        W96320  10.137  14.879   1.773
24595W        W96321   0.981   9.366   4.099
24596W        W96322   2.740  24.741  10.177
24597W        W96323  16.068  15.865  12.957
24598W        W96324  38.900  11.303  13.482
24599W        W96325  11.251  40.943  13.133
24600W        W96326   1.904  21.750  10.930
24601W        W96327  14.293  17.266   3.609
24602W        W96328  14.414  16.541  10.765
24603W        W96329  14.298  39.588   4.306
24604W        W96330  15.216  17.673   4.457
24605W        W96331  17.177  18.107   4.763
24606W        W96332  20.128   4.803   1.810
24607W        W96333  24.051  23.943  14.928
24608W        W96334   8.222  21.113  12.516
24609W        W96335  14.450   3.425   1.620
24610W        W96336  16.833  33.314   0.249
24611W        W96337  10.622  27.580   4.219
24612W        W96338   4.409  30.580  10.666
24613W        W96339  31.094  43.601  13.576
24614W        W96340   6.483  43.077  13.784
24615W        W96341  13.990   3.170   4.161
24616W        W96342   7.843  30.589   1.873
24617W        W96343  31.899  30.256  11.148
24618W        W96344   5.249  24.055   2.335
24619W        W96345  14.251   7.390  11.911
24620W        W96346  26.613   0.995   1.764
24621W        W96347   4.284   3.842  14.508
24622W        W96348   1.798  33.525   1.908
24623W        W96349  34.998  38.336  11.879
24624W        W96350   2.350  42.535  13.403
24625W        W96351  15.825  28.706  10.688
24626W        W96352  38.476  35.033  13.848
24627W        W96353  10.635  15.683  13.749
24628W        W96354  33.807  19.220  13.429
24629W        W96355  39.516   6.484   9.819
24630W        W96356  42.864  28.037  13.090
24631W        W96357   0.973  21.382   1.429
24632W        W96358  14.473   2.664   0.607
24633W        W96359  38.886  25.574  14.026
24634W        W96360  37.061  18.217  12.514
24635W        W96361  29.022  37.565   0.397
24636W        W96362  34.165  10.702  12.427
24637W        W96363  35.356  35.955   2.333
24638W        W96364   9.236  37.964   4.754
24639W        W96365  29.631   8.012  13.368
24640W        W96366   1.960  37.582  11.108
24641W        W96367   7.991  24.532  13.436
24642W        W96368  32.602  17.001  14.075
24643W        W96369  31.752   6.869   1.183
24644W        W96370   6.728   8.290   0.708
24645W        W96371  21.807   8.133  13.494
24646W        W96372  44.960  13.905  13.001
24647W        W96373  12.389  12.859   0.865
24648W        W96374  19.712  31.031  10.537
24649W        W96375   6.242  36.138   2.209
24650W        W96376  36.441  35.451   2.148
24651W        W96377  15.565  36.858  13.400
24652W        W96378  33.053  31.684  14.996
24653W        W96379  18.128   4.648   0.389
24654W        W96380   5.882  34.875   3.260
24655W        W96381   1.501  29.087  11.819
24656W        W96382  40.287  25.496   3.100
24657W        W96383  23.727  32.973  10.628
24658W        W96384  30.593  13.082   0.551
24659W        W96385  39.954   8.698  14.827
24660W        W96386  15.775  44.519   2.821
24661W        W96387  25.923  16.716  12.818
24662W        W96388  26.739  28.538  14.984
24663W        W96389   5.337  33.144  12.422
24664W        W96390  16.972  35.536   3.338
24665W        W96391   6.687  29.588   3.820
24666W        W96392   1.612  32.423  14.352
24667W        W96393   4.162  26.922   4.305
24668W        W96394   2.338  31.631  14.820
24669W        W96395  29.896   2.464  11.838
24670W        W96396   3.319  41.643  14.505
24671W        W96397  20.840  12.820   3.267
24672W        W96398  36.412  35.248  13.546
24673W        W96399  37.026   4.806  12.514
24674W        W96400  34.808   9.276  12.108
24675W        W96401   1.971   5.268  10.498
24676W        W96402  17.473  12.584  13.638
24677W        W96403  18.396  39.962   3.604
24678W        W96404  22.761  42.053  12.980
24679W        W96405   7.117  20.074  11.076
24680W        W96406  31.715  18.735  12.952
24681W        W96407   4.327  22.584  14.294
24682W        W96408  37.584   4.112  14.577
24683W        W96409  40.612  38.753  12.454
24684W        W96410   3.488  15.770   0.019
24685W        W96411  16.864  12.147   3.282
24686W        W96412  16.246  37.731   4.112
24687W        W96413  10.546  18.800  12.592
24688W        W96414  21.156  21.645   3.877
24689W        W96415  17.348  12.809  14.751
24690W        W96416  33.029  28.948   3.028
24691W        W96417  35.960  18.809   0.181
24692W        W96418   3.731  12.406   5.134
24693W        W96419  43.501  19.934  13.210
24694W        W96420  36.645  12.264  13.822
24695W        W96421  24.780  40.729   0.014
24696W        W96422   4.790  26.310  12.056
24697W        W96423  32.909  37.422   2.358
24698W        W96424  16.313  31.445   3.664
24699W        W96425  13.638  35.900  12.144
24700W        W96426  16.646  28.653   3.824
24701W        W96427  26.051  32.909  11.139
24702W        W96428  44.824  18.075  14.047
24703W        W96429  20.134  40.566  12.142
24704W        W96430   6.308  16.626  13.401
24705W        W96431  31.215  16.727  10.659
24706W        W96432  25.573  12.567   5.035
24707W        W96433  23.731  27.125   4.219
24708W        W96434  19.621   2.784  14.836
24709W        W96435  37.147  12.093  12.517
24710W        W96436   1.755  33.086   3.290
24711W        W96437  33.613  25.951  12.536
24712W        W96438   3.953  20.732  12.200
24713W        W96439   5.715  22.055  12.523
24714W        W96440  33.980  32.568  11.474
24715W        W96441   6.890   3.204  12.049
24716W        W96442  11.677  43.939  12.876
24717W        W96443  36.459  36.910  12.938
24718W        W96444  31.617  21.586  10.416
24719W        W96445   3.167  22.400  13.807
24720W        W96446   9.259  15.212   0.850
24721W        W96447  32.104  13.318   1.563
24722W        W96448  20.103  35.244  11.534
24723W        W96449  25.181  33.942   1.245
24724W        W96450  15.615  33.933   4.034
24725W        W96451  15.057   2.482  12.043
24726W        W96452  23.978  40.483  11.586
24727W        W96453  33.894  38.813  14.921
24728W        W96454  24.268  17.017   3.240
24729W        W96455   4.429  24.715   0.403
24730W        W96456  11.737  35.091   0.343
24731W        W96457  32.529  31.088  10.966
24732W        W96458   2.219  14.261  12.059
24733W        W96459  42.065   4.875   9.956
24734W        W96460   6.721  35.887   4.207
24735W        W96461  13.717  12.781   3.375
24736W        W96462  23.132  31.167   1.761
24737W        W96463   9.558  20.033   4.104
24738W        W96464  20.021  16.522  11.154
24739W        W96465  43.358  37.437  13.347
24740W        W96466  36.038  38.459  14.384
24741W        W96467  37.839  12.827  12.969
24742W        W96468  19.738  42.020  13.896
24743W        W96469  29.443  39.019  12.927
24744W        W96470  21.612  40.751  13.091
24745W        W96471  33.055  40.399   2.970
24746W        W96472   6.728  26.657  14.844
24747W        W96473  30.082  30.069   1.751
24748W        W96474   9.321   5.739   4.834
24749W        W96475  22.760  43.767   1.997
24750W        W96476  33.311  41.835  13.002
24751W        W96477  32.402  38.639  10.332
24752W        W96478  32.873   2.638   1.247
24753W        W96479  36.370  26.546  10.682
24754W        W96480   9.342  22.784  10.193
24755W        W96481  25.069  31.546  11.665
24756W        W96482  40.225   4.783  14.321
24757W        W96483  30.125  15.797  12.433
24758W        W96484  10.791  13.152  13.363
24759W        W96485  20.080  13.304  11.424
24760W        W96486   2.412  27.556   1.294
24761W        W96487  16.114  35.986   4.594
24762W        W96488  14.942  40.904   5.518
24763W        W96489  40.669  24.614   4.359
24764W        W96490  22.557  24.649   2.608
24765W        W96491  10.302  26.156   2.598
24766W        W96492  39.888  27.442   3.305
24767W        W96493   1.358  40.130  11.548
24768W        W96494  17.508   1.589   2.745
24769W        W96495  29.015  34.129   4.871
24770W        W96496  34.555   6.252   0.274
24771W        W96497  10.614  42.261   4.753
24772W        W96498  34.989   7.107  12.557
24773W        W96499   5.608  24.145  14.303
24774W        W96500  34.795  29.718  13.524
24775W        W96501  42.360  39.505   0.239
24776W        W96502  31.315  11.932  11.662
24777W        W96503   7.677  27.662  13.022
24778W        W96504  20.128  39.491  13.953
24779W        W96505  41.062  36.340   1.357
24780W        W96506  25.512  10.377   1.115
24781W        W96507  27.963  28.500  13.296
24782W        W96508  13.519  16.956  12.410
24783W        W96509   4.793   9.800   3.323
24784W        W96510  17.362  23.602  11.057
24785W        W96511  22.722  35.921   0.405
24786W        W96512  26.641   6.323   1.696
24787W        W96513  23.139  38.817  12.987
24788W        W96514  44.189   4.146   2.789
24789W        W96515   5.738  22.550  13.359
24790W        W96516  35.342   6.841   1.199
24791W        W96517  33.449   4.010  12.863
24792W        W96518  15.380  30.866   1.774
24793W        W96519  17.066  12.871   1.789
24794W        W96520   0.704  41.821  11.505
24795W        W96521  24.872   7.511   3.932
24796W        W96522  32.561  18.760   0.903
24797W        W96523  21.049   1.987   5.119
24798W        W96524  39.533   7.271   5.031
24799W        W96525  38.828  21.055  10.788
24800W        W96526   5.848   8.121   2.433
24801W        W96527  10.752  38.602  10.065
24802W        W96528  17.585  20.566  11.513
24803W        W96529  33.154   3.958   1.769
24804W        W96530  11.156  29.841  13.087
24805W        W96531  33.569  43.487   5.092
24806W        W96532  23.694  39.504   1.736
24807W        W96533   2.273  39.173   3.311
24808W        W96534  19.571   5.785   3.669
24809W        W96535  27.200  14.635  13.022
24810W        W96536   2.444  44.205  11.996
24811W        W96537  23.451  39.689  12.878
24812W        W96538   7.871  10.789   4.830
24813W        W96539  19.253  38.780   0.805
24814W        W96540   9.435  14.261  12.347
24815W        W96541  15.507   0.397   1.210
24816W        W96542   7.573   6.686   3.305
24817W        W96543  22.276  32.417   2.813
24818W        W96544   3.123   9.708  12.940
24819W        W96545  27.638  16.083   0.280
24820W        W96546  16.603  28.017   2.270
24821W        W96547  37.986  27.680  12.623
24822W        W96548  11.888  39.489   0.570
24823W        W96549   0.282  13.169  14.040
24824W        W96550  14.791  33.846   3.189
24825W        W96551   8.453  31.993  11.579
24826W        W96552  22.435  29.621   0.786
24827W        W96553  28.552  30.403   3.161
24828W        W96554  20.543  34.669   1.891
24829W        W96555  15.513  25.516  14.332
24830W        W96556  22.581  44.439  13.066
24831W        W96557  35.030  43.852  11.965
24832W        W96558  34.705  37.609  12.849
24833W        W96559  41.072  12.739   4.894
24834W        W96560  37.495   9.165  10.855
24835W        W96561  10.425  38.294   0.139
24836W        W96562   8.634  39.962  14.708
24837W        W96563  24.942  30.004   0.310
24838W        W96564  16.062  40.302  10.202
24839W        W96565   4.708   8.941   5.083
24840W        W96566  12.884  39.565   3.618
24841W        W96567  32.045   7.085  10.948
24842W        W96568   7.699  34.791   3.560
24843W        W96569  21.852  25.572   4.105
24844W        W96570  24.663  44.782   4.107
24845W        W96571   0.215  21.239   2.273
24846W        W96572  43.525  20.209  12.378
24847W        W96573  28.142  36.768  12.522
24848W        W96574  33.574  18.564  12.062
24849W        W96575   8.635  29.488  11.598
24850W        W96576  21.788  15.708  13.925
24851W        W96577  17.298  19.055  12.091
24852W        W96578  32.069  31.392  13.522
24853W        W96579  38.540  12.616  13.398
24854W        W96580   7.820   9.773   0.882
24855W        W96581  10.364  32.514   0.252
24856W        W96582   5.444  33.070  11.113
24857W        W96583  33.575  44.087   1.355
24858W        W96584  34.806  18.513   4.119
24859W        W96585  36.525  18.970   2.301
24860W        W96586  31.563  11.832  10.593
24861W        W96587  26.135   8.144  14.375
24862W        W96588  35.485  27.183   4.192
24863W        W96589  16.056  42.989  11.985
24864W        W96590  30.576  23.579  12.596
24865W        W96591   2.672   4.402   1.174
24866W        W96592  34.487  15.893   3.123
24867W        W96593  38.663  16.963   4.070
24868W        W96594  17.457  41.259   1.299
24869W        W96595  24.992   3.032   4.629
24870W        W96596   7.209   0.332   2.911
24871W        W96597  31.569  40.229  12.461
24872W        W96598  10.528  21.860  14.519
24873W        W96599  34.448   8.668  11.524
24874W        W96600  22.823  44.251  10.667
24875W        W96601  30.482  38.385   4.779
24876W        W96602   0.750  30.915  10.723
24877W        W96603  43.218  34.247   1.769
24878W        W96604  41.629  26.446   3.232
24879W        W96605  21.348  41.189  13.670
24880W        W96606  29.990  32.036   0.235
24881W        W96607  27.326  11.668   5.084
24882W        W96608  23.536   0.312   3.187
24883W        W96609  16.819  29.922   4.347
24884W        W96610  15.276  23.143  12.400
24885W        W96611  37.102   0.514   3.482
24886W        W96612  20.326  25.629   4.872
24887W        W96613  12.395   2.444   0.010
24888W        W96614  26.582  21.662  10.785
24889W        W96615   8.205  21.167  14.296
24890W        W96616  27.037  39.824  13.858
24891W        W96617  38.860   1.792  12.927
24892W        W96618  25.748  30.350  12.495
24893W        W96619  25.057  24.551  14.857
24894W        W96620  29.434   0.678  10.669
24895W        W96621  23.319  14.185  12.175
24896W        W96622  30.398   6.307  11.558
24897W        W96623  43.200  22.916   0.860
24898W        W96624  30.934  20.273  13.041
24899W        W96625   6.782   3.679  14.024
24900W        W96626   4.651  10.366  12.596
24901W        W96627  25.270  16.736  14.937
24902W        W96628  21.438  26.910  11.049
24903W        W96629  27.924  27.604  13.235
24904W        W96630   2.797   5.982  11.733
24905W        W96631   1.760  43.940   1.826
24906W        W96632  39.706  14.580  12.589
24907W        W96633  25.116  14.651  13.589
24908W        W96634   1.869  27.644   3.624
24909W        W96635  32.863  20.158  14.825
24910W        W96636  36.121  16.233   4.923
24911W        W96637  20.088   6.061   0.438
24912W        W96638   5.325   8.636  11.060
24913W        W96639   4.711  33.810   0.396
24914W        W96640  29.068  40.507   0.273
24915W        W96641  27.569  38.061  10.685
24916W        W96642  42.933  29.457   4.037
24917W        W96643  12.982   2.175   0.910
24918W        W96644  30.452  33.397   4.161
24919W        W96645   2.512  28.423  10.644
24920W        W96646  27.758  32.913   4.623
24921W        W96647  13.350  24.580   1.231
24922W        W96648  34.137  20.345   1.726
24923W        W96649  38.915  34.131   2.319
24924W        W96650  33.417  39.033   0.701
24925W        W96651  21.365  31.064  14.707
24926W        W96652   0.695  42.774  12.501
24927W        W96653  11.396  15.123  13.831
24928W        W96654   6.450  41.705   3.671
24929W        W96655   3.198  25.581  14.904
24930W        W96656  40.751  20.715  13.614
24931W        W96657   7.164  13.118   4.952
24932W        W96658  44.810  14.141  14.347
24933W        W96659  14.966  41.272  11.276
24934W        W96660  27.930   4.074  11.350
24935W        W96661   8.199  35.082  13.280
24936W        W96662  25.190   3.447  14.897
24937W        W96663  17.723  29.663   0.780
24938W        W96664   7.882   1.332  14.634
24939W        W96665  14.344  17.585   2.724
24940W        W96666   6.918   0.182   0.438
24941W        W96667  36.367  33.674   2.633
24942W        W96668  22.159  27.919  12.895
24943W        W96669   0.199  12.218   2.807
24944W        W96670   3.402  40.514   2.342
24945W        W96671  13.436  20.003   2.259
24946W        W96672  35.330  34.587   2.765
24947W        W96673  44.648  43.306  12.991
24948W        W96674  33.595  19.497  12.886
24949W        W96675   4.391   6.464   5.459
24950W        W96676  24.300  13.651  12.584
24951W        W96677  36.715  37.648  11.955
24952W        W96678  13.189  18.616   4.279
24953W        W96679   1.023  26.969   4.003
24954W        W96680  29.929  25.135   3.019
24955W        W96681   8.849  39.264   4.773
24956W        W96682  13.660  31.101   4.946
24957W        W96683  43.679   8.485   1.887
24958W        W96684  21.985  10.384  12.209
24959W        W96685  18.357  32.536  12.465
24960W        W96686  28.925   7.751  12.873
24961W        W96687   2.426  24.372   1.022
24962W        W96688  26.044  29.148   4.516
24963W        W96689   5.744  24.794   2.020
24964W        W96690   8.327   4.728   1.851
24965W        W96691  30.564  22.609   4.193
24966W        W96692  14.050  20.153  10.597
24967W        W96693  17.762  25.962   4.080
24968W        W96694  22.194  18.801   2.701
24969W        W96695   5.211  17.397   0.935
24970W        W96696   2.039  20.628  14.010
24971W        W96697   5.235  15.780   0.653
24972W        W96698   2.019   1.657   1.333
24973W        W96699  11.675  40.575  13.373
24974W        W96700  43.894  36.390  14.004
24975W        W96701  41.777  33.413   4.574
24976W        W96702  13.551   0.768   4.174
24977W        W96703  41.277  10.381  14.356
24978W        W96704  27.090  15.020   0.815
24979W        W96705   8.272  10.283   0.376
24980W        W96706  27.548  22.008   1.421
24981W        W96707  26.214  20.521   4.343
24982W        W96708  34.411  17.046  11.189
24983W        W96709   0.278   2.908   3.246
24984W        W96710  24.199  15.244  13.542
24985W        W96711  44.918   1.045  14.332
24986W        W96712  37.973  19.074  13.981
24987W        W96713   4.459  42.501  10.581
24988W        W96714  30.186  32.490   2.244
24989W        W96715  43.306   6.572   4.506
24990W        W96716  25.959   0.704  14.733
24991W        W96717   2.417  16.054   3.293
24992W        W96718  11.699   7.957   0.499
24993W        W96719  13.916   9.943   4.195
24994W        W96720   5.832   1.486   4.104
24995W        W96721   4.658  18.427   3.445
24996W        W96722  25.642  37.039  11.164
24997W        W96723  17.054  25.135  11.244
24998W        W96724  43.882  43.018   3.720
24999W        W96725   4.844  29.926  13.795
25000W        W96726  16.739  30.877   4.634
25001W        W96727  34.610  35.054  14.762
25002W        W96728  24.777  16.578  14.807
25003W        W96729  25.121   3.973  14.931
25004W        W96730  17.386  43.703  13.552
25005W        W96731  35.119  28.967   0.037
25006W        W96732   0.056  34.872  12.404
25007W        W96733  36.109   1.029  12.116
25008W        W96734   7.658   5.304   4.798
25009W        W96735  38.344  40.058  11.633
25010W        W96736   5.335   7.296   0.539
25011W        W96737  24.115  34.498   2.229
25012W        W96738  36.012  30.260   1.368
25013W        W96739   2.707   0.246   1.924
25014W        W96740  42.386  16.099   4.944
25015W        W96741  41.774  24.154  11.110
25016W        W96742   4.426  15.875  12.357
25017W        W96743  24.446  27.868  12.417
25018W        W96744  39.766  39.838   2.688
25019W        W96745   1.815  11.706   2.194
25020W        W96746  38.396  17.679   1.466
25021W        W96747  38.863  24.591   2.171
25022W        W96748  43.485  10.896  12.476
25023W        W96749  41.514  14.713  11.923
25024W        W96750  26.816  29.053   1.928
25025W        W96751  24.978  22.978  13.363
25026W        W96752   1.348  12.733   0.786
25027W        W96753  28.467  40.439  10.553
25028W        W96754   0.670  29.007   3.773
25029W        W96755  19.385  38.373  13.367
25030W        W96756  24.084  14.176   0.615
25031W        W96757  26.125   9.265  14.806
25032W        W96758  36.405  15.229  14.629
25033W        W96759  31.744   9.446   1.828
25034W        W96760  28.492  37.136  12.389
25035W        W96761  27.939  15.177  13.126
25036W        W96762  38.467  35.106   1.021
25037W        W96763  41.378  33.964  13.470
25038W        W96764  37.261  38.696  14.707
25039W        W96765  32.006  28.945   2.224
25040W        W96766  23.809   5.322  14.879
25041W        W96767  41.853   7.916   1.840
25042W        W96768   8.336  26.091  12.560
25043W        W96769  16.563   5.713   2.324
25044W        W96770   2.211  26.760  13.396
25045W        W96771  22.751  35.399   2.300
25046W        W96772   7.952  30.125   3.707
25047W        W96773  33.573  28.831  11.887
25048W        W96774   1.422  33.604   1.480
25049W        W96775  38.852  44.744   1.312
25050W        W96776  12.437  13.831  13.960
25051W        W96777  13.914  30.083   3.791
25052W        W96778  17.185  20.621  10.658
25053W        W96779  28.045  37.203   3.891
25054W        W96780  22.547  35.858   1.479
25055W        W96781  28.595  20.282   3.269
25056W        W96782  41.852  41.007  12.455
25057W        W96783  36.388  18.758   2.786
25058W        W96784  17.655   7.350   3.336
25059W        W96785  15.856  18.690  13.417
25060W        W96786  18.203   6.567   2.440
25061W        W96787  35.851  14.558  11.173
25062W        W96788   0.808  12.231   3.727
25063W        W96789   1.838  18.760   0.233
25064W        W96790  23.536   7.349   0.541
25065W        W96791  39.783  14.308   4.494
25066W        W96792  20.691   3.927   0.822
25067W        W96793  30.559  26.736  11.039
25068W        W96794  27.090  11.300   0.443
25069W        W96795  17.256  34.851   4.939
25070W        W96796   0.001  24.583   4.797
25071W        W96797  13.243  25.982  14.184
25072W        W96798  29.691   2.225   5.017
25073W        W96799   7.670  24.896  14.283
25074W        W96800  39.219   2.834   5.048
25075W        W96801   2.689  38.306   4.889
25076W        W96802  11.213   1.232   3.464
25077W        W96803  16.093  18.801  13.993
25078W        W96804   8.366  11.719  11.043
25079W        W96805  35.612  29.943   2.059
25080W        W96806   3.912  14.943   3.046
25081W        W96807  31.024   2.115  10.801
25082W        W96808  33.523  26.403  11.604
25083W        W96809  15.310  19.702   4.840
25084W        W96810  16.167  22.135   0.760
25085W        W96811  38.092  13.371   0.484
25086W        W96812  27.894  19.462   0.315
25087W        W96813  27.954  24.707   4.055
25088W        W96814  34.644   1.763  11.012
25089W        W96815   9.261  14.303  11.503
25090W        W96816   4.175  13.752   3.618
25091W        W96817  14.364  12.470   0.811
25092W        W96818  35.310  19.659   1.496
25093W        W96819  14.089  19.230   1.687
25094W        W96820  32.120  15.209   3.472
25095W        W96821  14.135  29.612  12.047
25096W        W96822  21.260  30.839   1.613
25097W        W96823  30.097  11.443   2.290
25098W        W96824   2.221  35.047  14.899
25099W        W96825   5.386  35.480  13.806
25100W        W96826  37.642   7.404   3.151
25101W        W96827  12.619  19.144  12.143
25102W        W96828  41.293  25.669   2.878
25103W        W96829  30.167  43.729  13.561
25104W        W96830  12.963   3.710  11.597
25105W        W96831  41.220  33.461  13.250
25106W        W96832   8.503  30.148   1.662
25107W        W96833   7.730  13.160  11.111
25108W        W96834  35.221  35.478  11.954
25109W        W96835  15.892  24.165  14.795
25110W        W96836  20.592  40.423  13.049
25111W        W96837  10.712  36.198  14.895
25112W        W96838  20.063  13.730  12.179
25113W        W96839  10.826  44.698   0.080
25114W        W96840   8.743  41.457   0.050
25115W        W96841  31.469  39.581   1.689
25116W        W96842  36.111  31.570   3.244
25117W        W96843  23.910  23.793   1.716
25118W        W96844  10.422  35.718  10.784
25119W        W96845  37.589   7.696   1.402
25120W        W96846  30.691  14.058  11.114
25121W        W96847   2.716   6.779   1.218
25122W        W96848  34.899  32.867  13.475
25123W        W96849  31.599  29.363   1.865
25124W        W96850  19.256   7.288  12.951
25125W        W96851  24.183  14.848   5.172
25126W        W96852  38.761  35.420   2.280
25127W        W96853  17.154   1.201  13.587
25128W        W96854  29.097  20.046  10.550
25129W        W96855  19.508  35.696   2.284
25130W        W96856   2.602  18.664  11.116
25131W        W96857  11.824   5.120   2.164
25132W        W96858   6.699  10.643  11.079
25133W        W96859  24.228  42.024  14.984
25134W        W96860  20.569   8.447   3.465
25135W        W96861   2.013  42.762  14.232
25136W        W96862   4.482  14.861  10.661
25137W        W96863  37.269  28.828   4.184
25138W        W96864  42.000  35.481   2.882
25139W        W96865  16.223  16.767  11.498
25140W        W96866  30.559  12.186  14.199
25141W        W96867  40.973  38.204   5.027
25142W        W96868  32.416  14.280   3.624
25143W        W96869  16.861  16.494  14.464
25144W        W96870  13.207  43.276   4.635
25145W        W96871  44.231  30.537  11.028
25146W        W96872  19.038  40.856   0.325
25147W        W96873  31.528   6.169  11.645
25148W        W96874  25.487  34.487   2.281
25149W        W96875  24.451  40.483  14.634
25150W        W96876  31.100   2.396   2.781
25151W        W96877   7.440  41.966  13.510
25152W        W96878  36.020   4.604  14.588
25153W        W96879  24.637  18.000   3.182
25154W        W96880   4.813  28.188   2.881
25155W        W96881  10.361  28.681   2.673
25156W        W96882  31.673  36.545   2.720
25157W        W96883  44.472   0.934  14.952
25158W        W96884  18.491  17.525   2.639
25159W        W96885   4.388  33.365  10.665
25160W        W96886  40.228  37.334  11.355
25161W        W96887  25.184  39.318   1.447
25162W        W96888   4.929  20.442   0.281
25163W        W96889  33.189   0.477   1.870
25164W        W96890  25.758  34.418  11.498
25165W        W96891   0.394   9.855  12.374
25166W        W96892   4.843  38.416   2.176
25167W        W96893  28.774  13.329   0.923
25168W        W96894  20.712  26.209  13.438
25169W        W96895  25.826   5.962   1.206
25170W        W96896   1.384  15.760  13.713
25171W        W96897  21.605  43.462  13.764
25172W        W96898   8.698  30.643  14.996
25173W        W96899  24.255  16.632   0.796
25174W        W96900  12.603  28.689   3.624
25175W        W96901  41.455  30.570   2.285
25176W        W96902  26.616  37.883   1.874
25177W        W96903   3.828  34.312  10.519
25178W        W96904   4.432  34.598   0.324
25179W        W96905  30.967  14.786  13.091
25180W        W96906   8.317  32.930  14.236
25181W        W96907  39.528   9.335  11.184
25182W        W96908  16.819  34.064   2.016
25183W        W96909  26.439  39.654   0.704
25184W        W96910   5.437   1.081  12.733
25185W        W96911  14.717  13.917  11.618
25186W        W96912   4.716  44.776   2.109
25187W        W96913  27.619  34.134  14.779
25188W        W96914  23.233  10.734  14.133
25189W        W96915  25.187  35.407   2.702
25190W        W96916  22.578   6.406  12.334
25191W        W96917   2.263  10.719  11.628
25192W        W96918   6.438  44.130  11.481
25193W        W96919   4.129  14.570   5.311
25194W        W96920  28.501  44.252   1.717
25195W        W96921  11.918  39.639   3.879
25196W        W96922  17.542  23.582  12.440
25197W        W96923  14.577   4.643   2.174
25198W        W96924  20.797  26.707   3.374
25199W        W96925  40.431   6.884  13.978
25200W        W96926  27.013  26.646   3.124
25201W        W96927  24.694  21.702  13.970
25202W        W96928   0.753  42.761   0.222
25203W        W96929  42.224  22.717  10.990
25204W        W96930  28.723  23.590  14.853
25205W        W96931   0.211  24.921   1.385
25206W        W96932  21.499  29.115  11.056
25207W        W96933   0.897   4.040   1.685
25208W        W96934  22.475  22.803  12.515
25209W        W96935   6.729  24.070  13.463
25210W        W96936  17.732  40.889   3.183
25211W        W96937  15.077  22.470  10.945
25212W        W96938  14.717   2.319   2.387
25213W        W96939  27.476  28.468   1.917
25214W        W96940  21.586  40.838   4.434
25215W        W96941  10.818  36.903  11.116
25216W        W96942  44.396  17.103   1.443
25217W        W96943  39.746  42.557  11.180
25218W        W96944   0.839  20.023   1.341
25219W        W96945  38.328  33.443  10.076
25220W        W96946  32.023  17.651  11.584
25221W        W96947   7.322  21.033  13.967
25222W        W96948  22.714  42.754  13.513
25223W        W96949   9.716  42.030  11.547
25224W        W96950  38.142   4.885   4.124
25225W        W96951  24.119  24.245  12.487
25226W        W96952  24.790  24.129   2.936
25227W        W96953   7.555  16.952  12.888
25228W        W96954  37.393  31.074  11.301
25229W        W96955  42.378  41.747  13.636
25230W        W96956  20.012  39.333  12.502
25231W        W96957  13.353  34.076  11.139
25232W        W96958  14.032  26.265   3.591
25233W        W96959  35.440  25.799   3.760
25234W        W96960  34.956  40.623  12.864
25235W        W96961  24.668  42.292  14.895
25236W        W96962  41.869  44.519   3.200
25237W        W96963   2.392  27.298   4.524
25238W        W96964  10.118  24.506  12.453
25239W        W96965  26.245  29.388  11.268
25240W        W96966  19.091  29.707  13.497
25241W        W96967  36.655   7.680   3.677
25242W        W96968  10.355  28.963   4.706
25243W        W96969  34.413  27.590  11.182
25244W        W96970  16.663  34.849   3.513
25245W        W96971  16.282  20.017  12.015
25246W        W96972  13.814  34.762   1.819
25247W        W96973  33.798   0.852  11.482
25248W        W96974  40.971   8.185  10.757
25249W        W96975  10.722  10.814  13.545
25250W        W96976   3.896  43.174   3.217
25251W        W96977  38.931   2.792   3.416
25252W        W96978  32.749  12.104   1.753
25253W        W96979  13.829  34.098  10.701
25254W        W96980  29.829  20.515  11.128
25255W        W96981  23.192  27.821  12.597
25256W        W96982  20.896  30.771   2.897
25257W        W96983  40.993  27.789   3.238
25258W        W96984  11.351  36.370   0.299
25259W        W96985  31.852  22.247   4.200
25260W        W96986  16.195  34.586  14.562
25261W        W96987  28.379  25.089  14.842
25262W        W96988  24.654  42.684   4.099
25263W        W96989   9.296  14.877  12.838
25264W        W96990  40.251  38.086   3.690
25265W        W96991  40.973  21.186  13.108
25266W        W96992  31.659  28.830   1.830
25267W        W96993  26.919  31.556   3.338
25268W        W96994  26.053  43.317   4.675
25269W        W96995  18.802  34.093  13.517
25270W        W96996  11.158  13.313   4.369
25271W        W96997   0.296  29.425  14.611
25272W        W96998   9.649  22.493  12.849
25273W        W96999  27.816  34.470  13.973
25274W        W97000  11.323   0.789   0.379
25275W        W97001  24.907   6.028   0.753
25276W        W97002  25.663  10.333  11.623
25277W        W97003  26.521   8.693  14.256
25278W        W97004  12.355  15.344  13.005
25279W        W97005  28.001  10.837  14.384
25280W        W97006  20.940  41.705  10.891
25281W        W97007  40.088  27.192   4.189
25282W        W97008  28.336   0.953   1.190
25283W        W97009  22.998  16.131  10.430
25284W        W97010  44.754   3.085   2.632
25285W        W97011  14.626  30.644   2.709
25286W        W97012  14.630  35.953  10.809
25287W        W97013  38.080  27.046   4.248
25288W        W97014  16.254   6.342   3.880
25289W        W97015  43.240  36.469  12.735
25290W        W97016  40.882  29.508   4.826
25291W        W97017  30.205  13.643   2.782
25292W        W97018  26.933  29.073  14.001
25293W        W97019  38.523  36.017   0.773
25294W        W97020  39.979   6.926  12.916
25295W        W97021  20.122  36.510   1.521
25296W        W97022  19.297   3.999   0.789
25297W        W97023  29.264  10.275  13.552
25298W        W97024  23.021  10.320   2.860
25299W        W97025   7.390   9.768  11.485
25300W        W97026   9.874   6.831  10.686
25301W        W97027  31.677  32.873  12.388
25302W        W97028  44.033  29.726   3.273
25303W        W97029   6.507  28.966  14.553
25304W        W97030  41.560  18.219  11.481
25305W        W97031  13.659  29.978   0.533
25306W        W97032   8.358  16.350  14.967
25307W        W97033  39.750  12.664  11.208
25308W        W97034  44.058  21.158   4.093
25309W        W97035   2.868  30.234   0.873
25310W        W97036  40.355  26.497  11.202
25311W        W97037  36.942  13.674  11.546
25312W        W97038  31.952   2.961   1.195
25313W        W97039  15.134   9.635   1.545
25314W        W97040  24.679   7.593  10.874
25315W        W97041  13.208   7.259   4.537
25316W        W97042  43.932   9.379   3.679
25317W        W97043  16.299   9.330  14.248
25318W        W97044  41.270  28.759   2.963
25319W        W97045  25.052  28.949   2.173
25320W        W97046  20.423  28.728   1.445
25321W        W97047  24.109  29.964  12.074
25322W        W97048  43.433  39.247  14.468
25323W        W97049  14.256  13.558   4.516
25324W        W97050  43.840  34.372   1.423
25325W        W97051  15.942  40.882   4.589
25326W        W97052   1.290  16.919   4.027
25327W        W97053  32.283  19.743   2.113
25328W        W97054   9.902   4.321  12.046
25329W        W97055  15.788  18.540   3.598
25330W        W97056  34.348  35.039  12.119
25331W        W97057  38.890  23.003  12.282
25332W        W97058  29.511  26.234   3.825
25333W        W97059  17.800  28.514   3.142
25334W        W97060   6.229   6.333   2.266
25335W        W97061  20.474   8.244  12.059
25336W        W97062  18.050  33.907  13.838
25337W        W97063  16.140  37.681  13.801
25338W        W97064  39.569  34.082   4.094
25339W        W97065  44.261   7.178  11.119
25340W        W97066  39.147  18.051   0.122
25341W        W97067  14.755  39.229   3.764
25342W        W97068  20.457  18.986  14.868
25343W        W97069  25.462  27.793  13.053
25344W        W97070  17.273  34.361  11.979
25345W        W97071  18.774   2.193  12.549
25346W        W97072  39.931  23.084  13.192
25347W        W97073   2.784   5.808   1.664
25348W        W97074  42.527  20.291  12.063
25349W        W97075   8.082  32.443   2.512
25350W        W97076   0.397  26.430   0.341
25351W        W97077  22.588  14.337   1.218
25352W        W97078  25.999  24.376  10.569
25353W        W97079  39.955  28.931   0.822
25354W        W97080   5.504  10.216   3.472
25355W        W97081  33.833  14.606  14.858
25356W        W97082  38.465  40.286  11.182
25357W        W97083   9.723  18.207  10.571
25358W        W97084  19.760  38.788   4.325
25359W        W97085   9.251  40.765  10.897
25360W        W97086  33.149  26.004   0.765
25361W        W97087  25.948  31.937   1.357
25362W        W97088  13.783  23.321  12.418
25363W        W97089  24.908  26.190  10.268
25364W        W97090  35.668  15.742   3.689
25365W        W97091  26.536  23.611  11.907
25366W        W97092  10.885  33.064   2.712
25367W        W97093  33.449   4.808   3.327
25368W        W97094  35.326  23.756   1.825
25369W        W97095  25.708  33.742   4.657
25370W        W97096  35.584  42.157   3.534
25371W        W97097  34.987  12.617  13.315
25372W        W97098   3.622  44.830  14.137
25373W        W97099   5.891  38.198   2.271
25374W        W97100  35.593   8.384  13.093
25375W        W97101  39.576  16.201  11.099
25376W        W97102  17.579  38.907   3.304
25377W        W97103   7.809   8.715   0.828
25378W        W97104  40.361  25.933   1.306
25379W        W97105  40.423  15.048  12.484
25380W        W97106   0.902  29.426   2.289
25381W        W97107   3.224  30.692   1.774
25382W        W97108  34.884  17.694  12.697
25383W        W97109  42.523  17.761  12.598
25384W        W97110  12.271  20.624   1.337
25385W        W97111   5.289  25.523   4.661
25386W        W97112  32.321   2.197   1.823
25387W        W97113  25.772  13.414   0.867
25388W        W97114  43.437  17.079  11.232
25389W        W97115  21.220  21.252  10.658
25390W        W97116  13.289  37.391   3.812
25391W        W97117  15.812   6.542   4.544
25392W        W97118  37.224  24.754   4.147
25393W        W97119  15.237   7.381   3.256
25394W        W97120  44.828   6.679   0.153
25395W        W97121  11.964  18.870   2.173
25396W        W97122   3.912   3.260   0.093
25397W        W97123  33.991  22.466  14.394
25398W        W97124   1.314  37.742  12.029
25399W        W97125  42.287  33.069  11.534
25400W        W97126   5.395  17.368  14.626
25401W        W97127  40.707  34.738  12.861
25402W        W97128  41.834  43.301   0.533
25403W        W97129  24.042  32.902  11.046
25404W        W97130  39.637  41.544   0.537
25405W        W97131  41.250  10.749  10.887
25406W        W97132   5.419  18.579  11.172
25407W        W97133  31.956  42.828   3.392
25408W        W97134  24.200  22.774   2.657
25409W        W97135  28.361  23.438   3.276
25410W        W97136   0.470   7.170  12.062
25411W        W97137   9.913  19.750  11.257
25412W        W97138  42.826  35.604  14.785
25413W        W97139  23.295  38.392   2.808
25414W        W97140  23.662  33.242   5.000
25415W        W97141  31.289  13.773   4.238
25416W        W97142  10.638  12.713   0.326
25417W        W97143  29.739  28.231   2.440
25418W        W97144  38.601   4.027   4.162
25419W        W97145  17.145  23.598  10.575
25420W        W97146  38.524  30.624  13.835
25421W        W97147  35.136  22.042   4.408
25422W        W97148  41.350   3.733   4.629
25423W        W97149  37.011  16.537   0.391
25424W        W97150  21.034  34.033  12.851
25425W        W97151  39.527  34.537  12.910
25426W        W97152  34.416  12.086   4.912
25427W        W97153  38.437  31.163  12.116
25428W        W97154  26.657   7.562  12.804
25429W        W97155  34.108  14.792   1.228
25430W        W97156  39.180  26.075   3.155
25431W        W97157  15.653  16.992   2.946
25432W        W97158  19.582  35.441  14.161
25433W        W97159   9.628   1.009   3.115
25434W        W97160  21.626  27.402  11.879
25435W        W97161  19.621  22.628  10.729
25436W        W97162   7.250   8.405  11.267
25437W        W97163  41.962  31.061   0.786
25438W        W97164  30.608  37.753   4.256
25439W        W97165   3.846   3.219  14.578
25440W        W97166  36.540  34.087   0.348
25441W        W97167   5.270  30.105   1.551
25442W        W97168   1.418  14.543  10.648
25443W        W97169   9.216  23.437   3.475
25444W        W97170  19.620  41.771  12.427
25445W        W97171  34.321  39.046   4.766
25446W        W97172  34.901  17.601   0.025
25447W        W97173  40.295   3.781  13.999
25448W        W97174  39.768  13.529  12.375
25449W        W97175  28.213   5.541   0.698
25450W        W97176  13.068  35.049  12.926
25451W        W97177   8.722  37.419   2.367
25452W        W97178  40.931   0.766  13.346
25453W        W97179   6.198  39.631  11.389
25454W        W97180  20.568  43.890   0.551
25455W        W97181  13.040  32.505   1.491
25456W        W97182   5.638  41.128  13.516
25457W        W97183  41.134  42.367   3.213
25458W        W97184  17.249   6.854   4.758
25459W        W97185   9.779  17.015   3.332
25460W        W97186   3.636  31.961  12.441
25461W        W97187   4.370   0.914   2.149
25462W        W97188  26.998  29.387  10.646
25463W        W97189  41.335   7.340   4.655
25464W        W97190  19.552  32.443  14.345
25465W        W97191   9.372  36.053  11.574
25466W        W97192  41.967   6.178  13.332
25467W        W97193  44.637  42.404   2.027
25468W        W97194   8.455  20.621   0.507
25469W        W97195  39.420  24.636  10.678
25470W        W97196  32.032  39.323   0.969
25471W        W97197  20.504   0.764  12.215
25472W        W97198  17.393  37.025  12.064
25473W        W97199  44.040  23.989  10.875
25474W        W97200  37.485  35.527  10.506
25475W        W97201  30.951  35.146  14.925
25476W        W97202  38.645  32.600   3.320
25477W        W97203  13.844  41.783  11.216
25478W        W97204  11.655   5.945  10.744
25479W        W97205  38.467  21.734  11.558
25480W        W97206  26.280  10.377  13.453
25481W        W97207   1.251   7.608  12.019
25482W        W97208  18.266  24.104   4.308
25483W        W97209   6.301  35.079   4.564
25484W        W97210  15.609  42.978  13.069
25485W        W97211  22.172  26.011   4.889
25486W        W97212  27.905  31.809  11.695
25487W        W97213   1.905  39.114   2.206
25488W        W97214  41.223  21.655   2.895
25489W        W97215  40.372  29.200  13.889
25490W        W97216  18.660  40.654   1.347
25491W        W97217   9.772  33.457  11.044
25492W        W97218  26.828  10.839  11.856
25493W        W97219  33.337  32.344  12.072
25494W        W97220  32.161  39.816  13.835
25495W        W97221  17.523  26.626  11.158
25496W        W97222  35.201  42.926  12.407
25497W        W97223  32.986  20.833  11.137
25498W        W97224   4.808  25.271  13.809
25499W        W97225  24.613   8.481   4.263
25500W        W97226  32.024  29.171  12.981
25501W        W97227  27.192   0.015   5.089
25502W        W97228   4.436   8.708  10.712
25503W        W97229  38.344  35.633   1.053
25504W        W97230  33.126   6.167  13.820
25505W        W97231  22.979  24.521   0.841
25506W        W97232   4.809  38.279  13.066
25507W        W97233  27.867  24.752  11.440
25508W        W97234  28.478  27.165   0.620
25509W        W97235  13.751  19.039  14.445
25510W        W97236  38.802  32.453  12.924
25511W        W97237  19.018  13.576  14.907
25512W        W97238   3.380  31.519  14.973
25513W        W97239  36.395   0.213   2.340
25514W        W97240  17.559  44.803   1.445
25515W        W97241   1.272   4.721  13.742
25516W        W97242   2.058  14.148  12.586
25517W        W97243   3.758  11.666  12.891
25518W        W97244   4.173  30.987  11.573
25519W        W97245  29.940  35.100  13.960
25520W        W97246  40.122  21.112  12.956
25521W        W97247  31.438  14.796   2.318
25522W        W97248   1.724   3.828  10.692
25523W        W97249  42.817  37.877  13.089
25524W        W97250   7.926  28.702  10.931
25525W        W97251   4.225  12.347   4.905
25526W        W97252   2.345   5.072   1.945
25527W        W97253  22.940  41.818  14.017
25528W        W97254  19.122  33.608   4.956
25529W        W97255  25.090  25.577  13.439
25530W        W97256   0.958  17.492  14.770
25531W        W97257  33.236  12.869  11.089
25532W        W97258  29.557  20.225   3.252
25533W        W97259  25.430  18.192   4.596
25534W        W97260  42.413  18.568   4.732
25535W        W97261   9.788  32.868   5.076
25536W        W97262  16.594  37.930  13.872
25537W        W97263  18.227  41.430   2.577
25538W        W97264  12.681  34.566   1.024
25539W        W97265  18.228   7.714   2.907
25540W        W97266  33.330  11.227   0.406
25541W        W97267  21.620  21.622   3.223
25542W        W97268  21.793  18.257  14.434
25543W        W97269  13.730  15.765  14.350
25544W        W97270  26.980   5.381   0.410
25545W        W97271  12.024   7.183  14.449
25546W        W97272  16.697  23.470  14.704
25547W        W97273  25.686   4.005  13.983
25548W        W97274  33.610  20.739  12.615
25549W        W97275   7.966  42.525  12.055
25550W        W97276  43.406  38.118  13.476
25551W        W97277  17.349  17.260   0.232
25552W        W97278   3.404  41.339   1.474
25553W        W97279  32.732  30.052   2.214
25554W        W97280  25.950   3.148   2.970
25555W        W97281  37.514  11.326  14.887
25556W        W97282  25.203  29.455   4.579
25557W        W97283  41.887  24.763  14.254
25558W        W97284  16.328  43.118   4.189
25559W        W97285  39.371  10.323   0.544
25560W        W97286  40.978  25.652  13.526
25561W        W97287  29.743   8.336   3.214
25562W        W97288   7.904  18.275   1.362
25563W        W97289  37.354  23.630   3.801
25564W        W97290  13.206  19.298   0.350
25565W        W97291  35.404  43.883   4.093
25566W        W97292  38.127  31.062  13.532
25567W        W97293  10.916  36.279  10.739
25568W        W97294   5.849  10.369  13.873
25569W        W97295   7.276  28.492  11.616
25570W        W97296  29.249  24.389   0.997
25571W        W97297   6.408   3.272  10.362
25572W        W97298  16.947  18.050  13.887
25573W        W97299  29.701  25.248  11.635
25574W        W97300  44.076   5.271  13.014
25575W        W97301  33.079  21.639   2.239
25576W        W97302  37.973  38.793  14.999
25577W        W97303  15.689   8.792   1.794
25578W        W97304  36.016   4.351  10.462
25579W        W97305  41.103   0.807   2.776
25580W        W97306  26.061   4.374  11.613
25581W        W97307  31.117  19.380   3.962
25582W        W97308  21.714  31.067   4.922
25583W        W97309  42.918  38.370   0.918
25584W        W97310  30.851  25.822  11.027
25585W        W97311  13.401  15.094   0.557
25586W        W97312  16.142  36.473  11.922
25587W        W97313  17.774  23.673   2.692
25588W        W97314  10.414  19.783  11.389
25589W        W97315  17.688  38.428   2.178
25590W        W97316   7.324  18.494  14.743
25591W        W97317  21.939   2.717  12.650
25592W        W97318  41.065  33.000  13.450
25593W        W97319   4.507  37.054   0.494
25594W        W97320  31.585  26.242  14.424
25595W        W97321  25.201  14.894   0.067
25596W        W97322   4.422  29.670   1.318
25597W        W97323  40.784  35.437   4.037
25598W        W97324  19.127  39.424  12.270
25599W        W97325  18.253  16.935  10.781
25600W        W97326  16.333  44.016   3.893
25601W        W97327  15.045  10.538   1.723
25602W        W97328   3.208   4.852   3.750
25603W        W97329  36.080  15.308  13.777
25604W        W97330  19.970  26.617   2.138
25605W        W97331  31.597   2.208   2.575
25606W        W97332  38.371  18.939  12.936
25607W        W97333  12.555  39.349   3.190
25608W        W97334  24.043   5.684  12.952
25609W        W97335  23.944   3.050   2.814
25610W        W97336   4.399  18.068   1.729
25611W        W97337  42.844  34.949  10.940
25612W        W97338  16.997   3.237   3.027
25613W        W97339  22.497  17.292  10.175
25614W        W97340  13.114  30.421   2.313
25615W        W97341  33.899   1.238  10.605
25616W        W97342  27.168  40.863   0.772
25617W        W97343  40.609  44.592   0.710
25618W        W97344  34.938  36.633   1.928
25619W        W97345   2.160  15.321   1.273
25620W        W97346   8.666  13.643  13.058
25621W        W97347  42.713  36.143   3.359
25622W        W97348  42.952   3.917  13.731
25623W        W97349   0.253  14.825  11.213
25624W        W97350   1.103  32.012   3.361
25625W        W97351  35.994  22.978   1.738
25626W        W97352  25.951  25.467   1.698
25627W        W97353  39.313   6.706  14.937
25628W        W97354   6.791   5.724   1.481
25629W        W97355  15.877  37.102  14.425
25630W        W97356   3.280  37.317  13.870
25631W        W97357   4.957   1.214   2.767
25632W        W97358  11.433  23.207  14.336
25633W        W97359  25.754   1.398   4.108
25634W        W97360  37.026  32.420  12.368
25635W        W97361  20.799   0.206   3.174
25636W        W97362  11.224  11.267  10.407
25637W        W97363  32.085  27.509   1.805
25638W        W97364  32.752  28.434   3.386
25639W        W97365  35.501   9.097  12.588
25640W        W97366  15.266  39.357  11.957
25641W        W97367  43.352  27.495  14.121
25642W        W97368  15.551  33.488   4.552
25643W        W97369  33.920  34.424   3.758
25644W        W97370   7.709  43.865  14.747
25645W        W97371  38.006   4.474   3.658
25646W        W97372  44.492  28.202  11.956
25647W        W97373  41.109  38.382  14.634
25648W        W97374  40.769  33.487  14.084
25649W        W97375  15.828  34.925  11.104
25650W        W97376  32.696  43.510  13.597
25651W        W97377   1.712  34.814   4.740
25652W        W97378  23.192   2.992  12.976
25653W        W97379  33.385  14.663  11.224
25654W        W97380   4.906  19.120  10.655
25655W        W97381   9.789  17.523  14.303
25656W        W97382  27.657  10.695   3.616
25657W        W97383   8.324  39.667  12.352
25658W        W97384  27.020  41.753  10.688
25659W        W97385   4.766  27.183   4.564
25660W        W97386  30.947  39.434   4.682
25661W        W97387   2.825  44.639   4.162
25662W        W97388   7.360   3.146  13.011
25663W        W97389  35.810  21.460   2.003
25664W        W97390  37.990  10.851   3.657
25665W        W97391  12.599  33.636  11.076
25666W        W97392   3.425  34.413   3.712
25667W        W97393   1.203   3.933  12.549
25668W        W97394  20.186  10.295  14.730
25669W        W97395   3.451   8.461  12.219
25670W        W97396  27.559  33.633  10.606
25671W        W97397   2.936  44.803   4.646
25672W        W97398  39.944   3.994   3.782
25673W        W97399  33.829  10.418   0.551
25674W        W97400  40.733  20.268  11.763
25675W        W97401   2.597   0.764   0.256
25676W        W97402  32.400   8.244   4.686
25677W        W97403  44.326   8.791   4.690
25678W        W97404  43.424  34.963  14.472
25679W        W97405  32.341  15.816  12.981
25680W        W97406  27.654  40.087   4.311
25681W        W97407   1.530  40.419   4.418
25682W        W97408   8.522  34.768  13.561
25683W        W97409  10.229  18.161  10.785
25684W        W97410   8.576  32.528  13.440
25685W        W97411  11.160  26.018   1.782
25686W        W97412  36.815   2.095   2.693
25687W        W97413  18.280   6.312  13.876
25688W        W97414  23.030   6.311  12.069
25689W        W97415  36.313  40.066   1.885
25690W        W97416  41.660   7.781   3.627
25691W        W97417  10.736   5.774  10.530
25692W        W97418   4.446  10.681   1.516
25693W        W97419  20.524  17.024  11.583
25694W        W97420  26.434  21.884  12.538
25695W        W97421  22.977   3.477   3.595
25696W        W97422  41.614  22.934   4.215
25697W        W97423  18.901  27.115   0.629
25698W        W97424  39.474  21.598  11.600
25699W        W97425  16.361  34.003   4.503
25700W        W97426  22.993   0.321   4.378
25701W        W97427  31.370  10.342  12.836
25702W        W97428  31.955  38.420  12.274
25703W        W97429   5.648  13.317   1.307
25704W        W97430  18.214  34.649   0.950
25705W        W97431  18.824  21.419   0.422
25706W        W97432   9.166  16.391  11.042
25707W        W97433  40.973  26.940  14.758
25708W        W97434  36.505  42.569   2.846
25709W        W97435  17.324  33.866   2.407
25710W        W97436  32.107  44.409   3.550
25711W        W97437  34.689   9.119   4.473
25712W        W97438  29.909  25.019  14.807
25713W        W97439  20.104  18.105  11.248
25714W        W97440  12.371  17.426   2.909
25715W        W97441   1.466   0.213   4.202
25716W        W97442   1.798  42.105  12.076
25717W        W97443  34.803  38.863   0.740
25718W        W97444  18.823  42.526  12.430
25719W        W97445  32.735   7.288  14.349
25720W        W97446  12.895  29.700  14.488
25721W        W97447  26.113  36.325   3.645
25722W        W97448   6.400  24.599   2.806
25723W        W97449  18.268   5.196   1.803
25724W        W97450  24.231  33.999   2.362
25725W        W97451   4.893  16.192   5.603
25726W        W97452  16.256  39.560  13.047
25727W        W97453   9.229  39.954   3.290
25728W        W97454  17.319  24.931   0.629
25729W        W97455  37.694  17.596  14.363
25730W        W97456  29.606   1.558  12.048
25731W        W97457  40.313  39.340   1.226
25732W        W97458  11.213  24.829   3.578
25733W        W97459  33.938   9.487  12.292
25734W        W97460  41.883  23.724   0.528
25735W        W97461  20.483  39.837   2.197
25736W        W97462  42.312  18.225   1.962
25737W        W97463  39.890   3.951   0.403
25738W        W97464  26.764  35.119   4.038
25739W        W97465  33.691   6.768   2.810
25740W        W97466  13.767  39.303  14.315
25741W        W97467  11.655  32.203   1.442
25742W        W97468   0.979   0.453  13.097
25743W        W97469  37.332   9.369  10.350
25744W        W97470  24.077  15.826  11.122
25745W        W97471  21.515  10.653  11.063
25746W        W97472   5.736  24.501   0.829
25747W        W97473   7.324  10.228  14.044
25748W        W97474  41.862  38.334   4.868
25749W        W97475  14.619  20.203  13.387
25750W        W97476  33.688  36.959  14.774
25751W        W97477  17.700   2.066  14.377
25752W        W97478  24.256  16.780   1.685
25753W        W97479  37.498  42.408   2.767
25754W        W97480   6.033  40.471  14.851
25755W        W97481   8.393   4.835   4.645
25756W        W97482   7.274  16.646  10.756
25757W        W97483  27.950   7.653  12.064
25758W        W97484   6.322  16.941   1.646
25759W        W97485  24.649  14.074   1.333
25760W        W97486   1.203   7.954   3.204
25761W        W97487   1.105  20.979   1.161
25762W        W97488  38.830   4.876  10.702
25763W        W97489  26.823  11.083  11.011
25764W        W97490  25.473  41.334   5.048
25765W        W97491   3.504  11.684  14.320
25766W        W97492   7.880  38.915   0.786
25767W        W97493  34.429  38.508   0.858
25768W        W97494  17.988  42.428  11.447
25769W        W97495   2.443  39.858   1.204
25770W        W97496  44.906  29.425  13.844
25771W        W97497  25.108   2.952  14.845
25772W        W97498   2.726  28.879   2.089
25773W        W97499  18.127   4.286  11.077
25774W        W97500  26.707  27.215   2.263
25775W        W97501  26.167  31.990   3.400
25776W        W97502   2.986  15.199   3.175
25777W        W97503  22.159  11.331   2.289
25778W        W97504  42.784  44.546  10.744
25779W        W97505  36.782  28.051  12.130
25780W        W97506   4.689  34.771   4.640
25781W        W97507   2.779   0.464   3.883
25782W        W97508  18.838  13.113  11.620
25783W        W97509  13.182  23.492   1.156
25784W        W97510  26.105   2.656  11.640
25785W        W97511  23.081  33.917  12.849
25786W        W97512  21.173  24.991   3.923
25787W        W97513  23.621  24.231   1.811
25788W        W97514  34.046  24.068   4.192
25789W        W97515  42.010  31.397   2.308
25790W        W97516  38.118   6.923  12.841
25791W        W97517  20.810  43.900   4.380
25792W        W97518   2.896  16.563  13.630
25793W        W97519  39.357  17.694  13.379
25794W        W97520  28.697  31.214  14.310
25795W        W97521   7.455  20.150  11.478
25796W        W97522  25.465  23.113   2.126
25797W        W97523  18.963  32.227   3.623
25798W        W97524   9.205   3.278  12.187
25799W        W97525  12.114  31.582   0.796
25800W        W97526  37.248  24.682  11.043
25801W        W97527  27.075  44.868  11.021
25802W        W97528  21.683  27.955  13.506
25803W        W97529   2.217   2.775  11.286
25804W        W97530   0.206   9.207   4.602
25805W        W97531  20.572  35.553   2.244
25806W        W97532  35.804  38.915  14.329
25807W        W97533   5.168  41.306   3.229
25808W        W97534  10.722   4.553  14.362
25809W        W97535   8.252  19.169  11.232
25810W        W97536  20.826  32.201   3.869
25811W        W97537  14.765  22.308  12.715
25812W        W97538  40.122  30.485   0.003
25813W        W97539  26.009   3.699  11.526
25814W        W97540  25.543   1.668   0.225
25815W        W97541  22.309  40.815  10.713
25816W        W97542  31.824  41.328   3.292
25817W        W97543  30.855  13.189  12.029
25818W        W97544  16.209  34.121  14.273
25819W        W97545  15.064  44.401  14.274
25820W        W97546  17.211  30.023   4.672
25821W        W97547   6.907  44.827   4.641
25822W        W97548  10.201  33.563   3.628
25823W        W97549  11.741   6.805  11.587
25824W        W97550  36.504   1.281  14.377
25825W        W97551   4.727  40.320  13.069
25826W        W97552  18.784   5.814  12.616
25827W        W97553  36.049  41.444  10.736
25828W        W97554  16.419  26.906  14.869
25829W        W97555  16.360  26.894   4.259
25830W        W97556  23.565  18.835  11.574
25831W        W97557  15.507  16.753   2.518
25832W        W97558  32.437  17.647  12.918
25833W        W97559  42.712  39.130   0.213
25834W        W97560  16.300   2.203  12.414
25835W        W97561   2.191   8.907   5.115
25836W        W97562  16.160   1.247   2.681
25837W        W97563   6.140  18.047  13.341
25838W        W97564  10.593   7.095  12.531
25839W        W97565  19.037  31.080   1.829
25840W        W97566   8.950  20.312   3.655
25841W        W97567  23.085  17.613  13.883
25842W        W97568   3.582  25.676  14.522
25843W        W97569  30.090  28.491  10.871
25844W        W97570  25.200  28.259  12.012
25845W        W97571  23.708  10.381  12.562
25846W        W97572  39.570  26.209   2.312
25847W        W97573  11.851   6.608   4.122
25848W        W97574  42.520  38.099   0.282
25849W        W97575  12.217  41.313  10.642
25850W        W97576  13.008  27.421   2.917
25851W        W97577  36.639   2.924   0.915
25852W        W97578  34.636  24.899  12.330
25853W        W97579  31.929   5.880   0.527
25854W        W97580  29.849   1.724   4.922
25855W        W97581  42.498  11.695  10.993
25856W        W97582   8.213  36.100  13.570
25857W        W97583  36.783  24.250   2.703
25858W        W97584  31.816  22.144   1.093
25859W        W97585  26.201  25.656  11.548
25860W        W97586   8.428  17.992   3.100
25861W        W97587  22.251  27.672  12.435
25862W        W97588   9.591  25.220   1.043
25863W        W97589  22.215   7.398   4.383
25864W        W97590  19.797   7.845   1.042
25865W        W97591  28.600  37.690  12.207
25866W        W97592  41.018  30.869   4.571
25867W        W97593   2.980  21.302   0.420
25868W        W97594  29.636  34.662  14.470
25869W        W97595   7.853  41.352  10.677
25870W        W97596  39.415  40.506  10.792
25871W        W97597  38.004  10.650   1.754
25872W        W97598  43.704  32.091  13.002
25873W        W97599  37.421  13.780  12.938
25874W        W97600   1.970  34.570   3.195
25875W        W97601   4.520  25.055   4.192
25876W        W97602   4.712  21.001  10.615
25877W        W97603   3.480  42.448   3.915
25878W        W97604  11.421  29.210  11.557
25879W        W97605  25.425  22.015  11.178
25880W        W97606  27.935  11.344  14.520
25881W        W97607   2.464  39.243  10.522
25882W        W97608   3.539  13.145  12.921
25883W        W97609  25.712   1.862  11.691
25884W        W97610   6.428   6.763   3.857
25885W        W97611  15.652  33.721  13.916
25886W        W97612  10.076  31.722   2.354
25887W        W97613  34.300  23.760   2.003
25888W        W97614  29.678  15.108  13.737
25889W        W97615  14.361  13.806   1.867
25890W        W97616  41.345   5.405   0.092
25891W        W97617  25.099  19.671  14.519
25892W        W97618   8.290  21.765  10.616
25893W        W97619  12.462   3.860  11.588
25894W        W97620   7.140  22.685   1.844
25895W        W97621  24.836  44.509   2.264
25896W        W97622  31.961  29.496   4.084
25897W        W97623  24.638   1.213  14.756
25898W        W97624  11.923   2.957   1.812
25899W        W97625  29.130  15.979   4.171
25900W        W97626  39.199  12.559   1.357
25901W        W97627  24.718  33.424   0.005
25902W        W97628   4.821  34.602   0.787
25903W        W97629  44.385  28.993   1.966
25904W        W97630  35.024   0.900   4.484
25905W        W97631  26.028  16.569  11.481
25906W        W97632   3.467  28.151  13.501
25907W        W97633  33.046  37.920  10.377
25908W        W97634  20.539   0.216   0.778
25909W        W97635  13.136  19.036   0.813
25910W        W97636  29.902   2.412  12.986
25911W        W97637  33.223  18.742   2.001
25912W        W97638  11.230  15.775  12.547
25913W        W97639  13.777  28.972   1.741
25914W        W97640  42.866  16.016   3.806
25915W        W97641  30.183  23.485  12.951
25916W        W97642  24.604  16.150  10.822
25917W        W97643  31.037  33.452  10.634
25918W        W97644  30.939   5.165  13.850
25919W        W97645   4.134  23.941   4.273
25920W        W97646   8.188   5.867   0.894
25921W        W97647  34.127  26.228   4.217
25922W        W97648  25.295  38.193   3.065
25923W        W97649  31.905  29.286  10.218
25924W        W97650  28.489  20.095  14.738
25925W        W97651  11.450  27.537   3.717
25926W        W97652  43.474   5.812   1.616
25927W        W97653  30.814  35.519   3.075
25928W        W97654  32.561  37.042   4.345
25929W        W97655  39.313  25.422   1.481
25930W        W97656  18.204  43.757   3.747
25931W        W97657  35.220  22.271  11.093
25932W        W97658  15.775  25.090   0.078
25933W        W97659  24.406  36.898   4.286
25934W        W97660   3.445   8.882   0.791
25935W        W97661  10.914  35.070   0.827
25936W        W97662  43.470  31.696  12.277
25937W        W97663  15.545  33.853  13.442
25938W        W97664  20.546  25.621   3.705
25939W        W97665  36.969  12.662   1.712
25940W        W97666  25.528  18.057   1.462
25941W        W97667  24.016   9.924   4.145
25942W        W97668  30.866  42.402   4.134
25943W        W97669  29.371   0.957  13.589
25944W        W97670  24.824   0.295   2.173
25945W        W97671  29.857  27.072   1.299
25946W        W97672  35.157   9.789  13.796
25947W        W97673  28.462  25.195   0.788
25948W        W97674  31.113   4.253   1.683
25949W        W97675  43.509  21.627  14.789
25950W        W97676   6.870  16.427   5.415
25951W        W97677  43.982  24.626  13.844
25952W        W97678  44.512   1.597   2.231
25953W        W97679  44.971  17.656   4.516
25954W        W97680   8.427  42.321  11.646
25955W        W97681  29.361   6.903  12.479
25956W        W97682  21.147  14.910  13.908
25957W        W97683  31.052  40.247   4.081
25958W        W97684   6.673  33.232  12.648
25959W        W97685  13.131  19.237   2.856
25960W        W97686  19.725  18.936   2.612
25961W        W97687  42.359  40.729  13.527
25962W        W97688  20.030  22.817  11.391
25963W        W97689  33.928  42.192  13.577
25964W        W97690  19.499   2.982   0.882
25965W        W97691  43.002  36.563   1.342
25966W        W97692  23.242  14.159  13.989
25967W        W97693  14.048  30.552  14.502
25968W        W97694  43.228   5.978  11.115
25969W        W97695  25.986  37.820  11.475
25970W        W97696  43.654  23.455  13.492
25971W        W97697  27.577  13.881  13.620
25972W        W97698   0.925  41.159  14.393
25973W        W97699  24.059   7.453   0.743
25974W        W97700  17.773   2.268  11.532
25975W        W97701  13.271  42.370  12.119
25976W        W97702  29.116  42.776   2.941
25977W        W97703   9.466  44.663   2.166
25978W        W97704  35.922   5.252   1.719
25979W        W97705   8.446  28.547  12.494
25980W        W97706   3.300  30.981  13.921
25981W        W97707   1.344  35.514  14.390
25982W        W97708  33.426  21.014  14.749
25983W        W97709   8.620  40.084   2.819
25984W        W97710   3.652  33.323   1.590
25985W        W97711  28.494  34.594   1.766
25986W        W97712  35.984   9.526  11.666
25987W        W97713  13.101   8.903   3.848
25988W        W97714   5.140  18.132   0.444
25989W        W97715  22.767  19.738  12.120
25990W        W97716  25.700  38.774  10.760
25991W        W97717   2.837  25.792   1.359
25992W        W97718  39.169  34.762   1.531
25993W        W97719   0.015  15.879   1.273
25994W        W97720   9.796  16.766  13.728
25995W        W97721  11.635  34.171  12.527
25996W        W97722  16.072   2.980  14.932
25997W        W97723  26.603  10.197  11.946
25998W        W97724   1.947  10.658   4.594
25999W        W97725  33.100   4.013   0.848
26000W        W97726   8.004   6.634   4.565
26001W        W97727   9.940  41.817   3.195
26002W        W97728   9.674  22.084  12.048
26003W        W97729  15.741   7.461   3.063
26004W        W97730  15.345  19.653  13.112
26005W        W97731  44.376   6.310  14.081
26006W        W97732  32.697  20.409  14.385
26007W        W97733  11.387  15.096   0.228
26008W        W97734  33.558  26.012  13.915
26009W        W97735   5.138  35.197   3.747
26010W        W97736  30.151  30.684   2.381
26011W        W97737  15.404  38.482  12.034
26012W        W97738  29.745  44.947   3.033
26013W        W97739  18.622  19.106   0.028
26014W        W97740   8.387  42.813  14.306
26015W        W97741  25.969  17.791   2.325
26016W        W97742  40.348   7.850   1.863
26017W        W97743  10.700  15.608   4.480
26018W        W97744  33.178   3.083   3.158
26019W        W97745   3.345  15.513   4.011
26020W        W97746   7.828  37.905   0.841
26021W        W97747  42.018  20.590  13.976
26022W        W97748  20.785  22.387  12.905
26023W        W97749  37.857  43.939   1.718
26024W        W97750   7.405  38.247   0.749
26025W        W97751   3.321   9.342   3.016
26026W        W97752  21.092  20.328   3.288
26027W        W97753   8.449  20.263   1.340
26028W        W97754   0.367  44.604   1.019
26029W        W97755  19.519  33.911  13.630
26030W        W97756  42.822  18.021  14.675
26031W        W97757  28.680  18.314  13.429
26032W        W97758  30.598  24.922  13.343
26033W        W97759  22.208  18.098  10.674
26034W        W97760   1.438  38.497  12.319
26035W        W97761  44.773  27.617  12.116
26036W        W97762  23.737  32.370  13.059
26037W        W97763  21.948   9.229   1.460
26038W        W97764  35.732  22.247  11.151
26039W        W97765  36.564   1.791  14.916
26040W        W97766  17.465  13.154  13.509
26041W        W97767  12.155  32.994  11.655
26042W        W97768  30.247  41.773  10.745
26043W        W97769  27.783  42.152   0.407
26044W        W97770  26.532   4.932  10.626
26045W        W97771  42.864  18.149  11.874
26046W        W97772  26.172  23.687   4.665
26047W        W97773  38.619   1.415   1.850
26048W        W97774   0.110   0.725  12.822
26049W        W97775  25.995  35.476   4.607
26050W        W97776  21.009  11.421   1.901
26051W        W97777  19.435   1.180   4.045
26052W        W97778  38.097   1.322   0.235
26053W        W97779  38.493  26.133  14.478
26054W        W97780  36.386   7.474  12.619
26055W        W97781  34.863  43.345   2.852
26056W        W97782  29.817  26.638   0.381
26057W        W97783  30.947  13.381   0.191
26058W        W97784  17.017  28.019  10.621
26059W        W97785  25.974  18.475  10.982
26060W        W97786  38.510  24.731  14.377
26061W        W97787  37.141  27.239   3.705
26062W        W97788  36.689  29.048  13.593
26063W        W97789  34.308  39.095  11.873
26064W        W97790  22.416   8.930  10.853
26065W        W97791  18.644  43.965   0.761
26066W        W97792   6.543  14.186   4.179
26067W        W97793  18.564  25.422   1.869
26068W        W97794  40.737  17.030  12.442
26069W        W97795  12.635  43.858  14.431
26070W        W97796  13.711  35.509  11.301
26071W        W97797   1.096  28.175  13.437
26072W        W97798  39.949  23.253   1.321
26073W        W97799  24.177  32.368  13.322
26074W        W97800  17.616  19.770   1.972
26075W        W97801   5.433   5.574  11.501
26076W        W97802  26.550   1.388   0.456
26077W        W97803  13.424  22.543  13.467
26078W        W97804   7.480  16.085  14.022
26079W        W97805  35.390  12.203   3.766
26080W        W97806  20.049  21.508   2.945
26081W        W97807  10.895  27.327  11.685
26082W        W97808  38.488   0.682   3.274
26083W        W97809  25.083  28.442   0.780
26084W        W97810  37.543  19.145  14.521
26085W        W97811  21.721   4.043  12.634
26086W        W97812  39.281  25.536   0.946
26087W        W97813   2.175  20.746   2.514
26088W        W97814   8.771  35.369   3.756
26089W        W97815  14.204  11.803  11.216
26090W        W97816   9.689  19.764  14.250
26091W        W97817  17.181  11.367   1.798
26092W        W97818  11.698  34.673   1.768
26093W        W97819   5.510   2.240  13.588
26094W        W97820  24.985  42.358   0.949
26095W        W97821  20.670   1.471  10.969
26096W        W97822   2.776  38.568  10.663
26097W        W97823  32.727   7.277  12.041
26098W        W97824  26.884   8.888   2.402
26099W        W97825   4.559   3.387   2.324
26100W        W97826  40.739  19.852  14.070
26101W        W97827  31.693  41.349  11.687
26102W        W97828  14.832  15.141   1.154
26103W        W97829  34.635  37.283   1.194
26104W        W97830  40.552  32.106   1.698
26105W        W97831  28.712  11.802   4.074
26106W        W97832  32.440  29.588  13.246
26107W        W97833   8.401  22.387   1.843
26108W        W97834  33.872   0.499   3.064
26109W        W97835  33.641   9.807  12.575
26110W        W97836   3.364  28.031   2.410
26111W        W97837  22.313  20.582  12.502
26112W        W97838  12.825  19.671   2.623
26113W        W97839   1.726  20.812  12.143
26114W        W97840   5.382  36.227  14.306
26115W        W97841  32.977  34.145  14.933
26116W        W97842  41.072   1.867  13.448
26117W        W97843  31.408  33.069   4.113
26118W        W97844  42.898  32.146   2.609
26119W        W97845   0.414  37.298  11.554
26120W        W97846  17.747  15.077   3.200
26121W        W97847  17.244  12.983   0.210
26122W        W97848   7.516  17.465   2.264
26123W        W97849   1.863  12.427  12.085
26124W        W97850   7.868   2.430  10.710
26125W        W97851  31.597   7.280  14.953
26126W        W97852  42.246  25.147  12.399
26127W        W97853  33.889   4.181   2.845
26128W        W97854  14.084  26.010  11.204
26129W        W97855   9.566  39.518   0.330
26130W        W97856  29.871  19.756  12.220
26131W        W97857  23.994  40.389  10.329
26132W        W97858  26.259  10.140   0.416
26133W        W97859  26.458   5.271   1.302
26134W        W97860   9.687  19.005  13.119
26135W        W97861  23.783  44.748  11.741
26136W        W97862  22.716  36.732  13.610
26137W        W97863  40.273  43.756  13.807
26138W        W97864   9.723  29.687   4.580
26139W        W97865  23.184  18.694   2.896
26140W        W97866  41.455   5.817   0.415
26141W        W97867  27.171   1.473   2.305
26142W        W97868  18.554  41.064   3.728
26143W        W97869  44.445  44.225  13.924
26144W        W97870  27.580  23.870   3.682
26145W        W97871  10.263  25.791   2.032
26146W        W97872  13.474  26.035   0.582
26147W        W97873  15.734  33.208  13.841
26148W        W97874  19.690  10.440   4.019
26149W        W97875  43.759  26.786  11.965
26150W        W97876  23.267  40.346   0.445
26151W        W97877   0.515  26.650   1.715
26152W        W97878  43.228  18.698   3.671
26153W        W97879  20.215  37.831  13.398
26154W        W97880  41.172  16.331   4.187
26155W        W97881  19.532  13.298   0.361
26156W        W97882  25.229  44.198  10.679
26157W        W97883  24.519  34.159  11.968
26158W        W97884  16.852   9.550  12.660
26159W        W97885   2.492  43.004  10.368
26160W        W97886  28.739   2.725  14.484
26161W        W97887  32.966  22.608  11.682
26162W        W97888  27.952  10.358  14.060
26163W        W97889  42.110  40.751   0.471
26164W        W97890  32.532  42.385  13.231
26165W        W97891   2.969  20.927   2.835
26166W        W97892  17.509  26.372   4.538
26167W        W97893   5.723   3.713  11.603
26168W        W97894  20.667  33.018   2.646
26169W        W97895  28.860  28.669   3.272
26170W        W97896  28.473   6.305   1.213
26171W        W97897  41.374  19.232  12.938
26172W        W97898   8.359  29.472   1.529
26173W        W97899   4.085  17.671  11.199
26174W        W97900  12.949   6.830  14.365
26175W        W97901  21.096  18.576   3.725
26176W        W97902  43.975  20.086   4.968
26177W        W97903  13.754   2.087  12.875
26178W        W97904  34.472  32.106  13.328
26179W        W97905  25.553  29.305  13.324
26180W        W97906  12.662  33.423   2.271
26181W        W97907  24.123  39.066  11.424
26182W        W97908  43.111  41.581   2.760
26183W        W97909  10.765   8.617   4.434
26184W        W97910  37.269  26.349   2.047
26185W        W97911  44.334  13.408   2.118
26186W        W97912  35.682  43.302   1.939
26187W        W97913  36.032  37.884   1.684
26188W        W97914  30.848  25.035  12.857
26189W        W97915   4.725   6.491   3.341
26190W        W97916   5.249  42.787  10.270
26191W        W97917  10.440  22.204   1.768
26192W        W97918  15.304  41.291  10.526
26193W        W97919   1.849  16.029   4.569
26194W        W97920  13.632  12.298   2.688
26195W        W97921  26.252  28.048   1.254
26196W        W97922  11.975   1.500  10.564
26197W        W97923   3.756  39.513   4.775
26198W        W97924   2.012  19.400  11.042
26199W        W97925  32.581   7.383  10.620
26200W        W97926  28.288  43.443   4.182
26201W        W97927  33.917  15.758  13.919
26202W        W97928  16.750  37.606   4.253
26203W        W97929  27.550   0.244   1.285
26204W        W97930  38.670  19.188   2.730
26205W        W97931  39.463   3.287  11.924
26206W        W97932  44.894  33.607  12.911
26207W        W97933  24.948  41.737  11.453
26208W        W97934  12.253  10.294   3.586
26209W        W97935  43.537  28.959   4.249
26210W        W97936  38.980  29.010  14.896
26211W        W97937  39.675  31.032   3.435
26212W        W97938   0.259  11.513   4.628
26213W        W97939  14.601  31.313   1.973
26214W        W97940  11.341  39.457  11.134
26215W        W97941   0.429   3.209   1.867
26216W        W97942  10.674  12.789  10.617
26217W        W97943  25.011  23.923  11.972
26218W        W97944  16.652  26.727   0.729
26219W        W97945   7.305  34.917   2.908
26220W        W97946  37.435   1.392  14.052
26221W        W97947   0.540  29.596   3.401
26222W        W97948   7.476   5.426   0.451
26223W        W97949  40.216  17.491   2.350
26224W        W97950   6.556  29.841  11.099
26225W        W97951  39.453  26.899   1.256
26226W        W97952  16.593  21.445  12.120
26227W        W97953  25.925  39.057  12.414
26228W        W97954   2.498   3.938  13.895
26229W        W97955  16.539  25.642  14.410
26230W        W97956  36.496  15.913   5.057
26231W        W97957  44.308   0.306  14.638
26232W        W97958  10.336  44.728  11.717
26233W        W97959  17.784  24.968  13.942
26234W        W97960  40.875  20.326  12.597
26235W        W97961  28.020   3.777   3.827
26236W        W97962  44.920  32.696   4.319
26237W        W97963  17.712  28.340   0.611
26238W        W97964  36.391  31.622   0.304
26239W        W97965  31.465   3.695   1.150
26240W        W97966  20.580  35.892   0.963
26241W        W97967  35.444   8.959   1.946
26242W        W97968  17.656  34.092   4.057
26243W        W97969  32.207  16.336   4.058
26244W        W97970  16.027  35.158  13.785
26245W        W97971  10.703   4.868  12.101
26246W        W97972  39.059  37.303   3.630
26247W        W97973  10.594  25.142   0.870
26248W        W97974  12.923  13.682  14.046
26249W        W97975  44.578  22.018  10.873
26250W        W97976  33.187  22.984  11.402
26251W        W97977  15.779  10.182   2.106
26252W        W97978  18.699   2.825  13.930
26253W        W97979  33.926  21.267   4.213
26254W        W97980  34.133  39.030   3.153
26255W        W97981   4.337  21.127   3.583
26256W        W97982  33.544  25.624   4.572
26257W        W97983  11.334  17.807   2.244
26258W        W97984  13.770  17.795   3.379
26259W        W97985  24.049  14.757  10.490
26260W        W97986  20.826  18.103  10.186
26261W        W97987  15.073  19.972  12.072
26262W        W97988  16.310   5.359  11.557
26263W        W97989  27.224  33.909  10.907
26264W        W97990  19.081   7.124  13.857
26265W        W97991  35.380   7.098  11.127
26266W        W97992   0.974  23.739  13.723
26267W        W97993  39.811  44.880   3.723
26268W        W97994  29.459  11.835  12.467
26269W        W97995  29.155  28.431  12.909
26270W        W97996  13.227  28.141  13.433
26271W        W97997  17.289   4.641  13.814
26272W        W97998   1.544  43.005   4.413
26273W        W97999   5.143   7.077   5.301
26274W        W98000   3.693  42.481  13.570
26275W        W98001   4.732  25.737   2.402
26276W        W98002  30.870  22.835  14.025
26277W        W98003  35.500  38.637   1.378
26278W        W98004  26.546  12.834   4.085
26279W        W98005  42.582  14.441  12.008
26280W        W98006  22.022  25.784   5.333
26281W        W98007  19.531  33.618  14.512
26282W        W98008  35.427  20.747   1.745
26283W        W98009  24.436  41.060  10.693
26284W        W98010  37.783  22.981  12.430
26285W        W98011  42.517  14.112   2.915
26286W        W98012  20.987  39.923  10.155
26287W        W98013  33.363  18.768  14.229
26288W        W98014  38.971  38.064  11.178
26289W        W98015  12.439  27.066   4.025
26290W        W98016   0.040  40.060  14.837
26291W        W98017  30.130   0.751   4.669
26292W        W98018  30.066  24.637  14.392
26293W        W98019  36.482  20.705  12.869
26294W        W98020  40.374  15.552   3.302
26295W        W98021  20.983  36.930  12.057
26296W        W98022  38.276   9.125   0.957
26297W        W98023  30.115  38.401   0.318
26298W        W98024   5.285  13.538  10.199
26299W        W98025  34.437  16.832   2.808
26300W        W98026  33.083  42.712   2.695
26301W        W98027  35.042   5.266   2.146
26302W        W98028  42.814   1.950  11.515
26303W        W98029  15.383   2.952   2.680
26304W        W98030  43.386  17.687   1.801
26305W        W98031  14.597  43.456  13.474
26306W        W98032  25.461   3.288  13.577
26307W        W98033  15.651   3.874  11.178
26308W        W98034  24.742  31.221  10.788
26309W        W98035  29.566  18.992   4.894
26310W        W98036  38.475  35.836  12.397
26311W        W98037  35.620  40.962   2.779
26312W        W98038   6.211  34.889  13.833
26313W        W98039   3.269  22.553  12.971
26314W        W98040   6.353  42.034  14.776
26315W        W98041   3.750  26.105   4.553
26316W        W98042   2.817  12.353  11.197
26317W        W98043  24.149   9.706   0.041
26318W        W98044   4.671  12.310   3.550
26319W        W98045   0.808  42.318  11.606
26320W        W98046  28.793  23.519  13.915
26321W        W98047  20.543  20.970  13.027
26322W        W98048  39.036  10.667   0.276
26323W        W98049  42.489  30.088  13.318
26324W        W98050   2.463  37.396   3.834
26325W        W98051  43.887  24.906  14.412
26326W        W98052   8.467  24.625   4.651
26327W        W98053  29.435  28.973  13.390
26328W        W98054  36.311  25.731   4.258
26329W        W98055  28.330  10.060  10.599
26330W        W98056  10.089  31.494   4.588
26331W        W98057  31.550  24.388  14.693
26332W        W98058   2.107  18.157  14.412
26333W        W98059  10.908  18.211   1.476
26334W        W98060  11.794  23.944   0.321
26335W        W98061  19.255  26.410   3.800
26336W        W98062   8.872   2.438  14.365
26337W        W98063  32.391   1.169   0.826
26338W        W98064  40.966  38.449   4.187
26339W        W98065  21.251  34.369  10.779
26340W        W98066  36.379  10.287   2.881
26341W        W98067  20.853  22.667  10.651
26342W        W98068   8.221  18.053   2.626
26343W        W98069  34.098  34.894   3.936
26344W        W98070   9.956  26.628   1.780
26345W        W98071  38.989  16.272  14.391
26346W        W98072   1.618  10.935  14.304
26347W        W98073  12.688   8.886  13.810
26348W        W98074   5.664   5.814   2.575
26349W        W98075  11.628   9.188  10.607
26350W        W98076   0.499  22.794   1.027
26351W        W98077  30.662  33.371  11.944
26352W        W98078  20.729  15.435  10.765
26353W        W98079   8.949   7.418   2.832
26354W        W98080  24.222  27.587   0.014
26355W        W98081  31.000  30.817   0.908
26356W        W98082  11.119  27.621   0.519
26357W        W98083  10.340  44.232  10.427
26358W        W98084  44.962  43.342  12.516
26359W        W98085   2.949   7.005  14.261
26360W        W98086  15.081  12.477  11.746
26361W        W98087   7.402  14.757   1.179
26362W        W98088  13.342  37.953  12.367
26363W        W98089   1.757  11.151   3.990
26364W        W98090  39.824  20.539   0.383
26365W        W98091  29.711   8.640  11.934
26366W        W98092  12.273  43.007   0.758
26367W        W98093  10.627  24.386  11.373
26368W        W98094  19.602  15.594  11.149
26369W        W98095  42.800   0.389  12.531
26370W        W98096  11.067   5.143  14.313
26371W        W98097  41.204  15.237   0.435
26372W        W98098   4.910   3.440   1.133
26373W        W98099   4.154  16.544   4.185
26374W        W98100  17.007  42.565   0.587
26375W        W98101  40.022   6.904   2.292
26376W        W98102  27.980   0.777   0.078
26377W        W98103  35.886  13.770  10.782
26378W        W98104  31.069  29.709   1.909
26379W        W98105   4.942  18.227   3.821
26380W        W98106  25.703  43.310  12.393
26381W        W98107  17.782  38.945   5.441
26382W        W98108  10.895   1.884   0.410
26383W        W98109  28.061  17.061  11.672
26384W        W98110   0.513  39.343   2.703
26385W        W98111   1.211  13.408  12.971
26386W        W98112   3.793  41.466  14.307
26387W        W98113  18.567  29.445   4.875
26388W        W98114  10.683   0.803   1.834
26389W        W98115  33.285  27.480  13.348
26390W        W98116  13.263  22.451   1.337
26391W        W98117  12.716  24.459   2.507
26392W        W98118  35.538   1.964  12.060
26393W        W98119  32.577  40.836  12.635
26394W        W98120   8.583   8.457   3.243
26395W        W98121  15.110  21.439  13.121
26396W        W98122  40.007  44.213   0.543
26397W        W98123  38.879  14.753  12.374
26398W        W98124  18.544   0.444  13.870
26399W        W98125  18.634   1.181   0.133
26400W        W98126   2.617  18.241   0.465
26401W        W98127  37.062  33.889   2.263
26402W        W98128  11.173  32.418  12.387
26403W        W98129  27.033  24.562   0.794
26404W        W98130   2.237  10.686  12.543
26405W        W98131  38.496  10.838   1.762
26406W        W98132  29.042  17.032   4.014
26407W        W98133  40.855   9.336   3.791
26408W        W98134  24.428   6.012  12.895
26409W        W98135  11.654  26.579  13.091
26410W        W98136  24.160   0.387  13.990
26411W        W98137  31.789  24.358   1.886
26412W        W98138  32.502  40.304   2.322
26413W        W98139  32.180  30.032  14.977
26414W        W98140  43.460  12.380  13.058
26415W        W98141   4.993  18.679  10.899
26416W        W98142  20.520  35.537  11.566
26417W        W98143  42.026  35.381   0.450
26418W        W98144  36.960  15.049   1.988
26419W        W98145  18.033  39.630   1.815
26420W        W98146  16.098  23.980   1.403
26421W        W98147   3.445  10.898   4.063
26422W        W98148   5.676  16.852  12.032
26423W        W98149  26.172  12.822   2.829
26424W        W98150  10.923  18.513   3.206
26425W        W98151  33.942  28.553   1.150
26426W        W98152  21.057  37.464  14.840
26427W        W98153   6.690   9.379  14.252
26428W        W98154  23.451  27.679   2.300
26429W        W98155  40.993  21.340  11.606
26430W        W98156  36.327  25.012   2.408
26431W        W98157  41.069  31.897   4.419
26432W        W98158  43.533   6.786  11.468
26433W        W98159  26.701  12.911  10.449
26434W        W98160  42.155  26.441  14.552
26435W        W98161  16.645  18.288   1.683
26436W        W98162  29.919  21.852   2.660
26437W        W98163  21.709   1.272   3.156
26438W        W98164   6.150  39.468   0.735
26439W        W98165  26.176   9.121  13.511
26440W        W98166  38.940   5.734   1.345
26441W        W98167  38.038  28.566   3.356
26442W        W98168  19.944  35.812  13.872
26443W        W98169  20.523  44.612   1.936
26444W        W98170   6.201  34.965  12.558
26445W        W98171   1.385   6.747   4.664
26446W        W98172  18.746  41.942  13.809
26447W        W98173   0.806  24.501   3.071
26448W        W98174  16.856  44.053  12.052
26449W        W98175  30.142  23.507   4.163
26450W        W98176  42.929  41.782  12.114
26451W        W98177  15.376  35.926  11.981
26452W        W98178   3.938   7.169   4.511
26453W        W98179  36.032  17.424  14.812
26454W        W98180  22.169   5.924   2.908
26455W        W98181   8.616  33.219   1.848
26456W        W98182  29.189  34.350  13.372
26457W        W98183  33.634  23.688   0.612
26458W        W98184  38.095   2.792  14.852
26459W        W98185   8.433  24.941   2.896
26460W        W98186  30.549   0.021  14.837
26461W        W98187  37.317  40.325   1.693
26462W        W98188  19.337  43.436  11.535
26463W        W98189  19.710   6.355   0.691
26464W        W98190  37.305  25.187  11.085
26465W        W98191   9.819  21.129   2.469
26466W        W98192  43.500  32.629   1.613
26467W        W98193  12.705   4.236  13.432
26468W        W98194  17.285   4.977  13.434
26469W        W98195  43.277   7.230  11.421
26470W        W98196  23.470  37.373   1.266
26471W        W98197   8.765  31.049  14.681
26472W        W98198   3.955  17.854  13.414
26473W        W98199  25.909  15.312  12.007
26474W        W98200  20.541  18.085  11.917
26475W        W98201  35.044  17.162   1.696
26476W        W98202  44.913  43.287   1.720
26477W        W98203  25.263  13.903   4.255
26478W        W98204  24.231  11.749  11.594
26479W        W98205  28.231  17.738  13.874
26480W        W98206  44.388  41.037  10.240
26481W        W98207  15.622   8.664   4.572
26482W        W98208  38.779  37.374  14.874
26483W        W98209   3.110  14.666   1.281
26484W        W98210  44.309  24.934  14.129
26485W        W98211  22.998  21.804   4.097
26486W        W98212  32.140   1.669  13.012
26487W        W98213   8.383  43.853  12.979
26488W        W98214   6.269   6.328  10.693
26489W        W98215  15.227  21.865   2.276
26490W        W98216  28.695  10.856  11.641
26491W        W98217  34.089  10.541  10.685
26492W        W98218  31.988   4.365   1.500
26493W        W98219  41.542  30.460   1.739
26494W        W98220  10.054  37.824  12.111
26495W        W98221  29.704  12.590  14.803
26496W        W98222   1.361   6.355   3.902
26497W        W98223  25.877  37.518   2.538
26498W        W98224  34.067   8.744  12.431
26499W        W98225  29.501  14.117   4.136
26500W        W98226  30.470  39.303   4.827
26501W        W98227   7.488  28.364   4.203
26502W        W98228   2.880  22.167   1.917
26503W        W98229  23.078  43.310  12.191
26504W        W98230  40.478   6.937   1.981
26505W        W98231  32.671  25.881   4.707
26506W        W98232  43.503   1.374  11.030
26507W        W98233  12.173  28.493   2.628
26508W        W98234  11.625  23.693  13.444
26509W        W98235  35.459  25.533  12.645
26510W        W98236  16.080  27.770   3.580
26511W        W98237  28.700  31.517   0.138
26512W        W98238  41.303   7.908   0.732
26513W        W98239  20.548  14.251  10.047
26514W        W98240  38.429  23.216   0.443
26515W        W98241  38.965  26.558   4.579
26516W        W98242  33.694  10.832   0.881
26517W        W98243  43.094  23.794  11.021
26518W        W98244  38.296   6.983   1.166
26519W        W98245  19.532  37.557  14.925
26520W        W98246  23.623   0.733  11.427
26521W        W98247  19.321   3.493  10.855
26522W        W98248   1.222  29.596   1.234
26523W        W98249  35.993  25.606  14.899
26524W        W98250  20.540  43.775   3.948
26525W        W98251  17.817  23.752   1.266
26526W        W98252  14.995  18.046   3.232
26527W        W98253  13.997  20.951   3.891
26528W        W98254  18.146  28.061   3.292
26529W        W98255  39.927  44.490   4.110
26530W        W98256  15.172  13.788   0.291
26531W        W98257   9.595  22.457   3.194
26532W        W98258  20.271  15.752  10.674
26533W        W98259  27.426  26.613   2.223
26534W        W98260  40.823  32.946   4.682
26535W        W98261   1.341  42.199  12.303
26536W        W98262   5.475  10.497   1.285
26537W        W98263  35.137  28.664  14.198
26538W        W98264   9.407  17.527   4.821
26539W        W98265  43.594  37.725  12.468
26540W        W98266  27.075  23.824   3.808
26541W        W98267   9.917   0.529   4.791
26542W        W98268  25.454  30.882  14.775
26543W        W98269  34.080  43.878   1.318
26544W        W98270   8.694  41.564  11.140
26545W        W98271   0.010  16.551   1.968
26546W        W98272  25.815  37.802  13.865
26547W        W98273  40.406  24.055  11.351
26548W        W98274  11.176  21.294  11.026
26549W        W98275  29.947  18.770   3.874
26550W        W98276   4.776   2.927   2.334
26551W        W98277   7.910  32.914   2.861
26552W        W98278  41.549  32.408  11.839
26553W        W98279  34.021  33.863   0.052
26554W        W98280  29.864  41.462   4.746
26555W        W98281  19.191  44.198  10.670
26556W        W98282  33.967  42.873   2.714
26557W        W98283   2.923  35.586   4.635
26558W        W98284   2.397  32.683   1.803
26559W        W98285  40.859   5.771   4.130
26560W        W98286  25.187  33.177   3.652
26561W        W98287  19.413  30.560  10.646
26562W        W98288  35.859  22.217   0.482
26563W        W98289  37.530   8.601   0.679
26564W        W98290  27.998  39.733   3.510
26565W        W98291  22.578  18.523   4.138
26566W        W98292  31.929  18.616   0.695
26567W        W98293  26.305  15.481   0.026
26568W        W98294  21.150  42.201   4.655
26569W        W98295  32.961  27.761  13.999
26570W        W98296  10.773  17.087   1.008
26571W        W98297  24.451  35.956  11.521
26572W        W98298   0.401  41.813   3.946
26573W        W98299  23.747  15.620   1.643
26574W        W98300  18.842  13.702   2.685
26575W        W98301  39.633   6.243  11.651
26576W        W98302  26.548  28.895  13.420
26577W        W98303  18.674   1.697   0.199
26578W        W98304  41.395  38.756  11.542
26579W        W98305  42.884  33.966   4.772
26580W        W98306   5.826   5.733   3.055
26581W        W98307  22.026  25.445  13.160
26582W        W98308  14.345  37.941  10.169
26583W        W98309  31.093  27.024   3.845
26584W        W98310  44.260  40.300  12.848
26585W        W98311  26.214  10.645  12.654
26586W        W98312   1.894  14.387   0.491
26587W        W98313   0.443   7.214   1.309
26588W        W98314  35.182   1.500   2.897
26589W        W98315  38.472  35.618   1.894
26590W        W98316  12.665  21.233   1.878
26591W        W98317  14.662  25.598  13.984
26592W        W98318  44.872  34.971  14.067
26593W        W98319  17.264  28.117   9.847
26594W        W98320  30.462  33.085  12.601
26595W        W98321  42.430  25.574  11.599
26596W        W98322  28.900  14.639  10.640
26597W        W98323  10.364  30.186  11.509
26598W        W98324  39.010   3.750   2.419
26599W        W98325  12.445  18.376   3.614
26600W        W98326  35.916  23.506   1.722
26601W        W98327  13.539   4.841   2.232
26602W        W98328  12.194   2.591  12.589
26603W        W98329  38.624  19.710  13.420
26604W        W98330  23.275  42.691  11.172
26605W        W98331   5.892  38.560   4.577
26606W        W98332  18.622  40.602  13.419
26607W        W98333  24.741  23.672  11.176
26608W        W98334  40.360   7.946  11.863
26609W        W98335  31.004  35.981   4.514
26610W        W98336  23.992   5.240  11.142
26611W        W98337  20.485  14.216  14.365
26612W        W98338  24.156  27.635   0.523
26613W        W98339  18.761   2.466   0.801
26614W        W98340  43.368   5.638  10.623
26615W        W98341  28.656  13.015  11.176
26616W        W98342  18.014  25.048   4.641
26617W        W98343  10.085  13.932   4.501
26618W        W98344  36.598  33.223  14.795
26619W        W98345   9.747  30.977   0.000
26620W        W98346  43.763   8.355  12.952
26621W        W98347  22.918  13.924  12.014
26622W        W98348  14.994   2.881   4.181
26623W        W98349  39.989  24.736  12.641
26624W        W98350  31.597  28.953   2.870
26625W        W98351  27.651  15.018   4.492
26626W        W98352   0.457  11.607  10.448
26627W        W98353  32.379  22.739  11.676
26628W        W98354  40.444  32.915  14.769
26629W        W98355  42.960   4.821   1.964
26630W        W98356   8.954  35.972  11.273
26631W        W98357  31.053  27.040  13.365
26632W        W98358  28.244  20.629   1.981
26633W        W98359  29.091  20.753  12.709
26634W        W98360  22.589  20.010  13.327
26635W        W98361  42.670  22.086   2.238
26636W        W98362  32.989  29.070  11.268
26637W        W98363  30.162   1.906   1.971
26638W        W98364  10.796  36.596   2.739
26639W        W98365  26.536   9.178   1.908
26640W        W98366  35.057   3.270  14.525
26641W        W98367  20.563  38.470   4.772
26642W        W98368   1.955   2.554  12.867
26643W        W98369  37.607  26.027   3.005
26644W        W98370  30.968  18.514  12.055
26645W        W98371  31.103  10.330  12.408
26646W        W98372   2.777   6.736  10.640
26647W        W98373  39.364  11.194   2.194
26648W        W98374  36.081   8.325  14.341
26649W        W98375  41.871  35.521   3.382
26650W        W98376   3.099  40.119   4.562
26651W        W98377  44.713  15.619   2.240
26652W        W98378  36.848  33.906  12.081
26653W        W98379  15.360   1.776  12.532
26654W        W98380   5.178  33.329   1.221
26655W        W98381  28.139  18.835   4.051
26656W        W98382  44.445  21.629   3.200
26657W        W98383  38.029  11.146  14.923
26658W        W98384   1.345  12.318   4.529
26659W        W98385  10.396  23.590  11.199
26660W        W98386  20.778   7.299  12.126
26661W        W98387  14.075   7.440   0.510
26662W        W98388  16.760  24.941  10.629
26663W        W98389  14.214   0.222  10.746
26664W        W98390  21.089  26.126   5.022
26665W        W98391   3.636   1.486  11.056
26666W        W98392   1.149   0.659  12.652
26667W        W98393  19.229  42.393  12.087
26668W        W98394  14.562   9.091   3.199
26669W        W98395  10.398   2.060   0.435
26670W        W98396  22.256  15.373   5.531
26671W        W98397   5.857  44.311   1.651
26672W        W98398  27.763   0.629   9.886
26673W        W98399  10.850  40.881   1.956
26674W        W98400  33.543  40.301  14.262
26675W        W98401   5.737   6.187  13.975
26676W        W98402  19.707  18.293  10.958
26677W        W98403  12.132  30.054  12.963
26678W        W98404  38.321   2.846   2.810
26679W        W98405  31.391   7.448   3.922
26680W        W98406  36.895  10.139  11.612
26681W        W98407  40.059   2.153  11.176
26682W        W98408  20.540   3.738   3.757
26683W        W98409   3.542  40.907  13.907
26684W        W98410  24.547  14.790  10.162
26685W        W98411  30.427  12.616   0.362
26686W        W98412  41.535  28.150  14.941
26687W        W98413   2.980   2.791  12.917
26688W        W98414   8.616  22.179   5.132
26689W        W98415  39.671  24.183   1.246
26690W        W98416  25.721   6.694  12.109
26691W        W98417  39.835  34.969   3.262
26692W        W98418  13.696  10.324  11.349
26693W        W98419  22.379   9.553   1.287
26694W        W98420  30.041  44.805  14.821
26695W        W98421  28.375  27.825   1.138
26696W        W98422  14.109  43.676   3.155
26697W        W98423  15.136  40.807  13.300
26698W        W98424   1.517  31.459   1.385
26699W        W98425  11.798  44.177  14.554
26700W        W98426  36.079  15.043  11.149
26701W        W98427  33.004  37.900  10.889
26702W        W98428  41.016  22.121   4.057
26703W        W98429  24.049  35.379   0.343
26704W        W98430  19.110  12.256  11.398
26705W        W98431  30.107  23.498   2.372
26706W        W98432   6.206  17.082   0.239
26707W        W98433   3.264  44.483  10.727
26708W        W98434  35.152  39.881   4.415
26709W        W98435  23.799  28.540  14.892
26710W        W98436   8.619  12.719  13.031
26711W        W98437  40.921   6.657   2.142
26712W        W98438  14.982  29.917   1.270
26713W        W98439  11.613   6.755   1.933
26714W        W98440  13.248  23.059  10.478
26715W        W98441  10.462   0.522  10.373
26716W        W98442  10.886   1.567   3.647
26717W        W98443  33.514  32.066  10.174
26718W        W98444   5.922  19.014  10.562
26719W        W98445  15.660   1.849  13.003
26720W        W98446   4.159   8.734  14.989
26721W        W98447  20.073  16.423   1.252
26722W        W98448  34.005  41.098  12.807
26723W        W98449   9.292  34.943   2.270
26724W        W98450  39.984  42.908   1.257
26725W        W98451  26.735   7.449   0.354
26726W        W98452  28.224  12.113   4.720
26727W        W98453  12.718  17.159   1.752
26728W        W98454  28.202  12.247   0.692
26729W        W98455   0.233  34.138  13.543
26730W        W98456   2.594  15.414   2.163
26731W        W98457  42.250   9.398   2.786
26732W        W98458  11.813  25.159   0.640
26733W        W98459  39.584  29.571   0.545
26734W        W98460  37.085  23.288  14.425
26735W        W98461  21.123  12.168  14.188
26736W        W98462  40.839  34.987   4.378
26737W        W98463  18.134  19.076   0.267
26738W        W98464   1.082  11.086   0.514
26739W        W98465  35.457  43.176   2.393
26740W        W98466  16.764  13.306   4.573
26741W        W98467   6.386  44.962   4.854
26742W        W98468   0.391  42.929  10.766
26743W        W98469  11.856   9.376   3.860
26744W        W98470  30.749  43.729   9.886
26745W        W98471   1.554  35.805   3.755
26746W        W98472  25.507  28.637   3.048
26747W        W98473  27.308  22.054   0.664
26748W        W98474  26.986  36.519  14.951
26749W        W98475  40.105  44.323   2.327
26750W        W98476  16.602   8.918   3.132
26751W        W98477  25.481  40.099   4.040
26752W        W98478   2.920  27.464   1.522
26753W        W98479  37.233   0.931   3.781
26754W        W98480   6.780   8.266  11.427
26755W        W98481  17.033  36.002   3.113
26756W        W98482  19.765  17.369  12.793
26757W        W98483  16.339  39.434  10.207
26758W        W98484  39.832  10.074  14.752
26759W        W98485  42.804  36.867   4.687
26760W        W98486  27.024  28.612  12.142
26761W        W98487  20.664  44.391  12.261
26762W        W98488  12.097  44.945   4.040
26763W        W98489   2.318  16.267   4.338
26764W        W98490  17.217  15.622   1.688
26765W        W98491   2.439   9.371   2.271
26766W        W98492   9.047  12.297  10.987
26767W        W98493   2.488  31.326   2.193
26768W        W98494  38.049   6.760  10.524
26769W        W98495  17.765   8.618   1.836
26770W        W98496  21.359  16.295   3.702
26771W        W98497  40.157  18.467  12.484
26772W        W98498   5.772  38.694   2.203
26773W        W98499  19.640   6.583  14.314
26774W        W98500  17.173  18.591   1.021
26775W        W98501  39.367   4.096  13.339
26776W        W98502  17.007  19.923  11.200
26777W        W98503  29.490  11.105   3.558
26778W        W98504  15.167   5.286   2.827
26779W        W98505  28.607  27.736   3.443
26780W        W98506   5.878  11.185   1.710
26781W        W98507  39.533   8.670   1.083
26782W        W98508  20.530   2.260  10.778
26783W        W98509  21.459  33.013   1.350
26784W        W98510  39.252  24.425  12.888
26785W        W98511  43.512  28.788  10.275
26786W        W98512  23.740  25.349   3.367
26787W        W98513   5.589  44.011   1.327
26788W        W98514  11.342  30.584   3.713
26789W        W98515  32.638  37.385   0.572
26790W        W98516  19.634  41.554  11.010
26791W        W98517  12.860   0.786   0.976
26792W        W98518  19.677   9.200  14.041
26793W        W98519  32.178   8.887   0.849
26794W        W98520  43.518  23.927   0.944
26795W        W98521  21.499   1.404   4.099
26796W        W98522  40.626  32.397  12.933
26797W        W98523  33.472  25.621   3.146
26798W        W98524  39.570  26.044  13.591
26799W        W98525   3.175  31.517   2.683
26800W        W98526  15.648  24.131   2.686
26801W        W98527  22.292   6.166  13.977
26802W        W98528  21.412  12.425  14.536
26803W        W98529   9.535  37.449  12.450
26804W        W98530  24.696   3.827  11.113
26805W        W98531  16.316  10.687  14.442
26806W        W98532  30.090  32.912  11.097
26807W        W98533  24.607  30.053   4.125
26808W        W98534  43.029  23.075   2.300
26809W        W98535  37.008  40.548   0.747
26810W        W98536  13.639  20.006   1.413
26811W        W98537  29.459  34.451   4.604
26812W        W98538  32.230   9.746  12.489
26813W        W98539  16.276  32.416   0.419
26814W        W98540   1.989  25.548   1.876
26815W        W98541  38.795   0.730   2.132
26816W        W98542  42.501  37.554  14.298
26817W        W98543  14.124   7.961  11.361
26818W        W98544  17.095  40.878   1.273
26819W        W98545  23.974  37.504  13.982
26820W        W98546  26.578  37.086  11.508
26821W        W98547   3.244  44.835   3.411
26822W        W98548   4.924  29.071  13.781
26823W        W98549   1.055  27.088   2.836
26824W        W98550  35.406  12.659   4.929
26825W        W98551   7.538  34.089  14.723
26826W        W98552   4.697   2.140  14.531
26827W        W98553  43.439   1.332   1.304
26828W        W98554  21.101  44.707   1.901
26829W        W98555  23.714   0.638  12.340
26830W        W98556   4.210  17.860   1.278
26831W        W98557   7.118  23.491   1.309
26832W        W98558  34.639   4.356   2.238
26833W        W98559  27.262  39.608   2.804
26834W        W98560  15.552  13.332   3.876
26835W        W98561  34.583  22.319   1.013
26836W        W98562  34.649  25.185  13.543
26837W        W98563  13.773   5.010   1.780
26838W        W98564  43.729   7.184  11.197
26839W        W98565  38.145  36.554  10.681
26840W        W98566  20.878  17.273  14.408
26841W        W98567  31.410  22.771   0.746
26842W        W98568   4.358  14.752   2.821
26843W        W98569   4.732   4.906   1.914
26844W        W98570  35.765  10.139  14.520
26845W        W98571  19.653   0.463  14.361
26846W        W98572  31.922  26.009  11.871
26847W        W98573  38.886   7.942   0.245
26848W        W98574   6.345   4.017   2.853
26849W        W98575  27.276   7.388  12.803
26850W        W98576  34.911  15.295  12.877
26851W        W98577  44.749  11.078   0.009
26852W        W98578  39.348  14.710   3.409
26853W        W98579  15.755  36.401   3.162
26854W        W98580  15.631  43.528  12.440
26855W        W98581  33.134  36.488   4.590
26856W        W98582  41.425  39.277  11.467
26857W        W98583   8.509   9.033  12.837
26858W        W98584  43.236  16.737  14.270
26859W        W98585  39.527   2.445   3.279
26860W        W98586  32.063  33.889  12.686
26861W        W98587  27.856  13.671  10.632
26862W        W98588  18.106   1.385  12.156
26863W        W98589  34.468  17.091  13.931
26864W        W98590  19.180   9.751  13.479
26865W        W98591  23.489  44.274  14.882
26866W        W98592  41.282   8.731   4.514
26867W        W98593  38.579   8.921   4.516
26868W        W98594  36.544  34.421   3.422
26869W        W98595  23.133  21.267  11.665
26870W        W98596  13.066  21.776   2.391
26871W        W98597   3.220  43.769  12.969
26872W        W98598  18.302  32.159   4.106
26873W        W98599  18.513   9.930   3.833
26874W        W98600   0.828  31.055   4.540
26875W        W98601  40.552  23.898  10.388
26876W        W98602  15.874  21.010  13.040
26877W        W98603  40.681  24.026   0.428
26878W        W98604   5.966   7.253   2.109
26879W        W98605  44.676  39.676   3.979
26880W        W98606  15.548  15.725   3.638
26881W        W98607  10.063  13.155   2.794
26882W        W98608  22.025  24.087  13.396
26883W        W98609   3.008   1.425   0.754
26884W        W98610   2.835  41.872   4.284
26885W        W98611   3.397   2.983   4.247
26886W        W98612  36.542  12.838  11.548
26887W        W98613  40.165  17.289   2.809
26888W        W98614  25.685  21.563  11.202
26889W        W98615   2.893  18.288  12.897
26890W        W98616  38.654  27.653   0.720
26891W        W98617  17.655  22.286  14.418
26892W        W98618  22.803  23.278   2.602
26893W        W98619  16.009  10.130   1.619
26894W        W98620  30.235   0.359   2.325
26895W        W98621  16.673  25.393  12.582
26896W        W98622  12.599  11.378   2.234
26897W        W98623  30.509  37.512   3.821
26898W        W98624  32.439  35.094  10.759
26899W        W98625  40.993  38.053  13.380
26900W        W98626  20.233  36.243   1.094
26901W        W98627  31.022   9.381  11.482
26902W        W98628  25.034   6.644   1.603
26903W        W98629  33.079  25.861  12.967
26904W        W98630  34.800  14.509   1.931
26905W        W98631   0.470   9.655  11.915
26906W        W98632   7.715  34.140  12.602
26907W        W98633   2.950  12.691  14.833
26908W        W98634  21.201  42.025   3.702
26909W        W98635  24.567  41.682  14.048
26910W        W98636  33.549  14.303   4.220
26911W        W98637  12.739  43.943  11.888
26912W        W98638   7.884  15.641   3.259
26913W        W98639  29.712  12.666  11.599
26914W        W98640   9.615  40.909  12.134
26915W        W98641  29.801  18.609   1.241
26916W        W98642  21.592   1.205   2.657
26917W        W98643  32.455  26.536  10.483
26918W        W98644  35.895  29.211  12.113
26919W        W98645  43.506  36.168   3.681
26920W        W98646  25.591  36.450   1.066
26921W        W98647  13.671  17.134   1.946
26922W        W98648  23.336  40.423   4.515
26923W        W98649   0.874  41.861  13.812
26924W        W98650  14.151  21.035   1.746
26925W        W98651  14.172  10.718   2.185
26926W        W98652  23.144  37.490   4.481
26927W        W98653  36.500  21.665   3.156
26928W        W98654  27.154  25.553  12.431
26929W        W98655  25.493  42.903  14.397
26930W        W98656  44.200  17.218   4.570
26931W        W98657  42.285  13.608  13.001
26932W        W98658  21.314  42.816   0.810
26933W        W98659  38.830   8.296   1.297
26934W        W98660  14.177  27.296   3.881
26935W        W98661   8.081  21.652  11.072
26936W        W98662  12.331  17.080   3.373
26937W        W98663  32.465  42.932   0.911
26938W        W98664  17.661  26.970   3.224
26939W        W98665  32.094  42.053   4.575
26940W        W98666  19.625  43.580   0.415
26941W        W98667   5.965  16.044   0.060
26942W        W98668  13.320   3.357   4.675
26943W        W98669  28.879  22.745   2.350
26944W        W98670   0.280  27.657  11.197
26945W        W98671  32.938  11.221  12.100
26946W        W98672  23.278   7.882   2.901
26947W        W98673   7.279   6.411  11.603
26948W        W98674  18.613  18.597   0.799
26949W        W98675   8.679   2.584  13.004
26950W        W98676  29.868  29.263  13.420
26951W        W98677  25.009   5.080  13.133
26952W        W98678  29.211   0.475   0.971
26953W        W98679  44.765  16.414   3.355
26954W        W98680  32.081  19.989   0.818
26955W        W98681  44.414  34.150  12.600
26956W        W98682  18.616  13.309  12.900
26957W        W98683  26.077   9.686   3.817
26958W        W98684  13.294  11.922  10.286
26959W        W98685  20.584   5.441   2.379
26960W        W98686  28.462  40.337  11.588
26961W        W98687   2.340  14.401  11.550
26962W        W98688  41.285  38.271  11.489
26963W        W98689  12.064  25.247   3.969
26964W        W98690  17.671  15.666   3.804
26965W        W98691  31.622  28.541  11.129
26966W        W98692  37.523  10.682  10.912
26967W        W98693  11.619  12.823  10.600
26968W        W98694  18.183  20.065   1.517
26969W        W98695  25.461  19.733  13.491
26970W        W98696  36.655  29.587   1.595
26971W        W98697   7.804   0.587  13.733
26972W        W98698  35.930  20.529   1.722
26973W        W98699  25.727  38.964  14.321
26974W        W98700   8.790   8.689   1.853
26975W        W98701   5.361  43.550   1.337
26976W        W98702  30.917  12.171   4.455
26977W        W98703   4.241  35.809   3.240
26978W        W98704  22.636  21.324   0.906
26979W        W98705  14.623  12.013  10.562
26980W        W98706  23.589  34.042  11.115
26981W        W98707  32.137  37.060  14.844
26982W        W98708   0.423   0.469  10.961
26983W        W98709  25.847   5.062  12.963
26984W        W98710  41.494  32.145   4.854
26985W        W98711  25.183  21.434  13.980
26986W        W98712  30.582  26.381  13.757
26987W        W98713  43.060  25.165  13.931
26988W        W98714   0.809  37.643  12.185
26989W        W98715  27.958  43.572   2.638
26990W        W98716  11.845  21.122  10.614
26991W        W98717  29.366  37.913  11.217
26992W        W98718   5.762  10.154  14.714
26993W        W98719   5.695  15.969   1.627
26994W        W98720   6.617   7.833   0.959
26995W        W98721  28.536  11.665   2.606
26996W        W98722   3.780  41.603   3.352
26997W        W98723  27.448  35.923  13.884
26998W        W98724  21.641   2.236   1.781
26999W        W98725   9.925  14.344  14.537
27000W        W98726  17.193  10.646   0.631
27001W        W98727  41.420  23.207   1.952
27002W        W98728  44.156  39.106   1.743
27003W        W98729   2.234  37.052  12.514
27004W        W98730   5.378  14.803  12.592
27005W        W98731  21.135  36.994  11.558
27006W        W98732  22.425  15.751   2.248
27007W        W98733   5.320  23.752   1.515
27008W        W98734   9.889  39.922   0.299
27009W        W98735  36.450  40.589   4.076
27010W        W98736  10.458   4.314  11.208
27011W        W98737  44.479  18.121  12.763
27012W        W98738  40.951   4.367   3.036
27013W        W98739  30.533  31.424   3.757
27014W        W98740   1.089  37.531  13.058
27015W        W98741  24.738  18.246  14.846
27016W        W98742  24.276  16.124   3.236
27017W        W98743  19.595  18.384  13.108
27018W        W98744  32.592  26.744  12.978
27019W        W98745  12.361  12.154   3.198
27020W        W98746  17.765  30.617  13.561
27021W        W98747  21.497  26.676   2.109
27022W        W98748  26.849  22.576   2.339
27023W        W98749  25.536  42.314  14.763
27024W        W98750  16.730  42.432  14.287
27025W        W98751  19.479  28.466   5.072
27026W        W98752  29.353  39.814   0.900
27027W        W98753  37.714  37.943   4.569
27028W        W98754  10.464  28.462  14.409
27029W        W98755   2.313  26.444  12.055
27030W        W98756  14.530   6.275   0.878
27031W        W98757  28.955   8.866  12.459
27032W        W98758  42.711  28.984   4.665
27033W        W98759   9.081  34.648   0.787
27034W        W98760  37.366  18.354  14.764
27035W        W98761  14.292   3.636   0.961
27036W        W98762  28.096   6.381  12.481
27037W        W98763   8.468  18.636  14.271
27038W        W98764   2.889  27.488   4.666
27039W        W98765  38.842  42.005  13.170
27040W        W98766  13.764  23.148  14.578
27041W        W98767  25.473  38.457   3.540
27042W        W98768  37.112  20.345  12.148
27043W        W98769  12.870  21.777  11.149
27044W        W98770   4.919  19.181  10.143
27045W        W98771  31.887   4.874  14.300
27046W        W98772  44.410  33.440  10.744
27047W        W98773  31.672  38.279   3.298
27048W        W98774  23.452  32.384  11.629
27049W        W98775   0.859  29.242  13.122
27050W        W98776  22.177  33.970  12.147
27051W        W98777  22.965  16.593   2.216
27052W        W98778  30.384  41.925  13.814
27053W        W98779  35.681  28.132   1.248
27054W        W98780  28.793  43.300   1.879
27055W        W98781  44.432  13.178   0.293
27056W        W98782  37.586  15.205  10.945
27057W        W98783  15.795  28.078  12.073
27058W        W98784  36.537  38.934  10.198
27059W        W98785  43.476   6.072   4.643
27060W        W98786   5.254  28.671  13.636
27061W        W98787  21.212  41.386  12.379
27062W        W98788  28.096  29.537   2.314
27063W        W98789   9.138  22.037  12.672
27064W        W98790  35.091  13.599  12.544
27065W        W98791   2.953  23.297  14.491
27066W        W98792  21.458  41.564   0.650
27067W        W98793   9.960  22.060  13.585
27068W        W98794  44.435  40.465   3.409
27069W        W98795  28.883  22.316   3.580
27070W        W98796  38.537  22.188   2.003
27071W        W98797  21.124  13.273   2.426
27072W        W98798  29.759  43.403  13.535
27073W        W98799  41.263   7.212  11.639
27074W        W98800  27.089  26.194   2.220
27075W        W98801  23.345  27.856  11.540
27076W        W98802  34.027  39.850   2.697
27077W        W98803   8.400   3.828   2.807
27078W        W98804  36.623  22.166   1.466
27079W        W98805  10.889  12.277  12.846
27080W        W98806   8.895  19.725   2.395
27081W        W98807  13.140  22.206   4.201
27082W        W98808  44.103   1.211   4.956
27083W        W98809  15.727   7.890  11.193
27084W        W98810  43.948   0.260  10.580
27085W        W98811   7.891  21.832  13.947
27086W        W98812   2.913  30.961   4.302
27087W        W98813   9.474  36.556   4.974
27088W        W98814   4.757  10.515  14.855
27089W        W98815  30.335  30.102  14.943
27090W        W98816  37.757  40.127  13.116
27091W        W98817   6.312  16.763  11.147
27092W        W98818   8.335  35.002  14.288
27093W        W98819   2.056   5.850  14.049
27094W        W98820   6.633  43.934   1.239
27095W        W98821  21.269   3.831   1.731
27096W        W98822  39.384  28.901  12.492
27097W        W98823   6.928   4.408   1.358
27098W        W98824  27.203   9.075  14.967
27099W        W98825  27.987  29.993   2.696
27100W        W98826  42.595   8.635   0.781
27101W        W98827  39.955   9.621   0.035
27102W        W98828   4.982  29.655   3.200
27103W        W98829  10.509  29.120   1.425
27104W        W98830   6.494  30.464   0.220
27105W        W98831   0.813  13.757   3.294
27106W        W98832   2.292   3.246   3.750
27107W        W98833  35.416  16.809   0.780
27108W        W98834  21.305  42.450   1.894
27109W        W98835  34.233  33.019  11.569
27110W        W98836  28.930  27.323   3.235
27111W        W98837  31.935   1.483  12.449
27112W        W98838  19.843  39.626  12.941
27113W        W98839  37.998  31.360  14.526
27114W        W98840  10.142  14.756   0.890
27115W        W98841  12.913   0.954   2.256
27116W        W98842   2.228  11.772  12.862
27117W        W98843  12.738  15.553   0.839
27118W        W98844  12.145  20.271  10.736
27119W        W98845   7.655  30.179   2.826
27120W        W98846  44.037  33.464  14.868
27121W        W98847   6.155  37.845  12.040
27122W        W98848  21.015  44.029  11.048
27123W        W98849  12.686  21.466   3.720
27124W        W98850   5.677  35.373   3.154
27125W        W98851   9.883  37.251   0.567
27126W        W98852  43.998  20.115   1.783
27127W        W98853   4.949  13.642  13.908
27128W        W98854  14.580   6.297  12.697
27129W        W98855  39.951  19.218   0.346
27130W        W98856  20.632  44.250  12.782
27131W        W98857  15.995  41.045   5.521
27132W        W98858  29.531  32.107   1.435
27133W        W98859   2.453  23.269  11.079
27134W        W98860  15.325  27.987   1.254
27135W        W98861  41.730  19.622   3.638
27136W        W98862  38.847  22.647   2.378
27137W        W98863  19.023  19.206   1.387
27138W        W98864  19.081  42.904   4.264
27139W        W98865  20.578  40.879  13.450
27140W        W98866  28.014  19.714   4.986
27141W        W98867  27.157  32.199   0.836
27142W        W98868  37.432  16.238   0.298
27143W        W98869   1.433   8.867   1.224
27144W        W98870  42.700  30.526  11.088
27145W        W98871  28.625   1.731   3.594
27146W        W98872  18.930  37.663  12.084
27147W        W98873  11.748   1.731  13.823
27148W        W98874   7.109  41.574  13.403
27149W        W98875   5.519  40.513  14.740
27150W        W98876  27.175   8.577   1.781
27151W        W98877  25.467   1.097   0.883
27152W        W98878  43.482   2.803  14.947
27153W        W98879  16.898  18.673  13.469
27154W        W98880   3.207  30.010  11.507
27155W        W98881   2.712   2.742   4.048
27156W        W98882  41.391  35.935  12.167
27157W        W98883   7.816  36.589  12.005
27158W        W98884  14.381  12.994   0.690
27159W        W98885  30.243  42.301   0.310
27160W        W98886  31.227  26.201  13.124
27161W        W98887  36.786  21.588  14.814
27162W        W98888  18.758   6.743   5.179
27163W        W98889   6.050  29.967  11.136
27164W        W98890  23.854  26.492  14.499
27165W        W98891  31.030  13.905  12.757
27166W        W98892  11.756  36.410  10.376
27167W        W98893  19.543  15.844   0.868
27168W        W98894   1.106  27.963   0.756
27169W        W98895  11.568   6.837   3.149
27170W        W98896  24.971  33.416   2.407
27171W        W98897   0.824  22.309  14.850
27172W        W98898  14.196  39.256   3.184
27173W        W98899  30.067  15.907   1.937
27174W        W98900  18.430  43.278   3.911
27175W        W98901  17.615   5.396   0.884
27176W        W98902  34.359  17.323  10.743
27177W        W98903  32.667  23.507  10.695
27178W        W98904  36.119  23.053  10.599
27179W        W98905  15.214  38.789  14.370
27180W        W98906  33.675  36.778   1.426
27181W        W98907  36.543  38.591  10.698
27182W        W98908  16.492  30.373  10.376
27183W        W98909  42.504  31.464  14.956
27184W        W98910  12.904  12.166   0.926
27185W        W98911  30.218  43.095  12.680
27186W        W98912  11.794  16.011  11.921
27187W        W98913   9.657  17.583   0.417
27188W        W98914  35.167   5.915  14.073
27189W        W98915   5.401  35.786  13.378
27190W        W98916  16.820   3.021   1.698
27191W        W98917  39.258  30.473   5.146
27192W        W98918   5.496  35.565   0.367
27193W        W98919  19.552  36.634  13.690
27194W        W98920  34.003  18.237  12.097
27195W        W98921  39.320   8.672  11.874
27196W        W98922  11.296   9.515  14.798
27197W        W98923  18.336   5.293  14.792
27198W        W98924  43.461   5.046   3.233
27199W        W98925  37.218  29.998   3.644
27200W        W98926  37.461  13.045  10.649
27201W        W98927  17.577  24.937   4.944
27202W        W98928   4.824   8.694  11.614
27203W        W98929  35.782  25.051   4.563
27204W        W98930  17.224  37.109   3.622
27205W        W98931  41.583   4.821  13.617
27206W        W98932  30.618  29.474   2.814
27207W        W98933  21.717   7.215  12.939
27208W        W98934  26.821  22.676  11.991
27209W        W98935  37.929  11.320   3.906
27210W        W98936   6.983  15.785  13.802
27211W        W98937  25.143  33.544   1.947
27212W        W98938  27.904  36.576   4.510
27213W        W98939   8.290  24.083  13.376
27214W        W98940  41.342  42.861   4.719
27215W        W98941   4.948  30.877   2.855
27216W        W98942  42.991  20.996   4.139
27217W        W98943  36.462  34.613  13.047
27218W        W98944  32.338  37.138  11.575
27219W        W98945  10.665  32.023   0.371
27220W        W98946  26.134  34.801  10.496
27221W        W98947  32.304   6.817   3.177
27222W        W98948  34.239  12.106  11.531
27223W        W98949  17.752  14.726   3.624
27224W        W98950   8.287  38.882  10.709
27225W        W98951  28.021   7.833   2.340
27226W        W98952  12.385  40.106   4.575
27227W        W98953   5.039  13.102  13.179
27228W        W98954  33.470   8.832   0.865
27229W        W98955  21.835  22.145   2.311
27230W        W98956   8.854  32.149  13.692
27231W        W98957  13.901  43.793  14.471
27232W        W98958  10.495  18.031   3.777
27233W        W98959   8.269  22.519   3.628
27234W        W98960  14.672  28.187  13.114
27235W        W98961   7.854  20.088  14.725
27236W        W98962   5.826   4.910   2.664
27237W        W98963   2.789  25.460  13.536
27238W        W98964  44.283  35.053   3.706
27239W        W98965   3.431   5.496  13.827
27240W        W98966   9.269   3.077  13.182
27241W        W98967  29.940   3.214   1.988
27242W        W98968  44.980   1.691   3.617
27243W        W98969  31.822   3.508  11.537
27244W        W98970  20.241  28.918   1.922
27245W        W98971  11.883  24.771   1.337
27246W        W98972  27.567  40.510   3.385
27247W        W98973  28.811  17.738  10.662
27248W        W98974  30.070   5.209  13.905
27249W        W98975   4.412  43.766  12.416
27250W        W98976  15.600  42.732  13.520
27251W        W98977  14.742   2.462   4.629
27252W        W98978  41.319  21.006  14.720
27253W        W98979   6.873  24.790  13.010
27254W        W98980  30.845  26.049  10.024
27255W        W98981  24.076  18.659  11.673
27256W        W98982   6.996  41.028  13.863
27257W        W98983  17.068  38.166   3.691
27258W        W98984  32.314  42.827   0.422
27259W        W98985  10.823   8.767  12.062
27260W        W98986  40.316  21.980  14.053
27261W        W98987   9.093  39.010  12.423
27262W        W98988  33.638  19.689   3.279
27263W        W98989  33.998  15.358   1.882
27264W        W98990  42.077   5.944   2.813
27265W        W98991  30.469  21.521   1.317
27266W        W98992  27.701  19.107  11.139
27267W        W98993  27.051  29.472   2.234
27268W        W98994  19.565  28.946   4.833
27269W        W98995  33.461  29.743  11.897
27270W        W98996  10.379  37.955   3.333
27271W        W98997  24.364  13.829   0.913
27272W        W98998  20.641  15.636   0.852
27273W        W98999  44.438  14.122  13.990
27274W        W99000  18.974  18.005  12.554
27275W        W99001  21.033   2.761   4.622
27276W        W99002  33.377  44.720   2.588
27277W        W99003  27.877  42.334   3.308
27278W        W99004   5.759  22.286  10.866
27279W        W99005  38.056  11.172   0.869
27280W        W99006  38.294  24.048   3.668
27281W        W99007  16.126  42.430   3.223
27282W        W99008   4.951  24.809  11.064
27283W        W99009  36.675  28.087  13.551
27284W        W99010  20.151  18.550   1.934
27285W        W99011  33.925  32.259   4.177
27286W        W99012   8.598  36.544  14.989
27287W        W99013  42.578  40.420  11.519
27288W        W99014  41.566  26.949  12.433
27289W        W99015   1.820   9.964  11.495
27290W        W99016  18.255  36.339  12.488
27291W        W99017  26.011  40.329   0.899
27292W        W99018   3.848   8.775  11.562
27293W        W99019  23.557   0.087   1.890
27294W        W99020  12.377  35.547   0.161
27295W        W99021   6.411  44.880  12.134
27296W        W99022   1.030   3.071   3.931
27297W        W99023  10.692  22.612  10.215
27298W        W99024  28.218   6.261   1.678
27299W        W99025  22.454   6.075  11.112
27300W        W99026  23.093  17.691   4.736
27301W        W99027  22.400  18.717  11.200
27302W        W99028   2.653  12.398   4.859
27303W        W99029   7.720  35.089  12.359
27304W        W99030  15.188  12.169  14.496
27305W        W99031  20.679  14.549   1.124
27306W        W99032   9.903   8.347   0.248
27307W        W99033   4.181  39.764  12.401
27308W        W99034   2.969   4.691  13.073
27309W        W99035  44.800  20.070  10.381
27310W        W99036  21.565   6.289   3.751
27311W        W99037   1.104   0.333  14.516
27312W        W99038  39.187  24.222  14.770
27313W        W99039   1.845  25.512   4.853
27314W        W99040   7.344   2.558  14.576
27315W        W99041  44.878  32.152   2.766
27316W        W99042  31.623  39.422  13.531
27317W        W99043  13.610  16.189  12.644
27318W        W99044  11.744  40.262  13.878
27319W        W99045  10.387  19.196   1.526
27320W        W99046  10.515  14.353  13.397
27321W        W99047  27.966  44.534  10.622
27322W        W99048  33.448  19.332  12.415
27323W        W99049   7.457   3.285   4.101
27324W        W99050  23.623  17.648  14.575
27325W        W99051  13.356  34.037  12.081
27326W        W99052   9.964  44.868   2.289
27327W        W99053  25.617  13.328   0.013
27328W        W99054   6.546  40.439  14.851
27329W        W99055  27.975  15.990  10.675
27330W        W99056   9.672  21.519   4.328
27331W        W99057  43.168  35.958   4.801
27332W        W99058  36.437   2.867   3.323
27333W        W99059  30.396  32.554   2.811
27334W        W99060  43.867  22.532   1.519
27335W        W99061  17.414  13.685  13.396
27336W        W99062  36.527  34.985   4.698
27337W        W99063  14.715  28.058   3.601
27338W        W99064  20.989  28.428   2.411
27339W        W99065  17.181   4.764  11.429
27340W        W99066  39.321   4.999   0.738
27341W        W99067  13.775  12.635  14.071
27342W        W99068  42.556  22.866   0.720
27343W        W99069  42.344  32.984  12.411
27344W        W99070  21.192  38.277   4.300
27345W        W99071   4.605   0.931  14.580
27346W        W99072   8.489   3.355   0.863
27347W        W99073  17.554  12.323   0.437
27348W        W99074   2.399  39.419  11.024
27349W        W99075  35.298  19.086  14.447
27350W        W99076  15.869  12.041   2.309
27351W        W99077  43.773  42.730   2.667
27352W        W99078  28.563  19.080  12.891
27353W        W99079  11.640  36.535  11.380
27354W        W99080   9.559   8.671   3.255
27355W        W99081   2.936   8.763   0.842
27356W        W99082  28.925   0.217  13.374
27357W        W99083  13.700   9.695   4.762
27358W        W99084  38.613  44.440   0.528
27359W        W99085   0.515  14.391  12.387
27360W        W99086   3.233  18.474  12.544
27361W        W99087  37.172  43.842  12.978
27362W        W99088  38.891  43.451  10.640
27363W        W99089  33.538   7.777   2.380
27364W        W99090   0.898  39.456  10.884
27365W        W99091  41.594  40.773   0.419
27366W        W99092   6.371  21.993  13.024
27367W        W99093  43.920   1.306  14.375
27368W        W99094   1.265  17.702  12.890
27369W        W99095  36.070   9.694  14.860
27370W        W99096  19.737  28.477  13.893
27371W        W99097   7.817   8.711  13.559
27372W        W99098  21.516  43.977   3.287
27373W        W99099  34.990   8.631  11.461
27374W        W99100  36.785  18.139   4.778
27375W        W99101   0.379  31.315  13.232
27376W        W99102   8.567   8.492   0.381
27377W        W99103  26.117   2.298   3.634
27378W        W99104  15.107  27.928   4.127
27379W        W99105   6.241   3.260   2.944
27380W        W99106  17.688  42.013  11.274
27381W        W99107  10.628  15.847   0.238
27382W        W99108   5.753  34.042   0.182
27383W        W99109  19.198  24.188  13.108
27384W        W99110  40.577   3.126   2.342
27385W        W99111  16.757  29.042   2.270
27386W        W99112  21.613   8.108   2.891
27387W        W99113  36.551  16.669  12.197
27388W        W99114  18.626  44.506   2.825
27389W        W99115  34.664  17.123  13.028
27390W        W99116  44.721  38.162   2.498
27391W        W99117  13.915  13.908  12.098
27392W        W99118  22.774  24.441   3.993
27393W        W99119  44.951  31.484  10.694
27394W        W99120   2.944   4.000  14.417
27395W        W99121  23.022  13.541   2.182
27396W        W99122  33.494  37.607  13.607
27397W        W99123   7.403  37.753  10.767
27398W        W99124  32.548   3.177  12.520
27399W        W99125  41.828   9.499  14.756
27400W        W99126  44.461   7.572   1.257
27401W        W99127  34.764  19.804   1.415
27402W        W99128  29.966  20.598  13.309
27403W        W99129  35.551  14.230  11.462
27404W        W99130  29.686  23.855  13.872
27405W        W99131  42.437  21.893   3.151
27406W        W99132   6.740  12.196   2.808
27407W        W99133   8.856  24.221   4.106
27408W        W99134  18.776  35.261  11.983
27409W        W99135  21.638  42.914  12.751
27410W        W99136  32.690  23.753   5.597
27411W        W99137  11.519  26.972   4.445
27412W        W99138  28.551  24.714   4.287
27413W        W99139   4.278   4.790  11.082
27414W        W99140  19.003  13.272   0.394
27415W        W99141  21.167  26.186   3.701
27416W        W99142  38.955   8.786   0.198
27417W        W99143  10.360  29.155   0.545
27418W        W99144  39.247   7.070  14.542
27419W        W99145  16.496  25.798  13.563
27420W        W99146   6.109   7.753  10.560
27421W        W99147  12.899   5.344  11.116
27422W        W99148  15.247   2.197   3.376
27423W        W99149  39.522  22.012   2.328
27424W        W99150  16.859  16.071  13.206
27425W        W99151  24.660  29.175   4.069
27426W        W99152  13.805  14.442   2.294
27427W        W99153   3.320  15.153   1.220
27428W        W99154  35.167  22.086  13.835
27429W        W99155  35.483  34.808  13.539
27430W        W99156  29.080  19.630  12.825
27431W        W99157  19.898  26.966  13.855
27432W        W99158   8.332   9.220   1.266
27433W        W99159  12.545   1.229  14.373
27434W        W99160  29.962  29.407  11.503
27435W        W99161  18.312  12.034  11.059
27436W        W99162   8.773  18.049   3.675
27437W        W99163  12.548  34.092  12.377
27438W        W99164  40.273  37.346   3.234
27439W        W99165  10.930  32.860  12.155
27440W        W99166  24.269  33.982  11.569
27441W        W99167  16.114  13.832   1.272
27442W        W99168  21.805  15.273   2.917
27443W        W99169   7.949  27.264  10.800
27444W        W99170  11.660   2.242   3.672
27445W        W99171   9.317  13.179  13.528
27446W        W99172  11.613  43.380   0.396
27447W        W99173  43.275  34.930  10.601
27448W        W99174  16.995  33.510  11.076
27449W        W99175   2.340  16.732  10.913
27450W        W99176  24.481  25.855   1.291
27451W        W99177  11.689  22.763  10.039
27452W        W99178   1.641  11.329  14.770
27453W        W99179   7.654  32.370  14.453
27454W        W99180  17.156  26.978  11.252
27455W        W99181  26.149  26.712   2.679
27456W        W99182  40.061  36.947  13.836
27457W        W99183  19.065  16.979  14.446
27458W        W99184  32.810  31.445  12.023
27459W        W99185  19.992  32.608   4.610
27460W        W99186  12.797  44.203  12.373
27461W        W99187   2.933   7.302  11.497
27462W        W99188  21.937  13.736   1.847
27463W        W99189   9.474  29.291  13.097
27464W        W99190  23.740  25.768   9.880
27465W        W99191  36.161  26.965  11.577
27466W        W99192  33.535  28.307   3.676
27467W        W99193  11.698  16.430   1.435
27468W        W99194   0.920   2.460  14.433
27469W        W99195   9.129   7.660  13.793
27470W        W99196   6.335  30.756   4.530
27471W        W99197  30.556  19.960   0.430
27472W        W99198  15.891  14.198  12.801
27473W        W99199  44.810  14.533   1.248
27474W        W99200  41.383  30.421  10.588
27475W        W99201   9.723  18.546  12.900
27476W        W99202   8.791  26.256  12.343
27477W        W99203  27.054  12.659  11.675
27478W        W99204  28.562  37.494   2.602
27479W        W99205  22.515  22.116  11.926
27480W        W99206  27.080  25.058  14.494
27481W        W99207  23.709  14.301   4.141
27482W        W99208  32.388  40.367   3.807
27483W        W99209  18.039   7.121  11.812
27484W        W99210  14.652  16.659  14.555
27485W        W99211   6.795  21.528   2.437
27486W        W99212   4.514  18.591  11.106
27487W        W99213  18.821  25.733  11.545
27488W        W99214  18.127  30.702  11.070
27489W        W99215  29.070  18.970   2.178
27490W        W99216  24.604  36.386  10.566
27491W        W99217  11.467   4.634  12.630
27492W        W99218  19.029  34.545  13.454
27493W        W99219  42.395  15.216   2.346
27494W        W99220  14.979  24.412  11.344
27495W        W99221  21.537  36.408   0.096
27496W        W99222  39.839  33.442   0.897
27497W        W99223   4.839  10.686   3.673
27498W        W99224  38.348  18.132  14.820
27499W        W99225  36.545  13.252  10.995
27500W        W99226  41.973   0.955  12.599
27501W        W99227  36.222  26.251  14.340
27502W        W99228  29.616  19.970   4.598
27503W        W99229  33.934   1.914   1.505
27504W        W99230  20.937  16.708   2.419
27505W        W99231  36.451  15.133   2.183
27506W        W99232   1.429  22.387   2.103
27507W        W99233  18.586  30.355  10.137
27508W        W99234  28.725   3.853  11.072
27509W        W99235   7.728  11.333  12.514
27510W        W99236   5.130  28.718  14.960
27511W        W99237   3.908  35.425  14.010
27512W        W99238  17.749  10.635  11.618
27513W        W99239  37.343  11.730  10.989
27514W        W99240  19.234  41.838  11.485
27515W        W99241  14.081  10.349  12.646
27516W        W99242  31.591   5.267   4.679
27517W        W99243  16.179  19.291   1.357
27518W        W99244  29.921  37.572  13.901
27519W        W99245  43.800  23.492  12.575
27520W        W99246  44.477  20.599   4.710
27521W        W99247  14.141  17.332  11.951
27522W        W99248  15.584   0.232   2.256
27523W        W99249  34.856  19.784  12.132
27524W        W99250  36.616  38.988   0.446
27525W        W99251   6.405  12.608   4.816
27526W        W99252  21.060  26.461   2.217
27527W        W99253  39.840  29.940   0.819
27528W        W99254  19.968  44.453  14.446
27529W        W99255  21.410   5.601   1.692
27530W        W99256  41.272   6.971  12.563
27531W        W99257  36.583  27.531  12.148
27532W        W99258  41.605   2.351   1.167
27533W        W99259  11.836   4.977   5.078
27534W        W99260  29.640   7.229   4.127
27535W        W99261  32.576  32.272   0.872
27536W        W99262  42.879  42.823  11.247
27537W        W99263  42.284   5.417  12.012
27538W        W99264  36.317  18.168   4.588
27539W        W99265  33.572   3.231   3.793
27540W        W99266  12.218  39.753  10.475
27541W        W99267  17.139  16.787   0.339
27542W        W99268   1.465  25.725   4.584
27543W        W99269  11.538  21.564  14.497
27544W        W99270   7.922  35.978   0.424
27545W        W99271  42.498   1.588   1.871
27546W        W99272  18.247  34.354   1.959
27547W        W99273  11.334  30.117  12.658
27548W        W99274  22.708  14.859   3.603
27549W        W99275  19.246  22.144   1.804
27550W        W99276  44.465  14.285   2.404
27551W        W99277  22.339  26.162   3.680
27552W        W99278  21.307  38.449   3.814
27553W        W99279  31.479  32.751  11.916
27554W        W99280  21.568  23.211  13.620
27555W        W99281  25.680   2.383  11.590
27556W        W99282  25.517  11.003   3.844
27557W        W99283  38.660  41.011  10.722
27558W        W99284  39.386  22.501  14.300
27559W        W99285   5.320  44.368  11.977
27560W        W99286   1.285  16.243  14.964
27561W        W99287   2.572  39.614  13.003
27562W        W99288  15.921  30.130   2.687
27563W        W99289  23.997  27.460   1.486
27564W        W99290  20.538  27.959  11.182
27565W        W99291  12.143   6.476  11.504
27566W        W99292  28.553  44.740   1.852
27567W        W99293  21.541  13.640  12.539
27568W        W99294  38.114  30.865   1.672
27569W        W99295   7.201  44.299  10.897
27570W        W99296  42.323  25.213   3.963
27571W        W99297  23.247  43.364  13.215
27572W        W99298  36.107   5.677  13.936
27573W        W99299  17.298  13.344   3.155
27574W        W99300  39.393  34.911  14.256
27575W        W99301   3.397  33.541  14.807
27576W        W99302  41.779  24.443  12.035
27577W        W99303  43.008  43.761   0.860
27578W        W99304  11.155  43.334  10.748
27579W        W99305  13.747  23.959   1.746
27580W        W99306  24.222  21.443  13.044
27581W        W99307  21.860  17.669  11.402
27582W        W99308  25.937  12.734   0.742
27583W        W99309  44.041  36.568  11.521
27584W        W99310  16.089   9.768   1.982
27585W        W99311  40.709  17.137   5.145
27586W        W99312  24.980  21.724  14.399
27587W        W99313  27.963  13.599  13.845
27588W        W99314  36.027  17.440  10.754
27589W        W99315   6.169  13.295   3.627
27590W        W99316  28.020  25.433   0.005
27591W        W99317   9.831  16.343   2.413
27592W        W99318  37.048  10.664  10.700
27593W        W99319  41.222  39.309  12.825
27594W        W99320   4.106  11.405   3.199
27595W        W99321  24.587  12.695  14.926
27596W        W99322  25.461  31.402   2.088
27597W        W99323  38.872  43.922  13.574
27598W        W99324   9.758  28.944   2.344
27599W        W99325  18.167  44.787   0.800
27600W        W99326  34.320  25.573   0.285
27601W        W99327  43.030   1.381  12.255
27602W        W99328  30.150  10.877  13.992
27603W        W99329   7.750  36.606   2.316
27604W        W99330  10.366   6.630   3.580
27605W        W99331   0.765  36.583   2.419
27606W        W99332  22.032  42.061   4.783
27607W        W99333  44.927  28.941   3.916
27608W        W99334   7.499  10.291   4.152
27609W        W99335  14.317  31.900  11.533
27610W        W99336  39.774   5.733   5.014
27611W        W99337   9.210   2.917  10.878
27612W        W99338  18.986  30.065   0.261
27613W        W99339  12.716   7.178   4.731
27614W        W99340  30.685  28.688   0.265
27615W        W99341  11.037   0.460   3.084
27616W        W99342  42.640   3.977   3.806
27617W        W99343  23.778  29.545   1.429
27618W        W99344  27.787   1.309  14.315
27619W        W99345  33.337  14.767   5.028
27620W        W99346  25.995   7.396  14.759
27621W        W99347   2.014  25.793  14.407
27622W        W99348  39.476  34.134   0.980
27623W        W99349  44.336  14.714   1.384
27624W        W99350  18.340  32.682  11.530
27625W        W99351   8.776  27.239   0.280
27626W        W99352   9.624   5.407   1.489
27627W        W99353   3.106  32.094   0.793
27628W        W99354  31.413  24.502   3.552
27629W        W99355  44.760  34.050  14.995
27630W        W99356  39.058  40.341   4.738
27631W        W99357  32.570  35.018   1.402
27632W        W99358  43.522   1.206   2.175
27633W        W99359  25.508  42.593   1.186
27634W        W99360  40.550  35.095   1.816
27635W        W99361  26.772  33.964  11.269
27636W        W99362  41.237  26.071   0.890
27637W        W99363  12.362  37.833   3.220
27638W        W99364  24.487   7.919  13.888
27639W        W99365  40.540  14.590  13.778
27640W        W99366  37.408  34.587  14.452
27641W        W99367  10.141  13.252   4.302
27642W        W99368   9.627  16.191  12.616
27643W        W99369  27.677  41.566  11.223
27644W        W99370  44.551  25.573  11.561
27645W        W99371  30.914  18.864  12.604
27646W        W99372   0.815   4.884  13.575
27647W        W99373  19.813  28.138   3.826
27648W        W99374  23.071  40.443   2.364
27649W        W99375  44.201  21.078   0.429
27650W        W99376  26.695  21.194  11.201
27651W        W99377  25.037  30.210  10.379
27652W        W99378   3.395  39.046   4.538
27653W        W99379  29.783  17.432   3.677
27654W        W99380   4.938   0.984   3.238
27655W        W99381   5.856  33.699   3.611
27656W        W99382   0.904  44.323   2.673
27657W        W99383  28.750   3.132   1.274
27658W        W99384  30.509   8.817   1.944
27659W        W99385  23.136  40.386   0.952
27660W        W99386  38.621  11.162   3.295
27661W        W99387   6.659  29.159  10.327
27662W        W99388  23.369   6.324   4.740
27663W        W99389  12.709  37.564  11.918
27664W        W99390  13.336  28.156   3.819
27665W        W99391   5.900  35.012   4.087
27666W        W99392  43.876   9.806   4.923
27667W        W99393  33.699  33.868   2.279
27668W        W99394   3.435  38.420   2.737
27669W        W99395   8.663  25.478   3.744
27670W        W99396  40.091  26.141   0.461
27671W        W99397  40.965   5.301  12.691
27672W        W99398  23.168  27.435   2.710
27673W        W99399  22.263  13.252   0.177
27674W        W99400  27.605  37.917  12.162
27675W        W99401   8.350  37.936  13.906
27676W        W99402  32.879  35.838   2.348
27677W        W99403  37.429  20.368   3.615
27678W        W99404  24.074  44.910   0.748
27679W        W99405  35.480  14.733   3.604
27680W        W99406  15.701  38.748   0.870
27681W        W99407  25.778  29.904   2.539
27682W        W99408   4.858  21.668   3.534
27683W        W99409  15.686  32.566   4.845
27684W        W99410  22.181  33.096  10.698
27685W        W99411  15.754  42.846   1.853
27686W        W99412  25.921   5.237   1.537
27687W        W99413  31.502  29.989   3.201
27688W        W99414  23.923   2.268   1.397
27689W        W99415   6.204  32.143  14.349
27690W        W99416  36.321  44.031  13.390
27691W        W99417   4.916  18.058  14.092
27692W        W99418   1.156  22.937   1.214
27693W        W99419  12.112  24.084   3.659
27694W        W99420   3.026  13.361  11.210
27695W        W99421  13.797  11.633  12.694
27696W        W99422  20.832  26.574   4.918
27697W        W99423  10.122   5.399   1.821
27698W        W99424   8.816   9.432  14.664
27699W        W99425  43.507  20.436  13.074
27700W        W99426  10.413  41.475  13.929
27701W        W99427  43.760   1.584   4.000
27702W        W99428  13.688  29.517  13.992
27703W        W99429  28.124  35.023   0.283
27704W        W99430   2.220   8.564  12.566
27705W        W99431  43.497   5.751   0.667
27706W        W99432   2.273  22.362   4.411
27707W        W99433  13.211   2.295   2.401
27708W        W99434  31.194  27.877   2.438
27709W        W99435  39.091  43.447   3.164
27710W        W99436   1.778  19.126  14.724
27711W        W99437  42.078  14.578   2.983
27712W        W99438  24.625   9.055   2.401
27713W        W99439  11.776  40.495  10.663
27714W        W99440   7.952  35.746   9.744
27715W        W99441  36.408  20.756   3.084
27716W        W99442  13.325  32.334  12.866
27717W        W99443  17.027  14.453  13.770
27718W        W99444   7.008   8.135   2.638
27719W        W99445  14.700   5.451  14.336
27720W        W99446  25.724   9.085  12.913
27721W        W99447  22.642   7.410  10.315
27722W        W99448   6.293   6.789   2.507
27723W        W99449   3.483  12.623  14.379
27724W        W99450  40.448   9.243  11.086
27725W        W99451  30.515  26.316   1.804
27726W        W99452  17.356  35.566  10.453
27727W        W99453   7.257  19.573  13.547
27728W        W99454  32.925  41.833   4.127
27729W        W99455   9.347  43.768  12.799
27730W        W99456   6.506   8.683   4.613
27731W        W99457  34.570  44.742  12.028
27732W        W99458  42.606   2.705   3.223
27733W        W99459   3.232  26.736   1.951
27734W        W99460  13.832  13.369  12.042
27735W        W99461   1.485  19.638  14.366
27736W        W99462  15.283  14.355  14.538
27737W        W99463  21.091  37.285   0.540
27738W        W99464  40.947   4.862   3.213
27739W        W99465  11.794  33.187   3.716
27740W        W99466  15.326  29.050   2.506
27741W        W99467  17.148   4.305   3.595
27742W        W99468   5.873  36.961   0.918
27743W        W99469  20.062  28.264  13.119
27744W        W99470  40.747  22.484  11.214
27745W        W99471   5.260  39.230   0.792
27746W        W99472   5.247  40.954   2.701
27747W        W99473  10.131  37.346  11.598
27748W        W99474   7.578  38.014   1.878
27749W        W99475  16.505  34.928  13.775
27750W        W99476  33.060  31.603  14.038
27751W        W99477   8.444  36.149  14.414
27752W        W99478  20.257  22.502   1.806
27753W        W99479  24.288  28.153  10.188
27754W        W99480  34.886  12.969  14.303
27755W        W99481  31.685  39.452   4.271
27756W        W99482   4.317  29.353   0.330
27757W        W99483  32.135  41.525   2.701
27758W        W99484  36.528  11.734  14.456
27759W        W99485  35.102  23.693  10.719
27760W        W99486  23.418   5.783  14.418
27761W        W99487  31.483  15.764  13.502
27762W        W99488  24.700   9.634   3.602
27763W        W99489   0.775   7.696   4.279
27764W        W99490  40.386  37.914   4.503
27765W        W99491  28.872  12.011   2.825
27766W        W99492  12.380  23.149   3.117
27767W        W99493  10.108  28.579   2.202
27768W        W99494  39.606  29.422  11.580
27769W        W99495  43.150  24.943   4.503
27770W        W99496  28.443  44.262  12.917
27771W        W99497   4.132  16.585  13.778
27772W        W99498  27.198  12.974  12.126
27773W        W99499   9.560   2.900  11.232
27774W        W99500   1.434  21.153  14.664
27775W        W99501  23.196  25.807  13.329
27776W        W99502  21.279  16.559   4.183
27777W        W99503  42.037  14.021  10.595
27778W        W99504   7.797  14.160  13.318
27779W        W99505  31.697  22.802   1.176
27780W        W99506  35.474  15.047  12.210
27781W        W99507  31.556   9.070   3.365
27782W        W99508  38.157  14.105   1.941
27783W        W99509  39.429  27.812   2.990
27784W        W99510  36.806  32.884   2.287
27785W        W99511  40.713  20.084  10.471
27786W        W99512   2.646  38.952  11.001
27787W        W99513   3.247  38.931  11.054
27788W        W99514  26.433  36.042   3.978
27789W        W99515   7.607  24.194  13.976
27790W        W99516  22.556   2.523   4.915
27791W        W99517  39.454  43.015  12.375
27792W        W99518  11.173  13.274   0.040
27793W        W99519  42.747  41.430  10.982
27794W        W99520  31.145  33.881   4.565
27795W        W99521  17.448   6.244   1.279
27796W        W99522  17.296  27.428   3.329
27797W        W99523   6.387   9.150  12.922
27798W        W99524  37.864  34.978  14.829
27799W        W99525  18.226  40.205  14.057
27800W        W99526   0.761   9.414  13.133
27801W        W99527  32.846   8.544   3.750
27802W        W99528   8.319  26.558  13.409
27803W        W99529  41.298   2.072   0.879
27804W        W99530  32.518   4.891  14.961
27805W        W99531  44.804  14.600  11.243
27806W        W99532  13.665  10.849   0.433
27807W        W99533  17.210  13.443  14.974
27808W        W99534   4.957   8.351   2.228
27809W        W99535  18.279  20.426   3.274
27810W        W99536  31.422  11.670   2.805
27811W        W99537  22.542  22.600  10.699
27812W        W99538   2.087  18.315   0.285
27813W        W99539  16.576   2.056   2.720
27814W        W99540  26.708   2.680  11.200
27815W        W99541   5.384  31.016  12.027
27816W        W99542   6.181  20.267   1.310
27817W        W99543  13.599  16.638  13.364
27818W        W99544  20.318   5.391   3.708
27819W        W99545  30.594   8.139  10.876
27820W        W99546   5.936  42.324   2.801
27821W        W99547  22.458  40.498   4.249
27822W        W99548  33.476   5.852  13.627
27823W        W99549   9.797  32.808   2.816
27824W        W99550   3.848  17.472  13.753
27825W        W99551  30.456  34.614  10.486
27826W        W99552  20.521   0.011  10.649
27827W        W99553  29.962  20.086   1.658
27828W        W99554  20.615  36.401  11.400
27829W        W99555  20.603  32.907   0.366
27830W        W99556   7.762  39.868   2.794
27831W        W99557  44.840  24.896   2.299
27832W        W99558  21.071  10.156  12.086
27833W        W99559  27.558   4.612   0.356
27834W        W99560  26.404  12.564  13.023
27835W        W99561   3.741  17.709   1.128
27836W        W99562  16.665  14.793   4.040
27837W        W99563  41.546  20.062   2.764
27838W        W99564  42.208  44.132   3.239
27839W        W99565   2.221  13.417   0.951
27840W        W99566  13.901  39.322   3.606
27841W        W99567  44.916  23.797   2.589
27842W        W99568  15.324  26.484   3.729
27843W        W99569  40.849   2.923   4.623
27844W        W99570  38.739   6.328  12.857
27845W        W99571  36.125   0.001   1.342
27846W        W99572  23.491  13.866   3.921
27847W        W99573   4.878  42.800  10.669
27848W        W99574   9.460   7.524   2.916
27849W        W99575   5.029  33.999  13.875
27850W        W99576  13.143  24.209  10.977
27851W        W99577  12.605   5.948   0.303
27852W        W99578  26.592  33.896  12.605
27853W        W99579  23.026  44.515   4.525
27854W        W99580  33.146  29.739  11.474
27855W        W99581  10.325  41.705   5.386
27856W        W99582   7.916  17.126   2.293
27857W        W99583  35.438  36.132   1.420
27858W        W99584  13.595  28.186   1.193
27859W        W99585  36.519  36.633  12.016
27860W        W99586  20.433  22.784   1.395
27861W        W99587  35.983   6.693  11.734
27862W        W99588   1.039   3.092  12.790
27863W        W99589  24.652  35.885  14.847
27864W        W99590  29.624   0.461  14.288
27865W        W99591  31.939  33.381  13.623
27866W        W99592  27.635  15.322  14.804
27867W        W99593  23.060   3.230   3.083
27868W        W99594   5.196  28.154  12.408
27869W        W99595   7.891  29.460   1.310
27870W        W99596  31.525  26.428  13.912
27871W        W99597  24.546  20.291  13.794
27872W        W99598  41.844  38.606  13.998
27873W        W99599   5.903   1.752   1.889
27874W        W99600   1.392   5.204  13.911
27875W        W99601  13.647   4.897   3.980
27876W        W99602  10.076  37.593   3.099
27877W        W99603  31.682  40.887  13.824
27878W        W99604   1.534   9.440  13.540
27879W        W99605   1.307  15.910  12.088
27880W        W99606   7.320  25.608   3.243
27881W        W99607  42.634  35.827   3.741
27882W        W99608  40.583  40.190   2.825
27883W        W99609  39.449  16.691  14.925
27884W        W99610   2.460   0.871   3.992
27885W        W99611   6.359   7.631  12.857
27886W        W99612  41.091  26.511   3.300
27887W        W99613  28.167  21.149   4.162
27888W        W99614  37.909   4.859   2.247
27889W        W99615  23.192  10.821  12.087
27890W        W99616  33.839  38.825   4.125
27891W        W99617  23.272   0.196   3.849
27892W        W99618  32.456   0.436  11.220
27893W        W99619  37.493  37.048   1.618
27894W        W99620  18.779   1.908   2.215
27895W        W99621   9.893  14.701   1.339
27896W        W99622  41.391  23.885  12.655
27897W        W99623   4.783  15.681  10.124
27898W        W99624  22.516  28.474   5.385
27899W        W99625   3.341  20.092   4.534
27900W        W99626  35.868  19.629  11.253
27901W        W99627  17.509  10.110   3.688
27902W        W99628   2.334  24.666  11.589
27903W        W99629  30.687  25.015  14.334
27904W        W99630  28.059  30.992   1.783
27905W        W99631  25.144  39.829   0.850
27906W        W99632  22.321  25.479  10.252
27907W        W99633  30.527  23.505   1.450
27908W        W99634  40.931   4.487  11.157
27909W        W99635  24.713   3.493   4.684
27910W        W99636  29.832  34.936   2.115
27911W        W99637  22.158  33.003   0.685
27912W        W99638  38.941  27.121   1.926
27913W        W99639  24.151  15.088   0.172
27914W        W99640  35.261  17.895   0.814
27915W        W99641  32.595  28.448   0.033
27916W        W99642  28.698  10.253  14.544
27917W        W99643  30.446  35.599  10.667
27918W        W99644   1.682  19.739   3.555
27919W        W99645  23.312  35.613  11.204
27920W        W99646  24.651  28.190   0.888
27921W        W99647  20.568  41.804   0.714
27922W        W99648   0.277  40.743   0.892
27923W        W99649  38.563  21.684   0.211
27924W        W99650  12.495  13.777  13.089
27925W        W99651  35.350  30.942   0.865
27926W        W99652  38.451   4.760  10.342
27927W        W99653  24.854  20.427   3.352
27928W        W99654   3.222  29.716  10.761
27929W        W99655  40.476   3.221   3.672
27930W        W99656  34.713   3.849   4.989
27931W        W99657  35.076  26.894  13.911
27932W        W99658  37.766  27.934  11.892
27933W        W99659  35.532  42.740  11.646
27934W        W99660  25.619  14.720   0.310
27935W        W99661  30.137  36.356   2.239
27936W        W99662  11.839  11.861   2.399
27937W        W99663  40.008  28.170   4.486
27938W        W99664  32.088  11.789  11.936
27939W        W99665  43.211  23.747  13.370
27940W        W99666  32.330  24.408   4.499
27941W        W99667   7.603  40.921   2.854
27942W        W99668  35.925  40.024   2.387
27943W        W99669  39.391  16.038   2.953
27944W        W99670  37.014   7.495   1.270
27945W        W99671  29.548   6.957  13.496
27946W        W99672  43.396   9.655   4.093
27947W        W99673  21.799   3.142   4.618
27948W        W99674  12.152  26.374  12.995
27949W        W99675  37.573  37.073   4.058
27950W        W99676  19.287  36.515   1.936
27951W        W99677  16.285   9.391  14.754
27952W        W99678  11.090   9.094  13.445
27953W        W99679  11.726  14.789  14.069
27954W        W99680  23.610   8.194  10.764
27955W        W99681   6.755  32.474   2.377
27956W        W99682  14.286  33.539  10.683
27957W        W99683   2.903  34.507  13.436
27958W        W99684   8.378  12.862   2.242
27959W        W99685  41.702   3.172   0.336
27960W        W99686  10.025  35.422   2.704
27961W        W99687  18.953   0.969   1.808
27962W        W99688  37.828  23.160   1.713
27963W        W99689  24.526  39.260   4.582
27964W        W99690  32.398   0.487  10.701
27965W        W99691   0.230  42.339   1.825
27966W        W99692  15.800  43.366  10.642
27967W        W99693   0.142  44.238   1.338
27968W        W99694   1.179   5.459   1.669
27969W        W99695  12.750  22.052   3.838
27970W        W99696  22.907  22.262  11.569
27971W        W99697  12.828  44.397   3.104
27972W        W99698  38.862  38.380  11.593
27973W        W99699   8.649  21.653   2.879
27974W        W99700   4.429  29.830   0.478
27975W        W99701  10.352  35.545  14.305
27976W        W99702  21.039  44.827  12.348
27977W        W99703   2.669  29.161   3.641
27978W        W99704  37.994  18.753  11.195
27979W        W99705   8.684  43.248  12.449
27980W        W99706  36.497  19.814   1.374
27981W        W99707  32.829  15.553  11.485
27982W        W99708  28.228  10.319  12.683
27983W        W99709  40.889  36.052  14.573
27984W        W99710   1.291  24.051   0.798
27985W        W99711  38.854  14.110  13.525
27986W        W99712   3.224   5.235   1.328
27987W        W99713   3.958  15.861   0.254
27988W        W99714  14.658  40.175   4.976
27989W        W99715   5.062  17.522   1.421
27990W        W99716  39.773  32.111   4.210
27991W        W99717  13.314  23.569   3.916
27992W        W99718  30.134  18.958  12.099
27993W        W99719  24.673   9.828   3.125
27994W        W99720  10.155  15.941  12.617
27995W        W99721  32.509   4.352  10.509
27996W        W99722   2.123  32.894   4.288
27997W        W99723  35.988  34.081   4.894
27998W        W99724  24.098   3.031   3.301
27999W        W99725  20.692  39.378  11.058
28000W        W99726   3.976  12.549  14.986
28001W        W99727  21.232   6.179   2.324
28002W        W99728  24.543   2.843  11.312
28003W        W99729  10.323  35.569  13.240
28004W        W99730  42.334  40.419   0.825
28005W        W99731  12.751  15.352  12.685
28006W        W99732  36.202  37.586  11.892
28007W        W99733   2.593  21.996   3.715
28008W        W99734  27.719  10.672  10.629
28009W        W99735  26.517  19.044   4.111
28010W        W99736  28.132  27.480   1.441
28011W        W99737  12.209  39.727   0.919
28012W        W99738   1.492  19.987  11.522
28013W        W99739  29.508  40.726  14.401
28014W        W99740   5.837  41.927  12.054
28015W        W99741  44.468  34.124  14.012
28016W        W99742  23.531  11.274  12.017
28017W        W99743   6.945  42.682   2.285
28018W        W99744  37.549  16.131   4.109
28019W        W99745  36.335  41.080   5.181
28020W        W99746  41.786  38.801   0.300
28021W        W99747  14.659  11.367  13.003
28022W        W99748  12.875  13.369  14.758
28023W        W99749  19.819  11.125  14.672
28024W        W99750  36.790  40.670  11.152
28025W        W99751  19.969  36.017   2.020
28026W        W99752  13.752  13.754   0.182
28027W        W99753   6.706  37.341  14.119
28028W        W99754  24.980  34.445  11.171
28029W        W99755  32.677  39.050   3.584
28030W        W99756   7.768  21.319  14.008
28031W        W99757  18.051   5.814   2.646
28032W        W99758   6.591   2.019  10.871
28033W        W99759  14.070  37.557  12.703
28034W        W99760  26.826  23.645  12.887
28035W        W99761  25.987  17.626  10.748
28036W        W99762  38.436  27.225   2.659
28037W        W99763  26.078  19.143  12.635
28038W        W99764  44.301   6.352  12.515
28039W        W99765  31.698   9.520   3.595
28040W        W99766  23.917  14.385   2.359
28041W        W99767  10.039  14.168  10.230
28042W        W99768  38.948  40.787  14.776
28043W        W99769  28.330  26.183  13.884
28044W        W99770   2.266  43.332   4.544
28045W        W99771  43.206   2.886  10.480
28046W        W99772  10.254  38.883   3.279
28047W        W99773   8.655  37.248   3.366
28048W        W99774  28.445  35.929  14.221
28049W        W99775  28.869  44.438  11.652
28050W        W99776  15.637   6.709   1.307
28051W        W99777  39.025  30.459  12.059
28052W        W99778  36.583  39.547  13.799
28053W        W99779  17.575  19.921   4.531
28054W        W99780  18.686  34.797   1.118
28055W        W99781  20.266  39.183   2.015
28056W        W99782  14.650  19.030   0.315
28057W        W99783  12.276  37.001   0.726
28058W        W99784  18.714   2.068   1.208
28059W        W99785   2.256  35.575  11.114
28060W        W99786   6.792  24.073  11.655
28061W        W99787  11.097  26.251   3.148
28062W        W99788  17.817  13.759  12.155
28063W        W99789  24.286   7.972  13.073
28064W        W99790   8.808  10.919  14.993
28065W        W99791   4.666  21.805   3.062
28066W        W99792  33.682  32.996  14.209
28067W        W99793  11.087  40.922   1.502
28068W        W99794  43.501   4.664  11.649
28069W        W99795   9.088  29.578  12.946
28070W        W99796  42.066   8.900   2.820
28071W        W99797  24.408  35.892  10.609
28072W        W99798  21.556  27.784   3.061
28073W        W99799  27.715  31.462   1.187
28074W        W99800  21.969  22.097  12.957
28075W        W99801  11.266  40.797  13.633
28076W        W99802  11.316  32.081  11.208
28077W        W99803   6.753   0.434  13.096
28078W        W99804  36.850  20.016  12.496
28079W        W99805  40.132  14.934  12.899
28080W        W99806   4.695  44.069   1.633
28081W        W99807   5.469  24.629  14.532
28082W        W99808   3.332  20.655   0.881
28083W        W99809   0.395  39.875   2.622
28084W        W99810  29.675  40.257  12.429
28085W        W99811  39.815  33.990  12.133
28086W        W99812  34.019  25.244   3.301
28087W        W99813  21.596  14.633   3.352
28088W        W99814  38.352  10.618  12.784
28089W        W99815  22.464  43.340   1.953
28090W        W99816  25.046  28.092   4.055
28091W        W99817   9.841  41.374   4.184
28092W        W99818  31.037   6.142  13.927
28093W        W99819  20.325  43.207  13.539
28094W        W99820  21.606  25.556  10.608
28095W        W99821  18.166  37.808  14.669
28096W        W99822  44.403  22.592   2.321
28097W        W99823  30.881  24.369   5.105
28098W        W99824  31.118  19.013   2.596
28099W        W99825  24.169  36.956   0.137
28100W        W99826  37.852  27.479   1.363
28101W        W99827  19.210  43.413  11.026
28102W        W99828  26.590  16.064  11.772
28103W        W99829  35.175  13.911   4.196
28104W        W99830   3.507  31.238  11.178
28105W        W99831  24.013  17.849   3.159
28106W        W99832   3.867  37.815  10.230
28107W        W99833  44.189  18.061   1.888
28108W        W99834  21.594  10.079  11.511
28109W        W99835  27.376   8.807   2.273
28110W        W99836   7.272  31.940  12.899
28111W        W99837  32.354  36.316   3.382
28112W        W99838   4.330  28.884   2.329
28113W        W99839  35.523  44.560   2.816
28114W        W99840   5.478  36.011   1.067
28115W        W99841  23.791   0.354   2.317
28116W        W99842   0.182  31.269   2.243
28117W        W99843   5.408  44.542   1.581
28118W        W99844  33.210  11.064   0.894
28119W        W99845   2.339  35.593   1.311
28120W        W99846  42.979   2.125  13.371
28121W        W99847  30.046  26.200  11.530
28122W        W99848   2.723  14.159   2.789
28123W        W99849  39.011  34.503  11.133
28124W        W99850  33.498  29.417  14.530
28125W        W99851  11.576  35.153  11.068
28126W        W99852   6.885  22.119   3.742
28127W        W99853   0.429   1.278  13.425
28128W        W99854  20.473  34.238   5.072
28129W        W99855  31.346   7.885   0.307
28130W        W99856  33.132  36.520   3.678
28131W        W99857   2.902  18.149  11.396
28132W        W99858   3.498  24.174  11.230
28133W        W99859  17.997  19.320   1.334
28134W        W99860   3.282   7.065   2.395
28135W        W99861   9.160  20.407   2.927
28136W        W99862  22.707  24.622   0.410
28137W        W99863   1.166   4.352   0.479
28138W        W99864  44.434  38.119  13.428
28139W        W99865   8.053  35.053  10.134
28140W        W99866  37.543  14.874  12.622
28141W        W99867  26.451  41.492  14.797
28142W        W99868  13.765  36.527   3.872
28143W        W99869  33.095  13.224  14.601
28144W        W99870  43.509  25.035  13.718
28145W        W99871   2.004  35.844   2.995
28146W        W99872  27.958  25.982   0.286
28147W        W99873   8.757  30.169   4.813
28148W        W99874  43.943   2.667  14.729
28149W        W99875  33.089  21.532   3.700
28150W        W99876  23.513  24.561  13.864
28151W        W99877   6.234  34.049  12.478
28152W        W99878   7.715   8.128   3.889
28153W        W99879  31.460  42.552  14.155
28154W        W99880  25.658  40.126   5.112
28155W        W99881  41.991  41.747  11.099
28156W        W99882  27.907  36.864  13.912
28157W        W99883  11.713  35.879  10.175
28158W        W99884  12.356  14.772   1.359
28159W        W99885  32.067   5.866  11.601
28160W        W99886  42.557  16.195  14.365
28161W        W99887   1.781  20.869  10.710
28162W        W99888  25.656  40.027  12.594
28163W        W99889  11.947  28.769  12.175
28164W        W99890  36.540  29.400   5.161
28165W        W99891   4.130  29.167  13.037
28166W        W99892  12.759  13.141   3.116
28167W        W99893  35.616   9.220   2.824
28168W        W99894   4.298   0.651   4.924
28169W        W99895   4.811  37.914   4.458
28170W        W99896   1.753  28.584   4.652
28171W        W99897  20.419  31.024  12.230
28172W        W99898  27.563  22.307   3.269
28173W        W99899  38.880   8.353   3.343
28174W        W99900  28.386   2.023  12.274
28175W        W99901  34.400  22.210  10.695
28176W        W99902  12.332  34.399  13.933
28177W        W99903  23.513  41.709   0.358
28178W        W99904  16.070  20.540   2.790
28179W        W99905  24.584  43.779  13.149
28180W        W99906  38.979  13.778   3.644
28181W        W99907  26.527  39.186   2.403
28182W        W99908   8.740   0.246  14.161
28183W        W99909  31.099  33.483   2.372
28184W        W99910  36.401   6.940  12.557
28185W        W99911  10.880  32.491   0.306
28186W        W99912  22.211  37.627  13.395
28187W        W99913  23.580  25.528   2.526
28188W        W99914  37.848  15.156  12.279
28189W        W99915  35.773   6.685   0.946
28190W        W99916  11.208  37.346  13.435
28191W        W99917  37.308  39.493  10.632
28192W        W99918  42.646  21.783  13.662
28193W        W99919  29.480  44.265  12.531
28194W        W99920  15.152  35.456  12.111
28195W        W99921  44.966  32.911  11.040
28196W        W99922  40.453  22.005   0.801
28197W        W99923  31.481  26.001  11.578
28198W        W99924  15.331   8.641  11.116
28199W        W99925  29.592  18.065   0.448
28200W        W99926   3.802  44.065  14.760
28201W        W99927  43.928   4.952  11.613
28202W        W99928  39.899   9.863   4.615
28203W        W99929   7.609  38.331  12.851
28204W        W99930   2.340  22.304  12.892
28205W        W99931  22.625  27.284  12.411
28206W        W99932  14.836  17.523  13.980
28207W        W99933  44.569   0.344   2.762
28208W        W99934  32.935   8.890   5.026
28209W        W99935  14.475  22.305   4.329
28210W        W99936   3.934  27.391   1.427
28211W        W99937  31.651  20.783  13.533
28212W        W99938   0.254  31.353   0.485
28213W        W99939  41.637  17.135   0.348
28214W        W99940  39.085   2.354   1.151
28215W        W99941  20.501  24.393   1.704
28216W        W99942   3.356   2.289   3.690
28217W        W99943  22.038  38.590   4.310
28218W        W99944  15.394  28.210   4.658
28219W        W99945   2.865   4.018   0.859
28220W        W99946  17.611  44.056  14.132
28221W        W99947  26.999  20.137   3.621
28222W        W99948  25.151  17.145  12.325
28223W        W99949  39.288  14.692  13.040
28224W        W99950  19.504  43.362   4.822
28225W        W99951   9.699   4.992  14.272
28226W        W99952  43.327  11.752  10.210
28227W        W99953  34.012  41.337   1.420
28228W        W99954   3.239  38.372   4.181
28229W        W99955  14.766  38.259  14.839
28230W        W99956  36.731  42.958   3.688
28231W        W99957  37.837  44.606   4.649
28232W        W99958  34.528  43.907   4.518
28233W        W99959   1.520  37.926   3.838
28234W        W99960  32.498  17.092  14.994
28235W        W99961   3.148  42.137   3.668
28236W        W99962  11.132   7.255  12.134
28237W        W99963  17.055   0.081   2.295
28238W        W99964   3.126   2.540   4.284
28239W        W99965  34.025  29.186   5.001
28240W        W99966  43.984   1.420   3.081
28241W        W99967  23.554  27.505  12.387
28242W        W99968  16.926  30.659   3.109
28243W        W99969  21.584  23.175  10.620
28244W        W99970  43.089   6.238   3.692
28245W        W99971  16.106  37.393  14.802
28246W        W99972  42.961  38.380  12.450
28247W        W99973  30.781  20.111   3.632
28248W        W99974  22.137   7.049  11.794
28249W        W99975  18.813  28.883   0.915
28250W        W99976  36.047  11.298   4.086
28251W        W99977  12.201  18.341   2.349
28252W        W99978  40.685  27.868  13.851
28253W        W99979   8.743  38.358   1.700
28254W        W99980   0.321  43.644   1.671
28255W        W99981   3.188  23.083   1.408
28256W        W99982  16.722  17.518  14.732
28257W        W99983  32.606  13.869  12.995
28258W        W99984  22.559  39.777   2.713
28259W        W99985  15.349  33.532   1.351
28260W        W99986   5.693  38.771  12.998
28261W        W99987  36.383  31.479   4.571
28262W        W99988  31.996   8.409  11.661
28263W        W99989  37.559  28.327   3.203
28264W        W99990  20.674  22.970   2.263
28265W        W99991  29.554  10.637  14.300
28266W        W99992  34.249  42.128  11.472
28267W        W99993  44.000  37.328   1.457
28268W        W99994  31.429  35.482  12.409
28269W        W99995   2.718   9.915  13.616
28270W        W99996  16.164  23.233  13.920
28271W        W99997   3.907   3.086  12.130
28272W        W99998  11.597  14.654   0.486
28273W        W99999  35.185  40.656   1.389
28274W        W    0  37.107  18.383   0.823
28275W        W    1   8.517  26.676  10.989
28276W        W    2   3.670  35.464   0.820
28277W        W    3  28.704  24.679   3.369
28278W        W    4  28.507  26.060  11.001
28279W        W    5  22.439   0.290  13.122
28280W        W    6  10.932  34.987   4.702
28281W        W    7  16.017   2.854  12.019
28282W        W    8  25.533  25.658   0.432
28283W        W    9  10.580  37.478   3.233
28284W        W   10  31.538  19.813   3.281
28285W        W   11  40.563  22.005  13.563
28286W        W   12   7.573  42.738  11.229
28287W        W   13   2.706  10.417  11.580
28288W        W   14  29.913   1.660  13.432
28289W        W   15  24.497  15.350   2.334
28290W        W   16  44.856  32.141   0.713
28291W        W   17  29.429  30.483   0.687
28292W        W   18  14.963  25.438  11.656
28293W        W   19  34.189   2.485   1.356
28294W        W   20  25.004  32.895  12.848
28295W        W   21  26.866  25.902  13.083
28296W        W   22  26.010  34.222   5.045
28297W        W   23  30.356  24.239   2.650
28298W        W   24  14.287  17.734  14.470
28299W        W   25  26.623  11.852  12.517
28300W        W   26  25.036  25.357  10.632
28301W        W   27  37.373  33.747  11.393
28302W        W   28   3.747  18.453  12.542
28303W        W   29   3.178   2.297   5.021
28304W        W   30  42.991  12.365  13.810
28305W        W   31  13.473  21.771  12.651
28306W        W   32  27.100  21.759   2.612
28307W        W   33  20.375  43.986  12.118
28308W        W   34   6.013   5.342   0.519
28309W        W   35   0.968  26.298  11.155
28310W        W   36  34.143  38.604  14.492
28311W        W   37  22.588  12.545  12.045
28312W        W   38  31.743  17.759   1.778
28313W        W   39  25.068  33.418  11.752
28314W        W   40  10.325  34.243   5.140
28315W        W   41  21.297  11.562  13.766
28316W        W   42   4.621  36.398   1.626
28317W        W   43  20.195   3.870   4.690
28318W        W   44  14.248   4.446  13.406
28319W        W   45  15.270  12.058  13.972
28320W        W   46  23.682  44.117   2.857
28321W        W   47  44.479   8.172   0.857
28322W        W   48  43.463  25.049  10.663
28323W        W   49   1.753  24.487  10.925
28324W        W   50  41.127   0.691  14.383
28325W        W   51  17.566   2.082   2.671
28326W        W   52  40.975  30.021  11.191
28327W        W   53  29.479  11.328  11.696
28328W        W   54  28.212  12.107  13.874
28329W        W   55  31.186  21.028   4.542
28330W        W   56  20.127   8.761  14.842
28331W        W   57  41.949  12.519  10.696
28332W        W   58  20.652  42.026   4.556
28333W        W   59   8.271   7.002   0.500
28334W        W   60  15.262  15.175  10.658
28335W        W   61  31.859  22.019  14.289
28336W        W   62  18.127  41.392   4.810
28337W        W   63  24.435  29.994   0.467
28338W        W   64  43.706  14.803   2.196
28339W        W   65   3.172   2.169  13.403
28340W        W   66  33.079  12.162   3.099
28341W        W   67  11.752  37.849  13.387
28342W        W   68  22.124  15.363  10.946
28343W        W   69  16.903  25.174   0.798
28344W        W   70  35.923  23.502   0.775
28345W        W   71   2.356   9.755   4.012
28346W        W   72   2.223  19.003  11.353
28347W        W   73  25.440  18.656   0.390
28348W        W   74  19.152   9.255  11.320
28349W        W   75  12.854   4.413   1.365
28350W        W   76  44.338  41.031  10.769
28351W        W   77  22.906  40.984   1.249
28352W        W   78   3.503  37.877  11.180
28353W        W   79  27.627  10.403   3.187
28354W        W   80  28.709   4.772  11.410
28355W        W   81  43.309  39.819   1.694
28356W        W   82  28.496  12.905   1.786
28357W        W   83   0.948  41.950  12.927
28358W        W   84   2.328  10.420  14.861
28359W        W   85  13.173   2.253   2.916
28360W        W   86  39.481  43.501  13.763
28361W        W   87  17.819   9.689  13.016
28362W        W   88  36.457  23.086   1.996
28363W        W   89  19.780  34.609   4.168
28364W        W   90  19.747  34.531   3.147
28365W        W   91  13.663  39.721  13.081
28366W        W   92   8.727  21.240  14.409
28367W        W   93  25.486  14.622   4.940
28368W        W   94  15.523   1.386   1.235
28369W        W   95  38.245  36.841  14.453
28370W        W   96  39.504  16.703  12.010
28371W        W   97   3.921  15.660  14.768
28372W        W   98  18.780  38.916   4.079
28373W        W   99   5.927   0.234  13.898
28374W        W  100   4.513  28.103  13.534
28375W        W  101  22.112   2.768   2.262
28376W        W  102   6.752  28.549  12.430
28377W        W  103   1.229  26.529   0.593
28378W        W  104  38.471  18.568   1.853
28379W        W  105   7.408   9.468  13.480
28380W        W  106  15.209  17.315  14.261
28381W        W  107  38.233  41.972   2.810
28382W        W  108  16.082  19.550  11.892
28383W        W  109   5.257  18.521   4.137
28384W        W  110  36.125  26.781  11.097
28385W        W  111  12.276   3.678  12.030
28386W        W  112  25.679  25.676  11.637
28387W        W  113  24.208  23.745   4.861
28388W        W  114  16.816  28.085  13.646
28389W        W  115  18.989  16.750  12.125
28390W        W  116   2.778  31.820  11.623
28391W        W  117  27.018  32.475  13.907
28392W        W  118   5.764   0.203   3.698
28393W        W  119  34.469   0.860   4.392
28394W        W  120  34.164  21.108   1.281
28395W        W  121  34.408  18.884  12.605
28396W        W  122  18.260  16.174  14.017
28397W        W  123  16.637  38.057   2.337
28398W        W  124  19.715  19.782   3.120
28399W        W  125   4.724   8.736   4.234
28400W        W  126  42.564   2.456  14.542
28401W        W  127  37.264  11.619   2.400
28402W        W  128  32.096  26.027  13.360
28403W        W  129  21.723  33.808  13.470
28404W        W  130  25.441  11.239   3.377
28405W        W  131  23.226  37.031  14.272
28406W        W  132   3.172  23.066   0.546
28407W        W  133  14.905  28.043   4.588
28408W        W  134   4.485   9.274  11.049
28409W        W  135  16.101  17.778   2.775
28410W        W  136  12.614   2.935   0.388
28411W        W  137  37.813   6.476  12.832
28412W        W  138  39.932   2.436  11.602
28413W        W  139  29.239  12.400   2.918
28414W        W  140  25.972  21.978   4.602
28415W        W  141  10.182  38.491   4.053
28416W        W  142  37.433   5.678   2.713
28417W        W  143  42.326   0.246  12.618
28418W        W  144  30.701  20.294  14.274
28419W        W  145   5.713  44.595  13.323
28420W        W  146  10.217  12.075   3.676
28421W        W  147  36.879  40.344   0.289
28422W        W  148  28.148   4.326   1.415
28423W        W  149  43.336   6.228  14.335
28424W        W  150  38.354   7.252   2.477
28425W        W  151  41.226  14.282  13.326
28426W        W  152  27.468  42.969   2.843
28427W        W  153  43.035   2.442  10.677
28428W        W  154  43.830  18.343  10.533
28429W        W  155  16.971  33.581   4.283
28430W        W  156  20.190  42.872   1.941
28431W        W  157  19.726   2.684   4.148
28432W        W  158   1.343  26.332  10.778
28433W        W  159  42.935   2.492   0.738
28434W        W  160   6.414   7.297   3.758
28435W        W  161   7.902  30.656   3.702
28436W        W  162  22.351  30.222   2.522
28437W        W  163  31.629  35.016   0.456
28438W        W  164  10.667   3.871   3.773
28439W        W  165   5.633  18.587   4.917
28440W        W  166  35.653  25.830   0.509
28441W        W  167  39.811  18.483  12.091
28442W        W  168   5.356  43.663   2.796
28443W        W  169  20.759   4.960   1.175
28444W        W  170  10.889  34.464   1.301
28445W        W  171   5.659  10.718  11.148
28446W        W  172   1.687  19.651   4.963
28447W        W  173  33.406  21.529  13.928
28448W        W  174  24.396  23.312   0.585
28449W        W  175   4.431  43.758  13.707
28450W        W  176  38.754  39.622   3.335
28451W        W  177  22.539  39.606  12.013
28452W        W  178  17.636  38.962   2.186
28453W        W  179   2.761  31.748  12.603
28454W        W  180  18.425  25.986   0.110
28455W        W  181  34.842   0.823   4.022
28456W        W  182  25.451  19.290   3.569
28457W        W  183  40.452   9.420   2.859
28458W        W  184  38.935  37.160   1.268
28459W        W  185  37.127  16.333  12.520
28460W        W  186  42.477   7.720   2.210
28461W        W  187  29.464  36.152  14.324
28462W        W  188  15.989  32.121   0.765
28463W        W  189   3.779  44.326  13.803
28464W        W  190   1.908  30.826   2.882
28465W        W  191  17.117  23.112   0.418
28466W        W  192  32.112   6.166  14.885
28467W        W  193  41.839  19.857  10.720
28468W        W  194  22.801  27.715   0.793
28469W        W  195  40.730  17.218   1.750
28470W        W  196  16.722  21.824  11.460
28471W        W  197  34.381  27.157  12.716
28472W        W  198  40.423  34.086  10.971
28473W        W  199  44.557   1.281   1.332
28474W        W  200  12.333  42.353   0.039
28475W        W  201   1.905  26.584  14.710
28476W        W  202  24.606  44.483   2.762
28477W        W  203  29.124  41.807   4.658
28478W        W  204   6.667  35.887   1.967
28479W        W  205  18.174  25.092   3.107
28480W        W  206   7.695  20.456  12.380
28481W        W  207  12.816  10.065   4.230
28482W        W  208  43.323  27.890  13.316
28483W        W  209  10.627   0.971  11.732
28484W        W  210  35.006  44.415  13.612
28485W        W  211  36.727   4.875  13.437
28486W        W  212  38.355  39.306   3.252
28487W        W  213  36.809   2.904   2.848
28488W        W  214  18.025  36.952   2.554
28489W        W  215  44.726   2.535  10.973
28490W        W  216  44.264  42.744   2.179
28491W        W  217  43.806   8.855  13.363
28492W        W  218  40.833  20.619  10.638
28493W        W  219  38.740  27.459  11.966
28494W        W  220  35.271   6.571   2.397
28495W        W  221  10.057  15.048  11.204
28496W        W  222   3.694  10.529   2.810
28497W        W  223  38.784  19.232  12.212
28498W        W  224   1.100  25.246  10.218
28499W        W  225  42.395  14.757  12.398
28500W        W  226  26.580  25.396  13.317
28501W        W  227  29.335  35.023  11.103
28502W        W  228  44.718  12.816   3.363
28503W        W  229   0.304  32.378  14.643
28504W        W  230  28.890   1.824  12.479
28505W        W  231  10.664   2.897  13.383
28506W        W  232  18.655  18.163   4.629
28507W        W  233  10.881  42.334  11.403
28508W        W  234   5.464   7.450   1.979
28509W        W  235  18.535  34.857  13.874
28510W        W  236  16.811  28.951   4.206
28511W        W  237  16.585  39.944  10.552
28512W        W  238  21.411  25.839  10.200
28513W        W  239  22.498  28.987   2.212
28514W        W  240   9.218  34.996   3.066
28515W        W  241  17.632  11.829   1.370
28516W        W  242  13.205  30.195   1.837
28517W        W  243  35.771  35.860  10.704
28518W        W  244   5.295  30.010  14.025
28519W        W  245  38.928  26.446   3.603
28520W        W  246  10.409   5.172  11.214
28521W        W  247  32.625  13.868   4.043
28522W        W  248  39.151   4.028   4.282
28523W        W  249  30.930   6.905   4.487
28524W        W  250  24.407  38.914  10.998
28525W        W  251  40.824  26.617   1.476
28526W        W  252  44.966  29.998   4.341
28527W        W  253  19.640  23.100   4.915
28528W        W  254  13.137   0.111  13.454
28529W        W  255  12.998   0.333   0.753
28530W        W  256  39.568  10.255  11.154
28531W        W  257  32.678  18.660  13.130
28532W        W  258  13.315   7.114   4.045
28533W        W  259  44.799  30.983  13.818
28534W        W  260  22.117  36.346  14.383
28535W        W  261   0.515  36.398   0.003
28536W        W  262  23.045  35.497  11.653
28537W        W  263  34.400  29.320   2.861
28538W        W  264  12.865  23.412   3.157
28539W        W  265   1.518   4.300   2.267
28540W        W  266  15.865  28.946  11.141
28541W        W  267  41.103  11.598  14.425
28542W        W  268  29.893  43.032   4.591
28543W        W  269  37.519   8.096  10.965
28544W        W  270  12.061   7.201  10.922
28545W        W  271  32.126   2.920   2.212
28546W        W  272  13.754  40.532   0.599
28547W        W  273  29.718  28.659  13.726
28548W        W  274  35.995  36.339  10.712
28549W        W  275  28.425  19.259  10.366
28550W        W  276  13.176   9.100   4.308
28551W        W  277  32.460  20.008   1.187
28552W        W  278   2.908   9.691   0.913
28553W        W  279  43.208   1.658  13.417
28554W        W  280   5.360  24.215  13.660
28555W        W  281  21.413   9.706  13.846
28556W        W  282   7.632   5.336  10.564
28557W        W  283  34.255  41.058  11.983
28558W        W  284  39.573  12.662  11.987
28559W        W  285  31.959  13.472  13.533
28560W        W  286  41.616  37.394  12.855
28561W        W  287  10.403  22.021  12.354
28562W        W  288  28.480  34.071   0.223
28563W        W  289  35.339  25.415   0.416
28564W        W  290  44.475  37.797   2.202
28565W        W  291  38.643  43.133   4.233
28566W        W  292  24.623  29.151  14.928
28567W        W  293  16.621  43.141  12.482
28568W        W  294  20.621   3.287   2.726
28569W        W  295  14.667  19.305   0.768
28570W        W  296  21.083  32.364  14.988
28571W        W  297  34.600  14.749   3.693
28572W        W  298   0.038   0.749  11.154
28573W        W  299  31.894  24.680   0.926
28574W        W  300  30.035   6.273  10.535
28575W        W  301  18.670   7.215  10.315
28576W        W  302   7.378  39.654   3.706
28577W        W  303  11.592  40.021   1.283
28578W        W  304  39.829  22.912  14.944
28579W        W  305  16.060  20.049  14.469
28580W        W  306  14.218   6.188  13.984
28581W        W  307  19.832  20.583   2.146
28582W        W  308  27.107  20.125  13.413
28583W        W  309   9.146  25.150  10.618
28584W        W  310  23.057  35.567  13.295
28585W        W  311  12.372  35.984  12.407
28586W        W  312  29.015  43.568   3.669
28587W        W  313  13.648  43.956   3.231
28588W        W  314  14.627  13.697   3.230
28589W        W  315  13.982  26.004   1.348
28590W        W  316  35.492  36.591   0.659
28591W        W  317  43.532  26.867   2.551
28592W        W  318  38.859  17.618  13.465
28593W        W  319  16.190   5.749  13.911
28594W        W  320  27.046  21.116   2.407
28595W        W  321  40.392   0.044  13.479
28596W        W  322  35.016  31.414   0.242
28597W        W  323  21.760  23.262   3.050
28598W        W  324  44.432  25.052  11.678
28599W        W  325  15.056   9.601  11.178
28600W        W  326  21.903  44.919   3.829
28601W        W  327  30.192  33.015   3.469
28602W        W  328  10.239  16.245   2.039
28603W        W  329   6.845   2.392  12.834
28604W        W  330  26.638  15.282   0.960
28605W        W  331   9.727  26.273  14.478
28606W        W  332   0.644  20.415   1.039
28607W        W  333  26.916  21.763  11.734
28608W        W  334  25.706  33.864  12.418
28609W        W  335  33.111  20.247   0.410
28610W        W  336  44.336  43.055   4.021
28611W        W  337  38.870  11.082  12.487
28612W        W  338  18.204  18.621  10.611
28613W        W  339   9.619  33.121   0.317
28614W        W  340  30.899  39.588   2.312
28615W        W  341  37.532  26.991  10.980
28616W        W  342   5.601  21.610  13.340
28617W        W  343  44.451  14.356   0.409
28618W        W  344  17.929  31.903   0.540
28619W        W  345  17.486  16.542   2.885
28620W        W  346   8.325  13.873   2.449
28621W        W  347  25.645  17.021  12.143
28622W        W  348  25.570  37.895   4.200
28623W        W  349  30.598  24.538   4.620
28624W        W  350  21.617   6.860   5.039
28625W        W  351  21.789  10.745   2.699
28626W        W  352  23.941  34.050   0.952
28627W        W  353  36.770   6.669  14.508
28628W        W  354   0.672  39.342   4.106
28629W        W  355  23.954  30.948  14.048
28630W        W  356   3.869  41.349   1.742
28631W        W  357  14.618  37.794  12.995
28632W        W  358  12.873  35.562   4.586
28633W        W  359  25.898  12.318  12.915
28634W        W  360   9.864   0.948  13.011
28635W        W  361  22.616  14.164   4.707
28636W        W  362   2.779  37.634   4.180
28637W        W  363  26.721  37.316  10.894
28638W        W  364  18.093   7.157   2.628
28639W        W  365  31.377  21.993   3.308
28640W        W  366   7.339  28.551  10.709
28641W        W  367  37.958  38.812  10.627
28642W        W  368  41.449  43.959  10.900
28643W        W  369   9.198  36.540  11.666
28644W        W  370   5.395   0.278   2.699
28645W        W  371  35.471   2.010   2.340
28646W        W  372  21.538   7.226   3.753
28647W        W  373  10.838  22.786   1.971
28648W        W  374  38.468  13.203  14.543
28649W        W  375  28.744  40.943  12.557
28650W        W  376   3.453  36.396  11.254
28651W        W  377   6.785  32.502  11.896
28652W        W  378  10.155  12.658   2.562
28653W        W  379  32.472  40.993   0.001
28654W        W  380  28.011  22.292  13.890
28655W        W  381  11.243  14.673  12.473
28656W        W  382  15.604  10.889  12.981
28657W        W  383  39.469  13.918   5.004
28658W        W  384   9.398   4.862   4.475
28659W        W  385  43.984   4.550   1.855
28660W        W  386  23.162  44.383   1.388
28661W        W  387   8.922  44.661  13.095
28662W        W  388  41.048  14.766  14.425
28663W        W  389  29.648  27.228   3.767
28664W        W  390  15.818  11.669  12.528
28665W        W  391  34.868  23.539   1.661
28666W        W  392  28.565  28.068  10.769
28667W        W  393  19.089  14.606  11.655
28668W        W  394  23.037  41.045  13.086
28669W        W  395  30.031  43.975  14.514
28670W        W  396  28.945  30.447   1.885
28671W        W  397  24.272  11.498  12.541
28672W        W  398  37.807  37.185  13.556
28673W        W  399  23.378  30.393   4.742
28674W        W  400   4.696   9.364  11.518
28675W        W  401  35.811  10.850   2.460
28676W        W  402   3.302   6.450  12.837
28677W        W  403  16.670  30.488   1.002
28678W        W  404  23.857   5.174   4.779
28679W        W  405   3.692  43.750   0.926
28680W        W  406  27.122  40.879  14.782
28681W        W  407   3.656  20.943  14.062
28682W        W  408   7.212  12.800   4.159
28683W        W  409   8.828  11.788  14.319
28684W        W  410  15.226   1.781  11.271
28685W        W  411  22.082  13.350  11.995
28686W        W  412   9.708  24.626  13.624
28687W        W  413   7.714  28.535  11.978
28688W        W  414  44.524   2.476  13.061
28689W        W  415  39.397   4.520   0.940
28690W        W  416  29.152  35.052   4.707
28691W        W  417  17.204  29.607   2.015
28692W        W  418  43.928  17.134   0.250
28693W        W  419  19.791  19.627  13.937
28694W        W  420   1.757   5.607  11.687
28695W        W  421  26.629  34.983  12.318
28696W        W  422  27.584  31.952  11.333
28697W        W  423  29.437  31.970  11.565
28698W        W  424   4.256   1.766  13.375
28699W        W  425  17.992  33.120   2.580
28700W        W  426  31.360  33.984   1.311
28701W        W  427  27.493  22.736  11.042
28702W        W  428  20.050  23.237  11.739
28703W        W  429  27.884  32.592   4.239
28704W        W  430  16.526  12.308  11.430
28705W        W  431  23.217  16.336  14.965
28706W        W  432   0.843  33.386  12.805
28707W        W  433  12.314  43.553   4.301
28708W        W  434  24.103  27.592  10.561
28709W        W  435   8.076  40.802   1.154
28710W        W  436   0.539  35.354   4.312
28711W        W  437  40.343  18.795  12.873
28712W        W  438  44.792  39.288  14.459
28713W        W  439  40.832  20.603   1.357
28714W        W  440  37.037  29.497  13.545
28715W        W  441  43.833   2.765  11.519
28716W        W  442  35.040  26.947   3.239
28717W        W  443  40.316  26.588  14.178
28718W        W  444  10.596  30.548  13.997
28719W        W  445  28.407  27.419   1.923
28720W        W  446  27.731   9.660  12.369
28721W        W  447  26.179  18.688  13.378
28722W        W  448  16.843  41.466  11.560
28723W        W  449  38.575  26.018  12.933
28724W        W  450  12.720   8.785  14.666
28725W        W  451  29.935  26.129   0.028
28726W        W  452  19.482  30.459   1.099
28727W        W  453  18.294  40.494   0.982
28728W        W  454   4.389   6.631   0.767
28729W        W  455   9.327  27.730  14.796
28730W        W  456   4.653  41.723  12.904
28731W        W  457   6.514  29.506   0.936
28732W        W  458  21.690   8.564   4.769
28733W        W  459   7.277  26.763   4.560
28734W        W  460  13.692  10.868  12.115
28735W        W  461  10.907   3.112  14.928
28736W        W  462  33.142   6.368   0.166
28737W        W  463  40.052   1.283  13.768
28738W        W  464  11.774   1.998  13.378
28739W        W  465  34.572  41.588   4.362
28740W        W  466   9.581  14.011  13.376
28741W        W  467  31.921  43.165  12.010
28742W        W  468  35.571   4.322   0.807
28743W        W  469  23.790  18.652  13.515
28744W        W  470  24.300  12.555  11.015
28745W        W  471   5.949  33.061  11.119
28746W        W  472  31.021   8.904   5.052
28747W        W  473  34.529   8.792  14.810
28748W        W  474   0.295  19.466  13.836
28749W        W  475   2.760  14.745   3.083
28750W        W  476  39.353  36.374   3.250
28751W        W  477  40.579   2.132   3.696
28752W        W  478   1.047  19.649  13.583
28753W        W  479   6.857  22.513  11.593
28754W        W  480  14.528  14.925   4.144
28755W        W  481  21.634  38.001   1.320
28756W        W  482  41.793  44.048  13.344
28757W        W  483  10.901  33.445   4.143
28758W        W  484  33.631  24.370   4.291
28759W        W  485  36.371   9.489   0.938
28760W        W  486  29.672   7.575  11.159
28761W        W  487   9.204  32.133  12.001
28762W        W  488  25.697  40.556   4.804
28763W        W  489  12.288   6.224   0.902
28764W        W  490  20.639   3.408  11.538
28765W        W  491  35.798  19.398   1.643
28766W        W  492  40.888  28.725   2.241
28767W        W  493  19.553   5.908   1.877
28768W        W  494  35.155  37.389  10.356
28769W        W  495   0.334   9.662  14.836
28770W        W  496  19.268  40.061  14.875
28771W        W  497  10.144  35.603  11.579
28772W        W  498  18.719   2.199   3.299
28773W        W  499   7.316  38.873   2.071
28774W        W  500  21.972   0.707  14.556
28775W        W  501  16.290  42.747   1.888
28776W        W  502   2.676  29.890   1.251
28777W        W  503  19.570   4.780  14.788
28778W        W  504  40.308  13.691  13.941
28779W        W  505  20.681  22.158  14.961
28780W        W  506  23.530  35.643  11.653
28781W        W  507  16.389  31.151   4.322
28782W        W  508   9.432  21.670  12.333
28783W        W  509   0.347  20.519  12.347
28784W        W  510  24.320  26.586   5.407
28785W        W  511  19.286  32.162   4.246
28786W        W  512   2.544  37.851   3.611
28787W        W  513  37.216  23.203  13.503
28788W        W  514   0.269  26.681  11.522
28789W        W  515  44.923  30.000  11.133
28790W        W  516  42.614   8.706  10.321
28791W        W  517  30.711  32.853  12.200
28792W        W  518  16.647   7.679   2.753
28793W        W  519  24.389  21.640   3.617
28794W        W  520  18.106  24.982  12.689
28795W        W  521  30.761   5.433   2.888
28796W        W  522  11.943  11.195   4.373
28797W        W  523  30.672  33.621  12.819
28798W        W  524  17.728  27.571  12.800
28799W        W  525   4.287  18.004   4.384
28800W        W  526  31.639  33.952   1.760
28801W        W  527  15.572  37.445   4.840
28802W        W  528  10.434  32.218  11.723
28803W        W  529  33.002  12.622   4.813
28804W        W  530  22.277   6.884   0.740
28805W        W  531  11.258  39.379  13.733
28806W        W  532  32.568  44.203  11.022
28807W        W  533  20.686  14.137   0.352
28808W        W  534  26.535  19.769  11.464
28809W        W  535   8.431  35.321   5.468
28810W        W  536  30.228  38.570  13.872
28811W        W  537  13.200  44.700  10.245
28812W        W  538  36.915   5.239  14.560
28813W        W  539   4.983  25.615   0.440
28814W        W  540  31.629  37.396   2.871
28815W        W  541  31.850   8.610  14.383
28816W        W  542  36.516  30.873  14.581
28817W        W  543   9.700  35.728   0.609
28818W        W  544  15.867   1.423  12.688
28819W        W  545  23.360  18.235   2.717
28820W        W  546  43.317  20.300  11.630
28821W        W  547   1.758   1.240   0.420
28822W        W  548  27.169  37.740   1.231
28823W        W  549   8.116  36.811   1.314
28824W        W  550  38.931   1.212   0.499
28825W        W  551   5.679  28.099   3.708
28826W        W  552  14.336  38.827   4.609
28827W        W  553   1.252  35.809  13.980
28828W        W  554  15.524  41.453  12.966
28829W        W  555  36.315  42.905   3.208
28830W        W  556   6.244  27.448   4.582
28831W        W  557  11.594   6.392   3.460
28832W        W  558  10.811  31.183   1.330
28833W        W  559  20.752  13.140   2.108
28834W        W  560  32.558  44.434   1.213
28835W        W  561   9.158   5.296   4.603
28836W        W  562  10.914   5.627   4.296
28837W        W  563   5.887  41.244   1.413
28838W        W  564  30.323  40.534  11.150
28839W        W  565  38.591   6.817   3.890
28840W        W  566  34.541  39.398   3.948
28841W        W  567  11.085   2.766   4.737
28842W        W  568   9.630  15.850  11.035
28843W        W  569  25.703  15.301   0.817
28844W        W  570  39.357   4.477   1.476
28845W        W  571  42.892  35.145   3.251
28846W        W  572  28.946  39.308  12.902
28847W        W  573  34.963  19.019  14.853
28848W        W  574   7.726  28.688  10.387
28849W        W  575  10.887   0.865  13.371
28850W        W  576  25.593   1.612  14.407
28851W        W  577  42.431  33.111   4.589
28852W        W  578  29.711  30.369  10.718
28853W        W  579  13.284  33.207   4.529
28854W        W  580  44.394  25.703   2.682
28855W        W  581  10.277  23.944   1.760
28856W        W  582  12.546  11.317   3.668
28857W        W  583  30.999  26.987  10.161
28858W        W  584   5.320  19.073   3.355
28859W        W  585  11.422  18.376   1.400
28860W        W  586  21.628  22.135   0.450
28861W        W  587  43.025   6.064   2.618
28862W        W  588  34.229   6.162   2.132
28863W        W  589  30.141   8.355  11.565
28864W        W  590  43.840  34.979   4.639
28865W        W  591   9.606   0.042   3.149
28866W        W  592   6.360  20.522  14.070
28867W        W  593  15.285  16.922  11.891
28868W        W  594  17.246  19.017  13.195
28869W        W  595   8.256  27.799  14.756
28870W        W  596  28.982   2.751   4.680
28871W        W  597  16.909  35.035   3.086
28872W        W  598  36.728  34.451  12.628
28873W        W  599   2.360   6.702  11.982
28874W        W  600  28.512  27.939  11.244
28875W        W  601  42.973  34.142  12.958
28876W        W  602   5.565  10.136   3.990
28877W        W  603  14.744  43.942  13.455
28878W        W  604  11.193   5.511  13.362
28879W        W  605  34.091  10.779   4.717
28880W        W  606  18.278   8.596   0.363
28881W        W  607   8.933  37.210   1.347
28882W        W  608  14.339  14.293   0.773
28883W        W  609   0.877  23.664  11.550
28884W        W  610  41.003   2.422   3.701
28885W        W  611  36.377  18.626   4.339
28886W        W  612   8.489  20.681  12.293
28887W        W  613  31.475  42.018  10.241
28888W        W  614  42.507  42.355   2.942
28889W        W  615   6.265  16.152   2.219
28890W        W  616   3.164  13.897  10.724
28891W        W  617  39.378  35.257   3.164
28892W        W  618  43.938  44.165  13.995
28893W        W  619  35.145  23.100  14.485
28894W        W  620  41.913  42.893  10.560
28895W        W  621  18.611  43.006  11.177
28896W        W  622  34.065  40.981   0.558
28897W        W  623  30.347  24.118  10.608
28898W        W  624  25.289  29.971   1.824
28899W        W  625   4.137  14.568   3.301
28900W        W  626  21.583   2.383  11.574
28901W        W  627  31.469   9.834  12.870
28902W        W  628  14.626   3.441   2.603
28903W        W  629  14.817  26.608  13.501
28904W        W  630  42.686  27.837   3.722
28905W        W  631  11.882   9.203   3.388
28906W        W  632  40.566   7.867   2.828
28907W        W  633  13.347   0.352  10.749
28908W        W  634  16.097  34.509   4.566
28909W        W  635   2.951  27.906  11.627
28910W        W  636  31.916  39.608  12.916
28911W        W  637  42.709  25.394   2.119
28912W        W  638   2.290  40.875  13.043
28913W        W  639  27.053  26.274   2.745
28914W        W  640  24.687  26.932  11.527
28915W        W  641  28.477  23.207   0.506
28916W        W  642   2.805  13.940  13.053
28917W        W  643  12.123  37.127  10.423
28918W        W  644   1.689  40.366  12.434
28919W        W  645  36.564  38.066   2.808
28920W        W  646  11.656  40.764  11.436
28921W        W  647  43.490  24.185  13.378
28922W        W  648  17.217   4.746   4.714
28923W        W  649  15.729  19.669  10.693
28924W        W  650  44.987  37.862   3.753
28925W        W  651  41.516  31.204   3.801
28926W        W  652  28.054  27.195  12.638
28927W        W  653  14.856  22.200  10.430
28928W        W  654  29.057   5.013   2.031
28929W        W  655  38.775  34.659  14.060
28930W        W  656  22.021  43.946  10.730
28931W        W  657   1.067  16.652  14.300
28932W        W  658  17.022  29.575   3.851
28933W        W  659   4.860  34.895  11.670
28934W        W  660  11.625  43.529   1.650
28935W        W  661   9.260  32.694  10.227
28936W        W  662  39.301  39.343  11.668
28937W        W  663  44.550  25.791  11.104
28938W        W  664  29.730   7.353  14.741
28939W        W  665   3.964   5.162  14.896
28940W        W  666   3.875  38.021   1.317
28941W        W  667  11.250  44.424   0.975
28942W        W  668  39.216  26.387   2.660
28943W        W  669  37.114  38.121   2.743
28944W        W  670  40.106  13.193  13.859
28945W        W  671  15.239   9.789  10.742
28946W        W  672  12.308  24.102   1.687
28947W        W  673  14.099   9.533   5.079
28948W        W  674  24.685   3.807  14.038
28949W        W  675  26.001   2.735  12.487
28950W        W  676  10.068  32.138   3.303
28951W        W  677   1.544   5.225  10.819
28952W        W  678  38.481  14.052   3.386
28953W        W  679  33.942  18.292   1.749
28954W        W  680  20.329   3.731   1.919
28955W        W  681  25.712   7.888   2.469
28956W        W  682  29.674  37.179  12.578
28957W        W  683  38.980  22.970  12.800
28958W        W  684  40.036  34.554  11.529
28959W        W  685  38.422  22.999   0.902
28960W        W  686   7.262  43.042   0.372
28961W        W  687  44.912  15.405  10.652
28962W        W  688  21.129  29.919   0.816
28963W        W  689  13.412  39.435  11.133
28964W        W  690  23.369  33.738  11.589
28965W        W  691  43.545   6.280   1.899
28966W        W  692  38.037   2.416   3.844
28967W        W  693  31.249   9.217   4.686
28968W        W  694  37.232   4.544   3.723
28969W        W  695   3.201   9.088   0.322
28970W        W  696   4.813  30.417   0.917
28971W        W  697  23.721  31.513  12.542
28972W        W  698  15.160  20.657   0.802
28973W        W  699   0.938  40.094   3.856
28974W        W  700  37.641  23.733  12.010
28975W        W  701  20.000  23.517   3.140
28976W        W  702  31.710   6.491   2.520
28977W        W  703  34.987  17.232   3.374
28978W        W  704  38.459  16.529   2.813
28979W        W  705  38.533   0.772  10.564
28980W        W  706  35.128   6.205   4.115
28981W        W  707  16.779  22.035  12.963
28982W        W  708  43.993  15.395  14.922
28983W        W  709  11.442  23.199  13.526
28984W        W  710  16.135   0.263   0.347
28985W        W  711  33.910  13.636   4.565
28986W        W  712  29.346  10.405   1.289
28987W        W  713   0.464  25.957  13.747
28988W        W  714  23.334  10.730   3.894
28989W        W  715  33.980   3.664  13.042
28990W        W  716  33.285  44.174  11.608
28991W        W  717   9.196   3.353  10.603
28992W        W  718  33.431  31.090  11.433
28993W        W  719  11.177   4.969  11.849
28994W        W  720   1.364  16.210  12.856
28995W        W  721   7.639   6.783   0.980
28996W        W  722  26.581  21.672   3.312
28997W        W  723   4.218   8.816  12.750
28998W        W  724   4.228  18.479   4.180
28999W        W  725  39.078  42.970   0.178
29000W        W  726  15.308  17.749   0.289
29001W        W  727  41.983  37.840  14.509
29002W        W  728  17.123   7.701  14.030
29003W        W  729  41.310  34.468   0.967
29004W        W  730  17.004  28.006  14.256
29005W        W  731  25.196  19.323  11.061
29006W        W  732   5.926  33.424   4.071
29007W        W  733  43.213  19.288  11.536
29008W        W  734   9.066  13.256  14.947
29009W        W  735  44.789   5.368  10.711
29010W        W  736   5.228   4.860  13.837
29011W        W  737  32.632   4.183   0.711
29012W        W  738   0.276  23.464  12.592
29013W        W  739  24.517  20.486   0.974
29014W        W  740   4.328  30.443   3.328
29015W        W  741  16.626  22.415  10.628
29016W        W  742  36.127  27.004  12.310
29017W        W  743  35.995  40.042  11.815
29018W        W  744  36.906  27.607  13.482
29019W        W  745   7.700   1.973  12.436
29020W        W  746   5.584   2.434   1.309
29021W        W  747  43.261  18.460  12.004
29022W        W  748  15.224   3.030  11.114
29023W        W  749  13.320  39.351   1.874
29024W        W  750  27.089  25.457  10.612
29025W        W  751  11.604  24.441   4.525
29026W        W  752  23.785  41.492  14.183
29027W        W  753  14.818   5.625  10.674
29028W        W  754  30.650  10.669   4.175
29029W        W  755  28.535   9.697   0.470
29030W        W  756   0.588  22.127   1.268
29031W        W  757  20.737   9.938   3.272
29032W        W  758   2.223   8.638  13.332
29033W        W  759   8.861  32.327   3.663
29034W        W  760  39.864  12.695  14.166
29035W        W  761  30.056  40.757  13.028
29036W        W  762  17.155  23.047  10.471
29037W        W  763  24.920   8.384  12.118
29038W        W  764  42.264  15.363  13.434
29039W        W  765  35.082  20.079   2.227
29040W        W  766  31.129  31.068   2.254
29041W        W  767  25.338  15.449   2.713
29042W        W  768  29.578  23.983   2.022
29043W        W  769  26.695  28.588  13.966
29044W        W  770  34.097   9.147   1.672
29045W        W  771  25.277  44.496  12.285
29046W        W  772  36.838  33.508   4.405
29047W        W  773  25.181   9.827   3.329
29048W        W  774   1.433   3.963   4.670
29049W        W  775  28.138  11.619   4.608
29050W        W  776   1.921   0.800   2.773
29051W        W  777  33.098  30.012   0.402
29052W        W  778  14.543  23.098  13.407
29053W        W  779  36.506  37.589   0.823
29054W        W  780  26.624  25.719   5.154
29055W        W  781   6.249   1.272   2.291
29056W        W  782  12.258  24.143   3.153
29057W        W  783  20.184  35.975  14.768
29058W        W  784   0.551   6.655  11.237
29059W        W  785  38.297   0.934   3.915
29060W        W  786  36.391   0.012   1.833
29061W        W  787  43.521  36.517  14.318
29062W        W  788  41.480  34.033  14.434
29063W        W  789  28.878  26.505  11.112
29064W        W  790  31.458  41.165   5.349
29065W        W  791   1.631  32.511   4.522
29066W        W  792  44.361  41.296   4.888
29067W        W  793  34.051   9.743  13.877
29068W        W  794  39.762   1.410  11.439
29069W        W  795  30.384  39.430  13.046
29070W        W  796  22.478  29.715   2.633
29071W        W  797  25.256  12.871   2.487
29072W        W  798  29.202  38.768   4.352
29073W        W  799  14.914  30.637   3.175
29074W        W  800  33.796  25.158   4.554
29075W        W  801  21.544   2.707   4.736
29076W        W  802  15.616  23.259  14.053
29077W        W  803  35.167  10.287   3.424
29078W        W  804  44.475   9.429   0.327
29079W        W  805  31.900  27.996  14.651
29080W        W  806  29.588  37.617   4.105
29081W        W  807  17.957  24.084  10.702
29082W        W  808   7.383   3.840   3.366
29083W        W  809   0.704  44.545  14.745
29084W        W  810   4.902  15.352   0.474
29085W        W  811  16.083  14.690  14.394
29086W        W  812  31.278  42.368   3.830
29087W        W  813  14.518  35.579  11.124
29088W        W  814  23.447  14.536   0.238
29089W        W  815  27.686  43.011   0.735
29090W        W  816  31.607  44.373   1.283
29091W        W  817  17.939  17.623   2.179
29092W        W  818   9.489  12.646  13.387
29093W        W  819  18.673   6.313  11.559
29094W        W  820  35.653  27.195  14.038
29095W        W  821  14.509   7.266   0.736
29096W        W  822  12.985   8.689   4.575
29097W        W  823  13.786  33.434  13.162
29098W        W  824  24.593  24.717  12.910
29099W        W  825  32.631  38.770  11.319
29100W        W  826  35.842  16.630   4.676
29101W        W  827  44.768  16.622   4.217
29102W        W  828  28.125  22.632  11.905
29103W        W  829  30.576  44.268   1.015
29104W        W  830  27.823   1.040   1.069
29105W        W  831  42.891  23.054  12.122
29106W        W  832   1.515  15.034   4.541
29107W        W  833   8.926  14.454  11.905
29108W        W  834  27.645   9.351  11.036
29109W        W  835  31.663  33.282  11.925
29110W        W  836   1.222   2.283   3.721
29111W        W  837  30.031  38.117   0.766
29112W        W  838  19.077   9.483  14.514
29113W        W  839   9.100   4.641  11.987
29114W        W  840   3.768  30.955   1.340
29115W        W  841  22.657  29.890   4.599
29116W        W  842   7.105  18.764  10.495
29117W        W  843   9.304  27.111   4.124
29118W        W  844  13.150  29.244  14.471
29119W        W  845  11.075  30.865  14.802
29120W        W  846  41.026  36.418   0.471
29121W        W  847  33.673   6.719   4.595
29122W        W  848   8.761  21.987  10.620
29123W        W  849  35.616  15.052  14.970
29124W        W  850  41.938  17.161   5.067
29125W        W  851  20.018   0.849  12.347
29126W        W  852  27.492  24.526  11.202
29127W        W  853   6.864  10.161  10.435
29128W        W  854   9.616   2.001  11.296
29129W        W  855  15.186   8.515  11.613
29130W        W  856  24.278   5.887   3.511
29131W        W  857  38.009  34.827  13.643
29132W        W  858   8.783  22.254   2.323
29133W        W  859  27.745  43.813   1.242
29134W        W  860  26.909  34.682   4.801
29135W        W  861   8.110   3.541  11.554
29136W        W  862  43.393  34.021  13.627
29137W        W  863  40.513  19.245  12.604
29138W        W  864  13.154   2.936   0.286
29139W        W  865  10.204  13.828  12.582
29140W        W  866   5.963  26.528   3.868
29141W        W  867  15.841  32.413   1.188
29142W        W  868  35.397  30.402  13.364
29143W        W  869  23.734  16.885  11.528
29144W        W  870  19.352   6.719  12.439
29145W        W  871   0.322  42.335   2.856
29146W        W  872  25.010  31.417   0.660
29147W        W  873  31.543  18.337  12.682
29148W        W  874   9.944  20.542  12.115
29149W        W  875  27.250  26.014  14.806
29150W        W  876  11.883  14.773   2.648
29151W        W  877   6.782  10.365   4.090
29152W        W  878  38.744  10.259  12.677
29153W        W  879  28.542  32.715   3.847
29154W        W  880  34.669   6.903  11.555
29155W        W  881  29.918  41.477  14.228
29156W        W  882  29.016  26.891  13.515
29157W        W  883  43.238  41.908   2.360
29158W        W  884  44.773   2.207  14.920
29159W        W  885  16.591   3.904  12.958
29160W        W  886  14.587  14.220   2.627
29161W        W  887  35.956   9.072   4.298
29162W        W  888   5.497  43.161   2.043
29163W        W  889  12.508   9.702  13.495
29164W        W  890   5.771  36.717  13.084
29165W        W  891  10.368  24.629  10.617
29166W        W  892  19.319  14.081   2.003
29167W        W  893  44.319  28.486  11.561
29168W        W  894  21.936  31.515  13.036
29169W        W  895  41.706  43.363  12.007
29170W        W  896   7.488  27.969   1.830
29171W        W  897  24.570  33.679  11.135
29172W        W  898   1.332  19.216   0.698
29173W        W  899   4.917  23.190   0.865
29174W        W  900  24.711  22.148  10.632
29175W        W  901  36.400  32.099   1.172
29176W        W  902   9.892  42.490  11.509
29177W        W  903  30.848  42.935  11.915
29178W        W  904  10.499  11.029  11.064
29179W        W  905  16.521  25.631   3.628
29180W        W  906  16.515  29.948  13.464
29181W        W  907  35.755  35.586   3.732
29182W        W  908   6.864  13.403  10.572
29183W        W  909  20.775  22.215   4.435
29184W        W  910  31.586  43.035  14.904
29185W        W  911   8.628   3.455  13.551
29186W        W  912  10.055  27.351  13.286
29187W        W  913  44.892   1.382  13.375
29188W        W  914   3.403  34.156  14.167
29189W        W  915  12.729   3.002   2.915
29190W        W  916  42.773  20.841   1.318
29191W        W  917  13.556  32.571   3.239
29192W        W  918  37.922   6.681  11.903
29193W        W  919  22.381  36.817  14.443
29194W        W  920  40.287  28.199  13.831
29195W        W  921  26.284  29.901  11.116
29196W        W  922  33.583   0.418   3.806
29197W        W  923  26.029  13.601   1.384
29198W        W  924  29.398  39.270   0.893
29199W        W  925  34.293  26.233   1.493
29200W        W  926   8.304  18.817  11.594
29201W        W  927  12.490  29.805  13.326
29202W        W  928  31.771   7.179  13.994
29203W        W  929  33.887  40.352   2.629
29204W        W  930  40.472  13.991  13.004
29205W        W  931   4.968   8.794   2.760
29206W        W  932  20.401   1.761   0.432
29207W        W  933  11.332   0.766  10.749
29208W        W  934  36.428   9.435  14.560
29209W        W  935   9.700  23.351   5.446
29210W        W  936  10.329   2.552  12.717
29211W        W  937  26.177   7.805   3.934
29212W        W  938  28.023  34.032  11.906
29213W        W  939  13.772   9.209  14.752
29214W        W  940  34.109  32.915   0.013
29215W        W  941  43.244  28.711   4.612
29216W        W  942  31.823   2.290   4.772
29217W        W  943   1.331  35.081   4.410
29218W        W  944   9.330  25.450  10.260
29219W        W  945  21.470  23.270   1.825
29220W        W  946   6.344  34.925   0.262
29221W        W  947  38.078   6.946  13.357
29222W        W  948   3.540   4.326  11.910
29223W        W  949  37.429  23.898   0.948
29224W        W  950  22.141   7.380  12.188
29225W        W  951  22.054  40.806   0.520
29226W        W  952  14.788  33.186   3.797
29227W        W  953  11.605  15.124  14.742
29228W        W  954   3.280  23.881   0.411
29229W        W  955  17.745  43.086  13.985
29230W        W  956   4.901  39.345   2.660
29231W        W  957   6.502  24.006  14.787
29232W        W  958  13.861   4.830   4.500
29233W        W  959  34.386   8.449   0.159
29234W        W  960  25.002  42.012  10.971
29235W        W  961  35.105  13.622   4.615
29236W        W  962  20.715   8.253  14.009
29237W        W  963   7.410   9.120  14.902
29238W        W  964  41.361   4.667  12.664
29239W        W  965  26.462  14.528   4.791
29240W        W  966  11.675  22.469   2.703
29241W        W  967   8.895  42.756  12.456
29242W        W  968  35.085  16.361  13.853
29243W        W  969  36.905   3.432  14.559
29244W        W  970  44.459  17.748  12.403
29245W        W  971   0.936  12.118  12.182
29246W        W  972  42.368  37.554  13.354
29247W        W  973  10.281  40.123   4.427
29248W        W  974  24.022  13.995   9.868
29249W        W  975  26.839  33.895   0.447
29250W        W  976  11.790  17.517   2.141
29251W        W  977  15.809   4.665   4.721
29252W        W  978  17.642  21.089  11.410
29253W        W  979  16.124   4.427  14.544
29254W        W  980  14.813  29.716  10.614
29255W        W  981  36.347  16.800  13.607
29256W        W  982   0.794  30.039   3.125
29257W        W  983  38.191  20.111   2.839
29258W        W  984   3.098  10.355   2.194
29259W        W  985  23.019   7.238   4.623
29260W        W  986  11.767  41.919  14.620
29261W        W  987   8.039  30.806  14.086
29262W        W  988  12.469  22.887   0.279
29263W        W  989  16.373  44.438  13.830
29264W        W  990  21.966   0.748  12.030
29265W        W  991  21.596  23.554   0.496
29266W        W  992  14.668  16.642   0.980
29267W        W  993  41.344  37.429  10.668
29268W        W  994   2.339   3.456  14.821
29269W        W  995   8.423  26.103  13.143
29270W        W  996  34.720  18.996   4.590
29271W        W  997   7.787   7.079  14.433
29272W        W  998  38.406   7.406   1.954
29273W        W  999  18.394  30.222   3.845
29274W        W 1000   8.706   1.092  12.613
29275W        W 1001  40.439  32.585   4.635
29276W        W 1002  17.846  22.140   4.218
29277W        W 1003  27.274  14.675  12.503
29278W        W 1004   7.904  17.694  10.920
29279W        W 1005  37.319  24.677  13.150
29280W        W 1006  18.130   7.147   0.645
29281W        W 1007   9.508   0.604  14.931
29282W        W 1008  31.874  25.701  14.874
29283W        W 1009  40.896   6.675   4.667
29284W        W 1010   1.366  34.893  11.213
29285W        W 1011   6.344  11.648  11.263
29286W        W 1012  32.404   5.910   0.261
29287W        W 1013  11.142  32.876   3.248
29288W        W 1014   3.026   2.756   0.874
29289W        W 1015   9.668  23.248  11.626
29290W        W 1016  42.300   5.655  12.488
29291W        W 1017  38.288  38.565   3.874
29292W        W 1018   8.911  27.619   3.969
29293W        W 1019  28.398  44.464  13.793
29294W        W 1020   2.782  38.566   0.490
29295W        W 1021  31.012  23.599  12.894
29296W        W 1022   6.796  33.792  11.854
29297W        W 1023  44.011  10.395  11.236
29298W        W 1024  39.136  21.607   4.084
29299W        W 1025  24.538  13.835   2.729
29300W        W 1026  38.438  32.094  10.887
29301W        W 1027  14.924  36.748   1.427
29302W        W 1028  43.991  16.781   1.584
29303W        W 1029  11.574  37.448  14.368
29304W        W 1030  12.219  28.635  11.414
29305W        W 1031  27.681   9.661  14.214
29306W        W 1032  14.626  33.013   0.848
29307W        W 1033  11.727   1.518   0.791
29308W        W 1034  28.146  19.721   4.102
29309W        W 1035  15.418   5.907   3.139
29310W        W 1036   5.814   9.097   2.273
29311W        W 1037  17.110  44.532   0.338
29312W        W 1038  26.202  35.432  13.817
29313W        W 1039   5.836   1.521  13.053
29314W        W 1040   6.988  39.182   2.884
29315W        W 1041  11.166  31.604  11.430
29316W        W 1042  25.675   0.835   4.213
29317W        W 1043   2.828  20.225  13.133
29318W        W 1044  26.987  27.660   0.792
29319W        W 1045  12.880  42.779   2.143
29320W        W 1046  28.173   3.420  11.230
29321W        W 1047  43.823  18.901   0.596
29322W        W 1048  29.647  31.662  12.141
29323W        W 1049  13.362   9.997   1.308
29324W        W 1050  23.365   7.696  14.742
29325W        W 1051  32.924   7.013   2.819
29326W        W 1052  11.683  39.035  10.282
29327W        W 1053  23.772  29.158  14.342
29328W        W 1054  33.099   7.834   2.693
29329W        W 1055  32.446   6.463  13.972
29330W        W 1056  36.185   7.315  10.961
29331W        W 1057  17.525  15.058  11.601
29332W        W 1058  23.716  15.754  13.799
29333W        W 1059  30.952   1.912  14.808
29334W        W 1060  13.320  42.915  13.463
29335W        W 1061  31.889  44.494   2.277
29336W        W 1062  43.074  16.043   2.964
29337W        W 1063  16.650   0.913  14.733
29338W        W 1064  16.334  25.112  13.847
29339W        W 1065  17.820   7.985   2.686
29340W        W 1066  37.687  27.485   0.836
29341W        W 1067  26.193  37.051   0.920
29342W        W 1068  25.045   2.203   0.500
29343W        W 1069   7.167  22.742   4.091
29344W        W 1070  20.455  36.538   2.506
29345W        W 1071  35.560  32.622   3.601
29346W        W 1072  37.436  24.918  14.967
29347W        W 1073  28.217  37.136  12.890
29348W        W 1074  37.426  41.719   3.368
29349W        W 1075   2.759  13.433  12.995
29350W        W 1076  28.954  44.661  13.386
29351W        W 1077  43.588  18.332  11.619
29352W        W 1078   4.210  28.682  14.821
29353W        W 1079  24.760  23.264  14.097
29354W        W 1080  24.219  11.242  11.603
29355W        W 1081   6.337  35.862  14.253
29356W        W 1082  39.808  16.782   2.741
29357W        W 1083  38.903  44.805  10.032
29358W        W 1084  43.550  22.068   1.332
29359W        W 1085   8.910  24.654   2.858
29360W        W 1086  14.282  33.513  13.019
29361W        W 1087  18.037   8.792  14.295
29362W        W 1088  34.935  11.871  14.100
29363W        W 1089  13.749  27.149   0.754
29364W        W 1090   9.437  28.981  11.588
29365W        W 1091  28.471  36.444   1.733
29366W        W 1092   0.428   3.927   0.737
29367W        W 1093  15.746   0.009   2.695
29368W        W 1094  36.080  19.009   4.149
29369W        W 1095  19.139  31.022   3.215
29370W        W 1096  15.723  22.203   4.892
29371W        W 1097  10.817   7.096   2.722
29372W        W 1098   1.028  11.573   4.027
29373W        W 1099  21.435  43.343   1.931
29374W        W 1100  22.814   1.793  12.546
29375W        W 1101   3.892  18.636  13.799
29376W        W 1102  34.211  42.405   9.634
29377W        W 1103  34.426  28.676   0.447
29378W        W 1104   5.606   1.029  14.331
29379W        W 1105   5.143  19.228  13.384
29380W        W 1106  29.945  13.637   1.811
29381W        W 1107  10.884   0.277  12.389
29382W        W 1108   5.371  23.223   2.684
29383W        W 1109  12.113  40.100   1.283
29384W        W 1110  16.437  27.063  11.963
29385W        W 1111  29.566   2.075   4.505
29386W        W 1112  16.560  15.774   2.805
29387W        W 1113  15.713   6.878  12.849
29388W        W 1114  13.292  43.223  13.058
29389W        W 1115  23.098  27.623   5.021
29390W        W 1116  12.182  32.014  12.095
29391W        W 1117  39.434  13.406   0.896
29392W        W 1118   7.574  38.205   4.164
29393W        W 1119   5.024  14.619   1.223
29394W        W 1120  25.407  35.655   3.262
29395W        W 1121  31.184   6.819   1.734
29396W        W 1122   1.229   9.553  12.942
29397W        W 1123  38.009  35.732  12.146
29398W        W 1124  27.733  27.021   2.296
29399W        W 1125  21.350  35.197   3.150
29400W        W 1126   0.482   4.859   3.428
29401W        W 1127   3.260  14.718   4.833
29402W        W 1128   5.352  20.705   2.728
29403W        W 1129  21.287  25.082  14.484
29404W        W 1130  13.619  27.898   1.649
29405W        W 1131  38.424  25.098  12.473
29406W        W 1132  23.930  15.255  13.996
29407W        W 1133  41.540   8.549  11.625
29408W        W 1134  27.476  27.341  13.411
29409W        W 1135   5.282   6.512  11.560
29410W        W 1136  17.107  12.480   0.235
29411W        W 1137  11.664   1.342   1.645
29412W        W 1138  35.858  21.984   1.915
29413W        W 1139   8.341  13.837  11.180
29414W        W 1140   3.923  10.440  11.153
29415W        W 1141  29.362  19.954   2.791
29416W        W 1142   2.234  12.779  12.007
29417W        W 1143  28.178  35.848   2.937
29418W        W 1144  34.982  24.482  14.033
29419W        W 1145  10.878  11.406  11.228
29420W        W 1146   6.353  25.707  11.556
29421W        W 1147   4.669  19.638  13.681
29422W        W 1148  26.193  37.609   3.345
29423W        W 1149  32.002  41.081   2.171
29424W        W 1150  28.120  40.309   4.234
29425W        W 1151  25.986   6.767   4.713
29426W        W 1152  19.517  31.724   1.220
29427W        W 1153  43.777  30.806   4.768
29428W        W 1154  15.235  16.410  14.648
29429W        W 1155  35.194  13.332  11.165
29430W        W 1156  31.867   4.217  11.255
29431W        W 1157  29.497  41.464   1.243
29432W        W 1158  24.447   8.682  10.773
29433W        W 1159  17.692  12.738   1.331
29434W        W 1160  29.316  42.103  10.710
29435W        W 1161  38.966  38.578  11.101
29436W        W 1162   3.324  13.306  12.478
29437W        W 1163  24.020  29.761   0.234
29438W        W 1164  38.365   6.285   3.439
29439W        W 1165  28.782  38.392   0.068
29440W        W 1166  24.081   7.886   4.027
29441W        W 1167  22.736  15.318   4.691
29442W        W 1168   2.550  27.938  11.980
29443W        W 1169   9.298  23.272  13.957
29444W        W 1170  34.467  33.942   0.757
29445W        W 1171  40.031   5.244  14.498
29446W        W 1172  43.030   2.434  14.257
29447W        W 1173  26.425  44.073   0.879
29448W        W 1174  11.817  10.258   3.887
29449W        W 1175  32.508  21.288  12.978
29450W        W 1176   3.354  39.301  13.104
29451W        W 1177   9.720  10.697  14.409
29452W        W 1178   4.537  15.668  13.742
29453W        W 1179  10.608  12.622  14.472
29454W        W 1180  23.247  25.764   1.249
29455W        W 1181  24.276  13.557  13.489
29456W        W 1182  27.136   1.879  11.573
29457W        W 1183   7.928  18.094  12.616
29458W        W 1184  15.096  20.801  12.439
29459W        W 1185  23.791   4.451   2.399
29460W        W 1186  27.396  40.441  12.464
29461W        W 1187  28.575  26.916   4.640
29462W        W 1188   4.743  10.958  10.837
29463W        W 1189  12.072  35.386   5.137
29464W        W 1190  16.583   8.169   3.737
29465W        W 1191  44.689  31.853   3.130
29466W        W 1192  25.234  43.059   0.801
29467W        W 1193  10.871  23.760  11.462
29468W        W 1194  13.151   0.634  13.308
29469W        W 1195   8.672  38.643  11.540
29470W        W 1196  43.274   5.298  13.733
29471W        W 1197  12.678   9.863  11.916
29472W        W 1198  32.696  43.554  14.108
29473W        W 1199  44.981   3.584   2.557
29474W        W 1200  39.393  39.359   4.754
29475W        W 1201  33.135   8.722   2.273
29476W        W 1202  29.010  16.256   0.764
29477W        W 1203   6.791  20.611   4.575
29478W        W 1204   6.641   6.753   3.375
29479W        W 1205  32.315   3.356  10.764
29480W        W 1206  14.511   2.479  13.451
29481W        W 1207  30.876  23.018   4.342
29482W        W 1208  31.981  26.409  10.630
29483W        W 1209   4.268  25.539  14.900
29484W        W 1210   4.064  40.209  11.161
29485W        W 1211  42.976  23.603  11.475
29486W        W 1212  36.086  24.869   4.140
29487W        W 1213  41.497  17.947   0.893
29488W        W 1214  43.311  31.041   4.630
29489W        W 1215  24.338  20.940  11.104
29490W        W 1216  43.217  17.249   1.958
29491W        W 1217  44.418   8.002   2.168
29492W        W 1218  33.236  42.064  11.170
29493W        W 1219  37.869  14.369  10.441
29494W        W 1220   1.530   1.860   3.834
29495W        W 1221  42.149  38.581  11.962
29496W        W 1222  29.419   4.357  11.034
29497W        W 1223  41.333  15.631   0.128
29498W        W 1224  22.082  10.007   2.628
29499W        W 1225  27.705  42.296  12.910
29500W        W 1226  24.060  10.510  12.106
29501W        W 1227   2.388   0.405  14.686
29502W        W 1228   4.009  14.386  13.503
29503W        W 1229  33.777  12.326   1.738
29504W        W 1230  19.587  39.271   3.663
29505W        W 1231   2.343   6.305   3.304
29506W        W 1232  32.636  10.240  12.857
29507W        W 1233  20.449  31.850  14.537
29508W        W 1234  30.081   9.888   0.916
29509W        W 1235  43.026  24.578   1.236
29510W        W 1236  18.589  41.496   0.068
29511W        W 1237  32.423  26.899  12.357
29512W        W 1238   3.192   7.422  10.748
29513W        W 1239  12.367  10.642  11.935
29514W        W 1240   0.038  29.176   1.838
29515W        W 1241  14.718  41.729   1.641
29516W        W 1242  12.132   4.252   0.531
29517W        W 1243   4.372  27.348   4.065
29518W        W 1244  13.918  39.406  11.147
29519W        W 1245   8.087  10.683   2.892
29520W        W 1246  16.187   4.964   2.789
29521W        W 1247  20.422  41.914   3.172
29522W        W 1248  44.470  29.216  11.220
29523W        W 1249  20.681  14.667  14.607
29524W        W 1250  14.336  26.549  10.523
29525W        W 1251  34.668  42.956  12.330
29526W        W 1252  22.779  19.022  13.969
29527W        W 1253   4.801  14.537   2.572
29528W        W 1254  35.186  41.104   2.175
29529W        W 1255  22.587   6.742  13.167
29530W        W 1256  38.898  42.417  12.381
29531W        W 1257   0.721  32.629  10.959
29532W        W 1258  33.397  25.795  14.801
29533W        W 1259  42.264  37.077  14.434
29534W        W 1260   2.487  12.868  12.437
29535W        W 1261  27.655   5.808  13.571
29536W        W 1262  10.123  28.619  14.774
29537W        W 1263   1.414   7.431  12.567
29538W        W 1264   9.824  32.734  12.402
29539W        W 1265  34.917  10.219  13.010
29540W        W 1266   0.855  16.191  14.212
29541W        W 1267   9.134  20.440  12.986
29542W        W 1268  12.204  36.411   4.582
29543W        W 1269  44.346  37.043  11.560
29544W        W 1270   3.386  40.539   3.873
29545W        W 1271  32.807  33.522  13.875
29546W        W 1272   3.816  19.952  12.527
29547W        W 1273  11.061   4.775  10.354
29548W        W 1274  13.152  39.380   1.386
29549W        W 1275   3.401  30.533  12.604
29550W        W 1276  26.627  11.051   0.298
29551W        W 1277  20.093   2.024   2.363
29552W        W 1278  26.742  25.177   3.702
29553W        W 1279  38.010   2.753  12.825
29554W        W 1280   1.362  24.972   4.214
29555W        W 1281  10.290  40.548  14.170
29556W        W 1282   3.273   6.345  13.702
29557W        W 1283  26.963  36.923  10.669
29558W        W 1284  26.153   5.311  10.755
29559W        W 1285  24.638  26.416  11.353
29560W        W 1286  29.963  43.808   3.337
29561W        W 1287  16.601  19.524   3.616
29562W        W 1288   6.030  27.735   2.173
29563W        W 1289   7.140  10.231   3.764
29564W        W 1290  19.050   7.694   3.332
29565W        W 1291  11.708  26.067   4.480
29566W        W 1292  31.011  37.437   4.148
29567W        W 1293  11.890  43.004  11.603
29568W        W 1294  39.870  42.882   5.070
29569W        W 1295  39.818  22.761  14.027
29570W        W 1296   7.453  21.171   4.577
29571W        W 1297  13.529  28.087  10.596
29572W        W 1298  14.484  13.725   0.068
29573W        W 1299  41.570  38.363   1.626
29574W        W 1300   6.578  24.667   2.320
29575W        W 1301  22.634  42.314  10.808
29576W        W 1302  35.130  18.273   3.080
29577W        W 1303   8.078  23.277   4.651
29578W        W 1304   8.432  29.891   0.746
29579W        W 1305  13.161  32.965   1.288
29580W        W 1306  22.144  18.457   0.822
29581W        W 1307   1.349   2.469  11.499
29582W        W 1308  37.328  13.278  13.020
29583W        W 1309   4.201  24.411   2.251
29584W        W 1310  13.350  31.954   1.171
29585W        W 1311  37.449  41.288   0.785
29586W        W 1312  37.475  15.859   3.632
29587W        W 1313  43.776  12.258   1.823
29588W        W 1314  36.073  20.686  14.904
29589W        W 1315  32.991  19.137  14.382
29590W        W 1316  10.449   9.912  12.621
29591W        W 1317  28.337  21.838   2.457
29592W        W 1318  12.267  44.725  10.527
29593W        W 1319  24.166  24.084  13.677
29594W        W 1320  25.632  39.480  12.596
29595W        W 1321  22.663  43.892   0.245
29596W        W 1322  18.018  38.418  11.453
29597W        W 1323  30.444  21.253   4.430
29598W        W 1324  30.402  40.958   3.178
29599W        W 1325   3.969  10.753   1.305
29600W        W 1326   3.346  22.449   2.174
29601W        W 1327   6.006  11.653  12.418
29602W        W 1328   6.955  33.079  13.123
29603W        W 1329  32.165   2.266  12.209
29604W        W 1330   1.324  27.643  13.337
29605W        W 1331  44.896  43.729   1.986
29606W        W 1332  22.236  27.716   0.356
29607W        W 1333  39.343  18.385  12.314
29608W        W 1334   0.418  23.150   3.148
29609W        W 1335  33.926  13.691  13.305
29610W        W 1336  42.362  23.930   3.333
29611W        W 1337  36.453  30.845  11.524
29612W        W 1338  35.701   6.313   3.096
29613W        W 1339  29.397  31.103   0.248
29614W        W 1340  10.736  19.719   0.347
29615W        W 1341   9.807  20.226  13.984
29616W        W 1342   7.358  42.480   4.839
29617W        W 1343   1.642  30.532  13.160
29618W        W 1344  30.148   4.812   0.968
29619W        W 1345  13.604  43.841   1.933
29620W        W 1346  20.499  11.778  12.832
29621W        W 1347  35.435  11.247  14.580
29622W        W 1348  42.975   2.544  13.689
29623W        W 1349   7.673   3.358  10.714
29624W        W 1350  32.900  29.965  12.150
29625W        W 1351  30.050  11.720   4.822
29626W        W 1352   6.417  38.660  11.651
29627W        W 1353  36.544  44.923  13.222
29628W        W 1354  17.650   9.832   3.267
29629W        W 1355  13.169  42.642  11.686
29630W        W 1356  13.768   0.834   0.236
29631W        W 1357  13.587  14.270   2.892
29632W        W 1358  21.422  27.978  11.076
29633W        W 1359  38.098  10.362   0.404
29634W        W 1360   3.947   7.470  14.514
29635W        W 1361   2.817  10.618  14.848
29636W        W 1362  36.571  31.071  14.032
29637W        W 1363  22.691   3.414  10.824
29638W        W 1364  16.642   8.389  14.320
29639W        W 1365   6.733   0.075  13.473
29640W        W 1366   3.031  31.150  14.924
29641W        W 1367   5.241   0.147   3.731
29642W        W 1368  21.664  40.565   2.179
29643W        W 1369  41.851  16.727   0.027
29644W        W 1370  43.124  40.586   3.799
29645W        W 1371  22.621  35.390   0.292
29646W        W 1372  23.719  23.564   4.818
29647W        W 1373  38.280  26.583   4.204
29648W        W 1374  10.854  18.568  13.567
29649W        W 1375  42.469  36.075  14.379
29650W        W 1376   6.076  16.519  12.936
29651W        W 1377   2.960  41.678  11.147
29652W        W 1378  36.492  17.140   3.243
29653W        W 1379  30.603  42.568  10.657
29654W        W 1380  16.711  34.794  12.767
29655W        W 1381  37.328  39.352   3.294
29656W        W 1382   2.786  36.403  14.314
29657W        W 1383  22.769   9.198  12.154
29658W        W 1384  14.077  16.712   0.424
29659W        W 1385  21.537  32.429  13.123
29660W        W 1386  20.479   1.381   2.864
29661W        W 1387  43.439  39.543  14.898
29662W        W 1388   1.208  36.632   1.340
29663W        W 1389  25.553  30.227   2.861
29664W        W 1390  17.051  19.417  13.475
29665W        W 1391   1.204  43.519   3.118
29666W        W 1392  16.552  41.137  12.374
29667W        W 1393  41.874  17.641   0.380
29668W        W 1394   1.460  23.873  12.635
29669W        W 1395  38.603  23.152  10.391
29670W        W 1396  37.874  24.472   4.797
29671W        W 1397  10.260   9.710   0.745
29672W        W 1398  14.727   3.323   3.610
29673W        W 1399  30.736   5.284  13.392
29674W        W 1400   5.929  42.349   4.153
29675W        W 1401   0.692  19.554   2.194
29676W        W 1402  30.709  10.715  10.627
29677W        W 1403  33.425  12.262   2.699
29678W        W 1404   6.353  29.326  13.876
29679W        W 1405   2.509  12.654  14.526
29680W        W 1406  28.269   0.255  13.892
29681W        W 1407  43.746   0.012   1.822
29682W        W 1408  20.201  13.123   4.854
29683W        W 1409  17.173  38.978  11.433
29684W        W 1410  21.783  33.774  12.427
29685W        W 1411  27.579  36.412   3.843
29686W        W 1412  34.334   0.279   3.162
29687W        W 1413  15.521  40.833  10.647
29688W        W 1414  30.771   5.838  11.117
29689W        W 1415  32.667  27.946   2.248
29690W        W 1416  11.785   0.184   1.181
29691W        W 1417  31.527  19.979  11.610
29692W        W 1418   6.860   8.140   1.756
29693W        W 1419  29.077  35.424  12.578
29694W        W 1420  33.396   8.581  13.463
29695W        W 1421  31.484  19.568  13.338
29696W        W 1422  22.261  34.866  12.352
29697W        W 1423  13.718  20.730  13.017
29698W        W 1424   2.015   7.764  11.556
29699W        W 1425  43.905   2.259   2.898
29700W        W 1426   9.053  32.529   2.312
29701W        W 1427   9.674  10.271   4.531
29702W        W 1428   8.188  12.855   1.737
29703W        W 1429   4.748  13.051   2.672
29704W        W 1430   0.786  10.276   0.965
29705W        W 1431  38.576  25.770   2.323
29706W        W 1432  36.067   7.739   4.580
29707W        W 1433  28.271  41.002   3.714
29708W        W 1434  16.683  11.804   3.637
29709W        W 1435  15.314  18.737   3.454
29710W        W 1436   0.773  41.535   3.706
29711W        W 1437   4.877  30.207   3.781
29712W        W 1438  40.570  14.487   1.854
29713W        W 1439  43.428  35.622  11.624
29714W        W 1440  14.136  25.307   0.935
29715W        W 1441  40.013  15.452  12.837
29716W        W 1442   3.659  13.717   3.523
29717W        W 1443  41.173  31.406  10.992
29718W        W 1444  26.791  28.618   0.489
29719W        W 1445  39.524  44.473  13.360
29720W        W 1446  39.043  38.589  13.402
29721W        W 1447  13.214  10.455   3.379
29722W        W 1448  21.557  21.154   4.620
29723W        W 1449  21.637  19.751   1.839
29724W        W 1450   3.820  22.944   0.792
29725W        W 1451  31.414  26.620   3.225
29726W        W 1452  35.479  24.456   5.100
29727W        W 1453   1.870   6.192  12.919
29728W        W 1454  19.673  18.098   2.220
29729W        W 1455  11.820  18.619   4.179
29730W        W 1456  29.903  21.486  12.222
29731W        W 1457  35.620   3.430   2.605
29732W        W 1458  26.752  25.850  12.256
29733W        W 1459  27.976  29.083  13.907
29734W        W 1460  17.713  43.589  13.937
29735W        W 1461   1.920  19.921   0.786
29736W        W 1462  41.216  44.177  11.667
29737W        W 1463  16.571  22.306  11.609
29738W        W 1464  38.045  32.957  11.944
29739W        W 1465  35.359  22.627  14.276
29740W        W 1466  41.966  38.514   1.319
29741W        W 1467  33.407  37.338   2.320
29742W        W 1468   1.860  24.006   2.956
29743W        W 1469  32.663   6.753  13.238
29744W        W 1470  41.016  43.736  11.142
29745W        W 1471  42.444  31.965  14.751
29746W        W 1472  11.304   5.642  10.498
29747W        W 1473   9.703  19.411   1.716
29748W        W 1474  21.824  31.214  13.436
29749W        W 1475  42.237   3.017   3.887
29750W        W 1476  43.916  19.276   3.862
29751W        W 1477   2.244  35.641  13.861
29752W        W 1478  32.471  10.987  12.067
29753W        W 1479  24.958   0.736  14.328
29754W        W 1480   7.368  11.733  12.597
29755W        W 1481   6.821  36.837   0.924
29756W        W 1482   2.529  26.763   0.814
29757W        W 1483  30.778  10.448  11.076
29758W        W 1484  36.889  36.872   0.065
29759W        W 1485  19.953  34.085  13.814
29760W        W 1486   2.257   7.751   1.369
29761W        W 1487   9.917  15.209   1.379
29762W        W 1488  33.074  11.333   1.331
29763W        W 1489  44.320   6.469  11.644
29764W        W 1490  22.226   3.533   4.227
29765W        W 1491  37.184   9.959  12.797
29766W        W 1492   9.858  36.237   5.359
29767W        W 1493  44.785  12.225   0.201
29768W        W 1494  34.996  36.421   1.436
29769W        W 1495  41.950  39.074   1.465
29770W        W 1496  12.623  32.837  10.783
29771W        W 1497  44.509  35.474   0.696
29772W        W 1498  11.209  28.119  12.156
29773W        W 1499  14.566  26.569   5.015
29774W        W 1500   3.264  27.104  10.365
29775W        W 1501   4.023   2.328   1.596
29776W        W 1502  17.670  35.140   2.756
29777W        W 1503  12.487  14.132  13.462
29778W        W 1504  36.557   8.398   0.974
29779W        W 1505   8.791  13.309   1.275
29780W        W 1506  40.112   1.554  11.841
29781W        W 1507  42.703  32.995   1.382
29782W        W 1508  28.491  43.308   2.393
29783W        W 1509  36.920  13.171  11.700
29784W        W 1510  21.574  16.800  13.061
29785W        W 1511  30.328  18.630  14.804
29786W        W 1512   1.499  25.436   2.016
29787W        W 1513  37.995  44.123   4.461
29788W        W 1514  21.116  20.262   0.705
29789W        W 1515   5.397  18.330   0.037
29790W        W 1516  25.227   0.245   4.598
29791W        W 1517  13.280  25.243  14.575
29792W        W 1518  27.509  37.283  13.992
29793W        W 1519  20.865  42.501  14.447
29794W        W 1520   6.445  34.173  11.015
29795W        W 1521  26.727   1.292  13.112
29796W        W 1522  23.907   4.929  10.731
29797W        W 1523  15.049  12.261   0.442
29798W        W 1524  20.935  11.617   2.983
29799W        W 1525  40.185  20.047  10.555
29800W        W 1526  19.117  39.037  12.597
29801W        W 1527  40.553  10.203   0.436
29802W        W 1528   2.799  21.298   3.168
29803W        W 1529  21.950  30.238   2.168
29804W        W 1530  42.505   4.360  14.863
29805W        W 1531  38.068  33.489   0.111
29806W        W 1532  35.193  33.217  11.148
29807W        W 1533  41.576  10.599   4.068
29808W        W 1534  40.242  15.901   4.151
29809W        W 1535   4.189  32.765   3.857
29810W        W 1536  32.483  36.571   2.177
29811W        W 1537  20.311   8.158  10.810
29812W        W 1538  13.839   9.842   1.413
29813W        W 1539  20.537   3.552  12.028
29814W        W 1540  22.082  31.201   0.454
29815W        W 1541  21.956  34.418  12.919
29816W        W 1542   4.996  39.109  13.463
29817W        W 1543  41.632  21.551  12.140
29818W        W 1544  16.112  15.097   3.694
29819W        W 1545  25.870  39.838   1.489
29820W        W 1546  15.808  16.674  14.504
29821W        W 1547  12.290   5.184   0.756
29822W        W 1548  31.487  34.323  13.412
29823W        W 1549  13.265  19.063  10.648
29824W        W 1550   2.472  20.212   4.005
29825W        W 1551  35.964  25.261  11.122
29826W        W 1552  21.095  19.526   3.797
29827W        W 1553  27.375  31.512  14.167
29828W        W 1554  21.051  20.139  11.583
29829W        W 1555  43.235  24.512  14.435
29830W        W 1556  44.822  30.114   2.969
29831W        W 1557  20.052  42.331  10.586
29832W        W 1558  19.661  28.600   1.817
29833W        W 1559  36.090  25.135   3.211
29834W        W 1560  39.801  41.246   4.077
29835W        W 1561  29.317  29.447   0.246
29836W        W 1562  23.192  36.017  11.568
29837W        W 1563  13.196  24.487  13.192
29838W        W 1564  13.304  21.557   2.829
29839W        W 1565  23.531   1.311  10.985
29840W        W 1566  40.821   4.865  10.399
29841W        W 1567  43.108  32.105   4.031
29842W        W 1568  21.252  14.858   2.393
29843W        W 1569  14.287  24.697   4.821
29844W        W 1570  14.403   3.283  11.455
29845W        W 1571  18.580  21.800  14.583
29846W        W 1572  43.807  37.980  10.725
29847W        W 1573  43.569  12.270   0.049
29848W        W 1574   0.284  16.736   4.164
29849W        W 1575  15.220  23.307   3.117
29850W        W 1576   9.982  17.700   0.814
29851W        W 1577  34.367  30.712  11.527
29852W        W 1578  23.581  13.020  10.097
29853W        W 1579  22.016   3.810   3.822
29854W        W 1580  37.970  43.443  12.437
29855W        W 1581  24.701  43.315   2.690
29856W        W 1582   3.749  16.689   3.287
29857W        W 1583  37.144  32.035  14.617
29858W        W 1584   5.900  18.194  12.437
29859W        W 1585  18.820  11.147   1.030
29860W        W 1586  44.892  38.513  11.948
29861W        W 1587  14.678  11.785   3.760
29862W        W 1588  11.654  31.848  14.459
29863W        W 1589  10.216  36.547   4.089
29864W        W 1590   2.156  16.142   0.051
29865W        W 1591   5.555  11.017   1.300
29866W        W 1592  14.758  37.866  10.694
29867W        W 1593  20.103  13.381   3.362
29868W        W 1594  25.680  32.362  13.405
29869W        W 1595  21.195  35.785   4.189
29870W        W 1596   6.506  34.918   2.755
29871W        W 1597  24.237  37.066  14.085
29872W        W 1598  35.072  40.279  12.502
29873W        W 1599  31.437  31.883  12.445
29874W        W 1600  21.386  30.589   2.814
29875W        W 1601   2.446  44.289  14.835
29876W        W 1602  34.343  14.641  14.772
29877W        W 1603  25.616  29.358  14.694
29878W        W 1604   3.214  22.225   0.144
29879W        W 1605   3.954  38.272  11.925
29880W        W 1606  38.293  29.760   1.481
29881W        W 1607  42.993   8.643   0.402
29882W        W 1608  21.285  40.560   3.660
29883W        W 1609   1.026  18.075  12.601
29884W        W 1610   1.731  39.066  11.996
29885W        W 1611  26.143  19.911   2.900
29886W        W 1612  15.725   7.215   0.320
29887W        W 1613   9.841  19.495   0.673
29888W        W 1614  30.977  16.324   2.783
29889W        W 1615  32.950  19.976  10.537
29890W        W 1616  33.942  43.353   4.152
29891W        W 1617   2.541  31.166  14.841
29892W        W 1618  29.073   6.613  14.723
29893W        W 1619   0.485  18.589   4.569
29894W        W 1620  44.100  40.415  11.516
29895W        W 1621  41.033  20.693  12.936
29896W        W 1622  27.122  27.240  14.376
29897W        W 1623   0.382  29.203   2.640
29898W        W 1624  22.030  32.678  11.179
29899W        W 1625  31.172  34.590   2.438
29900W        W 1626  23.546  24.081  14.826
29901W        W 1627  34.116   0.935   0.062
29902W        W 1628  42.186  17.043   3.613
29903W        W 1629  38.314  39.897   4.577
29904W        W 1630   0.058  20.207   1.773
29905W        W 1631  24.452  44.346  14.877
29906W        W 1632   1.185  12.224   0.742
29907W        W 1633   4.947  22.764  11.111
29908W        W 1634  42.337  29.000   2.304
29909W        W 1635   5.425  42.896  14.215
29910W        W 1636  31.674  43.866   1.279
29911W        W 1637  35.158  33.367   4.091
29912W        W 1638  26.386  30.569   2.395
29913W        W 1639  40.155   8.269   4.037
29914W        W 1640  40.121  23.669   1.959
29915W        W 1641  24.066  34.862   2.925
29916W        W 1642  31.133  29.664   3.635
29917W        W 1643  25.112  44.416   2.703
29918W        W 1644   2.628  40.478   0.468
29919W        W 1645  36.814  27.409   4.091
29920W        W 1646  20.096  34.918  11.940
29921W        W 1647   6.312  38.052   0.841
29922W        W 1648  38.054  24.014   1.287
29923W        W 1649  39.889  16.679   3.669
29924W        W 1650   2.166   8.898   4.257
29925W        W 1651  43.638  30.392   0.602
29926W        W 1652  30.397  11.682  13.503
29927W        W 1653  41.994  44.259   3.701
29928W        W 1654   7.828  39.959   1.800
29929W        W 1655  15.683  18.103   0.385
29930W        W 1656  22.604   6.748   4.337
29931W        W 1657  39.050  23.183  13.756
29932W        W 1658   0.442  27.283  14.315
29933W        W 1659   4.433   3.303  13.798
29934W        W 1660   7.657  44.754  13.508
29935W        W 1661   4.881  21.461   1.364
29936W        W 1662  22.783  19.316   4.807
29937W        W 1663  30.476   5.384  11.855
29938W        W 1664  13.688  35.606  12.556
29939W        W 1665  35.549  20.024  14.049
29940W        W 1666  42.181  10.691  13.048
29941W        W 1667  23.534  15.123  11.055
29942W        W 1668   5.265  16.773  13.656
29943W        W 1669  32.460  20.233   2.827
29944W        W 1670  42.976  37.929  14.983
29945W        W 1671  11.666   0.010   1.967
29946W        W 1672  37.740  24.748  13.487
29947W        W 1673   6.660  31.606   4.178
29948W        W 1674  18.130   3.381  13.408
29949W        W 1675  12.898   9.619  14.295
29950W        W 1676  41.378   5.389   2.049
29951W        W 1677  16.295  18.791  14.922
29952W        W 1678  20.516  25.880   1.302
29953W        W 1679  16.087   6.490  12.085
29954W        W 1680  30.815  15.865  14.429
29955W        W 1681  37.775  21.043  12.458
29956W        W 1682  27.801  11.888  12.448
29957W        W 1683  32.942   0.445  12.802
29958W        W 1684   3.407  39.498  13.955
29959W        W 1685  24.250  10.468   0.428
29960W        W 1686  19.026  40.874   4.295
29961W        W 1687  30.126  19.675   0.400
29962W        W 1688  21.167   8.202  13.771
29963W        W 1689  42.450  36.107   0.785
29964W        W 1690  35.594  32.910   1.834
29965W        W 1691  43.710  15.168   4.245
29966W        W 1692  40.590  30.499   2.770
29967W        W 1693   2.281  14.845   0.896
29968W        W 1694  21.679  23.080  11.982
29969W        W 1695   6.962  19.630   0.807
29970W        W 1696  41.212  24.041   0.350
29971W        W 1697   7.231   5.137   4.532
29972W        W 1698  24.197  30.627   1.269
29973W        W 1699  28.620   3.613   1.320
29974W        W 1700   2.754  15.219  14.907
29975W        W 1701  35.985   1.394  12.875
29976W        W 1702  24.894  14.131   3.040
29977W        W 1703   1.874  41.082   2.355
29978W        W 1704  44.981  28.093  11.958
29979W        W 1705   6.290  36.258  12.529
29980W        W 1706  10.168  32.574   4.872
29981W        W 1707   0.371   2.620   4.526
29982W        W 1708  41.197  42.118  14.498
29983W        W 1709  14.288  21.917   1.222
29984W        W 1710  39.833  18.299  14.362
29985W        W 1711  21.998  42.346  10.568
29986W        W 1712  27.691   0.437   1.770
29987W        W 1713  35.185  16.564  11.485
29988W        W 1714   2.276  39.133   5.039
29989W        W 1715  20.436  37.885   0.951
29990W        W 1716  20.093  23.173   3.538
29991W        W 1717   4.912  22.650   3.662
29992W        W 1718   4.873  17.059   1.141
29993W        W 1719  26.122  29.178   1.372
29994W        W 1720  42.907  41.002  11.221
29995W        W 1721  11.402  21.133  13.912
29996W        W 1722  43.218  18.182   1.818
29997W        W 1723   1.167  15.221  11.161
29998W        W 1724  28.559  35.468   3.773
29999W        W 1725  11.685  11.895  14.996
30000W        W 1726   3.828  17.670   0.626
30001W        W 1727  35.343  21.722  12.577
30002W        W 1728  37.082  20.663   3.848
30003W        W 1729  14.104  17.318   2.154
30004W        W 1730   5.184  36.474   0.838
30005W        W 1731  37.124  23.024   3.047
30006W        W 1732   1.939  23.235  11.084
30007W        W 1733  29.051  39.316   2.551
30008W        W 1734  40.789  31.089   0.878
30009W        W 1735  20.232  21.641   3.875
30010W        W 1736  17.618  27.699  13.351
30011W        W 1737  10.290  34.075  11.626
30012W        W 1738   6.900   7.891  14.058
30013W        W 1739   9.170  32.158  11.142
30014W        W 1740  31.518  30.518   1.946
30015W        W 1741  27.103  33.865  13.902
30016W        W 1742  22.974  30.520  11.999
30017W        W 1743  21.698  31.098   3.408
30018W        W 1744   3.880  26.269  13.395
30019W        W 1745   2.533  23.214  11.997
30020W        W 1746  21.640  21.148  11.186
30021W        W 1747  44.937  41.979  12.798
30022W        W 1748  35.626  44.700  14.703
30023W        W 1749  16.863  27.154  14.982
30024W        W 1750  21.732  32.493   3.697
30025W        W 1751  35.926  27.472   4.232
30026W        W 1752   0.542   6.828  13.771
30027W        W 1753  26.693  36.547   2.996
30028W        W 1754  33.481  26.836   3.653
30029W        W 1755  25.995  43.723   3.914
30030W        W 1756  24.455  21.017  12.814
30031W        W 1757  17.167  26.028  11.088
30032W        W 1758  15.732  40.428  13.908
30033W        W 1759  44.912   2.558   3.348
30034W        W 1760  28.702  17.673  12.876
30035W        W 1761  31.613  14.982   1.851
30036W        W 1762  11.861  43.016   2.443
30037W        W 1763  26.157   9.136   5.048
30038W        W 1764  29.441  43.898   2.683
30039W        W 1765  36.362  40.301  14.349
30040W        W 1766  34.050  22.721  11.932
30041W        W 1767  16.184  32.500   1.956
30042W        W 1768  13.347  12.310  14.201
30043W        W 1769  32.147   1.059  14.951
30044W        W 1770  42.093  34.885   1.706
30045W        W 1771  29.413  42.362  11.820
30046W        W 1772  31.623  26.212   0.363
30047W        W 1773  20.550  10.875   3.170
30048W        W 1774  10.262  34.483  13.483
30049W        W 1775  27.139  23.354  10.218
30050W        W 1776  18.302  13.218  12.467
30051W        W 1777  41.259  31.811   0.359
30052W        W 1778   1.709  15.191  12.552
30053W        W 1779  38.780  26.700   0.784
30054W        W 1780   1.380  17.814  10.426
30055W        W 1781  34.962  21.245   3.562
30056W        W 1782   8.927  10.777   2.532
30057W        W 1783  19.333  25.975   2.364
30058W        W 1784  27.664  35.602   0.870
30059W        W 1785  26.965  40.285  12.186
30060W        W 1786  11.880   5.709  13.685
30061W        W 1787  31.444  42.240  11.631
30062W        W 1788  21.551  29.604   3.227
30063W        W 1789  28.065  38.239  10.517
30064W        W 1790  23.449  16.386  14.434
30065W        W 1791  11.346   2.295   4.707
30066W        W 1792  43.492  34.178  11.082
30067W        W 1793   2.911  12.158   0.958
30068W        W 1794  38.944  31.402  14.751
30069W        W 1795  12.528  35.839   0.604
30070W        W 1796   5.375   9.630   2.689
30071W        W 1797  39.285  21.696  12.483
30072W        W 1798  15.577  36.328   0.001
30073W        W 1799  26.662  31.620   0.386
30074W        W 1800   1.002  41.127   1.297
30075W        W 1801  28.848   5.156  11.847
30076W        W 1802  38.408  24.059  12.376
30077W        W 1803  30.167  25.123   4.021
30078W        W 1804  29.289  12.609   2.069
30079W        W 1805  13.202  33.311   3.520
30080W        W 1806   7.173  13.704   4.227
30081W        W 1807   1.485  42.027   0.736
30082W        W 1808  21.723  42.075   2.182
30083W        W 1809  42.448  40.124   1.817
30084W        W 1810  32.678  21.202   3.705
30085W        W 1811  36.538  13.349   3.610
30086W        W 1812  19.182   5.998  11.855
30087W        W 1813  14.058  34.309   3.652
30088W        W 1814  18.711  42.982  13.165
30089W        W 1815  31.967  28.423   1.660
30090W        W 1816  17.797  33.882   0.692
30091W        W 1817  32.596  12.067   0.139
30092W        W 1818  13.659  36.332   1.819
30093W        W 1819  19.188   4.208   1.379
30094W        W 1820  37.661  25.226   1.452
30095W        W 1821   9.256  12.589   4.676
30096W        W 1822  16.578   9.774  13.063
30097W        W 1823  16.032  38.156  13.978
30098W        W 1824  24.884  42.926   3.608
30099W        W 1825  44.701  19.080  12.900
30100W        W 1826   9.764   1.638  14.873
30101W        W 1827  26.003  21.345  14.486
30102W        W 1828   2.471  17.755   3.547
30103W        W 1829  13.875  44.299   1.947
30104W        W 1830  31.498   1.785   0.877
30105W        W 1831  24.539  33.431  13.390
30106W        W 1832  19.242  12.680  11.638
30107W        W 1833   4.866  24.283  11.051
30108W        W 1834  39.028   5.764  13.922
30109W        W 1835   6.742  13.662   2.781
30110W        W 1836   3.164  36.477   2.777
30111W        W 1837  31.423  28.849  14.726
30112W        W 1838  40.318  26.185  10.777
30113W        W 1839   1.954  14.184  13.507
30114W        W 1840  36.230  22.443   0.009
30115W        W 1841  14.404  19.509   2.820
30116W        W 1842  37.050  34.112   0.265
30117W        W 1843  15.801  22.045   2.256
30118W        W 1844  36.344   5.560   3.391
30119W        W 1845  10.234  13.376  13.302
30120W        W 1846  21.744  15.200   4.473
30121W        W 1847  14.389  38.495  12.787
30122W        W 1848  11.303  41.004   0.043
30123W        W 1849  17.786  33.460  13.824
30124W        W 1850  19.303   5.182  13.273
30125W        W 1851   4.419  16.249  11.170
30126W        W 1852  14.233  22.119  11.125
30127W        W 1853  11.707   2.931   2.727
30128W        W 1854   0.834  35.819  13.375
30129W        W 1855  30.712  17.590   1.456
30130W        W 1856  17.595   0.843   3.186
30131W        W 1857  27.000  22.605  11.495
30132W        W 1858  24.611   7.868   4.217
30133W        W 1859  23.763  44.835  12.982
30134W        W 1860  40.104  34.513   3.179
30135W        W 1861  19.053  33.559  12.431
30136W        W 1862  19.194  13.752  14.369
30137W        W 1863  22.816  11.857   4.600
30138W        W 1864  31.394  28.533   1.382
30139W        W 1865  29.223   6.887  13.945
30140W        W 1866  35.472   5.409  13.012
30141W        W 1867  16.184   5.343   1.385
30142W        W 1868  27.443   6.735  14.543
30143W        W 1869   4.311  10.812  11.138
30144W        W 1870  35.053  38.304   3.163
30145W        W 1871  17.252  42.433  14.369
30146W        W 1872  25.614  13.414  14.498
30147W        W 1873  17.315   0.976  11.648
30148W        W 1874  24.236   7.421  13.158
30149W        W 1875  27.695  17.240   4.357
30150W        W 1876  22.247  25.560   3.207
30151W        W 1877  28.024  17.243   1.806
30152W        W 1878   4.846   1.753  10.755
30153W        W 1879  35.913  22.876  14.967
30154W        W 1880   1.585  15.681   1.469
30155W        W 1881   7.911   6.669  13.396
30156W        W 1882  13.570  25.978  11.115
30157W        W 1883  30.693   9.941  11.108
30158W        W 1884  23.127  44.270   3.658
30159W        W 1885  12.624  10.254  10.470
30160W        W 1886  33.073   7.458   0.281
30161W        W 1887   9.013  21.468   0.358
30162W        W 1888  27.396  16.915   4.090
30163W        W 1889   0.026  27.683  12.574
30164W        W 1890  38.064  23.686   2.807
30165W        W 1891  31.156  10.938  11.590
30166W        W 1892  15.630  20.886  14.913
30167W        W 1893  23.616  37.597  12.186
30168W        W 1894  33.061  36.047  11.399
30169W        W 1895  24.023  29.099   2.306
30170W        W 1896  19.291   3.333  12.431
30171W        W 1897  15.294  12.586   3.669
30172W        W 1898  36.821  18.856   0.860
30173W        W 1899  17.356   1.648   1.737
30174W        W 1900  18.724  28.963  10.150
30175W        W 1901  22.978  31.177  11.413
30176W        W 1902  43.058  15.536   4.845
30177W        W 1903  35.390   8.746   2.937
30178W        W 1904  19.255  17.276   4.825
30179W        W 1905  27.673  25.316   4.556
30180W        W 1906  29.975  16.170  11.608
30181W        W 1907   5.311  32.892   0.254
30182W        W 1908  24.003   9.456  12.577
30183W        W 1909  23.832  39.006   1.002
30184W        W 1910  39.327   0.492   2.807
30185W        W 1911  38.032   5.143  10.517
30186W        W 1912   6.442   1.815   4.691
30187W        W 1913   0.450  12.853   4.108
30188W        W 1914   2.690  14.357   2.274
30189W        W 1915  36.446  43.803  13.834
30190W        W 1916  16.625  40.816  14.938
30191W        W 1917  36.070  17.717   4.565
30192W        W 1918  24.207   0.926   3.890
30193W        W 1919  22.204  40.034   4.436
30194W        W 1920   0.175  28.189   1.016
30195W        W 1921  33.318  25.705   5.026
30196W        W 1922  25.700  35.835  11.989
30197W        W 1923  22.032   0.748   3.599
30198W        W 1924  10.186  12.391   4.073
30199W        W 1925  31.057   3.407   1.055
30200W        W 1926   2.668   4.415   0.164
30201W        W 1927   7.187  24.748   3.270
30202W        W 1928  10.802  19.329  12.594
30203W        W 1929  17.282  15.740  11.332
30204W        W 1930  22.093   1.163  11.612
30205W        W 1931  13.078  17.052   1.366
30206W        W 1932   5.319  14.581  11.123
30207W        W 1933  42.175  31.169   2.768
30208W        W 1934   9.532  35.241   1.880
30209W        W 1935  27.768  36.076  12.017
30210W        W 1936  17.538   2.486   3.666
30211W        W 1937  21.954  17.004  13.692
30212W        W 1938  34.222   9.109   2.765
30213W        W 1939   1.037  25.261   2.409
30214W        W 1940  42.796  27.155   4.660
30215W        W 1941  14.803  30.584  11.421
30216W        W 1942  21.249  19.967  12.043
30217W        W 1943  40.026  13.066  14.508
30218W        W 1944  19.522  16.800   4.973
30219W        W 1945   7.201  37.873  11.238
30220W        W 1946  34.983   8.415  12.169
30221W        W 1947   5.792  23.088   2.063
30222W        W 1948   4.396  31.848  13.925
30223W        W 1949  31.903  12.887   2.486
30224W        W 1950  11.335  34.536   4.195
30225W        W 1951  25.303  33.070   2.107
30226W        W 1952  44.811  13.532  12.066
30227W        W 1953  16.786  23.041  12.071
30228W        W 1954  20.794  28.673  10.881
30229W        W 1955   7.153  26.576  12.079
30230W        W 1956  10.165  26.156   1.644
30231W        W 1957  24.016  25.724   2.776
30232W        W 1958  28.000   0.458  13.496
30233W        W 1959  12.491  44.999   4.410
30234W        W 1960  24.045  12.118  11.912
30235W        W 1961  27.556   5.944   2.327
30236W        W 1962   2.267  31.858   2.214
30237W        W 1963  42.874  32.540  11.151
30238W        W 1964  29.894   8.271  11.123
30239W        W 1965  19.935   9.093   0.482
30240W        W 1966  16.816  41.862   4.769
30241W        W 1967   8.947  36.857   3.234
30242W        W 1968  16.287  40.772   3.862
30243W        W 1969  34.332  29.558   1.380
30244W        W 1970  39.043  11.686   0.358
30245W        W 1971   5.729  38.272  12.900
30246W        W 1972  17.373  44.369  13.811
30247W        W 1973  17.106  32.699   3.779
30248W        W 1974  23.181  18.622   2.384
30249W        W 1975  38.309  19.791  14.238
30250W        W 1976  22.112  40.722  11.483
30251W        W 1977  44.089  26.967  14.938
30252W        W 1978   7.762  37.335   3.617
30253W        W 1979   0.778  39.628  12.008
30254W        W 1980  41.483  15.763   2.267
30255W        W 1981  21.955  22.703  12.497
30256W        W 1982  19.216  41.902   4.259
30257W        W 1983  22.653  31.397   4.660
30258W        W 1984   0.611  40.572   4.787
30259W        W 1985  12.574  43.417   2.783
30260W        W 1986   2.433  41.479  14.754
30261W        W 1987   1.526  23.663   1.754
30262W        W 1988  40.888  12.270  13.470
30263W        W 1989  43.172  14.562   3.788
30264W        W 1990  35.525  36.460   2.229
30265W        W 1991  17.773  42.528  10.537
30266W        W 1992  10.533  36.618   3.349
30267W        W 1993   6.890  11.760  12.402
30268W        W 1994  32.775  44.972  13.111
30269W        W 1995  35.882  28.527  12.627
30270W        W 1996  12.144  30.528  13.752
30271W        W 1997  37.301  21.122  12.222
30272W        W 1998   5.992  33.985  11.199
30273W        W 1999  44.095  37.511   2.442
30274W        W 2000   3.587   8.431  10.743
30275W        W 2001  11.815   4.512   1.724
30276W        W 2002  40.068  15.563   4.497
30277W        W 2003   2.204   9.156  11.668
30278W        W 2004   0.491  30.766  14.279
30279W        W 2005  41.916   0.472  14.901
30280W        W 2006  33.000  21.132   0.917
30281W        W 2007  30.392   4.431   2.670
30282W        W 2008  12.933  34.076   4.891
30283W        W 2009  29.368  37.619  12.516
30284W        W 2010  18.977  21.613  13.658
30285W        W 2011  37.334  30.881   1.849
30286W        W 2012  34.924  23.006  14.014
30287W        W 2013  26.442   2.210   0.539
30288W        W 2014  24.953   1.418  13.817
30289W        W 2015  23.641   1.745  14.005
30290W        W 2016   4.296  12.823   2.535
30291W        W 2017  31.938  15.794   1.700
30292W        W 2018  26.960  37.397  14.093
30293W        W 2019  32.142  21.620  14.415
30294W        W 2020  28.659  21.331   0.360
30295W        W 2021   0.230  16.333   1.415
30296W        W 2022   9.673  44.554   3.276
30297W        W 2023  33.298  19.097  11.977
30298W        W 2024  11.564  39.881   4.151
30299W        W 2025  11.562  12.148   2.708
30300W        W 2026  38.531  21.151  14.608
30301W        W 2027  37.599  11.241   4.874
30302W        W 2028   1.234  13.028  11.118
30303W        W 2029  21.162   8.589  14.944
30304W        W 2030   5.432  10.691   3.291
30305W        W 2031  43.519  34.358  12.925
30306W        W 2032  40.097   5.009   2.798
30307W        W 2033  36.340  16.121  11.891
30308W        W 2034  20.355  37.230  11.117
30309W        W 2035  32.644  37.832  11.248
30310W        W 2036  19.267  19.326   3.925
30311W        W 2037  12.190   2.347  10.748
30312W        W 2038  19.274  28.706  11.691
30313W        W 2039   4.700  44.812  14.501
30314W        W 2040  30.018   6.247  12.926
30315W        W 2041  11.116  38.932  13.493
30316W        W 2042  17.032   1.451  14.537
30317W        W 2043  22.555  33.624   4.356
30318W        W 2044   9.366  10.359   3.591
30319W        W 2045  43.777  23.919   4.539
30320W        W 2046  40.865  11.814  14.839
30321W        W 2047  29.576  30.840  14.831
30322W        W 2048  24.103  27.024   2.222
30323W        W 2049  29.932  40.949   1.873
30324W        W 2050  44.925  13.639  14.290
30325W        W 2051  34.394  10.742   2.216
30326W        W 2052  24.453  12.086  12.612
30327W        W 2053  15.254  22.020   4.672
30328W        W 2054   4.467   8.924   2.711
30329W        W 2055  24.154  42.489  11.228
30330W        W 2056  36.204   6.932   0.843
30331W        W 2057  22.787  43.699  12.425
30332W        W 2058  35.496  33.061   1.320
30333W        W 2059  30.359  35.002   3.572
30334W        W 2060  10.710  31.325   2.676
30335W        W 2061  18.770  37.532  12.552
30336W        W 2062  36.102  39.053   1.901
30337W        W 2063  30.875  18.749   4.214
30338W        W 2064   4.892  44.514   4.673
30339W        W 2065  31.336  15.724  13.020
30340W        W 2066  39.641  23.171   0.915
30341W        W 2067  44.975  27.118   4.681
30342W        W 2068   1.232  22.983   2.732
30343W        W 2069  24.032  25.953   3.247
30344W        W 2070   2.494  39.378  12.538
30345W        W 2071  16.119  14.582   3.776
30346W        W 2072  41.837   5.514   4.116
30347W        W 2073  35.088  32.418   3.611
30348W        W 2074  35.493  37.786  13.056
30349W        W 2075  28.561   3.392  10.877
30350W        W 2076   9.972   2.556   1.745
30351W        W 2077  27.345   5.310   3.665
30352W        W 2078   7.861  25.440  12.594
30353W        W 2079  29.932  28.977  12.156
30354W        W 2080  42.687  13.182  13.787
30355W        W 2081  20.230   1.305  13.133
30356W        W 2082  39.845  20.743   3.069
30357W        W 2083  41.523  19.026  12.508
30358W        W 2084   6.685  35.005   2.266
30359W        W 2085  44.541  29.019   4.813
30360W        W 2086  16.874  11.604   2.591
30361W        W 2087  38.478  38.735   2.037
30362W        W 2088  31.424   7.790  10.649
30363W        W 2089  16.136  32.304   3.636
30364W        W 2090  40.882  41.966   1.217
30365W        W 2091   8.223  33.758  12.178
30366W        W 2092  13.457   6.730   2.900
30367W        W 2093  28.768   5.253  10.515
30368W        W 2094  44.887  25.184  11.472
30369W        W 2095  43.994   9.611   2.716
30370W        W 2096   6.894  20.641   0.406
30371W        W 2097  43.656   4.383   1.461
30372W        W 2098  10.815  18.273  11.591
30373W        W 2099   3.340  11.322  12.088
30374W        W 2100  40.709   2.384  14.742
30375W        W 2101  35.549  21.066  13.695
30376W        W 2102  19.503  42.437  13.620
30377W        W 2103  31.397  21.607   3.706
30378W        W 2104  12.610  11.158  10.696
30379W        W 2105  43.237  29.527   0.327
30380W        W 2106  43.339  18.947  12.194
30381W        W 2107  30.174  42.281  10.680
30382W        W 2108   8.244  38.316  11.608
30383W        W 2109  22.780   5.802   3.790
30384W        W 2110  36.877  30.390  13.627
30385W        W 2111  36.372  23.774  14.870
30386W        W 2112  15.195  29.389   0.743
30387W        W 2113   3.249  12.109   0.288
30388W        W 2114  21.126  31.842   1.748
30389W        W 2115  11.673  37.161  14.854
30390W        W 2116  14.297  24.685  14.566
30391W        W 2117  44.066  38.861  12.854
30392W        W 2118  26.262   5.728   0.155
30393W        W 2119   9.264  19.158  13.341
30394W        W 2120   0.327  38.557  12.197
30395W        W 2121  13.628  19.511   2.276
30396W        W 2122  11.122  21.261  12.356
30397W        W 2123  30.424  44.270  10.656
30398W        W 2124  17.909  33.990  13.084
30399W        W 2125   2.767  13.846   2.380
30400W        W 2126  35.439  31.415  12.370
30401W        W 2127  21.623  16.261  13.047
30402W        W 2128  17.647  16.885   0.479
30403W        W 2129   7.860  11.086  10.963
30404W        W 2130  15.118  13.173  14.571
30405W        W 2131  35.062  16.793  12.985
30406W        W 2132   9.353  28.487   2.899
30407W        W 2133  34.614  38.638   3.192
30408W        W 2134   9.535   7.337  13.810
30409W        W 2135  18.677  13.401   3.280
30410W        W 2136  34.481  44.587  11.562
30411W        W 2137  11.292  40.100   3.703
30412W        W 2138  15.258  38.372  10.135
30413W        W 2139  36.395  39.435  11.072
30414W        W 2140  12.196  36.693   2.669
30415W        W 2141  22.267  31.892  12.890
30416W        W 2142  36.390  13.613  14.445
30417W        W 2143   6.959  18.576   2.715
30418W        W 2144  39.954  38.026  11.669
30419W        W 2145   4.491  20.799   3.215
30420W        W 2146  27.159  15.022   2.855
30421W        W 2147  18.392  43.037   1.279
30422W        W 2148  15.247  27.157   1.646
30423W        W 2149   1.044  35.716  12.919
30424W        W 2150  31.583  22.370  14.607
30425W        W 2151  36.918  10.677  14.941
30426W        W 2152   7.690  14.047   0.813
30427W        W 2153  26.773  36.847   4.312
30428W        W 2154   0.301  40.601  13.745
30429W        W 2155  29.483  21.639  13.044
30430W        W 2156  11.853   7.921   2.326
30431W        W 2157  36.237  44.120  14.796
30432W        W 2158  32.485  40.853   0.482
30433W        W 2159  37.956  28.454  13.583
30434W        W 2160   7.489   2.905   3.321
30435W        W 2161  22.513  27.082   1.346
30436W        W 2162  27.138   7.240   1.364
30437W        W 2163  37.410  44.319  14.003
30438W        W 2164  18.304  40.406   2.410
30439W        W 2165  26.894   7.975  11.977
30440W        W 2166  12.540   0.743  10.829
30441W        W 2167  36.593  32.941   2.842
30442W        W 2168  36.709  26.919   3.657
30443W        W 2169  25.150  16.832   1.364
30444W        W 2170  32.825  26.646   3.223
30445W        W 2171  34.862  22.130   3.729
30446W        W 2172  20.197  18.500   4.257
30447W        W 2173  17.580  24.987   4.363
30448W        W 2174  29.996  25.296  12.622
30449W        W 2175  43.856  18.734  13.083
30450W        W 2176  44.705  14.351  12.943
30451W        W 2177   4.533  41.087   1.119
30452W        W 2178  19.238  19.242  12.570
30453W        W 2179  29.425  34.080  10.726
30454W        W 2180  12.099  33.558  13.606
30455W        W 2181   0.682  40.335  12.494
30456W        W 2182   8.225  32.083   2.153
30457W        W 2183  23.092  28.291   4.328
30458W        W 2184  14.128  31.357  13.889
30459W        W 2185  29.693  15.049   1.856
30460W        W 2186  26.882  21.085   1.906
30461W        W 2187  31.581  43.456  10.326
30462W        W 2188   3.119   4.417   0.679
30463W        W 2189  10.144   2.019   2.667
30464W        W 2190  28.702  26.623  14.799
30465W        W 2191  39.309  29.968   2.814
30466W        W 2192  28.674  37.214  14.296
30467W        W 2193  17.215  40.989  14.800
30468W        W 2194  34.340  39.106  13.935
30469W        W 2195   1.959  30.382  11.700
30470W        W 2196  18.822   7.662   0.713
30471W        W 2197  11.932   2.616  14.804
30472W        W 2198  28.941  36.502   2.900
30473W        W 2199   1.252   2.900   0.852
30474W        W 2200  15.357  24.088  12.715
30475W        W 2201  30.388   0.319  13.529
30476W        W 2202   9.592  36.867  11.887
30477W        W 2203  44.918   0.774  13.876
30478W        W 2204  30.077   2.517   1.304
30479W        W 2205  16.225  28.802   2.476
30480W        W 2206  14.268  15.174  13.433
30481W        W 2207  24.446  17.578  11.480
30482W        W 2208  37.024  19.601   1.373
30483W        W 2209  40.037   4.291  10.691
30484W        W 2210  23.598  40.758  13.055
30485W        W 2211  27.431  31.605  10.548
30486W        W 2212   1.934   5.688  13.047
30487W        W 2213  10.535  18.575  10.814
30488W        W 2214  43.972   8.944  11.728
30489W        W 2215  34.616  39.544  12.052
30490W        W 2216  41.021  37.281   0.423
30491W        W 2217  21.915  20.676  13.986
30492W        W 2218   2.223  28.470   5.009
30493W        W 2219  41.012  21.907   0.176
30494W        W 2220  37.393  28.341  12.974
30495W        W 2221  30.441  24.375   1.495
30496W        W 2222  40.527   4.363  12.974
30497W        W 2223  22.793   6.847   0.836
30498W        W 2224  18.666  17.282  14.470
30499W        W 2225  30.700  20.195  13.509
30500W        W 2226  16.119  16.254   0.221
30501W        W 2227  41.408  34.886  13.535
30502W        W 2228  43.280  14.867   3.358
30503W        W 2229   4.934  17.643  12.434
30504W        W 2230  21.575  25.613   0.003
30505W        W 2231  16.235  44.249   2.784
30506W        W 2232  16.538  25.693   2.352
30507W        W 2233  29.661  14.807  12.888
30508W        W 2234   8.645  44.338   1.051
30509W        W 2235   0.847   5.550   1.000
30510W        W 2236  32.378  24.402  11.558
30511W        W 2237   1.781  30.248  12.244
30512W        W 2238   5.764   3.353   3.304
30513W        W 2239   1.992  27.188   4.193
30514W        W 2240  38.486  23.103   2.390
30515W        W 2241  41.746  32.515   0.059
30516W        W 2242   4.395  27.011  11.979
30517W        W 2243  16.269  10.690  13.313
30518W        W 2244  32.540  14.165   4.456
30519W        W 2245  25.214  29.947  11.102
30520W        W 2246  38.270   6.630  13.730
30521W        W 2247  20.647   8.653  14.927
30522W        W 2248  33.819  22.059   3.729
30523W        W 2249   5.974  37.498   1.350
30524W        W 2250  44.856  32.564  12.896
30525W        W 2251  15.212  26.963  11.377
30526W        W 2252   3.467   8.850  10.417
30527W        W 2253  26.656  25.066  14.177
30528W        W 2254  42.347   8.238  13.120
30529W        W 2255   2.038   7.267  11.543
30530W        W 2256  30.923  20.602   3.738
30531W        W 2257  10.223  29.880   3.831
30532W        W 2258  32.166  33.129  13.213
30533W        W 2259  37.379  12.057   3.748
30534W        W 2260  37.490   1.818   1.327
30535W        W 2261  26.772  34.934   2.544
30536W        W 2262  12.299  31.920  14.083
30537W        W 2263  38.259  20.956   2.034
30538W        W 2264  28.118  34.937   3.139
30539W        W 2265  40.080  33.689   0.503
30540W        W 2266   5.853  40.741   1.401
30541W        W 2267   3.673  12.173   4.103
30542W        W 2268  39.471  28.627  12.057
30543W        W 2269   2.903  24.940  14.438
30544W        W 2270  11.761  34.651   3.606
30545W        W 2271  39.566  28.368  11.634
30546W        W 2272  35.002   1.924  11.963
30547W        W 2273  43.073  34.646  12.900
30548W        W 2274  18.295  37.630  12.824
30549W        W 2275  17.116  20.259  12.966
30550W        W 2276   8.128   5.456  10.643
30551W        W 2277  30.105   2.905   2.383
30552W        W 2278  32.190  34.846  13.106
30553W        W 2279  37.476  26.120   4.058
30554W        W 2280  42.734  23.514  13.368
30555W        W 2281  44.030  33.363  13.797
30556W        W 2282   1.721  30.857  10.747
30557W        W 2283  17.707  12.074  11.494
30558W        W 2284   6.657   3.978  14.440
30559W        W 2285  20.236   3.362  14.905
30560W        W 2286  20.202  38.011  11.737
30561W        W 2287   1.957  23.954  13.427
30562W        W 2288  15.183  37.641  14.702
30563W        W 2289   7.011  41.416   4.276
30564W        W 2290  33.014  16.848  10.551
30565W        W 2291  37.987  35.666   4.805
30566W        W 2292  37.207   1.271  13.602
30567W        W 2293  31.116   8.110  14.861
30568W        W 2294  17.018   8.466   3.712
30569W        W 2295  38.914  17.711   1.847
30570W        W 2296  39.256  11.436  14.523
30571W        W 2297  19.612  21.222   3.134
30572W        W 2298  16.875  12.040  11.114
30573W        W 2299  38.572  29.051   2.679
30574W        W 2300  39.532  19.818  11.089
30575W        W 2301  14.550  37.991   2.867
30576W        W 2302  15.268  43.531  11.980
30577W        W 2303  13.225  31.059   3.175
30578W        W 2304  11.921   5.695  14.468
30579W        W 2305  26.466   4.780  10.061
30580W        W 2306   6.948  41.939   3.621
30581W        W 2307  16.157  31.125   1.032
30582W        W 2308  13.060  41.578   0.306
30583W        W 2309  22.017  14.269  14.088
30584W        W 2310  31.198  44.399   5.044
30585W        W 2311  18.750  22.277   3.131
30586W        W 2312  37.993  30.946   4.410
30587W        W 2313   3.481  44.918   1.429
30588W        W 2314  38.564  23.207   4.170
30589W        W 2315  40.044  28.688  14.589
30590W        W 2316  30.164  17.775   2.223
30591W        W 2317  16.346  33.919   2.317
30592W        W 2318  44.425  44.980  10.697
30593W        W 2319  38.369  33.438   1.974
30594W        W 2320  16.995   1.032   5.174
30595W        W 2321  25.091  38.178  11.284
30596W        W 2322   6.933  33.214   0.340
30597W        W 2323   5.766  25.194  13.923
30598W        W 2324  28.518  11.261   4.697
30599W        W 2325  32.100   5.616  11.051
30600W        W 2326  30.491  41.958  11.480
30601W        W 2327  28.485   3.696   4.788
30602W        W 2328   6.138  39.482  10.905
30603W        W 2329  43.236  35.351  13.422
30604W        W 2330  11.989  32.607  12.884
30605W        W 2331  16.594  22.667   2.865
30606W        W 2332  34.380   6.251   3.057
30607W        W 2333  35.411  25.085   2.407
30608W        W 2334  13.612   6.686   2.026
30609W        W 2335  13.304  28.563  10.655
30610W        W 2336  17.797  43.050   0.417
30611W        W 2337  26.264   0.543  10.159
30612W        W 2338  16.200   4.290   4.176
30613W        W 2339  31.097  37.423  10.654
30614W        W 2340  38.720   9.441   1.798
30615W        W 2341  27.973  30.398  13.537
30616W        W 2342  36.537  18.640   4.858
30617W        W 2343  28.545  20.814   2.376
30618W        W 2344  42.317  10.414   1.423
30619W        W 2345  14.911  44.198   2.485
30620W        W 2346  35.012  26.082   1.948
30621W        W 2347  43.981  14.873  14.890
30622W        W 2348   4.017  22.558  11.258
30623W        W 2349   6.240  19.308  14.964
30624W        W 2350   5.753  32.586   2.419
30625W        W 2351  42.753   0.750   0.172
30626W        W 2352  42.786  39.784  13.520
30627W        W 2353  30.426  43.941   2.738
30628W        W 2354  12.111   9.195   2.196
30629W        W 2355  33.524  25.137  10.289
30630W        W 2356  33.091   5.189   2.260
30631W        W 2357  29.504  43.383  13.087
30632W        W 2358   7.343  17.953   2.202
30633W        W 2359  26.123  20.439  13.049
30634W        W 2360  29.546  43.510   1.274
30635W        W 2361  16.191   7.602  11.198
30636W        W 2362  44.581   0.898  13.483
30637W        W 2363   6.638   4.721  14.340
30638W        W 2364   1.698  10.782  13.426
30639W        W 2365   3.806  21.486   3.262
30640W        W 2366  40.121  26.962  11.154
30641W        W 2367   3.913  31.041   4.262
30642W        W 2368  33.494  14.664  14.163
30643W        W 2369   0.224  18.626   4.111
30644W        W 2370  38.770  37.140  13.618
30645W        W 2371  14.077  21.075   0.156
30646W        W 2372  43.810  25.246   4.915
30647W        W 2373   3.774   6.242  12.853
30648W        W 2374  41.539  34.547   2.395
30649W        W 2375   9.652  16.093   1.874
30650W        W 2376  35.419  30.087   0.531
30651W        W 2377  20.173  14.985   3.337
30652W        W 2378  37.974   9.210  14.022
30653W        W 2379  19.266  20.211  11.906
30654W        W 2380  35.975   4.194  14.272
30655W        W 2381   2.522  10.303   9.779
30656W        W 2382  31.112  11.195   3.104
30657W        W 2383  17.261  17.291  13.264
30658W        W 2384  26.184  23.695  10.620
30659W        W 2385  21.646  15.643   1.702
30660W        W 2386  38.086   0.044  13.918
30661W        W 2387   8.831  14.672   0.452
30662W        W 2388  10.773  15.361   1.364
30663W        W 2389  21.815  43.707   1.779
30664W        W 2390  10.784  15.099   3.411
30665W        W 2391  31.959  12.946   0.691
30666W        W 2392  21.405  38.082  14.368
30667W        W 2393  44.682  39.461   2.239
30668W        W 2394   0.856  36.290  14.376
30669W        W 2395  37.446  26.925  13.179
30670W        W 2396  33.940   5.964   0.853
30671W        W 2397  42.508  37.024  11.219
30672W        W 2398  35.826   2.389   0.848
30673W        W 2399   8.903  40.648   4.875
30674W        W 2400  21.575  37.813  13.967
30675W        W 2401  13.325  42.538   2.265
30676W        W 2402   1.961  43.594  11.015
30677W        W 2403   5.816  16.175   3.003
30678W        W 2404  28.168   6.394  14.492
30679W        W 2405  32.150  34.454   1.185
30680W        W 2406  26.465  25.647   3.677
30681W        W 2407   0.188  44.339   2.336
30682W        W 2408   5.284  37.241   3.352
30683W        W 2409   0.206  44.675  10.568
30684W        W 2410  40.971   3.936   1.302
30685W        W 2411  30.621  41.432  13.420
30686W        W 2412  31.646  24.045   1.489
30687W        W 2413  17.035   8.901  10.126
30688W        W 2414  36.251   2.298   3.904
30689W        W 2415  28.960   2.754   2.912
30690W        W 2416  20.463  30.917   0.364
30691W        W 2417  15.261  29.989  10.762
30692W        W 2418  11.595  18.633   0.446
30693W        W 2419  21.074  28.897  11.939
30694W        W 2420   1.278  30.139  14.409
30695W        W 2421  16.373  18.667  13.557
30696W        W 2422  14.661  20.579  14.443
30697W        W 2423  36.393   0.922   4.135
30698W        W 2424   4.342  22.228  10.609
30699W        W 2425  34.016  35.364   4.158
30700W        W 2426  44.384  22.551   1.349
30701W        W 2427  41.393  23.132   4.627
30702W        W 2428  39.906   8.978   0.901
30703W        W 2429  36.064   3.966  10.812
30704W        W 2430  18.051  10.286  14.590
30705W        W 2431   2.483  17.735   0.920
30706W        W 2432   1.944  25.703  13.561
30707W        W 2433  23.979  24.521  12.071
30708W        W 2434   5.431  44.864   1.187
30709W        W 2435  29.178  41.421  14.819
30710W        W 2436  17.670  23.856  12.914
30711W        W 2437   8.381  15.558  14.493
30712W        W 2438   9.932  29.574   4.131
30713W        W 2439  22.522   1.479   0.721
30714W        W 2440   1.236  36.659  11.565
30715W        W 2441  23.531  40.257   1.270
30716W        W 2442  23.610  33.626   0.974
30717W        W 2443  27.175  30.439   1.268
30718W        W 2444  19.512  10.096  10.495
30719W        W 2445  36.388  42.038   4.246
30720W        W 2446   1.000  39.876   0.015
30721W        W 2447  15.710  40.682   4.113
30722W        W 2448  28.491   8.775   1.069
30723W        W 2449   0.745   5.179  14.421
30724W        W 2450  28.391  22.955  10.971
30725W        W 2451  18.163  40.916   2.363
30726W        W 2452  30.837  39.635  13.966
30727W        W 2453  15.761  15.619  11.625
30728W        W 2454  36.435   0.252   2.962
30729W        W 2455   0.934  30.549   2.186
30730W        W 2456  33.217  23.225  14.807
30731W        W 2457  34.759  44.740  14.358
30732W        W 2458  28.647  34.331  13.405
30733W        W 2459   2.658  38.786  14.991
30734W        W 2460  27.665   5.327   1.848
30735W        W 2461  40.298  24.989  11.275
30736W        W 2462   6.084  30.697  14.330
30737W        W 2463  30.909   7.777  10.693
30738W        W 2464   1.707  14.636  13.395
30739W        W 2465   1.453  11.416   4.320
30740W        W 2466  22.551  16.791   0.380
30741W        W 2467  34.631   7.671   4.875
30742W        W 2468  39.240  17.177  12.049
30743W        W 2469  13.341  24.275   1.666
30744W        W 2470  18.643  36.691   4.625
30745W        W 2471  30.632  35.061   0.394
30746W        W 2472  30.611  36.123  14.380
30747W        W 2473  43.936  28.810  13.043
30748W        W 2474  17.645   6.235  11.432
30749W        W 2475  22.134   9.685  13.830
30750W        W 2476  22.292  42.847   4.551
30751W        W 2477  44.625  17.682  14.768
30752W        W 2478  30.362  42.886   4.714
30753W        W 2479  30.977  12.525  13.863
30754W        W 2480   0.542  16.811   3.097
30755W        W 2481  25.622  27.905  13.554
30756W        W 2482  39.796  41.930  12.862
30757W        W 2483   1.784  34.253  14.513
30758W        W 2484   7.764  44.823   4.102
30759W        W 2485  26.001  42.962  10.265
30760W        W 2486  32.281  41.413  12.717
30761W        W 2487  42.347  20.675   3.708
30762W        W 2488  15.442  42.531  12.820
30763W        W 2489  28.555   8.569  12.652
30764W        W 2490  44.806  13.360  14.954
30765W        W 2491  23.695   6.121  13.497
30766W        W 2492  14.730  21.976   4.619
30767W        W 2493  29.945   9.659   3.249
30768W        W 2494  31.620  30.843   3.779
30769W        W 2495  41.157  34.879  13.075
30770W        W 2496  34.939  10.485  10.088
30771W        W 2497  16.063  26.513   4.422
30772W        W 2498   1.984  37.065  11.012
30773W        W 2499  34.552  30.221  14.766
30774W        W 2500  19.795  14.822   0.693
30775W        W 2501   2.910  18.918   4.372
30776W        W 2502  43.688   1.541  11.478
30777W        W 2503  36.584  42.418  12.896
30778W        W 2504   6.358  19.925   2.814
30779W        W 2505   4.238  36.237  14.910
30780W        W 2506  43.036  13.898   0.129
30781W        W 2507   6.535  27.673   2.328
30782W        W 2508  11.553  31.974   3.821
30783W        W 2509  34.956   2.574  10.868
30784W        W 2510  11.809   7.836   4.687
30785W        W 2511   9.440   4.223  11.095
30786W        W 2512  32.389  22.074  13.497
30787W        W 2513  40.005  30.231   4.919
30788W        W 2514  38.946  36.292  14.981
30789W        W 2515  31.679  17.807   0.353
30790W        W 2516  34.803  25.030   4.660
30791W        W 2517  24.719  26.016   0.882
30792W        W 2518   8.612   0.825  14.029
30793W        W 2519   5.737  24.612   3.335
30794W        W 2520   5.933  37.544   0.011
30795W        W 2521  44.979  26.445  14.721
30796W        W 2522  41.899  13.726   2.669
30797W        W 2523   6.496  24.600   4.738
30798W        W 2524  16.388  16.960   2.300
30799W        W 2525  42.441   9.415   4.367
30800W        W 2526  43.105  26.373  14.311
30801W        W 2527  27.027  43.330   1.202
30802W        W 2528  34.456   9.679  14.823
30803W        W 2529  35.812  20.885  14.484
30804W        W 2530   9.781  42.301  13.529
30805W        W 2531  38.089   8.286  13.045
30806W        W 2532  22.673  38.120  14.507
30807W        W 2533  14.818   8.883  13.421
30808W        W 2534  20.242   3.421   2.349
30809W        W 2535  38.071  35.177   0.284
30810W        W 2536  23.492  34.022   0.021
30811W        W 2537  43.874  39.506  14.300
30812W        W 2538  13.128  29.584  14.042
30813W        W 2539   0.466  12.346  10.987
30814W        W 2540  15.249  16.411  11.897
30815W        W 2541   3.414  43.229  12.427
30816W        W 2542  43.690   4.272   2.797
30817W        W 2543  41.887  10.105   1.373
30818W        W 2544  20.675  18.958  10.491
30819W        W 2545  27.630  26.719  11.431
30820W        W 2546   4.280  12.609  13.710
30821W        W 2547  37.542  26.664   4.731
30822W        W 2548  27.481  39.548   4.518
30823W        W 2549  34.604   9.121   0.883
30824W        W 2550  14.219  17.549  11.481
30825W        W 2551  20.983  36.473  11.759
30826W        W 2552  37.897  12.157  11.820
30827W        W 2553  25.717   5.206  10.467
30828W        W 2554  42.926  41.043   1.272
30829W        W 2555  43.763  15.732   1.956
30830W        W 2556  41.441  32.598  14.609
30831W        W 2557  38.130  17.004  10.764
30832W        W 2558  22.652  44.294   1.208
30833W        W 2559   6.682  28.582   1.981
30834W        W 2560  40.014   3.237   4.257
30835W        W 2561  20.562  41.568  10.448
30836W        W 2562  43.471   9.856   0.685
30837W        W 2563   3.790  23.211  13.964
30838W        W 2564  20.239  33.322   2.782
30839W        W 2565   1.909   3.035   4.038
30840W        W 2566  12.604  44.876  10.889
30841W        W 2567   7.660   7.683   0.770
30842W        W 2568  29.671  38.521   1.636
30843W        W 2569  34.463  43.994  11.586
30844W        W 2570  11.898  34.837   0.748
30845W        W 2571  38.840   7.334  11.212
30846W        W 2572  41.760  19.294  11.212
30847W        W 2573  28.312  37.783  11.678
30848W        W 2574  17.773  43.784  14.527
30849W        W 2575  22.795   6.496  10.836
30850W        W 2576  21.529  17.992   2.600
30851W        W 2577   3.713  29.057  12.677
30852W        W 2578  10.240  16.578   3.613
30853W        W 2579  16.209  32.048  11.207
30854W        W 2580  21.476   4.434   2.767
30855W        W 2581   8.439  28.283  12.954
30856W        W 2582  19.010   7.780   1.238
30857W        W 2583  22.540  36.420  10.641
30858W        W 2584  31.245  15.489  14.504
30859W        W 2585  34.880  24.244   0.879
30860W        W 2586  22.209   4.782   1.448
30861W        W 2587   1.261   6.664   1.555
30862W        W 2588  29.633  34.206  11.196
30863W        W 2589  39.297  18.043   1.789
30864W        W 2590  35.793  13.642  12.065
30865W        W 2591  39.658  44.352   0.940
30866W        W 2592  28.849  35.061   1.825
30867W        W 2593  24.803  32.968  14.257
30868W        W 2594  24.014   5.184  13.838
30869W        W 2595  15.262  12.898   4.126
30870W        W 2596   2.407  23.860   4.614
30871W        W 2597   6.696  19.581   1.241
30872W        W 2598   8.232  10.889   1.777
30873W        W 2599  20.615  19.046   2.255
30874W        W 2600  43.849  23.044   1.401
30875W        W 2601  34.992  18.708  10.984
30876W        W 2602  26.083   1.702  12.099
30877W        W 2603  14.113  42.480  13.426
30878W        W 2604  14.709  13.001  10.373
30879W        W 2605  31.282  17.016  13.771
30880W        W 2606  31.240  24.057  13.026
30881W        W 2607   7.254  11.231  12.667
30882W        W 2608  41.815  39.566  11.676
30883W        W 2609   1.142   8.837   1.646
30884W        W 2610  34.573  40.584   4.081
30885W        W 2611  11.640  43.007   1.970
30886W        W 2612  11.235  34.910   1.763
30887W        W 2613  10.304   4.232  10.363
30888W        W 2614  13.945  17.747   2.402
30889W        W 2615  43.022   1.369  13.805
30890W        W 2616  11.502  20.124   3.844
30891W        W 2617  22.092  16.885  10.950
30892W        W 2618   5.364   9.186  11.060
30893W        W 2619   7.828   3.418  13.036
30894W        W 2620  21.595  11.132   2.415
30895W        W 2621  40.377  33.411   2.444
30896W        W 2622   1.714   7.530   0.936
30897W        W 2623  44.715   4.014   2.717
30898W        W 2624   5.333   5.935  13.729
30899W        W 2625   9.180  26.559  14.446
30900W        W 2626  27.954  15.782   4.650
30901W        W 2627  13.186  35.113   4.218
30902W        W 2628  44.763  27.600   4.553
30903W        W 2629  34.710  18.269   2.217
30904W        W 2630  41.846  18.972   0.803
30905W        W 2631  15.128  11.604  12.901
30906W        W 2632  24.481  17.209   1.879
30907W        W 2633  20.134  35.932   0.706
30908W        W 2634   9.875   2.488  14.464
30909W        W 2635  19.553   9.169  10.980
30910W        W 2636  12.147  44.570   0.904
30911W        W 2637   5.896  12.766  10.226
30912W        W 2638   1.732  43.960  12.475
30913W        W 2639  31.178   8.115  13.108
30914W        W 2640  11.196   8.924  11.498
30915W        W 2641   6.852  34.022   2.336
30916W        W 2642  40.407   8.938  10.266
30917W        W 2643   3.992  23.616  11.608
30918W        W 2644   8.905   9.328  10.722
30919W        W 2645   1.408   3.464  11.618
30920W        W 2646   6.271  26.612  11.925
30921W        W 2647  11.822  22.538   1.795
30922W        W 2648   4.534  43.473  10.476
30923W        W 2649  22.439  23.487  12.120
30924W        W 2650  25.190   1.934   3.340
30925W        W 2651  29.951  18.815  13.288
30926W        W 2652  41.709  29.137  10.979
30927W        W 2653   6.499  32.134  12.512
30928W        W 2654  24.112  21.092  11.532
30929W        W 2655   4.476  12.720  11.431
30930W        W 2656  19.795  19.178   4.765
30931W        W 2657  43.766  41.828  13.537
30932W        W 2658  33.994  35.722   3.621
30933W        W 2659  32.693  26.138   4.253
30934W        W 2660  38.790  31.671  10.951
30935W        W 2661  36.055  14.072   4.554
30936W        W 2662   6.477   3.708  14.837
30937W        W 2663  27.003  36.159   3.142
30938W        W 2664  23.634  36.924   1.945
30939W        W 2665  24.420  43.230  11.899
30940W        W 2666  12.397  38.327   2.306
30941W        W 2667   6.263  12.753  14.762
30942W        W 2668  37.015  32.915  12.544
30943W        W 2669  22.327  33.176   2.251
30944W        W 2670  29.131  30.201  12.746
30945W        W 2671  17.170  11.072   1.256
30946W        W 2672  43.428  19.296   4.708
30947W        W 2673  22.248  24.679  10.687
30948W        W 2674  15.240  37.570  11.502
30949W        W 2675  33.845  19.522  10.444
30950W        W 2676  22.399   8.361  12.038
30951W        W 2677  43.544  42.831  14.576
30952W        W 2678  30.174  25.488  12.191
30953W        W 2679   5.159  33.194   2.942
30954W        W 2680  22.484   9.799  11.483
30955W        W 2681  14.571  13.086  12.634
30956W        W 2682  19.202  11.821   3.569
30957W        W 2683   2.924  42.352   1.398
30958W        W 2684   7.845  16.286  13.267
30959W        W 2685  32.179   5.107  12.480
30960W        W 2686  23.474   9.764  12.431
30961W        W 2687  29.120  18.104  10.833
30962W        W 2688  32.351   6.011  10.154
30963W        W 2689  17.119   9.308   2.704
30964W        W 2690  31.001  17.841  12.424
30965W        W 2691  26.243  18.585   4.175
30966W        W 2692  42.937  32.164  10.589
30967W        W 2693  33.507  27.929  13.520
30968W        W 2694  29.406  21.226   0.898
30969W        W 2695  43.485  42.703   3.829
30970W        W 2696  11.642  41.975  13.110
30971W        W 2697  39.466  42.817  13.893
30972W        W 2698  35.833  31.874  13.965
30973W        W 2699  42.686  39.474   2.572
30974W        W 2700   7.859  35.120   0.798
30975W        W 2701  10.865  26.759   1.582
30976W        W 2702  29.962  36.881  14.334
30977W        W 2703  13.744   8.336   4.121
30978W        W 2704  23.495  29.457   1.865
30979W        W 2705  11.893  13.749  12.056
30980W        W 2706   7.911  31.345  11.882
30981W        W 2707  14.971  44.392   0.791
30982W        W 2708  23.177  13.128  12.978
30983W        W 2709  29.803   3.740  14.238
30984W        W 2710   6.152  41.521   3.058
30985W        W 2711  25.776   6.634  14.007
30986W        W 2712  15.360  37.025  13.853
30987W        W 2713  32.960   7.227   4.088
30988W        W 2714  25.975  34.645   4.712
30989W        W 2715  44.397  37.302   2.057
30990W        W 2716  27.933  16.870   2.709
30991W        W 2717   6.602   9.853   2.262
30992W        W 2718  28.744  44.778  11.031
30993W        W 2719  23.671  30.191   2.783
30994W        W 2720  39.593  12.144  11.224
30995W        W 2721  26.495  23.305  14.999
30996W        W 2722  44.039   7.234   1.787
30997W        W 2723  21.314  14.778   5.051
30998W        W 2724  41.547  36.693   2.640
30999W        W 2725   2.774   9.473   1.439
31000W        W 2726  19.997  25.837  11.186
31001W        W 2727  29.018  34.571   1.676
31002W        W 2728  30.871  26.573  13.355
31003W        W 2729   1.482  12.688   2.732
31004W        W 2730  39.011  22.087   3.958
31005W        W 2731  23.539  22.765  10.481
31006W        W 2732  17.682  42.285   3.373
31007W        W 2733  44.274  36.837  12.889
31008W        W 2734  13.352  21.128   3.124
31009W        W 2735  27.136  21.346  11.002
31010W        W 2736  20.523   9.824  13.536
31011W        W 2737   8.139   4.555   3.224
31012W        W 2738  35.613  10.015   3.363
31013W        W 2739   9.578   6.145   0.639
31014W        W 2740  40.968  43.390  10.711
31015W        W 2741   2.184   6.756  11.507
31016W        W 2742  25.494  41.015   4.060
31017W        W 2743  39.843  42.927   3.230
31018W        W 2744  26.935   2.400   0.417
31019W        W 2745  18.057  22.012   2.398
31020W        W 2746  28.846  44.538   1.432
31021W        W 2747  27.123   2.516  10.912
31022W        W 2748  28.636  13.341  10.786
31023W        W 2749   7.420  18.955   2.319
31024W        W 2750  15.784  12.357   3.602
31025W        W 2751  37.299  14.428  12.505
31026W        W 2752  14.396   7.715   4.633
31027W        W 2753   6.070  14.411   2.990
31028W        W 2754  33.400   9.887   3.343
31029W        W 2755  27.152  37.946  14.408
31030W        W 2756   6.666  20.188  11.928
31031W        W 2757  25.440  17.866   2.283
31032W        W 2758  34.076  19.664  14.586
31033W        W 2759   3.777  30.656   4.583
31034W        W 2760  33.791  35.037  10.584
31035W        W 2761  24.907  25.131   4.387
31036W        W 2762  32.981  19.401  10.728
31037W        W 2763  17.052   8.680  11.165
31038W        W 2764  25.573   9.722   4.541
31039W        W 2765  15.824   3.807  12.477
31040W        W 2766  14.789  17.529  14.533
31041W        W 2767   0.652   0.842  12.701
31042W        W 2768  12.295   7.743   3.973
31043W        W 2769  32.834  24.472   4.651
31044W        W 2770  36.457  41.769  10.772
31045W        W 2771  25.586  23.724   0.061
31046W        W 2772  30.549  10.640  14.851
31047W        W 2773  26.617   5.391  13.776
31048W        W 2774  40.034  21.917   4.125
31049W        W 2775  26.347  18.770  11.266
31050W        W 2776  28.641  27.502  10.998
31051W        W 2777   5.533  18.926   1.170
31052W        W 2778  15.203  14.855  11.095
31053W        W 2779   9.701  37.578  10.890
31054W        W 2780   5.123  12.691   2.379
31055W        W 2781  29.558   9.676   0.198
31056W        W 2782  20.656  14.600   0.624
31057W        W 2783  22.780  39.809  11.603
31058W        W 2784  29.733  44.916   0.317
31059W        W 2785  42.641   5.494   3.769
31060W        W 2786  26.692   5.321  12.870
31061W        W 2787  33.068  14.354   2.327
31062W        W 2788   9.654  30.449   2.864
31063W        W 2789  27.041  26.114  11.617
31064W        W 2790  16.482  33.502   4.230
31065W        W 2791  37.216  16.872  13.413
31066W        W 2792  32.690  20.197   1.898
31067W        W 2793  30.912  43.705   2.813
31068W        W 2794   1.394  44.441  11.140
31069W        W 2795  38.476  30.048  14.918
31070W        W 2796  38.614  29.105  13.393
31071W        W 2797  27.432   6.599  12.507
31072W        W 2798  31.040   0.170  14.480
31073W        W 2799  21.007  12.178  13.355
31074W        W 2800  36.060  36.451   0.547
31075W        W 2801  24.069   0.275  12.457
31076W        W 2802  27.023   2.877  12.934
31077W        W 2803  44.753  26.684  10.611
31078W        W 2804   7.911  23.255  14.007
31079W        W 2805  12.117  17.589  12.481
31080W        W 2806  18.223   0.689   2.473
31081W        W 2807  26.539  43.614  10.734
31082W        W 2808  44.439  33.826   0.372
31083W        W 2809  42.292  37.998  11.955
31084W        W 2810  41.029  25.148  11.502
31085W        W 2811  22.199  16.731   1.758
31086W        W 2812  38.299  33.166  14.124
31087W        W 2813  23.643  38.475  13.630
31088W        W 2814  22.390  27.009   3.929
31089W        W 2815   1.536  18.162  12.584
31090W        W 2816  37.909  34.026  11.418
31091W        W 2817  20.307   4.759   1.297
31092W        W 2818   0.007   3.180  13.084
31093W        W 2819   8.717   8.381   0.881
31094W        W 2820  31.388  18.273  12.202
31095W        W 2821   0.395  33.795  14.628
31096W        W 2822  37.131  39.564  14.435
31097W        W 2823  28.644  32.541  13.264
31098W        W 2824  11.776  11.964  14.395
31099W        W 2825  28.581   4.639   1.269
31100W        W 2826  40.055  16.722  10.767
31101W        W 2827  26.529  33.492  10.505
31102W        W 2828  15.950  10.298   0.196
31103W        W 2829   5.925  28.483  14.363
31104W        W 2830  32.496  25.620  12.033
31105W        W 2831  39.799  36.367   0.958
31106W        W 2832  35.441  19.874  12.972
31107W        W 2833  27.173  43.067   0.779
31108W        W 2834  39.835  13.395  10.658
31109W        W 2835  32.471   3.676   1.885
31110W        W 2836  14.666  22.597  10.692
31111W        W 2837  21.115  15.403   5.104
31112W        W 2838  16.655  30.683  13.775
31113W        W 2839  26.434  38.987  14.940
31114W        W 2840  41.992  19.939   2.139
31115W        W 2841  23.765  31.531   3.222
31116W        W 2842  14.185  38.277  14.224
31117W        W 2843  30.821   5.375   0.286
31118W        W 2844  12.417  12.606  14.758
31119W        W 2845  21.563  14.078   0.905
31120W        W 2846   4.299   0.436   1.393
31121W        W 2847   8.656  43.833  14.834
31122W        W 2848  38.742  35.489   0.726
31123W        W 2849  44.775  30.974   4.441
31124W        W 2850  19.612  36.917   4.580
31125W        W 2851  39.961  29.196  13.169
31126W        W 2852  44.883  33.971   2.368
31127W        W 2853  32.048   3.183  14.484
31128W        W 2854  27.067  26.725  14.257
31129W        W 2855  10.526  21.269   4.539
31130W        W 2856  36.500   6.276  10.191
31131W        W 2857   4.872  39.351   1.137
31132W        W 2858  36.772  11.723   2.307
31133W        W 2859  16.179  17.801  13.733
31134W        W 2860  21.974  26.873  12.080
31135W        W 2861   1.238   3.595  14.282
31136W        W 2862  42.276  25.556  13.108
31137W        W 2863  10.777  26.399  13.069
31138W        W 2864  43.202  31.491  11.157
31139W        W 2865  20.577  33.630   1.878
31140W        W 2866  16.417  16.881   0.269
31141W        W 2867  25.426   6.128  10.900
31142W        W 2868  10.066   0.952  11.190
31143W        W 2869  11.317  18.050  10.597
31144W        W 2870  13.362   5.419  11.987
31145W        W 2871  28.155  27.709  10.939
31146W        W 2872  36.119  33.633  13.971
31147W        W 2873  20.332   6.211   2.400
31148W        W 2874   2.545  20.718  13.860
31149W        W 2875  36.141  31.429  14.028
31150W        W 2876  23.823   5.661   3.632
31151W        W 2877   0.249  16.132   4.743
31152W        W 2878  26.044   7.725  12.067
31153W        W 2879   7.350  26.211   0.385
31154W        W 2880  18.739   8.117  12.802
31155W        W 2881  33.375  11.889  14.508
31156W        W 2882  12.809  27.915   4.709
31157W        W 2883  10.386  33.681  12.884
31158W        W 2884   2.485  24.789   1.315
31159W        W 2885  14.079  11.275   3.673
31160W        W 2886   1.674  37.000  12.437
31161W        W 2887  21.258  11.482  12.484
31162W        W 2888  14.106  38.368   4.668
31163W        W 2889  33.811  29.105  13.866
31164W        W 2890  26.141  43.396   1.932
31165W        W 2891  21.029   2.716  14.946
31166W        W 2892  25.912  25.228  11.573
31167W        W 2893   7.710  28.439  13.330
31168W        W 2894  27.711  15.766   0.733
31169W        W 2895  39.200  44.793  11.577
31170W        W 2896  29.484  26.095  12.384
31171W        W 2897  10.251  42.353  14.498
31172W        W 2898  31.903  26.062  12.866
31173W        W 2899  16.323  18.577   3.692
31174W        W 2900  15.561  27.611   4.150
31175W        W 2901   2.764  34.726  11.819
31176W        W 2902   4.170  30.967   3.318
31177W        W 2903  27.475   0.692   4.116
31178W        W 2904  43.631  38.810   1.860
31179W        W 2905  39.297  38.493   1.170
31180W        W 2906  23.037  15.823   3.435
31181W        W 2907  35.871  10.240  12.914
31182W        W 2908  16.284  16.705  10.567
31183W        W 2909  26.903  16.348  10.552
31184W        W 2910  12.714  24.111   4.914
31185W        W 2911  34.626  20.133  14.290
31186W        W 2912  28.658   1.204   3.730
31187W        W 2913  25.628  31.119  11.451
31188W        W 2914  31.724  24.588   3.130
31189W        W 2915  22.735   8.162  10.863
31190W        W 2916  15.767  33.100  11.431
31191W        W 2917   5.157   1.374   1.755
31192W        W 2918  17.715  12.266  13.983
31193W        W 2919  20.756  20.811  12.313
31194W        W 2920  25.291   0.519  14.664
31195W        W 2921  21.662  14.758  13.061
31196W        W 2922  13.416  15.109   4.120
31197W        W 2923  42.943  38.304  13.356
31198W        W 2924   4.071   0.336  10.764
31199W        W 2925  27.517  15.333   4.100
31200W        W 2926  22.732  12.061  12.208
31201W        W 2927  27.782  26.688  14.986
31202W        W 2928  11.115  43.456   0.449
31203W        W 2929  17.369  19.576   3.255
31204W        W 2930  19.177  22.961  14.852
31205W        W 2931  24.021  18.180  11.948
31206W        W 2932  31.328   2.196   1.526
31207W        W 2933  12.336  10.511   2.144
31208W        W 2934   3.765  37.776   2.760
31209W        W 2935  20.152  24.711   4.569
31210W        W 2936  11.764  26.598   9.877
31211W        W 2937  26.034   9.831  12.934
31212W        W 2938   3.825  15.617   1.245
31213W        W 2939  16.766  39.364  11.496
31214W        W 2940   0.506  37.110  13.793
31215W        W 2941  32.670  43.945   1.138
31216W        W 2942   6.094  12.797  11.949
31217W        W 2943  37.079  44.810   4.159
31218W        W 2944  21.787  16.766   4.211
31219W        W 2945  12.931  13.870  11.269
31220W        W 2946  39.778  26.644  14.249
31221W        W 2947  13.003  41.417  11.337
31222W        W 2948  15.496   9.361  10.996
31223W        W 2949   1.919  23.642   2.158
31224W        W 2950   0.916  42.820  11.551
31225W        W 2951  28.726  12.301   0.694
31226W        W 2952  36.003  12.222  14.718
31227W        W 2953  17.072  30.993  13.886
31228W        W 2954  24.987  39.872  14.736
31229W        W 2955  43.434  40.969  13.580
31230W        W 2956  15.298  38.815   0.284
31231W        W 2957  24.781  25.685  12.456
31232W        W 2958  14.555   5.799   0.025
31233W        W 2959  20.629  40.640   0.413
31234W        W 2960  34.525   4.224   1.748
31235W        W 2961  35.873  38.837   2.316
31236W        W 2962   7.857  22.271   0.454
31237W        W 2963  13.180  13.527  12.523
31238W        W 2964  44.846  35.074  14.614
31239W        W 2965  29.253   6.959   2.230
31240W        W 2966  22.119  24.140  10.687
31241W        W 2967  35.326   7.676   4.100
31242W        W 2968  23.542  19.846  10.734
31243W        W 2969  16.485   3.035  12.179
31244W        W 2970   6.806  14.649   3.525
31245W        W 2971  33.533  11.312  12.586
31246W        W 2972   9.769   6.150   3.467
31247W        W 2973  42.176  42.552   3.300
31248W        W 2974  25.986   7.624   0.437
31249W        W 2975  26.567   1.732  10.853
31250W        W 2976  17.298  33.941  11.025
31251W        W 2977   8.406  19.122   1.306
31252W        W 2978  11.563  38.912   1.922
31253W        W 2979  17.076   5.919   3.715
31254W        W 2980  19.911   2.819   2.641
31255W        W 2981  41.835   3.438  14.918
31256W        W 2982  25.498   6.849   1.387
31257W        W 2983  28.190   0.406  11.288
31258W        W 2984  37.805   6.283  10.376
31259W        W 2985  43.902  15.864   1.482
31260W        W 2986  36.099  23.018  11.565
31261W        W 2987  40.436  28.906  14.306
31262W        W 2988  41.489   7.145   0.781
31263W        W 2989  29.132  31.062  10.546
31264W        W 2990   4.941   9.316  12.871
31265W        W 2991   8.237  15.100  11.810
31266W        W 2992  11.850  40.444  14.948
31267W        W 2993  37.073  18.303   3.799
31268W        W 2994   0.843  31.673  12.066
31269W        W 2995   7.139  23.371  14.202
31270W        W 2996  42.301  27.127   3.119
31271W        W 2997  34.135  35.528  14.199
31272W        W 2998  13.223   2.029   4.027
31273W        W 2999  21.241   2.704  10.646
31274W        W 3000  20.746  15.962  10.712
31275W        W 3001  38.021  25.466  12.992
31276W        W 3002   2.307  11.705   3.352
31277W        W 3003   8.326  35.971   2.767
31278W        W 3004  31.697  24.122   3.356
31279W        W 3005  33.564   7.792   0.942
31280W        W 3006  39.582  16.675  10.571
31281W        W 3007   2.688  35.867  11.149
31282W        W 3008   0.789   4.353   0.832
31283W        W 3009  34.811  22.328   0.548
31284W        W 3010  11.069  14.349  13.530
31285W        W 3011  31.475  22.496   3.356
31286W        W 3012  14.444  19.867   2.409
31287W        W 3013   4.324   3.810  13.949
31288W        W 3014  27.637   6.749  12.041
31289W        W 3015  14.482   2.828   4.301
31290W        W 3016   5.916   6.211   2.853
31291W        W 3017  34.639  21.462   0.433
31292W        W 3018  28.463  15.727   1.337
31293W        W 3019  23.457  32.481   1.224
31294W        W 3020  21.565  11.094  11.581
31295W        W 3021  16.120  34.909  13.345
31296W        W 3022  23.369  36.485   0.002
31297W        W 3023  16.733   5.433   0.318
31298W        W 3024   0.784  39.408   1.392
31299W        W 3025  13.565   6.057   5.070
31300W        W 3026  37.023  29.957  11.201
31301W        W 3027  42.750   6.084   1.703
31302W        W 3028   0.697   2.611  10.760
31303W        W 3029  27.498  16.424   2.036
31304W        W 3030   9.394  35.306  12.911
31305W        W 3031  42.047  33.489  14.920
31306W        W 3032  29.813  39.870  11.614
31307W        W 3033  28.996  34.063  14.599
31308W        W 3034   7.242   6.907   4.180
31309W        W 3035  20.491  35.577  14.513
31310W        W 3036  30.974  10.173   3.330
31311W        W 3037   7.936  35.556  13.931
31312W        W 3038  35.619  40.562  13.371
31313W        W 3039  20.013   1.533   1.287
31314W        W 3040  42.379  32.417  11.197
31315W        W 3041  37.829  29.068   2.207
31316W        W 3042  15.224  11.056  10.867
31317W        W 3043  33.497  40.764  14.503
31318W        W 3044  13.685  28.934   3.245
31319W        W 3045  39.047   3.684  13.439
31320W        W 3046  40.148  15.228   1.914
31321W        W 3047  44.056  14.288  11.642
31322W        W 3048  27.940  44.988  13.312
31323W        W 3049  32.691  23.191  14.796
31324W        W 3050  15.027  28.074   0.786
31325W        W 3051  43.243  26.561   2.241
31326W        W 3052   8.718   8.139  14.500
31327W        W 3053   3.771  24.432   3.840
31328W        W 3054  10.774   3.975   1.737
31329W        W 3055  42.312  14.794   2.018
31330W        W 3056  32.550   3.165   1.944
31331W        W 3057   2.662  22.611  13.818
31332W        W 3058  18.260  24.104  13.830
31333W        W 3059   7.742  41.525  14.515
31334W        W 3060  33.055  28.675   3.930
31335W        W 3061   0.396   0.145  10.536
31336W        W 3062  35.569  11.941  11.928
31337W        W 3063  36.384  20.475   2.186
31338W        W 3064  16.318  12.605  10.636
31339W        W 3065   6.793   9.975  12.880
31340W        W 3066   2.274   5.670  14.482
31341W        W 3067  18.973   7.321  11.432
31342W        W 3068  12.614  29.048  13.557
31343W        W 3069  21.486   7.626   3.087
31344W        W 3070  20.055   9.262  13.678
31345W        W 3071  36.465  11.661  12.893
31346W        W 3072   1.645   0.791   0.157
31347W        W 3073   6.072  17.626   1.176
31348W        W 3074  24.932  41.254  10.654
31349W        W 3075  26.672  32.941  13.822
31350W        W 3076  30.530  19.204   1.865
31351W        W 3077  18.559  39.839  13.872
31352W        W 3078  28.078  22.410   3.780
31353W        W 3079  13.835  14.273  13.544
31354W        W 3080  25.492  37.873  11.755
31355W        W 3081  10.242  40.423  13.138
31356W        W 3082  42.466  38.351   1.168
31357W        W 3083  34.982  35.605  13.902
31358W        W 3084   1.290  31.025  11.546
31359W        W 3085   0.853   9.150  14.060
31360W        W 3086  37.695   0.302  10.580
31361W        W 3087   4.086  27.626  13.909
31362W        W 3088  42.485  35.596   1.665
31363W        W 3089  33.035  38.884   4.824
31364W        W 3090  28.552  31.127   4.582
31365W        W 3091  39.360   4.913   4.691
31366W        W 3092   4.466  16.626   4.605
31367W        W 3093  22.845  18.195  12.502
31368W        W 3094  44.782  18.186  10.910
31369W        W 3095  15.217  13.889   1.428
31370W        W 3096   3.252  25.069  11.759
31371W        W 3097   1.387   6.090   0.775
31372W        W 3098  13.883  41.204   3.263
31373W        W 3099  21.170  24.822  11.077
31374W        W 3100  38.296  32.409   0.222
31375W        W 3101   9.114   4.514   3.278
31376W        W 3102   0.042  24.739  12.992
31377W        W 3103  23.541  31.294   4.504
31378W        W 3104  41.789  25.906   2.777
31379W        W 3105  32.421  43.522   4.283
31380W        W 3106  14.838  19.185   4.238
31381W        W 3107  17.139  14.734  11.419
31382W        W 3108   3.215  16.228  10.475
31383W        W 3109   8.325   5.346   1.696
31384W        W 3110  36.834  39.731  12.138
31385W        W 3111  43.718  42.253   3.981
31386W        W 3112  42.354   6.729  10.467
31387W        W 3113  10.185   8.986  13.338
31388W        W 3114  34.338  27.419   2.901
31389W        W 3115  18.752  37.035  12.436
31390W        W 3116  40.032  36.531  12.547
31391W        W 3117   0.041  27.115   2.692
31392W        W 3118  26.956  15.889   3.725
31393W        W 3119  24.144   8.664   3.613
31394W        W 3120  42.334  28.966  14.447
31395W        W 3121  42.042  22.019   4.150
31396W        W 3122  21.109  29.599   4.604
31397W        W 3123  22.561  24.206  11.594
31398W        W 3124  12.860   0.386   4.463
31399W        W 3125  23.653  44.293   3.759
31400W        W 3126  44.947  28.475   4.219
31401W        W 3127  40.998  18.990  13.852
31402W        W 3128  17.501   9.376   0.375
31403W        W 3129  40.078  37.350   3.724
31404W        W 3130  13.885  37.543  11.241
31405W        W 3131  43.326  20.753  11.057
31406W        W 3132   0.865   9.917  13.045
31407W        W 3133  17.806  15.588   3.270
31408W        W 3134  34.776  15.092  13.368
31409W        W 3135  27.680  11.442   4.738
31410W        W 3136  37.861  43.477  10.702
31411W        W 3137  13.320  27.308   0.993
31412W        W 3138  19.838   8.816  14.408
31413W        W 3139  14.043  32.698   3.117
31414W        W 3140  43.328  39.517  12.039
31415W        W 3141  44.387  40.089  13.636
31416W        W 3142  35.588  15.411   1.721
31417W        W 3143   4.985   4.293  11.669
31418W        W 3144  36.617  27.179  13.491
31419W        W 3145  31.512  12.744   1.669
31420W        W 3146  28.323  28.515  10.109
31421W        W 3147  31.098  38.599  11.619
31422W        W 3148  28.885  22.828  11.030
31423W        W 3149  23.532  19.571   0.929
31424W        W 3150   7.738  22.548  11.718
31425W        W 3151   1.293  33.930  10.616
31426W        W 3152  21.258  20.628  14.343
31427W        W 3153   9.660  11.392  13.948
31428W        W 3154  21.988  44.411  14.820
31429W        W 3155  13.656  25.062   2.714
31430W        W 3156  20.063  12.412   3.344
31431W        W 3157  26.554  10.149   3.565
31432W        W 3158  25.957  43.016  13.348
31433W        W 3159   4.039  18.933   2.370
31434W        W 3160  18.601  11.803   1.666
31435W        W 3161  38.810  44.468  12.336
31436W        W 3162  12.984  11.582  11.126
31437W        W 3163  30.972  42.155  11.377
31438W        W 3164  13.778  27.179  11.563
31439W        W 3165   8.396  22.149   4.183
31440W        W 3166  11.936   3.410   2.834
31441W        W 3167  21.711  17.673   4.241
31442W        W 3168  44.838  36.367  12.558
31443W        W 3169   2.986  30.610   2.249
31444W        W 3170  33.482  13.065   3.292
31445W        W 3171   8.070  15.691   2.761
31446W        W 3172  39.311  11.607  12.903
31447W        W 3173   2.742   6.363  13.510
31448W        W 3174  36.457  14.235   0.200
31449W        W 3175  18.957  43.897  11.061
31450W        W 3176  26.080   3.770  13.355
31451W        W 3177  24.957  30.879  14.975
31452W        W 3178   6.617  23.602   0.946
31453W        W 3179  44.452  22.941   0.384
31454W        W 3180  42.187  34.439  13.515
31455W        W 3181  19.756  26.071  11.571
31456W        W 3182   7.287  32.860   0.279
31457W        W 3183  23.311  14.714   4.956
31458W        W 3184  26.729  13.873  10.577
31459W        W 3185  27.049   6.489  13.453
31460W        W 3186  12.733  29.595   4.752
31461W        W 3187  30.580  17.868   1.023
31462W        W 3188  42.916  34.342   1.266
31463W        W 3189  43.398  38.370   0.750
31464W        W 3190  32.619   8.739   2.268
31465W        W 3191  22.433   0.534  11.163
31466W        W 3192  17.588  11.096   2.733
31467W        W 3193  13.844   0.703   4.606
31468W        W 3194  34.715  40.898   2.312
31469W        W 3195  12.729  14.676  11.805
31470W        W 3196  21.704  31.169   2.872
31471W        W 3197   2.706  26.516  14.460
31472W        W 3198   1.301  10.248  11.696
31473W        W 3199  40.393  28.042   1.674
31474W        W 3200  41.276  14.208  11.983
31475W        W 3201  20.290  19.160   0.335
31476W        W 3202  42.837  37.251   0.329
31477W        W 3203  22.031  41.847   3.120
31478W        W 3204   0.820  39.891  13.646
31479W        W 3205  32.357   5.619   0.693
31480W        W 3206  34.038  24.717  11.627
31481W        W 3207   3.034  36.698  12.462
31482W        W 3208  15.836  28.716   2.845
31483W        W 3209  14.266   7.184   4.626
31484W        W 3210  26.237  23.278   1.245
31485W        W 3211  26.645  12.630  14.379
31486W        W 3212  13.677  32.510  10.573
31487W        W 3213  31.168  27.393  10.578
31488W        W 3214  27.074  21.725   3.128
31489W        W 3215  22.005   7.025  12.563
31490W        W 3216  42.433  16.449  13.388
31491W        W 3217  36.297  12.288  11.492
31492W        W 3218  36.423  28.444  11.993
31493W        W 3219  33.117   0.480  13.789
31494W        W 3220   6.154  21.155   3.775
31495W        W 3221  35.754  41.518  12.636
31496W        W 3222  21.647  28.833  11.460
31497W        W 3223   4.831  40.394   2.631
31498W        W 3224  27.015  25.479   0.834
31499W        W 3225  16.120  12.581   2.750
31500W        W 3226  41.841  15.650  13.568
31501W        W 3227   2.261  23.912   1.225
31502W        W 3228  19.266  14.396  13.358
31503W        W 3229  16.052  39.079  11.060
31504W        W 3230  13.400  27.338   3.779
31505W        W 3231  42.334  30.097  14.353
31506W        W 3232  17.699  34.153   1.287
31507W        W 3233   6.629  25.460  13.860
31508W        W 3234   5.356   9.246   2.097
31509W        W 3235   9.636  26.115   2.897
31510W        W 3236  12.778  42.907   0.776
31511W        W 3237   2.018  33.641   2.711
31512W        W 3238  23.743   5.326  10.443
31513W        W 3239   9.252  29.651   2.303
31514W        W 3240  44.829  18.045   1.100
31515W        W 3241   9.702  39.064   4.686
31516W        W 3242  11.734   1.497   4.203
31517W        W 3243  25.353   4.189   1.718
31518W        W 3244  20.730  32.513  10.535
31519W        W 3245  35.568  16.329   0.609
31520W        W 3246  44.458   4.598   1.550
31521W        W 3247  34.368  14.768   4.703
31522W        W 3248  24.603  12.692   4.127
31523W        W 3249  25.364  20.169  12.511
31524W        W 3250  33.070  37.892  12.003
31525W        W 3251  16.159  43.753   2.927
31526W        W 3252  14.603  21.759  13.406
31527W        W 3253  35.886   0.704  14.521
31528W        W 3254   6.331  32.048  13.841
31529W        W 3255  40.858   3.764   3.349
31530W        W 3256  33.363   6.171  11.471
31531W        W 3257  40.883  28.518   2.727
31532W        W 3258  26.595  43.951  13.932
31533W        W 3259  23.050   6.780   4.074
31534W        W 3260   8.623  37.869  14.331
31535W        W 3261   9.268  29.141  13.871
31536W        W 3262   9.744   2.496  11.468
31537W        W 3263  39.450  15.488   0.847
31538W        W 3264   0.807  10.894  10.746
31539W        W 3265  43.293  12.946   1.755
31540W        W 3266  20.929  34.677  12.194
31541W        W 3267  40.455   9.195  13.942
31542W        W 3268  35.957  18.384  12.878
31543W        W 3269   2.274  33.926  11.595
31544W        W 3270  29.842  15.120  12.521
31545W        W 3271   8.317  21.714   2.451
31546W        W 3272  36.345  42.644  14.926
31547W        W 3273  40.804  38.446  11.276
31548W        W 3274   7.379  29.023   0.903
31549W        W 3275  24.736  36.781  11.953
31550W        W 3276  43.341  37.224  11.102
31551W        W 3277  26.171  32.631  14.272
31552W        W 3278  28.909  17.809   1.796
31553W        W 3279  32.397  43.906  13.498
31554W        W 3280  19.165   8.739  11.461
31555W        W 3281  23.586  17.661  13.992
31556W        W 3282   5.905   9.761   1.741
31557W        W 3283  19.282  35.607   3.232
31558W        W 3284  40.227  15.833  11.467
31559W        W 3285  17.834  35.326  10.496
31560W        W 3286  32.869  42.579  12.387
31561W        W 3287   3.497  26.631  12.503
31562W        W 3288   4.624  31.851  13.033
31563W        W 3289  14.623  27.006  12.126
31564W        W 3290  23.599   2.857   0.540
31565W        W 3291  43.280   0.092  14.881
31566W        W 3292  22.125  12.891   5.403
31567W        W 3293  38.939  10.681   4.144
31568W        W 3294  36.572  30.161   0.374
31569W        W 3295  24.613   1.798  14.515
31570W        W 3296  10.919  25.166   1.737
31571W        W 3297   7.460  10.242  14.552
31572W        W 3298   5.244   2.461   0.290
31573W        W 3299  17.068  27.226  13.793
31574W        W 3300  27.594  30.501   2.898
31575W        W 3301   9.767  40.540   2.499
31576W        W 3302   5.390  24.721   1.145
31577W        W 3303   8.908  31.150   0.697
31578W        W 3304   7.532  30.214   1.651
31579W        W 3305  28.090  35.455  13.518
31580W        W 3306  17.825   9.192  12.548
31581W        W 3307  29.952  24.740   5.022
31582W        W 3308  20.533  17.742   0.283
31583W        W 3309  33.650  41.756  14.993
31584W        W 3310  42.545   0.461  13.024
31585W        W 3311  16.650  14.382   1.346
31586W        W 3312  13.769  10.959  13.044
31587W        W 3313  25.150  21.900  12.897
31588W        W 3314  36.491  33.261   4.120
31589W        W 3315   4.578  22.479   4.633
31590W        W 3316   3.791  24.027   2.621
31591W        W 3317  24.085   6.994   2.436
31592W        W 3318   7.258  13.174  11.580
31593W        W 3319  20.749  39.995  11.539
31594W        W 3320   6.162  35.060   3.655
31595W        W 3321  16.527  37.938   9.824
31596W        W 3322  14.489  42.052  14.272
31597W        W 3323  14.358  32.147  11.980
31598W        W 3324  28.547   4.386   0.386
31599W        W 3325  40.695  16.624   1.294
31600W        W 3326  22.113   9.655   0.832
31601W        W 3327   9.671  30.206   4.625
31602W        W 3328  40.472  26.627   1.879
31603W        W 3329  42.824  40.852  11.706
31604W        W 3330  18.736  13.590   3.778
31605W        W 3331  39.831  21.046  10.670
31606W        W 3332  38.431  33.980   1.021
31607W        W 3333  34.135  44.460   4.140
31608W        W 3334  32.092  12.258  12.315
31609W        W 3335   4.303  19.865   0.531
31610W        W 3336  13.724   2.490   4.540
31611W        W 3337  21.190  44.995  13.303
31612W        W 3338  34.226   9.477   2.379
31613W        W 3339  16.763   6.096   2.686
31614W        W 3340  21.964   2.467  13.496
31615W        W 3341  33.369  16.550  10.306
31616W        W 3342  40.866  44.782   0.311
31617W        W 3343  30.356  25.128   2.744
31618W        W 3344  21.579  44.795   1.700
31619W        W 3345   2.819  41.870  14.558
31620W        W 3346   9.887   1.342   1.235
31621W        W 3347   3.440  20.073   3.565
31622W        W 3348  28.123  34.471  13.513
31623W        W 3349  40.523  14.783  12.058
31624W        W 3350  27.161  17.701  10.533
31625W        W 3351  26.200  12.239   1.974
31626W        W 3352  20.695  30.132  14.963
31627W        W 3353  29.425  16.695   4.667
31628W        W 3354  44.924  29.814   3.496
31629W        W 3355  11.473   5.134  10.318
31630W        W 3356  16.573  29.300   3.874
31631W        W 3357  26.083  41.145  13.451
31632W        W 3358  10.263   0.599   2.150
31633W        W 3359   5.960  20.831  10.950
31634W        W 3360  22.917   1.914   1.870
31635W        W 3361  33.637   7.283   2.656
31636W        W 3362   0.369  10.098  13.441
31637W        W 3363  12.889  13.851  14.936
31638W        W 3364  33.703  37.912   0.800
31639W        W 3365   9.676   5.835   2.279
31640W        W 3366  23.168  13.827   0.281
31641W        W 3367  10.169  22.296  11.960
31642W        W 3368  11.071  40.925  14.495
31643W        W 3369  26.340  39.144   5.021
31644W        W 3370  32.462   2.957  14.802
31645W        W 3371  36.843  30.897   3.297
31646W        W 3372  22.731   1.217  14.838
31647W        W 3373  20.142  41.878  12.528
31648W        W 3374  40.821  22.991   3.747
31649W        W 3375  27.879   2.418   2.169
31650W        W 3376  23.007   4.231  12.195
31651W        W 3377  11.632  28.387  10.698
31652W        W 3378  16.783  18.689   3.434
31653W        W 3379  39.869   3.481   2.895
31654W        W 3380  34.855  41.806  14.579
31655W        W 3381  21.938  29.567  12.852
31656W        W 3382  35.943  26.474   3.969
31657W        W 3383  28.023  43.496   4.618
31658W        W 3384  39.514  31.027   1.635
31659W        W 3385  38.954   7.795  11.457
31660W        W 3386  35.286  15.033   0.955
31661W        W 3387  41.493   9.804  10.511
31662W        W 3388  36.399   0.720  12.446
31663W        W 3389  24.893  11.909  14.003
31664W        W 3390  34.616   7.402  11.619
31665W        W 3391  20.239   9.684  12.996
31666W        W 3392  26.129  11.983   2.472
31667W        W 3393  24.919  40.038   3.330
31668W        W 3394  32.938  40.011  11.004
31669W        W 3395   2.373  40.916  10.803
31670W        W 3396  39.805  37.609  12.415
31671W        W 3397  11.255  14.617  13.941
31672W        W 3398  32.818  25.723   2.414
31673W        W 3399  38.906  32.228  12.482
31674W        W 3400  35.294  32.622   4.552
31675W        W 3401  40.979  43.041   3.891
31676W        W 3402  27.874  34.590  13.016
31677W        W 3403   7.747  19.062  14.022
31678W        W 3404  31.990  25.418   5.060
31679W        W 3405   4.767   4.363   1.413
31680W        W 3406  26.106  28.650  13.362
31681W        W 3407  40.985   5.944   1.274
31682W        W 3408  33.401  11.365   4.512
31683W        W 3409  26.688  36.418   2.503
31684W        W 3410  44.752  24.978  13.398
31685W        W 3411   2.416  30.337  14.966
31686W        W 3412  14.289  10.006   3.223
31687W        W 3413  22.496  41.227  12.968
31688W        W 3414   3.273  30.379   3.201
31689W        W 3415  31.523   4.147   1.382
31690W        W 3416  34.966   8.690  14.532
31691W        W 3417  34.824  42.291   3.826
31692W        W 3418  16.886  40.356  14.839
31693W        W 3419   6.780  16.330   0.294
31694W        W 3420  33.529   0.031   4.627
31695W        W 3421  31.947  22.764  13.920
31696W        W 3422  29.490  17.165  10.657
31697W        W 3423  11.849  40.982  14.985
31698W        W 3424  38.468  33.416   0.474
31699W        W 3425  22.727  28.004   0.351
31700W        W 3426   0.272   0.409   3.553
31701W        W 3427  26.372  25.587  11.072
31702W        W 3428  35.812   6.439  13.584
31703W        W 3429  29.056  15.088  13.066
31704W        W 3430  31.115  26.173   0.201
31705W        W 3431  18.136  36.531   4.691
31706W        W 3432   3.727  23.066  10.500
31707W        W 3433  10.557  32.363   4.244
31708W        W 3434  24.839  19.919   3.286
31709W        W 3435   3.232  26.183  12.457
31710W        W 3436  37.907  24.992  14.744
31711W        W 3437  38.156  43.268   2.782
31712W        W 3438  43.681  39.270   2.102
31713W        W 3439  12.133  19.631   4.203
31714W        W 3440  27.554  27.306  12.552
31715W        W 3441  20.075  31.171   1.264
31716W        W 3442  42.412  39.811   1.377
31717W        W 3443   7.041   6.368   0.385
31718W        W 3444   8.998  26.558  10.885
31719W        W 3445  16.734  18.546   2.500
31720W        W 3446  29.398   2.396   2.262
31721W        W 3447   3.723  33.553  12.043
31722W        W 3448  29.613  24.360  13.796
31723W        W 3449  31.331   3.479   2.154
31724W        W 3450  19.031  37.928   3.589
31725W        W 3451  16.269  26.758  10.665
31726W        W 3452  35.881  17.624   1.961
31727W        W 3453  20.683  27.594   4.581
31728W        W 3454  36.574   9.011  12.370
31729W        W 3455  38.481  34.349  11.555
31730W        W 3456  20.666  21.920  14.460
31731W        W 3457  16.140  36.245   2.596
31732W        W 3458  10.341  37.379  12.103
31733W        W 3459  12.718  18.105   3.224
31734W        W 3460   9.259  34.856  14.079
31735W        W 3461  26.134  30.641   1.498
31736W        W 3462  24.925  38.546  14.379
31737W        W 3463  44.954  36.322  13.380
31738W        W 3464  40.460  31.330   1.358
31739W        W 3465  15.271   0.774   4.380
31740W        W 3466  26.049   7.314  14.268
31741W        W 3467  17.764  31.556  13.493
31742W        W 3468  40.043   9.798  10.572
31743W        W 3469   1.771   2.349   3.795
31744W        W 3470  36.652  21.725   0.710
31745W        W 3471  30.000  29.377  12.511
31746W        W 3472  38.565  27.740  13.753
31747W        W 3473   8.253   6.825  14.053
31748W        W 3474  27.203  19.651  14.997
31749W        W 3475  25.781  44.188   3.770
31750W        W 3476   8.449  43.052   0.786
31751W        W 3477  17.121   8.447  10.709
31752W        W 3478  18.575  38.505   3.208
31753W        W 3479  18.729   4.453   0.297
31754W        W 3480  23.498  27.155   0.216
31755W        W 3481  41.079  30.443   1.943
31756W        W 3482   8.221  20.373  11.300
31757W        W 3483  12.726  37.435  13.584
31758W        W 3484  10.037  42.862   3.309
31759W        W 3485  32.038  14.673  13.858
31760W        W 3486  32.554  18.408  14.490
31761W        W 3487   9.911  42.842   0.882
31762W        W 3488   6.841  37.279   3.687
31763W        W 3489  36.640  29.413  13.234
31764W        W 3490  23.477   0.618   3.643
31765W        W 3491   1.192  41.541   2.538
31766W        W 3492  27.375  22.601  11.821
31767W        W 3493   6.629   0.819  11.812
31768W        W 3494  30.019  21.408   2.865
31769W        W 3495  17.163  39.550   4.626
31770W        W 3496  27.493  37.478  12.888
31771W        W 3497   3.277  33.765   4.260
31772W        W 3498  11.497  17.044  14.244
31773W        W 3499  36.554   7.225   1.091
31774W        W 3500   8.314  37.460  14.429
31775W        W 3501  15.203  24.314   2.357
31776W        W 3502  19.665   5.839  13.337
31777W        W 3503  10.837  44.272  10.239
31778W        W 3504   7.925   9.731  13.379
31779W        W 3505  38.220  19.178   2.476
31780W        W 3506   2.178  36.483   1.291
31781W        W 3507  34.079  26.078  14.774
31782W        W 3508  11.674  42.180   3.717
31783W        W 3509  44.702   2.348  12.570
31784W        W 3510   3.182  38.377   0.878
31785W        W 3511  38.687  12.903   0.924
31786W        W 3512  36.849  33.921  11.173
31787W        W 3513  15.646  33.099  12.872
31788W        W 3514   8.011   4.252   2.808
31789W        W 3515  12.807  28.616   3.162
31790W        W 3516   1.491  14.125  11.539
31791W        W 3517  35.880  12.090   2.852
31792W        W 3518  34.237  42.467  10.230
31793W        W 3519  24.608  23.745   1.202
31794W        W 3520  32.954   8.756   4.523
31795W        W 3521   5.693   6.789  11.364
31796W        W 3522  42.732   8.886  12.564
31797W        W 3523  18.540  27.111  10.767
31798W        W 3524  41.413  17.717   3.713
31799W        W 3525  17.774  41.257  11.621
31800W        W 3526  13.127  14.024  12.622
31801W        W 3527   6.593  19.986  11.071
31802W        W 3528  31.008  22.701  11.472
31803W        W 3529   0.517  11.142   1.350
31804W        W 3530  10.282  23.545   4.770
31805W        W 3531   3.166  16.364   3.706
31806W        W 3532  36.114  20.124   2.482
31807W        W 3533  17.481  38.748  10.596
31808W        W 3534  31.519  21.289  13.482
31809W        W 3535  17.421  21.244  13.160
31810W        W 3536  18.297  17.374  11.036
31811W        W 3537  24.855   4.341   0.301
31812W        W 3538  29.673  21.075   1.741
31813W        W 3539  17.206  19.675  13.020
31814W        W 3540  20.061  23.891  14.823
31815W        W 3541  40.757  14.306  12.108
31816W        W 3542  20.470  44.323   4.532
31817W        W 3543   8.172   5.227   2.444
31818W        W 3544  34.911  19.297  13.508
31819W        W 3545  27.676  18.140   4.594
31820W        W 3546  20.673   0.432  13.308
31821W        W 3547  21.716   6.217  13.047
31822W        W 3548  15.133  24.542  12.332
31823W        W 3549  28.986   4.755   0.072
31824W        W 3550  38.977  19.295   1.835
31825W        W 3551   5.229  18.017   4.228
31826W        W 3552  44.487  23.080   2.189
31827W        W 3553  44.703  26.105   1.692
31828W        W 3554   8.883  27.028  10.708
31829W        W 3555  42.268   2.900   4.887
31830W        W 3556   5.184  39.234   2.246
31831W        W 3557  15.676  36.491   2.643
31832W        W 3558  12.011  18.581   3.398
31833W        W 3559  14.949   2.981  10.686
31834W        W 3560  11.879  11.419  13.374
31835W        W 3561  10.169  34.568  12.923
31836W        W 3562   2.778  15.155  13.887
31837W        W 3563  12.307   8.372   4.663
31838W        W 3564  38.415   3.256  14.880
31839W        W 3565   8.793  18.294  14.454
31840W        W 3566  36.905  26.231   1.210
31841W        W 3567  38.271  32.817   3.603
31842W        W 3568   1.502  31.200  11.082
31843W        W 3569  14.594  10.485  14.587
31844W        W 3570  10.809  41.313   2.264
31845W        W 3571  22.678  17.317   1.263
31846W        W 3572   9.316  12.815  12.508
31847W        W 3573  19.985  15.785   3.670
31848W        W 3574  39.218   8.239   2.231
31849W        W 3575  25.404  38.091  13.538
31850W        W 3576  10.314   4.994  13.222
31851W        W 3577  31.089  34.135  11.214
31852W        W 3578  43.446   2.417   4.520
31853W        W 3579  33.843  12.593   3.235
31854W        W 3580  21.197  15.027  12.008
31855W        W 3581   4.363  31.622   4.151
31856W        W 3582  29.815  23.365  13.954
31857W        W 3583   8.129  19.661  11.487
31858W        W 3584  19.883  31.332   3.164
31859W        W 3585  23.435  44.726  12.527
31860W        W 3586  10.510  44.808   2.849
31861W        W 3587  21.299   6.884  13.465
31862W        W 3588  30.899  36.603  11.989
31863W        W 3589   4.267   2.279  12.810
31864W        W 3590   6.490  11.129   0.868
31865W        W 3591  27.502  15.276  13.796
31866W        W 3592  18.542  19.797   2.839
31867W        W 3593  18.404   4.535  10.064
31868W        W 3594  25.473  17.669  10.756
31869W        W 3595  13.555  13.137  12.448
31870W        W 3596  41.169  25.174   1.295
31871W        W 3597  38.057  30.946  13.026
31872W        W 3598  19.211   8.075  10.794
31873W        W 3599  39.944  23.108  12.652
31874W        W 3600  12.391  15.227  14.051
31875W        W 3601  29.372  33.404  13.202
31876W        W 3602  15.606  29.275  14.017
31877W        W 3603  39.488  36.622  14.473
31878W        W 3604   2.860  12.732  13.791
31879W        W 3605  11.843  34.621   4.110
31880W        W 3606  19.252   0.909   4.513
31881W        W 3607  44.595  24.135   2.368
31882W        W 3608  41.040  15.919   3.746
31883W        W 3609  25.392   4.306  11.940
31884W        W 3610  14.934  16.784   2.439
31885W        W 3611  30.084  29.181   1.963
31886W        W 3612  29.935  17.729   0.848
31887W        W 3613   1.582   5.234  12.077
31888W        W 3614   4.530  17.155   2.083
31889W        W 3615  18.128  42.525   3.497
31890W        W 3616  32.596  31.956  11.448
31891W        W 3617  13.143   4.219  11.590
31892W        W 3618  31.369  34.134   2.215
31893W        W 3619   4.298  27.127  11.138
31894W        W 3620  24.985  13.727  11.444
31895W        W 3621  10.446  40.705  11.614
31896W        W 3622   8.295  31.561  14.374
31897W        W 3623  36.546   3.446   2.599
31898W        W 3624   2.558  16.669   1.831
31899W        W 3625   7.529   0.524   3.741
31900W        W 3626  27.738  36.842   4.091
31901W        W 3627   7.401  15.629  11.903
31902W        W 3628  22.021   5.757  13.734
31903W        W 3629   7.665  19.777   1.296
31904W        W 3630  10.406  25.631   3.340
31905W        W 3631  41.872  12.376   1.814
31906W        W 3632   0.796  39.460  12.793
31907W        W 3633  37.155  34.910   4.743
31908W        W 3634   5.018  14.287   0.327
31909W        W 3635  31.794  22.106  11.804
31910W        W 3636   3.737  14.805   3.535
31911W        W 3637   6.207   2.860   3.652
31912W        W 3638  10.043   3.061  11.105
31913W        W 3639   4.967  38.497  14.983
31914W        W 3640  42.304  18.674   3.273
31915W        W 3641   1.766  35.657   0.347
31916W        W 3642  11.617   4.416   4.801
31917W        W 3643   0.508  25.132   4.276
31918W        W 3644  18.087  41.000   0.245
31919W        W 3645  23.255  21.147   0.375
31920W        W 3646  43.806  35.819   4.147
31921W        W 3647   7.829  19.181   3.647
31922W        W 3648   5.885  35.493  13.518
31923W        W 3649  41.542  35.501  12.443
31924W        W 3650   4.215  36.508   2.792
31925W        W 3651  16.780   7.029   0.296
31926W        W 3652  14.892  15.568   3.307
31927W        W 3653  11.729   5.455   2.672
31928W        W 3654  23.721   4.280   3.373
31929W        W 3655  34.862  15.330   0.781
31930W        W 3656  44.899  31.847  14.359
31931W        W 3657  27.664  21.568   4.935
31932W        W 3658  41.838  16.765  13.988
31933W        W 3659  23.675  13.334   1.658
31934W        W 3660  16.746  13.777   4.786
31935W        W 3661  25.219  29.431  11.163
31936W        W 3662  11.694  24.472  10.021
31937W        W 3663   1.625  42.744  12.121
31938W        W 3664   6.355   6.000  12.894
31939W        W 3665   2.274  18.788  10.711
31940W        W 3666  36.160  33.528   2.150
31941W        W 3667   9.549   9.739  14.037
31942W        W 3668  14.370  18.749   3.245
31943W        W 3669  31.897  35.105   0.927
31944W        W 3670   3.354  25.182  14.612
31945W        W 3671  44.457  29.019   0.398
31946W        W 3672  22.658  23.023  11.977
31947W        W 3673  25.794   4.196   2.590
31948W        W 3674   9.361  41.954   0.442
31949W        W 3675   4.182   9.315  11.488
31950W        W 3676   4.215  38.477   3.900
31951W        W 3677  35.010  14.671   3.381
31952W        W 3678  10.624   8.420   2.042
31953W        W 3679   1.266  43.038  14.097
31954W        W 3680  15.146   8.406   4.585
31955W        W 3681  16.147   5.535   2.730
31956W        W 3682   9.223  33.404  14.294
31957W        W 3683  35.082  33.421   3.248
31958W        W 3684   8.669  38.762  14.124
31959W        W 3685  22.065  12.810  11.198
31960W        W 3686  43.899  35.559   3.594
31961W        W 3687  21.381  21.978  11.183
31962W        W 3688  11.598  34.053   3.136
31963W        W 3689   4.596   2.339   1.502
31964W        W 3690  34.939  36.869   4.693
31965W        W 3691  11.788   5.780  10.250
31966W        W 3692  21.101   3.382  12.764
31967W        W 3693  23.177  38.806  10.672
31968W        W 3694  18.980  20.499   1.203
31969W        W 3695  40.068  22.243  11.289
31970W        W 3696  16.666  37.901   5.386
31971W        W 3697  33.420  32.040  14.696
31972W        W 3698  14.620  12.087  11.337
31973W        W 3699  12.779  11.820   1.739
31974W        W 3700   1.782  40.945  14.497
31975W        W 3701   7.962  22.238   4.524
31976W        W 3702  11.669  15.150   3.921
31977W        W 3703  22.814  41.866   1.756
31978W        W 3704   6.998   6.328   2.874
31979W        W 3705   9.032  23.005   3.748
31980W        W 3706  21.404  17.706   3.795
31981W        W 3707  27.029  35.185   2.088
31982W        W 3708  17.724   1.968  10.673
31983W        W 3709  18.264  29.323   3.422
31984W        W 3710   6.488  35.994   3.724
31985W        W 3711  24.002  35.103   3.380
31986W        W 3712  13.863  19.133   4.527
31987W        W 3713  14.338  22.578   4.749
31988W        W 3714   8.917  33.516   1.542
31989W        W 3715  13.701  30.603  14.887
31990W        W 3716  27.997   9.559  11.930
31991W        W 3717  27.207   3.891   3.337
31992W        W 3718  32.385   9.944  13.862
31993W        W 3719  26.103   9.643   1.356
31994W        W 3720  26.512  17.585   3.247
31995W        W 3721  43.061  40.453   2.476
31996W        W 3722  29.714  29.019   2.909
31997W        W 3723  43.985  14.363  10.777
31998W        W 3724  18.494   7.850  13.201
31999W        W 3725  32.655   8.306  14.327
32000W        W 3726  14.939  31.880   0.067
32001W        W 3727  35.549  26.259   0.205
32002W        W 3728  16.019  23.998  10.218
32003W        W 3729  25.562   8.504  11.039
32004W        W 3730  41.458  10.143  12.691
32005W        W 3731  34.067  17.169  13.585
32006W        W 3732  41.880   7.753  13.491
32007W        W 3733  25.284  44.768  12.751
32008W        W 3734  28.432  35.096   0.918
32009W        W 3735   2.306  41.989   4.209
32010W        W 3736  10.189  25.382  14.366
32011W        W 3737  29.482   0.928  14.080
32012W        W 3738  10.656  36.146   5.574
32013W        W 3739  22.603  16.075   0.926
32014W        W 3740  32.138  33.617   0.992
32015W        W 3741  43.439  17.319  14.989
32016W        W 3742  16.680  32.280   5.115
32017W        W 3743  28.000  29.365   5.023
32018W        W 3744  25.288   2.607   1.748
32019W        W 3745  24.181  43.309   2.439
32020W        W 3746  21.116  18.891   4.132
32021W        W 3747  42.499   1.027   2.732
32022W        W 3748  10.338   8.203   2.956
32023W        W 3749  41.061   5.117  14.455
32024W        W 3750  38.274  41.722  11.014
32025W        W 3751   8.411  31.488  12.002
32026W        W 3752  37.952  31.123   2.650
32027W        W 3753  10.367  22.943   4.149
32028W        W 3754  13.374  17.078  13.174
32029W        W 3755  30.701  29.385  10.627
32030W        W 3756   1.493  35.201  11.596
32031W        W 3757  16.371  13.922  12.013
32032W        W 3758   4.996   3.216   3.657
32033W        W 3759  20.269  39.379   2.487
32034W        W 3760  36.766  21.207   4.447
32035W        W 3761  10.909  34.071   0.016
32036W        W 3762  19.505   0.168   2.305
32037W        W 3763  21.677  19.745   4.862
32038W        W 3764   8.389  24.076   5.041
32039W        W 3765  33.602  26.246  14.960
32040W        W 3766  36.005   5.846  14.928
32041W        W 3767   0.778  43.660  12.454
32042W        W 3768  29.435  35.924   0.684
32043W        W 3769   3.920  43.543  11.551
32044W        W 3770  22.944  32.472   4.224
32045W        W 3771   9.955   2.468  10.471
32046W        W 3772  30.532  11.415   4.742
32047W        W 3773  11.134  23.970  14.874
32048W        W 3774  11.070  13.524  13.109
32049W        W 3775  38.760  10.675   2.242
32050W        W 3776  16.515   5.860  13.521
32051W        W 3777  15.111  31.494   4.590
32052W        W 3778  29.037  29.212  12.409
32053W        W 3779  12.864  26.479  12.012
32054W        W 3780  17.974   5.344  12.361
32055W        W 3781  19.349  14.550   3.412
32056W        W 3782   4.272  41.507  13.956
32057W        W 3783  31.869   3.287  10.975
32058W        W 3784  10.246  44.670   4.949
32059W        W 3785  20.996  36.088  11.175
32060W        W 3786   7.745  12.201  14.562
32061W        W 3787   6.706  20.693  11.671
32062W        W 3788   5.977  17.638   4.696
32063W        W 3789  28.943  24.683   2.889
32064W        W 3790   2.440  42.777   3.236
32065W        W 3791   4.414   2.393  12.331
32066W        W 3792  14.133  13.408   3.541
32067W        W 3793   6.825  28.597  10.577
32068W        W 3794  43.033  26.013   3.771
32069W        W 3795  25.024  39.368   4.281
32070W        W 3796  29.427  26.705   2.210
32071W        W 3797  23.328  35.376   4.242
32072W        W 3798   2.579  10.737  13.923
32073W        W 3799  14.880  28.711  10.868
32074W        W 3800  13.007  42.819   4.514
32075W        W 3801  10.024  44.790   0.938
32076W        W 3802  31.105   5.182  14.863
32077W        W 3803  29.981  17.854   4.470
32078W        W 3804  35.606  39.319  10.585
32079W        W 3805   4.674   0.871  12.363
32080W        W 3806  32.787  39.208   1.719
32081W        W 3807  15.353  20.699   1.285
32082W        W 3808  32.472  35.825  11.958
32083W        W 3809   2.759   2.543   4.716
32084W        W 3810  22.561  30.203  12.303
32085W        W 3811  14.274  22.109  13.585
32086W        W 3812  38.380  44.866   2.968
32087W        W 3813  44.965  27.356  14.944
32088W        W 3814  44.002   9.154  10.830
32089W        W 3815  33.194   9.215   4.397
32090W        W 3816   3.721   5.866  12.430
32091W        W 3817  42.466  37.641   4.265
32092W        W 3818  21.690  41.000   2.459
32093W        W 3819  29.998  36.290  12.880
32094W        W 3820   6.676  43.567  12.474
32095W        W 3821  40.050  14.712   0.991
32096W        W 3822   4.787  21.674  14.502
32097W        W 3823  35.094  26.230   2.809
32098W        W 3824  36.591  10.710  13.017
32099W        W 3825   2.905  37.856   2.659
32100W        W 3826  27.942  19.940   3.337
32101W        W 3827   6.387  17.112   2.369
32102W        W 3828   4.370  25.551   4.108
32103W        W 3829   1.488  24.880  11.952
32104W        W 3830  30.531  18.052  14.078
32105W        W 3831  34.695  14.092  11.011
32106W        W 3832  28.244  25.621  10.391
32107W        W 3833  21.014  23.110  13.055
32108W        W 3834  34.993  17.061  13.447
32109W        W 3835   2.991  24.030  12.525
32110W        W 3836  33.323  34.384   1.685
32111W        W 3837  21.948  41.905   2.623
32112W        W 3838  35.482  43.466   4.768
32113W        W 3839  35.250  34.323  13.505
32114W        W 3840  38.243  27.471  13.474
32115W        W 3841  18.186  20.995   0.220
32116W        W 3842  26.922  31.203  13.931
32117W        W 3843   8.933  33.331   4.222
32118W        W 3844   0.393  30.032   3.622
32119W        W 3845  37.499  13.678   3.114
32120W        W 3846  40.745  24.415   1.764
32121W        W 3847  24.782  34.005  11.504
32122W        W 3848   2.373   9.313   1.762
32123W        W 3849  34.107  21.752  11.011
32124W        W 3850  19.126  22.757  12.862
32125W        W 3851  31.413  14.276   0.785
32126W        W 3852  15.649  11.827  10.657
32127W        W 3853  43.462  38.987   3.410
32128W        W 3854  44.173  23.488  14.332
32129W        W 3855   5.811  18.121   4.546
32130W        W 3856  19.424   7.807  13.521
32131W        W 3857   5.978  11.899  11.947
32132W        W 3858   3.540  28.123   1.938
32133W        W 3859  42.385  15.673   1.802
32134W        W 3860  10.111  36.042   0.545
32135W        W 3861  13.630   6.112  11.627
32136W        W 3862   4.316  10.442   4.360
32137W        W 3863  29.987  10.954   3.574
32138W        W 3864  37.336  17.225  14.438
32139W        W 3865   0.530   7.752   0.605
32140W        W 3866  16.786   5.263  12.869
32141W        W 3867  39.485  35.674   1.786
32142W        W 3868   8.478  18.054  14.801
32143W        W 3869  38.754  29.614  14.555
32144W        W 3870  37.311  29.682  11.986
32145W        W 3871  33.418   5.779  12.184
32146W        W 3872  13.379  15.043  13.866
32147W        W 3873  32.867  10.210   4.087
32148W        W 3874  17.811  34.117   1.802
32149W        W 3875  13.692  33.168   2.654
32150W        W 3876  31.319  23.217   0.979
32151W        W 3877  16.928   2.272  11.235
32152W        W 3878  42.053  25.145  10.579
32153W        W 3879  24.764  39.543   3.282
32154W        W 3880  29.711  31.684   4.121
32155W        W 3881  25.674  36.371  13.993
32156W        W 3882  15.330  33.672  13.013
32157W        W 3883  18.600   1.171   1.494
32158W        W 3884  12.570  21.249  11.109
32159W        W 3885  38.499  38.763   0.749
32160W        W 3886  35.957  32.053  14.705
32161W        W 3887   3.358  30.559  10.696
32162W        W 3888  18.694  44.737   4.662
32163W        W 3889  21.268  22.722  13.520
32164W        W 3890  40.144   2.231   4.493
32165W        W 3891   4.323  19.819  12.387
32166W        W 3892   0.430  38.065   0.120
32167W        W 3893  15.821  38.187  11.913
32168W        W 3894  20.160  30.090  10.695
32169W        W 3895  24.752  14.826  12.465
32170W        W 3896   9.055  20.735  14.602
32171W        W 3897  36.996  43.543   0.061
32172W        W 3898  35.551   5.443   1.034
32173W        W 3899  21.255   4.803  12.530
32174W        W 3900  23.508  16.548   1.337
32175W        W 3901  17.052  35.008   1.760
32176W        W 3902  12.791  19.066   3.778
32177W        W 3903  43.017  26.582  12.072
32178W        W 3904  12.074  14.560   3.637
32179W        W 3905  13.355  39.768   3.168
32180W        W 3906   7.641  23.782   2.386
32181W        W 3907  36.847  10.860  14.388
32182W        W 3908  14.834  36.768  13.031
32183W        W 3909  17.154  19.391  11.202
32184W        W 3910   5.978   8.755   3.838
32185W        W 3911  11.663   2.911   0.922
32186W        W 3912   5.963  43.917   1.975
32187W        W 3913  25.448   6.440   4.706
32188W        W 3914  32.646   4.869  13.003
32189W        W 3915  41.776  14.350  11.495
32190W        W 3916  36.476  20.600  13.772
32191W        W 3917  26.323   9.085   3.219
32192W        W 3918   7.885  18.561   1.909
32193W        W 3919   7.631  26.941   1.204
32194W        W 3920  18.112  40.563   3.425
32195W        W 3921   3.254  44.862  13.292
32196W        W 3922  28.687  13.385   4.212
32197W        W 3923  21.769   3.363   2.793
32198W        W 3924  28.079  20.033   1.220
32199W        W 3925  25.701  19.335  12.351
32200W        W 3926  12.115  38.718  14.484
32201W        W 3927  19.140   5.141  11.110
32202W        W 3928  27.221  12.752   2.324
32203W        W 3929  32.474  15.906  11.549
32204W        W 3930  35.289   2.828  14.350
32205W        W 3931  30.653  15.419   0.780
32206W        W 3932   0.441   2.022   2.291
32207W        W 3933  38.050  25.491  12.464
32208W        W 3934   2.868  19.806  10.643
32209W        W 3935  44.712  11.899  10.741
32210W        W 3936  27.645  24.775   3.174
32211W        W 3937  36.482   4.749  12.987
32212W        W 3938  18.845  14.289   2.402
32213W        W 3939  16.384  28.685   2.956
32214W        W 3940  37.063  31.043   1.390
32215W        W 3941  14.785  25.512   1.959
32216W        W 3942  30.544   9.277  13.356
32217W        W 3943  22.109  41.781   0.039
32218W        W 3944  16.087  14.650   0.844
32219W        W 3945  14.544  24.599  12.293
32220W        W 3946   0.780  42.069   3.651
32221W        W 3947  42.654  10.734  14.717
32222W        W 3948   6.405  29.678   2.336
32223W        W 3949  33.035  31.693  10.981
32224W        W 3950   6.890  17.308  11.708
32225W        W 3951  30.099  38.873   2.365
32226W        W 3952  37.065  22.019  13.995
32227W        W 3953  31.095  13.700   2.827
32228W        W 3954   6.862   2.714  13.816
32229W        W 3955  20.992  38.683   0.479
32230W        W 3956  11.634  28.143  12.914
32231W        W 3957   4.258  23.705  10.515
32232W        W 3958   5.259  18.304   2.802
32233W        W 3959   1.196  39.803  11.129
32234W        W 3960   5.905   6.175   4.380
32235W        W 3961  11.174  39.246  11.577
32236W        W 3962  16.734  11.247   1.564
32237W        W 3963  19.572  13.957   3.806
32238W        W 3964  10.664  33.453  14.298
32239W        W 3965  23.329  38.826  12.485
32240W        W 3966  28.565  15.090  11.827
32241W        W 3967  27.202  19.141  11.953
32242W        W 3968  15.820   4.365  11.209
32243W        W 3969  36.602  14.928  11.107
32244W        W 3970  31.185   3.068  12.767
32245W        W 3971  37.832   9.362  13.466
32246W        W 3972  10.436  36.922  14.205
32247W        W 3973  22.579  27.372  14.422
32248W        W 3974  35.061  44.649  12.126
32249W        W 3975  28.527  15.217   1.404
32250W        W 3976   1.384  16.430   3.888
32251W        W 3977  13.693  34.047  13.939
32252W        W 3978  32.953  10.677   3.858
32253W        W 3979  35.476  26.637   4.138
32254W        W 3980   2.384  43.168  10.871
32255W        W 3981  23.970  17.091  12.938
32256W        W 3982  34.083  27.710  14.789
32257W        W 3983  42.843  30.195  11.466
32258W        W 3984  35.101  23.537  14.818
32259W        W 3985  17.265  41.450   0.298
32260W        W 3986   0.794  17.516  14.278
32261W        W 3987  35.563  41.372  14.403
32262W        W 3988  16.084   3.035   2.211
32263W        W 3989  40.656   6.050   3.768
32264W        W 3990   4.165  37.468   0.481
32265W        W 3991  23.129   2.690  11.657
32266W        W 3992  32.189  21.124   4.627
32267W        W 3993  42.285  35.664   4.583
32268W        W 3994  30.458   1.670  13.345
32269W        W 3995   4.815  16.178  10.233
32270W        W 3996  27.197   1.624   0.030
32271W        W 3997  11.448   2.798  13.700
32272W        W 3998  20.527  39.571  14.438
32273W        W 3999  37.511  15.090   2.713
32274W        W 4000  30.894  40.459  13.868
32275W        W 4001   3.519   5.786  12.904
32276W        W 4002  17.628  30.206   1.413
32277W        W 4003  27.287  42.052   0.451
32278W        W 4004  26.201  20.670  13.973
32279W        W 4005  19.419  21.984   2.800
32280W        W 4006  11.929  37.071  12.988
32281W        W 4007  18.413   1.339  14.403
32282W        W 4008   2.951  31.496  12.034
32283W        W 4009  24.188  26.504   0.879
32284W        W 4010  24.814  37.850  13.936
32285W        W 4011  32.211  30.015   0.488
32286W        W 4012   1.962  27.695  13.278
32287W        W 4013  11.798  21.235  11.539
32288W        W 4014  37.921  23.582  10.706
32289W        W 4015   1.450   4.391   4.312
32290W        W 4016  25.201  11.453   1.711
32291W        W 4017   9.390   8.273  10.626
32292W        W 4018   6.228  14.066   5.154
32293W        W 4019  15.114  20.262   0.332
32294W        W 4020  24.446  18.691  14.995
32295W        W 4021  41.857  21.203   1.447
32296W        W 4022   4.695  34.099   0.923
32297W        W 4023   2.289  16.214  11.998
32298W        W 4024   9.779  29.147   0.623
32299W        W 4025  13.683   0.322  14.380
32300W        W 4026  24.201  13.327  13.018
32301W        W 4027  24.163  19.558  14.083
32302W        W 4028   4.824   3.927  11.306
32303W        W 4029  33.646  32.017   0.151
32304W        W 4030  27.729  23.019  10.679
32305W        W 4031  27.640   3.040   1.796
32306W        W 4032   2.642  18.572   4.000
32307W        W 4033  34.343   5.072  12.128
32308W        W 4034  32.920   5.477   4.201
32309W        W 4035  30.093   0.258  14.006
32310W        W 4036  19.137  37.450   4.780
32311W        W 4037  28.513  16.273  12.004
32312W        W 4038  28.176   2.949  11.941
32313W        W 4039  44.343  15.620   4.126
32314W        W 4040  32.391  20.102  12.877
32315W        W 4041  19.085  40.944   2.974
32316W        W 4042  15.901  30.299  14.490
32317W        W 4043  16.130  10.234   2.897
32318W        W 4044  25.750   6.392   0.782
32319W        W 4045  21.124   2.398  12.941
32320W        W 4046  23.654   4.380   3.905
32321W        W 4047   6.363  19.293  14.472
32322W        W 4048   7.883  42.704   0.450
32323W        W 4049  16.472  43.544  14.992
32324W        W 4050   9.565  16.674   4.876
32325W        W 4051  29.510   4.091  14.497
32326W        W 4052  40.290  35.501  13.059
32327W        W 4053  41.448  17.841  14.997
32328W        W 4054  25.705  10.636  14.872
32329W        W 4055  30.988  15.165   2.367
32330W        W 4056  32.580  20.993  11.630
32331W        W 4057   9.338   8.600   1.066
32332W        W 4058   4.744  16.138   3.219
32333W        W 4059  10.367  32.447  14.733
32334W        W 4060   8.981   6.210  10.221
32335W        W 4061   5.650  37.127   4.179
32336W        W 4062   0.096   9.319   1.447
32337W        W 4063   3.775  30.608   1.775
32338W        W 4064  27.199   2.427   3.097
32339W        W 4065  21.314   4.323  12.819
32340W        W 4066  24.880  33.427  10.787
32341W        W 4067  23.574   8.458  13.845
32342W        W 4068  28.088  41.875  11.998
32343W        W 4069  28.238   6.696  13.863
32344W        W 4070  10.280  35.835   1.400
32345W        W 4071  19.751   7.055  14.450
32346W        W 4072   3.301  29.926  13.896
32347W        W 4073  21.652  17.384   1.280
32348W        W 4074  28.392  17.780   0.734
32349W        W 4075  29.066   8.589   0.305
32350W        W 4076  31.018  29.446  12.741
32351W        W 4077   8.147  41.308   0.239
32352W        W 4078  16.589  43.368  14.044
32353W        W 4079  20.683   2.560  11.758
32354W        W 4080  10.381  19.979   3.879
32355W        W 4081  31.029  18.758  11.606
32356W        W 4082  14.776   5.662  12.133
32357W        W 4083  24.804  13.676   4.224
32358W        W 4084   8.906   9.463  12.002
32359W        W 4085  30.020  25.457  11.059
32360W        W 4086  16.796  26.343   1.856
32361W        W 4087  37.102  17.325   1.722
32362W        W 4088  32.463  31.906   4.693
32363W        W 4089  23.545  31.994  14.339
32364W        W 4090  14.571  34.914   4.610
32365W        W 4091   1.838  32.533  12.839
32366W        W 4092  34.171   1.094   1.532
32367W        W 4093  34.786  23.932  11.087
32368W        W 4094  25.020   8.225  11.623
32369W        W 4095  25.710  38.369   0.073
32370W        W 4096   5.918  38.391  11.381
32371W        W 4097  34.132  17.073  14.810
32372W        W 4098  14.171   2.700   1.634
32373W        W 4099  18.688  22.900  10.236
32374W        W 4100  39.873  31.746  13.364
32375W        W 4101  30.064  23.729  13.411
32376W        W 4102  25.613  37.289  10.702
32377W        W 4103  10.876  19.516   1.724
32378W        W 4104  33.100  12.662   2.847
32379W        W 4105  23.531  19.081   4.161
32380W        W 4106   2.798   5.269   1.786
32381W        W 4107  13.808  31.046  14.613
32382W        W 4108  30.558  35.497   1.799
32383W        W 4109  43.739  29.937   4.161
32384W        W 4110  38.966  14.980   1.257
32385W        W 4111  14.229  29.712  13.376
32386W        W 4112  44.875  24.965   0.993
32387W        W 4113  14.648  34.073   3.725
32388W        W 4114  33.999  12.365  11.129
32389W        W 4115  33.949   5.638   1.285
32390W        W 4116   8.047  29.833   2.641
32391W        W 4117  11.159  18.689  13.148
32392W        W 4118   0.464  16.752   1.245
32393W        W 4119  33.974   9.264   3.198
32394W        W 4120  20.917  33.905   4.897
32395W        W 4121   4.892  28.464   4.130
32396W        W 4122  29.038   6.150  10.857
32397W        W 4123  23.785  14.858  14.429
32398W        W 4124  20.071   2.965  13.476
32399W        W 4125  13.603  34.709   0.958
32400W        W 4126  34.086  28.104  10.617
32401W        W 4127  20.763  33.373   2.275
32402W        W 4128  38.910  13.779   4.678
32403W        W 4129  24.141  17.615  14.754
32404W        W 4130  30.265  44.891  10.158
32405W        W 4131  12.168  32.636  11.052
32406W        W 4132  41.723  33.450   3.196
32407W        W 4133  14.541  34.811  14.899
32408W        W 4134   7.659  31.173  12.877
32409W        W 4135  30.431  43.762  10.658
32410W        W 4136   2.962  10.150   3.234
32411W        W 4137  26.515  24.429  12.402
32412W        W 4138  23.491  10.404  13.053
32413W        W 4139  23.082  31.158  14.937
32414W        W 4140  30.168  31.500   1.979
32415W        W 4141  38.448  36.161  14.782
32416W        W 4142  11.096  26.271  11.672
32417W        W 4143  15.615   6.251  12.020
32418W        W 4144  14.809  31.973   0.747
32419W        W 4145  34.354   3.761  12.532
32420W        W 4146  39.560  11.659  10.892
32421W        W 4147  36.345  43.016   5.028
32422W        W 4148   3.795  34.486   9.982
32423W        W 4149  22.748  26.639   2.172
32424W        W 4150  13.282  22.632  12.114
32425W        W 4151  17.059  12.537   2.833
32426W        W 4152  16.826  39.978  11.006
32427W        W 4153   0.235  41.929  10.569
32428W        W 4154  27.353  44.922   0.922
32429W        W 4155  24.729  20.622  10.383
32430W        W 4156  44.996  11.719   2.828
32431W        W 4157  39.381  18.997   2.633
32432W        W 4158  34.558  16.309   1.885
32433W        W 4159  23.763   0.245   1.433
32434W        W 4160   5.279  42.836   3.399
32435W        W 4161  18.759  25.463  13.011
32436W        W 4162  20.618  34.654   2.759
32437W        W 4163  41.878   3.343   4.584
32438W        W 4164  34.789  11.363   3.428
32439W        W 4165  22.262  42.536   0.276
32440W        W 4166  37.522  14.250  12.071
32441W        W 4167  20.573  23.532  11.149
32442W        W 4168  14.202  28.616   4.764
32443W        W 4169  20.640  30.059  13.453
32444W        W 4170  21.015  27.019   5.057
32445W        W 4171  32.251  19.194  11.484
32446W        W 4172  35.157  40.939   0.504
32447W        W 4173   3.889  32.085  10.683
32448W        W 4174  21.330  12.700  10.160
32449W        W 4175  26.082  19.548   1.386
32450W        W 4176   2.448  30.749   4.216
32451W        W 4177  17.547  37.303  10.629
32452W        W 4178  19.246  14.222   4.699
32453W        W 4179  29.688  22.087   3.766
32454W        W 4180  24.277   3.944   0.286
32455W        W 4181  24.963   2.484   1.305
32456W        W 4182  37.453  14.258  11.185
32457W        W 4183  17.383  31.317   4.246
32458W        W 4184   8.436  34.098   1.799
32459W        W 4185   6.837  35.923  13.371
32460W        W 4186  26.372   2.582   4.965
32461W        W 4187  18.606   5.123  11.031
32462W        W 4188   0.719  21.654   2.767
32463W        W 4189   2.273   2.656  14.367
32464W        W 4190  11.950  12.078   0.892
32465W        W 4191   1.810  31.057  13.847
32466W        W 4192   3.478  37.409  10.937
32467W        W 4193  14.697  28.702  13.095
32468W        W 4194  41.631  42.706   2.118
32469W        W 4195  32.326  26.526   3.152
32470W        W 4196   4.304  13.857   2.790
32471W        W 4197   9.013  28.665  13.881
32472W        W 4198  13.048  25.026   4.582
32473W        W 4199   0.844  33.662   4.964
32474W        W 4200   7.104  24.652   2.296
32475W        W 4201   3.839   4.951  13.538
32476W        W 4202  18.809  14.164  13.472
32477W        W 4203   7.257  40.219  14.260
32478W        W 4204  15.142   4.201   0.920
32479W        W 4205  40.030   3.186  12.866
32480W        W 4206  17.983  32.341   2.237
32481W        W 4207  25.607  35.581  13.216
32482W        W 4208  37.047  27.964   1.909
32483W        W 4209  20.016  14.320  10.104
32484W        W 4210  16.178  10.041   4.680
32485W        W 4211  42.463   8.508  11.674
32486W        W 4212  28.809   0.882   4.101
32487W        W 4213  25.231  32.141  13.435
32488W        W 4214   5.711   4.137   0.492
32489W        W 4215  27.913   5.189   4.565
32490W        W 4216  10.380  23.630  11.720
32491W        W 4217  39.787  35.428  13.178
32492W        W 4218  24.473  38.378   4.294
32493W        W 4219  27.750   6.156  13.198
32494W        W 4220  15.064   6.291  14.399
32495W        W 4221   6.197   5.823   2.708
32496W        W 4222  19.654   6.787  10.665
32497W        W 4223  36.624  27.789  14.425
32498W        W 4224   5.144   3.977  14.355
32499W        W 4225  40.017  42.873  12.374
32500W        W 4226  35.741  38.494  13.010
32501W        W 4227  13.542  12.755   2.384
32502W        W 4228  33.690  34.311   1.306
32503W        W 4229  37.958  33.472  13.912
32504W        W 4230  29.351  33.381  14.791
32505W        W 4231  17.241  39.054   4.674
32506W        W 4232  44.257  39.900   4.228
32507W        W 4233  22.204  42.191   1.899
32508W        W 4234  40.096  43.126  11.941
32509W        W 4235  40.882   8.961  13.798
32510W        W 4236  31.026  32.616  11.021
32511W        W 4237  42.434  42.029  12.959
32512W        W 4238  12.772  38.058   2.889
32513W        W 4239  14.990  18.182  12.449
32514W        W 4240  41.770   9.292   2.662
32515W        W 4241  31.889   3.413  13.869
32516W        W 4242  25.932  13.348   4.013
32517W        W 4243  11.716  19.176  12.881
32518W        W 4244  39.906  44.352  11.432
32519W        W 4245  10.249  41.971  13.862
32520W        W 4246  35.594  22.725   3.742
32521W        W 4247  12.838  39.290   4.070
32522W        W 4248  30.622  33.874  11.167
32523W        W 4249   0.209  24.365   0.267
32524W        W 4250  43.170  18.052   2.852
32525W        W 4251   5.791  38.617  12.515
32526W        W 4252  19.462  24.612  13.397
32527W        W 4253   5.018  38.556  14.444
32528W        W 4254  37.320  21.522  13.880
32529W        W 4255  20.522  32.593   4.771
32530W        W 4256  16.037  22.783  12.991
32531W        W 4257   2.513  31.654  10.659
32532W        W 4258  13.500  23.473   1.847
32533W        W 4259  24.035   5.631   0.862
32534W        W 4260  13.164  16.273  12.890
32535W        W 4261  27.641   0.976   2.775
32536W        W 4262  40.448  32.018   5.008
32537W        W 4263  12.603   1.313  10.686
32538W        W 4264   1.843  17.692  12.170
32539W        W 4265  39.823   7.807  14.766
32540W        W 4266   2.144  38.560   2.744
32541W        W 4267  13.305   5.669  13.765
32542W        W 4268   3.351  16.135   2.925
32543W        W 4269  17.217  33.214  14.376
32544W        W 4270  22.263   5.212  12.066
32545W        W 4271  35.179  36.751  11.193
32546W        W 4272  25.114   2.812   2.190
32547W        W 4273  13.655  10.590   0.907
32548W        W 4274  30.860  24.501  12.830
32549W        W 4275  24.315  32.887  11.476
32550W        W 4276  10.875  24.545   5.022
32551W        W 4277   5.830   0.411   2.937
32552W        W 4278  34.142   4.146  13.065
32553W        W 4279  31.943   2.530   0.917
32554W        W 4280  40.215   3.216  14.837
32555W        W 4281  39.941   0.398  11.280
32556W        W 4282  31.034  31.568   2.409
32557W        W 4283   8.235   4.039   3.242
32558W        W 4284  34.816  36.118   0.714
32559W        W 4285  31.506   9.429   4.229
32560W        W 4286  42.933   0.378   1.899
32561W        W 4287  23.427  39.758   1.376
32562W        W 4288   6.423  14.582   4.513
32563W        W 4289  44.882  22.689   0.263
32564W        W 4290   2.994  31.026  13.071
32565W        W 4291  15.580  28.143   4.162
32566W        W 4292  31.987  17.819   3.933
32567W        W 4293  34.150  27.453  13.097
32568W        W 4294  20.107   1.816   0.860
32569W        W 4295   3.295  29.530   5.027
32570W        W 4296   9.661  39.089   2.309
32571W        W 4297  22.532  20.540   3.371
32572W        W 4298   6.799  22.256   2.844
32573W        W 4299  21.465  32.040  14.632
32574W        W 4300  13.815  30.017  11.481
32575W        W 4301  26.196  26.197   1.841
32576W        W 4302   3.692  19.160  12.904
32577W        W 4303  11.053  23.309   0.502
32578W        W 4304  43.806  25.944   4.246
32579W        W 4305   7.681  36.913   0.348
32580W        W 4306  34.585  16.797  14.384
32581W        W 4307  37.041  30.690  13.112
32582W        W 4308  14.350   3.226  14.235
32583W        W 4309   7.698  17.309   2.743
32584W        W 4310  39.071   4.396  11.456
32585W        W 4311  36.055  26.273  11.027
32586W        W 4312  18.979  19.370   2.234
32587W        W 4313  19.393   4.360  11.104
32588W        W 4314  16.834  22.828  13.389
32589W        W 4315  27.224  13.717  10.755
32590W        W 4316  30.082  40.001  14.216
32591W        W 4317  19.156  12.075  14.368
32592W        W 4318   0.671  22.495  12.070
32593W        W 4319  43.717   2.408   1.895
32594W        W 4320  20.139  13.287  11.928
32595W        W 4321  35.475  26.001  14.498
32596W        W 4322  14.056   9.714  12.085
32597W        W 4323  31.587  43.097   0.860
32598W        W 4324  26.707  22.063   3.630
32599W        W 4325  34.473  30.395  11.914
32600W        W 4326   8.933  19.694  11.061
32601W        W 4327  40.831  30.127   0.515
32602W        W 4328  37.596  35.886  12.420
32603W        W 4329  42.050  34.012  12.470
32604W        W 4330  15.158  44.248  13.360
32605W        W 4331  38.430  37.546  10.713
32606W        W 4332  38.557  29.298   4.372
32607W        W 4333  41.773  13.665   4.285
32608W        W 4334  28.797  33.125  14.430
32609W        W 4335  25.496  34.438   2.827
32610W        W 4336   6.965  35.448   4.374
32611W        W 4337   6.775  21.332   0.772
32612W        W 4338  17.638  23.483  14.794
32613W        W 4339  19.112   4.206  13.911
32614W        W 4340  32.640   0.080  14.919
32615W        W 4341   2.264  28.672   2.024
32616W        W 4342  14.889   3.789   0.351
32617W        W 4343   7.634  29.180   1.939
32618W        W 4344  37.113   6.942   1.889
32619W        W 4345  11.454   0.767   2.765
32620W        W 4346  40.745  42.399   2.247
32621W        W 4347  19.095  35.992  12.021
32622W        W 4348  22.061  18.358  13.946
32623W        W 4349  19.218   9.891   3.191
32624W        W 4350   9.184   7.312  13.412
32625W        W 4351  36.431  33.551   1.699
32626W        W 4352  32.105  15.799   2.872
32627W        W 4353   4.748   5.496  14.315
32628W        W 4354  27.515  36.501  12.838
32629W        W 4355  12.864   4.367   4.804
32630W        W 4356  14.862   6.812   2.611
32631W        W 4357  20.518  28.261   2.294
32632W        W 4358   6.664  41.483   2.386
32633W        W 4359  38.343  12.670  12.910
32634W        W 4360  42.919   2.811   0.297
32635W        W 4361  19.767  28.055   4.327
32636W        W 4362  15.566  30.521  12.101
32637W        W 4363  21.319   4.247   0.450
32638W        W 4364  23.524  16.097  11.974
32639W        W 4365  20.207  11.816   3.262
32640W        W 4366  41.938  15.653  12.201
32641W        W 4367  24.197  41.720  14.540
32642W        W 4368  21.385  12.512  13.366
32643W        W 4369  31.492   6.423   1.098
32644W        W 4370  22.207  24.807   1.400
32645W        W 4371  40.477  11.111  12.489
32646W        W 4372  13.650  25.660   1.126
32647W        W 4373  44.316  35.693  10.179
32648W        W 4374  30.260  40.434   3.322
32649W        W 4375  10.385  40.987   3.149
32650W        W 4376  33.008  10.057   1.714
32651W        W 4377  35.450  33.028   3.269
32652W        W 4378  31.647  39.915  13.838
32653W        W 4379  34.869   0.220  14.424
32654W        W 4380  13.036  43.705   1.213
32655W        W 4381  37.581   2.852  14.888
32656W        W 4382  38.947  23.548  10.441
32657W        W 4383   1.744  17.154   2.732
32658W        W 4384  14.149  10.483  11.555
32659W        W 4385  15.920   7.444   0.754
32660W        W 4386  19.544  42.365  10.542
32661W        W 4387  18.247  43.112  11.945
32662W        W 4388  42.790  44.177   4.112
32663W        W 4389  15.561  27.105   2.985
32664W        W 4390  33.130  35.727   4.041
32665W        W 4391  42.856  19.245   2.953
32666W        W 4392  24.043  21.173  10.743
32667W        W 4393  38.883  28.109  10.708
32668W        W 4394  22.285  13.131   1.682
32669W        W 4395  28.086  42.734   4.924
32670W        W 4396  35.283   7.248  14.414
32671W        W 4397  35.278  37.469  12.090
32672W        W 4398  11.408  17.027   4.329
32673W        W 4399   1.906   3.884   0.642
32674W        W 4400   2.319  38.902  13.604
32675W        W 4401  34.097  17.860  12.995
32676W        W 4402  28.766  22.998   1.426
32677W        W 4403  22.211  43.758  12.950
32678W        W 4404  16.702  11.372  12.892
32679W        W 4405  17.146   9.810   3.184
32680W        W 4406  11.869   9.862  13.505
32681W        W 4407  32.143  19.383   2.577
32682W        W 4408  39.550  10.733  10.912
32683W        W 4409   0.782  22.523   3.305
32684W        W 4410  39.254   0.803  13.977
32685W        W 4411  17.494  20.064  10.719
32686W        W 4412  43.335  20.241   3.823
32687W        W 4413  42.749   7.316   0.548
32688W        W 4414  17.277  43.279   1.055
32689W        W 4415  16.691  10.542   1.838
32690W        W 4416  18.226  43.542  14.607
32691W        W 4417  39.867  14.856   2.306
32692W        W 4418  12.735   5.148  10.652
32693W        W 4419  43.961  15.241   2.380
32694W        W 4420   5.999  42.997   2.071
32695W        W 4421  24.537  44.896   0.474
32696W        W 4422  16.502  33.063   0.889
32697W        W 4423   5.429  42.955  14.736
32698W        W 4424   6.399  15.052   1.416
32699W        W 4425  44.780  27.024  11.568
32700W        W 4426  33.922  16.723   4.161
32701W        W 4427  19.913  36.453   3.393
32702W        W 4428  32.209  36.430  14.059
32703W        W 4429  32.553  37.886  14.018
32704W        W 4430   2.965  43.031  14.033
32705W        W 4431  30.929  38.660  11.132
32706W        W 4432  42.589  10.823   1.675
32707W        W 4433  37.972   0.752  11.928
32708W        W 4434  18.116   5.953   3.603
32709W        W 4435  17.162  22.255  14.752
32710W        W 4436  27.371   0.774   3.161
32711W        W 4437  26.507   3.311  11.186
32712W        W 4438  41.281  37.467  14.968
32713W        W 4439  17.574  41.763   1.341
32714W        W 4440  34.256   6.353   0.930
32715W        W 4441  15.310   8.339  12.255
32716W        W 4442  28.254   4.699   3.798
32717W        W 4443   2.455  17.185  13.209
32718W        W 4444  23.208   1.453   2.775
32719W        W 4445  31.545  14.094  13.358
32720W        W 4446  11.959  32.072   4.739
32721W        W 4447  13.815  30.484   4.888
32722W        W 4448  25.368  25.130   2.317
32723W        W 4449  15.810  20.455   4.574
32724W        W 4450  27.676   6.902  11.055
32725W        W 4451   6.414  40.981   2.268
32726W        W 4452   2.565   5.920  14.134
32727W        W 4453  43.263  24.727   4.054
32728W        W 4454  13.559  26.558   2.924
32729W        W 4455   7.632  15.563   0.716
32730W        W 4456  13.723  21.873   2.793
32731W        W 4457  17.235  40.542   3.571
32732W        W 4458   2.436   0.100   2.931
32733W        W 4459  37.488  34.429   3.317
32734W        W 4460  11.997  12.484  11.881
32735W        W 4461   5.229   0.873  11.490
32736W        W 4462  26.274  26.781  13.084
32737W        W 4463  13.069   0.956   5.087
32738W        W 4464   6.156  27.116   0.295
32739W        W 4465  31.348   9.803   3.297
32740W        W 4466  13.749   1.414  11.609
32741W        W 4467   2.440  29.518  12.547
32742W        W 4468   1.934  26.003   4.651
32743W        W 4469   8.921   3.868  10.624
32744W        W 4470  42.673  24.588  13.105
32745W        W 4471  15.227   0.550  10.572
32746W        W 4472   6.339  13.112  13.474
32747W        W 4473  16.584  24.440  10.600
32748W        W 4474  17.098  35.488   0.710
32749W        W 4475   4.975  19.654   4.520
32750W        W 4476  28.470  25.763  13.558
32751W        W 4477   8.696  26.137   0.076
32752W        W 4478  21.779   1.695  14.753
32753W        W 4479  31.902  28.893  14.835
32754W        W 4480  19.511  35.871  11.766
32755W        W 4481  12.074  11.416   2.327
32756W        W 4482   6.626  14.185   2.280
32757W        W 4483  23.493  16.892   0.412
32758W        W 4484  26.086  19.291   0.254
32759W        W 4485  27.244  33.380   4.073
32760W        W 4486   6.666  21.556   4.539
32761W        W 4487   9.631   7.178  11.686
32762W        W 4488  21.669  30.571   1.399
32763W        W 4489  39.953  21.535  10.806
32764W        W 4490   4.900  33.581  14.958
32765W        W 4491  44.375   2.121   0.935
32766W        W 4492   7.310  26.930   2.649
32767W        W 4493  11.295  25.505   1.836
32768W        W 4494  36.011   8.894  10.551
32769W        W 4495   2.011  36.589   4.988
32770W        W 4496  26.294  32.881   1.782
32771W        W 4497  44.932  22.558   2.253
32772W        W 4498  18.105  13.196   1.836
32773W        W 4499  35.461  12.676   0.756
32774W        W 4500  28.516  34.582  11.694
32775W        W 4501  18.731  20.007  13.885
32776W        W 4502   4.433  29.191  14.855
32777W        W 4503  15.598  32.093  11.452
32778W        W 4504  14.509  15.658   0.010
32779W        W 4505  28.064  33.486   0.699
32780W        W 4506   2.710  20.691  13.343
32781W        W 4507  22.578  44.477  12.003
32782W        W 4508  28.512  36.014   0.836
32783W        W 4509  12.712  37.099  11.672
32784W        W 4510  24.229  12.275   9.617
32785W        W 4511  14.430   7.913  10.664
32786W        W 4512  18.332  30.846   1.301
32787W        W 4513   9.085  25.117  11.461
32788W        W 4514  26.026  26.214   2.730
32789W        W 4515  23.765  11.671   3.575
32790W        W 4516  19.918  22.715  12.341
32791W        W 4517  38.759  26.685   2.640
32792W        W 4518  18.155  39.439   4.339
32793W        W 4519   1.826  13.892  10.708
32794W        W 4520   7.644  31.722  11.617
32795W        W 4521  10.281  25.977   4.987
32796W        W 4522  17.051   6.445  13.433
32797W        W 4523  35.471  16.927  12.048
32798W        W 4524  15.836  23.247  13.106
32799W        W 4525  21.997  40.340  14.833
32800W        W 4526   4.772  19.865   4.066
32801W        W 4527   1.873  24.105   2.452
32802W        W 4528  34.483  38.606   3.692
32803W        W 4529  38.890  33.418  14.778
32804W        W 4530   4.828  21.176   3.716
32805W        W 4531  28.089   0.654   0.661
32806W        W 4532  12.601  33.004   0.020
32807W        W 4533  33.903   2.263   3.714
32808W        W 4534   5.470   4.538  11.417
32809W        W 4535  21.862  19.627   3.173
32810W        W 4536  21.971  24.096   4.524
32811W        W 4537  39.589  20.582  14.831
32812W        W 4538  41.001   0.744   4.224
32813W        W 4539  30.426  24.301   2.110
32814W        W 4540   2.257  32.557   3.884
32815W        W 4541   1.926   8.676  14.531
32816W        W 4542  24.315  26.603  10.209
32817W        W 4543   2.190  18.930  14.444
32818W        W 4544  11.315  11.625  12.545
32819W        W 4545  10.641   9.884   4.876
32820W        W 4546  36.546  31.887   2.228
32821W        W 4547  17.112  43.584   4.115
32822W        W 4548  18.966  12.770  12.057
32823W        W 4549  43.817  13.591  13.445
32824W        W 4550   7.277  14.613  13.826
32825W        W 4551  13.804  14.261   0.067
32826W        W 4552  28.202   7.693   3.664
32827W        W 4553   9.898  18.653  12.015
32828W        W 4554  28.894  34.820  10.942
32829W        W 4555  44.408  23.938   0.212
32830W        W 4556  21.367   2.254   3.324
32831W        W 4557   1.467  10.882   0.836
32832W        W 4558  34.174  15.193   2.365
32833W        W 4559  43.820  17.530   4.404
32834W        W 4560  43.529  17.917   4.224
32835W        W 4561  12.214  15.221   1.979
32836W        W 4562   7.057   7.580  10.227
32837W        W 4563  14.098  12.158  13.400
32838W        W 4564   8.144   9.237   3.283
32839W        W 4565  26.931  30.526   2.180
32840W        W 4566   9.474  13.651   3.825
32841W        W 4567  24.441  35.616  13.902
32842W        W 4568   6.733  27.526   0.749
32843W        W 4569  32.611  16.697  11.369
32844W        W 4570  21.499  43.324  11.801
32845W        W 4571   5.484  39.870  10.412
32846W        W 4572   3.305   1.880   3.150
32847W        W 4573  44.940  43.516   3.366
32848W        W 4574   4.932  38.535  11.013
32849W        W 4575  43.943  33.097  12.968
32850W        W 4576  23.958  39.853   3.413
32851W        W 4577  36.921   4.779   3.314
32852W        W 4578  10.728  27.871   0.786
32853W        W 4579  30.969   9.658  11.948
32854W        W 4580  19.407  42.415  13.104
32855W        W 4581  30.522  18.912  14.428
32856W        W 4582  16.018   8.981  14.521
32857W        W 4583  11.754  28.860  14.349
32858W        W 4584   5.925  24.587   4.275
32859W        W 4585  40.823  15.285   2.732
32860W        W 4586  15.446  33.365   5.056
32861W        W 4587   9.784  18.061   4.384
32862W        W 4588   8.253  28.781  14.725
32863W        W 4589  43.082  18.803  11.146
32864W        W 4590  40.851   5.236  14.943
32865W        W 4591  16.828  22.421   0.571
32866W        W 4592  42.049  40.001   0.688
32867W        W 4593   9.809  20.595   2.381
32868W        W 4594  21.747  37.528  13.585
32869W        W 4595  38.464  15.013   2.891
32870W        W 4596  37.779  26.499   4.284
32871W        W 4597  27.197  27.689   3.907
32872W        W 4598   9.835  23.820  14.966
32873W        W 4599  29.122  39.813   2.654
32874W        W 4600  40.887  24.229   1.302
32875W        W 4601  43.517  39.873  13.082
32876W        W 4602  39.575  15.635   4.691
32877W        W 4603  29.557  26.033   3.365
32878W        W 4604   8.017   0.931  10.396
32879W        W 4605   9.372  27.198  10.564
32880W        W 4606  33.455  44.498  12.709
32881W        W 4607  13.365  37.506  11.088
32882W        W 4608  43.778  14.165  14.467
32883W        W 4609  18.342   4.167  13.529
32884W        W 4610  42.225  22.028   3.633
32885W        W 4611  14.284  33.601  12.115
32886W        W 4612  10.202   4.736   1.312
32887W        W 4613  13.173  13.840  14.484
32888W        W 4614  42.907  16.988  12.945
32889W        W 4615  41.888  17.486   3.653
32890W        W 4616   0.903   9.756  12.181
32891W        W 4617  11.344  31.151  11.224
32892W        W 4618  20.071   4.291  13.793
32893W        W 4619  11.601   2.772   4.584
32894W        W 4620  39.884  42.286  11.603
32895W        W 4621  27.501   9.184   4.564
32896W        W 4622  38.083  14.026  11.293
32897W        W 4623  11.500  26.275   4.932
32898W        W 4624  28.064  14.267   4.609
32899W        W 4625  38.067  37.909  11.210
32900W        W 4626  17.082  38.495  11.633
32901W        W 4627   2.551  17.708   1.644
32902W        W 4628  27.154  21.688   1.287
32903W        W 4629  16.077  21.089   2.227
32904W        W 4630   5.406  31.338  13.962
32905W        W 4631  42.311  24.721  11.591
32906W        W 4632  25.508  15.548   4.586
32907W        W 4633  28.045  44.055   1.891
32908W        W 4634  39.094   6.986   2.672
32909W        W 4635  38.654   5.278   1.291
32910W        W 4636   3.233  21.750  12.529
32911W        W 4637  21.040  37.354  13.984
32912W        W 4638  26.066  16.284  14.485
32913W        W 4639   3.336  13.783   4.578
32914W        W 4640  41.089   9.670   0.709
32915W        W 4641  39.380  37.778  11.005
32916W        W 4642  17.588  22.738   2.333
32917W        W 4643   5.016   8.881   1.854
32918W        W 4644   9.837  12.923  12.543
32919W        W 4645  28.643  39.502  10.358
32920W        W 4646  19.559  15.073  13.487
32921W        W 4647  32.140  14.335   3.184
32922W        W 4648   7.187  30.889   4.208
32923W        W 4649  25.969  25.586   0.148
32924W        W 4650   4.822  34.029   3.077
32925W        W 4651  22.570  42.329   3.704
32926W        W 4652   6.327  44.375   4.247
32927W        W 4653  37.036   7.183   0.839
32928W        W 4654  42.025  17.108   0.695
32929W        W 4655  31.341  16.753   3.252
32930W        W 4656  29.586  14.307   4.654
32931W        W 4657  29.660  34.518   2.394
32932W        W 4658  10.771  10.390  14.806
32933W        W 4659  42.380  40.845   1.471
32934W        W 4660  25.934  16.894   3.754
32935W        W 4661  12.905   0.855  14.542
32936W        W 4662  30.607  31.662  12.985
32937W        W 4663  11.278  13.122  12.095
32938W        W 4664  24.549  23.735   2.680
32939W        W 4665  41.825  25.630   2.344
32940W        W 4666  44.341  13.583  14.983
32941W        W 4667   4.867   8.615   0.468
32942W        W 4668  39.468  35.398  14.140
32943W        W 4669   8.154  23.862   0.644
32944W        W 4670  33.328  38.440  11.023
32945W        W 4671  43.833  41.811   2.904
32946W        W 4672  28.914  26.962  10.879
32947W        W 4673   6.520  41.978  12.612
32948W        W 4674  44.720  26.479  13.894
32949W        W 4675   9.777  12.459   2.921
32950W        W 4676  40.020   6.371  13.193
32951W        W 4677  29.547  27.153  11.894
32952W        W 4678   9.444  23.789  12.878
32953W        W 4679  16.254  23.527   1.600
32954W        W 4680   0.815   6.884   2.882
32955W        W 4681  41.743  24.561   1.992
32956W        W 4682  22.250  11.029   1.808
32957W        W 4683  31.770   2.790   3.216
32958W        W 4684  30.698   1.500   1.309
32959W        W 4685  13.251  22.134  12.390
32960W        W 4686   2.346  42.461  12.893
32961W        W 4687   0.700  34.810  14.213
32962W        W 4688  16.819  34.565   2.852
32963W        W 4689  11.621  27.039  10.143
32964W        W 4690   8.039  37.028  14.471
32965W        W 4691  15.386  30.048   3.581
32966W        W 4692  41.816  40.322   4.298
32967W        W 4693  39.359  35.965   2.249
32968W        W 4694  38.308   1.874   0.029
32969W        W 4695  29.021  15.307   0.895
32970W        W 4696  29.151  30.356   2.834
32971W        W 4697  22.690  22.237  14.238
32972W        W 4698  15.232  40.085   1.905
32973W        W 4699  24.226   1.004   3.367
32974W        W 4700  13.398  15.078   1.838
32975W        W 4701  43.256   8.966  11.901
32976W        W 4702  23.123  38.712   1.734
32977W        W 4703  30.890  21.520   3.747
32978W        W 4704   1.226  18.163   0.484
32979W        W 4705  39.318  41.908   0.773
32980W        W 4706   5.434   6.072   4.176
32981W        W 4707  30.141  38.030   3.470
32982W        W 4708  24.163   2.495   4.177
32983W        W 4709  16.584  40.723  13.222
32984W        W 4710  22.382  18.842   2.222
32985W        W 4711  40.399   2.760   0.039
32986W        W 4712  28.436   1.311   4.682
32987W        W 4713   2.383  19.471   1.348
32988W        W 4714  30.851  32.696   0.247
32989W        W 4715  17.552   5.520  12.114
32990W        W 4716  24.160  36.959   3.809
32991W        W 4717  16.334  14.718   0.376
32992W        W 4718  42.171  41.876  14.799
32993W        W 4719  38.832  22.565  11.497
32994W        W 4720  23.613   8.908  12.008
32995W        W 4721  37.016  30.527   3.612
32996W        W 4722  27.215  23.662   0.412
32997W        W 4723  30.988  31.759   0.452
32998W        W 4724   7.278  21.990  11.953
32999W        W 4725  17.199  29.620  12.717
33000W        W 4726  17.052   1.768  11.186
33001W        W 4727   7.429  12.637  12.457
33002W        W 4728   9.190   8.672   4.586
33003W        W 4729  32.675   8.958   0.863
33004W        W 4730  17.547  34.442   5.065
33005W        W 4731   0.922  16.024   2.629
33006W        W 4732  30.368  23.191   4.539
33007W        W 4733  41.527  30.516   2.916
33008W        W 4734  19.555  33.558   2.653
33009W        W 4735  43.905  23.399   0.324
33010W        W 4736  30.045   5.214   0.667
33011W        W 4737  17.529   9.136   3.655
33012W        W 4738  28.684  12.652   4.689
33013W        W 4739  13.561  23.343  13.518
33014W        W 4740  17.909  34.144   3.225
33015W        W 4741   9.309  15.091   3.068
33016W        W 4742  32.979  17.324  10.325
33017W        W 4743  12.688  44.710  12.406
33018W        W 4744  16.166  24.016  11.203
33019W        W 4745  38.362   2.336  10.753
33020W        W 4746  19.158  33.352   0.263
33021W        W 4747  36.512  19.178  12.107
33022W        W 4748  18.098   2.465  14.954
33023W        W 4749  33.587  31.563   4.447
33024W        W 4750  10.884  24.572  14.478
33025W        W 4751   0.481  27.732   4.686
33026W        W 4752  21.838  38.614   3.819
33027W        W 4753  10.257   6.883   4.552
33028W        W 4754  35.419  28.995   1.703
33029W        W 4755  40.487  37.210  10.949
33030W        W 4756  16.823   8.349   4.185
33031W        W 4757  24.522  31.019   3.870
33032W        W 4758   3.280  19.186  13.706
33033W        W 4759   1.830   5.131  13.037
33034W        W 4760   1.389  43.203  13.183
33035W        W 4761  17.254  15.633   0.187
33036W        W 4762  40.093  38.588  12.456
33037W        W 4763   7.185   3.145   1.004
33038W        W 4764  28.660  18.268  10.673
33039W        W 4765  30.183  35.882   1.431
33040W        W 4766  24.253  34.331  12.562
33041W        W 4767  23.550  14.262   0.684
33042W        W 4768  32.102  40.381   5.179
33043W        W 4769  35.650  33.336  11.612
33044W        W 4770   3.956   7.123  12.308
33045W        W 4771  25.672   9.968  12.571
33046W        W 4772   3.266  25.200  10.767
33047W        W 4773  25.925  27.078   4.001
33048W        W 4774  40.977   0.597  12.066
33049W        W 4775  10.585  14.050   4.483
33050W        W 4776  17.020   2.075  10.785
33051W        W 4777  10.046  39.419  10.482
33052W        W 4778  10.698  30.640   1.396
33053W        W 4779  36.849   9.325  12.038
33054W        W 4780  19.113  34.035   4.038
33055W        W 4781  15.034  33.985  13.313
33056W        W 4782  16.043  23.419   3.268
33057W        W 4783  37.762  41.962  10.396
33058W        W 4784  43.184  33.900   0.877
33059W        W 4785  16.372   8.787   2.678
33060W        W 4786  43.835  20.612   1.374
33061W        W 4787   1.030  29.026  11.595
33062W        W 4788   7.268  10.951   1.825
33063W        W 4789  24.287   0.386  14.969
33064W        W 4790   7.061   4.642   0.802
33065W        W 4791  38.889  23.885   4.527
33066W        W 4792  11.212  30.144  10.823
33067W        W 4793  39.389  31.756  13.958
33068W        W 4794  28.787   0.299   0.750
33069W        W 4795  37.553  22.306  11.315
33070W        W 4796  30.077  36.840   0.399
33071W        W 4797  37.019   9.061   2.238
33072W        W 4798   3.874  40.520   2.128
33073W        W 4799  39.045   8.724  14.151
33074W        W 4800   8.024  13.844  11.588
33075W        W 4801  11.724  12.819   4.711
33076W        W 4802  41.805   1.259   2.172
33077W        W 4803  37.223   8.567   0.049
33078W        W 4804  34.429   7.174   2.317
33079W        W 4805  27.583  11.162   1.666
33080W        W 4806  25.053  22.914  12.857
33081W        W 4807  29.243  27.529  14.778
33082W        W 4808  21.559  12.801   2.781
33083W        W 4809  15.597  34.208  11.610
33084W        W 4810  32.648  18.486   3.741
33085W        W 4811  23.601   6.409  12.526
33086W        W 4812  18.095  19.978  13.334
33087W        W 4813   0.941  31.987  14.703
33088W        W 4814   5.237  30.053  10.731
33089W        W 4815  38.999  11.371   4.581
33090W        W 4816   4.580  41.493  10.305
33091W        W 4817  32.096  17.196  11.875
33092W        W 4818  27.974   4.479  12.083
33093W        W 4819  25.024  39.380  14.889
33094W        W 4820  18.127  37.617   4.175
33095W        W 4821  19.759   2.009  13.434
33096W        W 4822  30.187  13.798  12.999
33097W        W 4823  26.225   1.053  10.256
33098W        W 4824  37.038  41.531   3.680
33099W        W 4825  20.741   0.649  12.671
33100W        W 4826  28.101  23.496  13.394
33101W        W 4827  12.819  17.025   2.254
33102W        W 4828  12.359  21.801  12.411
33103W        W 4829  11.482  28.112   1.202
33104W        W 4830  25.525   4.989   1.257
33105W        W 4831  44.421  21.380   1.865
33106W        W 4832  43.908   0.393   2.160
33107W        W 4833  10.836   8.328   3.551
33108W        W 4834  16.597   2.803   3.703
33109W        W 4835   6.184  19.610   3.642
33110W        W 4836  14.474  28.423  14.034
33111W        W 4837  20.500  44.298   0.871
33112W        W 4838  23.672  16.201   2.419
33113W        W 4839   5.461  23.089  12.374
33114W        W 4840  25.719  31.621  12.813
33115W        W 4841   5.249  42.859   3.920
33116W        W 4842  44.215  11.175  14.444
33117W        W 4843  42.942  21.652   3.180
33118W        W 4844  41.244  40.534  12.088
33119W        W 4845   4.125  34.095  14.046
33120W        W 4846   6.131  33.350  10.741
33121W        W 4847   1.539   7.323  14.399
33122W        W 4848   2.799  22.507   2.735
33123W        W 4849  44.933  21.219  12.505
33124W        W 4850  28.737   1.840   0.800
33125W        W 4851  16.332   1.895   3.165
33126W        W 4852  30.916  17.421   0.151
33127W        W 4853   8.632  40.276  13.798
33128W        W 4854   8.222  40.066   1.434
33129W        W 4855  34.019  41.357   2.896
33130W        W 4856  10.337  13.464   3.638
33131W        W 4857  44.862   6.324  14.767
33132W        W 4858   1.524   4.348  11.227
33133W        W 4859  13.769   9.372  13.729
33134W        W 4860  33.373  11.313   3.615
33135W        W 4861  41.955  34.610   2.963
33136W        W 4862  41.074  19.900   2.572
33137W        W 4863   7.102  34.928   1.980
33138W        W 4864  35.075  33.095  13.056
33139W        W 4865  27.369   1.964   2.877
33140W        W 4866   5.489  25.604   0.533
33141W        W 4867  40.007  27.600  13.884
33142W        W 4868  13.530  14.564   1.872
33143W        W 4869  24.216  29.645   1.153
33144W        W 4870   7.129  12.920  12.000
33145W        W 4871   8.557  24.590  12.252
33146W        W 4872  31.503  27.099   3.497
33147W        W 4873  31.129  29.742   2.756
33148W        W 4874  40.718  40.490  13.829
33149W        W 4875  29.993  10.883  13.468
33150W        W 4876  28.352  42.580   3.246
33151W        W 4877  23.346   0.796   3.185
33152W        W 4878  10.309  36.885   0.620
33153W        W 4879   5.421  21.158  11.623
33154W        W 4880  15.749  24.126   4.184
33155W        W 4881  37.572  17.557   1.811
33156W        W 4882   6.877  33.411   0.816
33157W        W 4883  15.841   7.214  11.643
33158W        W 4884  30.150   9.929  14.476
33159W        W 4885  30.912  43.503  13.078
33160W        W 4886  34.804  14.733  12.018
33161W        W 4887  27.005   4.321   4.239
33162W        W 4888   2.488  31.518   1.302
33163W        W 4889   8.923  20.298  13.493
33164W        W 4890  37.541  35.288   4.736
33165W        W 4891  40.876  34.380   4.331
33166W        W 4892  22.013   9.855   3.762
33167W        W 4893   8.123  35.834  11.124
33168W        W 4894  40.456  20.961   1.315
33169W        W 4895  22.611  35.217   3.198
33170W        W 4896  13.604  38.548   1.726
33171W        W 4897  17.215  41.003   3.266
33172W        W 4898  34.696  14.761   2.732
33173W        W 4899  29.962   6.673   4.180
33174W        W 4900   9.139   6.736  14.570
33175W        W 4901  36.608  28.242   4.104
33176W        W 4902   2.312   5.938   1.487
33177W        W 4903  13.302  26.151  12.020
33178W        W 4904  31.846   8.255   3.809
33179W        W 4905  18.169  39.917   4.147
33180W        W 4906  32.134  36.628   3.739
33181W        W 4907  11.919  16.334  11.544
33182W        W 4908  12.609  17.058  13.455
33183W        W 4909   4.370  27.674  14.853
33184W        W 4910  28.469  11.255   0.189
33185W        W 4911  39.522  18.527  11.509
33186W        W 4912  39.873   1.949   1.780
33187W        W 4913  24.131  31.756  11.490
33188W        W 4914   9.705  10.157   1.883
33189W        W 4915   9.217  14.650  14.887
33190W        W 4916   1.220  24.097  11.553
33191W        W 4917  32.682  36.360  13.853
33192W        W 4918  41.885  10.103   4.666
33193W        W 4919  18.150  24.562  10.641
33194W        W 4920  37.009   9.854  13.283
33195W        W 4921  17.340  23.183  11.362
33196W        W 4922  26.707  16.818  14.979
33197W        W 4923  38.871  16.809  11.982
33198W        W 4924  20.234   3.491  10.306
33199W        W 4925   8.375   4.926   1.383
33200W        W 4926  15.719  22.114  11.548
33201W        W 4927   9.681   0.970  12.453
33202W        W 4928  10.622  18.688   3.670
33203W        W 4929  33.083  40.019  14.699
33204W        W 4930   0.452  14.689  13.967
33205W        W 4931  21.705  38.610   0.938
33206W        W 4932   5.384  39.375  12.337
33207W        W 4933  20.673  44.852  11.986
33208W        W 4934  26.734   1.706  14.822
33209W        W 4935  28.045   6.886  14.703
33210W        W 4936  38.042  16.327   2.627
33211W        W 4937  37.588  18.119  14.340
33212W        W 4938  24.333  27.177  14.729
33213W        W 4939  23.249  11.801  10.641
33214W        W 4940  28.158  41.482   3.853
33215W        W 4941   9.656  41.210  11.157
33216W        W 4942  29.126   8.975  11.150
33217W        W 4943   2.808  30.498   4.521
33218W        W 4944   9.236  41.295   2.406
33219W        W 4945  17.233  31.147   2.214
33220W        W 4946  11.281  16.495   4.012
33221W        W 4947  27.000  24.456  12.619
33222W        W 4948  31.898  35.087  14.513
33223W        W 4949   9.442   2.515   0.361
33224W        W 4950  14.244  30.461   0.007
33225W        W 4951  17.816   3.725  10.711
33226W        W 4952  17.010  11.348  13.680
33227W        W 4953  19.893   3.440   4.551
33228W        W 4954  41.869  24.278   2.413
33229W        W 4955  10.307  26.513   0.897
33230W        W 4956  35.466   4.088  11.884
33231W        W 4957  23.171  11.410  14.938
33232W        W 4958  17.913  24.792  11.042
33233W        W 4959  15.209  27.601  13.502
33234W        W 4960  38.558  29.506   3.313
33235W        W 4961  17.473  29.243   3.709
33236W        W 4962  11.934  31.090   0.808
33237W        W 4963  38.961   1.399  14.602
33238W        W 4964  21.359  21.241   2.562
33239W        W 4965  22.328   4.208  13.996
33240W        W 4966   6.276  38.532   2.159
33241W        W 4967  30.097  11.258   2.767
33242W        W 4968  35.491  33.872   0.724
33243W        W 4969  39.351   2.340  10.970
33244W        W 4970  29.484  31.299  11.783
33245W        W 4971  13.652   4.248  11.455
33246W        W 4972   8.405   8.243   2.673
33247W        W 4973  34.847  26.934  11.044
33248W        W 4974   5.520  13.853   3.369
33249W        W 4975  20.787  32.151  12.001
33250W        W 4976  43.550  21.757  11.448
33251W        W 4977  17.254   7.273   0.321
33252W        W 4978   0.670  21.146  14.377
33253W        W 4979  13.394  38.034  13.325
33254W        W 4980  27.955  42.257  10.739
33255W        W 4981  20.753  44.219   3.580
33256W        W 4982  37.918   6.397   3.690
33257W        W 4983  33.240  43.007   3.214
33258W        W 4984   5.313  30.095   0.518
33259W        W 4985   3.951  24.676  11.998
33260W        W 4986  22.968  11.899   5.091
33261W        W 4987  32.836  13.799  12.085
33262W        W 4988  18.744  31.579   4.444
33263W        W 4989  17.207   6.244   0.181
33264W        W 4990   0.108  18.722  12.101
33265W        W 4991  11.185  15.406   0.601
33266W        W 4992   8.186  43.580  14.528
33267W        W 4993  29.732  43.438  11.267
33268W        W 4994  30.042  31.350  14.463
33269W        W 4995   1.492  24.749  14.463
33270W        W 4996  19.676   4.710  13.776
33271W        W 4997   9.028  23.564   2.886
33272W        W 4998   5.063  43.286   0.450
33273W        W 4999   4.313  25.994   3.814
33274W        W 5000  24.271  34.513   0.345
33275W        W 5001  25.462  33.827   0.280
33276W        W 5002   9.683  42.180  12.063
33277W        W 5003  13.846  29.696  13.005
33278W        W 5004  36.996  27.422  12.623
33279W        W 5005   3.738  11.344  12.437
33280W        W 5006  42.866  35.106  13.037
33281W        W 5007  15.211  37.304   2.763
33282W        W 5008  24.028   9.190   1.919
33283W        W 5009  30.169  23.959   5.420
33284W        W 5010  22.686  30.374  13.955
33285W        W 5011   7.175  32.006  12.358
33286W        W 5012   4.361  16.141  13.548
33287W        W 5013   2.921   0.731   1.985
33288W        W 5014  41.862  29.233  14.326
33289W        W 5015  17.507  33.461  11.057
33290W        W 5016  12.945  22.246  12.009
33291W        W 5017  12.202  18.807   2.646
33292W        W 5018  36.519  16.374   0.508
33293W        W 5019   4.874  19.530  11.160
33294W        W 5020  35.086  10.735  14.002
33295W        W 5021  32.471  38.209   0.355
33296W        W 5022  35.374  26.994  10.988
33297W        W 5023  25.459   2.793  11.826
33298W        W 5024   1.002  23.797   1.553
33299W        W 5025   4.869  18.650   2.437
33300W        W 5026  32.459   0.369   2.416
33301W        W 5027   6.200  40.966  12.671
33302W        W 5028  37.881  14.892  11.788
33303W        W 5029  13.777  38.872  12.629
33304W        W 5030  23.635  22.056   4.297
33305W        W 5031  43.979  15.867  10.680
33306W        W 5032  13.234  12.128  13.722
33307W        W 5033  41.680   9.078   3.212
33308W        W 5034   2.539  43.902   2.282
33309W        W 5035  25.984  41.119   3.250
33310W        W 5036  44.505  27.579  10.385
33311W        W 5037  44.703  27.972  11.519
33312W        W 5038  43.527   1.755   4.748
33313W        W 5039  14.125  20.549   1.938
33314W        W 5040  18.802  43.910   0.261
33315W        W 5041  17.057  16.286   1.288
33316W        W 5042  28.921  15.296   2.199
33317W        W 5043  39.560  39.207  11.221
33318W        W 5044  43.911  37.006  14.835
33319W        W 5045  36.883   3.296  11.059
33320W        W 5046  32.020   8.962  14.976
33321W        W 5047   0.038  36.160  12.114
33322W        W 5048  17.275  32.522   0.872
33323W        W 5049   7.530  13.605   1.417
33324W        W 5050  14.210  37.088  10.579
33325W        W 5051  25.001  26.105  12.032
33326W        W 5052   2.981   8.623   2.731
33327W        W 5053  18.184  21.560  14.328
33328W        W 5054  19.262  11.897   4.537
33329W        W 5055  14.558  38.434   4.287
33330W        W 5056  19.225   2.490   0.532
33331W        W 5057  33.772   7.769  12.544
33332W        W 5058  23.774   9.128   2.779
33333W        W 5059  40.834  41.751  14.371
33334W        W 5060  27.980   4.628   0.990
33335W        W 5061   4.876  43.745   2.627
33336W        W 5062   9.576  18.850  13.924
33337W        W 5063  42.017  41.700   0.290
33338W        W 5064  18.278   6.051   2.235
33339W        W 5065   5.676  28.699   4.547
33340W        W 5066  14.195  16.209   0.615
33341W        W 5067  32.359  44.888   5.542
33342W        W 5068  20.587  15.750   2.669
33343W        W 5069   1.542   4.008   3.989
33344W        W 5070  42.856  40.369  11.954
33345W        W 5071   1.208  23.428   4.099
33346W        W 5072   9.234  17.363   0.146
33347W        W 5073  35.875   6.786   4.151
33348W        W 5074  27.683  15.157   3.597
33349W        W 5075   1.944  39.068  14.826
33350W        W 5076  27.534   4.097   0.309
33351W        W 5077  31.563  15.341  13.784
33352W        W 5078  31.327  34.092   4.106
33353W        W 5079  24.629  27.164   2.359
33354W        W 5080  15.216  17.774  13.329
33355W        W 5081  16.704  31.376   4.828
33356W        W 5082  41.801   4.662   0.887
33357W        W 5083   0.511   3.637  11.561
33358W        W 5084  12.722   8.827   0.209
33359W        W 5085  20.159   4.433  14.790
33360W        W 5086  43.654  23.459  14.300
33361W        W 5087  37.325   9.737   1.757
33362W        W 5088   9.902  40.874   0.304
33363W        W 5089  16.848  23.149   3.647
33364W        W 5090  18.003  19.486  13.402
33365W        W 5091  33.194  33.247   2.674
33366W        W 5092  32.088  12.028  10.593
33367W        W 5093  10.293  44.183   1.741
33368W        W 5094  42.776  25.239  14.918
33369W        W 5095  15.186  35.500  14.936
33370W        W 5096  17.734  28.951  12.992
33371W        W 5097  44.248  44.372  14.404
33372W        W 5098  42.126  10.132  14.438
33373W        W 5099  37.012  13.403  12.154
33374W        W 5100  32.209   0.109   0.763
33375W        W 5101  17.297  39.458   2.249
33376W        W 5102  39.306  41.596   2.985
33377W        W 5103  23.017  18.086  12.980
33378W        W 5104  41.573   0.829   2.335
33379W        W 5105  36.428  18.763   1.361
33380W        W 5106   4.677   9.277  14.465
33381W        W 5107  14.341  19.557  14.876
33382W        W 5108  20.151  21.034   3.136
33383W        W 5109  27.058  19.785  11.185
33384W        W 5110  18.550   4.075   2.329
33385W        W 5111  27.548  15.852  14.789
33386W        W 5112  14.627  27.269   0.354
33387W        W 5113  37.000  44.708  11.065
33388W        W 5114  31.735  34.223  12.471
33389W        W 5115  23.140  39.816   0.951
33390W        W 5116  23.993  11.208   1.617
33391W        W 5117  43.993  15.556  12.450
33392W        W 5118  11.667  38.059  12.887
33393W        W 5119   1.716  12.911  12.065
33394W        W 5120   9.286  40.508  13.817
33395W        W 5121   9.840  13.247   1.282
33396W        W 5122  22.319  39.160  12.825
33397W        W 5123   7.152  32.218   1.454
33398W        W 5124   9.393   8.881  11.867
33399W        W 5125  42.493  38.476   0.665
33400W        W 5126  25.189  38.351   0.691
33401W        W 5127  30.125  43.649  11.047
33402W        W 5128  24.612  39.366  13.541
33403W        W 5129  13.807   9.183  14.223
33404W        W 5130  12.233  44.963  14.903
33405W        W 5131  28.563  34.983   3.976
33406W        W 5132   9.282  15.100  14.586
33407W        W 5133   2.245  35.523   3.759
33408W        W 5134  37.733   0.516   1.774
33409W        W 5135  35.812  12.050  11.476
33410W        W 5136  34.053   0.726  12.380
33411W        W 5137   2.420  33.144   2.706
33412W        W 5138   5.251  33.930  10.734
33413W        W 5139  20.561   0.766   1.346
33414W        W 5140   1.501   7.498  11.133
33415W        W 5141  35.869  27.654  13.599
33416W        W 5142  15.674  12.803   1.872
33417W        W 5143  44.767  36.413   4.152
33418W        W 5144  36.991  15.060  13.294
33419W        W 5145   5.963  30.361  11.459
33420W        W 5146   7.326  40.927  12.565
33421W        W 5147  24.715   1.426  12.765
33422W        W 5148  22.169  18.499   1.897
33423W        W 5149   5.350  34.349   2.273
33424W        W 5150  20.086  39.825  12.512
33425W        W 5151  12.883  29.432  13.318
33426W        W 5152  41.534  28.010   4.743
33427W        W 5153  14.172  33.098   4.548
33428W        W 5154  20.656  33.613   2.741
33429W        W 5155  13.067   4.901  14.704
33430W        W 5156  30.734  32.495  12.568
33431W        W 5157  18.452  30.881   4.813
33432W        W 5158  22.707  43.532   3.238
33433W        W 5159   4.590  38.817   5.340
33434W        W 5160  17.049  39.049   3.395
33435W        W 5161  37.483  12.540  10.745
33436W        W 5162  22.103  44.284   2.226
33437W        W 5163  15.244   1.778   0.962
33438W        W 5164  43.943  17.205  13.751
33439W        W 5165  15.959  40.010   3.270
33440W        W 5166  29.796  26.118  13.591
33441W        W 5167  32.582  23.604  12.663
33442W        W 5168  10.178   4.406  11.626
33443W        W 5169  43.001  37.902  11.171
33444W        W 5170  17.772  27.471   3.107
33445W        W 5171  16.774  23.576  11.892
33446W        W 5172  21.773  34.658   1.739
33447W        W 5173  37.862   3.705   0.922
33448W        W 5174   4.421   1.966  14.118
33449W        W 5175  38.466  36.431  14.265
33450W        W 5176  14.373  27.970  11.163
33451W        W 5177   9.271  26.414  12.460
33452W        W 5178   4.813  38.435   3.692
33453W        W 5179  41.295  35.454  12.000
33454W        W 5180  39.474   1.463  14.737
33455W        W 5181   0.896  35.334   4.832
33456W        W 5182  30.923  11.405  12.458
33457W        W 5183   3.330  30.363   4.597
33458W        W 5184  43.290   2.865   2.795
33459W        W 5185  20.118   7.663  10.777
33460W        W 5186  34.931   1.694   3.330
33461W        W 5187   3.439  41.338   0.972
33462W        W 5188  10.370  31.251  11.572
33463W        W 5189  44.773  21.514  14.371
33464W        W 5190  34.276  35.874  14.591
33465W        W 5191  26.206  37.631   1.605
33466W        W 5192  19.026   6.378   3.953
33467W        W 5193  12.408  33.635   3.189
33468W        W 5194  31.296  11.250  14.573
33469W        W 5195  35.063  29.520  14.813
33470W        W 5196  41.946  32.444   4.315
33471W        W 5197  10.724  44.815   3.695
33472W        W 5198  30.923  14.172   4.888
33473W        W 5199  37.449  29.344  12.914
33474W        W 5200   0.416  40.498   3.341
33475W        W 5201  33.633   0.453   4.368
33476W        W 5202   5.307  38.840  12.508
33477W        W 5203   9.377  20.172   1.409
33478W        W 5204   7.252  36.390  11.314
33479W        W 5205   6.598  41.063  10.601
33480W        W 5206   8.802  21.834   4.372
33481W        W 5207  43.489  44.712   0.823
33482W        W 5208  34.485   0.529   0.328
33483W        W 5209   6.154  15.045   3.726
33484W        W 5210  38.303  25.217   0.059
33485W        W 5211  41.010  11.760  13.506
33486W        W 5212  20.969  14.086  14.246
33487W        W 5213  43.196   4.920  13.086
33488W        W 5214   3.200   9.233  12.229
33489W        W 5215  33.043  42.755  14.973
33490W        W 5216   4.276  32.908  13.665
33491W        W 5217  30.964  10.400  13.148
33492W        W 5218   6.362   6.176  11.178
33493W        W 5219  27.712  23.908   1.183
33494W        W 5220  33.354  29.492  13.113
33495W        W 5221  14.555   9.809  13.876
33496W        W 5222  21.868   2.156   3.133
33497W        W 5223  28.965  36.649  14.876
33498W        W 5224  43.674  29.537   4.556
33499W        W 5225  41.993  33.470   4.112
33500W        W 5226   6.943   0.921   3.171
33501W        W 5227  44.271   6.615  10.849
33502W        W 5228  40.751   4.027   2.338
33503W        W 5229  10.243  34.618   1.797
33504W        W 5230  21.720  33.396  10.688
33505W        W 5231  30.396  25.735  11.252
33506W        W 5232  12.783  35.399   0.434
33507W        W 5233   6.730  29.906   4.671
33508W        W 5234  11.240  15.177   3.161
33509W        W 5235  22.072  26.585   1.401
33510W        W 5236  17.814   2.446  11.052
33511W        W 5237   7.511   4.778  14.016
33512W        W 5238  44.882   9.332  10.577
33513W        W 5239  26.628   0.824  10.874
33514W        W 5240  25.616  37.583  13.433
33515W        W 5241  36.853  43.664   1.879
33516W        W 5242  24.156   2.493   3.316
33517W        W 5243   1.850  18.994  12.061
33518W        W 5244  17.562  11.772   4.148
33519W        W 5245   9.190  23.905  10.588
33520W        W 5246  30.604   1.818  13.845
33521W        W 5247   7.317  10.719   1.354
33522W        W 5248   6.152  19.212  14.020
33523W        W 5249  33.031  44.317  10.876
33524W        W 5250   9.258  30.522   3.286
33525W        W 5251  12.837  42.401   0.209
33526W        W 5252  19.532   6.845  12.905
33527W        W 5253  19.746  12.834  11.606
33528W        W 5254  18.054  44.767  13.450
33529W        W 5255   6.081   5.163   1.446
33530W        W 5256   0.492   5.734  13.104
33531W        W 5257   3.304  44.280  12.505
33532W        W 5258   9.383   1.465  13.817
33533W        W 5259  26.156  16.247  12.637
33534W        W 5260  10.373  42.511  14.999
33535W        W 5261  20.381  15.296   2.501
33536W        W 5262  37.957  19.157   1.461
33537W        W 5263  27.149  40.437   0.074
33538W        W 5264  44.360  24.519  12.518
33539W        W 5265   9.382  33.805   5.021
33540W        W 5266  41.815  44.454  14.836
33541W        W 5267  29.482  33.368   4.157
33542W        W 5268   2.307  44.372  11.536
33543W        W 5269  15.078   4.344  10.493
33544W        W 5270  29.559  42.351   2.596
33545W        W 5271   1.239  20.707  14.999
33546W        W 5272  37.459  13.394   1.938
33547W        W 5273  23.546  15.807   3.233
33548W        W 5274  43.485  13.350  14.454
33549W        W 5275   6.831   8.369  12.842
33550W        W 5276  35.743  16.626  12.395
33551W        W 5277  15.739  37.251   5.699
33552W        W 5278   7.136   0.546  11.687
33553W        W 5279   7.738  23.679  11.248
33554W        W 5280   6.356  23.753   1.917
33555W        W 5281  27.079  26.110  12.607
33556W        W 5282  35.864  16.641  13.508
33557W        W 5283   0.905   2.003   1.879
33558W        W 5284  30.516  37.954  12.070
33559W        W 5285  18.409  10.894   3.595
33560W        W 5286   0.844  37.087   1.420
33561W        W 5287  30.369  36.069  13.919
33562W        W 5288   2.872  37.443   1.769
33563W        W 5289   9.775  26.114   3.396
33564W        W 5290  27.115   8.807  10.538
33565W        W 5291   2.566  28.995  12.635
33566W        W 5292  33.793  32.341  14.415
33567W        W 5293  31.456  43.831   0.420
33568W        W 5294   6.728  25.001   1.525
33569W        W 5295   0.677   2.963   2.245
33570W        W 5296  35.490  11.750  14.300
33571W        W 5297  30.896  16.802  14.532
33572W        W 5298  29.004  40.851  14.342
33573W        W 5299   2.400  27.909  10.673
33574W        W 5300  30.952  11.165  12.014
33575W        W 5301  24.722  20.360  13.320
33576W        W 5302  16.616  40.550  11.691
33577W        W 5303   2.419  21.599   3.400
33578W        W 5304  26.640  24.132  12.826
33579W        W 5305   5.558  17.842  11.658
33580W        W 5306  19.795  34.956  13.356
33581W        W 5307  21.755   1.460   1.396
33582W        W 5308  10.463  29.220  11.483
33583W        W 5309  26.126  19.600   2.041
33584W        W 5310  38.067  39.847  11.226
33585W        W 5311  19.495  25.083  12.553
33586W        W 5312  32.898  25.983  12.068
33587W        W 5313  40.808  27.909  12.240
33588W        W 5314  38.861  24.681   0.683
33589W        W 5315  37.239   4.299  12.569
33590W        W 5316  41.327  24.086   4.560
33591W        W 5317  24.255  41.265  14.292
33592W        W 5318   7.595  31.865   3.244
33593W        W 5319  20.237  13.368  13.527
33594W        W 5320  22.150  30.631  11.581
33595W        W 5321   6.178  30.010   4.628
33596W        W 5322  11.185   7.029  14.540
33597W        W 5323  24.968  35.281  12.108
33598W        W 5324  44.801  17.689  10.760
33599W        W 5325  26.434  18.650  10.774
33600W        W 5326  36.769  39.978   4.440
33601W        W 5327  17.047  19.176   4.632
33602W        W 5328  37.935  38.371   4.229
33603W        W 5329  32.795  28.625   4.818
33604W        W 5330   0.457  44.967   3.288
33605W        W 5331   5.666  19.299  13.441
33606W        W 5332   3.591   5.681   0.433
33607W        W 5333   8.180  27.683   0.827
33608W        W 5334   0.508  29.073   1.140
33609W        W 5335   1.239  10.180   4.603
33610W        W 5336  40.039  37.458   1.190
33611W        W 5337  44.383  31.932   2.720
33612W        W 5338  38.816  24.129  12.766
33613W        W 5339  13.216  37.460   2.825
33614W        W 5340  12.920  41.327  13.373
33615W        W 5341  33.065  15.797  11.075
33616W        W 5342  13.173  31.557  14.912
33617W        W 5343  10.848  21.011   4.882
33618W        W 5344   1.714  25.839   3.337
33619W        W 5345  19.354  12.309  10.493
33620W        W 5346  30.661  29.487   4.367
33621W        W 5347  18.782   5.272   1.914
33622W        W 5348  24.208  44.282   3.682
33623W        W 5349  16.875  15.798  14.851
33624W        W 5350  27.191  23.966   2.391
33625W        W 5351  19.013  40.937  12.105
33626W        W 5352  39.793  20.592  12.416
33627W        W 5353  21.783   1.341   3.659
33628W        W 5354   4.606   8.253  10.506
33629W        W 5355  17.523  30.743  13.997
33630W        W 5356   5.749  15.599  12.831
33631W        W 5357  41.834  37.803   3.231
33632W        W 5358  15.150   1.743   1.463
33633W        W 5359  31.337   7.866   1.130
33634W        W 5360  42.267   3.551  14.649
33635W        W 5361  29.157  42.695   3.444
33636W        W 5362  29.567  36.366   4.763
33637W        W 5363  30.892  23.878   4.887
33638W        W 5364   8.466  24.063  11.090
33639W        W 5365  35.838  11.316  14.279
33640W        W 5366  30.473   5.498  11.360
33641W        W 5367   9.270   9.462  14.408
33642W        W 5368  27.362  14.782   1.338
33643W        W 5369  17.038  26.070   0.353
33644W        W 5370  11.422  21.626  12.563
33645W        W 5371  17.928   6.918  13.058
33646W        W 5372   5.830  42.741  10.688
33647W        W 5373   3.457  36.041  13.370
33648W        W 5374  44.766  17.637  12.823
33649W        W 5375  26.116  24.740  11.600
33650W        W 5376  18.313  32.024  12.984
33651W        W 5377  43.159  21.660   3.682
33652W        W 5378  37.704  35.508   3.082
33653W        W 5379  41.283   5.608  13.022
33654W        W 5380   7.704   5.314  14.881
33655W        W 5381  15.787   2.975  11.529
33656W        W 5382  28.939  17.675   4.646
33657W        W 5383  36.570   8.426  14.473
33658W        W 5384  41.590  39.512  13.786
33659W        W 5385  28.187  29.243  11.060
33660W        W 5386  25.739  31.603   4.757
33661W        W 5387  21.413  23.681  11.934
33662W        W 5388  34.212  41.995   4.602
33663W        W 5389  35.878   9.195  14.811
33664W        W 5390   1.717   2.589  13.325
33665W        W 5391  35.488  26.683   0.526
33666W        W 5392  36.422   6.350   1.599
33667W        W 5393  14.066  42.492  12.590
33668W        W 5394   4.773  16.161  14.914
33669W        W 5395  36.981  16.379  11.103
33670W        W 5396  30.019   8.675  12.997
33671W        W 5397  40.860  10.617   4.579
33672W        W 5398  36.808  23.136   3.849
33673W        W 5399  25.114  18.815  11.106
33674W        W 5400  22.478  29.942  11.375
33675W        W 5401   3.301  34.345   2.814
33676W        W 5402  19.762  38.919   0.857
33677W        W 5403  34.131   4.662   1.219
33678W        W 5404  40.225  34.939  11.935
33679W        W 5405  25.344  14.153  14.001
33680W        W 5406  43.293  35.050  12.095
33681W        W 5407   2.791  31.108   2.953
33682W        W 5408  17.020  31.860  11.658
33683W        W 5409  44.071  16.086   0.315
33684W        W 5410  31.103  35.539  13.960
33685W        W 5411  19.586   9.763  13.158
33686W        W 5412  23.984  13.094  14.415
33687W        W 5413  37.309  26.443  13.357
33688W        W 5414  33.671  26.074  14.446
33689W        W 5415  31.031   7.290   2.624
33690W        W 5416  40.517  43.296   3.806
33691W        W 5417   1.647  14.671   1.465
33692W        W 5418  44.189  15.257   3.316
33693W        W 5419   7.223  39.865  14.979
33694W        W 5420   1.265   7.922   4.150
33695W        W 5421  43.427   7.154  10.570
33696W        W 5422   2.711  13.807   0.948
33697W        W 5423  29.998  26.879   2.203
33698W        W 5424  23.177  25.111   5.095
33699W        W 5425  15.128  26.718  12.328
33700W        W 5426   3.301  42.634   2.905
33701W        W 5427  20.534  22.596  13.326
33702W        W 5428   8.234  41.528   2.909
33703W        W 5429  31.565   0.911  12.016
33704W        W 5430  34.381  22.578  11.554
33705W        W 5431  25.703  17.754   2.747
33706W        W 5432  43.932  20.673   3.884
33707W        W 5433  36.059   9.025  11.491
33708W        W 5434   2.616  21.224  13.964
33709W        W 5435  10.612  20.781  14.055
33710W        W 5436  16.227  40.086   1.785
33711W        W 5437  22.488  37.507   4.235
33712W        W 5438  24.054  14.672   0.764
33713W        W 5439  44.347  23.978  11.670
33714W        W 5440  43.725  16.107   3.830
33715W        W 5441  14.512  36.424  12.811
33716W        W 5442  34.318   3.766  14.365
33717W        W 5443  27.573  12.156  11.118
33718W        W 5444   1.512   6.407  11.730
33719W        W 5445   0.416  21.067   1.798
33720W        W 5446  41.549  21.522  13.041
33721W        W 5447  40.000  11.663  10.637
33722W        W 5448  44.531  10.779  14.077
33723W        W 5449  29.760  17.145  13.811
33724W        W 5450  11.535  28.159   5.008
33725W        W 5451  37.077   2.200   1.705
33726W        W 5452  10.606   2.464  11.753
33727W        W 5453  26.643  44.726   1.324
33728W        W 5454  39.899  43.323  11.518
33729W        W 5455  30.542  10.354   4.572
33730W        W 5456  29.440  41.893   3.323
33731W        W 5457  25.937   6.196   3.337
33732W        W 5458  38.585  39.480  14.967
33733W        W 5459  17.496  19.773  11.153
33734W        W 5460  20.744  14.316  12.825
33735W        W 5461  41.096  44.268   2.137
33736W        W 5462   6.865  34.022  13.921
33737W        W 5463  17.823   2.917   2.424
33738W        W 5464  23.421  44.785  13.862
33739W        W 5465  35.480   2.047  14.178
33740W        W 5466  23.456  35.584   0.821
33741W        W 5467  12.798  27.700  13.754
33742W        W 5468  28.241   5.119  14.860
33743W        W 5469  18.057  12.391   3.696
33744W        W 5470  39.038  24.511   3.754
33745W        W 5471  43.029  14.388  12.237
33746W        W 5472   1.070  22.145   0.280
33747W        W 5473   4.810   2.425  11.464
33748W        W 5474  30.702  41.024  14.914
33749W        W 5475  29.755  27.512  14.676
33750W        W 5476  33.100  27.095   4.127
33751W        W 5477  16.233   5.194   1.898
33752W        W 5478  30.958  41.067   0.420
33753W        W 5479   4.536   3.445   9.548
33754W        W 5480  26.830  24.191   4.196
33755W        W 5481  21.632  42.682  11.890
33756W        W 5482   3.229  19.344  12.774
33757W        W 5483  20.283  33.982  12.475
33758W        W 5484  36.902  14.683  13.969
33759W        W 5485   7.343  37.358   2.453
33760W        W 5486  21.196  36.847  13.984
33761W        W 5487  18.839  29.705   2.848
33762W        W 5488  38.521  29.881   3.670
33763W        W 5489  38.103   9.281  11.450
33764W        W 5490  41.516  15.781   3.622
33765W        W 5491   1.492   3.351   2.298
33766W        W 5492   4.294  44.552   1.838
33767W        W 5493   4.779  29.030   1.029
33768W        W 5494  24.884  12.577  11.452
33769W        W 5495   5.306  24.641  13.363
33770W        W 5496  35.147  14.358  11.119
33771W        W 5497   9.441  43.754   0.816
33772W        W 5498  36.619   8.656   3.414
33773W        W 5499  15.422  16.150  10.925
33774W        W 5500   5.366  42.333   3.628
33775W        W 5501   9.300  11.612   3.768
33776W        W 5502  23.575  37.155   3.844
33777W        W 5503  33.191  36.274  13.812
33778W        W 5504  35.295  28.503  13.375
33779W        W 5505  38.877  18.312   0.514
33780W        W 5506  13.658  37.771   2.654
33781W        W 5507  30.978  17.482  10.021
33782W        W 5508  37.009  13.639   1.238
33783W        W 5509  36.925  28.277   3.712
33784W        W 5510  18.777  32.829  11.757
33785W        W 5511  36.434  18.788   0.431
33786W        W 5512  20.187  22.123  10.680
33787W        W 5513   7.440  27.883   3.551
33788W        W 5514  43.736  24.516   4.045
33789W        W 5515  23.129  32.954   3.341
33790W        W 5516  32.199   2.487   1.371
33791W        W 5517   6.834  19.301  11.575
33792W        W 5518   7.167   4.773  10.372
33793W        W 5519  41.788  35.962   1.323
33794W        W 5520  36.585  25.833   1.088
33795W        W 5521  11.781  28.083   2.178
33796W        W 5522  23.470  13.751   1.976
33797W        W 5523  19.705  13.386  12.764
33798W        W 5524   3.273   0.216  14.249
33799W        W 5525  10.757   6.308   3.649
33800W        W 5526  22.023  22.798  11.713
33801W        W 5527  10.729  23.722   0.490
33802W        W 5528   9.780  39.138   3.121
33803W        W 5529  26.603  28.017   1.735
33804W        W 5530   4.340   7.879  10.262
33805W        W 5531  38.728   0.688  11.434
33806W        W 5532   3.232  15.603  10.076
33807W        W 5533   0.899  12.736  14.550
33808W        W 5534  14.388  40.501   4.107
33809W        W 5535  22.639  14.660   4.549
33810W        W 5536  16.324   1.765  12.679
33811W        W 5537  32.276  17.577  13.417
33812W        W 5538  32.904  23.504   2.928
33813W        W 5539  12.427  29.190  13.099
33814W        W 5540  34.517  20.047  13.423
33815W        W 5541  10.656  32.417  12.135
33816W        W 5542   6.176  15.010  11.352
33817W        W 5543   4.720  24.418   2.159
33818W        W 5544  17.717   0.136   1.860
33819W        W 5545  32.199  36.587   2.802
33820W        W 5546   8.284  25.559  14.496
33821W        W 5547   5.595  23.585   3.760
33822W        W 5548  28.714  41.303  11.480
33823W        W 5549  44.228  25.921   0.883
33824W        W 5550  15.823  20.534   9.992
33825W        W 5551   0.979  11.699  14.365
33826W        W 5552  18.164  15.683   3.620
33827W        W 5553  30.676   2.713   1.711
33828W        W 5554   3.846  34.086   3.561
33829W        W 5555  22.145  15.809   0.926
33830W        W 5556  11.226   6.093   3.656
33831W        W 5557  27.597  21.095   4.718
33832W        W 5558  28.347  13.687  10.528
33833W        W 5559  25.969  13.034  10.789
33834W        W 5560  19.908  24.488   1.330
33835W        W 5561   2.011  43.073  11.979
33836W        W 5562  14.054   5.840   3.703
33837W        W 5563   4.154  25.557  11.553
33838W        W 5564   7.172  15.347   3.715
33839W        W 5565  10.358  22.644   3.708
33840W        W 5566  22.600  21.900  12.407
33841W        W 5567  28.612   7.356   0.784
33842W        W 5568  32.466  36.040  14.273
33843W        W 5569  43.806   7.274  13.053
33844W        W 5570  14.195  32.117  14.435
33845W        W 5571  41.326   2.239   2.193
33846W        W 5572  23.358  16.748   4.075
33847W        W 5573  36.137  17.279  13.692
33848W        W 5574  38.455   5.339   4.374
33849W        W 5575  11.977  33.839   4.536
33850W        W 5576   8.821  26.964  14.476
33851W        W 5577   3.942  30.183   0.839
33852W        W 5578   3.851  29.508  10.839
33853W        W 5579  17.021  26.171  14.011
33854W        W 5580  31.920  16.280  11.469
33855W        W 5581   9.744  12.357   4.687
33856W        W 5582   9.832  17.409   3.672
33857W        W 5583  10.674  20.844   1.971
33858W        W 5584  10.285   5.594   3.667
33859W        W 5585  35.585   7.891  14.852
33860W        W 5586  33.588  13.166   0.546
33861W        W 5587  15.732   8.780   0.847
33862W        W 5588  32.600   4.438   2.415
33863W        W 5589  35.551  22.956   1.473
33864W        W 5590   9.554   0.589  11.127
33865W        W 5591  10.243  38.746  11.648
33866W        W 5592  12.286  12.689  12.256
33867W        W 5593  28.212  40.573  12.975
33868W        W 5594  13.232  10.797   0.695
33869W        W 5595  11.020  15.242  12.554
33870W        W 5596  38.896  27.417   3.529
33871W        W 5597  21.057  24.980   5.045
33872W        W 5598  11.350   4.220   2.389
33873W        W 5599  14.407  35.044  10.501
33874W        W 5600  25.614  21.220  14.180
33875W        W 5601  15.895  14.689  11.518
33876W        W 5602  29.324  22.754  14.005
33877W        W 5603  24.244  20.153   1.299
33878W        W 5604  17.302  16.311  12.969
33879W        W 5605  43.607  26.001  11.067
33880W        W 5606  15.698  44.448  11.165
33881W        W 5607  33.354   9.103  13.737
33882W        W 5608  32.126  19.930  12.480
33883W        W 5609  31.804  21.579  12.194
33884W        W 5610   2.760  28.473   0.424
33885W        W 5611  15.055  11.057   1.820
33886W        W 5612  19.353  41.329  11.640
33887W        W 5613  34.359   3.915   2.181
33888W        W 5614   6.472  17.901  14.910
33889W        W 5615  33.816   9.787   0.613
33890W        W 5616  18.314  11.862  14.296
33891W        W 5617  30.609  21.947  12.683
33892W        W 5618  42.586   2.833  11.922
33893W        W 5619  25.906  28.953   0.943
33894W        W 5620  28.050  37.833   1.243
33895W        W 5621  35.613  12.943   2.224
33896W        W 5622  20.221  24.182  11.640
33897W        W 5623   3.415  14.622  13.074
33898W        W 5624   2.478  15.793   5.062
33899W        W 5625  26.454  19.195  10.628
33900W        W 5626  44.754  29.547  12.509
33901W        W 5627  10.964  11.815  11.915
33902W        W 5628  37.548  19.019  11.156
33903W        W 5629  38.506  40.037   1.318
33904W        W 5630   9.896  35.344  10.716
33905W        W 5631  33.359  23.724   3.151
33906W        W 5632   3.974  33.332   9.809
33907W        W 5633  17.345  43.794  12.556
33908W        W 5634  33.548  36.142   4.378
33909W        W 5635  11.289  36.938  11.410
33910W        W 5636  12.549  13.716   3.227
33911W        W 5637  39.720  38.810  12.164
33912W        W 5638  11.924   0.361   3.442
33913W        W 5639  20.061  17.568  11.202
33914W        W 5640  19.181  18.785  14.725
33915W        W 5641   5.907  23.952  11.643
33916W        W 5642  11.688  32.095  14.934
33917W        W 5643   5.398   9.710  14.421
33918W        W 5644  25.263  37.353   1.139
33919W        W 5645  12.190   2.258  12.176
33920W        W 5646  35.428  36.317  12.493
33921W        W 5647  22.760  28.457   0.041
33922W        W 5648  20.581  14.237  13.824
33923W        W 5649  28.129  15.770  13.935
33924W        W 5650  37.700  19.191   2.300
33925W        W 5651  11.313  21.275   2.146
33926W        W 5652  14.356  21.993  12.639
33927W        W 5653   9.403  33.780   1.678
33928W        W 5654   6.365  27.373   3.720
33929W        W 5655  40.058   3.494   3.810
33930W        W 5656  28.122   4.293   1.947
33931W        W 5657  35.609  11.591   2.727
33932W        W 5658  26.673  32.569  10.463
33933W        W 5659  16.887  29.944  14.298
33934W        W 5660  32.845   6.532   1.928
33935W        W 5661  30.462  26.457   4.226
33936W        W 5662  23.903   9.639   2.756
33937W        W 5663   7.874  18.561   4.211
33938W        W 5664  30.382  40.339  12.960
33939W        W 5665   8.341  29.899  11.525
33940W        W 5666  25.630   4.827   0.233
33941W        W 5667   1.831   8.725  14.017
33942W        W 5668  19.612  30.899  11.800
33943W        W 5669  21.045  25.903   0.556
33944W        W 5670  22.930  35.464   0.718
33945W        W 5671   3.688  37.985  14.974
33946W        W 5672   1.847   2.707  12.320
33947W        W 5673  30.636  15.274   1.791
33948W        W 5674  42.528  36.622  14.496
33949W        W 5675  25.352  26.466  13.194
33950W        W 5676   7.310   8.774  14.433
33951W        W 5677   7.440   0.221   4.139
33952W        W 5678  39.972  36.417  14.601
33953W        W 5679  25.138  22.279   0.817
33954W        W 5680   6.447  39.387   2.744
33955W        W 5681   3.387   3.936  14.692
33956W        W 5682  37.101  33.264  14.952
33957W        W 5683  38.865   0.947  14.312
33958W        W 5684   0.774  17.628   1.367
33959W        W 5685  28.584   1.797   4.781
33960W        W 5686   8.509  11.316   1.850
33961W        W 5687   9.097  20.544   1.143
33962W        W 5688  27.402   7.405   4.566
33963W        W 5689  42.077  15.297  11.600
33964W        W 5690  37.883  34.804  12.184
33965W        W 5691   7.387  11.899   3.897
33966W        W 5692  15.498  39.739   2.190
33967W        W 5693  15.039  20.578  12.894
33968W        W 5694  33.138  26.088   2.217
33969W        W 5695  19.344  35.819  12.432
33970W        W 5696  43.347  23.245  11.313
33971W        W 5697  17.850  14.857  14.360
33972W        W 5698   8.714  24.365   1.143
33973W        W 5699  22.316  19.185  12.414
33974W        W 5700   6.082   8.689   1.753
33975W        W 5701  43.580   0.939  14.540
33976W        W 5702  31.782  27.418  13.247
33977W        W 5703  24.100  44.863  13.369
33978W        W 5704  36.871   8.700   2.714
33979W        W 5705  19.228  33.150  14.771
33980W        W 5706  24.191  16.506   3.635
33981W        W 5707  14.628  44.101   4.848
33982W        W 5708  17.301   6.677  11.497
33983W        W 5709  25.189   3.273   3.811
33984W        W 5710  42.073  13.905  14.262
33985W        W 5711   3.268  36.925   1.363
33986W        W 5712  29.788  35.545  13.362
33987W        W 5713  39.298  27.435   1.715
33988W        W 5714  16.753  13.548  14.536
33989W        W 5715  21.353   4.676   0.146
33990W        W 5716  39.311  23.569   0.895
33991W        W 5717   7.474   6.291  12.879
33992W        W 5718  16.699   5.416   1.935
33993W        W 5719  16.508   3.850  10.724
33994W        W 5720  19.352  28.599  13.557
33995W        W 5721   7.066  27.495   4.202
33996W        W 5722   3.875   6.060   0.652
33997W        W 5723  27.165  32.547  12.520
33998W        W 5724  28.286  43.104   3.331
33999W        W 5725  13.738  31.864   1.952
34000W        W 5726   6.611  10.655   0.188
34001W        W 5727  20.453  22.480   5.121
34002W        W 5728  19.825  19.720   1.606
34003W        W 5729  40.882  12.769  13.390
34004W        W 5730   2.165  19.645   3.690
34005W        W 5731  37.556  34.067  12.680
34006W        W 5732   9.147  21.627  11.882
34007W        W 5733  17.286  43.756  12.046
34008W        W 5734  17.085   1.800   1.304
34009W        W 5735   0.366  24.216   3.108
34010W        W 5736   7.252   3.777   3.857
34011W        W 5737  15.795  43.442   1.237
34012W        W 5738  21.316  19.084  14.503
34013W        W 5739  23.498  21.233  12.989
34014W        W 5740  14.408   4.374   3.732
34015W        W 5741  20.140  28.738   4.602
34016W        W 5742  28.027  28.051   1.451
34017W        W 5743  21.715  30.182   3.739
34018W        W 5744  15.683   0.023  13.379
34019W        W 5745  22.011  18.538   4.643
34020W        W 5746  19.236  44.789  10.742
34021W        W 5747  38.843  36.668   4.183
34022W        W 5748  28.744   6.796   3.874
34023W        W 5749   5.802  34.938  13.353
34024W        W 5750  27.696   6.196  12.705
34025W        W 5751  15.201  15.521   2.328
34026W        W 5752  32.455   3.180  10.310
34027W        W 5753  36.478  41.768   0.087
34028W        W 5754   1.503  35.990   3.268
34029W        W 5755  11.121  27.298  14.080
34030W        W 5756  14.584  36.542  11.041
34031W        W 5757   4.702  34.423   2.722
34032W        W 5758  20.072  14.718   4.808
34033W        W 5759  29.503  18.770  12.875
34034W        W 5760  44.500   0.992   0.839
34035W        W 5761  22.856  37.155  13.828
34036W        W 5762  33.031  18.608   1.026
34037W        W 5763  26.824  32.580  11.319
34038W        W 5764  40.027   5.736   0.955
34039W        W 5765  24.574   3.212   2.145
34040W        W 5766  39.856   9.924  13.576
34041W        W 5767  13.897  20.928   2.237
34042W        W 5768  22.485  21.180  13.007
34043W        W 5769   5.962  42.020  14.448
34044W        W 5770  38.459   5.022   2.410
34045W        W 5771   5.266  43.039   1.374
34046W        W 5772   6.145  43.454  13.838
34047W        W 5773  40.547   8.987   4.656
34048W        W 5774   4.898  27.232  13.090
34049W        W 5775  23.644  35.847  14.267
34050W        W 5776  15.366  30.457   4.817
34051W        W 5777  15.599  22.045   1.349
34052W        W 5778  37.319  17.142  12.974
34053W        W 5779  16.054  41.409  11.205
34054W        W 5780  12.113   2.953  11.177
34055W        W 5781  31.556   5.697  12.372
34056W        W 5782  24.726   1.998   4.705
34057W        W 5783  43.296  16.048   3.463
34058W        W 5784  20.954  25.724  11.995
34059W        W 5785  31.885  36.318  14.927
34060W        W 5786   6.397   8.705  12.069
34061W        W 5787  19.175   7.293   1.164
34062W        W 5788  16.682  38.636   5.133
34063W        W 5789  15.271  11.821   4.155
34064W        W 5790  13.699  33.597   3.338
34065W        W 5791   9.379  16.732  10.649
34066W        W 5792   3.717  11.197   0.422
34067W        W 5793  32.405  15.612   3.333
34068W        W 5794  32.807   6.715  14.968
34069W        W 5795  44.739   5.377  11.602
34070W        W 5796  38.409  16.166   4.554
34071W        W 5797   4.472  15.723   4.550
34072W        W 5798  11.297  44.330  10.595
34073W        W 5799  22.600   4.194  14.970
34074W        W 5800  23.441  10.178  11.651
34075W        W 5801  19.494  22.821  12.091
34076W        W 5802  29.483  24.477   1.923
34077W        W 5803  29.663  41.988   3.759
34078W        W 5804  41.594  42.529   0.013
34079W        W 5805  25.636  34.187   1.314
34080W        W 5806  42.392  19.658  12.790
34081W        W 5807  15.437   7.562  11.645
34082W        W 5808  32.865  13.603  10.762
34083W        W 5809   9.826  34.243   1.772
34084W        W 5810  15.509   4.752   4.264
34085W        W 5811  28.393  29.694   0.324
34086W        W 5812  19.212  12.630  14.269
34087W        W 5813  29.988  11.300  11.799
34088W        W 5814   7.245  27.032   4.110
34089W        W 5815  18.720  16.167  13.797
34090W        W 5816  44.807  24.946  11.011
34091W        W 5817  18.575  42.124  12.239
34092W        W 5818  36.903  43.016  10.867
34093W        W 5819   0.064   5.795   0.561
34094W        W 5820  18.193  36.590  12.975
34095W        W 5821   8.341  38.542  11.121
34096W        W 5822  21.592  32.488   1.323
34097W        W 5823  25.651  35.975   4.584
34098W        W 5824  40.375  26.181  14.480
34099W        W 5825  31.269  33.354   4.526
34100W        W 5826  20.340  38.359  13.432
34101W        W 5827  16.000  18.767  12.224
34102W        W 5828  11.759   2.533   0.368
34103W        W 5829  26.907   3.792  11.690
34104W        W 5830  26.428   6.134   5.036
34105W        W 5831  26.460  13.824   2.797
34106W        W 5832   2.022  33.464   3.566
34107W        W 5833  34.082  31.087   1.258
34108W        W 5834  28.313   8.691   4.923
34109W        W 5835   9.415  13.689   4.700
34110W        W 5836  10.726  33.143  13.897
34111W        W 5837   0.095  26.973  14.578
34112W        W 5838  42.816  15.780  11.636
34113W        W 5839  25.988  28.916   4.045
34114W        W 5840  19.122  39.748  13.505
34115W        W 5841  16.137   2.057  10.811
34116W        W 5842  39.143  17.719   5.056
34117W        W 5843   4.850  27.240   0.940
34118W        W 5844   4.065  40.025  10.620
34119W        W 5845  10.127  40.705  10.773
34120W        W 5846  23.413  10.883   0.503
34121W        W 5847  40.791  25.775   0.786
34122W        W 5848  23.694  25.158   5.033
34123W        W 5849  34.950  32.904   3.253
34124W        W 5850  26.678  32.758  12.535
34125W        W 5851  40.758  36.978  10.597
34126W        W 5852  18.341  22.816  14.928
34127W        W 5853  43.072  17.134  12.488
34128W        W 5854  39.824  21.118  11.992
34129W        W 5855   2.919  39.247  12.843
34130W        W 5856  28.528  20.573   2.846
34131W        W 5857  15.685  41.839   3.838
34132W        W 5858  38.303  36.820  12.978
34133W        W 5859  11.347  12.608   2.457
34134W        W 5860   4.569   8.014   3.539
34135W        W 5861  38.753   1.927  14.780
34136W        W 5862  41.093  18.743  12.415
34137W        W 5863  17.239  26.100   3.381
34138W        W 5864   6.660   4.515  10.969
34139W        W 5865  40.320   5.933  12.128
34140W        W 5866  19.701  23.273  12.953
34141W        W 5867  19.773  26.922  12.952
34142W        W 5868  13.937  19.045  13.507
34143W        W 5869  25.255  38.936  14.558
34144W        W 5870   9.871  13.326   3.837
34145W        W 5871  36.544   7.487   1.523
34146W        W 5872  38.309  43.906  13.460
34147W        W 5873  14.635  42.532  13.433
34148W        W 5874  20.161   5.758  13.479
34149W        W 5875  14.348  25.472   2.680
34150W        W 5876  17.789  30.643  12.377
34151W        W 5877  28.602  21.742  12.118
34152W        W 5878  31.501  25.417   1.810
34153W        W 5879  30.000  42.904  11.633
34154W        W 5880  28.219  19.516   4.564
34155W        W 5881  37.549  30.586   0.869
34156W        W 5882  43.761  40.712   0.939
34157W        W 5883  29.364   0.032  12.132
34158W        W 5884   8.801  17.083   4.535
34159W        W 5885   4.777  15.902  11.054
34160W        W 5886  42.908  44.434   2.742
34161W        W 5887  10.792  11.197  13.156
34162W        W 5888  43.257   8.828   3.547
34163W        W 5889  32.603  13.034   4.832
34164W        W 5890   5.214   7.017  11.540
34165W        W 5891   6.500  41.109  14.766
34166W        W 5892  13.103   8.145   0.392
34167W        W 5893   8.419  39.618   3.562
34168W        W 5894  17.226   5.158   4.212
34169W        W 5895  37.638  12.147  14.881
34170W        W 5896  18.257  39.451  14.023
34171W        W 5897  36.893  42.833  14.758
34172W        W 5898  41.917   4.250  13.201
34173W        W 5899  32.684   1.816   1.761
34174W        W 5900  40.386  43.106   5.006
34175W        W 5901  30.531   5.415   0.725
34176W        W 5902  32.635  21.616  13.469
34177W        W 5903  26.640   4.467  14.729
34178W        W 5904  31.043  31.338   0.952
34179W        W 5905  14.270   8.907   2.813
34180W        W 5906  35.585  22.022   3.215
34181W        W 5907   6.483  24.732  14.347
34182W        W 5908  34.176  42.461  11.997
34183W        W 5909   3.460   4.017   0.845
34184W        W 5910  28.502  15.310   0.008
34185W        W 5911  14.547  23.696  12.294
34186W        W 5912   9.205  25.617   5.556
34187W        W 5913   4.193  20.467   4.413
34188W        W 5914  37.885   4.960   0.764
34189W        W 5915  15.322  27.134  10.901
34190W        W 5916  23.445  27.969  13.690
34191W        W 5917  10.439   1.801   3.623
34192W        W 5918  42.550  33.508  11.547
34193W        W 5919  38.266  21.786  11.088
34194W        W 5920  42.778   0.110  12.079
34195W        W 5921  39.896  35.054  11.551
34196W        W 5922   5.093  21.037  10.242
34197W        W 5923  37.960  27.156   0.540
34198W        W 5924  23.489  21.561   4.288
34199W        W 5925   7.447  13.326  12.043
34200W        W 5926   5.408  11.724   2.264
34201W        W 5927  26.104  13.586   4.619
34202W        W 5928  20.200  32.775   2.840
34203W        W 5929  30.013   4.830  10.589
34204W        W 5930  17.891  10.311  11.978
34205W        W 5931   1.479  29.004  10.806
34206W        W 5932  41.584  31.060  11.961
34207W        W 5933  18.848  36.646   1.219
34208W        W 5934   5.947  19.056   0.310
34209W        W 5935   5.253  40.966  14.413
34210W        W 5936  20.100   4.927   3.890
34211W        W 5937  42.239  39.558  12.723
34212W        W 5938  24.338   3.375   4.077
34213W        W 5939  38.312   4.360  11.133
34214W        W 5940   2.448   7.038   0.811
34215W        W 5941  38.642  37.303   3.232
34216W        W 5942  36.077   9.083  12.532
34217W        W 5943  15.707  41.799   1.230
34218W        W 5944  27.032  36.281   0.404
34219W        W 5945  20.724  42.482  12.982
34220W        W 5946  22.138  23.093   4.858
34221W        W 5947  40.745  41.378   4.139
34222W        W 5948   6.024  26.685  14.354
34223W        W 5949  40.333  21.235   1.788
34224W        W 5950  15.552  23.107   1.360
34225W        W 5951  35.991  38.541   4.875
34226W        W 5952  14.465  28.637   1.234
34227W        W 5953  14.253   0.872  13.956
34228W        W 5954  26.951  21.043  12.427
34229W        W 5955   1.324  26.373   5.021
34230W        W 5956  44.527  16.657   0.827
34231W        W 5957  22.472  42.858   2.780
34232W        W 5958  19.316  11.185  14.589
34233W        W 5959  15.380  43.466  12.911
34234W        W 5960  43.530   6.818   2.151
34235W        W 5961  40.771  29.606   2.645
34236W        W 5962  16.369   4.341   0.437
34237W        W 5963  37.565  32.999  12.273
34238W        W 5964   9.057   1.097  10.331
34239W        W 5965  11.753   9.982  11.940
34240W        W 5966  12.282  12.187   4.123
34241W        W 5967  30.640  37.468  11.966
34242W        W 5968   6.140  31.844  10.828
34243W        W 5969  40.496  34.424   3.722
34244W        W 5970  31.686  19.716  12.640
34245W        W 5971   0.383  27.694   3.931
34246W        W 5972  38.873  38.282  10.688
34247W        W 5973   5.312   7.298  14.286
34248W        W 5974  31.135  30.700   3.716
34249W        W 5975  32.637  21.744   0.254
34250W        W 5976  35.506   3.805   3.080
34251W        W 5977  31.039  19.783  11.579
34252W        W 5978   0.970  43.040   3.723
34253W        W 5979  31.333  25.629  10.664
34254W        W 5980  36.010  10.387   1.932
34255W        W 5981  20.033  41.079  13.971
34256W        W 5982  18.890  27.096  13.809
34257W        W 5983   6.068   4.084  10.683
34258W        W 5984  35.817  12.568   2.639
34259W        W 5985  39.969  41.456  14.296
34260W        W 5986  22.723   8.707   2.256
34261W        W 5987  40.305  17.955   4.058
34262W        W 5988  34.934  34.372  14.440
34263W        W 5989  24.024  30.486  11.976
34264W        W 5990  17.693  33.676   3.136
34265W        W 5991  15.358  44.435   2.521
34266W        W 5992   9.062  24.680  12.345
34267W        W 5993   5.942  28.113  10.677
34268W        W 5994   0.963  31.931  13.947
34269W        W 5995  10.949  31.144  12.337
34270W        W 5996   0.725  15.793   3.903
34271W        W 5997  28.658  32.168  11.988
34272W        W 5998  19.049   6.757   0.952
34273W        W 5999  11.291  11.945   4.114
34274W        W 6000  11.181  22.081   1.176
34275W        W 6001  11.620  18.740  14.085
34276W        W 6002  42.530  19.565  13.315
34277W        W 6003   7.772   3.512   2.201
34278W        W 6004  40.008  24.761  13.974
34279W        W 6005  28.484  11.746   3.109
34280W        W 6006  25.007  15.373   4.531
34281W        W 6007  19.689  40.485  10.691
34282W        W 6008  29.000  44.946  14.916
34283W        W 6009   8.337  32.332   3.803
34284W        W 6010  37.544  28.169  12.393
34285W        W 6011   6.811  26.269   2.714
34286W        W 6012  18.860   1.682  12.652
34287W        W 6013  27.971  35.543  12.844
34288W        W 6014  44.727   4.270  12.509
34289W        W 6015   8.254   2.528  13.973
34290W        W 6016  22.246   1.550   1.173
34291W        W 6017  35.020  14.255  12.077
34292W        W 6018  16.749  13.374   2.770
34293W        W 6019  23.186  30.581   3.486
34294W        W 6020   1.831  22.269   0.721
34295W        W 6021   7.435  18.592  14.240
34296W        W 6022  17.275  13.075  12.998
34297W        W 6023  20.617  17.154   2.443
34298W        W 6024  22.589  15.805  10.391
34299W        W 6025  44.517  17.244   0.038
34300W        W 6026  17.695  41.502   3.925
34301W        W 6027  14.833  25.921   1.627
34302W        W 6028   3.081  32.029   4.675
34303W        W 6029  32.106  27.936  11.555
34304W        W 6030   8.657  39.165  11.611
34305W        W 6031  15.378  44.869   1.883
34306W        W 6032  28.694  21.664   3.774
34307W        W 6033  35.122  33.715  12.076
34308W        W 6034   3.765  13.734  11.364
34309W        W 6035  27.371  40.807  12.102
34310W        W 6036  31.808  41.954  12.779
34311W        W 6037  16.967  15.760   5.101
34312W        W 6038  11.487  26.426   2.869
34313W        W 6039  27.683  17.675  13.055
34314W        W 6040  33.129  24.713   3.191
34315W        W 6041  38.364  41.697   3.211
34316W        W 6042   0.442  39.437   3.595
34317W        W 6043  30.349  33.641  11.552
34318W        W 6044  33.269   0.018   3.664
34319W        W 6045  43.251  33.696   3.187
34320W        W 6046  42.006  29.095  12.828
34321W        W 6047  37.167  25.836   2.233
34322W        W 6048  16.520  17.813   2.391
34323W        W 6049  34.278  22.990   3.606
34324W        W 6050  31.585  25.056  11.580
34325W        W 6051  38.115  21.247   2.441
34326W        W 6052  10.827   7.935   2.199
34327W        W 6053  37.538   9.630  12.602
34328W        W 6054  29.050   3.515   1.631
34329W        W 6055  19.901   7.598  13.657
34330W        W 6056  32.612  23.103   4.582
34331W        W 6057  35.821  26.254   1.383
34332W        W 6058   0.465   3.390   3.240
34333W        W 6059  37.564  39.048   3.635
34334W        W 6060  21.656  21.757  11.959
34335W        W 6061   6.383  11.870   0.487
34336W        W 6062  23.964   1.145   4.300
34337W        W 6063  32.893  17.364  12.921
34338W        W 6064   4.375   7.497  13.055
34339W        W 6065   4.385   3.051   0.590
34340W        W 6066  22.299  38.608   4.790
34341W        W 6067  44.900   8.733   2.422
34342W        W 6068  32.963  37.936   1.685
34343W        W 6069  42.050   4.254  14.546
34344W        W 6070   5.087  30.582  14.934
34345W        W 6071   1.337  28.021  11.647
34346W        W 6072   8.153  43.347   1.870
34347W        W 6073  11.885  18.468  14.440
34348W        W 6074  35.417  16.219  12.531
34349W        W 6075  38.314   9.745  11.551
34350W        W 6076  11.885  10.414  13.499
34351W        W 6077  40.460  30.271  12.071
34352W        W 6078  10.202  26.024   0.766
34353W        W 6079  19.806   3.367  12.510
34354W        W 6080  29.290   1.484  12.878
34355W        W 6081  16.500  33.552  11.174
34356W        W 6082  16.278  22.509   2.484
34357W        W 6083  30.042  14.479  12.024
34358W        W 6084  25.445  41.829  10.694
34359W        W 6085   0.755   5.457   2.850
34360W        W 6086  10.134  16.315  14.793
34361W        W 6087  38.431   2.999   3.350
34362W        W 6088   2.741  29.662   0.079
34363W        W 6089  22.225  35.433  12.092
34364W        W 6090  22.310   3.016  11.767
34365W        W 6091   6.407   7.201  13.111
34366W        W 6092  28.548  21.833   0.343
34367W        W 6093  18.108  19.052   1.839
34368W        W 6094  43.067  25.601   0.187
34369W        W 6095  18.684   7.882   0.270
34370W        W 6096  43.465  31.747  10.776
34371W        W 6097  29.281  22.979   1.409
34372W        W 6098  30.673   6.848   3.885
34373W        W 6099  29.771  35.995   1.806
34374W        W 6100  33.408  16.833  13.443
34375W        W 6101  36.163  21.665  13.087
34376W        W 6102  10.821  40.765   3.354
34377W        W 6103  13.809  31.034  11.552
34378W        W 6104  37.154  19.371  14.791
34379W        W 6105  16.485  34.411  11.076
34380W        W 6106  21.667   4.482  10.487
34381W        W 6107  41.645  36.524  14.067
34382W        W 6108  42.300   9.897   1.147
34383W        W 6109  24.247  24.987  14.959
34384W        W 6110  15.387  36.339  13.460
34385W        W 6111   9.527  24.827  10.707
34386W        W 6112  11.350  29.811  11.622
34387W        W 6113   4.852  32.844   1.298
34388W        W 6114  13.330  30.164  11.697
34389W        W 6115  35.894  41.401   2.858
34390W        W 6116  22.906  14.028  12.963
34391W        W 6117  10.431  38.076  10.877
34392W        W 6118  29.297  21.122  13.006
34393W        W 6119  34.306  40.002   0.859
34394W        W 6120  23.535   3.842  12.735
34395W        W 6121  15.378  14.603  11.517
34396W        W 6122  15.066   4.666  11.438
34397W        W 6123   7.406  15.302   2.408
34398W        W 6124  17.808  19.069  10.625
34399W        W 6125  26.034  25.038   1.432
34400W        W 6126  41.743  39.928  10.188
34401W        W 6127  42.251  16.624  11.514
34402W        W 6128  40.089  21.312   1.338
34403W        W 6129  15.707  32.677  13.867
34404W        W 6130   9.953   4.216  13.786
34405W        W 6131  24.150  37.851   0.298
34406W        W 6132  44.643  42.000  13.217
34407W        W 6133  20.034  22.102   0.669
34408W        W 6134  43.669  27.456   2.792
34409W        W 6135  23.504  30.096  14.491
34410W        W 6136  23.170  37.158   3.009
34411W        W 6137  35.504   5.268  12.507
34412W        W 6138  20.120  23.290  11.234
34413W        W 6139  34.096   7.843  14.395
34414W        W 6140   0.274  18.607  13.505
34415W        W 6141  17.788  33.148   3.075
34416W        W 6142  37.271  44.432   1.350
34417W        W 6143  38.516   4.141  14.291
34418W        W 6144  18.757   4.666   4.062
34419W        W 6145  27.557  37.013   3.216
34420W        W 6146  36.272  28.994   3.789
34421W        W 6147   9.836  34.340   2.745
34422W        W 6148  39.353   3.209  14.700
34423W        W 6149  21.713  30.872  10.627
34424W        W 6150  27.822  18.811  14.884
34425W        W 6151  33.885  25.420  11.044
34426W        W 6152  15.234   7.807  13.132
34427W        W 6153  39.957  38.865  11.203
34428W        W 6154  23.631  42.330  12.414
34429W        W 6155  42.867  40.317  12.915
34430W        W 6156   7.078  16.574   2.206
34431W        W 6157  33.079  32.359   0.925
34432W        W 6158  22.287   2.902  14.806
34433W        W 6159   8.259  21.934  11.461
34434W        W 6160  28.530  43.551  13.961
34435W        W 6161  37.952  28.849  11.095
34436W        W 6162  23.172  21.995  13.445
34437W        W 6163   6.227   7.628   1.247
34438W        W 6164  30.176  16.329  12.074
34439W        W 6165  15.876  36.894   1.170
34440W        W 6166   4.499  42.080  14.675
34441W        W 6167  21.757  27.021  12.745
34442W        W 6168  19.266   9.214  12.613
34443W        W 6169  25.641  16.109  11.033
34444W        W 6170  34.359  35.389   3.793
34445W        W 6171  26.026  22.020   2.082
34446W        W 6172  24.588   8.362  14.865
34447W        W 6173  44.331  15.405   0.336
34448W        W 6174  22.574  19.773   1.790
34449W        W 6175  16.952  28.593  13.984
34450W        W 6176   4.165  42.349  14.391
34451W        W 6177  31.668  15.812  10.402
34452W        W 6178  16.235   4.858  14.265
34453W        W 6179  10.893   6.272   0.865
34454W        W 6180  33.444  30.243   1.379
34455W        W 6181  26.001  39.666  11.763
34456W        W 6182  39.818   8.340   3.058
34457W        W 6183  30.643  14.405  11.468
34458W        W 6184  43.797  20.255   2.761
34459W        W 6185  41.460   0.369  13.057
34460W        W 6186  22.634  31.169   4.158
34461W        W 6187  37.546  19.745  13.282
34462W        W 6188  37.620  29.117  13.362
34463W        W 6189  16.699  44.402  11.667
34464W        W 6190  35.400  26.924  11.929
34465W        W 6191  20.591  36.104  13.784
34466W        W 6192  31.006  40.772  13.078
34467W        W 6193  32.900   5.911   0.109
34468W        W 6194  34.502   9.452  12.593
34469W        W 6195  44.432  28.543   0.178
34470W        W 6196  38.077   8.215   1.658
34471W        W 6197  37.525  28.672   0.373
34472W        W 6198   6.441  32.055   2.627
34473W        W 6199  27.930  26.474  14.445
34474W        W 6200  13.895  40.738  14.268
34475W        W 6201  44.592   9.522  13.606
34476W        W 6202   2.556  21.635   0.394
34477W        W 6203  31.645   4.309  13.055
34478W        W 6204  36.478  29.562  14.227
34479W        W 6205   9.915  35.842  10.869
34480W        W 6206   2.696   8.732  12.455
34481W        W 6207   3.429  26.685   3.728
34482W        W 6208  20.460   2.777  12.324
34483W        W 6209  37.589  39.386   1.283
34484W        W 6210  16.666  42.267  14.788
34485W        W 6211   5.268  44.800  13.496
34486W        W 6212  32.126  40.342   0.841
34487W        W 6213  36.854  42.758   4.174
34488W        W 6214  19.197  17.819  12.057
34489W        W 6215  27.781   4.737  11.131
34490W        W 6216   0.449  21.963  13.861
34491W        W 6217  16.053  26.514  12.865
34492W        W 6218  18.914  42.554   2.814
34493W        W 6219  26.519  17.980  12.401
34494W        W 6220  18.267  22.676   4.989
34495W        W 6221  37.569  19.676  14.732
34496W        W 6222   1.119  23.896  12.213
34497W        W 6223   4.696  18.809   1.919
34498W        W 6224  12.326  14.117  10.808
34499W        W 6225  34.861  19.135   1.989
34500W        W 6226   1.202   8.660   2.906
34501W        W 6227  28.716  31.512  13.063
34502W        W 6228  21.300  37.573  14.379
34503W        W 6229  42.755  29.341  14.376
34504W        W 6230  16.184  44.503   2.177
34505W        W 6231  10.910  37.476   1.756
34506W        W 6232  28.053  16.494  10.841
34507W        W 6233   0.838  24.184   4.385
34508W        W 6234   2.338   1.838   4.617
34509W        W 6235  10.130  24.948   4.643
34510W        W 6236   9.900  30.657   4.823
34511W        W 6237  41.543   4.440  11.853
34512W        W 6238  35.019  26.168   3.707
34513W        W 6239  31.021  16.058  10.429
34514W        W 6240   9.777  39.573   4.947
34515W        W 6241  33.514  44.938  11.050
34516W        W 6242   9.702  18.044  14.381
34517W        W 6243  14.129  39.587   0.549
34518W        W 6244  44.423  18.039   1.415
34519W        W 6245  32.649  18.153  10.540
34520W        W 6246  44.456  36.562   2.677
34521W        W 6247  41.458  18.967   2.726
34522W        W 6248   1.955  29.592  13.896
34523W        W 6249  31.545  31.434   3.160
34524W        W 6250  28.173  12.194   1.600
34525W        W 6251  18.582  41.201  12.108
34526W        W 6252  37.078   2.375  11.182
34527W        W 6253   4.723  15.421  10.876
34528W        W 6254   4.838  15.832   0.300
34529W        W 6255  28.191  28.024  12.502
34530W        W 6256  35.590  13.737  12.517
34531W        W 6257  27.709  40.615   4.275
34532W        W 6258   8.462  24.408   2.831
34533W        W 6259  24.551  15.691  14.926
34534W        W 6260   0.742  28.509   3.612
34535W        W 6261  13.674   5.340   4.562
34536W        W 6262   1.561  44.580  10.169
34537W        W 6263  10.076   9.851  14.712
34538W        W 6264  21.160  15.743  10.938
34539W        W 6265  16.161  22.072   4.636
34540W        W 6266  17.660  19.321   2.905
34541W        W 6267  29.192   6.209   2.730
34542W        W 6268  12.450  15.326  11.203
34543W        W 6269  22.893  38.676   2.988
34544W        W 6270   1.692  36.470   2.220
34545W        W 6271  39.318  34.565  13.425
34546W        W 6272  28.309   9.356  13.076
34547W        W 6273   3.321  22.718   0.892
34548W        W 6274  27.220  18.301   3.186
34549W        W 6275  32.165  23.129  13.000
34550W        W 6276   4.792  33.627   1.712
34551W        W 6277  27.785   8.375  11.063
34552W        W 6278   5.011   6.778  14.767
34553W        W 6279  21.588  35.430  10.756
34554W        W 6280  13.364  40.756   1.594
34555W        W 6281  23.042   1.192  10.736
34556W        W 6282  44.021  35.353   4.038
34557W        W 6283   0.049  12.718   1.505
34558W        W 6284  24.220   4.883   4.486
34559W        W 6285  41.940   4.792   1.780
34560W        W 6286  29.523  41.867   1.699
34561W        W 6287  40.441  33.129  14.264
34562W        W 6288   6.685   0.339   4.621
34563W        W 6289  39.583  39.599   4.301
34564W        W 6290  13.773   4.164  14.974
34565W        W 6291  35.308  17.166   2.187
34566W        W 6292  13.203  15.385  11.568
34567W        W 6293  23.999  13.206   4.218
34568W        W 6294  42.867   0.614  14.473
34569W        W 6295   9.414   4.319  12.974
34570W        W 6296   4.240  17.692   0.276
34571W        W 6297  38.607  44.951  14.041
34572W        W 6298  34.365   5.713   4.342
34573W        W 6299  35.405  31.139   2.677
34574W        W 6300  18.799  13.351   2.283
34575W        W 6301  33.290   6.197   1.187
34576W        W 6302   7.725  12.643  11.170
34577W        W 6303  40.872   7.649  10.431
34578W        W 6304  17.832  43.366  11.423
34579W        W 6305  29.935   7.024   1.866
34580W        W 6306  19.247  30.028   2.724
34581W        W 6307  26.724  18.538   4.024
34582W        W 6308  42.084   4.728  13.438
34583W        W 6309  32.125  43.837   0.227
34584W        W 6310  30.067  17.013   1.013
34585W        W 6311  30.545  33.675  10.480
34586W        W 6312  18.883  19.674   1.162
34587W        W 6313   5.004  20.556  13.824
34588W        W 6314  13.783  21.593  13.982
34589W        W 6315  11.093   6.377  13.612
34590W        W 6316  20.069  28.144   0.366
34591W        W 6317   4.853  25.801  14.078
34592W        W 6318  23.999   2.820  12.072
34593W        W 6319   2.902  29.821   3.911
34594W        W 6320  17.037  38.061  14.100
34595W        W 6321  38.110  18.314   3.830
34596W        W 6322  41.436  10.114   2.348
34597W        W 6323  35.530  19.555  13.784
34598W        W 6324  31.334  43.005   0.360
34599W        W 6325   9.191  20.043   3.283
34600W        W 6326   0.971  35.324  11.498
34601W        W 6327  12.132  20.060  14.987
34602W        W 6328  16.785   1.176   0.930
34603W        W 6329  42.859  14.601   4.346
34604W        W 6330  24.650   0.846   3.611
34605W        W 6331   4.253   5.872  13.548
34606W        W 6332   8.145  12.879   0.240
34607W        W 6333  14.474   2.564   2.809
34608W        W 6334  28.498  34.408   1.270
34609W        W 6335   8.364  16.681  12.498
34610W        W 6336  17.115   0.268   0.797
34611W        W 6337   3.877  28.981   9.924
34612W        W 6338  29.181  28.876   2.781
34613W        W 6339  38.563  16.297  12.585
34614W        W 6340  42.911  41.808   0.862
34615W        W 6341   0.382  23.270   3.644
34616W        W 6342  40.719  18.474  11.984
34617W        W 6343  32.308  12.886   4.161
34618W        W 6344  20.192  28.898  14.721
34619W        W 6345  17.667  33.086   1.731
34620W        W 6346  10.841  41.821  12.101
34621W        W 6347   0.429  15.448  12.884
34622W        W 6348  15.664  28.999   3.535
34623W        W 6349  36.021   5.514  11.117
34624W        W 6350   7.678   2.340   0.425
34625W        W 6351  38.309  42.537  13.770
34626W        W 6352  14.006  13.905  12.947
34627W        W 6353  29.427  20.464  12.472
34628W        W 6354   5.837  29.586   2.598
34629W        W 6355  29.663  17.856   3.996
34630W        W 6356  24.712  39.468   2.411
34631W        W 6357   4.513   6.229  12.457
34632W        W 6358  25.460  17.755  11.626
34633W        W 6359  30.003  44.428   5.075
34634W        W 6360   0.461  30.652  12.083
34635W        W 6361   0.689   9.141   1.731
34636W        W 6362  23.515  29.196   3.163
34637W        W 6363  22.416  18.261   3.345
34638W        W 6364  25.113   7.877   3.626
34639W        W 6365  40.503  35.531  11.636
34640W        W 6366  16.287  23.129  12.649
34641W        W 6367  23.572  44.824   4.061
34642W        W 6368  43.741   2.967   0.423
34643W        W 6369  39.839  38.392   3.729
34644W        W 6370  28.340  40.199   3.782
34645W        W 6371  31.046  22.729  13.537
34646W        W 6372  25.127  39.324   0.918
34647W        W 6373  39.074  33.647  11.859
34648W        W 6374  41.822  40.326   0.253
34649W        W 6375   2.994   2.353  10.946
34650W        W 6376  13.814  17.592   2.894
34651W        W 6377  26.756  35.127  12.808
34652W        W 6378  43.042  19.303  11.036
34653W        W 6379  22.343  37.056   4.921
34654W        W 6380  40.599  25.533  11.922
34655W        W 6381   6.820  29.063   4.022
34656W        W 6382  14.329  35.839   2.267
34657W        W 6383  36.057  22.643  11.215
34658W        W 6384  31.409   5.312  14.015
34659W        W 6385  41.935  25.065   0.777
34660W        W 6386  23.258  31.467   3.303
34661W        W 6387  39.659  30.228   2.140
34662W        W 6388  31.457  12.102   3.846
34663W        W 6389  24.905  26.570   3.154
34664W        W 6390  23.636  37.415   2.895
34665W        W 6391  32.379  41.356   0.416
34666W        W 6392  35.389   4.398  14.875
34667W        W 6393  39.715  33.967  11.115
34668W        W 6394  21.389   6.696   1.072
34669W        W 6395  33.155  18.005   4.300
34670W        W 6396  44.224  34.936   4.263
34671W        W 6397  39.476  17.833   0.456
34672W        W 6398  18.095  21.163   0.723
34673W        W 6399  44.025  41.424  11.725
34674W        W 6400  35.601  36.792   3.675
34675W        W 6401  35.968  22.172  11.613
34676W        W 6402  12.353   0.079  11.606
34677W        W 6403   7.330  27.402   3.724
34678W        W 6404  28.193   8.889  12.500
34679W        W 6405   2.468  33.368   0.200
34680W        W 6406  33.098  24.163  14.850
34681W        W 6407  13.352   2.882   1.194
34682W        W 6408   8.300  38.396   3.218
34683W        W 6409  28.832  21.878   3.301
34684W        W 6410  10.445  30.644   4.778
34685W        W 6411  11.900  33.012  12.082
34686W        W 6412  43.284  33.677  11.063
34687W        W 6413  39.033  16.345   1.708
34688W        W 6414  29.582  41.229  11.022
34689W        W 6415  39.232  32.129  14.409
34690W        W 6416  37.357  31.483  13.533
34691W        W 6417  23.731  25.014  12.369
34692W        W 6418  15.813  42.942   0.680
34693W        W 6419  26.271  17.198   3.519
34694W        W 6420  32.935  28.377   2.352
34695W        W 6421   9.996  40.495  11.529
34696W        W 6422  26.085  19.516   2.549
34697W        W 6423  24.080  28.166  14.347
34698W        W 6424  11.915  31.399  14.487
34699W        W 6425  25.445  40.772  10.781
34700W        W 6426  26.492   9.190   4.586
34701W        W 6427  32.974  35.337   4.340
34702W        W 6428  19.247   8.154  12.413
34703W        W 6429   0.955   4.788  11.622
34704W        W 6430  15.067  33.058   0.007
34705W        W 6431  22.464  28.978   1.208
34706W        W 6432  18.844  32.222   1.409
34707W        W 6433  36.806  38.341   3.619
34708W        W 6434  34.621  43.852  13.864
34709W        W 6435  14.274  20.049   1.927
34710W        W 6436  41.542  21.050  10.388
34711W        W 6437  17.207   5.253   4.735
34712W        W 6438  38.922  20.794  14.641
34713W        W 6439  33.600  10.427   2.817
34714W        W 6440  41.555  32.690   0.520
34715W        W 6441  22.460  42.490  10.358
34716W        W 6442  36.019  40.408  10.694
34717W        W 6443  19.548  26.624   0.089
34718W        W 6444   4.845   6.221   2.877
34719W        W 6445  44.827   3.808   1.320
34720W        W 6446  34.000   7.475   2.343
34721W        W 6447  26.973   3.912   4.646
34722W        W 6448   7.403  40.329   0.712
34723W        W 6449   0.506   9.246  13.568
34724W        W 6450  25.379   0.585   0.953
34725W        W 6451  42.088   8.754  13.090
34726W        W 6452  30.573  41.460   4.568
34727W        W 6453   1.633   3.056  13.518
34728W        W 6454  23.542  20.493  13.564
34729W        W 6455   8.340  38.000  10.577
34730W        W 6456  32.404  11.979   3.278
34731W        W 6457  36.358  41.400  13.465
34732W        W 6458  31.395  28.473  13.984
34733W        W 6459  13.037  20.502   1.814
34734W        W 6460  14.308  18.815   1.474
34735W        W 6461  26.240  43.841  12.902
34736W        W 6462   3.264  27.931   0.505
34737W        W 6463  14.120  26.582   4.668
34738W        W 6464   9.121  12.360   1.800
34739W        W 6465  41.462  26.223  13.564
34740W        W 6466  25.168  37.797   3.387
34741W        W 6467   4.031  34.462  14.980
34742W        W 6468  23.494   9.370  13.467
34743W        W 6469   1.160  35.394  11.989
34744W        W 6470  44.759  33.485  13.393
34745W        W 6471  38.590  31.174   2.505
34746W        W 6472  15.757  10.895  12.055
34747W        W 6473  44.753  40.307  14.463
34748W        W 6474  16.057  41.562  12.152
34749W        W 6475  28.689  33.147   4.114
34750W        W 6476  38.301   2.267   4.248
34751W        W 6477   2.398  26.965  12.951
34752W        W 6478   2.532  36.926  12.077
34753W        W 6479   9.921  37.341   2.000
34754W        W 6480   3.866  13.822  10.066
34755W        W 6481  25.516  21.547  12.598
34756W        W 6482   6.857  42.594   3.169
34757W        W 6483  28.169  25.626  10.909
34758W        W 6484   4.700  38.321  13.991
34759W        W 6485   1.901  44.451   4.106
34760W        W 6486  44.582  23.673  12.043
34761W        W 6487   1.229  17.155  13.611
34762W        W 6488   2.772   3.292  10.186
34763W        W 6489  11.456  43.321   4.075
34764W        W 6490  13.780  37.429   4.979
34765W        W 6491  16.856  22.650   4.136
34766W        W 6492  20.638  29.876   0.425
34767W        W 6493  31.916  44.182   0.580
34768W        W 6494  19.912  26.520   4.570
34769W        W 6495  40.653  18.097  11.606
34770W        W 6496  36.400  24.805  12.097
34771W        W 6497  39.598  31.994   2.597
34772W        W 6498  20.150  40.570  13.953
34773W        W 6499  12.412  28.459   4.035
34774W        W 6500   0.776  13.362  13.224
34775W        W 6501   3.190  19.414   2.240
34776W        W 6502   3.066   4.256  12.838
34777W        W 6503  18.532  16.814   3.212
34778W        W 6504  19.619   7.773  14.075
34779W        W 6505  39.340  36.512  13.493
34780W        W 6506  10.343  32.165   2.458
34781W        W 6507  22.028  10.272  14.458
34782W        W 6508  19.078  20.719  11.952
34783W        W 6509  28.981   6.336   1.368
34784W        W 6510  25.669   4.530  14.781
34785W        W 6511  14.291  44.908   0.595
34786W        W 6512   7.962  39.299  12.987
34787W        W 6513  14.675  21.357  10.322
34788W        W 6514  13.685  23.083  11.391
34789W        W 6515   4.705  10.953  11.460
34790W        W 6516   4.529   8.518   3.473
34791W        W 6517  31.041   7.601   3.097
34792W        W 6518  40.503  42.058   1.918
34793W        W 6519  37.257  37.659  12.970
34794W        W 6520  20.626  11.603   3.750
34795W        W 6521  10.807   1.463   2.633
34796W        W 6522  25.596  31.202  14.347
34797W        W 6523   5.040  36.149  13.604
34798W        W 6524   2.749   9.895  11.583
34799W        W 6525  32.477  15.251  13.348
34800W        W 6526   8.746  19.102  12.939
34801W        W 6527  19.166   0.888  12.089
34802W        W 6528   6.439  28.026  11.660
34803W        W 6529  32.427   1.321  13.608
34804W        W 6530  10.407  20.692   0.273
34805W        W 6531   2.551  41.940  11.470
34806W        W 6532   5.899  32.357   4.067
34807W        W 6533   9.780  44.013  12.922
34808W        W 6534  13.147  32.517   0.982
34809W        W 6535  38.983  18.377  13.157
34810W        W 6536  41.455  11.527  13.539
34811W        W 6537  23.473  23.585  13.902
34812W        W 6538  23.734   0.585   1.847
34813W        W 6539  28.666   1.247   1.478
34814W        W 6540  29.401   6.420  13.760
34815W        W 6541  17.684  24.331  11.159
34816W        W 6542  33.313  11.621   4.062
34817W        W 6543  10.309   5.224   0.340
34818W        W 6544  31.481   1.807   2.255
34819W        W 6545  38.313  29.941  11.690
34820W        W 6546  10.135   4.565   4.110
34821W        W 6547  22.376  38.011  12.019
34822W        W 6548  33.970  25.020   0.703
34823W        W 6549  10.787   1.972  13.081
34824W        W 6550  42.532  39.928   0.854
34825W        W 6551  43.990  21.951   0.424
34826W        W 6552  22.572  17.041  10.678
34827W        W 6553  10.849  22.524   1.135
34828W        W 6554  12.613  16.768   4.570
34829W        W 6555   1.221  27.245  10.512
34830W        W 6556  33.043  42.243   2.986
34831W        W 6557  33.702   8.822   0.335
34832W        W 6558  30.410  14.082   2.624
34833W        W 6559  30.259  26.720  12.535
34834W        W 6560  15.199  35.713   3.092
34835W        W 6561   7.766  13.629   1.897
34836W        W 6562  40.008  29.430  10.399
34837W        W 6563  24.214  12.179   4.279
34838W        W 6564  23.459  33.622  12.536
34839W        W 6565  41.502  41.273   3.814
34840W        W 6566  19.283  18.975  10.696
34841W        W 6567  41.878  30.113   2.834
34842W        W 6568  13.352  13.243  12.926
34843W        W 6569  11.899  20.625  10.396
34844W        W 6570  13.305  37.282   3.305
34845W        W 6571  24.007  41.379  10.723
34846W        W 6572  34.852  32.155   1.998
34847W        W 6573  36.940   0.906   3.122
34848W        W 6574  24.388  43.741   2.681
34849W        W 6575  26.720   5.494  11.574
34850W        W 6576  11.860  31.084   2.964
34851W        W 6577  26.540   6.851   3.648
34852W        W 6578  30.500  42.750   2.785
34853W        W 6579  43.284  19.558  12.919
34854W        W 6580  40.509   9.356   3.363
34855W        W 6581  41.986  12.391  11.584
34856W        W 6582  12.413   4.367  13.011
34857W        W 6583   8.410  13.594  14.774
34858W        W 6584  39.107  11.677  10.622
34859W        W 6585   9.182  23.262   0.339
34860W        W 6586  23.121  38.389   1.269
34861W        W 6587   0.716  25.382  14.295
34862W        W 6588  38.088  30.624   2.646
34863W        W 6589  38.002  25.780  11.521
34864W        W 6590   2.882  43.049  12.523
34865W        W 6591  15.509  21.320   1.807
34866W        W 6592  26.511  44.470   1.766
34867W        W 6593  14.854   4.892   0.043
34868W        W 6594   1.934  34.982   2.675
34869W        W 6595   8.102   3.028  11.550
34870W        W 6596  41.555  37.451   4.575
34871W        W 6597  24.964  23.810   4.103
34872W        W 6598  16.543  44.831  11.939
34873W        W 6599  33.985  23.217  11.986
34874W        W 6600  31.975  34.645  12.267
34875W        W 6601   2.127  14.377   4.337
34876W        W 6602  37.425  29.974  12.389
34877W        W 6603  24.110   9.441   1.032
34878W        W 6604  17.777   6.012   3.230
34879W        W 6605  25.433  31.657   0.309
34880W        W 6606  29.486  27.737  13.570
34881W        W 6607  26.706  25.562  11.497
34882W        W 6608  41.017  44.240   0.816
34883W        W 6609   4.767  33.433   4.725
34884W        W 6610   1.367  41.487  11.117
34885W        W 6611  44.510  38.379   4.556
34886W        W 6612  11.541   5.954  11.722
34887W        W 6613  41.596   8.323   0.936
34888W        W 6614  35.421  17.469  11.111
34889W        W 6615  15.785  39.844   0.436
34890W        W 6616  15.910  33.654   0.465
34891W        W 6617  24.653  34.097   2.728
34892W        W 6618  17.991   5.944   4.082
34893W        W 6619  33.429  20.180   3.403
34894W        W 6620  44.520   3.416  13.980
34895W        W 6621  42.285  18.308   3.700
34896W        W 6622  13.805  28.243   4.041
34897W        W 6623   8.067  13.554  14.393
34898W        W 6624  14.742   9.355  11.489
34899W        W 6625  13.810  11.150  13.521
34900W        W 6626   6.881  39.509   3.668
34901W        W 6627   9.315  23.923   4.193
34902W        W 6628  18.310  38.740  10.207
34903W        W 6629  28.402  12.731  12.063
34904W        W 6630  24.986  14.223  13.253
34905W        W 6631   3.916  13.293   0.737
34906W        W 6632  29.063  21.239   0.043
34907W        W 6633  38.654   1.205  13.445
34908W        W 6634   6.561  14.604   3.056
34909W        W 6635  13.423  13.629   1.904
34910W        W 6636  14.731  28.090   2.564
34911W        W 6637  24.259   1.787   3.586
34912W        W 6638   0.991  42.135   1.425
34913W        W 6639   2.759  18.198  10.367
34914W        W 6640  30.140  21.783   2.201
34915W        W 6641   1.308   0.763  13.442
34916W        W 6642  43.460  28.250  14.446
34917W        W 6643  26.898  39.993   2.714
34918W        W 6644   5.482   2.884  10.851
34919W        W 6645  31.283  37.385   4.673
34920W        W 6646  19.147   6.741  14.189
34921W        W 6647   5.906  25.112   3.279
34922W        W 6648  33.793  36.369  12.462
34923W        W 6649  25.379  24.596   1.876
34924W        W 6650  19.485  25.260   0.445
34925W        W 6651  13.125  42.074   4.114
34926W        W 6652  36.888  37.851   1.294
34927W        W 6653  31.066   8.859  11.490
34928W        W 6654  32.377  10.259   3.870
34929W        W 6655   0.554  26.236   4.561
34930W        W 6656  19.182  32.610  12.015
34931W        W 6657  31.134  14.245   2.930
34932W        W 6658  44.379  28.583   4.171
34933W        W 6659  40.122  23.944   4.089
34934W        W 6660  35.611  38.413  10.751
34935W        W 6661  12.924  12.474  13.956
34936W        W 6662  25.937  36.600  14.407
34937W        W 6663  34.082  33.540   2.117
34938W        W 6664   4.006   8.718   2.912
34939W        W 6665   7.823   9.065  11.163
34940W        W 6666  38.059  24.126   4.117
34941W        W 6667  34.950  18.874  12.024
34942W        W 6668   2.026   9.678   0.408
34943W        W 6669  39.859  40.902  11.916
34944W        W 6670  18.020  22.898  13.882
34945W        W 6671  18.525  13.618   0.860
34946W        W 6672   1.146  37.231  12.075
34947W        W 6673  39.108  20.454  14.986
34948W        W 6674  20.907  27.769  14.891
34949W        W 6675  27.872   3.816   0.650
34950W        W 6676  27.229  24.499   3.291
34951W        W 6677  40.315  36.171   4.112
34952W        W 6678  38.344  13.699   2.199
34953W        W 6679   3.771  33.157   3.380
34954W        W 6680  28.671  36.325   4.640
34955W        W 6681   8.013  29.998   1.699
34956W        W 6682   9.702  29.010  14.836
34957W        W 6683  12.625  30.639  14.365
34958W        W 6684  24.215  20.590  14.022
34959W        W 6685   6.840  41.090   1.455
34960W        W 6686   8.737  38.093  13.300
34961W        W 6687   0.547  24.359   2.650
34962W        W 6688  19.821  31.612   2.614
34963W        W 6689  26.157  18.619   0.902
34964W        W 6690   5.640  21.534   4.575
34965W        W 6691  20.632   1.877  14.343
34966W        W 6692   2.454   1.852  10.716
34967W        W 6693  36.663  18.342   0.256
34968W        W 6694  36.809  30.154   3.348
34969W        W 6695   4.279   9.352  13.481
34970W        W 6696   9.176  10.147   4.578
34971W        W 6697  17.560  25.402   4.697
34972W        W 6698  22.579  40.730   2.914
34973W        W 6699  26.025  14.470   5.053
34974W        W 6700  18.670  41.342   3.283
34975W        W 6701  31.891  28.588  10.684
34976W        W 6702  35.305  22.665  13.734
34977W        W 6703  22.678   6.749   1.405
34978W        W 6704  37.824  43.844  11.093
34979W        W 6705  24.667  41.479  12.660
34980W        W 6706  24.951  15.219   3.233
34981W        W 6707  28.573  14.208  11.853
34982W        W 6708  42.260   9.289   0.040
34983W        W 6709   6.732  37.900   4.622
34984W        W 6710  18.966  19.744  11.950
34985W        W 6711  28.998   1.965  11.587
34986W        W 6712   2.677   3.016  12.575
34987W        W 6713  27.527  15.301   0.726
34988W        W 6714  27.508  10.406  12.260
34989W        W 6715  10.722  44.484  13.950
34990W        W 6716  22.004  41.385  13.063
34991W        W 6717   9.605   8.233  12.996
34992W        W 6718   9.287  34.042  10.683
34993W        W 6719   1.242  29.613  13.440
34994W        W 6720  43.326  36.296  14.762
34995W        W 6721  42.868  11.836   3.631
34996W        W 6722  21.793  16.817  11.700
34997W        W 6723  13.056  37.543  14.022
34998W        W 6724  32.231  27.562  14.580
34999W        W 6725  25.208  14.714  14.092
35000W        W 6726  38.770  31.207  12.507
35001W        W 6727  40.275  13.691  10.612
35002W        W 6728  30.910  28.329   1.544
35003W        W 6729  42.865  31.907   5.019
35004W        W 6730  44.382   2.372  10.596
35005W        W 6731  25.102   5.669  14.389
35006W        W 6732   8.635  30.548   1.984
35007W        W 6733  33.119  25.717  13.906
35008W        W 6734   1.870   0.995   4.756
35009W        W 6735  16.841  20.939   3.206
35010W        W 6736  20.695  28.489  14.103
35011W        W 6737  41.550   1.287  13.980
35012W        W 6738  25.226  21.031  12.379
35013W        W 6739  35.398  44.851   3.669
35014W        W 6740  43.787  39.085  12.477
35015W        W 6741  11.079  24.542   2.706
35016W        W 6742  30.158  10.766   4.020
35017W        W 6743  36.958  35.903  14.529
35018W        W 6744  21.164  32.147   4.249
35019W        W 6745  40.991  13.240   0.511
35020W        W 6746  16.375  42.223   1.904
35021W        W 6747  32.908  26.543  14.480
35022W        W 6748  37.290   3.977   4.151
35023W        W 6749   9.191   2.856  14.208
35024W        W 6750  36.938  39.365   1.934
35025W        W 6751  20.729   3.894  13.386
35026W        W 6752  18.494   2.090  12.979
35027W        W 6753  12.371  38.490  12.921
35028W        W 6754  18.133  14.838  12.498
35029W        W 6755  25.151  41.038  11.152
35030W        W 6756  43.688   1.030  11.399
35031W        W 6757  16.205  42.090  13.003
35032W        W 6758  36.293   0.911  11.621
35033W        W 6759  36.876  22.681  10.785
35034W        W 6760  28.848   7.156   1.737
35035W        W 6761  21.326   5.203  11.816
35036W        W 6762  20.609  20.628   0.074
35037W        W 6763  34.829  36.094  13.381
35038W        W 6764  26.277  13.696   2.315
35039W        W 6765  26.212  21.519  12.052
35040W        W 6766  31.004  18.364   2.502
35041W        W 6767   0.501  28.580   0.999
35042W        W 6768   9.643   0.572  14.431
35043W        W 6769  23.612  27.154  12.014
35044W        W 6770  40.507  16.035  13.915
35045W        W 6771  43.522   8.800   4.551
35046W        W 6772   6.721  28.185   4.031
35047W        W 6773  30.488  33.006   0.481
35048W        W 6774  31.201  19.535  14.161
35049W        W 6775  15.651  34.944   0.413
35050W        W 6776  39.034  44.220  11.958
35051W        W 6777  15.501  10.216  10.805
35052W        W 6778   1.791  44.754  14.266
35053W        W 6779  10.399  15.353  11.517
35054W        W 6780  24.060   2.790  13.534
35055W        W 6781  43.533  27.573   1.804
35056W        W 6782  24.852  21.350   1.147
35057W        W 6783  35.026  26.632  13.126
35058W        W 6784  36.642   9.075  11.228
35059W        W 6785  34.120  19.181  10.717
35060W        W 6786  44.459  22.884  10.685
35061W        W 6787  21.794  40.589   3.746
35062W        W 6788   4.754   2.348   4.018
35063W        W 6789  13.365  12.950  13.378
35064W        W 6790  34.487  36.562   3.221
35065W        W 6791  26.684  27.714   1.306
35066W        W 6792  38.864   1.586   0.869
35067W        W 6793   0.003  41.970   4.236
35068W        W 6794  42.346   2.030  11.713
35069W        W 6795  16.133  11.136   2.806
35070W        W 6796  15.898  39.821   4.508
35071W        W 6797  26.083  29.553  10.792
35072W        W 6798  13.527   2.404   0.965
35073W        W 6799  22.115  21.107  10.359
35074W        W 6800   1.244   3.910  10.448
35075W        W 6801  10.698  10.591   3.889
35076W        W 6802   3.213   8.300  13.232
35077W        W 6803  36.501  43.622  11.869
35078W        W 6804  10.364  16.795   4.119
35079W        W 6805  27.132  31.397  14.614
35080W        W 6806  40.498  30.269  14.735
35081W        W 6807  44.697  13.617   0.400
35082W        W 6808  14.180  43.959  12.543
35083W        W 6809  12.811  21.262   0.839
35084W        W 6810  44.721  12.104   3.652
35085W        W 6811  36.955  12.211  11.658
35086W        W 6812  39.029  30.706  11.604
35087W        W 6813  31.058   8.347  11.551
35088W        W 6814  28.628  36.889   0.899
35089W        W 6815  16.660  33.826   1.180
35090W        W 6816   9.388  15.385   2.643
35091W        W 6817  43.757  41.207   0.778
35092W        W 6818  15.375  17.624   3.958
35093W        W 6819  41.022  24.056  13.359
35094W        W 6820  22.601  42.861  14.319
35095W        W 6821   3.205  35.545   2.787
35096W        W 6822   2.822  35.814   2.116
35097W        W 6823  40.409   7.689   2.362
35098W        W 6824  35.896   2.809  11.908
35099W        W 6825   1.227  38.849  14.780
35100W        W 6826  32.130  23.204   2.348
35101W        W 6827  18.387  27.039  13.852
35102W        W 6828  15.132   6.198  10.704
35103W        W 6829   1.596  14.201   4.355
35104W        W 6830  17.066   5.691   2.322
35105W        W 6831   8.466  18.824   2.166
35106W        W 6832  30.454  14.037   4.086
35107W        W 6833  21.699  18.181   0.850
35108W        W 6834  26.655  30.977   0.731
35109W        W 6835  18.136  23.630   0.860
35110W        W 6836  18.735  31.440   3.952
35111W        W 6837  25.557   7.042  12.997
35112W        W 6838  37.051  20.282  11.177
35113W        W 6839  32.853  11.316   0.585
35114W        W 6840  30.585  27.341  14.833
35115W        W 6841  11.203  41.843   1.378
35116W        W 6842   9.630  43.002   3.570
35117W        W 6843  36.401  12.891   3.370
35118W        W 6844  14.709  35.953  12.959
35119W        W 6845   0.894  31.554  14.959
35120W        W 6846  27.014   9.927  12.115
35121W        W 6847   5.304  41.984  11.703
35122W        W 6848  21.995  38.324  10.581
35123W        W 6849  16.735  37.246   1.161
35124W        W 6850  10.134  27.751   4.257
35125W        W 6851   6.900  36.145  11.009
35126W        W 6852   0.847  23.312  11.158
35127W        W 6853   1.357   9.415  14.038
35128W        W 6854   7.790   4.523  12.694
35129W        W 6855  25.715   2.904  11.382
35130W        W 6856  15.696  29.429  13.288
35131W        W 6857   7.189  39.913   0.479
35132W        W 6858   7.596  34.362   3.793
35133W        W 6859  17.068  31.580  10.091
35134W        W 6860  19.770   1.426   3.671
35135W        W 6861  18.566  38.906  14.939
35136W        W 6862   2.479   6.458   1.613
35137W        W 6863  29.158   6.013  13.987
35138W        W 6864  13.616   9.325   2.288
35139W        W 6865  28.192  16.800  13.478
35140W        W 6866  15.589  23.645   3.359
35141W        W 6867  34.127  37.264   3.634
35142W        W 6868  44.454  25.987   0.363
35143W        W 6869  32.525  15.623  12.408
35144W        W 6870   4.449  43.009  14.189
35145W        W 6871  10.297  38.379  11.259
35146W        W 6872   4.413  33.344  10.134
35147W        W 6873  44.929  44.741  14.377
35148W        W 6874   8.688  43.751  11.567
35149W        W 6875  22.408   8.863  11.361
35150W        W 6876  17.144  21.517   4.093
35151W        W 6877  27.016  37.427  13.552
35152W        W 6878  16.883  33.937  14.925
35153W        W 6879  30.085  19.607   3.462
35154W        W 6880  17.049   0.843  11.222
35155W        W 6881  24.717  36.421  11.385
35156W        W 6882  15.677   4.490  14.300
35157W        W 6883  37.393   6.649   0.771
35158W        W 6884  43.215  11.794   0.259
35159W        W 6885  20.480  16.739   4.109
35160W        W 6886  10.174  17.324   4.931
35161W        W 6887  14.246  11.188  10.612
35162W        W 6888  29.583  34.399  14.922
35163W        W 6889  43.749  44.523   3.256
35164W        W 6890  21.057  18.264   3.321
35165W        W 6891  34.609  41.608  14.991
35166W        W 6892  11.247  31.103   3.782
35167W        W 6893  19.373  16.609   1.297
35168W        W 6894  21.245  20.765   0.746
35169W        W 6895   3.369   5.927  14.093
35170W        W 6896  14.067  42.770  14.795
35171W        W 6897  32.444  32.388  12.851
35172W        W 6898   7.131  17.156   1.859
35173W        W 6899  21.547  43.051   3.231
35174W        W 6900  19.053  36.356  13.876
35175W        W 6901  42.027   9.818   1.796
35176W        W 6902  25.446  34.031  14.183
35177W        W 6903  38.324  17.848   3.172
35178W        W 6904  24.051  16.552  11.789
35179W        W 6905  44.453  23.730   0.717
35180W        W 6906   0.987  21.728  11.431
35181W        W 6907   4.742  26.970   0.347
35182W        W 6908  28.948  23.958   2.739
35183W        W 6909  37.778   6.316   2.662
35184W        W 6910  41.106  10.873   4.057
35185W        W 6911  14.431   5.882   2.797
35186W        W 6912  39.194  41.829  14.833
35187W        W 6913  16.686  16.263   2.861
35188W        W 6914  10.204  39.039   4.561
35189W        W 6915  23.038   2.132   4.098
35190W        W 6916  37.431  33.142   5.080
35191W        W 6917  44.473  21.559  11.678
35192W        W 6918  29.300  40.865   0.978
35193W        W 6919  13.147  25.030   1.450
35194W        W 6920  14.628  35.362   1.789
35195W        W 6921  33.877  21.174   5.034
35196W        W 6922  40.289  16.658  11.544
35197W        W 6923  16.302  16.909   4.036
35198W        W 6924  26.492  18.838   5.019
35199W        W 6925   3.428  36.850   0.805
35200W        W 6926  15.719   9.835   0.278
35201W        W 6927   7.634   4.392   4.838
35202W        W 6928   6.922   9.605   1.926
35203W        W 6929  18.551  11.250  12.962
35204W        W 6930  28.821  40.362   4.010
35205W        W 6931   0.707  12.114   0.974
35206W        W 6932  18.773  27.393   2.368
35207W        W 6933  13.374   2.441   3.763
35208W        W 6934  19.140  39.620   4.024
35209W        W 6935  16.337  30.031   1.161
35210W        W 6936  28.770   9.855  12.359
35211W        W 6937  24.236  21.487  13.988
35212W        W 6938  18.045  18.654  12.235
35213W        W 6939  44.834  20.123  10.892
35214W        W 6940   6.963  11.689   1.235
35215W        W 6941  42.149  43.103  13.769
35216W        W 6942  12.832  26.151  13.863
35217W        W 6943   8.005  10.346   4.557
35218W        W 6944  18.727   3.401   2.323
35219W        W 6945  29.901   0.643  12.824
35220W        W 6946   4.910  15.565  12.508
35221W        W 6947  42.432  27.385   0.476
35222W        W 6948  22.721  27.048  12.854
35223W        W 6949  41.163  13.192  11.145
35224W        W 6950   8.294   9.288  14.049
35225W        W 6951  23.784  29.886   1.869
35226W        W 6952  33.101   7.337   2.429
35227W        W 6953  41.292   6.566  12.928
35228W        W 6954  12.238  10.152  11.971
35229W        W 6955  30.006  22.978  12.011
35230W        W 6956  18.843  12.627  13.826
35231W        W 6957  44.162  22.143   2.293
35232W        W 6958  32.533  27.702   2.697
35233W        W 6959  44.879  24.032   1.509
35234W        W 6960  32.945   7.836   2.214
35235W        W 6961  12.081  35.436  13.844
35236W        W 6962  42.383  10.879   1.197
35237W        W 6963  22.138   3.252  12.468
35238W        W 6964  21.509   6.381   0.667
35239W        W 6965  35.004  23.762   0.719
35240W        W 6966  27.829  23.454  12.958
35241W        W 6967  16.518  19.323   4.816
35242W        W 6968  10.182   7.160   0.454
35243W        W 6969   8.303  26.513   1.789
35244W        W 6970  14.146  20.922   2.706
35245W        W 6971  39.458   9.311   2.267
35246W        W 6972  41.156  38.780  12.825
35247W        W 6973   4.498  18.161   0.855
35248W        W 6974  41.950  43.521  13.427
35249W        W 6975  20.977   0.934   3.440
35250W        W 6976   9.744  34.912  12.026
35251W        W 6977  28.997  21.565   0.804
35252W        W 6978   9.811  39.362  13.428
35253W        W 6979  18.501  39.957  12.439
35254W        W 6980  14.701  44.702  14.878
35255W        W 6981  43.992  28.087   4.629
35256W        W 6982   2.787  14.868   3.567
35257W        W 6983  44.470  18.648   0.854
35258W        W 6984  21.133  13.309   3.300
35259W        W 6985   8.784  19.562  10.594
35260W        W 6986  27.128  11.928  11.228
35261W        W 6987  43.886  36.366   3.325
35262W        W 6988  26.318  28.473   0.292
35263W        W 6989  19.568  10.425   1.666
35264W        W 6990  11.511  35.322  13.989
35265W        W 6991  43.866   9.821   0.292
35266W        W 6992   3.450  29.907  14.441
35267W        W 6993  23.944  40.301  12.465
35268W        W 6994  23.588  22.971  13.447
35269W        W 6995  23.469   6.228   2.386
35270W        W 6996  10.710   2.323   1.265
35271W        W 6997   5.139  34.307   4.002
35272W        W 6998  27.015  18.448   0.899
35273W        W 6999   2.008  20.198   2.571
35274W        W 7000  19.579  10.150   1.229
35275W        W 7001  18.318  26.412   0.956
35276W        W 7002  44.264   2.870  10.734
35277W        W 7003  10.945  37.981   1.914
35278W        W 7004  13.330  42.304  12.952
35279W        W 7005  42.238  33.523  12.510
35280W        W 7006  35.679  12.422   2.102
35281W        W 7007   1.895  19.308  14.231
35282W        W 7008  28.064   6.068  11.165
35283W        W 7009  24.111  22.707  11.588
35284W        W 7010  18.347  31.434  12.638
35285W        W 7011  42.990  37.298   2.420
35286W        W 7012  29.711  15.351   0.325
35287W        W 7013  11.272  11.325  13.002
35288W        W 7014   9.242   3.130   3.228
35289W        W 7015  40.247  30.347   3.600
35290W        W 7016  18.177  21.018   3.120
35291W        W 7017  29.165   3.635   0.302
35292W        W 7018  35.099   5.376  10.775
35293W        W 7019   7.007  10.267   0.899
35294W        W 7020  37.918   4.360   2.647
35295W        W 7021  39.522   2.779  11.614
35296W        W 7022   3.596  37.934   5.052
35297W        W 7023  35.520   3.122  11.710
35298W        W 7024  39.314  41.099  12.464
35299W        W 7025  23.616  15.110   1.855
35300W        W 7026  28.042   2.768  13.335
35301W        W 7027  30.634  21.697  10.729
35302W        W 7028  11.670  39.197   3.799
35303W        W 7029   0.859  35.867  12.465
35304W        W 7030  15.190  38.620  10.596
35305W        W 7031  18.756  42.689  10.397
35306W        W 7032  44.730  11.074  14.482
35307W        W 7033  26.890  42.293  11.409
35308W        W 7034   4.580  14.419   2.103
35309W        W 7035  36.611  15.192   1.154
35310W        W 7036  41.595  19.231   2.284
35311W        W 7037  33.361  16.760   2.928
35312W        W 7038  20.540   1.775   3.226
35313W        W 7039   2.297  38.781  10.626
35314W        W 7040  33.127  18.295   0.337
35315W        W 7041  20.239  33.392   0.357
35316W        W 7042  34.855  12.212   4.623
35317W        W 7043   2.726  38.113  13.368
35318W        W 7044   9.365  23.428  10.675
35319W        W 7045  12.464  39.486  12.937
35320W        W 7046   2.852  28.411   1.272
35321W        W 7047  37.321  13.099   2.374
35322W        W 7048   8.574  41.535  12.320
35323W        W 7049   8.149   9.564   4.122
35324W        W 7050   7.323  39.772  12.204
35325W        W 7051  11.837  33.646   1.870
35326W        W 7052  33.087   5.968   4.241
35327W        W 7053  17.335  10.972  14.402
35328W        W 7054   3.458  38.764  11.489
35329W        W 7055  19.262  27.482   1.345
35330W        W 7056  11.897   2.735  11.734
35331W        W 7057  20.563  29.609   1.809
35332W        W 7058  12.860  19.796  11.568
35333W        W 7059  21.215  21.116  13.407
35334W        W 7060  21.121  42.042  13.526
35335W        W 7061  11.352  29.395  10.631
35336W        W 7062  29.929   0.850   0.126
35337W        W 7063  23.273  13.699   4.352
35338W        W 7064  31.578   6.192   4.610
35339W        W 7065   8.916  10.809  12.235
35340W        W 7066  21.498  44.571  12.325
35341W        W 7067  23.131   7.717   4.832
35342W        W 7068   7.968  22.742   2.198
35343W        W 7069  44.364  30.961  11.762
35344W        W 7070  14.143  22.046   0.391
35345W        W 7071  24.663   1.971   2.600
35346W        W 7072  14.028  25.618   2.298
35347W        W 7073  27.886  38.064  12.601
35348W        W 7074  15.174  18.279   0.423
35349W        W 7075  32.926  36.899   0.262
35350W        W 7076  13.867   1.949   3.229
35351W        W 7077  34.466  43.601   0.320
35352W        W 7078  22.986  26.668  14.825
35353W        W 7079  15.280   0.741   2.902
35354W        W 7080  19.732  23.463  10.959
35355W        W 7081  27.546  32.383  13.889
35356W        W 7082   6.884  18.263  12.065
35357W        W 7083   8.245  39.342  14.282
35358W        W 7084   9.643  10.952   0.979
35359W        W 7085  42.789  43.013  14.495
35360W        W 7086  19.021  17.581   4.189
35361W        W 7087  29.263  13.245   0.768
35362W        W 7088  24.042  40.804   0.416
35363W        W 7089  36.810  35.757   3.293
35364W        W 7090  26.491  19.511   2.881
35365W        W 7091  43.277  42.345   4.757
35366W        W 7092  10.575  28.896   0.974
35367W        W 7093   9.366  11.765   9.961
35368W        W 7094  17.375  26.202   1.143
35369W        W 7095  39.042   9.266   3.320
35370W        W 7096  14.387  40.864  12.033
35371W        W 7097   6.870  14.865   1.149
35372W        W 7098  37.892   4.340   2.119
35373W        W 7099  37.860  31.740  12.502
35374W        W 7100  39.893  23.589  10.906
35375W        W 7101   2.583  44.357   1.643
35376W        W 7102  35.943  32.136   3.396
35377W        W 7103  22.767  23.234  12.462
35378W        W 7104  33.291  15.591  11.963
35379W        W 7105   0.219  21.799   2.728
35380W        W 7106  44.189  16.345   4.651
35381W        W 7107  26.109  14.248   4.228
35382W        W 7108  10.529  41.321   4.929
35383W        W 7109  36.420   8.833   4.296
35384W        W 7110  12.610  18.975  14.569
35385W        W 7111  28.664   8.341  10.714
35386W        W 7112  19.152  10.882   3.278
35387W        W 7113  13.435  18.758   1.178
35388W        W 7114   1.292   5.641  11.968
35389W        W 7115  40.216  25.118  14.802
35390W        W 7116  18.074   0.256  13.691
35391W        W 7117  40.363  43.008   1.748
35392W        W 7118  40.188  43.316   3.365
35393W        W 7119   1.445  39.623   2.011
35394W        W 7120  24.481   2.295  12.757
35395W        W 7121   2.733  32.392   4.746
35396W        W 7122  14.752  14.772   1.949
35397W        W 7123   0.007  39.069   2.242
35398W        W 7124  31.701  30.194  14.802
35399W        W 7125  22.323   9.374  11.129
35400W        W 7126  42.213  37.436  11.132
35401W        W 7127  31.069   7.823   4.113
35402W        W 7128  28.659   7.538   3.872
35403W        W 7129  23.123  11.859   0.359
35404W        W 7130  14.675   0.373  14.334
35405W        W 7131  39.072  34.614   2.276
35406W        W 7132  11.574  31.446   0.832
35407W        W 7133  44.214  12.572   1.798
35408W        W 7134  20.433   0.477   3.432
35409W        W 7135  38.012  26.522   1.313
35410W        W 7136  21.909  36.950  13.754
35411W        W 7137  43.961  15.265   0.860
35412W        W 7138  20.842  18.123   0.515
35413W        W 7139  36.860  29.407   4.724
35414W        W 7140  44.462  29.298  14.369
35415W        W 7141  15.980   6.779   3.123
35416W        W 7142  22.360   4.163   3.639
35417W        W 7143  20.656  40.004   4.610
35418W        W 7144   6.831  39.907  14.317
35419W        W 7145   4.251   0.237   4.637
35420W        W 7146  34.326  13.706   2.819
35421W        W 7147  11.638  14.380   0.915
35422W        W 7148   3.304  38.583  10.657
35423W        W 7149  36.179  27.038  10.645
35424W        W 7150   8.398   8.201  10.748
35425W        W 7151  11.894  12.514   3.948
35426W        W 7152  35.761   5.446   2.725
35427W        W 7153  19.586   1.208   3.207
35428W        W 7154  21.712  13.846   1.385
35429W        W 7155   7.933  30.595  10.803
35430W        W 7156  21.210  37.627  10.767
35431W        W 7157   5.264  22.204  10.716
35432W        W 7158  24.625  37.943   2.350
35433W        W 7159  22.532   1.307  10.681
35434W        W 7160  12.587  14.823  11.330
35435W        W 7161  16.765  37.064  12.126
35436W        W 7162  19.840  41.581  12.894
35437W        W 7163  31.062  22.704   3.583
35438W        W 7164  28.221   5.534  14.150
35439W        W 7165  14.583   9.302  10.486
35440W        W 7166  11.848  17.758   0.735
35441W        W 7167   4.494   2.529  14.825
35442W        W 7168   4.324  17.674   0.798
35443W        W 7169   1.255  11.318   4.788
35444W        W 7170  22.256  31.225   1.358
35445W        W 7171   7.319  39.910   1.951
35446W        W 7172  23.949   1.693  12.846
35447W        W 7173  31.895  15.327  11.178
35448W        W 7174  43.645  26.734   1.295
35449W        W 7175   6.718   1.480  14.919
35450W        W 7176  40.928  34.958  10.635
35451W        W 7177  37.010  27.154   1.486
35452W        W 7178  17.071   1.225  13.082
35453W        W 7179  23.835  22.246  14.079
35454W        W 7180  35.686  28.907  13.373
35455W        W 7181  34.671  22.615  12.534
35456W        W 7182  41.153  38.739  11.052
35457W        W 7183  12.596  10.081  10.982
35458W        W 7184  37.371  39.634   0.867
35459W        W 7185  12.361  20.686  13.631
35460W        W 7186  25.627  37.439  11.512
35461W        W 7187   4.169  41.846   3.619
35462W        W 7188  29.078  38.289   3.627
35463W        W 7189  36.332   6.923  12.029
35464W        W 7190  41.929  15.759  11.713
35465W        W 7191   6.932  19.437   4.706
35466W        W 7192  40.119  42.500   3.333
35467W        W 7193  30.618  24.263  11.047
35468W        W 7194   8.549  25.646  11.244
35469W        W 7195  30.193  18.970   0.991
35470W        W 7196  18.651  11.216   3.243
35471W        W 7197   9.920  44.444  11.591
35472W        W 7198  13.856   9.731  11.555
35473W        W 7199  12.366   0.712   1.856
35474W        W 7200   5.003  30.172  11.162
35475W        W 7201  41.044  12.248   2.280
35476W        W 7202  23.383  13.670   0.760
35477W        W 7203  44.930   0.432   1.460
35478W        W 7204  30.856  41.764   9.733
35479W        W 7205  41.958   4.321   4.337
35480W        W 7206  31.383  12.063   9.916
35481W        W 7207  33.202  12.673  10.514
35482W        W 7208  13.763  12.170  13.801
35483W        W 7209   0.030  35.380  11.640
35484W        W 7210  15.817  44.354  13.037
35485W        W 7211  13.846   4.410  10.615
35486W        W 7212   0.395   8.723   4.751
35487W        W 7213  26.620  35.000  10.581
35488W        W 7214  39.063  22.233  10.132
35489W        W 7215   8.139  11.186   1.308
35490W        W 7216  20.139  43.555   0.325
35491W        W 7217   5.838  20.332   1.689
35492W        W 7218  13.614  16.464   0.337
35493W        W 7219   0.168  44.847   4.149
35494W        W 7220   1.812  44.096  11.955
35495W        W 7221  41.380   0.014  14.398
35496W        W 7222  23.715  23.446  12.548
35497W        W 7223  29.854  37.526  11.590
35498W        W 7224  18.618  27.041   2.718
35499W        W 7225  43.721  32.625  13.027
35500W        W 7226   4.422  33.712   2.890
35501W        W 7227  16.300  11.058  12.864
35502W        W 7228   5.563  39.376  11.836
35503W        W 7229  18.789  32.947   3.144
35504W        W 7230  33.449  44.319   2.924
35505W        W 7231  43.042  33.882  12.501
35506W        W 7232  11.625   2.920  14.478
35507W        W 7233  37.598  26.686   2.304
35508W        W 7234   6.400  27.367  14.007
35509W        W 7235   7.974  44.532   3.733
35510W        W 7236   6.325  32.038  10.311
35511W        W 7237   1.826  15.798  10.865
35512W        W 7238  14.769  26.994   0.780
35513W        W 7239  41.929  11.089   3.152
35514W        W 7240  27.435   5.100  14.559
35515W        W 7241  12.347  29.626   0.212
35516W        W 7242  26.173  41.854   0.603
35517W        W 7243  34.442  13.582  13.543
35518W        W 7244   4.439  31.819   4.893
35519W        W 7245  10.586  18.528   0.760
35520W        W 7246  43.544  32.006   4.455
35521W        W 7247   6.855  10.171  10.945
35522W        W 7248  31.539  35.901  11.157
35523W        W 7249  12.537   1.761  12.376
35524W        W 7250  19.267  27.480  10.760
35525W        W 7251  29.371   9.640   0.668
35526W        W 7252  18.799  16.153  11.068
35527W        W 7253  23.194  44.345   2.344
35528W        W 7254  33.391   5.882  10.220
35529W        W 7255  12.192  31.593  11.320
35530W        W 7256   9.265   6.201  13.878
35531W        W 7257  15.698  13.329   0.892
35532W        W 7258  30.995  16.001  13.493
35533W        W 7259   4.489  40.921   0.237
35534W        W 7260   1.046  34.477   0.075
35535W        W 7261   2.697  25.506   2.202
35536W        W 7262   8.953  10.695  14.005
35537W        W 7263  44.554  10.641   4.802
35538W        W 7264  23.797  11.304  12.463
35539W        W 7265  15.462  25.645  11.599
35540W        W 7266  17.250  27.825  11.543
35541W        W 7267  22.284  25.155   0.684
35542W        W 7268  43.020  26.730   3.228
35543W        W 7269  10.707  20.795  12.647
35544W        W 7270  22.592  16.086   4.134
35545W        W 7271   7.724  24.656   3.275
35546W        W 7272  30.315  44.813   2.344
35547W        W 7273  41.601   4.519  14.080
35548W        W 7274   5.982  16.665   9.610
35549W        W 7275   1.928  39.057  13.320
35550W        W 7276  17.568  40.938   3.682
35551W        W 7277  30.166  36.300  10.716
35552W        W 7278  38.233   1.066   1.276
35553W        W 7279   9.260  22.335  13.147
35554W        W 7280  19.314   3.915   3.275
35555W        W 7281   8.258   5.940   1.954
35556W        W 7282  18.303  11.605   3.300
35557W        W 7283  39.873  16.697   0.249
35558W        W 7284  14.196  18.735   3.750
35559W        W 7285  43.796  17.345  10.492
35560W        W 7286   2.830  26.686  13.047
35561W        W 7287   9.530  44.923  12.062
35562W        W 7288  13.276  20.066   0.741
35563W        W 7289  42.852  43.260  12.601
35564W        W 7290  30.645   1.004   1.357
35565W        W 7291  38.452  24.603   2.476
35566W        W 7292  21.992  41.592   1.285
35567W        W 7293   6.818  41.915  14.547
35568W        W 7294  23.101  33.618  12.024
35569W        W 7295  19.052  43.646   2.642
35570W        W 7296  19.643  26.093   1.390
35571W        W 7297  26.835  36.457  13.417
35572W        W 7298  42.849  24.921  13.467
35573W        W 7299  35.616  24.954  11.561
35574W        W 7300  18.670  33.321  11.665
35575W        W 7301  43.946   6.119  14.391
35576W        W 7302  12.514  25.221  10.685
35577W        W 7303   3.240  22.257   2.660
35578W        W 7304  14.226  32.580   4.461
35579W        W 7305  30.832   7.808   5.042
35580W        W 7306   9.596  14.082  12.853
35581W        W 7307   8.477  41.788   4.014
35582W        W 7308   0.043  33.492   4.799
35583W        W 7309  42.756   4.977   1.164
35584W        W 7310  12.129  33.120   2.352
35585W        W 7311   9.670  35.787   2.603
35586W        W 7312   8.103  17.751  12.963
35587W        W 7313  21.117   2.706  13.953
35588W        W 7314  29.056  25.627  11.068
35589W        W 7315  32.402  24.908   0.816
35590W        W 7316  12.879  36.499  11.147
35591W        W 7317  20.854  16.098   1.741
35592W        W 7318  31.892   1.786   3.554
35593W        W 7319  43.231  44.845   2.677
35594W        W 7320  15.360  39.844  12.034
35595W        W 7321  30.635  26.733   3.811
35596W        W 7322  14.140  25.509  13.981
35597W        W 7323  27.947   6.286   1.245
35598W        W 7324  44.782   6.769   4.752
35599W        W 7325   3.205  43.496   0.024
35600W        W 7326   7.646   5.864   0.711
35601W        W 7327  39.280  26.265  12.541
35602W        W 7328  16.284  26.648  14.432
35603W        W 7329  29.357  28.091   1.441
35604W        W 7330  40.039  33.538  13.393
35605W        W 7331  28.949  42.198   1.707
35606W        W 7332  10.097   9.898  13.895
35607W        W 7333  21.287  29.519   5.117
35608W        W 7334  24.059  42.523   2.627
35609W        W 7335  28.404  15.299  13.813
35610W        W 7336  28.878  31.598   3.347
35611W        W 7337  15.714  11.498  14.619
35612W        W 7338  11.769   2.435  11.036
35613W        W 7339   6.936  32.077   0.783
35614W        W 7340  16.409   8.826  14.205
35615W        W 7341  17.204  17.076   4.576
35616W        W 7342   3.558  17.074  10.703
35617W        W 7343  23.238   0.335  13.769
35618W        W 7344   3.583  32.211  12.004
35619W        W 7345   5.254   4.333   3.122
35620W        W 7346  27.932  27.469  10.542
35621W        W 7347  32.674  35.634  12.470
35622W        W 7348  30.605  39.541  13.507
35623W        W 7349  15.002  15.868  11.065
35624W        W 7350   8.537  23.030   3.545
35625W        W 7351  32.118   6.206   4.545
35626W        W 7352  40.326  44.371  11.731
35627W        W 7353  34.981  18.139   1.212
35628W        W 7354  15.734  25.980  12.041
35629W        W 7355  25.787  41.940  13.980
35630W        W 7356   7.123  38.694   3.040
35631W        W 7357  36.993  25.008   1.817
35632W        W 7358  30.776  42.020  14.146
35633W        W 7359  26.998  40.926   0.280
35634W        W 7360  27.687  19.686   4.354
35635W        W 7361  43.429  12.243   2.765
35636W        W 7362  38.105  21.470   1.979
35637W        W 7363  29.955   8.687  10.823
35638W        W 7364  44.538   5.274  12.078
35639W        W 7365   9.060  24.038   0.855
35640W        W 7366  44.763  12.217  12.506
35641W        W 7367  25.685  28.860  10.830
35642W        W 7368  28.726  29.012   2.562
35643W        W 7369  43.313  37.015  11.594
35644W        W 7370  25.212  24.333  10.819
35645W        W 7371  44.794  42.232   2.479
35646W        W 7372  18.758   7.621   2.907
35647W        W 7373   5.205  19.313   2.812
35648W        W 7374  10.045  39.390   0.424
35649W        W 7375  29.011  44.620   3.707
35650W        W 7376  33.298  36.483  12.551
35651W        W 7377  10.226  24.976   1.460
35652W        W 7378  32.039   0.797  12.301
35653W        W 7379  10.196  41.122  14.936
35654W        W 7380  24.388  18.073   2.676
35655W        W 7381  36.811  21.777  12.360
35656W        W 7382  33.684  39.883  12.013
35657W        W 7383   0.704  44.742  10.622
35658W        W 7384  35.098   8.639   4.898
35659W        W 7385  16.227   5.783  11.853
35660W        W 7386  29.628  37.235  14.741
35661W        W 7387   6.682  33.549   2.896
35662W        W 7388  10.878  32.020   1.724
35663W        W 7389  24.759   6.728   0.772
35664W        W 7390  10.740  23.927  10.979
35665W        W 7391  38.851  25.488   2.654
35666W        W 7392  35.607  19.038   4.743
35667W        W 7393  12.406  21.200  12.901
35668W        W 7394   1.240  33.055  12.826
35669W        W 7395  29.593  38.689   2.123
35670W        W 7396   5.387   1.566   1.309
35671W        W 7397  23.452  29.933   1.436
35672W        W 7398  19.957  30.102  11.173
35673W        W 7399  18.816  13.109  10.675
35674W        W 7400  22.749   0.764   1.848
35675W        W 7401  41.833  32.112   3.581
35676W        W 7402   4.317  35.747  14.944
35677W        W 7403   7.752  33.450   0.917
35678W        W 7404   1.282  26.037  14.755
35679W        W 7405  44.759   8.116  14.165
35680W        W 7406  35.004  29.960  14.519
35681W        W 7407  13.316   9.773  10.413
35682W        W 7408  33.851  35.894  10.505
35683W        W 7409  35.698   4.471   4.071
35684W        W 7410  13.594  14.792  11.832
35685W        W 7411  36.949   5.621  12.042
35686W        W 7412  24.441   3.797   3.794
35687W        W 7413  19.014  25.017   2.657
35688W        W 7414  18.678  33.547   4.655
35689W        W 7415  12.634  12.415  11.351
35690W        W 7416   1.220  43.909  12.469
35691W        W 7417   4.380  34.338  13.427
35692W        W 7418  32.030  21.454   2.864
35693W        W 7419   0.095  33.723   3.213
35694W        W 7420  22.618  43.551   2.451
35695W        W 7421  23.551   5.830  12.941
35696W        W 7422  15.004  34.383  11.468
35697W        W 7423  42.965  21.078  10.016
35698W        W 7424  23.114  18.082   2.284
35699W        W 7425  15.630  13.284  13.818
35700W        W 7426  18.745   5.833  10.776
35701W        W 7427  16.959  39.610  13.982
35702W        W 7428  36.517   5.543   1.009
35703W        W 7429  28.215  35.491   4.997
35704W        W 7430  20.293  38.427  11.141
35705W        W 7431  38.337  25.776  10.386
35706W        W 7432  23.600  37.462   4.243
35707W        W 7433  12.594  27.100  10.673
35708W        W 7434  26.157  19.863  14.416
35709W        W 7435  30.436  40.963   1.789
35710W        W 7436  44.288  40.875   3.679
35711W        W 7437  34.887   2.819   2.598
35712W        W 7438  13.148  44.943   3.842
35713W        W 7439  16.847  38.729   4.284
35714W        W 7440  19.037  23.268  12.347
35715W        W 7441   0.227  28.926   0.715
35716W        W 7442   0.564  31.000   0.158
35717W        W 7443  31.977  13.850  11.575
35718W        W 7444  32.377  27.491   2.246
35719W        W 7445  23.675  31.977  10.510
35720W        W 7446  17.673  37.468   4.830
35721W        W 7447  11.582  22.528   4.515
35722W        W 7448  37.288   0.853  11.537
35723W        W 7449  12.801  29.404   1.881
35724W        W 7450  31.418  23.269  10.496
35725W        W 7451  11.842  10.552   1.741
35726W        W 7452  38.564  21.075  14.086
35727W        W 7453  43.868   5.719  14.739
35728W        W 7454  25.566  26.695   3.970
35729W        W 7455  21.963  44.779  14.045
35730W        W 7456  16.745  30.615  14.973
35731W        W 7457  25.760   8.566  13.806
35732W        W 7458  37.548  10.134   1.325
35733W        W 7459   2.827  21.376  12.622
35734W        W 7460   1.368  17.731  12.372
35735W        W 7461   8.300  23.132   2.431
35736W        W 7462  38.399  28.574  14.209
35737W        W 7463  37.579  43.388  11.134
35738W        W 7464  22.547  16.975   4.152
35739W        W 7465  29.185  29.792  11.127
35740W        W 7466  39.923   2.669   1.364
35741W        W 7467  17.447  32.277  13.531
35742W        W 7468  36.448   4.092  11.134
35743W        W 7469   7.318  36.849   1.725
35744W        W 7470  44.539  10.795   3.496
35745W        W 7471  18.148  36.869  12.556
35746W        W 7472  39.298   0.302  14.331
35747W        W 7473  11.682  27.505  11.734
35748W        W 7474  25.400  11.977  12.157
35749W        W 7475  43.947  20.132  13.055
35750W        W 7476   8.330  19.110   2.714
35751W        W 7477  22.559   1.999   4.264
35752W        W 7478  30.101  13.250   0.435
35753W        W 7479  41.427   4.993   3.300
35754W        W 7480  15.823  18.904   0.749
35755W        W 7481  29.383  30.382  11.952
35756W        W 7482  25.598  10.921  11.121
35757W        W 7483  20.755  30.037  12.454
35758W        W 7484   2.925   0.001  12.884
35759W        W 7485   7.954  31.483   1.718
35760W        W 7486  41.316   4.067   0.365
35761W        W 7487   0.675   4.768  10.203
35762W        W 7488   9.393  13.129  10.739
35763W        W 7489  38.050  20.306  11.971
35764W        W 7490  34.930  43.310  12.634
35765W        W 7491   7.338  22.123  14.693
35766W        W 7492   8.132  14.225   0.585
35767W        W 7493  14.670   5.348   3.002
35768W        W 7494   7.654  14.555   0.758
35769W        W 7495   5.881  18.745  13.964
35770W        W 7496   6.165  22.778   1.179
35771W        W 7497   7.926  20.300  13.425
35772W        W 7498  39.999  42.007   4.182
35773W        W 7499  12.450  43.547  12.836
35774W        W 7500  17.578  23.281   1.244
35775W        W 7501   0.691  15.546   2.479
35776W        W 7502  29.652  21.723  10.950
35777W        W 7503  23.397  13.150  12.167
35778W        W 7504  24.447  23.829   4.050
35779W        W 7505  43.829  33.049   0.094
35780W        W 7506  35.401  34.844   3.897
35781W        W 7507   6.146  16.580  12.052
35782W        W 7508  40.593  23.631   2.735
35783W        W 7509  28.626   8.299   1.240
35784W        W 7510  10.256  26.183  14.805
35785W        W 7511  13.313  12.646  12.487
35786W        W 7512  10.830   9.614  10.546
35787W        W 7513   5.508   9.445   4.856
35788W        W 7514  10.318  22.560   1.133
35789W        W 7515  10.855   0.963  10.787
35790W        W 7516  24.234   8.348  14.041
35791W        W 7517  10.922  17.241   1.936
35792W        W 7518  11.820  31.655  13.414
35793W        W 7519  20.171  40.756   2.356
35794W        W 7520  26.500  36.003  10.743
35795W        W 7521  37.579  18.237  13.417
35796W        W 7522  40.033  17.673   3.735
35797W        W 7523  44.810  10.914   4.429
35798W        W 7524  40.080  24.123   3.204
35799W        W 7525   0.358   4.726   4.878
35800W        W 7526  23.210  44.916  11.074
35801W        W 7527  14.773   5.995   2.372
35802W        W 7528  34.485  35.671  13.239
35803W        W 7529  31.445   6.360  14.157
35804W        W 7530  37.147   3.020   3.787
35805W        W 7531  12.628  21.148  13.717
35806W        W 7532  14.539   9.584  12.896
35807W        W 7533  24.565  26.032  14.129
35808W        W 7534  19.514  15.063  14.449
35809W        W 7535  43.497  41.300   3.063
35810W        W 7536  40.430  23.164   2.882
35811W        W 7537  25.697  11.718  11.532
35812W        W 7538  43.806  25.050  11.116
35813W        W 7539  38.126  29.039   1.734
35814W        W 7540  25.746   2.238  13.043
35815W        W 7541  18.764  38.010  14.861
35816W        W 7542  43.539  31.929  11.340
35817W        W 7543  35.774  22.631  11.670
35818W        W 7544  24.543  19.278  13.866
35819W        W 7545  20.775   6.806   1.674
35820W        W 7546  38.047  41.971   1.815
35821W        W 7547  21.659  20.365  11.239
35822W        W 7548  40.601  14.181   5.311
35823W        W 7549  38.223   9.328   4.585
35824W        W 7550  26.725   9.369   2.350
35825W        W 7551   7.901   4.673  11.643
35826W        W 7552  28.458   4.023  12.945
35827W        W 7553  32.352   2.951  13.227
35828W        W 7554  39.945  28.619   4.190
35829W        W 7555  19.577  11.430   2.730
35830W        W 7556   5.352  18.779  13.882
35831W        W 7557  38.450   5.081  11.228
35832W        W 7558  27.632   9.644   1.401
35833W        W 7559  24.543   4.377   5.017
35834W        W 7560   2.006  26.854   0.834
35835W        W 7561  30.960   1.666  14.326
35836W        W 7562  16.545  25.791   0.304
35837W        W 7563  40.089  13.830   2.714
35838W        W 7564  41.983  20.241  11.976
35839W        W 7565   7.539  12.365   0.875
35840W        W 7566  31.733   0.009  10.217
35841W        W 7567  32.884  41.749   4.960
35842W        W 7568  38.398  35.406  11.714
35843W        W 7569  30.905  42.031   2.159
35844W        W 7570  27.227  10.773   4.629
35845W        W 7571  26.934   2.651  12.480
35846W        W 7572  25.959  24.868  10.737
35847W        W 7573   8.721  16.617   4.836
35848W        W 7574  42.925   0.594  10.943
35849W        W 7575  15.130  31.354  12.365
35850W        W 7576  29.142  15.232  13.578
35851W        W 7577  25.915  18.251  13.454
35852W        W 7578  33.165  21.731   0.300
35853W        W 7579   1.745  32.023  14.693
35854W        W 7580   7.612  28.948   2.429
35855W        W 7581  24.598   0.955  13.379
35856W        W 7582  37.011  40.879   4.879
35857W        W 7583  44.781  37.994  11.727
35858W        W 7584  36.051  39.766  12.788
35859W        W 7585  25.907  26.553   3.120
35860W        W 7586  40.478  44.431  14.256
35861W        W 7587  35.062  31.994  10.745
35862W        W 7588  15.656  31.454   0.357
35863W        W 7589  31.274  39.468  11.916
35864W        W 7590  43.577  25.139  11.625
35865W        W 7591  20.192  12.502  10.278
35866W        W 7592  24.269   1.536  12.467
35867W        W 7593  41.261   3.821  12.875
35868W        W 7594  18.101   4.490  14.480
35869W        W 7595  10.807  35.695   2.235
35870W        W 7596  27.430  36.925  12.114
35871W        W 7597  42.646  33.143   0.420
35872W        W 7598  10.212  18.039  14.906
35873W        W 7599  21.936  21.854   0.808
35874W        W 7600   5.317   6.305   0.971
35875W        W 7601  34.578  19.171  13.024
35876W        W 7602  22.816  25.743   1.889
35877W        W 7603  26.045  37.284  10.385
35878W        W 7604  35.347   0.580   0.915
35879W        W 7605   2.269  20.543  11.306
35880W        W 7606  36.369   4.298  14.786
35881W        W 7607  35.108  24.017   3.266
35882W        W 7608   9.169  14.623   0.852
35883W        W 7609   3.199  29.465  13.652
35884W        W 7610  41.488  20.188   4.821
35885W        W 7611  20.304  33.572  10.687
35886W        W 7612  38.794  15.717  11.097
35887W        W 7613  40.901  29.902   1.786
35888W        W 7614  20.172  36.646   3.812
35889W        W 7615   9.085  11.357  11.146
35890W        W 7616   3.627  21.750   4.196
35891W        W 7617  18.662  18.309   1.235
35892W        W 7618  44.957  13.146   0.412
35893W        W 7619   3.989  19.483   0.818
35894W        W 7620  18.874  38.310  12.662
35895W        W 7621   4.905  22.914   0.431
35896W        W 7622  36.920  16.269   2.472
35897W        W 7623  19.716  26.432   0.968
35898W        W 7624   3.256  41.806  13.126
35899W        W 7625  28.072  37.542   0.811
35900W        W 7626  28.475  27.619  10.520
35901W        W 7627  22.452  24.490  12.813
35902W        W 7628   5.653   1.960   2.308
35903W        W 7629  43.922  25.131   1.947
35904W        W 7630  28.310  23.560  10.268
35905W        W 7631  40.818  19.772   0.410
35906W        W 7632  11.153  12.736  12.886
35907W        W 7633   6.381  21.489  13.060
35908W        W 7634  43.231  13.258   1.334
35909W        W 7635   1.861   9.279   1.910
35910W        W 7636  40.870  35.731  11.943
35911W        W 7637   7.110  17.710   1.300
35912W        W 7638   1.392  38.417   1.163
35913W        W 7639  15.251  28.968  13.785
35914W        W 7640  19.762  42.587   2.651
35915W        W 7641  27.700  30.501   1.192
35916W        W 7642  13.664  41.095   1.342
35917W        W 7643  34.533   8.076   2.063
35918W        W 7644  17.312  42.855  14.089
35919W        W 7645  44.355  35.503   1.722
35920W        W 7646  43.840  43.513   3.833
35921W        W 7647  12.360  16.140   1.911
35922W        W 7648   1.399  19.880  10.559
35923W        W 7649  30.065  27.650   0.464
35924W        W 7650   5.413  27.186  13.059
35925W        W 7651  42.748  21.657  12.576
35926W        W 7652   3.654  22.067  12.580
35927W        W 7653   5.370   1.923  10.779
35928W        W 7654  35.089  40.117   2.385
35929W        W 7655  12.290  34.052  13.546
35930W        W 7656  24.623  29.470   3.364
35931W        W 7657   4.155  22.308   0.695
35932W        W 7658  24.705  10.371  11.323
35933W        W 7659   1.497   7.786  11.556
35934W        W 7660   6.749  14.692   2.144
35935W        W 7661  23.830  21.153   4.249
35936W        W 7662  12.650  28.369   2.739
35937W        W 7663   9.165  37.692   2.195
35938W        W 7664  25.193  43.309   5.095
35939W        W 7665  15.545  43.447   4.085
35940W        W 7666  22.882  33.509  10.113
35941W        W 7667   6.780   7.311   4.630
35942W        W 7668  42.125  20.194  11.055
35943W        W 7669   6.283   5.640   1.347
35944W        W 7670   3.712  33.956  11.714
35945W        W 7671   4.200  15.624   4.139
35946W        W 7672   1.210  11.603   2.143
35947W        W 7673  10.768  39.346  14.431
35948W        W 7674   1.944  23.378  14.645
35949W        W 7675  26.228  30.179  11.872
35950W        W 7676  30.053  32.671  10.642
35951W        W 7677  38.838  24.889  14.775
35952W        W 7678  28.123  37.910  12.155
35953W        W 7679   6.668  11.006  11.891
35954W        W 7680  28.199  39.586   2.959
35955W        W 7681   7.708  38.891  11.599
35956W        W 7682  12.127   8.921  12.564
35957W        W 7683   1.736  27.723   0.387
35958W        W 7684  29.952  33.560   4.242
35959W        W 7685  10.877  35.959  10.128
35960W        W 7686   4.202   5.614   1.408
35961W        W 7687  26.560  36.266   3.400
35962W        W 7688  38.433  11.140   3.804
35963W        W 7689  40.921  18.355   3.361
35964W        W 7690  24.938   0.497   3.337
35965W        W 7691  39.548  19.039  11.562
35966W        W 7692  23.745  40.515   3.588
35967W        W 7693  21.557  25.507   5.342
35968W        W 7694   3.262  26.635  10.623
35969W        W 7695  19.763  13.654   2.758
35970W        W 7696  44.512  20.573  13.755
35971W        W 7697  15.109  25.904  14.267
35972W        W 7698  14.756  15.844   2.322
35973W        W 7699   4.877  35.112  13.358
35974W        W 7700  33.177  22.578  12.151
35975W        W 7701  33.620  24.535  11.915
35976W        W 7702  30.743   5.164   1.889
35977W        W 7703  13.787  35.980   3.262
35978W        W 7704   8.632   8.710   2.792
35979W        W 7705  41.663  35.441  14.374
35980W        W 7706  26.695  24.070  12.102
35981W        W 7707  44.404  12.461   0.498
35982W        W 7708  26.043   6.885   2.174
35983W        W 7709  10.855  39.478   0.764
35984W        W 7710   2.748  30.895  11.197
35985W        W 7711  35.260  21.313  12.888
35986W        W 7712  43.954  35.986  12.459
35987W        W 7713  20.035   0.524   2.521
35988W        W 7714  16.622  21.258   4.020
35989W        W 7715   9.411  23.483  12.032
35990W        W 7716  31.133  23.899   2.775
35991W        W 7717  26.509   8.210  13.551
35992W        W 7718  20.208  43.320  10.936
35993W        W 7719  18.829  26.027   2.426
35994W        W 7720  16.443  39.501  13.931
35995W        W 7721  36.144  29.053   0.875
35996W        W 7722  10.646  10.145  13.076
35997W        W 7723   1.321   8.703   3.766
35998W        W 7724  34.023   5.395   2.708
35999W        W 7725   5.174  22.465   4.104
36000W        W 7726  44.478  33.161  12.385
36001W        W 7727   8.313  16.697  14.199
36002W        W 7728  34.960  39.148  13.004
36003W        W 7729  26.931  18.032  13.948
36004W        W 7730   6.643  21.498  13.508
36005W        W 7731  23.077   9.762   0.016
36006W        W 7732  13.617  24.428  14.888
36007W        W 7733  31.558  31.977  14.345
36008W        W 7734  31.512   8.754   4.814
36009W        W 7735  34.484  15.167   1.935
36010W        W 7736   0.010   4.747   3.238
36011W        W 7737  21.569  34.143  13.854
36012W        W 7738  33.612   1.885   4.575
36013W        W 7739  26.227  44.222   1.402
36014W        W 7740  20.517  22.864  14.243
36015W        W 7741  36.812  14.301  10.331
36016W        W 7742   6.243  20.026   0.356
36017W        W 7743  10.856  36.320   0.424
36018W        W 7744  10.704  22.655  11.159
36019W        W 7745  41.857  20.759  10.854
36020W        W 7746   2.304   5.315  12.974
36021W        W 7747  21.480   3.044   2.188
36022W        W 7748  42.796  15.706  10.582
36023W        W 7749   1.350  43.579   0.093
36024W        W 7750  35.083  37.863  14.841
36025W        W 7751  18.008   3.696   3.669
36026W        W 7752  20.155  19.612  14.435
36027W        W 7753  27.735  14.448   1.467
36028W        W 7754  39.191  43.653   3.644
36029W        W 7755  28.113   4.623  10.116
36030W        W 7756  44.607   3.606  13.517
36031W        W 7757   1.505  23.457   3.669
36032W        W 7758  11.169  36.219   5.554
36033W        W 7759  25.180  33.172  13.521
36034W        W 7760  22.641  19.941  13.846
36035W        W 7761  15.401  38.416   2.090
36036W        W 7762  25.288  31.730  14.814
36037W        W 7763  41.595  21.224   4.586
36038W        W 7764  25.404  35.978  13.799
36039W        W 7765  23.143   5.444   3.368
36040W        W 7766  14.443  24.521  10.685
36041W        W 7767  15.051  23.721  12.502
36042W        W 7768  31.148  10.609   2.169
36043W        W 7769  18.088  33.376   3.442
36044W        W 7770  33.118  27.554  14.899
36045W        W 7771  20.825   7.179  11.297
36046W        W 7772  44.225  37.922  11.899
36047W        W 7773  42.407  36.426   2.774
36048W        W 7774  37.142   1.989   3.684
36049W        W 7775  18.078  35.523   4.422
36050W        W 7776  18.233  12.623   1.326
36051W        W 7777  36.327  30.091   3.156
36052W        W 7778  38.573  44.340  13.580
36053W        W 7779  39.803  14.667   3.183
36054W        W 7780   3.702  14.247   0.795
36055W        W 7781   9.279  41.033   1.094
36056W        W 7782  24.597   9.935   4.030
36057W        W 7783  32.544  30.825  12.860
36058W        W 7784  39.039  37.345   0.320
36059W        W 7785   4.678   7.039   3.286
36060W        W 7786   1.197  11.249  14.527
36061W        W 7787   6.896  44.311  11.666
36062W        W 7788   4.612  18.058  13.464
36063W        W 7789  16.827  25.870   4.255
36064W        W 7790  44.188   5.399  11.553
36065W        W 7791  36.069  31.395  13.132
36066W        W 7792   8.378  16.667   1.671
36067W        W 7793  13.603  13.647  14.244
36068W        W 7794  44.253  12.328  12.501
36069W        W 7795  42.963  41.934   4.712
36070W        W 7796  10.450  35.370   1.391
36071W        W 7797  40.010   2.489   2.661
36072W        W 7798  37.596  43.997   1.295
36073W        W 7799  28.860  19.840   0.364
36074W        W 7800   7.258   1.355   3.230
36075W        W 7801   5.733   5.105   0.919
36076W        W 7802   3.312  20.627   4.239
36077W        W 7803  25.193  34.579  12.585
36078W        W 7804  31.413   9.693  11.568
36079W        W 7805  33.310  38.349   1.863
36080W        W 7806  11.039  21.649   2.386
36081W        W 7807  35.733   3.572   0.489
36082W        W 7808  20.574  24.308   4.785
36083W        W 7809  36.709  25.513  12.948
36084W        W 7810  18.100  31.490   1.325
36085W        W 7811  41.247  40.479  13.860
36086W        W 7812  35.603  19.321   0.789
36087W        W 7813   5.678  34.596  11.976
36088W        W 7814  10.222  37.811   1.399
36089W        W 7815  32.069  31.195  10.745
36090W        W 7816  12.264  18.303   4.558
36091W        W 7817  31.625   4.174  12.044
36092W        W 7818   2.412  43.197  12.723
36093W        W 7819  42.924   5.301  13.362
36094W        W 7820  29.698  40.524   4.536
36095W        W 7821  22.516  14.026   5.186
36096W        W 7822  34.409   5.040   0.823
36097W        W 7823  15.334  18.702  13.421
36098W        W 7824  43.496  41.132   2.168
36099W        W 7825  24.356  13.349   2.666
36100W        W 7826  44.158  19.627   5.047
36101W        W 7827  40.972  13.760  14.698
36102W        W 7828  33.345   8.239   2.859
36103W        W 7829  21.259  16.612  11.131
36104W        W 7830  42.420  26.811   0.497
36105W        W 7831  34.344   1.452  14.433
36106W        W 7832  41.473  13.440   0.821
36107W        W 7833  19.085  16.193   1.336
36108W        W 7834   0.552  41.331  10.763
36109W        W 7835  17.250   9.267  14.376
36110W        W 7836   8.787   0.971   2.462
36111W        W 7837   0.217   7.640  11.986
36112W        W 7838  24.278  17.096   0.542
36113W        W 7839  33.008  29.503  14.351
36114W        W 7840   1.715  34.549   0.293
36115W        W 7841   0.501   0.881   3.612
36116W        W 7842  17.875  19.621   3.271
36117W        W 7843  39.918  25.114   0.445
36118W        W 7844   6.677  25.209  12.036
36119W        W 7845   6.876  22.059   4.647
36120W        W 7846  12.859  11.373  14.901
36121W        W 7847  23.003  26.597   4.253
36122W        W 7848  27.604   4.890   2.184
36123W        W 7849  21.672  26.637   1.065
36124W        W 7850  25.178  28.924   4.749
36125W        W 7851  35.558   2.492   3.300
36126W        W 7852  35.533   1.023   4.503
36127W        W 7853   7.191   2.247   2.209
36128W        W 7854  11.288  21.588  14.973
36129W        W 7855   4.382   5.198  11.390
36130W        W 7856   3.825  36.257   4.082
36131W        W 7857  20.415   2.330   3.389
36132W        W 7858  23.580  27.085  11.175
36133W        W 7859   0.884  15.612   2.936
36134W        W 7860  42.504  40.014  12.186
36135W        W 7861  21.467  34.221   1.781
36136W        W 7862  44.306   5.003   1.873
36137W        W 7863  26.504  31.791  14.513
36138W        W 7864  31.148  24.956  11.325
36139W        W 7865  14.212  38.640  10.730
36140W        W 7866   2.709  32.001   2.453
36141W        W 7867  33.642  10.909   4.516
36142W        W 7868  19.625  42.353   1.446
36143W        W 7869  38.123  22.806  12.087
36144W        W 7870  43.413  36.568   1.711
36145W        W 7871  21.474  14.510   5.467
36146W        W 7872  16.203  20.071   4.675
36147W        W 7873  29.116  35.031   2.839
36148W        W 7874  23.713  24.514   3.378
36149W        W 7875  39.622  33.824  13.509
36150W        W 7876  34.041  30.110  13.023
36151W        W 7877  23.100  20.718   4.104
36152W        W 7878   5.057  39.478  11.935
36153W        W 7879  35.543  33.629   4.280
36154W        W 7880  15.122  37.552   4.110
36155W        W 7881  41.937  39.795   0.228
36156W        W 7882   7.295  39.346  14.187
36157W        W 7883   9.394  35.486   3.208
36158W        W 7884  41.607  42.396  11.159
36159W        W 7885  10.905  14.532  14.331
36160W        W 7886   8.420  15.590   0.370
36161W        W 7887   2.907  10.608  14.331
36162W        W 7888  41.289  14.467   0.426
36163W        W 7889  32.631   2.473  14.841
36164W        W 7890  26.537  11.841   3.066
36165W        W 7891   3.922   6.387   2.417
36166W        W 7892  43.437  40.754  11.120
36167W        W 7893  24.651  37.135  14.404
36168W        W 7894  43.290  15.993   4.759
36169W        W 7895  28.358  15.112   3.093
36170W        W 7896  10.146  31.734   3.779
36171W        W 7897  26.499   5.183   3.094
36172W        W 7898  15.863  24.626   4.285
36173W        W 7899  16.104  18.512  14.460
36174W        W 7900  41.346  31.894  13.151
36175W        W 7901  33.424  10.108   0.432
36176W        W 7902  24.953  35.463   3.154
36177W        W 7903  11.680  37.524   1.167
36178W        W 7904  20.768  33.456  11.506
36179W        W 7905  13.740  25.115   4.106
36180W        W 7906  25.084  44.524  11.440
36181W        W 7907  35.882  35.832   2.354
36182W        W 7908  37.889   4.601   3.153
36183W        W 7909  40.506   0.264   3.199
36184W        W 7910  11.697   5.324  13.374
36185W        W 7911  17.222  34.445  11.095
36186W        W 7912   5.177  33.434  11.970
36187W        W 7913  12.694  32.682  14.112
36188W        W 7914   4.394  43.013  10.658
36189W        W 7915  44.816  37.581  14.821
36190W        W 7916  44.390  38.943  14.465
36191W        W 7917   0.721   2.974  14.494
36192W        W 7918   5.586   5.212  13.997
36193W        W 7919  33.646  32.437   2.249
36194W        W 7920  20.756  12.045  10.677
36195W        W 7921  33.174  17.355   0.871
36196W        W 7922  14.470  16.596   0.044
36197W        W 7923  10.959  35.362   1.286
36198W        W 7924   0.069  12.655   2.516
36199W        W 7925   8.760  42.975  13.422
36200W        W 7926   4.738  15.723   1.919
36201W        W 7927   5.050  25.039  11.569
36202W        W 7928   2.304  15.900   1.992
36203W        W 7929  16.558  20.757   4.137
36204W        W 7930   0.931  17.856  12.108
36205W        W 7931   4.433  13.876  12.428
36206W        W 7932  25.125  42.312  12.868
36207W        W 7933   8.309  22.008   0.347
36208W        W 7934  17.727  20.665  14.470
36209W        W 7935  27.065   8.771   0.938
36210W        W 7936   2.674   1.464   3.190
36211W        W 7937  17.813  33.885  11.115
36212W        W 7938   6.149  26.947  11.167
36213W        W 7939   2.345  14.907   0.014
36214W        W 7940  40.731  13.844  10.416
36215W        W 7941  27.943  12.676  12.945
36216W        W 7942  22.221   0.378  14.873
36217W        W 7943  36.933  23.799  14.314
36218W        W 7944  41.891  36.433   2.925
36219W        W 7945  38.802  30.693  12.494
36220W        W 7946  29.736  25.629  13.795
36221W        W 7947  30.985  37.405   1.706
36222W        W 7948  27.714   1.893   5.002
36223W        W 7949   6.410  37.585  14.474
36224W        W 7950  16.625  20.231  11.522
36225W        W 7951  32.090  21.959   3.542
36226W        W 7952   4.372  43.300  11.471
36227W        W 7953  27.239  21.630  13.910
36228W        W 7954  12.235  17.386   3.811
36229W        W 7955   7.116  17.079   4.604
36230W        W 7956  36.880  31.109  11.445
36231W        W 7957   5.785  40.185  11.996
36232W        W 7958  29.585   4.344  13.558
36233W        W 7959   4.173  33.761  11.877
36234W        W 7960  21.627  38.124  10.917
36235W        W 7961  42.077  20.850  10.396
36236W        W 7962  44.493  22.754   0.863
36237W        W 7963  12.556   7.878  14.490
36238W        W 7964  18.899  37.139  11.541
36239W        W 7965  31.894   4.266   2.861
36240W        W 7966  13.279  39.568   4.056
36241W        W 7967  42.884  33.021  14.933
36242W        W 7968  15.264   3.124   0.901
36243W        W 7969  21.689   4.446  11.858
36244W        W 7970  17.626  30.101  11.543
36245W        W 7971  26.395  40.866  13.171
36246W        W 7972  36.612  40.305  12.508
36247W        W 7973  22.765   6.706   2.445
36248W        W 7974  32.559  18.682  14.930
36249W        W 7975  40.942  19.557  12.116
36250W        W 7976  16.496  24.485  11.460
36251W        W 7977  40.302   9.933  11.860
36252W        W 7978   6.289  35.377  11.423
36253W        W 7979   5.842  14.905  13.884
36254W        W 7980  10.683  13.167   4.095
36255W        W 7981  23.690  13.069  10.954
36256W        W 7982  26.113  14.593  13.986
36257W        W 7983  12.119  41.899   4.820
36258W        W 7984  10.138  38.918  11.168
36259W        W 7985  19.604  12.290  11.499
36260W        W 7986   0.441  35.535   1.640
36261W        W 7987  27.084  39.828  10.936
36262W        W 7988  16.670   8.607   0.940
36263W        W 7989  39.500  21.080  11.563
36264W        W 7990  14.035  15.093  12.580
36265W        W 7991  33.938  20.620   2.166
36266W        W 7992  43.013  11.216   2.773
36267W        W 7993   6.862   4.519   9.707
36268W        W 7994   4.041  19.958  14.506
36269W        W 7995  37.800  24.558  11.960
36270W        W 7996   6.911  28.023   4.480
36271W        W 7997  20.920  10.617   3.783
36272W        W 7998  26.703   3.499   3.188
36273W        W 7999   2.941  43.891  13.391
36274W        W 8000  17.287   8.821  13.997
36275W        W 8001  33.888  31.378   1.813
36276W        W 8002   8.628  19.263   4.178
36277W        W 8003  30.522  30.634   1.046
36278W        W 8004  12.081   0.217  13.554
36279W        W 8005  24.236  12.439   4.768
36280W        W 8006  40.252  14.258   3.680
36281W        W 8007  11.827  18.804  11.952
36282W        W 8008  15.260  12.060   0.889
36283W        W 8009  20.252  12.826  10.702
36284W        W 8010   6.128  28.905   4.422
36285W        W 8011  13.975  35.315  12.875
36286W        W 8012  35.429   1.943  10.719
36287W        W 8013  33.154  12.086   0.811
36288W        W 8014  21.168  27.601  11.730
36289W        W 8015  29.345  25.302  13.904
36290W        W 8016   2.367   3.965   0.984
36291W        W 8017   2.327  43.595   0.449
36292W        W 8018   8.222  17.670  14.506
36293W        W 8019  35.783  23.123   0.423
36294W        W 8020  28.398   6.905  14.306
36295W        W 8021  25.065  40.820   2.732
36296W        W 8022   2.248   3.759   4.633
36297W        W 8023  10.307  17.833   3.045
36298W        W 8024  22.139  14.135   1.368
36299W        W 8025  13.087  43.439   0.338
36300W        W 8026  21.758  16.519  12.614
36301W        W 8027  31.880  21.942   4.618
36302W        W 8028  33.076  39.128   2.191
36303W        W 8029   6.302  10.410   4.275
36304W        W 8030   4.252  15.772   5.024
36305W        W 8031   0.353  29.588  13.615
36306W        W 8032  40.829  17.540  12.104
36307W        W 8033  26.126  10.559  14.587
36308W        W 8034  30.958  37.003  13.896
36309W        W 8035  27.008   7.667   1.643
36310W        W 8036  23.638  30.512  14.108
36311W        W 8037  38.130  41.003   2.722
36312W        W 8038  30.632  22.482  11.201
36313W        W 8039  39.029  21.269   4.557
36314W        W 8040  25.381  43.188  11.640
36315W        W 8041  25.571  16.275  12.872
36316W        W 8042  37.161  39.857  13.987
36317W        W 8043  17.655  24.513   3.709
36318W        W 8044  28.733  14.151   2.348
36319W        W 8045  26.673  14.678  14.384
36320W        W 8046  28.498  29.043   3.939
36321W        W 8047  24.203   1.738   2.849
36322W        W 8048   2.341  24.862   4.585
36323W        W 8049  16.123  39.859   4.052
36324W        W 8050  34.436   2.351   3.787
36325W        W 8051  17.254  13.846   3.197
36326W        W 8052  20.905   1.051   1.043
36327W        W 8053  15.257  31.959  11.969
36328W        W 8054  28.678  24.700   0.012
36329W        W 8055  18.444   2.912   0.718
36330W        W 8056  15.730  25.690  11.142
36331W        W 8057  15.162   2.617   0.769
36332W        W 8058   8.651  35.848  10.524
36333W        W 8059  10.093   7.615   3.251
36334W        W 8060  34.304  38.511   1.837
36335W        W 8061  29.881  10.948  12.552
36336W        W 8062  17.039  12.781   0.691
36337W        W 8063  42.928  37.394   1.922
36338W        W 8064  26.460  12.685   4.993
36339W        W 8065  30.545  44.922  13.028
36340W        W 8066   7.672  10.812   3.805
36341W        W 8067  19.533  44.771  11.616
36342W        W 8068   8.417  40.342   2.385
36343W        W 8069   3.904   2.849   3.245
36344W        W 8070  13.387  21.700  14.937
36345W        W 8071  25.050  19.785  12.598
36346W        W 8072  27.725  28.214  12.565
36347W        W 8073  17.675   3.722   4.139
36348W        W 8074  29.405  35.961  11.295
36349W        W 8075  40.503  20.285  10.895
36350W        W 8076   0.586   8.312  13.615
36351W        W 8077  15.993  31.413   1.440
36352W        W 8078  12.795  25.285  14.768
36353W        W 8079  42.950  20.954   2.763
36354W        W 8080  17.089   1.345  10.343
36355W        W 8081   3.017  26.710  11.062
36356W        W 8082  24.361  37.585  12.779
36357W        W 8083   4.416   3.911   3.645
36358W        W 8084  27.069  41.977  13.532
36359W        W 8085  44.765  25.889   4.258
36360W        W 8086  25.549  16.669   3.457
36361W        W 8087  27.203  19.232  11.066
36362W        W 8088  33.016  23.368  12.459
36363W        W 8089  14.172   3.524   2.915
36364W        W 8090  44.468  14.609  14.923
36365W        W 8091  38.582   7.165  10.349
36366W        W 8092  29.837  11.636   0.395
36367W        W 8093   7.897  39.065   3.242
36368W        W 8094  10.194  21.790  14.116
36369W        W 8095  13.122  25.037   3.230
36370W        W 8096   1.726   7.710  10.705
36371W        W 8097   3.806  11.361  13.371
36372W        W 8098  23.352  20.300  14.829
36373W        W 8099  26.495  35.486   4.892
36374W        W 8100  12.175  44.055   0.842
36375W        W 8101  34.447  33.353   2.469
36376W        W 8102  44.238  39.327   0.471
36377W        W 8103  44.094  18.177  13.122
36378W        W 8104  16.314  13.779   0.327
36379W        W 8105  36.305  26.996  14.932
36380W        W 8106   0.441  23.277   1.841
36381W        W 8107  30.935  26.296   3.322
36382W        W 8108  16.886  31.208   1.229
36383W        W 8109   6.779   1.688  11.683
36384W        W 8110  11.148   0.301   0.405
36385W        W 8111  38.441  18.734  14.274
36386W        W 8112  35.170  43.300   1.915
36387W        W 8113  23.405  43.839   3.804
36388W        W 8114  21.243  26.396  14.185
36389W        W 8115  38.552  33.384   4.414
36390W        W 8116   0.083  22.192  12.972
36391W        W 8117  34.572   9.178  11.616
36392W        W 8118   6.815  17.226  11.220
36393W        W 8119  36.793   9.877   0.378
36394W        W 8120  29.575  11.481  10.935
36395W        W 8121  16.425  16.594   3.631
36396W        W 8122   6.843  10.272  11.455
36397W        W 8123  40.357  19.160   4.675
36398W        W 8124  23.404  33.118  14.930
36399W        W 8125   3.934   6.652   2.840
36400W        W 8126  15.610   5.934   0.525
36401W        W 8127  19.640  30.898   1.336
36402W        W 8128   5.374  13.774   4.289
36403W        W 8129  23.034   6.699   4.613
36404W        W 8130   2.899  41.233  12.045
36405W        W 8131  22.219  35.301  14.328
36406W        W 8132  15.299  33.655   3.194
36407W        W 8133  17.161  30.245   2.896
36408W        W 8134   9.325  25.191   2.640
36409W        W 8135  18.631  19.225   1.032
36410W        W 8136   2.944  16.553  14.611
36411W        W 8137   6.309  22.009  13.891
36412W        W 8138  35.923  36.977  10.797
36413W        W 8139   3.444  16.320  12.701
36414W        W 8140  11.072  15.085  14.742
36415W        W 8141  33.650  24.701   2.551
36416W        W 8142   7.799  30.699  13.031
36417W        W 8143  35.997  12.799  12.425
36418W        W 8144   3.810   2.327  14.640
36419W        W 8145  21.176  17.544   1.404
36420W        W 8146  29.199  42.487   0.388
36421W        W 8147  14.662  28.752   4.136
36422W        W 8148   1.415   2.951  10.706
36423W        W 8149  12.795   9.202   3.565
36424W        W 8150  28.769  25.599   0.495
36425W        W 8151  16.739  15.608   1.863
36426W        W 8152  28.539  22.761  14.277
36427W        W 8153   8.479   4.708  10.477
36428W        W 8154   5.950  13.898   3.062
36429W        W 8155  26.112   3.166  11.598
36430W        W 8156   9.689  42.104   2.860
36431W        W 8157  10.133  44.057  13.976
36432W        W 8158  40.068  38.949   3.630
36433W        W 8159  43.658  44.963   4.052
36434W        W 8160  44.948  15.307   0.936
36435W        W 8161  25.781  16.595  14.940
36436W        W 8162  10.855   1.026   0.338
36437W        W 8163  32.390  41.505  12.242
36438W        W 8164  17.673  19.243  11.128
36439W        W 8165  32.593  36.139  11.553
36440W        W 8166  10.196   7.761   2.703
36441W        W 8167  13.064   2.031  11.139
36442W        W 8168  43.722  21.625   2.920
36443W        W 8169  11.680  16.578  11.124
36444W        W 8170  18.869  30.263  14.143
36445W        W 8171   9.647  10.176  12.826
36446W        W 8172   4.520  15.567  11.954
36447W        W 8173   8.550  37.592  14.912
36448W        W 8174   4.195  43.156   3.708
36449W        W 8175   0.837  12.736   3.360
36450W        W 8176  21.097  16.121   0.302
36451W        W 8177  21.353  37.286   1.949
36452W        W 8178   6.371   5.102   5.035
36453W        W 8179  11.388   3.196   4.800
36454W        W 8180  43.995  15.278   1.846
36455W        W 8181  16.547  12.679   4.284
36456W        W 8182  34.849  42.471  13.796
36457W        W 8183   8.355  10.983   0.865
36458W        W 8184  26.121  11.146  11.208
36459W        W 8185  41.107  37.363   1.387
36460W        W 8186  34.619  44.746  10.635
36461W        W 8187  35.070  37.960  12.787
36462W        W 8188   2.394  23.235  10.239
36463W        W 8189  20.548  30.560   3.255
36464W        W 8190   6.034   5.731   9.928
36465W        W 8191  44.034  38.375  11.982
36466W        W 8192   4.461  29.611  11.584
36467W        W 8193  42.057  22.661   5.163
36468W        W 8194  11.722   9.475  11.945
36469W        W 8195   2.688  11.907  10.711
36470W        W 8196  15.885  44.283  12.188
36471W        W 8197  36.857  43.855   2.727
36472W        W 8198  35.849  14.166  14.423
36473W        W 8199  43.807  23.575   4.134
36474W        W 8200  43.304  14.547   2.433
36475W        W 8201  37.378  31.390   0.340
36476W        W 8202  30.918  21.170   0.336
36477W        W 8203  12.031  20.574   1.829
36478W        W 8204  36.342  35.872  11.431
36479W        W 8205  11.189  11.391   0.951
36480W        W 8206  18.104  33.148   0.941
36481W        W 8207  23.683  30.186  13.166
36482W        W 8208   7.007  17.555   2.183
36483W        W 8209  17.042  15.523   3.696
36484W        W 8210   3.321  31.913   1.278
36485W        W 8211  36.840  13.150  13.053
36486W        W 8212   0.243  25.072  12.631
36487W        W 8213  14.309  30.484   0.957
36488W        W 8214  12.255  19.712  14.233
36489W        W 8215  15.571  38.405   0.500
36490W        W 8216  16.179  24.646   4.744
36491W        W 8217  40.823   4.822  12.894
36492W        W 8218   4.995  18.109  10.319
36493W        W 8219  15.142  25.605  14.710
36494W        W 8220  34.961  34.335   0.402
36495W        W 8221  43.063  31.498   4.747
36496W        W 8222  42.372   8.900   4.676
36497W        W 8223   0.880  21.926   4.518
36498W        W 8224  42.380  23.214  11.118
36499W        W 8225  41.484  10.780  14.602
36500W        W 8226  30.344  30.012   2.274
36501W        W 8227  40.715   3.232   0.029
36502W        W 8228  30.654  41.981   5.242
36503W        W 8229  22.023   8.336   4.245
36504W        W 8230  41.147   6.278  11.733
36505W        W 8231  14.788  10.319  12.461
36506W        W 8232  10.207  15.730  14.043
36507W        W 8233  16.349  10.792  10.554
36508W        W 8234  30.084  37.480   4.173
36509W        W 8235  23.512   6.784  14.780
36510W        W 8236   7.265  15.692   1.693
36511W        W 8237   3.391  16.225   2.422
36512W        W 8238  27.491   5.621  14.473
36513W        W 8239  31.158  23.451  14.823
36514W        W 8240  11.792  31.346  11.022
36515W        W 8241   8.893  25.153   3.057
36516W        W 8242  13.552  33.670   4.713
36517W        W 8243  31.989  15.146  11.698
36518W        W 8244  34.541  32.674  14.773
36519W        W 8245  17.493  36.890  11.550
36520W        W 8246  37.530   2.891  10.713
36521W        W 8247  10.845  27.460  11.191
36522W        W 8248  27.964  30.626   3.319
36523W        W 8249  36.851   2.979   1.391
36524W        W 8250  24.553   4.416  12.863
36525W        W 8251  29.844  42.295   4.102
36526W        W 8252  36.636  31.596  13.998
36527W        W 8253   3.329   3.261  10.933
36528W        W 8254  10.199   0.906  13.947
36529W        W 8255  42.388  40.961   4.168
36530W        W 8256  16.116  23.171  11.278
36531W        W 8257  27.004  18.195  13.073
36532W        W 8258  35.342  39.438   0.302
36533W        W 8259   2.846  11.439   0.296
36534W        W 8260  16.610  39.634  14.417
36535W        W 8261  11.924  27.952   0.441
36536W        W 8262   1.440  18.019  10.934
36537W        W 8263  40.018  35.361   1.844
36538W        W 8264   4.510  22.000   4.814
36539W        W 8265  32.548  18.331   3.250
36540W        W 8266  21.656  11.172  12.383
36541W        W 8267  26.022  27.078  13.445
36542W        W 8268  26.071  30.218   1.189
36543W        W 8269   8.771  28.614  10.972
36544W        W 8270  35.317  26.022  11.134
36545W        W 8271  36.751  16.963   1.290
36546W        W 8272  44.988  43.462   4.512
36547W        W 8273  26.160  32.664  10.508
36548W        W 8274  10.165   4.746  14.226
36549W        W 8275   1.529  26.197   3.731
36550W        W 8276   1.225  22.547  13.292
36551W        W 8277  37.392   3.937  11.842
36552W        W 8278   5.321  13.511   1.652
36553W        W 8279  23.784   2.491  10.745
36554W        W 8280  17.189  32.954   1.155
36555W        W 8281  39.281   2.463  12.827
36556W        W 8282  27.100  26.790   0.507
36557W        W 8283   3.137  20.953   2.295
36558W        W 8284  18.566  35.122   2.023
36559W        W 8285  21.578  16.118   4.688
36560W        W 8286  21.741   0.190  13.886
36561W        W 8287   0.190  16.397  13.551
36562W        W 8288  32.752  30.648   0.093
36563W        W 8289   9.286  16.009  14.846
36564W        W 8290  38.017   9.370   1.357
36565W        W 8291  39.434  43.391   2.197
36566W        W 8292   2.506  30.454   3.462
36567W        W 8293   2.706   0.831  13.398
36568W        W 8294  18.260   0.416   4.319
36569W        W 8295   2.347  20.654   4.411
36570W        W 8296   2.273   4.433   3.008
36571W        W 8297  22.025  30.541  13.937
36572W        W 8298   4.190  10.314  14.762
36573W        W 8299  38.506  43.046  11.356
36574W        W 8300  28.581   1.730  11.917
36575W        W 8301  39.123  44.899  14.062
36576W        W 8302   8.875  16.071  14.059
36577W        W 8303  44.253   8.951  11.289
36578W        W 8304  26.184  11.328   0.169
36579W        W 8305  38.782  15.181   2.055
36580W        W 8306  42.716  25.036   1.290
36581W        W 8307   6.769   1.360   2.274
36582W        W 8308  33.805  26.605  10.478
36583W        W 8309  22.253   0.028   1.498
36584W        W 8310  15.866  33.781  10.710
36585W        W 8311  29.738  39.098  11.017
36586W        W 8312  40.321  37.942   2.183
36587W        W 8313   8.876  36.339   0.390
36588W        W 8314  14.597  22.177   2.946
36589W        W 8315   7.276  41.139   1.780
36590W        W 8316  41.433  38.196  14.274
36591W        W 8317  38.594  22.316  10.405
36592W        W 8318  34.930   1.462  14.668
36593W        W 8319  15.033  24.696  14.052
36594W        W 8320  33.393  21.568   1.749
36595W        W 8321   6.316  13.567   4.561
36596W        W 8322  39.786   5.294  12.092
36597W        W 8323  28.810  27.214  13.874
36598W        W 8324   8.219  29.470   0.511
36599W        W 8325  29.149  44.915   0.798
36600W        W 8326  35.990  20.083   1.974
36601W        W 8327  32.168   8.666   0.379
36602W        W 8328   0.301  40.468   2.834
36603W        W 8329  21.793  19.890  11.465
36604W        W 8330  18.799  30.126   2.413
36605W        W 8331  38.795  37.255  11.579
36606W        W 8332  37.575  36.998  13.971
36607W        W 8333  43.363   8.397   4.268
36608W        W 8334   1.061  24.725   2.303
36609W        W 8335  14.378  18.540   0.759
36610W        W 8336  37.229  24.460   1.670
36611W        W 8337  19.733   4.682   4.268
36612W        W 8338  20.970  10.828   4.800
36613W        W 8339   4.496  43.752   1.256
36614W        W 8340  14.119  13.573  14.724
36615W        W 8341  16.279  34.516   0.082
36616W        W 8342  36.430  37.441  12.345
36617W        W 8343  24.834  33.099   1.885
36618W        W 8344   6.595  18.529   4.627
36619W        W 8345  25.525  36.336   1.865
36620W        W 8346   9.202   7.118  11.139
36621W        W 8347  14.096   1.438   2.255
36622W        W 8348  23.213  10.837   2.818
36623W        W 8349  16.556  16.046   4.924
36624W        W 8350  11.697   9.818   2.424
36625W        W 8351   8.883  33.560  10.277
36626W        W 8352  36.843  15.066  11.541
36627W        W 8353  32.367   2.460   3.435
36628W        W 8354  10.745  38.412  10.598
36629W        W 8355  15.549  27.454   1.255
36630W        W 8356  35.502  41.939  13.525
36631W        W 8357  36.550  16.693  10.715
36632W        W 8358  27.838  10.171  10.690
36633W        W 8359  40.808  35.032   0.423
36634W        W 8360  33.011  17.850  12.164
36635W        W 8361   9.354   0.914   1.827
36636W        W 8362  10.248  19.210   0.884
36637W        W 8363  24.803  25.580   4.144
36638W        W 8364  23.552  24.914  13.356
36639W        W 8365  10.860  31.181   2.184
36640W        W 8366  22.721   1.769   2.754
36641W        W 8367  44.229  42.372   4.764
36642W        W 8368  22.551  18.231  11.191
36643W        W 8369  40.965   1.290  13.333
36644W        W 8370  20.922  19.537   1.250
36645W        W 8371  42.970   7.116   1.790
36646W        W 8372   1.676  39.552  12.191
36647W        W 8373  19.158  25.659  14.405
36648W        W 8374  35.735  42.231  14.314
36649W        W 8375  42.607  41.508   2.707
36650W        W 8376  38.005   3.406   0.217
36651W        W 8377  23.287  28.500  14.952
36652W        W 8378  44.021  31.050  10.942
36653W        W 8379  17.873  13.768   3.579
36654W        W 8380  43.680  28.354   3.385
36655W        W 8381  12.398  27.626  13.326
36656W        W 8382   8.141  29.992  14.786
36657W        W 8383   6.951  34.098  13.000
36658W        W 8384  25.556  41.896  14.442
36659W        W 8385  21.461   7.718  12.639
36660W        W 8386  23.269  39.905   4.532
36661W        W 8387  33.172  42.854   1.628
36662W        W 8388  38.502  21.283   3.656
36663W        W 8389   5.848  17.129  12.449
36664W        W 8390  12.309  24.973  12.411
36665W        W 8391  35.307   1.017   2.701
36666W        W 8392   9.683  36.127   2.193
36667W        W 8393  12.987  13.680  12.981
36668W        W 8394  16.574  42.298   0.724
36669W        W 8395   6.827  42.286   0.783
36670W        W 8396  40.987  31.911  10.777
36671W        W 8397  25.929  23.522   4.209
36672W        W 8398  17.017   6.711   3.211
36673W        W 8399  16.400  30.045   2.484
36674W        W 8400  14.757  44.820   1.029
36675W        W 8401  16.349   3.525  13.778
36676W        W 8402  10.391  31.328  10.783
36677W        W 8403   3.136  41.459   4.246
36678W        W 8404  43.797  20.218   4.051
36679W        W 8405  30.469  37.384   1.881
36680W        W 8406  30.108  24.691   0.270
36681W        W 8407  40.337   7.786   4.148
36682W        W 8408  21.753  17.239   3.123
36683W        W 8409   2.047  16.259  12.484
36684W        W 8410  21.465  28.753   4.387
36685W        W 8411  15.598  36.781  10.743
36686W        W 8412  21.139  41.796  10.427
36687W        W 8413  18.504  25.326  14.498
36688W        W 8414  27.809   9.466  13.035
36689W        W 8415  40.480  35.787  14.187
36690W        W 8416  41.452   6.424  14.018
36691W        W 8417  44.037  30.512   2.401
36692W        W 8418  40.822  32.951   3.614
36693W        W 8419  13.597  23.762  11.968
36694W        W 8420  25.452  14.331   0.880
36695W        W 8421   2.757  44.734   3.197
36696W        W 8422  34.838  35.904  12.905
36697W        W 8423  39.423  11.430  13.526
36698W        W 8424  20.606  42.337   2.296
36699W        W 8425  17.161  32.045  12.654
36700W        W 8426  14.252   4.221   1.955
36701W        W 8427  31.049  10.060  14.959
36702W        W 8428  22.621  25.098   5.146
36703W        W 8429  18.329  17.601  11.498
36704W        W 8430  18.351  43.568   1.267
36705W        W 8431  26.055  40.166  11.841
36706W        W 8432  29.088   2.748  12.487
36707W        W 8433  20.751  33.396   0.463
36708W        W 8434   7.208  29.649  13.261
36709W        W 8435  15.344   3.379  13.621
36710W        W 8436  15.650  15.036   1.526
36711W        W 8437  16.560  17.255  11.130
36712W        W 8438   0.253  30.041  10.731
36713W        W 8439  30.967  20.217   1.279
36714W        W 8440  32.635  32.654   3.739
36715W        W 8441   6.247  31.509   1.226
36716W        W 8442  15.532   6.858  13.607
36717W        W 8443  43.010  36.558  11.633
36718W        W 8444   9.234   3.315  10.074
36719W        W 8445  15.768  39.543  11.310
36720W        W 8446  33.128  37.000   1.710
36721W        W 8447   6.149  18.067  10.536
36722W        W 8448  42.459  16.974  13.376
36723W        W 8449  42.400  44.848   1.388
36724W        W 8450  44.079  19.435  13.566
36725W        W 8451   9.835  32.607   3.401
36726W        W 8452  34.832  13.584  10.868
36727W        W 8453  28.555  42.435   1.924
36728W        W 8454  26.426  19.280   1.713
36729W        W 8455  22.841  34.669   1.638
36730W        W 8456   0.798  14.798  14.452
36731W        W 8457  32.971  11.744  10.953
36732W        W 8458  34.107  21.492  10.564
36733W        W 8459   1.947  18.090  10.969
36734W        W 8460  39.031   8.804   3.601
36735W        W 8461   8.672  21.170  13.901
36736W        W 8462  18.394   8.823  13.016
36737W        W 8463  43.044  43.811   2.279
36738W        W 8464  10.914  10.258   0.297
36739W        W 8465  32.029  26.466  11.141
36740W        W 8466  40.122  23.190   3.281
36741W        W 8467  28.490  23.456   4.614
36742W        W 8468  32.965  31.247  11.217
36743W        W 8469  34.509   7.544   2.940
36744W        W 8470  25.017   4.661  12.839
36745W        W 8471  10.453   6.458   4.122
36746W        W 8472   4.485  39.055   1.342
36747W        W 8473  30.996   1.990   2.289
36748W        W 8474  23.244  39.217   1.800
36749W        W 8475  34.945  29.465  13.107
36750W        W 8476  38.450  11.311   2.699
36751W        W 8477  25.045   0.717   5.029
36752W        W 8478  27.984  32.030   2.156
36753W        W 8479  32.562  42.993  10.664
36754W        W 8480  12.764   0.446   1.323
36755W        W 8481  15.688  12.617   4.030
36756W        W 8482  12.645  29.427  11.952
36757W        W 8483   1.593  17.775   3.841
36758W        W 8484  13.862  29.895   2.830
36759W        W 8485  38.669  31.619   1.804
36760W        W 8486  19.689  35.689  10.561
36761W        W 8487  18.134  12.348  14.305
36762W        W 8488  36.473  12.629  12.651
36763W        W 8489  42.548  34.623   0.438
36764W        W 8490  17.251   4.371   5.069
36765W        W 8491   7.786  18.563   0.922
36766W        W 8492   6.786  23.608  14.964
36767W        W 8493  11.700  14.271   3.441
36768W        W 8494  11.286  27.017   1.776
36769W        W 8495   2.498  12.854   4.611
36770W        W 8496  17.745  41.404   0.030
36771W        W 8497  19.313  36.893   1.242
36772W        W 8498   7.251  21.197  12.415
36773W        W 8499  10.471  27.695  11.555
36774W        W 8500   6.647  10.239   5.119
36775W        W 8501   6.459  39.528  10.509
36776W        W 8502  24.435  36.951   3.357
36777W        W 8503  14.862   7.321   2.760
36778W        W 8504  29.151  19.362   4.172
36779W        W 8505  30.871  42.717  13.315
36780W        W 8506   8.859  41.088  11.039
36781W        W 8507   7.553  14.428   4.010
36782W        W 8508   3.206  13.044  14.542
36783W        W 8509  33.742   2.716  14.286
36784W        W 8510   2.904  37.218  11.033
36785W        W 8511  29.563  36.895   3.028
36786W        W 8512  35.976  28.160   2.853
36787W        W 8513  39.459  18.137  11.876
36788W        W 8514   6.401  36.198  13.419
36789W        W 8515  30.090  19.272   2.237
36790W        W 8516  24.065  36.830  11.174
36791W        W 8517  43.114  25.744  11.063
36792W        W 8518  31.559  33.656   3.153
36793W        W 8519  24.014   7.558   3.602
36794W        W 8520   8.952  27.110  13.966
36795W        W 8521  20.426  10.086  13.961
36796W        W 8522   7.915   9.428   2.831
36797W        W 8523  35.391   2.444  12.957
36798W        W 8524  41.600  14.381   3.156
36799W        W 8525  23.989  26.603   1.347
36800W        W 8526  31.995  25.347   4.204
36801W        W 8527   3.877  42.659   3.124
36802W        W 8528  34.397   9.480   3.454
36803W        W 8529  39.913   5.743  10.411
36804W        W 8530  13.641  10.216  10.369
36805W        W 8531   7.324  17.653   1.780
36806W        W 8532   6.467  32.987   0.304
36807W        W 8533  10.418   6.392  12.921
36808W        W 8534  15.716  19.789  12.216
36809W        W 8535   0.280  12.948   4.588
36810W        W 8536  24.080  28.565   2.232
36811W        W 8537  29.640  24.463   0.466
36812W        W 8538  38.147   4.606  11.995
36813W        W 8539  25.467  41.491   4.564
36814W        W 8540  21.650  26.963  14.228
36815W        W 8541  19.771  20.655  12.615
36816W        W 8542  18.792   1.925  13.962
36817W        W 8543  22.190  38.416  12.314
36818W        W 8544  31.417  10.197  10.361
36819W        W 8545  17.630  39.812   0.216
36820W        W 8546  17.145  28.962  14.303
36821W        W 8547  31.035  27.667  14.056
36822W        W 8548  28.866  12.018   0.273
36823W        W 8549  11.870   7.203  14.965
36824W        W 8550  12.488  31.654   1.231
36825W        W 8551   8.371  39.811   0.981
36826W        W 8552   6.134   7.118   5.419
36827W        W 8553  20.269  11.386   1.382
36828W        W 8554  15.336  42.091  14.048
36829W        W 8555  18.635  26.808  13.422
36830W        W 8556  43.529  29.007  10.744
36831W        W 8557  31.404   0.300  14.882
36832W        W 8558   2.176  14.887  14.537
36833W        W 8559  34.338  27.897   3.679
36834W        W 8560  40.880   3.543   2.424
36835W        W 8561  35.158   2.063   3.735
36836W        W 8562  29.472  32.985  12.540
36837W        W 8563  11.401   5.156  14.861
36838W        W 8564  32.511  15.984   0.842
36839W        W 8565  39.338   4.949  14.984
36840W        W 8566  25.101  32.645  12.412
36841W        W 8567  32.480   5.847  11.928
36842W        W 8568  43.943  44.199   4.431
36843W        W 8569  32.200   6.803   1.425
36844W        W 8570  42.826  28.621   3.911
36845W        W 8571   7.986  29.507  14.100
36846W        W 8572  40.281  10.575   3.741
36847W        W 8573   7.789   7.928  13.997
36848W        W 8574   7.587  43.684   3.377
36849W        W 8575  14.098  21.681  11.529
36850W        W 8576  43.598  27.051  13.130
36851W        W 8577   1.360  38.107   1.903
36852W        W 8578  31.173  38.571  13.137
36853W        W 8579  19.696  44.086   3.684
36854W        W 8580  30.976  38.135  11.873
36855W        W 8581  37.716  40.516   3.784
36856W        W 8582   5.650  16.673  14.041
36857W        W 8583   5.114   7.540  10.227
36858W        W 8584  30.567  31.999  14.853
36859W        W 8585  22.148  17.141   1.206
36860W        W 8586  13.927   2.845  10.747
36861W        W 8587  39.045  10.889   2.888
36862W        W 8588  16.059   5.742  14.763
36863W        W 8589  16.542  30.380  12.529
36864W        W 8590  38.498  16.029   2.794
36865W        W 8591  24.234  17.711   1.193
36866W        W 8592   4.876  36.058   1.927
36867W        W 8593  12.828  42.804  13.490
36868W        W 8594  36.381   7.268   3.768
36869W        W 8595  19.471  17.531   4.422
36870W        W 8596   7.882  23.159   1.656
36871W        W 8597   8.691  37.955   4.725
36872W        W 8598  18.605   7.501  13.570
36873W        W 8599   8.119  11.493   3.580
36874W        W 8600  20.984  26.437   0.267
36875W        W 8601   8.605  33.520   5.162
36876W        W 8602   5.308   4.511   4.115
36877W        W 8603   7.807  38.247   3.714
36878W        W 8604   8.205  13.662  12.044
36879W        W 8605  10.956   2.950   1.978
36880W        W 8606  38.544  40.336   3.668
36881W        W 8607  25.908  19.636  14.030
36882W        W 8608  13.322   7.206   5.050
36883W        W 8609  42.373  39.173  13.570
36884W        W 8610  28.569   6.380  10.636
36885W        W 8611   1.384   6.337   0.318
36886W        W 8612  30.312  29.632   1.855
36887W        W 8613  14.298  21.425   1.406
36888W        W 8614   2.181  24.582  12.385
36889W        W 8615  11.821  29.938  14.897
36890W        W 8616  11.206  39.015   2.814
36891W        W 8617  27.607   9.884   4.090
36892W        W 8618  11.590   8.649   1.792
36893W        W 8619  23.038  12.896   3.263
36894W        W 8620  14.101   4.187   3.352
36895W        W 8621   6.941  28.071   3.556
36896W        W 8622  27.536   3.214   2.279
36897W        W 8623   3.435  25.589   4.571
36898W        W 8624  33.214  35.629   1.686
36899W        W 8625  41.320   0.523   0.401
36900W        W 8626  31.454  42.587  14.668
36901W        W 8627  28.981   1.707   1.247
36902W        W 8628  16.753   6.495   0.282
36903W        W 8629  26.633  24.956   0.310
36904W        W 8630  43.582  18.584  14.349
36905W        W 8631  40.971  11.296  14.917
36906W        W 8632  28.668   0.740  11.090
36907W        W 8633  19.578  12.134   1.302
36908W        W 8634   6.835  29.486   0.498
36909W        W 8635  12.103  32.412  12.415
36910W        W 8636   9.343  40.584  13.305
36911W        W 8637  31.066  18.463   5.165
36912W        W 8638   0.830  40.535   3.046
36913W        W 8639  17.263  15.744  12.373
36914W        W 8640  13.760  36.970  12.068
36915W        W 8641   4.878  40.879   2.338
36916W        W 8642  44.841  41.600   4.658
36917W        W 8643  42.691   4.277   2.807
36918W        W 8644  13.546   1.964  13.323
36919W        W 8645  41.215  17.511  10.701
36920W        W 8646  27.472  42.700  12.003
36921W        W 8647   8.232   0.277  13.445
36922W        W 8648   8.244  22.846  13.908
36923W        W 8649  15.846   6.010   2.836
36924W        W 8650  15.058  27.029   3.822
36925W        W 8651  42.438  30.670  12.473
36926W        W 8652  27.889  17.245   2.331
36927W        W 8653  42.787   3.435  13.483
36928W        W 8654  36.580   9.813   1.309
36929W        W 8655  33.068  23.457  11.636
36930W        W 8656  18.283   5.933   3.124
36931W        W 8657   2.851  33.597   1.777
36932W        W 8658  26.527  24.061   4.590
36933W        W 8659  19.789  41.816  11.543
36934W        W 8660   1.102  40.675   2.639
36935W        W 8661  21.878  32.458  12.702
36936W        W 8662  12.666  23.906  11.177
36937W        W 8663  41.770   3.773  13.023
36938W        W 8664  15.664  10.236   5.292
36939W        W 8665  38.871   3.362   2.116
36940W        W 8666  39.794  15.611   4.053
36941W        W 8667  38.942  11.237   1.488
36942W        W 8668  17.755  18.814   3.699
36943W        W 8669  18.678  41.569   4.630
36944W        W 8670   3.308   1.778   4.586
36945W        W 8671   0.768  38.988  11.079
36946W        W 8672  25.239   9.877  14.043
36947W        W 8673  32.700   7.917   0.687
36948W        W 8674  41.424  32.903  12.553
36949W        W 8675  40.467  11.160  11.153
36950W        W 8676  20.091  25.202   1.692
36951W        W 8677  36.040  36.511  12.095
36952W        W 8678   3.437   7.132   4.668
36953W        W 8679  10.645   1.928   2.833
36954W        W 8680  37.957  25.693   4.783
36955W        W 8681  26.740  21.126   4.172
36956W        W 8682  30.333  44.928  14.367
36957W        W 8683  29.702  38.560   3.071
36958W        W 8684  23.478  34.696   0.639
36959W        W 8685  26.472   3.202  12.099
36960W        W 8686  15.697  16.333  14.920
36961W        W 8687   1.987  26.382  11.216
36962W        W 8688  27.296  13.365   3.621
36963W        W 8689  15.349   9.657  12.391
36964W        W 8690   9.147   7.759   2.167
36965W        W 8691  17.306   3.851  11.442
36966W        W 8692  22.307  32.863  12.510
36967W        W 8693  40.859  21.069  14.958
36968W        W 8694  20.059  10.148   0.963
36969W        W 8695   2.863   8.171   1.657
36970W        W 8696  37.831  17.845   3.822
36971W        W 8697  14.530  29.074   2.835
36972W        W 8698  15.374  34.448   1.216
36973W        W 8699  14.678   7.926  11.125
36974W        W 8700  16.530   6.766   4.089
36975W        W 8701  16.238  21.271   2.717
36976W        W 8702  27.456  42.793   4.345
36977W        W 8703   6.310   2.247  13.186
36978W        W 8704  32.618  22.178  13.039
36979W        W 8705  34.404  14.823   0.260
36980W        W 8706  30.491   0.875   0.408
36981W        W 8707  14.707  17.763   4.560
36982W        W 8708  18.065  39.056   3.537
36983W        W 8709  13.835  38.512  12.031
36984W        W 8710  24.222  26.603   3.703
36985W        W 8711   9.434  39.808   1.784
36986W        W 8712  19.129  29.888   1.632
36987W        W 8713  36.655  24.108  10.783
36988W        W 8714  41.920  22.092  13.075
36989W        W 8715  43.978   4.278  11.971
36990W        W 8716   5.523  32.184   3.671
36991W        W 8717  30.905  17.708   4.421
36992W        W 8718  42.786  27.329   3.845
36993W        W 8719  26.629  16.609  12.511
36994W        W 8720  29.890  21.207   4.606
36995W        W 8721   2.521  31.933   2.919
36996W        W 8722  23.759  32.309  12.042
36997W        W 8723  44.979  23.662   0.727
36998W        W 8724  13.209  11.142  11.539
36999W        W 8725  29.221  13.763  10.942
37000W        W 8726  39.895  41.950  12.354
37001W        W 8727  27.149  11.374   1.897
37002W        W 8728  10.069   1.451   3.709
37003W        W 8729  28.221  30.684  10.957
37004W        W 8730  34.061   5.844   3.472
37005W        W 8731   4.791  42.910   3.669
37006W        W 8732  26.456  32.439  13.821
37007W        W 8733   4.773   4.529   2.260
37008W        W 8734  21.673  20.539  13.042
37009W        W 8735  38.076  27.943  10.234
37010W        W 8736  33.575  34.808   1.286
37011W        W 8737   4.997  20.707  12.456
37012W        W 8738  29.778  31.481  13.030
37013W        W 8739  23.461   5.466   4.613
37014W        W 8740   4.898  24.459   0.397
37015W        W 8741   9.796  27.702  12.461
37016W        W 8742   2.378  41.287  10.382
37017W        W 8743  28.591  33.330  14.874
37018W        W 8744  15.637   0.041  12.545
37019W        W 8745  21.913  18.813  11.129
37020W        W 8746  36.481  35.515   1.640
37021W        W 8747  43.017  35.963  13.294
37022W        W 8748  17.179   7.183   1.683
37023W        W 8749  41.973  20.952   0.988
37024W        W 8750  12.465   8.883   3.321
37025W        W 8751   2.366  34.887   3.595
37026W        W 8752   4.744  41.772  11.974
37027W        W 8753  26.862  24.583  14.386
37028W        W 8754  32.312   4.162   1.912
37029W        W 8755   8.506  24.868  13.995
37030W        W 8756  25.044  29.795   3.623
37031W        W 8757  24.813  18.363  11.115
37032W        W 8758  13.408  12.824   0.977
37033W        W 8759  13.694   5.428   2.689
37034W        W 8760   9.786  44.267   2.858
37035W        W 8761  17.304  23.045  12.317
37036W        W 8762  30.785  44.727   1.119
37037W        W 8763   9.323  13.112   0.400
37038W        W 8764  36.346  10.873   4.098
37039W        W 8765  40.430   2.427  14.281
37040W        W 8766  27.165  24.079   1.780
37041W        W 8767   4.673  25.743  13.600
37042W        W 8768  32.580  30.838  11.927
37043W        W 8769  19.708  27.367  12.396
37044W        W 8770  12.670  37.047  11.164
37045W        W 8771  24.579  22.560   1.927
37046W        W 8772   1.853   7.413  13.362
37047W        W 8773  22.936  34.159   1.787
37048W        W 8774  13.785   1.968  11.021
37049W        W 8775  41.403  21.510  10.641
37050W        W 8776  15.436  35.599   0.424
37051W        W 8777  35.020  39.931   1.463
37052W        W 8778  42.060  26.371   0.863
37053W        W 8779   9.682  18.904   1.644
37054W        W 8780  33.423  21.515  12.987
37055W        W 8781  43.572  44.453  13.018
37056W        W 8782  29.171  39.354  14.790
37057W        W 8783  42.496  37.598   0.195
37058W        W 8784   9.498   9.931  14.527
37059W        W 8785   9.777  21.290  12.427
37060W        W 8786  33.455  12.861   4.632
37061W        W 8787   6.652  18.069  14.453
37062W        W 8788  42.249   6.596   4.732
37063W        W 8789  14.568  42.759  14.863
37064W        W 8790  11.196  38.148  10.724
37065W        W 8791  41.893  30.889   4.500
37066W        W 8792   1.003  10.638   4.531
37067W        W 8793  26.555  30.913   4.623
37068W        W 8794  21.786  27.981  14.369
37069W        W 8795   9.541  31.405  14.807
37070W        W 8796  14.201  34.872  11.454
37071W        W 8797  25.818  27.140  12.944
37072W        W 8798  41.530  30.900   1.397
37073W        W 8799   9.774  26.916   0.323
37074W        W 8800  22.238  35.897  11.879
37075W        W 8801  25.649  11.374   1.954
37076W        W 8802  31.475  17.536  14.964
37077W        W 8803  38.381  23.511   0.882
37078W        W 8804   2.570   4.483   9.780
37079W        W 8805  24.908  29.950  11.529
37080W        W 8806  17.483  17.639   2.394
37081W        W 8807   4.456  40.060   1.490
37082W        W 8808  19.250   9.371   2.720
37083W        W 8809   9.653   1.482   4.654
37084W        W 8810  22.737  17.252   5.175
37085W        W 8811  40.532   0.386  11.851
37086W        W 8812  20.340  23.636  10.296
37087W        W 8813  42.197  43.736   2.626
37088W        W 8814  32.039  17.117  10.340
37089W        W 8815  21.007  10.608  11.174
37090W        W 8816  10.323  32.554   3.541
37091W        W 8817  39.329  33.276  11.599
37092W        W 8818  14.229  18.244   0.347
37093W        W 8819  43.996  30.929   1.703
37094W        W 8820   1.780  10.371   2.820
37095W        W 8821  35.826  20.195   2.895
37096W        W 8822  42.021   3.266   0.721
37097W        W 8823   4.612  15.223  14.474
37098W        W 8824  26.686  11.820   0.759
37099W        W 8825  34.117   2.402  13.371
37100W        W 8826  19.583  38.372   4.614
37101W        W 8827  10.603  32.198   3.095
37102W        W 8828   3.667  27.727  12.055
37103W        W 8829  43.249  11.502   3.758
37104W        W 8830  22.075  15.873  11.847
37105W        W 8831   0.385   2.857  14.088
37106W        W 8832  34.102  20.187  11.868
37107W        W 8833  25.713  28.081   1.329
37108W        W 8834   8.656   7.449   3.370
37109W        W 8835  42.858  19.374   1.840
37110W        W 8836  27.071   1.325  10.061
37111W        W 8837  10.809  24.051   5.136
37112W        W 8838  33.037  32.188  11.654
37113W        W 8839   1.549  30.474   3.271
37114W        W 8840  38.408  18.163   0.352
37115W        W 8841  20.668  21.389  14.495
37116W        W 8842  42.297  19.738  11.459
37117W        W 8843   1.240  20.185   3.261
37118W        W 8844  26.171   4.381  10.680
37119W        W 8845   0.238   1.854  14.239
37120W        W 8846  14.151  38.784  13.303
37121W        W 8847  13.853  41.907   1.791
37122W        W 8848  10.382  32.164  11.228
37123W        W 8849   5.809   6.210   9.970
37124W        W 8850  27.126  27.430   1.248
37125W        W 8851  11.720   4.412   3.299
37126W        W 8852  44.279  36.420  13.211
37127W        W 8853   0.243  19.185   0.513
37128W        W 8854  24.901  38.496   4.541
37129W        W 8855  16.686  28.710  11.642
37130W        W 8856  20.717  44.948  14.957
37131W        W 8857  43.966   9.326   0.422
37132W        W 8858  27.303  26.458   0.107
37133W        W 8859  26.082  10.395   4.348
37134W        W 8860  27.493  15.489  12.284
37135W        W 8861   7.866   8.908   4.517
37136W        W 8862  10.745  21.040  10.841
37137W        W 8863  25.777  14.242  12.950
37138W        W 8864   2.060  22.977  13.325
37139W        W 8865  27.137  34.760   4.345
37140W        W 8866   9.621  38.718   0.010
37141W        W 8867  18.032  27.452  13.214
37142W        W 8868  16.745  42.726  11.240
37143W        W 8869  25.863   2.047  14.415
37144W        W 8870  19.230  26.208  11.720
37145W        W 8871  26.036   6.944   3.809
37146W        W 8872  10.183  23.162  11.624
37147W        W 8873  24.803  32.189  14.355
37148W        W 8874  44.761  39.362   0.441
37149W        W 8875  13.209  26.918  14.035
37150W        W 8876  44.761  42.778   0.316
37151W        W 8877  12.406  42.375   1.340
37152W        W 8878  33.576   3.915   4.273
37153W        W 8879  42.317   7.313  14.702
37154W        W 8880  32.853  25.488   5.022
37155W        W 8881  36.756  17.352   5.007
37156W        W 8882   4.654  13.930   2.295
37157W        W 8883   6.782  42.867  11.540
37158W        W 8884  28.135  12.898  12.510
37159W        W 8885   7.184  13.671  11.732
37160W        W 8886  18.473  44.229  14.989
37161W        W 8887  19.024  41.891   2.838
37162W        W 8888  44.917  20.621  11.525
37163W        W 8889  12.541  36.824  14.826
37164W        W 8890   8.254  32.141   3.299
37165W        W 8891   8.605   5.157  10.717
37166W        W 8892  36.542  42.858  12.577
37167W        W 8893  31.381  38.807   1.216
37168W        W 8894  34.126  24.983   3.869
37169W        W 8895  27.166  23.508   4.749
37170W        W 8896   0.726  14.104  11.997
37171W        W 8897  41.206  38.415   1.279
37172W        W 8898   8.745  17.430  11.387
37173W        W 8899  12.163  38.923   0.536
37174W        W 8900   7.279  40.804   4.508
37175W        W 8901   1.888   6.134  14.463
37176W        W 8902  17.743  37.260   4.359
37177W        W 8903   7.314  26.629  12.905
37178W        W 8904  30.557  15.623   3.782
37179W        W 8905  24.285   8.879  10.319
37180W        W 8906   2.468  17.174   4.133
37181W        W 8907  26.358  42.058   4.320
37182W        W 8908  18.988   1.173  11.668
37183W        W 8909   6.661  37.279  12.831
37184W        W 8910  21.903  14.551   4.191
37185W        W 8911  38.386  41.127   2.269
37186W        W 8912  33.795  33.496  12.895
37187W        W 8913  39.492   6.685   1.924
37188W        W 8914   5.216  40.310  10.569
37189W        W 8915   5.673  21.805   1.456
37190W        W 8916  23.127  14.878  13.235
37191W        W 8917  43.333  29.894  13.342
37192W        W 8918   0.955  38.609   0.547
37193W        W 8919  44.087   7.733  12.936
37194W        W 8920   4.045  36.182  12.056
37195W        W 8921  35.373   9.257   2.363
37196W        W 8922  29.447   0.269   1.508
37197W        W 8923  35.347  23.610   2.743
37198W        W 8924   3.300  11.642   2.259
37199W        W 8925  13.592  10.244  12.832
37200W        W 8926  12.792   7.435  13.552
37201W        W 8927  14.060  22.605   4.289
37202W        W 8928  28.388   6.241  14.044
37203W        W 8929  21.992  28.916   2.181
37204W        W 8930  19.222  13.613   3.960
37205W        W 8931  10.357   5.592   5.007
37206W        W 8932  18.573  42.559   1.333
37207W        W 8933  29.131  31.376   1.471
37208W        W 8934  38.359  29.966  14.432
37209W        W 8935  37.024  25.130   2.995
37210W        W 8936  37.884   3.244  12.900
37211W        W 8937   7.124  41.883  13.904
37212W        W 8938   4.312   3.313  11.220
37213W        W 8939  19.098  20.572  10.747
37214W        W 8940  19.997   7.323   0.789
37215W        W 8941  37.617  15.653  10.682
37216W        W 8942   1.824  35.170   5.165
37217W        W 8943   6.888  23.938  11.166
37218W        W 8944  11.061  22.294  11.108
37219W        W 8945  38.393  21.955  13.524
37220W        W 8946  17.231  23.753   4.897
37221W        W 8947  40.099  34.517   4.577
37222W        W 8948  23.502   0.774   4.518
37223W        W 8949  20.638  34.128   2.740
37224W        W 8950  24.650   6.991  12.934
37225W        W 8951   7.323  37.059   3.798
37226W        W 8952  39.970   0.069  10.854
37227W        W 8953   0.056  20.243   0.827
37228W        W 8954  11.537  15.837   3.337
37229W        W 8955  17.332  26.753  12.960
37230W        W 8956  24.031  34.019  14.446
37231W        W 8957   6.804  11.198   1.832
37232W        W 8958   9.764   6.281   2.964
37233W        W 8959  39.069  17.799  11.979
37234W        W 8960   0.363   6.408   4.246
37235W        W 8961  43.432  31.187  13.855
37236W        W 8962   4.798  38.866   1.930
37237W        W 8963  11.876  23.050   4.336
37238W        W 8964  18.253  16.391  14.507
37239W        W 8965  22.489   9.220  13.430
37240W        W 8966  36.944   8.585  11.604
37241W        W 8967  44.140  27.494  12.899
37242W        W 8968  37.520  10.095  11.866
37243W        W 8969  36.027  35.129   3.286
37244W        W 8970   9.809  15.710   2.702
37245W        W 8971  33.926  39.355  14.918
37246W        W 8972  24.747   0.745  12.017
37247W        W 8973  18.982  21.444  10.613
37248W        W 8974  36.910  42.675  11.238
37249W        W 8975   6.318  26.075   0.274
37250W        W 8976   6.648  11.747   1.646
37251W        W 8977  40.932   3.469  11.618
37252W        W 8978  30.574  29.712  13.087
37253W        W 8979  29.833  38.940   3.386
37254W        W 8980   0.756  10.826   0.200
37255W        W 8981  11.200   8.272  13.014
37256W        W 8982  33.940  41.021   1.888
37257W        W 8983  17.876  12.302   3.201
37258W        W 8984   0.023  16.760  12.940
37259W        W 8985  24.946  14.928   9.597
37260W        W 8986  12.243  44.896   1.316
37261W        W 8987  35.203   9.784   2.197
37262W        W 8988   8.632   7.825   2.964
37263W        W 8989  28.356  14.193   0.965
37264W        W 8990  21.115  13.857   4.948
37265W        W 8991  27.589  15.070   0.284
37266W        W 8992  19.773  21.077  10.967
37267W        W 8993  41.906   1.605  10.196
37268W        W 8994  24.449  11.790   1.959
37269W        W 8995   3.895  44.865   0.015
37270W        W 8996   1.816  18.504   2.199
37271W        W 8997  16.622  29.944  11.683
37272W        W 8998  39.437  30.941  13.372
37273W        W 8999  17.146  21.004  13.520
37274W        W 9000  41.028  27.982  13.440
37275W        W 9001   9.158  14.189   4.661
37276W        W 9002  25.720  42.855  10.708
37277W        W 9003   7.124  29.647  14.571
37278W        W 9004  20.700  34.346  14.259
37279W        W 9005  18.084  25.475  10.488
37280W        W 9006  12.293  38.789   1.441
37281W        W 9007  32.465  15.621   2.568
37282W        W 9008  28.197   2.757  14.611
37283W        W 9009  22.267  18.004  11.560
37284W        W 9010  23.125   6.197   3.726
37285W        W 9011  38.548  29.589  13.565
37286W        W 9012  13.269  17.272   4.625
37287W        W 9013  23.610  18.731  12.513
37288W        W 9014  14.739   0.216  14.829
37289W        W 9015  14.885   1.872   2.161
37290W        W 9016  28.627  33.852  11.108
37291W        W 9017  32.457   1.510  10.774
37292W        W 9018  13.353  27.608  14.930
37293W        W 9019  17.747   9.146  11.609
37294W        W 9020  14.329  39.542   3.791
37295W        W 9021  30.599  25.417   4.157
37296W        W 9022  14.829   0.573   2.667
37297W        W 9023  34.289  40.562   0.348
37298W        W 9024  44.345   6.782  13.049
37299W        W 9025  25.096  30.518  14.480
37300W        W 9026   7.126  21.430  11.091
37301W        W 9027  27.541  38.376  11.890
37302W        W 9028  24.069  31.922   0.737
37303W        W 9029  27.573   5.275  11.979
37304W        W 9030   2.537  14.317   3.254
37305W        W 9031   7.995  11.390   1.784
37306W        W 9032  29.164   4.337  11.502
37307W        W 9033  18.318  41.348  12.555
37308W        W 9034   0.674  18.230  14.916
37309W        W 9035  22.111  20.106  10.511
37310W        W 9036  24.584   9.317  13.951
37311W        W 9037   3.065  27.981   4.143
37312W        W 9038   5.751  12.262   1.861
37313W        W 9039  40.081  33.006  13.386
37314W        W 9040  16.153  32.898  13.910
37315W        W 9041  38.041  44.866   1.688
37316W        W 9042   8.460  13.709  13.576
37317W        W 9043   6.830  31.188   2.749
37318W        W 9044  36.708  20.495  12.449
37319W        W 9045  20.472   9.132  14.842
37320W        W 9046  24.479  26.029   2.649
37321W        W 9047  16.146  36.052  10.727
37322W        W 9048  43.765   7.675   1.863
37323W        W 9049  32.030   6.090   2.363
37324W        W 9050  40.989  24.441   0.577
37325W        W 9051   7.947  11.396   0.830
37326W        W 9052  44.263  42.836   0.431
37327W        W 9053  30.639  15.567  14.837
37328W        W 9054  15.519  13.814   0.915
37329W        W 9055  42.641  11.555  11.870
37330W        W 9056   9.235  27.267  11.047
37331W        W 9057   3.050  20.718  11.672
37332W        W 9058  37.377   0.307   2.121
37333W        W 9059  13.611  14.856  12.833
37334W        W 9060   3.897   5.439  12.668
37335W        W 9061  29.187   2.813  11.136
37336W        W 9062  35.670  29.222   0.858
37337W        W 9063  15.618  17.028   4.756
37338W        W 9064  23.519  26.996  12.493
37339W        W 9065   4.823  36.912  14.489
37340W        W 9066  15.260   6.151  12.389
37341W        W 9067  23.077  35.184  10.455
37342W        W 9068   8.804  35.045   2.165
37343W        W 9069  15.306  10.181   3.267
37344W        W 9070  32.989  36.051  11.894
37345W        W 9071  42.049   7.333   4.940
37346W        W 9072  16.590   5.774  14.726
37347W        W 9073  29.754  22.624   0.198
37348W        W 9074  42.484  28.306  11.029
37349W        W 9075  15.700  11.138  11.179
37350W        W 9076   0.035   6.786   4.287
37351W        W 9077   0.429  11.700   3.486
37352W        W 9078  39.049  21.234  10.343
37353W        W 9079  31.965   4.711   3.094
37354W        W 9080   7.361   5.664   4.552
37355W        W 9081   3.994  38.772  14.344
37356W        W 9082  17.977   9.588   0.359
37357W        W 9083  27.231  24.605   4.991
37358W        W 9084   2.829   1.896  13.648
37359W        W 9085  39.065  31.957  12.061
37360W        W 9086  10.758  16.439   4.192
37361W        W 9087  32.092  33.021  12.154
37362W        W 9088  14.708  40.808  12.994
37363W        W 9089  44.408  26.238   4.151
37364W        W 9090  11.308  26.974  13.095
37365W        W 9091   4.624  26.801   1.829
37366W        W 9092  41.426  10.890   0.489
37367W        W 9093  27.589  23.721   3.175
37368W        W 9094  10.672  22.060   1.291
37369W        W 9095   9.149   8.735   4.071
37370W        W 9096  34.541   2.758   0.906
37371W        W 9097   1.858   4.006   4.401
37372W        W 9098   6.217  12.227   2.699
37373W        W 9099  14.850   7.118   1.634
37374W        W 9100  42.215  37.966   1.876
37375W        W 9101  34.446  34.579   2.964
37376W        W 9102  44.019  24.101   3.229
37377W        W 9103   6.469  37.554  12.363
37378W        W 9104  19.615  21.252  14.804
37379W        W 9105  43.970  16.684   3.744
37380W        W 9106  22.545  11.403  12.944
37381W        W 9107  33.491   4.372   0.777
37382W        W 9108  42.020  29.389   3.243
37383W        W 9109   8.275  14.071   2.926
37384W        W 9110   5.690  36.299  11.471
37385W        W 9111  38.660  23.052  11.517
37386W        W 9112  26.713  31.896   0.835
37387W        W 9113  32.082  10.352  13.961
37388W        W 9114  35.537  18.809   0.914
37389W        W 9115  40.098  23.762   0.405
37390W        W 9116  43.853  40.429  11.076
37391W        W 9117  14.582  16.658   3.755
37392W        W 9118  24.544  19.787  13.818
37393W        W 9119  34.861  30.095   2.842
37394W        W 9120  34.057   9.911  11.338
37395W        W 9121  11.316  31.901   3.334
37396W        W 9122  18.264  43.615   4.260
37397W        W 9123  10.908  12.723   0.767
37398W        W 9124   1.351  13.551  14.394
37399W        W 9125   9.114  38.193   2.095
37400W        W 9126  30.343  23.784  10.197
37401W        W 9127  37.808  21.553  12.467
37402W        W 9128  39.107  22.955  14.265
37403W        W 9129  39.129   8.473   1.724
37404W        W 9130  34.535  30.670   0.532
37405W        W 9131  40.134  24.634  13.465
37406W        W 9132  19.752  25.618   1.688
37407W        W 9133  17.589  18.402   4.597
37408W        W 9134  10.833  32.555   3.502
37409W        W 9135   6.296  35.906  10.267
37410W        W 9136   9.961   6.834  11.518
37411W        W 9137  42.283   7.330  11.144
37412W        W 9138  32.541  12.249   2.280
37413W        W 9139  13.110  35.934   3.852
37414W        W 9140   7.874  14.685  11.118
37415W        W 9141  42.768   6.513   1.280
37416W        W 9142  34.113   7.976  13.468
37417W        W 9143  44.290  19.753   0.393
37418W        W 9144   7.118  25.564  13.946
37419W        W 9145  24.705   2.203  13.206
37420W        W 9146  11.213  11.815   3.615
37421W        W 9147  27.686  43.847   3.262
37422W        W 9148  17.364  29.834  14.428
37423W        W 9149  17.157  25.322   5.104
37424W        W 9150  15.760   7.328  10.710
37425W        W 9151  24.539  11.633  10.708
37426W        W 9152  35.319   5.921  11.492
37427W        W 9153  10.311   2.148  13.021
37428W        W 9154  22.506  21.138  13.965
37429W        W 9155   0.028  11.364  13.048
37430W        W 9156  18.281  30.611  12.173
37431W        W 9157  24.298   8.696  13.366
37432W        W 9158  13.183  10.432   1.051
37433W        W 9159   4.733  30.917  13.397
37434W        W 9160   3.763  28.591  13.545
37435W        W 9161   2.712  37.788   4.772
37436W        W 9162   8.177  26.026   0.826
37437W        W 9163  36.297  35.985   0.377
37438W        W 9164  18.229  19.221   4.739
37439W        W 9165  12.351  14.600   2.812
37440W        W 9166  26.075   3.477   3.757
37441W        W 9167  19.750  10.776  14.313
37442W        W 9168  15.198  41.775  13.613
37443W        W 9169  35.881  25.269   2.265
37444W        W 9170  10.828  32.551   1.682
37445W        W 9171  27.451  43.445  13.932
37446W        W 9172  26.924   1.371  13.930
37447W        W 9173   3.311  40.870   1.700
37448W        W 9174  32.247  42.612   1.285
37449W        W 9175  42.034   0.942  11.179
37450W        W 9176  19.982  19.702  12.081
37451W        W 9177  20.730  26.992   0.237
37452W        W 9178  30.837  42.908   1.346
37453W        W 9179  38.948  36.590  14.344
37454W        W 9180  15.770  32.161  12.477
37455W        W 9181  21.188  40.460   1.937
37456W        W 9182  44.856  27.201  10.614
37457W        W 9183  14.709  39.538  14.368
37458W        W 9184  30.662  18.378   1.078
37459W        W 9185  32.052  21.520  14.916
37460W        W 9186  39.872  42.843  12.848
37461W        W 9187  27.550  21.738  13.477
37462W        W 9188  43.751  30.646  11.141
37463W        W 9189  39.585  23.971  14.522
37464W        W 9190   0.720  23.405  14.523
37465W        W 9191  30.165  41.282  11.512
37466W        W 9192   9.659  24.687  14.656
37467W        W 9193  16.098  28.151   4.197
37468W        W 9194  36.866  41.382  12.001
37469W        W 9195   0.056  39.927   1.148
37470W        W 9196   7.780  33.023   2.366
37471W        W 9197  17.122  13.055  12.041
37472W        W 9198  25.081  39.388   2.021
37473W        W 9199  40.675  14.512  11.641
37474W        W 9200  16.579   4.257   2.464
37475W        W 9201   4.342  38.645   2.276
37476W        W 9202  10.846  43.092   1.361
37477W        W 9203  10.175  27.672  12.898
37478W        W 9204   9.288  11.060   4.791
37479W        W 9205  12.891   4.775  11.546
37480W        W 9206  20.322  15.473   1.254
37481W        W 9207  11.690  10.814  14.390
37482W        W 9208  19.125  39.798  14.452
37483W        W 9209  41.271  25.099  10.985
37484W        W 9210  11.184  25.935   4.685
37485W        W 9211  44.721  33.226  14.312
37486W        W 9212   9.393  37.047   0.723
37487W        W 9213  37.915   6.722  12.402
37488W        W 9214  28.041  23.851   3.386
37489W        W 9215   4.353   0.462   3.412
37490W        W 9216  24.156  39.023   2.875
37491W        W 9217  20.194  39.328   3.488
37492W        W 9218  19.714   8.223   3.641
37493W        W 9219  30.067  33.357   0.396
37494W        W 9220  34.496  29.172  12.428
37495W        W 9221  44.271  27.755  12.063
37496W        W 9222  27.977  43.503  13.888
37497W        W 9223  24.664   8.636   0.334
37498W        W 9224  33.887  30.043   2.853
37499W        W 9225  36.199  20.503  12.496
37500W        W 9226  23.218  22.213   1.186
37501W        W 9227  37.437  30.461  10.555
37502W        W 9228  40.914  39.536  10.645
37503W        W 9229   7.538  27.072  13.071
37504W        W 9230  24.521  18.690   0.707
37505W        W 9231  39.243  37.063   4.079
37506W        W 9232  35.983  37.924  14.302
37507W        W 9233   1.745  42.315   0.379
37508W        W 9234   8.348  15.003   3.170
37509W        W 9235  17.387  16.402  14.484
37510W        W 9236  17.899  30.160   3.880
37511W        W 9237  24.149   4.326   1.464
37512W        W 9238  37.241  42.861   2.807
37513W        W 9239  10.103  13.743   2.301
37514W        W 9240   3.081  34.688   3.148
37515W        W 9241  29.438  27.434   3.282
37516W        W 9242  17.119  41.965   0.273
37517W        W 9243  31.425  39.815   1.218
37518W        W 9244  11.055  37.643  13.844
37519W        W 9245  13.553   1.881  12.419
37520W        W 9246  44.298  35.134  13.911
37521W        W 9247   6.885  23.769  14.471
37522W        W 9248  33.839  41.216  11.702
37523W        W 9249  30.892  13.962  12.272
37524W        W 9250  26.467  11.279  13.394
37525W        W 9251  34.974   9.942   4.236
37526W        W 9252  38.876  35.220  13.049
37527W        W 9253  34.412  31.600   0.329
37528W        W 9254  28.597  22.839   4.082
37529W        W 9255   5.954   9.836  13.623
37530W        W 9256  31.493   8.217  11.361
37531W        W 9257  20.609  40.880  14.937
37532W        W 9258  13.032  43.013   5.067
37533W        W 9259  42.812  11.629   1.846
37534W        W 9260  28.848   4.308   2.694
37535W        W 9261  41.427  11.582   1.551
37536W        W 9262   8.027  34.636  13.960
37537W        W 9263  11.111  14.193   1.571
37538W        W 9264   5.397   3.626  14.784
37539W        W 9265  42.871  30.050  12.522
37540W        W 9266  17.798  40.402   2.287
37541W        W 9267  21.742  20.775   2.770
37542W        W 9268  15.626   7.508  14.245
37543W        W 9269  14.898  16.677  10.646
37544W        W 9270   8.646  36.488   0.851
37545W        W 9271  22.756   7.007  11.094
37546W        W 9272  34.102   8.272  11.457
37547W        W 9273  20.375   4.612   0.292
37548W        W 9274   0.181  23.378   2.746
37549W        W 9275  26.167  32.081  11.973
37550W        W 9276  14.089  34.028   1.384
37551W        W 9277  16.907  12.405   1.551
37552W        W 9278  36.802   5.343   4.101
37553W        W 9279   9.749  17.665  11.974
37554W        W 9280  18.039  27.145   0.334
37555W        W 9281  23.572  41.313  14.991
37556W        W 9282  23.327  31.098   0.407
37557W        W 9283  42.400   0.683  14.791
37558W        W 9284  44.768   0.985   1.724
37559W        W 9285  13.257  28.012   0.266
37560W        W 9286  20.589  22.662   4.640
37561W        W 9287  43.709   3.467   0.273
37562W        W 9288  35.469  26.513   3.242
37563W        W 9289  34.032  14.276   1.172
37564W        W 9290   1.301  27.068  13.276
37565W        W 9291  14.734   6.324   2.782
37566W        W 9292  27.027  13.670   4.951
37567W        W 9293  44.822  35.257  13.372
37568W        W 9294  17.215  22.435   1.599
37569W        W 9295  15.065  13.256   0.085
37570W        W 9296  23.719   0.223  11.511
37571W        W 9297  28.791  33.707   0.446
37572W        W 9298  22.664  15.238   1.162
37573W        W 9299  36.243  19.553  14.333
37574W        W 9300  44.284  39.054  12.399
37575W        W 9301  31.061   1.449   4.093
37576W        W 9302  41.899   1.096  13.487
37577W        W 9303   6.175  37.173  14.764
37578W        W 9304  36.036  34.441  11.257
37579W        W 9305  14.945  14.118  13.620
37580W        W 9306  30.536  33.086   1.544
37581W        W 9307  17.721  17.108  13.381
37582W        W 9308  44.508  41.845  11.915
37583W        W 9309   1.285  33.078   2.306
37584W        W 9310  43.501  30.035   4.703
37585W        W 9311  25.627  41.509   4.086
37586W        W 9312  38.296  16.576  14.097
37587W        W 9313   2.563  26.857   2.097
37588W        W 9314  25.942  15.204   3.251
37589W        W 9315  11.647  29.695   1.780
37590W        W 9316  36.243   4.681  13.521
37591W        W 9317  10.426  13.551   4.622
37592W        W 9318  18.284  31.434   2.413
37593W        W 9319   3.690   0.804  10.822
37594W        W 9320  12.342   5.788  12.844
37595W        W 9321  13.264  20.890  14.277
37596W        W 9322   0.348   9.848   2.643
37597W        W 9323  20.642  26.988  10.257
37598W        W 9324  15.852   5.679  10.860
37599W        W 9325  22.842  12.790  13.344
37600W        W 9326  41.293   3.955   3.108
37601W        W 9327  30.489  17.851   3.262
37602W        W 9328   5.423  37.584   4.378
37603W        W 9329   1.309  21.627   1.843
37604W        W 9330   2.171   2.354   2.222
37605W        W 9331  34.794  38.390   1.862
37606W        W 9332  13.872  37.098  12.558
37607W        W 9333  20.918  21.992  12.051
37608W        W 9334  24.466   9.671  13.591
37609W        W 9335   8.701   7.810   2.445
37610W        W 9336  34.537   7.355  12.498
37611W        W 9337  22.194   7.524  11.601
37612W        W 9338  36.082  42.069  14.913
37613W        W 9339  17.658  18.689  13.034
37614W        W 9340  38.533  37.990   2.681
37615W        W 9341  43.986   8.441  14.487
37616W        W 9342  39.360   7.970  11.160
37617W        W 9343  22.997  36.022  11.094
37618W        W 9344  20.031  38.309  12.107
37619W        W 9345  24.636  42.500   1.445
37620W        W 9346  25.107  42.511  11.009
37621W        W 9347  21.476  21.284  10.184
37622W        W 9348  34.512  30.016  12.834
37623W        W 9349  12.001  41.029  14.288
37624W        W 9350  21.597  22.466  11.150
37625W        W 9351   6.238  21.161  13.477
37626W        W 9352  32.681   8.363   4.278
37627W        W 9353  43.534  12.040  14.046
37628W        W 9354   3.707  21.869  14.472
37629W        W 9355  41.851   9.672   4.366
37630W        W 9356  17.699  15.349  11.152
37631W        W 9357  37.576  42.036  13.613
37632W        W 9358  12.781  26.966   2.753
37633W        W 9359  32.136  44.869  14.856
37634W        W 9360   1.471  21.188   1.462
37635W        W 9361  44.636   9.165  11.030
37636W        W 9362   5.642  12.831  11.051
37637W        W 9363  17.123   9.133   1.334
37638W        W 9364  12.121   0.534  11.581
37639W        W 9365  36.784  12.827  12.208
37640W        W 9366  12.258  26.181   2.212
37641W        W 9367  29.980  10.339  14.161
37642W        W 9368  15.919  21.634  11.390
37643W        W 9369   5.731  37.037  12.073
37644W        W 9370  32.341  16.349  14.510
37645W        W 9371  15.761   4.414   3.954
37646W        W 9372   6.129  42.748  10.274
37647W        W 9373   4.756  32.277   0.449
37648W        W 9374  36.323  21.949  12.448
37649W        W 9375  18.166  38.678   0.755
37650W        W 9376  44.937  12.688  11.625
37651W        W 9377   2.197  26.666   4.203
37652W        W 9378  39.446  33.863  10.645
37653W        W 9379  40.355  11.707  14.906
37654W        W 9380  35.000  24.885   2.152
37655W        W 9381  17.847  21.667   3.419
37656W        W 9382   3.643  39.180  11.899
37657W        W 9383  11.320  29.270   0.066
37658W        W 9384  18.147  20.806  10.706
37659W        W 9385  25.030  21.181  10.401
37660W        W 9386   0.153  43.480  13.882
37661W        W 9387  33.360  25.172   3.793
37662W        W 9388  34.303  20.782   4.153
37663W        W 9389   0.734  18.270  13.568
37664W        W 9390  41.849  15.767  14.601
37665W        W 9391  43.407   4.401  14.722
37666W        W 9392  27.357  36.542  13.322
37667W        W 9393  23.977  14.065  11.217
37668W        W 9394   1.222  41.743  12.517
37669W        W 9395  34.555  25.672   2.300
37670W        W 9396   6.044  36.676  14.837
37671W        W 9397  33.561  23.758  12.471
37672W        W 9398  36.507  30.250   1.219
37673W        W 9399  19.203   7.713   4.190
37674W        W 9400  41.413  36.399  12.408
37675W        W 9401  22.604  30.897   4.638
37676W        W 9402  40.063   2.921  11.549
37677W        W 9403  30.180  25.953   2.317
37678W        W 9404  20.695  16.555   1.912
37679W        W 9405  40.816   3.210  10.762
37680W        W 9406   5.742  19.995   1.255
37681W        W 9407   9.132  10.741  10.550
37682W        W 9408  21.593   1.768   3.365
37683W        W 9409  17.216  12.222  12.393
37684W        W 9410  25.523  27.920  10.731
37685W        W 9411   7.026   1.839   0.796
37686W        W 9412  36.971   3.584  12.791
37687W        W 9413  11.676  29.008  12.568
37688W        W 9414  30.643  23.290  13.072
37689W        W 9415  24.293   6.952   0.964
37690W        W 9416  35.951   2.012  10.704
37691W        W 9417  38.770   4.640   9.923
37692W        W 9418  29.597  36.937  13.296
37693W        W 9419  11.877  37.888  12.424
37694W        W 9420  19.980  31.781  12.150
37695W        W 9421  40.067  18.734   3.732
37696W        W 9422   0.632   8.905  13.164
37697W        W 9423  18.659  25.433  12.041
37698W        W 9424  11.792   7.634  13.426
37699W        W 9425   9.798  30.978   3.587
37700W        W 9426  21.548   3.277  14.874
37701W        W 9427  34.385   4.808   2.223
37702W        W 9428  38.051  25.061   1.775
37703W        W 9429  18.183  37.312   3.752
37704W        W 9430  35.636   2.902  13.144
37705W        W 9431  24.866  44.969   1.226
37706W        W 9432  31.951  23.246   5.050
37707W        W 9433   4.381   2.735   4.052
37708W        W 9434  25.503  35.759   0.472
37709W        W 9435  39.790  11.565  14.861
37710W        W 9436   8.882  43.383   4.191
37711W        W 9437  30.119  19.208   4.215
37712W        W 9438   2.328  32.908  14.414
37713W        W 9439  37.070  32.663   4.189
37714W        W 9440  42.971  38.332  11.498
37715W        W 9441  19.299  21.659  11.504
37716W        W 9442  34.311   5.384   3.253
37717W        W 9443  25.052  41.437  13.331
37718W        W 9444  32.451  13.942   2.981
37719W        W 9445   6.313  39.440   1.241
37720W        W 9446  13.253  42.138  11.667
37721W        W 9447   5.279  23.497  11.161
37722W        W 9448  18.674  32.631   3.834
37723W        W 9449  15.207  14.056  11.558
37724W        W 9450  30.244   5.934  11.218
37725W        W 9451  17.534  16.999   9.966
37726W        W 9452  11.299   1.274  10.733
37727W        W 9453   6.499  25.915   4.791
37728W        W 9454   4.313   6.974  11.401
37729W        W 9455   3.745  35.464   3.616
37730W        W 9456   4.802  35.583   2.814
37731W        W 9457  38.648  41.555   0.209
37732W        W 9458  42.430  21.626  14.499
37733W        W 9459  28.308  33.328  11.201
37734W        W 9460  28.280  14.578  12.563
37735W        W 9461  40.099  28.033  11.186
37736W        W 9462  34.389  15.563  14.951
37737W        W 9463  29.628  12.216   4.156
37738W        W 9464  23.158  37.042   4.731
37739W        W 9465  33.477  15.090   0.481
37740W        W 9466  31.572  31.488   2.282
37741W        W 9467  29.337   3.044  10.687
37742W        W 9468   7.448  14.068   2.530
37743W        W 9469  14.386  42.891   0.343
37744W        W 9470   0.363  14.009   3.375
37745W        W 9471  43.912  27.217   3.194
37746W        W 9472   3.366  32.457  10.600
37747W        W 9473  21.529  41.244  13.177
37748W        W 9474   0.930   2.953   4.600
37749W        W 9475   1.270  23.605  11.238
37750W        W 9476  24.160   0.370   0.494
37751W        W 9477   7.894  44.061  13.814
37752W        W 9478  18.694  30.310  11.968
37753W        W 9479  22.780  33.823  14.318
37754W        W 9480  29.709  24.966   4.205
37755W        W 9481   5.157   2.058   0.687
37756W        W 9482  30.270  44.997   0.274
37757W        W 9483  24.267  38.707   0.882
37758W        W 9484  29.956  17.716   0.317
37759W        W 9485  18.261  27.615  11.555
37760W        W 9486  24.248   0.851  13.785
37761W        W 9487  26.714   4.723   1.426
37762W        W 9488  36.356   2.331   4.409
37763W        W 9489  33.529  21.476  14.978
37764W        W 9490  15.510  42.024  10.643
37765W        W 9491  39.421  19.247   0.254
37766W        W 9492  24.173  28.624   3.197
37767W        W 9493  37.919  40.027   3.840
37768W        W 9494  26.971  23.175  13.108
37769W        W 9495  38.006  29.126  11.525
37770W        W 9496  18.359  23.296  12.365
37771W        W 9497   0.779   1.481  14.506
37772W        W 9498  16.492  26.252   0.038
37773W        W 9499   0.905   7.198   4.110
37774W        W 9500  11.195  24.097   4.675
37775W        W 9501  30.727  25.460   3.261
37776W        W 9502  32.993  29.409  14.855
37777W        W 9503  12.454  41.898   2.034
37778W        W 9504   6.567  28.417   4.486
37779W        W 9505  20.148  25.026   3.091
37780W        W 9506   3.668  29.995  10.745
37781W        W 9507  22.081  14.625   1.616
37782W        W 9508  34.808   9.827   3.305
37783W        W 9509  33.940  14.319   0.284
37784W        W 9510  39.755  34.580  14.097
37785W        W 9511  21.791  22.759  13.518
37786W        W 9512   3.836  18.287   4.485
37787W        W 9513  21.249  43.849   2.717
37788W        W 9514  17.281  42.296   3.767
37789W        W 9515  22.896   7.419  12.296
37790W        W 9516   4.517  37.661   1.359
37791W        W 9517  11.080   1.323  14.262
37792W        W 9518  30.867  19.587   4.500
37793W        W 9519  23.906  35.599  13.884
37794W        W 9520  22.611  37.990   4.018
37795W        W 9521   4.714  16.357   0.838
37796W        W 9522  41.572  42.503   0.894
37797W        W 9523  15.807  33.476   4.064
37798W        W 9524  32.986  25.495   3.612
37799W        W 9525  34.156  27.100  13.552
37800W        W 9526  33.633   3.701   0.066
37801W        W 9527   1.935  26.764  10.381
37802W        W 9528   5.814  30.141  14.743
37803W        W 9529  25.701  17.176  10.743
37804W        W 9530  16.268  10.815   4.203
37805W        W 9531  24.418  38.225   1.066
37806W        W 9532   8.836  16.034  12.964
37807W        W 9533  20.045  30.368   4.260
37808W        W 9534   9.171  11.314  12.242
37809W        W 9535  19.505  16.232   4.791
37810W        W 9536  27.754  43.383  14.363
37811W        W 9537  32.230  29.014  10.719
37812W        W 9538  20.249  26.919   4.384
37813W        W 9539  16.170   1.023  10.710
37814W        W 9540  12.300  35.150   0.546
37815W        W 9541  40.466  27.293  10.735
37816W        W 9542  11.652   0.383   0.455
37817W        W 9543  17.696  22.167   1.589
37818W        W 9544  18.255  29.211   2.245
37819W        W 9545  34.314  37.070   3.214
37820W        W 9546  41.711  18.042  12.536
37821W        W 9547  20.203   6.238  10.760
37822W        W 9548   5.449  33.380   2.275
37823W        W 9549   5.289  34.318  13.548
37824W        W 9550  19.264   9.650   3.675
37825W        W 9551   2.676  43.435  14.870
37826W        W 9552  14.744  38.496   5.271
37827W        W 9553  21.089  21.596   2.315
37828W        W 9554   9.933  22.803   2.434
37829W        W 9555  33.461  35.995  12.608
37830W        W 9556  15.701  31.427   3.753
37831W        W 9557  12.559  18.048  12.592
37832W        W 9558  38.874   0.480   4.546
37833W        W 9559   3.351  13.875   3.131
37834W        W 9560  10.733  35.205  14.963
37835W        W 9561  14.607  37.508   4.084
37836W        W 9562   1.297  20.567  11.966
37837W        W 9563   5.755  32.297  12.522
37838W        W 9564  13.871  44.416   4.177
37839W        W 9565  41.576  28.597   2.017
37840W        W 9566  30.457  27.099   5.079
37841W        W 9567  43.876  28.667   2.072
37842W        W 9568   4.495  44.864  14.979
37843W        W 9569   9.388  20.427  14.338
37844W        W 9570  38.233  34.877  11.827
37845W        W 9571  24.545  31.688   0.212
37846W        W 9572   5.405  13.401  14.009
37847W        W 9573  15.273  16.613  13.706
37848W        W 9574   9.391  29.521   0.745
37849W        W 9575  16.006  18.540  10.265
37850W        W 9576  36.905   3.707  11.811
37851W        W 9577  33.209  28.117  13.136
37852W        W 9578  32.608  33.147   3.635
37853W        W 9579  15.326   5.714  10.726
37854W        W 9580  36.475  14.691   3.006
37855W        W 9581  15.673  10.649  12.505
37856W        W 9582  35.371  30.624   2.757
37857W        W 9583  30.056  28.486  11.371
37858W        W 9584  26.248  28.528  11.547
37859W        W 9585  11.191  13.616   2.351
37860W        W 9586  36.375  36.687  10.705
37861W        W 9587  22.820   1.376   4.525
37862W        W 9588   5.508  22.573  12.405
37863W        W 9589  18.159   9.614  10.919
37864W        W 9590  22.536  38.541  11.815
37865W        W 9591  20.137   6.744   2.716
37866W        W 9592  27.116  30.929  14.889
37867W        W 9593  19.604  23.958   2.205
37868W        W 9594   3.528  16.920  11.574
37869W        W 9595  40.087  23.668   3.644
37870W        W 9596  21.244   3.316   3.879
37871W        W 9597   0.480  35.149  11.526
37872W        W 9598   5.144   8.110   0.919
37873W        W 9599  30.200  38.482   4.233
37874W        W 9600   3.420  26.177   3.698
37875W        W 9601  17.511  16.200   2.212
37876W        W 9602  28.233  37.474  14.684
37877W        W 9603   7.681  43.322  12.492
37878W        W 9604  30.926  32.528   3.133
37879W        W 9605  31.911  29.470  12.573
37880W        W 9606   7.979   2.779   3.240
37881W        W 9607  11.581  12.695   1.284
37882W        W 9608   3.245  43.143   1.363
37883W        W 9609   0.163  31.908  11.531
37884W        W 9610  31.676  40.413  11.617
37885W        W 9611  27.179  35.338   2.555
37886W        W 9612   0.363  41.478  11.217
37887W        W 9613   1.501  19.081   3.105
37888W        W 9614   9.929  10.674  13.033
37889W        W 9615  36.462  41.839   1.123
37890W        W 9616  33.560  14.518  13.657
37891W        W 9617   4.345  13.744   4.145
37892W        W 9618   6.294  29.420   2.787
37893W        W 9619  22.758  12.302  11.610
37894W        W 9620  21.765  14.239   1.814
37895W        W 9621   3.922   4.806   0.490
37896W        W 9622  13.027  37.951   1.321
37897W        W 9623   9.363   6.762   0.563
37898W        W 9624  35.954   4.235   1.421
37899W        W 9625  35.193  41.383   0.835
37900W        W 9626  22.537  36.025   2.832
37901W        W 9627  22.210  35.382  12.959
37902W        W 9628  11.754  23.862  11.883
37903W        W 9629  38.052  26.764  13.459
37904W        W 9630   1.502  31.099  13.418
37905W        W 9631  18.593  16.642   0.251
37906W        W 9632  38.821  35.784  14.818
37907W        W 9633  27.591   4.443   3.293
37908W        W 9634  34.913  24.469   3.434
37909W        W 9635   8.629  34.862   0.581
37910W        W 9636  30.552   1.797  10.832
37911W        W 9637  32.924  37.870   1.159
37912W        W 9638   8.317   8.222  13.221
37913W        W 9639  15.836  35.421   1.365
37914W        W 9640  39.252  11.641   2.487
37915W        W 9641   6.672  13.667  12.462
37916W        W 9642  19.680  31.927   9.906
37917W        W 9643  10.138  41.301   0.464
37918W        W 9644  29.508   3.394   3.230
37919W        W 9645  42.561  37.033  14.881
37920W        W 9646  23.711   7.207   3.301
37921W        W 9647  13.991   3.386  12.362
37922W        W 9648  28.503  32.723   1.676
37923W        W 9649  34.675  19.328  11.970
37924W        W 9650  34.796  34.541  13.534
37925W        W 9651  28.290  30.450  10.501
37926W        W 9652  27.338  24.144   4.112
37927W        W 9653  42.525  24.552   1.344
37928W        W 9654  43.234  32.926   4.130
37929W        W 9655  43.434  39.549   0.749
37930W        W 9656   0.522   2.323  13.968
37931W        W 9657  41.943  25.795   1.888
37932W        W 9658   5.431  17.738   3.869
37933W        W 9659  34.345   9.950   3.681
37934W        W 9660  12.903  26.697  10.729
37935W        W 9661  39.983  10.889   1.194
37936W        W 9662   3.181  27.519   2.354
37937W        W 9663  15.649   3.539  14.512
37938W        W 9664  41.958  25.637  11.394
37939W        W 9665   2.826  32.962  14.259
37940W        W 9666  13.498  30.785  11.084
37941W        W 9667   1.246  24.461   4.161
37942W        W 9668  21.511  12.747   4.646
37943W        W 9669  38.196  40.273  12.894
37944W        W 9670  21.328  11.367   2.799
37945W        W 9671   5.190  27.673  13.023
37946W        W 9672  17.417  29.527   4.663
37947W        W 9673   2.212  41.570  13.346
37948W        W 9674  20.696  13.042   5.018
37949W        W 9675  34.226  41.050   2.299
37950W        W 9676   3.086  12.876  10.710
37951W        W 9677  18.269   2.823  10.630
37952W        W 9678  13.264  21.720  12.100
37953W        W 9679   7.730  43.564  12.952
37954W        W 9680  30.548  36.434   1.911
37955W        W 9681  27.674  34.027   2.703
37956W        W 9682  26.697  33.120   0.042
37957W        W 9683  18.484  13.256   4.065
37958W        W 9684  21.079  25.864  12.864
37959W        W 9685  22.127   6.821   4.504
37960W        W 9686  10.327  18.250  13.696
37961W        W 9687  35.874  27.177   2.807
37962W        W 9688  41.528  15.392  13.944
37963W        W 9689  34.826  29.010  11.634
37964W        W 9690   2.458  23.096  14.025
37965W        W 9691  26.626  18.617   1.206
37966W        W 9692   5.500   2.785  11.334
37967W        W 9693  25.615  12.403   1.056
37968W        W 9694  37.097  42.621  14.109
37969W        W 9695  12.278   3.852   0.215
37970W        W 9696  19.241  13.228  10.925
37971W        W 9697   3.042  32.927  10.799
37972W        W 9698  27.483   8.408   2.598
37973W        W 9699  32.459  12.918   0.456
37974W        W 9700   4.002  33.955   2.197
37975W        W 9701  32.181  11.490   5.059
37976W        W 9702  41.313  32.831   0.952
37977W        W 9703  10.135  37.493  13.526
37978W        W 9704  35.422  37.274  14.387
37979W        W 9705  19.097  37.747   1.183
37980W        W 9706  33.662   7.813  11.201
37981W        W 9707   5.325  10.254   9.960
37982W        W 9708  32.496   8.398  12.621
37983W        W 9709  18.835   0.225   1.293
37984W        W 9710   8.211  30.433   0.034
37985W        W 9711  36.913   3.849   3.826
37986W        W 9712  44.463   7.706  14.041
37987W        W 9713  34.689   9.814   2.171
37988W        W 9714  27.473  38.946  12.996
37989W        W 9715  26.650   2.423  10.744
37990W        W 9716  13.251   1.303  11.732
37991W        W 9717  30.463  32.157  11.159
37992W        W 9718   0.960  28.407   4.534
37993W        W 9719  14.707  40.035   2.745
37994W        W 9720  28.336   2.983   4.177
37995W        W 9721  35.884  32.702   3.227
37996W        W 9722  26.991  28.653  13.515
37997W        W 9723   6.266   1.235  14.871
37998W        W 9724   0.853  21.576  12.909
37999W        W 9725  38.364   0.585   2.358
38000W        W 9726  16.785  16.604   4.534
38001W        W 9727  32.666  22.288  14.888
38002W        W 9728   4.704   7.172  12.024
38003W        W 9729  35.317  20.533   0.871
38004W        W 9730   7.421  24.451  14.977
38005W        W 9731   5.323   4.224  12.065
38006W        W 9732  38.421   5.159   1.755
38007W        W 9733  29.389  23.663   4.622
38008W        W 9734  14.007  32.551   1.274
38009W        W 9735  13.794  33.391   4.319
38010W        W 9736  30.491  23.837   2.328
38011W        W 9737  32.540  11.649   4.706
38012W        W 9738  31.050  41.488   5.320
38013W        W 9739  17.054  27.701   3.696
38014W        W 9740  42.965  17.230  11.418
38015W        W 9741   8.766  15.219  10.792
38016W        W 9742  37.199  24.484  12.422
38017W        W 9743  19.442  22.240   3.688
38018W        W 9744  30.947  30.473  14.546
38019W        W 9745  29.679  34.629   1.539
38020W        W 9746  25.949  41.293   4.836
38021W        W 9747  31.625   0.065  11.631
38022W        W 9748   9.769  42.678  11.989
38023W        W 9749   6.192  43.204  10.540
38024W        W 9750  11.633  28.117   3.698
38025W        W 9751  19.276  42.315   0.459
38026W        W 9752  26.707  41.079  14.070
38027W        W 9753  18.173   6.530  10.446
38028W        W 9754  30.420  31.890   1.598
38029W        W 9755   2.653   8.765   3.095
38030W        W 9756  33.444   8.908  13.039
38031W        W 9757  43.485  32.645  13.514
38032W        W 9758  12.577  16.637   2.567
38033W        W 9759  16.598   5.105   1.527
38034W        W 9760  26.013  40.358   4.409
38035W        W 9761  43.065   1.780   4.073
38036W        W 9762  42.309  40.925   0.959
38037W        W 9763   7.867   8.878   5.036
38038W        W 9764  44.252  31.840   2.211
38039W        W 9765  19.591  39.001  12.310
38040W        W 9766  35.339  38.911  14.590
38041W        W 9767  18.686  15.813  11.883
38042W        W 9768  16.774   7.552   3.700
38043W        W 9769  33.426   9.085  14.343
38044W        W 9770   0.471  24.089   2.222
38045W        W 9771   7.577  13.466  14.544
38046W        W 9772   3.437  40.893   0.239
38047W        W 9773   4.171  34.599  12.027
38048W        W 9774  26.991  16.291  12.082
38049W        W 9775   9.710  23.036  10.704
38050W        W 9776  34.099   4.880  14.025
38051W        W 9777  37.453  32.087   4.675
38052W        W 9778  16.007  42.970   1.414
38053W        W 9779  15.708  31.944  14.429
38054W        W 9780  15.848  38.087  12.868
38055W        W 9781  16.252  28.966   1.612
38056W        W 9782  10.332  42.954  13.289
38057W        W 9783  34.406  18.329   2.641
38058W        W 9784   7.924  14.239  12.831
38059W        W 9785  17.329  32.688  11.507
38060W        W 9786  17.137   9.533   3.622
38061W        W 9787   6.901  39.005   0.754
38062W        W 9788  35.103  39.463   1.203
38063W        W 9789  12.250  35.094   3.235
38064W        W 9790  15.286  30.633  13.368
38065W        W 9791  37.427   0.513  11.118
38066W        W 9792  12.191   5.910  10.604
38067W        W 9793  18.284   4.443   4.095
38068W        W 9794  29.084   3.707   2.180
38069W        W 9795  32.495  35.043   4.247
38070W        W 9796  40.108  22.767   3.639
38071W        W 9797   9.830  11.725   3.709
38072W        W 9798   6.310  39.895   1.003
38073W        W 9799   9.274   8.171  13.852
38074W        W 9800   1.662  38.969  10.961
38075W        W 9801  42.371  21.465  13.362
38076W        W 9802  44.959  23.157  12.826
38077W        W 9803  38.354  29.239  13.893
38078W        W 9804  40.998  16.565  11.937
38079W        W 9805  36.590  36.393   2.242
38080W        W 9806   0.370   7.751   2.598
38081W        W 9807  44.059   2.796   4.100
38082W        W 9808  32.262  38.375   1.700
38083W        W 9809  38.277   6.003  13.368
38084W        W 9810  13.331  41.531  12.628
38085W        W 9811  28.988   1.935   3.989
38086W        W 9812  36.060  36.971  13.853
38087W        W 9813  44.912  14.284   3.191
38088W        W 9814  13.289  25.112   2.338
38089W        W 9815  15.339  17.968  11.072
38090W        W 9816   8.306  12.679  14.796
38091W        W 9817  27.244   0.419   9.851
38092W        W 9818  12.847  35.497  14.917
38093W        W 9819  33.509  43.808   9.567
38094W        W 9820   9.660  40.368   4.385
38095W        W 9821  11.620  43.778  14.266
38096W        W 9822  32.437  31.817   0.683
38097W        W 9823  12.545   3.708  12.509
38098W        W 9824  25.283   3.460   4.755
38099W        W 9825   4.837   0.557   5.123
38100W        W 9826  14.680   8.318  13.484
38101W        W 9827   5.098   4.526   1.840
38102W        W 9828  17.815  18.878  13.528
38103W        W 9829  19.023  26.033  13.920
38104W        W 9830   9.215  38.297   0.839
38105W        W 9831  31.305  15.721  14.044
38106W        W 9832  30.225  37.958   3.983
38107W        W 9833  24.033  31.175   3.648
38108W        W 9834  22.637  20.708  12.110
38109W        W 9835  32.202  40.336  13.410
38110W        W 9836  24.027  19.373   0.297
38111W        W 9837   4.319  44.994  13.646
38112W        W 9838  22.384  22.055  13.833
38113W        W 9839  43.289  25.847   4.761
38114W        W 9840  27.129  21.561   0.770
38115W        W 9841  37.435   1.698   2.328
38116W        W 9842  26.000  30.350   4.147
38117W        W 9843  38.508  42.875   3.000
38118W        W 9844  39.353  16.439  11.549
38119W        W 9845  40.260  38.716  14.818
38120W        W 9846   5.116  39.420   3.140
38121W        W 9847  17.290  22.947  12.828
38122W        W 9848   2.441  44.593  11.091
38123W        W 9849   3.778   2.276  14.132
38124W        W 9850   3.731   3.913  13.428
38125W        W 9851  14.710  41.095  13.443
38126W        W 9852   5.984   1.948   3.243
38127W        W 9853   6.483   1.975   0.712
38128W        W 9854  27.657   4.989   3.208
38129W        W 9855  16.806  11.649   3.128
38130W        W 9856  26.732  29.550  11.254
38131W        W 9857   8.398  13.420   3.692
38132W        W 9858  40.928  27.455   2.840
38133W        W 9859  14.323  28.543   0.228
38134W        W 9860  37.075  42.223  11.086
38135W        W 9861   4.381  36.864  14.149
38136W        W 9862  28.943  32.126  12.434
38137W        W 9863  39.772  23.394   0.171
38138W        W 9864   1.318  12.052   3.687
38139W        W 9865  42.362  24.771   3.704
38140W        W 9866  44.321  26.611  11.250
38141W        W 9867   2.477  44.075   0.386
38142W        W 9868   3.290   6.565   4.984
38143W        W 9869  10.941  35.636  11.901
38144W        W 9870   6.391  42.293   1.526
38145W        W 9871  27.486  18.993  13.202
38146W        W 9872  18.283  43.946   0.366
38147W        W 9873  38.509  14.527   3.171
38148W        W 9874   1.538  14.718   0.315
38149W        W 9875  10.178  31.767  11.635
38150W        W 9876  13.034  43.546  14.451
38151W        W 9877  37.513  37.954  14.806
38152W        W 9878   3.734  42.383  14.070
38153W        W 9879  11.671   4.953  11.624
38154W        W 9880  26.996  11.384  13.516
38155W        W 9881  40.515  34.981  14.987
38156W        W 9882  43.950  33.999   2.638
38157W        W 9883  22.578  32.478   4.590
38158W        W 9884  20.182  18.805   2.408
38159W        W 9885  39.811   1.862  14.911
38160W        W 9886  21.207  39.043   2.734
38161W        W 9887  26.433  34.060   2.349
38162W        W 9888  39.480  11.192   4.583
38163W        W 9889  29.641   2.834   2.179
38164W        W 9890  27.474  44.984   2.685
38165W        W 9891  16.556  32.613  12.946
38166W        W 9892  23.597   1.890  13.502
38167W        W 9893  19.004   6.291   4.459
38168W        W 9894  15.073   2.730   2.239
38169W        W 9895   2.710  39.581   4.187
38170W        W 9896  15.152  18.269   2.748
38171W        W 9897  28.746  24.470   2.454
38172W        W 9898  21.065  37.892  13.966
38173W        W 9899   9.580   0.333   1.434
38174W        W 9900   4.199   2.363   3.186
38175W        W 9901  16.602  19.760  10.938
38176W        W 9902   2.940   2.780  13.847
38177W        W 9903   0.978   8.104  12.142
38178W        W 9904  30.459  43.749   4.086
38179W        W 9905  34.955  37.017   0.173
38180W        W 9906   4.805  44.059   4.450
38181W        W 9907  23.363  31.884  13.840
38182W        W 9908  14.117  42.387   2.024
38183W        W 9909  35.046  17.660  10.794
38184W        W 9910  35.938  23.701   3.457
38185W        W 9911  18.737  37.638  11.613
38186W        W 9912   7.335   3.961   1.331
38187W        W 9913  43.175   3.389  12.962
38188W        W 9914  30.816   1.491   4.559
38189W        W 9915   6.225  44.373  14.681
38190W        W 9916  42.255  33.399  11.133
38191W        W 9917  28.199  43.978   1.400
38192W        W 9918  40.117  33.653  11.845
38193W        W 9919  14.811  43.721  14.869
38194W        W 9920   7.074  25.260  12.893
38195W        W 9921  42.122  11.202  10.627
38196W        W 9922  19.700   3.995  11.332
38197W        W 9923  14.313  41.499   0.184
38198W        W 9924  19.566  34.499  13.377
38199W        W 9925  34.988  38.303  13.504
38200W        W 9926   9.392   5.992   2.711
38201W        W 9927   8.509   5.967  11.107
38202W        W 9928   3.032  29.183  12.467
38203W        W 9929  42.007  29.444   4.173
38204W        W 9930  23.070   2.237  10.779
38205W        W 9931  14.200   5.304   2.795
38206W        W 9932  26.028   1.734   4.856
38207W        W 9933  14.373  14.251  10.766
38208W        W 9934  12.634  12.739   2.791
38209W        W 9935   5.347  21.984   4.215
38210W        W 9936  35.083  41.389  14.849
38211W        W 9937  20.005  37.117  12.879
38212W        W 9938  13.290  26.571   0.307
38213W        W 9939  41.973  21.140  12.171
38214W        W 9940  41.706  26.056   1.105
38215W        W 9941  34.574   3.723   4.152
38216W        W 9942  21.310  44.459   0.467
38217W        W 9943   7.292  29.943  10.567
38218W        W 9944  27.516  29.609   0.795
38219W        W 9945   3.017  29.570  11.215
38220W        W 9946  21.056   0.807  10.665
38221W        W 9947  34.023  23.438  11.464
38222W        W 9948   8.764  43.328   4.815
38223W        W 9949  30.126  20.545   3.053
38224W        W 9950  25.073  23.711   2.767
38225W        W 9951  36.604  26.948  10.928
38226W        W 9952  27.246  19.459   4.460
38227W        W 9953  28.529  31.425   2.281
38228W        W 9954   2.830  31.235  12.618
38229W        W 9955  24.686  33.164   2.778
38230W        W 9956  21.510  29.718   3.710
38231W        W 9957  38.944  40.794   1.349
38232W        W 9958  41.253  30.924   1.855
38233W        W 9959  18.642  23.502   3.186
38234W        W 9960  15.523  11.325   1.846
38235W        W 9961  40.545  39.915   0.412
38236W        W 9962  31.540  14.594   2.854
38237W        W 9963  33.542  35.172   4.373
38238W        W 9964   0.541  25.450  11.667
38239W        W 9965  23.754  25.041  12.882
38240W        W 9966   1.152  19.479  12.381
38241W        W 9967  41.529  15.882  12.387
38242W        W 9968  40.444  20.085  13.724
38243W        W 9969  11.685  13.472   2.429
38244W        W 9970   7.664  35.977  12.400
38245W        W 9971  23.611  32.468   4.836
38246W        W 9972  38.421  38.552  10.715
38247W        W 9973  36.509  37.290   4.608
38248W        W 9974  24.185   7.789  14.876
38249W        W 9975  29.419   2.956  13.964
38250W        W 9976  30.448  33.552  12.378
38251W        W 9977  12.359  27.412  13.780
38252W        W 9978  28.570  12.186  14.257
38253W        W 9979  29.346  14.237  13.522
38254W        W 9980   0.672  18.179   0.456
38255W        W 9981  17.042  16.501   0.782
38256W        W 9982  44.830  24.787  12.524
38257W        W 9983  39.952  29.437   0.881
38258W        W 9984  27.401   4.427   4.880
38259W        W 9985   0.075  16.283   2.949
38260W        W 9986  28.526  18.387  11.568
38261W        W 9987   6.399   4.968   3.078
38262W        W 9988  17.699  34.039   2.737
38263W        W 9989   5.396  27.939   0.825
38264W        W 9990  30.043  40.312  10.779
38265W        W 9991   5.769  26.292   3.203
38266W        W 9992  26.473  43.179  13.819
38267W        W 9993  14.743  25.848  13.533
38268W        W 9994   6.804   1.574   4.167
38269W        W 9995  16.427  16.763  13.074
38270W        W 9996  26.670  37.192  12.392
38271W        W 9997  27.153  24.791   3.822
38272W        W 9998  19.521  22.818  13.204
38273W        W 9999  28.863   4.702  12.089
38274W        W10000  20.276  27.087   0.507
38275W        W10001   4.587  25.005  10.749
38276W        W10002  21.179  34.908   0.708
38277W        W10003  17.654   5.963   4.922
38278W        W10004   9.406  15.174   1.344
38279W        W10005  29.121   3.391  13.871
38280W        W10006  32.583  16.707  12.904
38281W        W10007  40.918  36.707  11.108
38282W        W10008  40.011   1.060  11.955
38283W        W10009  23.402  14.217   5.032
38284W        W10010  14.693  32.007   5.116
38285W        W10011  17.135  37.103   2.280
38286W        W10012  17.215   6.260  11.177
38287W        W10013  43.474  26.939   3.332
38288W        W10014  28.615  37.729  14.225
38289W        W10015  43.075  24.588  11.261
38290W        W10016  19.217  15.036   3.314
38291W        W10017   4.500  43.713   2.266
38292W        W10018  32.572  43.761   3.296
38293W        W10019   2.216  24.691   1.768
38294W        W10020   7.673  43.546   1.780
38295W        W10021   6.367   8.223   1.533
38296W        W10022   9.807  37.652   4.958
38297W        W10023   3.491  15.438  13.823
38298W        W10024  37.205  42.486   1.014
38299W        W10025  27.184   5.191  11.608
38300W        W10026  35.327  32.536   4.045
38301W        W10027  35.139  44.218   0.485
38302W        W10028  12.804  28.352   1.260
38303W        W10029  32.980  24.790  14.349
38304W        W10030  38.802  43.977  11.172
38305W        W10031  34.520   0.240  13.532
38306W        W10032   8.287   9.860  10.592
38307W        W10033   6.737  32.462   0.467
38308W        W10034  41.037  42.203  13.713
38309W        W10035  40.589  15.779   2.884
38310W        W10036  42.903  23.057   0.395
38311W        W10037  12.328   3.208   1.509
38312W        W10038   7.790  30.474   4.548
38313W        W10039  15.115  32.273  11.581
38314W        W10040   0.956  31.410  10.668
38315W        W10041  18.504  35.074  11.126
38316W        W10042  24.574  30.523  13.629
38317W        W10043  32.914  24.971   3.603
38318W        W10044  22.132  39.971   1.718
38319W        W10045  14.254  37.519  13.204
38320W        W10046  23.430  39.019   2.293
38321W        W10047  17.871  27.591   0.574
38322W        W10048   7.434  32.823  12.950
38323W        W10049  25.148  40.433   0.251
38324W        W10050   8.438  38.785   4.117
38325W        W10051  17.829  40.003  11.042
38326W        W10052  16.484   0.497  14.996
38327W        W10053  40.938  28.682  11.667
38328W        W10054  16.204   2.419  10.447
38329W        W10055   4.996  31.522   2.093
38330W        W10056  29.914  27.150   0.370
38331W        W10057  18.541   1.003   4.951
38332W        W10058  12.259   9.265   1.702
38333W        W10059  38.602  11.692  14.456
38334W        W10060  15.191  39.482   3.395
38335W        W10061  12.278  22.566   1.315
38336W        W10062   5.242  22.081   0.399
38337W        W10063  16.887  26.987  14.465
38338W        W10064  20.247  16.371   0.480
38339W        W10065  22.327  41.714   1.699
38340W        W10066  24.485  11.441  14.833
38341W        W10067  24.250  19.630  13.011
38342W        W10068   6.763  17.711  13.275
38343W        W10069  12.424  20.937   0.927
38344W        W10070  12.789  43.281   3.429
38345W        W10071  11.394  10.826   1.886
38346W        W10072  18.784   8.633   3.219
38347W        W10073  24.813   1.206   5.136
38348W        W10074  30.200  35.627   0.964
38349W        W10075  13.075  35.326   2.878
38350W        W10076  34.428  34.017  14.764
38351W        W10077  30.200  10.486  13.187
38352W        W10078  41.476  18.705  11.622
38353W        W10079  30.660   5.420  12.393
38354W        W10080   6.987   5.313  13.309
38355W        W10081  15.048   6.198  12.957
38356W        W10082  34.886  16.238   3.236
38357W        W10083  44.777  15.166   0.465
38358W        W10084   9.376  13.807   1.501
38359W        W10085  35.139  35.748  14.837
38360W        W10086  33.893  33.127   3.307
38361W        W10087  17.572  20.342  13.210
38362W        W10088  44.512  30.869   1.775
38363W        W10089   5.244  30.567   3.163
38364W        W10090  32.455   0.399   0.381
38365W        W10091  26.428  14.605   1.111
38366W        W10092  20.099   8.836   1.223
38367W        W10093  40.135  40.807   2.784
38368W        W10094  24.950  28.048   3.558
38369W        W10095  15.342  18.695   0.741
38370W        W10096  38.896  40.979   3.273
38371W        W10097  40.870   4.003  11.688
38372W        W10098  21.557  24.541   0.842
38373W        W10099  29.874  16.813   1.823
38374W        W10100  28.944   0.335   1.408
38375W        W10101  22.087   0.244  14.340
38376W        W10102  36.584  13.584  12.379
38377W        W10103   4.501  15.642   3.194
38378W        W10104  33.591  18.478  10.682
38379W        W10105  22.516   0.099   0.842
38380W        W10106   3.232  34.866  12.522
38381W        W10107  13.384  43.882   0.430
38382W        W10108  44.475  10.810  13.571
38383W        W10109  18.810  24.010   1.845
38384W        W10110   8.204  16.060   4.180
38385W        W10111   3.837   6.658  12.074
38386W        W10112  17.732   4.304   0.774
38387W        W10113   1.892   3.461  13.334
38388W        W10114  34.003  39.240  11.418
38389W        W10115   6.095   9.483  12.432
38390W        W10116  20.605  20.128   1.394
38391W        W10117  30.537  15.538  12.206
38392W        W10118   4.249  28.389   4.587
38393W        W10119   4.627  13.141   1.291
38394W        W10120  33.425  42.562  10.577
38395W        W10121  40.618  13.843   2.789
38396W        W10122   3.734  25.412  10.664
38397W        W10123  42.516  23.798   3.893
38398W        W10124  26.321  43.926  12.006
38399W        W10125  17.100  26.090   2.885
38400W        W10126  44.740  37.904   1.522
38401W        W10127  38.390  34.281  14.098
38402W        W10128   1.784  25.956  12.585
38403W        W10129  13.930  17.983  11.464
38404W        W10130  34.898   0.581  12.393
38405W        W10131  28.764  25.697  14.551
38406W        W10132  22.565  40.381   1.656
38407W        W10133  22.821  43.264  13.501
38408W        W10134  36.074   6.139  10.496
38409W        W10135  36.590  12.362   3.333
38410W        W10136  25.299  42.772   5.226
38411W        W10137  35.107   2.680  12.554
38412W        W10138  27.932  22.595  12.834
38413W        W10139  43.757  19.624   0.495
38414W        W10140   9.342  27.971  12.564
38415W        W10141  35.214  25.145   1.198
38416W        W10142   6.434  34.981  10.705
38417W        W10143  23.349  38.322   3.690
38418W        W10144  37.525   2.160  13.853
38419W        W10145   3.119  34.508  12.878
38420W        W10146   7.358  41.530   2.677
38421W        W10147   7.777   1.486  12.536
38422W        W10148  27.217  31.726   1.698
38423W        W10149   3.955   5.195  12.196
38424W        W10150  44.520  22.042  13.910
38425W        W10151  32.642   4.940  11.947
38426W        W10152   8.375  21.288   1.151
38427W        W10153   0.212   8.722   1.284
38428W        W10154  27.353   3.435  12.212
38429W        W10155   8.343  27.241   2.124
38430W        W10156  43.552   8.604   1.399
38431W        W10157   7.148   1.726   1.306
38432W        W10158  29.563  42.739   0.715
38433W        W10159  38.111   1.033   3.410
38434W        W10160  42.378  27.415  14.498
38435W        W10161  40.904   2.038   1.943
38436W        W10162   1.925  12.216   1.327
38437W        W10163   4.490   3.798   4.182
38438W        W10164  14.064   1.881  12.520
38439W        W10165   4.501  35.026   0.637
38440W        W10166  38.174   2.991  10.448
38441W        W10167  17.759  42.767  14.405
38442W        W10168   1.217  29.201  14.847
38443W        W10169  38.013   2.051  11.509
38444W        W10170  24.148  44.502  11.472
38445W        W10171  44.567  30.552   3.235
38446W        W10172  18.076  25.958  12.652
38447W        W10173  15.636  23.556   2.351
38448W        W10174  11.910  26.773  12.134
38449W        W10175  23.088  41.442   2.823
38450W        W10176   9.825  19.769  12.514
38451W        W10177  37.973  42.967  10.534
38452W        W10178   4.210  14.372   0.785
38453W        W10179  18.085  16.342   1.321
38454W        W10180  43.795   6.103  12.958
38455W        W10181  39.433  33.426   3.437
38456W        W10182   3.171   4.300   0.163
38457W        W10183  40.833  33.574  12.399
38458W        W10184  13.622  21.041   2.674
38459W        W10185  36.372  34.862  11.257
38460W        W10186  15.091  30.375   1.788
38461W        W10187  16.764  19.902  12.864
38462W        W10188  20.612  28.443   0.548
38463W        W10189  36.189  41.964   1.578
38464W        W10190  37.897  24.589   1.861
38465W        W10191   4.198  39.671  12.915
38466W        W10192  13.430  11.142  12.718
38467W        W10193   2.848  11.088   4.837
38468W        W10194  15.595   6.873  10.868
38469W        W10195  17.346  22.891   4.257
38470W        W10196  11.058  10.810   3.601
38471W        W10197  24.765  36.173   1.200
38472W        W10198  22.182   3.012   4.267
38473W        W10199  43.092  12.709   2.175
38474W        W10200  41.318  36.496   4.610
38475W        W10201   9.225  10.089   2.132
38476W        W10202  29.045  30.311  11.141
38477W        W10203  36.902  38.075  11.126
38478W        W10204  43.857  18.838  10.684
38479W        W10205  38.881  43.850   1.003
38480W        W10206  39.535  21.729   1.881
38481W        W10207  25.028   8.909  12.148
38482W        W10208  21.494   0.109   4.172
38483W        W10209  35.855  43.827   1.899
38484W        W10210  17.621   6.438   0.410
38485W        W10211  38.575   3.477   3.466
38486W        W10212  37.821  22.441   2.366
38487W        W10213  34.281  15.646   4.155
38488W        W10214   9.168  15.799  13.328
38489W        W10215  23.835   7.713  14.499
38490W        W10216  37.973  44.226  11.968
38491W        W10217   2.649   4.874   0.986
38492W        W10218   1.765  11.423   1.752
38493W        W10219  16.216   9.248   1.369
38494W        W10220  35.155  25.699   2.908
38495W        W10221  26.026  20.513  10.646
38496W        W10222  30.472  16.615   4.527
38497W        W10223   5.385   1.930   1.704
38498W        W10224  35.805   1.754  13.349
38499W        W10225  15.182  15.013  14.059
38500W        W10226  10.175   0.905   1.131
38501W        W10227  41.751  30.176  13.774
38502W        W10228  36.646   6.597   4.302
38503W        W10229  15.214   0.152   0.446
38504W        W10230   3.770  23.062   2.223
38505W        W10231   2.035   2.998   0.706
38506W        W10232  10.162  12.144   2.688
38507W        W10233  14.336  39.471  10.473
38508W        W10234   5.001  40.541  14.922
38509W        W10235  33.309  25.582   2.263
38510W        W10236  22.511  20.530   0.482
38511W        W10237  25.494   8.109  10.708
38512W        W10238  32.472  34.537   2.625
38513W        W10239  12.392   3.419  11.189
38514W        W10240  26.436  29.209  10.527
38515W        W10241  13.211   5.182  11.550
38516W        W10242  14.829  25.640   4.559
38517W        W10243  16.715  28.143   1.354
38518W        W10244  23.255   8.898  11.065
38519W        W10245   2.035   9.296  12.147
38520W        W10246  26.713  28.911   2.864
38521W        W10247  16.765  16.978   3.623
38522W        W10248  10.250  15.363  14.422
38523W        W10249  34.974  41.684   1.356
38524W        W10250  32.390  20.805  11.192
38525W        W10251  31.002  20.164   0.321
38526W        W10252  15.852  21.340  14.675
38527W        W10253  34.656  15.387   3.289
38528W        W10254  22.126   2.320   2.017
38529W        W10255  37.522  32.064  12.804
38530W        W10256  41.996   5.695  14.451
38531W        W10257   9.720   8.536   5.100
38532W        W10258  34.791  40.974   3.132
38533W        W10259   3.224  38.063  10.779
38534W        W10260   1.644  29.508  11.573
38535W        W10261  28.713  14.871  13.875
38536W        W10262  28.485  31.409  12.604
38537W        W10263  16.060  43.814  12.435
38538W        W10264   1.891  43.578  11.956
38539W        W10265   0.561  37.032   5.069
38540W        W10266   1.828  31.566  14.987
38541W        W10267  11.916  31.013  13.893
38542W        W10268  37.136  11.132  12.527
38543W        W10269  28.892  40.433  11.338
38544W        W10270   6.405  36.466   2.589
38545W        W10271  40.634   5.924  14.463
38546W        W10272  29.730  26.641  10.640
38547W        W10273  12.814  16.751   4.079
38548W        W10274   6.157   7.783   0.226
38549W        W10275  25.649  43.864  14.581
38550W        W10276   0.355   2.540  12.629
38551W        W10277  10.894   4.351   3.761
38552W        W10278  31.789  31.468  11.830
38553W        W10279  23.063  37.523  14.107
38554W        W10280   9.254  19.675   1.556
38555W        W10281  27.535  25.635  12.072
38556W        W10282  15.561  32.382  11.907
38557W        W10283  13.472  22.157  11.891
38558W        W10284  36.441  30.481   9.904
38559W        W10285  42.539  43.143   3.672
38560W        W10286  44.934   1.266   3.318
38561W        W10287   8.413  41.615   2.429
38562W        W10288   5.590   2.340  14.105
38563W        W10289  29.669   2.015  10.337
38564W        W10290  24.627  44.242  11.505
38565W        W10291  41.573   7.264   5.095
38566W        W10292  14.780  36.445  11.564
38567W        W10293  28.990  29.590   2.150
38568W        W10294  39.100  37.997  12.850
38569W        W10295   1.772  30.025  10.402
38570W        W10296  17.546  22.584  14.841
38571W        W10297   2.001  23.764  14.289
38572W        W10298  10.398  10.237   0.374
38573W        W10299   2.339  25.073  12.534
38574W        W10300  12.221  36.615  14.406
38575W        W10301  32.437  30.729   1.826
38576W        W10302  19.031  21.632   2.905
38577W        W10303  27.915  23.074  11.152
38578W        W10304  14.219  44.816  11.092
38579W        W10305  20.067  26.025   0.795
38580W        W10306   1.087   9.380   3.156
38581W        W10307   5.292  38.005  12.900
38582W        W10308  32.646  31.555  14.708
38583W        W10309  26.612  39.264   4.593
38584W        W10310   6.409  24.083  13.877
38585W        W10311  12.094   9.340   1.174
38586W        W10312  15.134  30.667  12.881
38587W        W10313   7.293  42.943  10.251
38588W        W10314  15.671  32.655  12.343
38589W        W10315  23.425  15.946  10.659
38590W        W10316  37.884  17.691   1.365
38591W        W10317  10.823  34.402  10.114
38592W        W10318  29.336  34.389  12.044
38593W        W10319  10.852  41.366  11.225
38594W        W10320  16.776  16.537  10.494
38595W        W10321  16.167  29.709   2.138
38596W        W10322   2.377  22.067   3.175
38597W        W10323  31.472  26.158   4.958
38598W        W10324   7.259   0.371   0.941
38599W        W10325  42.118  22.888   4.147
38600W        W10326  13.735  18.890  11.176
38601W        W10327  30.891   0.414  14.926
38602W        W10328  42.696  37.863   1.860
38603W        W10329   8.139  24.553  10.080
38604W        W10330  15.772  36.552  11.410
38605W        W10331   0.536  35.339   0.350
38606W        W10332   3.975  22.612  10.589
38607W        W10333  15.157  43.412  11.476
38608W        W10334   6.932   6.308  10.414
38609W        W10335   2.009  24.109  11.164
38610W        W10336  28.894  22.016   4.221
38611W        W10337   8.394  28.102   1.099
38612W        W10338  18.091  24.412  14.256
38613W        W10339  41.268  27.616   1.897
38614W        W10340  16.110  37.534  10.634
38615W        W10341  20.654  19.903   0.914
38616W        W10342   8.838  12.941   3.030
38617W        W10343   7.828  25.726   1.798
38618W        W10344  39.002  24.448  12.423
38619W        W10345  19.489  44.155   4.308
38620W        W10346  12.197   6.249   0.368
38621W        W10347   5.718   1.479   3.212
38622W        W10348  35.762   4.908   2.043
38623W        W10349  41.292  35.807  13.174
38624W        W10350  17.709   7.827  14.577
38625W        W10351   1.260  12.900   4.225
38626W        W10352  37.327  42.381  14.479
38627W        W10353  13.157   9.150  11.201
38628W        W10354  35.953  22.989   2.850
38629W        W10355  23.623  16.714   3.593
38630W        W10356  18.191  17.233   1.381
38631W        W10357   5.793   1.655  10.583
38632W        W10358   4.715   5.990  14.480
38633W        W10359  24.022  29.636  14.311
38634W        W10360   8.841  29.398   2.919
38635W        W10361  26.004   0.284  11.924
38636W        W10362  32.345  18.481   2.255
38637W        W10363   8.790  32.311  10.843
38638W        W10364   6.900   1.860   2.999
38639W        W10365  29.583  34.903   3.129
38640W        W10366  11.308  21.053  10.579
38641W        W10367  28.694  28.154   3.136
38642W        W10368  16.101   5.775   4.481
38643W        W10369  14.495  33.524  11.643
38644W        W10370  44.362  20.871   3.675
38645W        W10371  25.200   9.090  14.530
38646W        W10372  15.112  20.534   2.824
38647W        W10373   5.704   8.596   4.253
38648W        W10374  28.689  43.460   3.232
38649W        W10375  27.843  37.318  13.236
38650W        W10376  43.296   3.167   0.263
38651W        W10377   3.264  23.154   3.865
38652W        W10378  37.035  40.552  11.602
38653W        W10379  33.464   4.871   2.441
38654W        W10380  29.635  24.140   4.603
38655W        W10381  13.346   4.656   4.931
38656W        W10382  34.118  20.632  12.566
38657W        W10383  44.302   7.960   0.382
38658W        W10384  23.409  13.133   2.980
38659W        W10385  29.509  32.430   3.340
38660W        W10386  22.252   7.751   0.744
38661W        W10387  24.213  34.453  10.755
38662W        W10388  44.022  32.502  12.576
38663W        W10389  13.664  41.114   4.480
38664W        W10390  42.269  10.772   2.648
38665W        W10391  12.372  17.878   3.748
38666W        W10392   9.424   3.572  13.090
38667W        W10393  27.824  32.083  10.673
38668W        W10394  30.418   3.100   3.151
38669W        W10395  17.839  43.061   1.834
38670W        W10396  29.285  42.440  13.491
38671W        W10397   1.510  40.610   1.702
38672W        W10398   2.540  28.249   2.191
38673W        W10399   9.198  10.160  14.926
38674W        W10400  25.037   5.266   0.468
38675W        W10401   8.820  27.581  13.417
38676W        W10402  39.561  12.595   0.941
38677W        W10403  28.103  16.742  13.970
38678W        W10404  20.366  13.140   0.756
38679W        W10405  13.234  42.062   0.218
38680W        W10406  19.721   2.892  11.626
38681W        W10407  12.201   8.831   0.390
38682W        W10408  29.133  22.449  14.404
38683W        W10409   8.182  32.826   0.235
38684W        W10410  28.444  24.024  14.822
38685W        W10411  28.211  25.715   1.401
38686W        W10412  25.739  33.958  13.694
38687W        W10413  33.910  17.795  12.388
38688W        W10414  29.924  32.510  14.846
38689W        W10415  10.133  24.643  14.466
38690W        W10416  26.743  35.962   5.130
38691W        W10417  30.662  18.366  14.486
38692W        W10418  29.558  41.755  10.994
38693W        W10419   1.460  19.725   1.420
38694W        W10420  20.017  27.930   3.405
38695W        W10421  22.456   6.716   2.841
38696W        W10422  42.586  10.372   1.903
38697W        W10423  34.449  25.148   0.554
38698W        W10424   3.693  14.301   2.415
38699W        W10425  44.838  42.840  13.338
38700W        W10426  27.563  19.290  14.933
38701W        W10427  39.104  21.651  12.005
38702W        W10428   0.159  35.631  12.063
38703W        W10429  17.853   5.237  10.648
38704W        W10430  19.523   8.191   0.760
38705W        W10431  44.135  28.151  13.882
38706W        W10432  40.737  16.886  11.596
38707W        W10433  18.002  26.808  11.129
38708W        W10434  42.063   3.341   9.623
38709W        W10435   4.260  19.185   2.804
38710W        W10436  16.169   6.611   1.310
38711W        W10437  40.544   0.274   2.433
38712W        W10438  42.414  14.199  14.514
38713W        W10439  10.892  34.687   3.383
38714W        W10440  40.623  20.780  11.074
38715W        W10441  16.734  29.474  14.897
38716W        W10442  42.001   7.756  12.491
38717W        W10443  10.184  26.919  14.430
38718W        W10444  27.974  36.053   0.837
38719W        W10445   8.984  22.632   9.847
38720W        W10446   0.502   1.171   4.256
38721W        W10447  13.087  30.689   1.861
38722W        W10448   1.206  32.119   2.435
38723W        W10449   0.777  30.405  10.074
38724W        W10450   6.930   0.336   2.353
38725W        W10451   0.208  15.188   3.198
38726W        W10452  44.291  18.938   5.159
38727W        W10453   9.638  16.303   1.023
38728W        W10454  14.152  24.010   2.978
38729W        W10455  41.386  27.206   2.815
38730W        W10456  26.138   1.299   5.397
38731W        W10457  26.431  10.715  11.262
38732W        W10458  43.483  17.022  10.189
38733W        W10459  12.351  10.674   1.646
38734W        W10460  16.342  27.648  11.091
38735W        W10461  43.855  29.606   1.431
38736W        W10462  42.280  38.415  14.804
38737W        W10463  28.649  36.953  11.056
38738W        W10464  38.671   7.005   2.143
38739W        W10465  35.908  10.746   4.386
38740W        W10466  19.853  14.673  13.314
38741W        W10467   7.941   0.074  13.812
38742W        W10468   8.914   6.891   1.346
38743W        W10469   9.307  40.840  10.401
38744W        W10470  17.150  35.862   1.409
38745W        W10471  11.281  15.800  10.715
38746W        W10472  25.019   4.293   4.344
38747W        W10473  32.137  24.070   1.618
38748W        W10474  34.454  21.754   2.924
38749W        W10475   7.628  39.467   1.026
38750W        W10476  14.986  30.676  10.929
38751W        W10477  18.457  14.794   1.193
38752W        W10478  40.514  43.714   3.489
38753W        W10479  41.546  32.211   1.659
38754W        W10480  19.201   2.470   2.213
38755W        W10481   4.812  38.631   4.617
38756W        W10482  39.010  24.601  14.380
38757W        W10483  15.650  40.873   0.366
38758W        W10484  22.736  27.675   1.793
38759W        W10485   8.396   1.185  11.679
38760W        W10486  23.438  31.522  12.121
38761W        W10487   8.278   0.573  14.519
38762W        W10488  36.282  31.692  14.807
38763W        W10489   6.238  28.437  11.389
38764W        W10490  13.866  14.240   0.588
38765W        W10491  43.342  20.275  10.772
38766W        W10492   7.292  42.704   1.763
38767W        W10493   3.472   1.949  10.659
38768W        W10494  13.902  13.201   3.126
38769W        W10495  32.904  12.606   1.697
38770W        W10496  14.846  23.138   3.828
38771W        W10497  19.216  40.460   1.642
38772W        W10498  42.820  33.013  14.032
38773W        W10499  20.264  22.822   2.616
38774W        W10500  44.659  25.682  12.844
38775W        W10501  43.479  13.866   3.260
38776W        W10502  11.052  38.812   1.791
38777W        W10503  18.357  20.583  13.081
38778W        W10504  38.352  25.444   1.985
38779W        W10505  40.262  39.992   3.645
38780W        W10506   0.892  13.602   0.988
38781W        W10507   1.313  21.897  13.833
38782W        W10508  38.986  24.043  10.643
38783W        W10509  39.846  38.067   2.373
38784W        W10510  29.949  39.001  12.602
38785W        W10511  36.328  19.265   3.668
38786W        W10512  28.076  14.408  14.204
38787W        W10513  36.495  28.485  13.011
38788W        W10514  28.010  13.736   4.542
38789W        W10515  42.690  33.025   2.091
38790W        W10516  33.836  20.187  11.423
38791W        W10517  22.439   8.095   3.241
38792W        W10518  22.691  11.042   1.149
38793W        W10519   6.932  22.005   1.434
38794W        W10520  11.463   1.546   3.782
38795W        W10521  37.005  28.195  10.625
38796W        W10522   5.589  32.942   4.106
38797W        W10523  19.240  18.392   2.331
38798W        W10524  42.440  20.946  11.157
38799W        W10525  39.379   7.384  13.523
38800W        W10526  27.113  12.070   0.876
38801W        W10527  34.045  31.781   4.383
38802W        W10528  41.314  15.323   0.938
38803W        W10529  10.361  23.514   0.827
38804W        W10530  11.167  39.476  14.750
38805W        W10531   5.902   6.125  13.137
38806W        W10532   4.147  35.298   3.264
38807W        W10533  18.025  11.201  13.028
38808W        W10534  32.464  18.990   1.542
38809W        W10535  39.918  30.459  11.623
38810W        W10536  16.600   6.087   3.604
38811W        W10537  20.804  24.702  10.636
38812W        W10538  19.988  34.078   3.292
38813W        W10539  32.098  22.206  12.902
38814W        W10540  42.310  38.646   4.144
38815W        W10541  19.719  30.564  11.083
38816W        W10542  22.802  19.518   1.373
38817W        W10543  31.987   6.543  12.387
38818W        W10544  41.275  13.524  13.518
38819W        W10545   6.769  31.327  13.098
38820W        W10546  44.237  25.426   1.061
38821W        W10547   5.944  16.800   5.604
38822W        W10548  44.187  40.890   3.146
38823W        W10549  43.326  39.704  12.624
38824W        W10550  34.665   9.776  13.988
38825W        W10551  40.292   1.904   0.963
38826W        W10552  24.534  21.979   2.228
38827W        W10553   5.481  39.245   1.809
38828W        W10554  13.620   5.229  14.503
38829W        W10555  29.047   3.866   1.213
38830W        W10556  32.411  20.799  12.098
38831W        W10557  39.142  34.048  13.557
38832W        W10558   9.386  26.649   4.343
38833W        W10559  13.908   0.747  12.067
38834W        W10560  24.816  24.243   3.423
38835W        W10561   6.607  18.864  10.659
38836W        W10562  11.921  40.453   2.253
38837W        W10563   2.810  27.705  11.145
38838W        W10564  32.426  14.783   3.178
38839W        W10565  20.604  11.362   0.282
38840W        W10566   8.605  14.636  14.016
38841W        W10567  43.046  17.696  11.681
38842W        W10568   4.774  25.799  12.053
38843W        W10569   5.852  26.472  13.493
38844W        W10570  24.412  20.665   3.296
38845W        W10571  21.057   3.812   3.813
38846W        W10572  19.872  18.138   1.732
38847W        W10573  40.859   9.781   4.116
38848W        W10574  44.367  21.596   4.131
38849W        W10575  39.783  22.437   4.039
38850W        W10576  31.789  42.219   9.837
38851W        W10577   6.768  13.891  11.992
38852W        W10578  12.520  31.158   1.453
38853W        W10579   2.879  25.039   2.528
38854W        W10580  23.063  24.802  13.472
38855W        W10581  12.926  40.851  11.121
38856W        W10582  11.880  38.548   3.304
38857W        W10583   2.638   9.864  14.476
38858W        W10584  31.995   4.212  12.694
38859W        W10585   9.711   8.732   1.912
38860W        W10586  20.947  39.240   4.151
38861W        W10587  10.876   5.409  12.928
38862W        W10588  41.596  44.765   0.783
38863W        W10589  36.121  25.998  10.603
38864W        W10590   0.218  40.010   4.546
38865W        W10591   6.782  19.052  14.245
38866W        W10592  44.292  33.608   2.729
38867W        W10593  27.067  25.790   2.918
38868W        W10594   0.365   3.837  10.700
38869W        W10595  30.978   0.176   1.226
38870W        W10596  11.571  44.427   3.730
38871W        W10597  35.611  28.409  11.642
38872W        W10598   6.691  31.167   0.950
38873W        W10599  13.575  42.469  13.419
38874W        W10600  37.814  43.964  14.850
38875W        W10601  44.231  12.078   3.462
38876W        W10602  33.518  37.553  10.766
38877W        W10603  17.277  31.532  12.530
38878W        W10604  32.090  38.938   5.036
38879W        W10605  31.776  12.550   1.261
38880W        W10606  15.256  26.758   0.470
38881W        W10607   8.288   7.245   4.770
38882W        W10608  31.990  32.702  12.991
38883W        W10609  29.060  18.254   2.844
38884W        W10610  43.751  10.876   1.289
38885W        W10611  11.690   1.272   3.275
38886W        W10612  16.551  14.227   4.606
38887W        W10613  28.286   4.765  11.087
38888W        W10614  36.775   0.768  11.606
38889W        W10615  32.708  21.976   2.096
38890W        W10616   1.520  16.350  12.379
38891W        W10617  34.180   7.186  13.894
38892W        W10618  35.954   6.645  14.515
38893W        W10619  35.648  16.289  14.606
38894W        W10620   0.630  42.002   3.160
38895W        W10621  34.348   5.832  11.627
38896W        W10622  24.913  21.627  11.637
38897W        W10623  25.337  42.533   2.447
38898W        W10624   2.648  42.075  10.680
38899W        W10625  38.773  18.826   4.194
38900W        W10626   5.234  30.709   2.192
38901W        W10627  12.585  35.354  10.763
38902W        W10628  22.624  12.186   0.102
38903W        W10629   2.273  18.337   2.362
38904W        W10630  44.961  35.502  14.875
38905W        W10631  11.269   4.982   2.306
38906W        W10632  15.856  33.040   4.651
38907W        W10633   8.505  40.079  11.618
38908W        W10634   5.228  10.695  14.838
38909W        W10635  22.708  36.095  13.011
38910W        W10636  42.078  21.016   4.558
38911W        W10637   8.479  21.499   0.256
38912W        W10638  29.536  25.044  12.606
38913W        W10639  36.913  35.084   1.704
38914W        W10640  35.318   4.998   3.365
38915W        W10641  13.353  17.443  13.945
38916W        W10642  15.026  22.185   4.251
38917W        W10643   2.266  36.433  12.909
38918W        W10644  30.404  18.787   2.908
38919W        W10645  23.957  32.106   1.277
38920W        W10646   0.772  11.213   0.911
38921W        W10647   3.215  20.538   3.686
38922W        W10648  34.997   5.805   0.859
38923W        W10649   9.336  21.164  14.812
38924W        W10650   0.473  29.127  12.330
38925W        W10651  42.712  18.291   2.842
38926W        W10652  43.002  16.792   1.931
38927W        W10653  28.578  31.490   0.652
38928W        W10654  41.389  34.917  10.362
38929W        W10655   6.926  24.591   2.786
38930W        W10656   8.424  34.380   1.268
38931W        W10657  44.815  38.898  13.469
38932W        W10658  25.919  41.565  10.667
38933W        W10659  10.187  32.136   0.552
38934W        W10660  37.800  20.464   2.830
38935W        W10661   0.278  10.751  12.911
38936W        W10662  11.701  13.494  14.363
38937W        W10663  27.907  41.412  11.669
38938W        W10664  31.052  16.646  14.055
38939W        W10665  44.143  20.360   5.392
38940W        W10666  16.180  18.521   1.704
38941W        W10667  13.642   1.396   1.975
38942W        W10668  14.535  11.700  13.426
38943W        W10669  30.613   8.050  14.751
38944W        W10670  18.019  32.460  13.777
38945W        W10671  35.564  43.468   3.757
38946W        W10672   8.606  30.209  14.741
38947W        W10673   2.583   9.911   1.217
38948W        W10674   6.131   2.802   2.711
38949W        W10675  35.368  30.016   4.160
38950W        W10676  19.742   3.758   4.171
38951W        W10677  17.221  24.725   3.116
38952W        W10678   1.389  36.652   4.062
38953W        W10679  17.333  30.059  12.438
38954W        W10680   9.429  39.877   4.349
38955W        W10681  25.723   0.234  14.780
38956W        W10682   3.457  36.006  14.385
38957W        W10683  34.998  13.316  12.950
38958W        W10684  14.695  29.334  14.533
38959W        W10685   8.806  18.282  11.553
38960W        W10686  36.614  21.954   4.156
38961W        W10687  16.617  43.843   3.131
38962W        W10688  42.503  11.708  14.030
38963W        W10689   0.489  12.669  11.449
38964W        W10690  37.498  14.553  11.655
38965W        W10691  19.817  29.459   4.137
38966W        W10692  11.872  11.879   1.382
38967W        W10693  23.614  12.865   4.116
38968W        W10694   6.270  25.116   0.390
38969W        W10695  44.737   8.188   2.658
38970W        W10696  15.543  21.822   1.850
38971W        W10697   0.296  40.835  10.676
38972W        W10698  44.961   4.666   0.383
38973W        W10699  37.042  40.557  12.416
38974W        W10700  18.728  35.515  13.539
38975W        W10701  37.986  29.662   0.514
38976W        W10702  19.925  33.950   4.530
38977W        W10703  38.844  15.027  11.479
38978W        W10704  15.484  33.971  12.608
38979W        W10705   8.992  25.492  13.511
38980W        W10706  11.778  10.770  13.875
38981W        W10707  33.995  15.101   4.582
38982W        W10708   3.940   4.852   2.385
38983W        W10709  39.234  28.147  12.958
38984W        W10710  23.912  34.528  14.414
38985W        W10711  27.996  37.292   0.364
38986W        W10712  33.973  13.925   1.909
38987W        W10713  27.731   0.400  13.061
38988W        W10714  10.857  10.281  12.631
38989W        W10715  24.453  18.215  13.042
38990W        W10716  33.042  18.796   3.856
38991W        W10717  30.190   0.936   2.366
38992W        W10718  16.816  30.408  11.352
38993W        W10719  12.837  10.740  10.439
38994W        W10720  41.787   7.135  11.714
38995W        W10721   9.865   3.348   0.393
38996W        W10722  38.920  25.144  14.333
38997W        W10723  33.771  28.131  14.904
38998W        W10724  43.338   2.053   1.824
38999W        W10725  14.053  17.719  11.032
39000W        W10726  10.463   8.311  13.560
39001W        W10727   6.781  14.737  13.967
39002W        W10728  15.121  23.310  14.211
39003W        W10729  29.581  23.346   4.987
39004W        W10730  13.225  42.963   2.766
39005W        W10731  20.642  38.041   3.334
39006W        W10732  22.618  10.195  10.511
39007W        W10733  28.061   9.874   2.372
39008W        W10734  12.097  32.057  13.619
39009W        W10735  12.252  12.685   3.644
39010W        W10736   9.169  42.893   1.948
39011W        W10737   6.192  37.502  12.804
39012W        W10738   3.498  24.065  14.956
39013W        W10739   2.144  25.664   3.158
39014W        W10740  31.224  37.259  14.387
39015W        W10741  28.640   8.562   3.813
39016W        W10742  23.159  18.362  14.975
39017W        W10743  11.170  14.151  14.557
39018W        W10744  26.085  27.573   3.887
39019W        W10745  26.939  14.099   1.736
39020W        W10746   1.385  39.063   1.869
39021W        W10747  15.123  20.557   1.729
39022W        W10748  18.063  26.687  14.539
39023W        W10749  16.181  11.888  11.295
39024W        W10750  11.864  37.650  14.788
39025W        W10751  36.432  11.941   9.764
39026W        W10752  15.574   0.699  11.585
39027W        W10753  28.466   6.848   0.456
39028W        W10754  39.799   1.022   3.607
39029W        W10755  29.265  41.005  12.523
39030W        W10756  13.692  24.607   4.070
39031W        W10757  40.009  28.577  11.552
39032W        W10758   7.800  10.273  13.859
39033W        W10759  10.695  24.642  14.967
39034W        W10760  35.423  17.949   4.198
39035W        W10761  42.922  38.914  12.452
39036W        W10762  28.676   8.766  10.435
39037W        W10763  30.939  11.862   0.411
39038W        W10764  25.178   8.951  12.826
39039W        W10765  40.992   2.910  11.150
39040W        W10766   6.874  36.074   0.333
39041W        W10767  37.530  42.847   4.501
39042W        W10768  17.831  25.876   1.306
39043W        W10769  29.644  32.689  11.025
39044W        W10770   2.376  13.986  14.260
39045W        W10771   7.312  39.057   1.552
39046W        W10772  38.081   2.376   4.717
39047W        W10773  41.386  14.720  12.848
39048W        W10774  31.002  20.615   3.217
39049W        W10775  35.353  43.873  11.049
39050W        W10776  33.529   4.460  11.947
39051W        W10777  16.606  24.886  12.573
39052W        W10778  13.148  10.145  12.062
39053W        W10779  14.850  24.122   3.741
39054W        W10780  29.813  11.235  11.304
39055W        W10781  15.112  43.188   4.146
39056W        W10782  29.453  23.023  11.557
39057W        W10783   0.425  28.618   4.036
39058W        W10784  41.253  42.376   2.195
39059W        W10785  12.157  34.379  11.641
39060W        W10786  19.175  21.641   2.399
39061W        W10787  22.225  34.640  10.610
39062W        W10788  44.254  30.345  14.775
39063W        W10789  35.077  15.340  12.000
39064W        W10790  37.383   2.785   4.291
39065W        W10791  12.979  37.580  11.503
39066W        W10792  32.444  39.211   0.257
39067W        W10793  34.188  18.648   0.461
39068W        W10794  15.888  19.728  12.739
39069W        W10795  43.860  28.203   0.224
39070W        W10796   1.862  13.653  12.675
39071W        W10797  44.621  36.040   4.508
39072W        W10798  35.878  10.111  11.628
39073W        W10799  21.995  13.865  11.938
39074W        W10800  24.992  35.145   4.680
39075W        W10801  26.303  17.524  13.056
39076W        W10802  33.896  22.566   4.259
39077W        W10803  19.112  30.854  12.574
39078W        W10804  28.132  30.374   5.105
39079W        W10805  43.449  21.571   1.562
39080W        W10806  36.460  32.464  11.641
39081W        W10807  16.587   1.555   2.773
39082W        W10808   7.129  33.414  10.722
39083W        W10809  24.299  40.907  14.963
39084W        W10810   2.905  31.454  13.579
39085W        W10811  23.253   5.953   1.368
39086W        W10812  30.417  35.469  12.814
39087W        W10813  42.084   0.986   4.135
39088W        W10814  31.851  29.453   1.402
39089W        W10815  41.232  21.313   4.988
39090W        W10816  35.624   2.231  13.491
39091W        W10817  26.386  39.819   3.742
39092W        W10818   8.009   9.824   0.396
39093W        W10819  35.120  39.343   4.133
39094W        W10820  41.286  10.275  14.861
39095W        W10821  15.546  20.102  12.652
39096W        W10822  39.320  28.401  12.512
39097W        W10823  38.065  25.997  12.987
39098W        W10824  42.819  14.738  14.078
39099W        W10825  26.408   6.194  11.165
39100W        W10826  24.521  25.940  11.200
39101W        W10827  14.619  38.214  13.943
39102W        W10828  25.025  30.139   2.679
39103W        W10829  23.170  13.984  10.165
39104W        W10830  16.097  31.678   2.844
39105W        W10831  39.755   2.709  12.983
39106W        W10832  30.483  20.525   2.106
39107W        W10833  10.903  25.111   5.339
39108W        W10834   0.211  12.681  14.291
39109W        W10835   7.273  14.143  10.441
39110W        W10836  12.374  19.667  14.753
39111W        W10837  34.891  22.744   1.026
39112W        W10838  30.951  23.084   0.126
39113W        W10839  28.363  12.143   2.819
39114W        W10840  41.909  18.259  14.227
39115W        W10841   8.681  25.125  14.440
39116W        W10842  24.095  10.803  13.463
39117W        W10843   7.330  38.178  13.435
39118W        W10844  13.061  29.285  12.302
39119W        W10845  21.057  43.092  11.932
39120W        W10846  15.011  35.796  11.127
39121W        W10847  12.148  26.031  14.394
39122W        W10848  31.203  28.350  10.344
39123W        W10849   4.265   1.404  12.984
39124W        W10850  43.519  33.809   4.108
39125W        W10851  23.045  18.563  14.007
39126W        W10852   0.715  22.131   2.481
39127W        W10853  18.660  20.034   4.419
39128W        W10854  31.334  31.190   4.106
39129W        W10855  33.469  31.601   2.714
39130W        W10856  18.985  24.620   5.089
39131W        W10857  15.634  11.320  10.710
39132W        W10858   4.004   5.332   0.378
39133W        W10859  37.382  12.751   3.262
39134W        W10860   4.401  41.051  10.740
39135W        W10861  26.477  42.853   4.199
39136W        W10862   7.106  35.915   3.214
39137W        W10863  44.574  40.162   3.829
39138W        W10864   8.978  34.087  10.276
39139W        W10865  32.408  26.097  12.962
39140W        W10866   7.183  40.547  13.873
39141W        W10867   1.710  41.534   2.637
39142W        W10868  31.675  18.187   4.155
39143W        W10869  38.829  24.165   1.877
39144W        W10870  31.869  25.452   0.335
39145W        W10871  17.113  31.250  11.065
39146W        W10872  22.674   2.429   3.122
39147W        W10873  24.478  33.633  12.922
39148W        W10874  16.313   4.915  11.790
39149W        W10875  36.128  40.453  13.429
39150W        W10876  19.058  28.511   0.600
39151W        W10877  12.573  30.682   1.232
39152W        W10878   6.049  34.413   4.458
39153W        W10879  40.910  12.672   2.932
39154W        W10880  20.324  32.123   4.611
39155W        W10881  21.709   7.701  11.676
39156W        W10882  18.330  40.027   2.803
39157W        W10883   0.857  19.564   0.737
39158W        W10884  24.675  24.197   2.451
39159W        W10885  10.727  27.877   0.004
39160W        W10886  29.676  16.283  13.042
39161W        W10887  20.680  37.839  13.142
39162W        W10888  24.652   8.183  14.351
39163W        W10889  39.883   6.255  11.188
39164W        W10890  24.780  41.422   3.719
39165W        W10891   8.276  28.554   0.911
39166W        W10892   5.130  19.955  11.110
39167W        W10893   8.208   2.050  11.590
39168W        W10894  22.845  29.671  13.377
39169W        W10895  41.873  29.039  11.455
39170W        W10896   7.644   4.287  10.049
39171W        W10897  21.768  29.902  14.020
39172W        W10898  19.990  12.334  11.167
39173W        W10899  21.320  25.996   2.267
39174W        W10900  32.020   9.162   4.259
39175W        W10901   2.003   6.188   2.354
39176W        W10902  42.049  36.327   0.291
39177W        W10903  16.646  12.359   0.472
39178W        W10904  15.198  34.166   3.121
39179W        W10905  29.098  26.469   3.165
39180W        W10906  20.762  34.780  11.146
39181W        W10907  38.907  42.963   3.326
39182W        W10908  39.359   0.101  12.518
39183W        W10909  43.423  17.067  10.712
39184W        W10910  40.724   8.135  11.203
39185W        W10911  27.954  19.934  13.245
39186W        W10912  27.153  13.976  11.966
39187W        W10913   5.653  20.654  11.346
39188W        W10914  27.634  44.521   0.724
39189W        W10915  36.147  29.049  13.588
39190W        W10916   6.009   1.269   3.644
39191W        W10917  24.628   3.813   4.272
39192W        W10918  44.453   8.805  13.990
39193W        W10919   8.964  19.610  13.867
39194W        W10920  42.866  30.673   4.861
39195W        W10921  40.853  37.063  11.912
39196W        W10922  12.868  33.943  11.995
39197W        W10923  27.853   5.882   2.726
39198W        W10924  24.617  19.726  14.341
39199W        W10925   2.242  28.525   4.489
39200W        W10926  35.048  36.395   2.375
39201W        W10927  25.142  44.957   4.180
39202W        W10928  44.030  20.594   0.291
39203W        W10929  35.659  23.635  12.483
39204W        W10930  13.687  30.154  14.495
39205W        W10931  42.992  20.658   2.350
39206W        W10932  32.589  42.615   5.027
39207W        W10933  18.527  17.324   0.475
39208W        W10934   7.308  28.096  11.946
39209W        W10935  25.193  13.515  12.811
39210W        W10936  10.597   7.823  11.030
39211W        W10937  28.186  12.485   4.045
39212W        W10938   4.442  44.299  12.566
39213W        W10939   4.385  30.007  14.565
39214W        W10940  36.098   6.918  13.395
39215W        W10941  40.098  44.844  11.348
39216W        W10942  13.188   4.613   3.055
39217W        W10943  24.473  39.802  14.847
39218W        W10944  41.584  34.067   2.150
39219W        W10945   0.063  32.845  14.438
39220W        W10946   2.290  23.173   4.232
39221W        W10947  33.249  15.862  11.546
39222W        W10948   8.435  24.964  10.171
39223W        W10949  43.967  11.616  13.968
39224W        W10950   0.964  43.874   4.713
39225W        W10951   8.683   8.171   1.881
39226W        W10952  26.869  44.480   4.185
39227W        W10953  41.335  38.624  13.327
39228W        W10954  26.505  26.838  13.544
39229W        W10955   4.220  38.005  10.633
39230W        W10956   5.654  26.768  11.281
39231W        W10957  24.694  10.601  14.278
39232W        W10958  44.368   2.218  14.573
39233W        W10959  23.203   8.798   0.834
39234W        W10960   0.083  30.967   4.021
39235W        W10961   8.341   2.988   4.110
39236W        W10962   2.755  25.118   4.021
39237W        W10963  14.987  30.724  14.505
39238W        W10964  22.593   9.625  10.243
39239W        W10965  11.313   9.570  10.761
39240W        W10966  41.547  16.373  12.441
39241W        W10967   6.764  10.051   1.693
39242W        W10968   8.893   8.786  13.928
39243W        W10969  24.166  15.199   4.324
39244W        W10970   7.432  31.493  12.023
39245W        W10971  20.337  20.479  11.284
39246W        W10972  17.160  41.258  14.320
39247W        W10973  42.938   2.961  13.377
39248W        W10974  38.872  25.358  11.587
39249W        W10975  17.017  34.579  12.402
39250W        W10976  26.538  29.783   4.989
39251W        W10977  35.518   5.405  14.430
39252W        W10978   3.704  36.117  13.806
39253W        W10979  41.415   0.000   1.280
39254W        W10980  21.137  12.832   1.948
39255W        W10981  17.558   5.923   0.404
39256W        W10982   9.873   2.334   4.322
39257W        W10983  13.250  40.528   4.175
39258W        W10984  39.528  14.090  12.414
39259W        W10985  15.851  29.219   1.828
39260W        W10986   1.647  44.857  11.310
39261W        W10987  43.616  16.845  14.959
39262W        W10988  22.636  40.722  12.972
39263W        W10989  35.575  39.791  12.982
39264W        W10990   6.504  44.878   0.443
39265W        W10991  25.253   2.565   2.656
39266W        W10992  43.610  41.186  11.878
39267W        W10993  27.669  30.052  13.766
39268W        W10994  21.616  16.327   0.334
39269W        W10995  41.978   2.175   4.737
39270W        W10996  27.054  11.304  14.500
39271W        W10997   3.960   3.622   3.757
39272W        W10998  19.175  40.841  13.062
39273W        W10999   2.660  27.006  13.410
39274W        W11000  35.774  17.526   1.467
39275W        W11001  11.360   5.742   0.981
39276W        W11002  41.022  32.502  13.247
39277W        W11003  15.498   5.144  13.759
39278W        W11004  42.426  32.522   4.106
39279W        W11005  12.078   9.946  11.106
39280W        W11006  28.220  21.961   1.841
39281W        W11007  31.204  42.156  14.415
39282W        W11008   6.236   2.701   4.644
39283W        W11009  11.733  41.091  13.345
39284W        W11010  28.992   6.179  11.366
39285W        W11011  18.553   7.260   0.933
39286W        W11012  21.092  14.781   3.281
39287W        W11013  13.861  18.764   3.295
39288W        W11014  10.650  38.809   3.640
39289W        W11015  31.885   4.832   4.518
39290W        W11016  44.945  43.303   2.264
39291W        W11017  44.048  35.575   0.509
39292W        W11018  21.003  36.088  12.112
39293W        W11019   5.361  30.454  13.763
39294W        W11020   1.322  13.585  10.348
39295W        W11021  24.477  27.616  11.954
39296W        W11022  32.939  23.678   2.461
39297W        W11023   0.436  35.174  12.749
39298W        W11024  36.779  31.773  14.913
39299W        W11025   2.831  15.377   1.246
39300W        W11026   8.239   3.805   2.323
39301W        W11027  21.039  37.927   3.700
39302W        W11028  15.100   1.252   0.280
39303W        W11029  11.125   1.804   4.750
39304W        W11030  40.970  13.377  14.327
39305W        W11031  44.427  16.078   2.419
39306W        W11032   6.207  20.052   3.315
39307W        W11033  35.486  25.562   2.164
39308W        W11034  10.597  38.063   2.379
39309W        W11035   2.395  44.538  12.912
39310W        W11036  12.605  35.904   3.811
39311W        W11037  29.363  29.961   4.803
39312W        W11038  36.752  37.256  10.359
39313W        W11039   1.636  38.442   2.642
39314W        W11040   3.226  35.198  13.922
39315W        W11041  38.663  19.272   3.243
39316W        W11042  22.813  37.078   4.195
39317W        W11043  18.335   8.106  12.466
39318W        W11044  32.635   7.157   0.247
39319W        W11045   4.342  29.482  14.419
39320W        W11046   7.755  32.928   0.925
39321W        W11047  44.510  20.021   1.703
39322W        W11048   8.644  16.574  11.150
39323W        W11049  42.355   4.807   2.456
39324W        W11050  21.499   5.780   3.580
39325W        W11051   9.110  30.537  12.490
39326W        W11052   0.788  25.076  12.882
39327W        W11053  25.896  38.970  13.820
39328W        W11054   8.291  16.343   4.611
39329W        W11055  37.262  14.335  13.912
39330W        W11056  28.986   0.204  11.835
39331W        W11057  21.326  14.120   4.075
39332W        W11058  21.280  43.798   1.687
39333W        W11059   1.673  28.652  11.597
39334W        W11060  39.031  39.487   1.752
39335W        W11061   1.796   4.289  14.884
39336W        W11062   4.699  43.564   4.484
39337W        W11063  16.039  26.093  13.905
39338W        W11064  32.316  33.556   2.788
39339W        W11065   5.839  17.147  14.845
39340W        W11066  12.646   1.482   3.240
39341W        W11067  20.217  37.213   0.704
39342W        W11068  31.030   4.634   3.230
39343W        W11069  30.594   2.651   0.908
39344W        W11070  13.603  33.942   1.413
39345W        W11071  11.602   5.870   4.553
39346W        W11072  40.788  34.019   1.971
39347W        W11073  40.302   4.478   3.354
39348W        W11074  41.791  29.155   0.456
39349W        W11075   8.857  12.281  14.510
39350W        W11076  44.917  23.687   0.205
39351W        W11077  24.609  14.491  13.486
39352W        W11078   2.066  43.857  11.554
39353W        W11079  19.045  36.297  12.932
39354W        W11080  43.666  23.005   4.618
39355W        W11081  23.030  22.685  10.562
39356W        W11082  14.619  25.199   3.185
39357W        W11083   7.906  23.027  13.503
39358W        W11084  30.617  23.738   5.280
39359W        W11085   9.771  28.417   3.807
39360W        W11086   3.713  43.441  12.033
39361W        W11087   5.628  32.124   2.979
39362W        W11088  40.599  17.296   4.683
39363W        W11089  16.750   8.444   3.247
39364W        W11090  38.483   5.604  11.162
39365W        W11091  30.462  12.033  11.146
39366W        W11092  27.197   3.369   3.098
39367W        W11093  21.997  21.747  13.576
39368W        W11094   0.071  12.553   4.324
39369W        W11095  39.026   2.468   2.524
39370W        W11096  23.844  28.977   4.127
39371W        W11097  13.787  40.927   0.287
39372W        W11098  40.325  20.260   1.919
39373W        W11099  36.402   6.393   3.581
39374W        W11100  27.206  22.358  10.789
39375W        W11101  25.659  38.568   0.971
39376W        W11102   1.418  26.430   1.592
39377W        W11103  34.502   5.526   1.494
39378W        W11104  39.352   4.214  12.453
39379W        W11105  43.544  23.098   4.104
39380W        W11106  32.401  35.402   5.013
39381W        W11107   4.210   0.231   0.227
39382W        W11108  18.439  24.042  14.325
39383W        W11109  20.561  11.259  12.912
39384W        W11110  32.878  40.457   3.864
39385W        W11111  34.259   7.346  14.392
39386W        W11112  36.547  26.045   1.596
39387W        W11113  10.640   7.091   1.254
39388W        W11114   8.961  41.040   0.660
39389W        W11115  37.555  21.991  13.833
39390W        W11116  19.970  34.580  14.592
39391W        W11117  14.143  40.557   2.252
39392W        W11118  14.649  31.947   4.090
39393W        W11119  33.335   6.747  12.604
39394W        W11120  22.457  34.574   2.585
39395W        W11121  18.759  42.843   1.703
39396W        W11122  42.333   0.438   4.053
39397W        W11123  20.492  12.155  13.364
39398W        W11124  22.558  32.546  11.927
39399W        W11125  41.342  44.768   2.224
39400W        W11126  31.127  35.963   3.142
39401W        W11127  20.792  35.971  11.649
39402W        W11128  22.045  10.188  11.745
39403W        W11129  36.413  25.130   0.565
39404W        W11130  29.681  43.148   5.032
39405W        W11131  30.974   9.948  11.543
39406W        W11132  39.776  33.548   3.097
39407W        W11133  14.071  36.115  11.934
39408W        W11134  32.830   5.310   3.201
39409W        W11135  39.882  31.377  10.764
39410W        W11136  12.501  33.358  13.289
39411W        W11137   0.830  32.918  11.511
39412W        W11138  26.724  41.498   2.008
39413W        W11139  36.613  24.777   2.788
39414W        W11140  35.385  17.660  14.126
39415W        W11141  18.966  27.222   1.873
39416W        W11142  36.061  12.714  14.102
39417W        W11143   3.826  14.976   5.502
39418W        W11144  21.181  18.558   1.569
39419W        W11145  32.081  18.575   3.160
39420W        W11146  28.081  35.412  10.600
39421W        W11147  24.745  21.267   3.783
39422W        W11148  27.827  24.553   4.985
39423W        W11149  17.204  16.601  10.770
39424W        W11150  13.794  13.849   4.620
39425W        W11151  25.285  29.711   2.814
39426W        W11152  21.165  17.650   4.471
39427W        W11153  41.579   0.475  14.520
39428W        W11154   1.157  18.356  14.823
39429W        W11155  35.284  43.021   2.886
39430W        W11156  24.486  18.039  13.528
39431W        W11157  30.589  13.501   3.692
39432W        W11158   4.897  41.883  10.097
39433W        W11159  41.479  20.056  12.437
39434W        W11160   8.298  14.375   1.930
39435W        W11161  40.476  36.652   4.245
39436W        W11162  38.788  10.355  12.182
39437W        W11163   5.357   2.950   4.186
39438W        W11164  10.180   2.859  14.239
39439W        W11165   4.706   5.948  10.335
39440W        W11166  29.520  27.727   3.708
39441W        W11167  33.321  35.052   5.253
39442W        W11168   3.289  25.558   5.052
39443W        W11169  33.675  33.281   4.235
39444W        W11170   8.660   7.399  13.593
39445W        W11171  21.224   5.642  14.364
39446W        W11172  28.731   6.829   2.373
39447W        W11173  40.540  32.223  12.069
39448W        W11174  40.761  10.172  12.077
39449W        W11175  26.971  28.009  12.430
39450W        W11176   8.127  35.022   2.902
39451W        W11177  33.706   2.422   3.250
39452W        W11178  40.111  41.516  12.531
39453W        W11179  12.108  25.611   0.686
39454W        W11180   3.307  24.095  14.017
39455W        W11181  22.126  13.895   2.289
39456W        W11182   2.329   3.964  11.131
39457W        W11183   0.342  41.688   3.443
39458W        W11184  34.889  43.747  14.504
39459W        W11185  25.298  43.787   4.564
39460W        W11186  25.184  29.917  14.844
39461W        W11187   3.135   5.405   2.136
39462W        W11188  42.443  23.273  14.387
39463W        W11189   3.279  16.645  12.345
39464W        W11190  34.433  16.112   1.397
39465W        W11191  12.061  31.668  10.268
39466W        W11192   2.167  16.208   1.094
39467W        W11193  37.999  19.281  11.125
39468W        W11194  28.646   3.478   3.354
39469W        W11195  33.161  24.015   5.492
39470W        W11196  38.493   1.525   0.496
39471W        W11197  26.207   8.720   4.709
39472W        W11198  36.437   7.955  14.255
39473W        W11199  32.030  37.831  13.906
39474W        W11200  13.049  38.122  14.795
39475W        W11201   0.840  38.394  14.494
39476W        W11202  18.861  35.294   0.999
39477W        W11203  25.576  16.676   0.441
39478W        W11204  44.298  15.593  12.967
39479W        W11205  23.586  15.097  11.932
39480W        W11206   8.299  18.726  10.584
39481W        W11207  38.369  37.867   0.822
39482W        W11208  38.964  21.628  11.513
39483W        W11209   0.498  13.101  11.763
39484W        W11210  34.731  33.206   3.854
39485W        W11211  11.050  41.076  10.811
39486W        W11212  41.940  23.231   4.494
39487W        W11213   1.737  39.011  13.806
39488W        W11214  35.479  10.366  14.098
39489W        W11215  21.449  28.269   4.621
39490W        W11216  13.738  31.430   1.655
39491W        W11217  34.997  32.903   4.209
39492W        W11218  30.706  38.958   2.687
39493W        W11219  42.099  28.051  11.259
39494W        W11220  40.798  14.045   4.131
39495W        W11221  16.152  30.221  11.120
39496W        W11222  31.339  25.662   2.222
39497W        W11223   8.369  33.396  10.471
39498W        W11224  20.257  35.998   5.126
39499W        W11225  39.014  10.766  10.576
39500W        W11226  32.871  41.487   4.517
39501W        W11227  11.187   3.837   0.951
39502W        W11228   0.460   7.392   3.927
39503W        W11229  27.738  37.002  11.686
39504W        W11230  17.755  27.602   1.605
39505W        W11231  18.973   2.770   3.740
39506W        W11232   2.052  29.065   0.313
39507W        W11233  21.307   5.131  14.308
39508W        W11234  41.070  19.654   4.908
39509W        W11235   2.811   7.739   4.808
39510W        W11236  37.634  25.088  13.097
39511W        W11237   2.780   7.960   0.018
39512W        W11238  43.089  42.515   3.243
39513W        W11239   4.102  11.450   0.730
39514W        W11240   3.020  28.120   1.966
39515W        W11241  22.977  10.294  13.986
39516W        W11242  18.851  11.551   4.471
39517W        W11243  25.943  15.409   0.391
39518W        W11244  42.423  28.488   3.223
39519W        W11245   3.418  36.388  12.586
39520W        W11246   1.797   8.123   2.192
39521W        W11247  21.393  25.961   3.247
39522W        W11248   1.688   4.720   0.743
39523W        W11249  30.166  16.168   1.158
39524W        W11250  16.805  12.130  14.975
39525W        W11251  32.603   4.448  13.325
39526W        W11252   0.297  31.948  14.949
39527W        W11253  24.478  26.228   0.472
39528W        W11254  10.415  25.452   0.487
39529W        W11255   7.363  16.075  11.632
39530W        W11256   5.126  41.768   4.460
39531W        W11257  40.479  28.453   2.421
39532W        W11258  26.276  13.475   3.137
39533W        W11259   6.487  35.006  12.122
39534W        W11260  31.116  33.103  11.959
39535W        W11261  21.272  14.002  13.399
39536W        W11262  34.894  39.885  14.874
39537W        W11263  12.528  33.911   2.212
39538W        W11264  33.475  43.996  12.550
39539W        W11265   2.344  28.093  11.531
39540W        W11266  14.178  12.827   1.138
39541W        W11267   5.606  24.749  12.951
39542W        W11268  15.646  39.278   3.642
39543W        W11269  18.217  44.271   0.757
39544W        W11270   5.955  36.797   1.791
39545W        W11271  41.585  39.875  12.162
39546W        W11272  22.068  18.651   4.121
39547W        W11273  10.367  39.275   3.649
39548W        W11274   0.630  24.121   5.106
39549W        W11275  44.514  42.085  11.134
39550W        W11276  24.154  33.008   0.292
39551W        W11277  24.626   0.339  11.688
39552W        W11278  37.048  26.822  11.126
39553W        W11279   9.300  27.082  14.370
39554W        W11280  34.480  25.986  14.469
39555W        W11281  39.812  14.951  10.750
39556W        W11282  30.870  43.726   3.701
39557W        W11283  42.647  10.312  11.718
39558W        W11284  21.046  21.782  10.735
39559W        W11285   8.796  14.576  13.068
39560W        W11286   9.856  15.209   2.842
39561W        W11287  15.191  36.664  12.650
39562W        W11288   1.335  37.147  11.579
39563W        W11289  15.374   3.496   4.761
39564W        W11290  24.788  30.097  13.887
39565W        W11291  26.611  20.630  13.249
39566W        W11292  38.304  21.084  12.468
39567W        W11293  12.789   6.263   4.898
39568W        W11294  43.271  32.351  13.087
39569W        W11295  38.675   7.856  14.000
39570W        W11296  26.265  12.855  12.127
39571W        W11297  15.185  35.485  13.924
39572W        W11298  12.555  25.735  14.742
39573W        W11299  12.138   4.447   0.019
39574W        W11300  15.206  31.511  10.559
39575W        W11301  15.867  14.351  10.630
39576W        W11302  41.675  37.481  11.120
39577W        W11303  29.653  30.968   0.781
39578W        W11304  33.486  18.833  12.528
39579W        W11305  37.354  11.352  12.938
39580W        W11306  29.933  18.607   0.714
39581W        W11307  11.318   8.332   3.420
39582W        W11308  43.224  21.637  10.544
39583W        W11309  43.155  25.555   2.333
39584W        W11310  18.283  18.615  13.642
39585W        W11311  16.057   3.212  10.743
39586W        W11312  23.113  15.901  13.408
39587W        W11313   3.205  11.074  12.606
39588W        W11314  30.074  33.714  10.730
39589W        W11315   8.107  30.133  11.925
39590W        W11316  22.443  41.348  14.513
39591W        W11317   9.088  26.142  13.347
39592W        W11318   7.416  39.384   1.981
39593W        W11319  26.497  44.102  10.624
39594W        W11320  10.634  11.299  13.650
39595W        W11321   8.803  14.731  10.951
39596W        W11322   6.339  41.970   2.772
39597W        W11323  21.146  11.844   0.892
39598W        W11324   8.778   6.521  13.813
39599W        W11325   0.663  12.294  12.599
39600W        W11326  25.898  32.070  10.611
39601W        W11327   3.383   8.187   1.400
39602W        W11328  35.426  35.595  14.361
39603W        W11329  15.317  13.848  14.437
39604W        W11330  23.049  25.479   0.206
39605W        W11331  35.282  37.485  13.956
39606W        W11332   9.648  24.168  14.539
39607W        W11333  17.343  12.672   4.977
39608W        W11334  20.066  29.423   1.950
39609W        W11335  32.559  16.757  10.330
39610W        W11336  36.036  18.463  14.171
39611W        W11337  11.034  20.338  13.415
39612W        W11338  44.431  40.572   0.829
39613W        W11339   3.432   4.298   4.462
39614W        W11340  13.807   3.274   3.630
39615W        W11341  21.682  16.621  10.727
39616W        W11342  10.547  40.371   4.798
39617W        W11343  18.189   7.794   1.500
39618W        W11344  35.900  30.085  14.655
39619W        W11345   4.531  25.111  12.407
39620W        W11346  27.045  24.784  11.243
39621W        W11347  38.411  22.496   0.847
39622W        W11348  22.087  27.276  14.094
39623W        W11349  40.901   4.239  10.710
39624W        W11350  40.738  19.001   2.069
39625W        W11351  28.521  44.521  10.614
39626W        W11352  24.798   3.761   5.130
39627W        W11353   5.941  20.270  11.560
39628W        W11354  16.384  28.186   3.763
39629W        W11355   0.360  26.459   1.261
39630W        W11356   6.136   6.800  12.396
39631W        W11357   2.505   9.291   4.232
39632W        W11358  31.884  14.156  12.972
39633W        W11359  26.066   3.813   2.341
39634W        W11360  40.311  39.005  14.405
39635W        W11361   2.304  37.457  14.035
39636W        W11362  27.968  21.325  11.545
39637W        W11363  37.594   2.899  13.127
39638W        W11364  13.040  16.212   3.172
39639W        W11365   6.630   1.458  13.425
39640W        W11366  20.476  27.727   3.584
39641W        W11367  28.725  26.075   0.728
39642W        W11368  16.755   7.257  12.014
39643W        W11369   5.828  22.769  13.820
39644W        W11370   0.243   9.860   3.891
39645W        W11371  27.720  10.844  12.909
39646W        W11372  18.612   9.964   1.602
39647W        W11373  27.056  20.117  14.865
39648W        W11374  20.745  27.032  14.712
39649W        W11375  34.552  23.764   0.475
39650W        W11376  41.028  32.164  14.799
39651W        W11377   2.335  30.379   0.957
39652W        W11378  14.876  30.396   2.259
39653W        W11379  43.229  38.257   4.473
39654W        W11380  28.941  14.050   0.231
39655W        W11381   7.822  10.337   2.582
39656W        W11382  38.093  23.297   3.261
39657W        W11383  35.459  20.621   3.775
39658W        W11384   2.918  23.549   3.713
39659W        W11385  36.025  19.013  12.022
39660W        W11386  41.545  35.359  10.633
39661W        W11387  32.448  10.627   1.680
39662W        W11388   6.931  12.818   3.679
39663W        W11389   8.893  40.319  12.402
39664W        W11390  23.647   2.591   4.806
39665W        W11391  28.928  15.300  14.054
39666W        W11392   0.219  19.824  11.389
39667W        W11393  31.879  34.204  13.855
39668W        W11394  13.912  28.178  11.171
39669W        W11395  13.550  32.116  12.384
39670W        W11396   4.732  18.285   4.294
39671W        W11397  20.150  26.589   3.993
39672W        W11398  27.344  36.273  14.228
39673W        W11399   1.506  16.764  11.493
39674W        W11400   1.292   0.741   2.301
39675W        W11401  16.452   7.790   4.545
39676W        W11402  35.249  12.024  13.316
39677W        W11403  13.928  26.400  13.580
39678W        W11404  36.350  17.731  13.563
39679W        W11405  22.496  13.277  12.507
39680W        W11406  34.674  23.487  11.514
39681W        W11407  13.761   2.427  14.179
39682W        W11408  11.267  42.730   2.206
39683W        W11409   3.716  15.951   1.638
39684W        W11410  18.458  12.263   0.557
39685W        W11411  43.402  30.408  13.143
39686W        W11412  34.594  36.955  11.098
39687W        W11413  21.683  34.018   0.050
39688W        W11414   7.368  34.286   5.072
39689W        W11415   6.948  25.476  13.410
39690W        W11416  37.606  24.637   2.660
39691W        W11417   3.474   5.948  14.987
39692W        W11418   8.476  28.650  13.809
39693W        W11419  31.675  11.446  14.303
39694W        W11420  23.237   3.648   1.852
39695W        W11421  33.084  44.782  14.931
39696W        W11422  18.668  41.191   2.779
39697W        W11423  20.917  14.963  10.661
39698W        W11424  25.845   1.281  10.503
39699W        W11425   1.901  34.493  14.063
39700W        W11426   4.221   5.209   3.487
39701W        W11427  41.510   1.252  14.900
39702W        W11428  25.845  25.794  11.167
39703W        W11429  27.593   3.383  10.685
39704W        W11430  24.099  42.392  10.710
39705W        W11431  27.388  39.978   1.212
39706W        W11432   4.402  38.110   2.174
39707W        W11433  15.696   4.988   0.559
39708W        W11434  44.082  43.327  12.191
39709W        W11435  21.634   5.923  10.732
39710W        W11436   9.301  32.604  12.460
39711W        W11437  31.003   7.109  11.072
39712W        W11438  33.718  38.842   5.146
39713W        W11439   8.871  37.910   0.825
39714W        W11440  24.444  21.189   3.341
39715W        W11441  41.342  16.281   4.807
39716W        W11442  28.819  16.637  11.606
39717W        W11443   4.614  37.865   2.907
39718W        W11444  37.491  14.668   0.946
39719W        W11445  11.721   1.677   0.026
39720W        W11446  23.181  30.528  13.852
39721W        W11447  11.616  38.372   0.839
39722W        W11448  40.309  14.640   3.220
39723W        W11449  30.952   7.225   3.620
39724W        W11450   0.993  18.813   1.744
39725W        W11451  16.571   2.200  14.922
39726W        W11452   9.099   9.215   3.279
39727W        W11453  30.166  32.107  13.340
39728W        W11454   8.884  32.132   0.487
39729W        W11455  10.195  27.252   4.149
39730W        W11456  24.407  35.907   1.488
39731W        W11457  26.276   6.372  13.992
39732W        W11458   8.649   0.514  13.183
39733W        W11459   9.042  29.301   1.959
39734W        W11460   0.930  12.298  10.712
39735W        W11461  41.275  31.106  12.617
39736W        W11462   7.794  11.649  13.342
39737W        W11463  22.681  32.509  14.018
39738W        W11464   2.909  14.160  11.401
39739W        W11465  19.004  23.999   3.384
39740W        W11466  20.181  42.191  13.358
39741W        W11467  20.593  26.114   0.838
39742W        W11468  32.825  37.822   0.379
39743W        W11469  21.513   3.004  14.118
39744W        W11470  32.124  13.212  14.371
39745W        W11471   1.847   0.404  14.852
39746W        W11472   8.301  23.506  13.415
39747W        W11473  11.754   7.777   1.827
39748W        W11474   5.556  20.054  13.008
39749W        W11475   3.922  21.551   2.727
39750W        W11476  30.446   5.964   4.310
39751W        W11477   0.846   5.799   1.453
39752W        W11478  43.556  32.484  11.625
39753W        W11479  41.953   8.313   4.170
39754W        W11480  10.633   2.187  14.966
39755W        W11481   4.812  10.914   1.812
39756W        W11482  25.466  14.225   1.954
39757W        W11483  15.133   2.341   4.950
39758W        W11484  39.253  22.649  12.222
39759W        W11485  16.817   4.786  14.570
39760W        W11486   7.910  12.799   4.675
39761W        W11487  10.919  24.111   2.009
39762W        W11488   5.641  21.773   3.315
39763W        W11489  16.884   8.563  11.693
39764W        W11490  39.499  40.113   0.400
39765W        W11491  10.307  17.126   0.272
39766W        W11492   0.301  36.792  10.713
39767W        W11493  32.113   0.206  11.523
39768W        W11494  35.203  26.556   1.792
39769W        W11495  27.892  11.622  11.977
39770W        W11496   3.837  41.970   2.413
39771W        W11497  26.151  33.366   1.661
39772W        W11498   2.751  25.636  13.006
39773W        W11499   0.568  32.128  12.112
39774W        W11500   3.692   5.491   1.279
39775W        W11501  43.418  20.408   2.445
39776W        W11502  30.012  12.758  13.838
39777W        W11503  10.707  30.060  14.344
39778W        W11504  17.004  14.401  14.762
39779W        W11505  36.337   2.504   0.969
39780W        W11506   8.553  21.413   4.660
39781W        W11507   5.278   3.344   0.776
39782W        W11508  22.311  36.830  12.149
39783W        W11509  34.910  43.306  10.124
39784W        W11510  35.886  20.221  13.388
39785W        W11511  33.534  32.983  14.711
39786W        W11512  32.523   5.684  11.452
39787W        W11513  20.990  12.665  13.058
39788W        W11514  37.305  39.819   1.901
39789W        W11515  31.762  10.192   0.472
39790W        W11516  25.990   0.750   0.273
39791W        W11517  24.006  30.827   0.803
39792W        W11518  12.288  27.078  12.451
39793W        W11519  35.927   9.639   2.588
39794W        W11520  18.787  19.284   2.995
39795W        W11521  33.910  18.615   3.327
39796W        W11522   3.825   4.157  13.912
39797W        W11523  17.541  31.742   1.558
39798W        W11524   3.177  44.668  11.598
39799W        W11525  15.747  10.700  11.500
39800W        W11526  21.118   5.185   1.508
39801W        W11527  27.741   3.434   3.289
39802W        W11528   5.492  20.777  12.556
39803W        W11529   2.942  26.028  13.656
39804W        W11530   8.737  44.536  12.151
39805W        W11531   5.228  38.819  11.334
39806W        W11532  44.028  39.709   0.808
39807W        W11533  37.232  44.314   2.665
39808W        W11534   5.253   2.498  10.603
39809W        W11535  24.108  11.703  14.567
39810W        W11536  35.386  37.819   0.416
39811W        W11537   4.433  32.134   4.128
39812W        W11538  32.047  18.155   0.505
39813W        W11539  23.630  25.451   3.855
39814W        W11540  13.207  11.301   4.177
39815W        W11541  22.754  15.126  14.762
39816W        W11542  18.640  34.353   0.835
39817W        W11543  13.554  17.561  13.475
39818W        W11544  31.521  37.964  12.901
39819W        W11545  10.160   5.012  12.733
39820W        W11546   1.365  30.123  13.301
39821W        W11547  14.047  39.483  14.735
39822W        W11548   6.665  34.178  14.807
39823W        W11549  41.842   1.235  10.574
39824W        W11550  17.313  37.911  11.872
39825W        W11551  39.636  26.960   4.180
39826W        W11552  27.759  22.272  11.792
39827W        W11553  43.470  40.622   2.158
39828W        W11554  25.434   9.153   0.839
39829W        W11555  17.786  43.274  14.480
39830W        W11556  18.318  22.699  11.510
39831W        W11557  13.332  23.924   2.095
39832W        W11558  29.344   7.435  12.507
39833W        W11559  10.391  32.328  14.083
39834W        W11560  19.505  32.512  11.103
39835W        W11561  22.322  29.155   0.496
39836W        W11562  19.710  24.882  11.696
39837W        W11563  21.033  18.744   2.337
39838W        W11564   2.933   3.689  13.959
39839W        W11565  19.353  28.112  13.959
39840W        W11566  32.336   6.300  10.637
39841W        W11567  31.868  26.113   1.231
39842W        W11568  21.966  40.034  11.018
39843W        W11569   3.285  28.666  13.784
39844W        W11570  40.309  38.605   3.970
39845W        W11571  14.738  25.231  11.163
39846W        W11572   9.891  36.150   4.071
39847W        W11573   3.501  28.200   4.435
39848W        W11574  33.589  16.292   2.850
39849W        W11575  10.307  10.849   4.126
39850W        W11576   6.948  14.288  14.121
39851W        W11577  19.356  15.393  12.931
39852W        W11578  19.370  22.006  11.124
39853W        W11579  25.993  14.126  12.517
39854W        W11580  17.159  42.220   0.965
39855W        W11581  21.703  35.543   1.469
39856W        W11582   4.335   7.405  10.541
39857W        W11583   1.416   5.621  14.851
39858W        W11584  37.482  13.710   3.636
39859W        W11585  26.102  12.348   0.335
39860W        W11586  18.968   6.871  12.955
39861W        W11587  38.382   0.503  12.094
39862W        W11588   9.011  32.823   1.894
39863W        W11589  23.514   6.176  11.025
39864W        W11590  14.633  26.624   4.504
39865W        W11591  43.080  36.435   4.594
39866W        W11592   5.011   6.178  12.558
39867W        W11593   5.737  38.003   0.127
39868W        W11594  10.839  23.712  14.512
39869W        W11595  15.589   4.699   2.178
39870W        W11596  12.212  40.907  13.287
39871W        W11597  36.771  19.704   1.823
39872W        W11598   2.724  10.268   2.761
39873W        W11599  35.232  18.400   0.699
39874W        W11600  40.747  21.599  11.259
39875W        W11601  30.252  12.869   2.221
39876W        W11602   2.362   6.346   0.196
39877W        W11603  26.906  23.133   3.260
39878W        W11604  42.006  10.689   0.397
39879W        W11605   4.083  24.438   0.685
39880W        W11606  29.639  32.024  12.933
39881W        W11607  38.491  20.586  13.322
39882W        W11608  23.791   6.491  13.842
39883W        W11609  22.956  15.193  11.538
39884W        W11610  16.218   7.415  13.083
39885W        W11611   3.832  11.267   1.849
39886W        W11612  26.750   3.492  10.770
39887W        W11613  19.046  40.045  13.959
39888W        W11614  24.729  26.066   3.121
39889W        W11615  44.834  10.171   2.497
39890W        W11616   3.223  12.539   0.753
39891W        W11617  23.332  36.410  11.228
39892W        W11618  11.941  10.356   4.904
39893W        W11619  14.617  34.724  12.193
39894W        W11620   1.474  28.717   2.400
39895W        W11621   1.256  42.895  13.571
39896W        W11622  16.819  25.906  10.731
39897W        W11623  31.179  22.285  11.218
39898W        W11624  16.627  18.760   0.392
39899W        W11625  24.120  36.610  13.775
39900W        W11626  43.995  24.246  13.435
39901W        W11627  12.173  16.223  10.705
39902W        W11628   1.474  19.525  13.323
39903W        W11629   3.680  43.914  11.278
39904W        W11630  14.757  15.647  13.037
39905W        W11631  33.643  11.370   0.831
39906W        W11632  31.232  21.139  11.648
39907W        W11633  41.025  20.073  12.177
39908W        W11634  43.827  14.878   1.241
39909W        W11635  18.680  31.030   2.312
39910W        W11636  17.581  39.850   1.452
39911W        W11637  21.199  22.097   4.144
39912W        W11638   6.420  27.585   0.334
39913W        W11639  40.539  35.905   0.969
39914W        W11640  15.330  20.991  12.901
39915W        W11641  43.212  33.016   3.234
39916W        W11642  36.038  25.477  10.634
39917W        W11643  14.811   2.378   3.145
39918W        W11644  16.602  16.107   1.853
39919W        W11645   9.703  40.906  13.079
39920W        W11646   6.781  25.348  10.680
39921W        W11647   8.850  22.830  10.302
39922W        W11648  27.006  35.670   3.307
39923W        W11649  32.981  33.493   4.789
39924W        W11650  21.067  39.762   0.404
39925W        W11651  23.960  15.293  13.102
39926W        W11652  42.456  19.561  14.531
39927W        W11653  10.671  14.071  13.783
39928W        W11654  44.321  34.009  10.719
39929W        W11655  20.544  27.745  13.427
39930W        W11656   7.306  22.790  11.483
39931W        W11657  17.151  30.199  10.952
39932W        W11658  32.248  36.628   0.758
39933W        W11659   3.780   9.683  10.672
39934W        W11660  11.644  38.748   2.887
39935W        W11661  26.660  15.690  10.776
39936W        W11662  29.727  19.987  11.704
39937W        W11663  34.344  35.427   3.005
39938W        W11664  40.350  20.598   2.887
39939W        W11665   7.103  33.516  12.531
39940W        W11666   4.383  14.852   0.771
39941W        W11667  24.331   1.384  13.196
39942W        W11668   1.102  25.734   0.562
39943W        W11669   2.202  44.147   3.174
39944W        W11670   6.530  37.216  10.171
39945W        W11671  14.886  21.426  12.123
39946W        W11672  10.366  29.553   2.843
39947W        W11673  44.371  43.044  13.385
39948W        W11674  17.623  35.737   4.562
39949W        W11675   2.627  33.163   3.213
39950W        W11676  32.529  29.033  12.963
39951W        W11677  41.285   3.845   2.220
39952W        W11678  21.542  26.733  13.418
39953W        W11679  24.098  12.371  10.511
39954W        W11680  42.991  22.025  12.284
39955W        W11681  13.928  39.995   1.464
39956W        W11682  41.936  31.402   1.768
39957W        W11683   9.838   0.434  13.038
39958W        W11684   3.567  19.040   2.227
39959W        W11685  28.241  26.406  14.928
39960W        W11686   4.204  13.198   4.942
39961W        W11687  43.396  18.606  14.843
39962W        W11688  24.022  37.501   5.069
39963W        W11689  17.069  39.381   0.876
39964W        W11690  43.585  42.440   3.062
39965W        W11691  40.342  11.747   4.056
39966W        W11692  19.008   0.807  10.743
39967W        W11693  30.944   4.485  13.300
39968W        W11694  44.970  11.495   3.324
39969W        W11695   5.266  42.410   3.133
39970W        W11696  15.154  29.942   2.222
39971W        W11697  43.591  23.653  11.092
39972W        W11698   8.702  19.613  12.978
39973W        W11699   0.045  39.996  14.163
39974W        W11700  30.175   8.541  12.168
39975W        W11701  44.437   2.352  14.059
39976W        W11702  26.650   6.221   2.223
39977W        W11703  37.382  21.622  11.050
39978W        W11704  40.528  37.478   1.392
39979W        W11705  16.104   1.567  13.107
39980W        W11706  30.559  37.942  13.061
39981W        W11707   4.299   8.122   3.056
39982W        W11708  15.594  37.302  14.830
39983W        W11709  32.117  40.316  14.943
39984W        W11710  44.591  39.163  11.987
39985W        W11711   5.166  10.628  10.329
39986W        W11712  36.116   6.500  12.307
39987W        W11713  21.480  14.245   5.015
39988W        W11714  32.448  31.408   3.897
39989W        W11715  22.703   6.922  12.197
39990W        W11716  22.145  15.692   3.347
39991W        W11717  20.494  42.343  14.787
39992W        W11718  29.602  26.552   3.209
39993W        W11719  26.665  23.217   1.685
39994W        W11720  38.915  39.003   1.915
39995W        W11721   1.381  14.364   3.914
39996W        W11722   3.282  17.686   4.609
39997W        W11723   3.138  30.470   0.304
39998W        W11724   1.696  31.869   2.360
39999W        W11725   4.658  42.550  14.408
40000W        W11726  21.556  16.738   3.224
40001W        W11727   6.324  12.105  13.596
40002W        W11728  25.118  32.019   2.828
40003W        W11729  19.299  30.431   0.607
40004W        W11730  12.888  43.244   2.392
40005W        W11731  24.490  23.588  10.683
40006W        W11732   0.633  23.693  12.324
40007W        W11733   8.267  25.070  12.551
40008W        W11734  30.054  21.050   3.220
40009W        W11735  23.732  12.570  13.616
40010W        W11736  30.496  28.597  11.633
40011W        W11737  17.474  40.592   4.180
40012W        W11738  41.504  39.986   0.016
40013W        W11739   9.292  13.813   2.905
40014W        W11740  25.197  24.521   3.677
40015W        W11741  10.455  13.077  12.369
40016W        W11742  33.424  29.989   3.229
40017W        W11743   0.486  19.582  13.016
40018W        W11744   2.236  39.537   1.552
40019W        W11745   3.955  37.242  11.154
40020W        W11746  30.396  28.917   2.298
40021W        W11747  41.781   9.143   0.123
40022W        W11748  23.966  24.634   2.787
40023W        W11749  12.161  14.526  13.354
40024W        W11750  28.712  23.706   2.360
40025W        W11751  20.473   4.420  11.917
40026W        W11752  11.996  44.622  10.083
40027W        W11753  38.858  25.943  10.369
40028W        W11754  10.278  38.555  14.363
40029W        W11755  41.699   7.101   9.968
40030W        W11756  39.012   8.474  10.784
40031W        W11757  15.090  36.319  13.029
40032W        W11758  39.507  25.853  14.507
40033W        W11759  14.232  38.799  12.386
40034W        W11760  39.663   0.496  12.424
40035W        W11761  21.262  24.470  10.695
40036W        W11762   7.274   2.934  10.554
40037W        W11763   1.426  40.624  11.249
40038W        W11764  38.847  31.909   0.942
40039W        W11765  27.437  30.567   0.747
40040W        W11766   0.381   9.812  12.878
40041W        W11767  18.630   0.752  12.648
40042W        W11768  15.633  42.096   4.291
40043W        W11769  27.471   0.992   3.638
40044W        W11770  30.792  39.361  12.090
40045W        W11771  29.663  33.708  11.115
40046W        W11772   7.916  14.736  13.125
40047W        W11773  17.148  10.886   4.301
40048W        W11774   5.414  20.505  14.517
40049W        W11775  13.680  24.605  13.888
40050W        W11776  18.112  20.287   4.226
40051W        W11777  33.957  38.818   0.799
40052W        W11778  31.074  43.904   4.997
40053W        W11779  41.939   3.454   1.399
40054W        W11780  35.464   6.614   0.174
40055W        W11781  29.442  32.092  12.419
40056W        W11782  22.134  33.758  14.948
40057W        W11783  17.037  15.983  14.395
40058W        W11784   7.298  18.758  13.751
40059W        W11785   2.301  32.980  13.290
40060W        W11786  43.828  25.445  14.476
40061W        W11787   6.493  25.586   0.394
40062W        W11788  38.863  37.253  10.693
40063W        W11789  25.510  12.132  13.988
40064W        W11790  24.002  30.513  12.903
40065W        W11791  16.059  39.926  13.987
40066W        W11792  14.781  33.058  11.132
40067W        W11793  35.196  36.254  14.984
40068W        W11794  20.716  25.742   3.216
40069W        W11795  42.876  31.093   0.006
40070W        W11796  19.727  24.679   3.115
40071W        W11797  35.949  42.212  13.289
40072W        W11798  13.429   7.742   2.764
40073W        W11799  17.344   3.255  12.115
40074W        W11800  13.651  28.528   3.580
40075W        W11801   5.798  14.589   3.802
40076W        W11802  44.134  23.677  13.460
40077W        W11803  12.146  32.604   2.290
40078W        W11804  30.144  32.932  12.963
40079W        W11805  35.907  24.133  14.956
40080W        W11806  39.280  31.933  11.538
40081W        W11807  19.323  12.740   3.990
40082W        W11808  16.247  17.238   2.730
40083W        W11809  26.246   7.771  13.540
40084W        W11810  35.092   9.270   2.813
40085W        W11811  15.613   1.340   2.275
40086W        W11812  20.317  41.896  10.829
40087W        W11813  34.556  29.490  10.595
40088W        W11814  25.785  24.231   1.199
40089W        W11815  41.831  29.821   4.756
40090W        W11816  31.504  20.769   3.327
40091W        W11817  25.403  26.257  12.310
40092W        W11818  18.549   7.129   2.865
40093W        W11819  41.730  11.907   4.110
40094W        W11820  21.569   3.601   4.551
40095W        W11821   2.463  25.891  13.493
40096W        W11822   3.567  25.370   4.127
40097W        W11823   5.165  20.623   0.713
40098W        W11824  14.314  13.541  12.162
40099W        W11825  37.830  40.921  12.415
40100W        W11826   1.018  15.765  13.356
40101W        W11827  19.251  20.723  12.758
40102W        W11828   4.290  11.568  13.290
40103W        W11829  29.143   9.830  11.510
40104W        W11830  17.768  24.567   4.613
40105W        W11831  33.551  36.667  10.539
40106W        W11832  21.793  12.315  13.104
40107W        W11833  27.565  31.083  12.610
40108W        W11834  16.884  21.100   1.476
40109W        W11835  44.545  23.673   1.231
40110W        W11836   6.300  40.474  14.022
40111W        W11837  37.819   5.877  13.525
40112W        W11838   2.233  17.194  11.144
40113W        W11839  34.747   9.644   3.810
40114W        W11840   6.381  40.352   3.590
40115W        W11841  29.183  44.001  10.793
40116W        W11842  27.503  26.909   1.801
40117W        W11843  11.399  13.632  12.023
40118W        W11844  15.652  35.467  12.009
40119W        W11845  42.226  12.763  12.664
40120W        W11846  38.324  20.181  11.464
40121W        W11847  35.871  13.281   0.931
40122W        W11848  14.721   8.249   2.389
40123W        W11849  36.141  17.963   2.288
40124W        W11850  13.334  33.888   2.773
40125W        W11851   4.371   5.658   3.268
40126W        W11852  37.903  41.257  13.961
40127W        W11853   3.512  29.921   3.078
40128W        W11854   5.900   1.428   1.393
40129W        W11855  17.746  38.380   1.681
40130W        W11856  18.110  26.220  13.085
40131W        W11857   3.897   2.939  11.641
40132W        W11858   4.736   1.244   4.088
40133W        W11859  19.673  38.346   4.082
40134W        W11860  14.809  12.322  10.931
40135W        W11861  13.848  26.973   1.669
40136W        W11862  29.960  39.962  13.711
40137W        W11863  39.283  38.659  12.955
40138W        W11864  39.919  11.352   1.491
40139W        W11865   1.964   4.732   1.203
40140W        W11866  15.092  34.039   3.992
40141W        W11867   1.378   8.507  12.238
40142W        W11868   1.564   0.004   1.849
40143W        W11869  16.775  42.343   2.189
40144W        W11870  31.053  30.021   4.654
40145W        W11871  41.870  33.665   3.650
40146W        W11872   1.081  28.041   4.921
40147W        W11873  40.386   3.104  10.493
40148W        W11874  24.597  12.315  14.108
40149W        W11875  18.608  35.401   0.514
40150W        W11876   6.910  29.478  11.068
40151W        W11877  14.665  28.474   2.239
40152W        W11878   7.131  40.668   1.486
40153W        W11879  40.544  11.313   2.360
40154W        W11880   4.018  29.515  13.397
40155W        W11881  40.948  18.243   2.345
40156W        W11882   7.649  14.163   4.866
40157W        W11883  43.792   3.755   2.413
40158W        W11884  19.194  26.476  13.766
40159W        W11885   2.185  41.768  12.441
40160W        W11886  26.517  40.381  11.927
40161W        W11887  41.991  17.024  11.258
40162W        W11888  18.056  42.271   2.496
40163W        W11889  14.829   1.758  14.738
40164W        W11890  19.066  36.899   0.780
40165W        W11891  20.034   0.881  10.598
40166W        W11892  21.262  43.967  14.643
40167W        W11893  38.688  30.520  14.813
40168W        W11894   8.680  29.715  12.546
40169W        W11895   1.361  17.595   0.316
40170W        W11896  10.793   6.939  11.184
40171W        W11897  22.318  14.841  10.064
40172W        W11898  15.633  36.571  11.932
40173W        W11899  14.480  10.751  11.236
40174W        W11900  14.856  21.563   1.350
40175W        W11901  32.457   1.297   2.480
40176W        W11902  17.818  18.094   4.251
40177W        W11903   4.900  26.822  11.150
40178W        W11904  25.884  35.877   1.866
40179W        W11905  11.303   8.924  14.790
40180W        W11906  12.139  15.207   2.480
40181W        W11907  42.800  42.358   4.973
40182W        W11908   8.234  21.452   3.746
40183W        W11909  32.442  28.574  11.484
40184W        W11910   9.391   6.709   1.450
40185W        W11911   9.997  31.326  11.236
40186W        W11912  35.925  23.985  12.761
40187W        W11913   3.879  19.992   0.816
40188W        W11914  10.265  39.975  14.418
40189W        W11915  39.776  20.301   2.778
40190W        W11916  40.826   2.668  10.735
40191W        W11917  36.875  16.192  12.988
40192W        W11918  42.733  34.058  10.666
40193W        W11919  17.812  14.778   2.720
40194W        W11920  38.041  36.991   4.993
40195W        W11921  44.434  23.930  14.321
40196W        W11922  17.721   8.556   2.348
40197W        W11923  38.742  10.316  13.618
40198W        W11924  24.754  15.914   4.193
40199W        W11925  42.535  11.164  13.937
40200W        W11926  38.824  38.566  14.745
40201W        W11927  19.235  38.924  10.515
40202W        W11928   7.810  38.432   0.995
40203W        W11929   4.282  14.727  13.016
40204W        W11930  30.460  21.289   3.907
40205W        W11931  28.433  15.500   3.456
40206W        W11932  17.327   1.722   0.218
40207W        W11933   2.721  13.293   4.746
40208W        W11934  32.010  37.035  12.464
40209W        W11935  12.094  42.746   1.813
40210W        W11936  31.052   8.367   1.901
40211W        W11937   7.838  18.812   1.414
40212W        W11938  12.819  36.994  12.156
40213W        W11939  34.033  19.832  13.580
40214W        W11940   4.485  20.550  13.714
40215W        W11941   5.746  19.463  10.766
40216W        W11942   8.740  44.143  12.692
40217W        W11943  41.457  41.303   1.548
40218W        W11944  20.011  12.266   3.826
40219W        W11945  21.716   2.937  11.801
40220W        W11946  20.585  43.208  11.710
40221W        W11947  38.958   9.877   3.659
40222W        W11948   8.786  44.583  10.828
40223W        W11949   5.158   7.726   9.739
40224W        W11950  14.198  28.404  12.939
40225W        W11951  29.124   2.776   1.324
40226W        W11952   3.691  24.297  11.692
40227W        W11953  36.074  41.479  14.932
40228W        W11954  15.864  34.970   0.893
40229W        W11955  32.997   4.577   4.155
40230W        W11956  10.862  13.867   0.800
40231W        W11957  22.324  17.510  11.547
40232W        W11958  33.253   8.929  12.055
40233W        W11959  30.352   9.670  13.732
40234W        W11960  41.405  21.106  11.395
40235W        W11961   9.462  30.906  10.750
40236W        W11962  33.341   3.834  14.539
40237W        W11963  40.770   3.718   0.684
40238W        W11964  41.448  28.497   4.509
40239W        W11965  25.143  26.728   2.725
40240W        W11966  10.356  25.695   1.524
40241W        W11967  30.125  36.495   3.911
40242W        W11968   8.202   1.581   3.163
40243W        W11969   0.810  38.813   3.205
40244W        W11970   6.136  20.741  11.556
40245W        W11971  41.852  40.801  10.566
40246W        W11972  34.179  24.560   0.772
40247W        W11973   4.892   7.726   4.466
40248W        W11974  23.733  21.579  11.182
40249W        W11975   4.248  21.266  10.537
40250W        W11976   8.413  29.456  10.555
40251W        W11977  36.892  28.916   4.543
40252W        W11978  28.393  35.464  13.101
40253W        W11979  20.303  31.975  11.693
40254W        W11980  30.394   6.402   4.036
40255W        W11981  19.515  41.069   0.420
40256W        W11982  30.127   0.229  13.083
40257W        W11983   1.710  10.186  12.534
40258W        W11984  39.961   8.142  14.361
40259W        W11985  17.997  34.537  13.543
40260W        W11986  25.723  23.163   2.587
40261W        W11987   9.955  36.506   0.327
40262W        W11988  34.629  34.436   0.988
40263W        W11989  20.164  26.663   2.621
40264W        W11990  32.496  41.824   2.463
40265W        W11991  23.099  15.423  11.100
40266W        W11992   1.848  37.362  14.282
40267W        W11993  24.568  29.181   2.242
40268W        W11994  11.181  15.258   2.653
40269W        W11995  43.213  17.691  14.725
40270W        W11996  32.660  21.682  14.355
40271W        W11997  39.636  44.920  14.118
40272W        W11998  25.458  12.610  13.848
40273W        W11999  43.996   3.431  13.959
40274W        W12000   0.382  38.481  10.689
40275W        W12001  36.967  37.095  11.121
40276W        W12002  34.949   0.769   0.239
40277W        W12003  17.878  35.056   0.928
40278W        W12004  38.921   6.465  13.339
40279W        W12005  17.336   6.123  14.696
40280W        W12006  35.463  32.066   3.581
40281W        W12007  28.977  14.793   0.874
40282W        W12008  30.242  22.489   0.143
40283W        W12009   0.259  26.228  11.824
40284W        W12010  41.291  18.118   1.805
40285W        W12011  44.051  13.490  14.423
40286W        W12012  35.589  24.438   1.200
40287W        W12013  18.126   9.232  11.279
40288W        W12014  17.378   6.897   3.926
40289W        W12015  23.768  27.114   2.605
40290W        W12016  25.483  38.538   1.784
40291W        W12017  16.323  15.673   4.530
40292W        W12018  27.927  25.079   4.934
40293W        W12019  34.402  19.214   2.202
40294W        W12020  37.490  13.251   3.920
40295W        W12021  43.680   8.988   1.829
40296W        W12022  31.375  32.928   2.127
40297W        W12023  17.948  23.154   0.718
40298W        W12024   3.211   2.786  11.154
40299W        W12025  30.301  35.903  11.069
40300W        W12026  34.339  43.747   1.844
40301W        W12027   3.360  26.894   4.225
40302W        W12028  21.154  33.148   3.793
40303W        W12029  38.047  25.543   1.573
40304W        W12030  38.074  41.340   1.415
40305W        W12031  28.451   7.912   3.256
40306W        W12032  22.955  28.528   1.328
40307W        W12033  27.154   6.952  12.041
40308W        W12034   0.991  19.692   1.769
40309W        W12035   2.989  25.954   3.895
40310W        W12036  30.775  41.367   1.681
40311W        W12037  32.904  36.855  14.383
40312W        W12038  40.469  16.743  13.826
40313W        W12039   4.944   7.468   1.870
40314W        W12040  11.816  20.650  12.411
40315W        W12041  28.658   5.226   0.786
40316W        W12042  43.289  14.363  14.470
40317W        W12043  21.581  19.136  14.051
40318W        W12044  14.565  18.686   4.142
40319W        W12045  23.918   8.954  12.441
40320W        W12046  16.075  23.366   2.592
40321W        W12047  11.482  17.154   2.719
40322W        W12048  15.169   3.967  10.901
40323W        W12049   2.585  16.086   1.413
40324W        W12050  17.277  20.336   2.418
40325W        W12051  25.546  32.192  10.234
40326W        W12052  22.097  21.218  11.412
40327W        W12053  34.465  43.025   1.457
40328W        W12054   3.368  17.295  13.659
40329W        W12055  21.729  30.578   5.047
40330W        W12056  22.701  16.853   4.645
40331W        W12057  31.455  25.080  13.884
40332W        W12058  29.425   1.520   2.698
40333W        W12059  40.393  44.939  14.359
40334W        W12060  34.423  20.543   2.927
40335W        W12061  14.284  20.082  13.010
40336W        W12062  35.828   3.955   2.714
40337W        W12063  12.798  38.308  13.399
40338W        W12064   5.296  44.253   0.537
40339W        W12065  24.098  41.010  12.995
40340W        W12066  19.653  25.549  13.299
40341W        W12067  39.954  30.119  12.023
40342W        W12068  38.855   7.343   3.993
40343W        W12069  25.315   9.322   4.264
40344W        W12070  12.758  20.750  11.157
40345W        W12071  39.498  17.620  14.969
40346W        W12072  32.597  31.914   0.168
40347W        W12073  23.076  37.442  14.618
40348W        W12074   1.332  22.017   0.717
40349W        W12075  15.478  22.651  12.461
40350W        W12076  27.625  32.945  13.803
40351W        W12077  25.484  26.623   2.279
40352W        W12078  19.401  30.343  13.939
40353W        W12079  22.261  18.177   4.348
40354W        W12080  44.461  32.383   1.987
40355W        W12081  16.541  16.229  12.304
40356W        W12082   4.732  27.165   3.722
40357W        W12083   1.008  33.421  11.550
40358W        W12084  35.353  31.593   3.848
40359W        W12085  13.434  42.477   1.440
40360W        W12086  35.584  12.271  13.715
40361W        W12087  22.099  38.487  13.863
40362W        W12088  39.980  19.749   3.269
40363W        W12089  16.745  33.656  12.020
40364W        W12090  24.616  27.505  11.487
40365W        W12091  23.595  41.092  14.487
40366W        W12092  21.180  40.204   1.494
40367W        W12093  36.524  31.252  12.372
40368W        W12094  39.915   0.478   4.165
40369W        W12095  10.790   4.606  11.656
40370W        W12096  44.773   7.500  12.791
40371W        W12097  38.004  12.559  11.493
40372W        W12098  17.837  22.996  14.785
40373W        W12099  25.734  23.701   9.901
40374W        W12100  38.399  15.534   1.932
40375W        W12101   5.289  21.648  14.272
40376W        W12102  15.478  43.233   3.125
40377W        W12103  12.814  30.223  11.633
40378W        W12104  21.581  39.420  11.252
40379W        W12105  23.155  11.508   4.802
40380W        W12106  34.856   7.369   3.633
40381W        W12107  20.673  42.574  12.448
40382W        W12108  36.071  27.687  11.049
40383W        W12109  22.383  24.926   2.162
40384W        W12110  41.918  21.295   4.164
40385W        W12111  37.580  35.090   2.805
40386W        W12112   2.775  20.012  11.129
40387W        W12113  36.777  13.212   1.462
40388W        W12114  14.273   8.050   1.334
40389W        W12115  41.604   0.900   2.877
40390W        W12116  18.071  25.629   3.767
40391W        W12117  35.801  36.483  13.803
40392W        W12118  15.812   8.407  13.051
40393W        W12119   5.101  10.937  13.714
40394W        W12120  18.094  12.160  12.828
40395W        W12121  27.915  22.719  14.874
40396W        W12122  29.094  23.540   5.018
40397W        W12123  11.897  30.185   2.752
40398W        W12124  40.831  33.070   0.904
40399W        W12125  38.273  16.783  11.194
40400W        W12126   0.789  33.020  13.174
40401W        W12127  44.675  35.335   2.693
40402W        W12128  11.563  39.792   2.758
40403W        W12129  44.840  11.650  11.272
40404W        W12130   2.428   9.395  13.786
40405W        W12131   2.027  43.804   1.362
40406W        W12132  40.002  19.816  11.638
40407W        W12133  15.749  11.580   4.157
40408W        W12134   4.367  29.842   4.214
40409W        W12135   4.485   6.013   9.836
40410W        W12136  13.351  17.022   4.152
40411W        W12137  33.682  27.035   2.259
40412W        W12138  22.651  29.400  10.602
40413W        W12139  29.052  35.576   2.828
40414W        W12140  43.021  28.666   2.386
40415W        W12141  27.023  23.658   1.496
40416W        W12142  27.590  20.966   1.305
40417W        W12143   3.392   7.906  10.750
40418W        W12144   4.601  29.668  14.947
40419W        W12145  22.473  23.071  14.786
40420W        W12146   2.241   1.783   2.266
40421W        W12147  24.513  15.976  13.494
40422W        W12148   7.824  12.329  10.637
40423W        W12149   2.172  22.136   1.091
40424W        W12150  32.583  29.110  13.487
40425W        W12151  20.104  43.436   3.296
40426W        W12152  31.856   0.771   3.765
40427W        W12153   8.371  35.364   3.203
40428W        W12154  40.761  13.521   4.169
40429W        W12155   3.811  15.137   1.457
40430W        W12156  25.622  40.444  11.632
40431W        W12157  11.693  32.596  14.745
40432W        W12158  23.656  32.599   2.682
40433W        W12159  10.428  21.457  14.987
40434W        W12160  35.254  12.790  12.263
40435W        W12161  33.341  12.285  14.163
40436W        W12162  31.602   7.338  10.887
40437W        W12163  14.148  28.178  14.384
40438W        W12164   0.992  44.324  10.793
40439W        W12165  30.909  39.717   3.241
40440W        W12166  28.898   1.275  12.397
40441W        W12167  38.207  25.484  10.814
40442W        W12168  13.540   8.372  12.080
40443W        W12169  14.259   5.910  13.016
40444W        W12170  32.461  18.074  11.475
40445W        W12171  31.389  34.297  12.851
40446W        W12172  44.208  14.341  13.544
40447W        W12173  40.290  30.353   2.343
40448W        W12174  15.717  14.946  14.775
40449W        W12175  15.045  21.063  13.554
40450W        W12176  33.311  28.022   0.844
40451W        W12177  28.198   4.276  13.849
40452W        W12178  26.259  35.012  11.935
40453W        W12179  32.086  32.232   1.424
40454W        W12180  30.694  38.800   3.585
40455W        W12181  19.920   5.207  10.824
40456W        W12182   1.935  37.110   1.083
40457W        W12183  18.571  35.403   3.710
40458W        W12184   0.778   4.185  10.731
40459W        W12185  35.065   4.411  10.736
40460W        W12186   3.216   5.391  12.985
40461W        W12187   8.848  17.256  11.878
40462W        W12188  30.121  41.387   3.753
40463W        W12189  28.093  25.942  14.318
40464W        W12190  35.506  13.585   4.951
40465W        W12191  24.578  18.476  14.417
40466W        W12192  30.964  43.998  13.873
40467W        W12193  32.273  37.744   0.390
40468W        W12194  17.210  43.166  10.248
40469W        W12195  28.767  42.957  12.554
40470W        W12196  41.103  36.577   1.820
40471W        W12197   1.204  15.109   0.334
40472W        W12198  19.521  30.820   0.293
40473W        W12199   5.929   4.244  13.883
40474W        W12200  25.842  39.871   3.675
40475W        W12201  17.126  19.970  14.542
40476W        W12202  10.693  17.514  14.419
40477W        W12203  44.197   5.770  12.861
40478W        W12204  34.526   1.847   0.794
40479W        W12205   2.691  15.678  14.567
40480W        W12206  19.386  25.359   4.546
40481W        W12207   8.187   1.033  14.333
40482W        W12208  26.026   4.210  11.140
40483W        W12209  26.752  30.543  14.880
40484W        W12210  38.866  20.362   4.975
40485W        W12211  37.992   2.236  13.599
40486W        W12212   4.663  43.471  13.306
40487W        W12213   3.164  18.621   4.021
40488W        W12214  13.648  20.106   2.763
40489W        W12215  37.502  14.764  12.126
40490W        W12216  30.703  20.680   0.868
40491W        W12217  35.850   7.438   2.828
40492W        W12218   7.363   4.613  14.849
40493W        W12219  17.838   4.716   3.244
40494W        W12220   3.160  25.034   4.881
40495W        W12221  19.692   9.329  12.923
40496W        W12222   6.730  26.161  14.976
40497W        W12223  25.960   4.750   1.935
40498W        W12224  15.951  35.013  11.978
40499W        W12225  37.752  27.620  13.612
40500W        W12226  42.467   0.617   0.808
40501W        W12227  18.020   2.324   2.794
40502W        W12228  24.350  34.622  12.139
40503W        W12229  35.929  34.959   3.787
40504W        W12230   3.429  23.252  10.921
40505W        W12231  40.462   4.628  12.109
40506W        W12232  31.436  38.241  14.389
40507W        W12233  20.215   4.889   4.397
40508W        W12234  32.624  27.650  13.071
40509W        W12235  26.524   1.261  10.620
40510W        W12236  37.386  12.161   0.430
40511W        W12237   1.314   1.980  12.558
40512W        W12238  33.719  15.661  10.313
40513W        W12239  23.808  19.540   1.424
40514W        W12240  36.931  25.395  12.504
40515W        W12241   1.260  28.425   2.793
40516W        W12242  42.050  15.293  13.895
40517W        W12243  33.878  27.527   2.404
40518W        W12244  24.006  16.460  13.297
40519W        W12245  38.342  31.823  14.528
40520W        W12246   5.887  42.905  14.446
40521W        W12247  23.640   6.873   2.680
40522W        W12248  24.521  26.714  14.858
40523W        W12249  19.719  32.917  12.465
40524W        W12250  36.639  27.112  14.440
40525W        W12251  25.106   6.120  14.155
40526W        W12252  27.634  37.357   3.608
40527W        W12253  11.757  11.384   0.111
40528W        W12254   2.546  43.625   4.198
40529W        W12255  21.667  26.131  14.279
40530W        W12256  35.357  17.943  14.937
40531W        W12257  26.593   9.359  13.317
40532W        W12258  20.695  40.108   0.365
40533W        W12259  16.050   1.042   2.199
40534W        W12260  29.960   7.215  13.270
40535W        W12261  43.931   1.205  11.819
40536W        W12262   0.814  23.493   3.307
40537W        W12263  21.213  10.182   2.292
40538W        W12264   2.796  24.387   2.817
40539W        W12265  38.686  15.769   9.946
40540W        W12266  41.710  43.182   2.282
40541W        W12267  29.956  40.895   0.396
40542W        W12268  33.475  10.303  13.392
40543W        W12269   8.380  27.577  14.297
40544W        W12270  35.666   3.711   4.987
40545W        W12271  26.209  25.226   0.446
40546W        W12272  36.061  13.356   3.845
40547W        W12273  26.470  35.918  12.382
40548W        W12274   8.191  31.942  12.977
40549W        W12275  19.010   5.207   4.820
40550W        W12276  22.746  14.796   0.408
40551W        W12277  37.928  25.542   2.938
40552W        W12278  35.586   1.832   2.825
40553W        W12279   6.553  32.346  14.703
40554W        W12280  32.355  43.975   3.695
40555W        W12281  24.629   5.461   4.178
40556W        W12282  24.282  18.679  13.203
40557W        W12283  10.252   5.386   0.835
40558W        W12284   8.659   7.778  13.979
40559W        W12285  41.900  41.848  10.605
40560W        W12286  10.420  10.689   0.079
40561W        W12287   2.771  30.238  11.718
40562W        W12288  35.999  21.660   4.390
40563W        W12289   5.873  43.359   0.269
40564W        W12290   8.434  36.697  14.534
40565W        W12291  27.734   3.260  13.906
40566W        W12292  19.815  42.462   4.659
40567W        W12293   1.760  43.741   0.895
40568W        W12294  18.934  10.231  12.626
40569W        W12295  34.672  27.379  12.315
40570W        W12296   4.775   7.926  12.987
40571W        W12297  34.614  11.869   3.701
40572W        W12298  19.220  34.447   4.334
40573W        W12299  27.528  34.445   1.784
40574W        W12300  14.717  37.276  13.051
40575W        W12301  18.193  10.329   0.113
40576W        W12302  30.017  21.182   9.984
40577W        W12303  24.520  17.288  12.987
40578W        W12304  21.931  36.409   0.470
40579W        W12305  25.966  43.386   2.957
40580W        W12306  14.256  23.797   1.927
40581W        W12307  12.352  14.115   3.666
40582W        W12308  43.963  23.266   3.740
40583W        W12309  17.708  24.811   3.285
40584W        W12310  17.025  42.482  12.833
40585W        W12311  13.296  37.767   3.433
40586W        W12312  30.931  37.183   2.691
40587W        W12313   8.453  21.698   3.355
40588W        W12314  23.549   1.706  14.524
40589W        W12315  12.931  41.966   3.635
40590W        W12316  40.534  10.450  13.624
40591W        W12317  29.266  24.924   1.692
40592W        W12318  29.980  43.773  14.999
40593W        W12319  22.516  24.466  14.947
40594W        W12320  37.208  28.997  13.667
40595W        W12321  35.625  37.195  13.084
40596W        W12322  19.022  24.210   1.381
40597W        W12323  28.962   1.417   4.637
40598W        W12324  24.663  41.471  14.509
40599W        W12325  39.278   2.735   1.570
40600W        W12326  33.405  31.539  10.158
40601W        W12327  16.219  28.441  14.758
40602W        W12328  37.329  31.633  10.504
40603W        W12329  12.356  35.421   3.866
40604W        W12330  34.809   1.387   1.999
40605W        W12331  36.876   4.937   0.430
40606W        W12332   2.937   3.209  11.275
40607W        W12333  27.463  15.355  13.273
40608W        W12334  27.067   8.279   0.820
40609W        W12335  17.648  26.168  13.349
40610W        W12336  42.194   2.081  13.530
40611W        W12337  17.497  34.594  13.375
40612W        W12338  27.951  11.329  11.568
40613W        W12339  33.035  35.053   0.448
40614W        W12340   2.245  44.961  13.138
40615W        W12341  19.570  10.894  11.550
40616W        W12342   5.064   2.519   1.368
40617W        W12343  12.714  38.444   4.371
40618W        W12344  44.940  33.202  14.798
40619W        W12345  42.410  30.406   2.327
40620W        W12346  22.616  25.925   4.618
40621W        W12347  19.068  44.026   1.697
40622W        W12348  19.550  33.471  11.172
40623W        W12349  31.633  29.161  13.342
40624W        W12350   1.855   0.611  10.689
40625W        W12351  20.800  25.369   4.635
40626W        W12352   1.847  29.092  14.030
40627W        W12353   8.252  24.854   5.058
40628W        W12354   2.250  41.328  13.846
40629W        W12355  10.494  16.617  10.065
40630W        W12356  44.810  14.988  13.573
40631W        W12357   5.390  44.880  12.017
40632W        W12358   0.807  29.047  10.071
40633W        W12359  11.886  24.221   4.142
40634W        W12360  38.516  30.671  12.937
40635W        W12361  17.587  35.551  12.629
40636W        W12362  36.920  21.535   2.698
40637W        W12363  15.589  29.245   5.063
40638W        W12364  34.057  34.572   4.820
40639W        W12365  25.532  30.916  13.876
40640W        W12366  22.121  37.651  12.373
40641W        W12367  26.512  22.724  12.867
40642W        W12368  37.763  39.476  12.775
40643W        W12369  26.478   3.411  14.017
40644W        W12370  25.168  33.905   2.570
40645W        W12371  23.284   1.909   0.938
40646W        W12372  31.814  14.496  10.314
40647W        W12373  42.874  19.462  14.830
40648W        W12374  20.348  33.920  11.486
40649W        W12375  25.781   7.499  12.917
40650W        W12376  41.490   8.313  10.727
40651W        W12377  24.804  43.541  10.078
40652W        W12378  37.068  28.633   2.369
40653W        W12379  42.498   9.216   3.704
40654W        W12380  32.603   8.728  14.010
40655W        W12381  34.634   7.887  14.483
40656W        W12382  17.053  24.171   0.413
40657W        W12383  37.983  10.858  12.544
40658W        W12384  17.108  23.028   2.743
40659W        W12385  33.639  38.565  14.464
40660W        W12386  11.304  44.079  14.005
40661W        W12387   4.460  37.471  14.953
40662W        W12388  20.864  42.844  11.484
40663W        W12389  42.423  43.640  10.480
40664W        W12390  20.773  12.051  13.810
40665W        W12391  28.939  10.356   4.731
40666W        W12392  21.667  25.973   2.673
40667W        W12393   9.348   3.798  11.390
40668W        W12394  23.321  29.142   4.100
40669W        W12395  39.860  35.514  14.527
40670W        W12396  38.861   4.657  12.917
40671W        W12397  24.622  16.768  13.943
40672W        W12398   6.942  35.786   3.680
40673W        W12399  25.244  34.312  10.730
40674W        W12400  38.575  36.914   0.993
40675W        W12401  13.118  25.322   1.911
40676W        W12402  21.087   9.768   2.907
40677W        W12403  42.291  40.919  14.980
40678W        W12404  27.112   6.882  14.913
40679W        W12405  35.280   8.672   1.120
40680W        W12406  16.735  19.075  11.220
40681W        W12407  13.401  40.408   2.741
40682W        W12408  30.040  17.238   2.196
40683W        W12409  19.574  23.218   0.907
40684W        W12410  40.022  18.065  13.954
40685W        W12411  43.866  26.472  11.050
40686W        W12412  41.247  20.515   2.634
40687W        W12413  29.496  36.844   4.616
40688W        W12414  27.397   3.325   1.062
40689W        W12415  41.113  40.167   2.818
40690W        W12416  19.579   6.757   0.991
40691W        W12417  33.640  23.284   2.364
40692W        W12418   9.486  31.216  11.178
40693W        W12419  26.469   5.222  14.777
40694W        W12420  14.813  10.869   2.809
40695W        W12421  27.962  26.238  11.691
40696W        W12422  23.651   0.051   0.499
40697W        W12423  26.141  19.114   0.740
40698W        W12424  10.368  33.582   2.722
40699W        W12425  26.701  29.565   1.874
40700W        W12426   1.448   5.983  13.053
40701W        W12427  11.239  35.605  11.265
40702W        W12428  24.157  31.636   1.155
40703W        W12429  17.341  32.493   4.192
40704W        W12430  16.570  34.904   4.013
40705W        W12431   3.312  31.600   0.870
40706W        W12432  44.776   4.471   3.641
40707W        W12433   0.022  11.353   4.185
40708W        W12434  28.547  27.075  12.002
40709W        W12435  26.124  21.623   2.403
40710W        W12436  17.424  13.200   4.275
40711W        W12437  24.469  12.375   2.857
40712W        W12438  12.961   7.390  11.448
40713W        W12439  32.912  29.253   0.799
40714W        W12440  35.914  34.200  12.166
40715W        W12441   8.767  39.722   3.158
40716W        W12442  16.888  10.182   2.188
40717W        W12443   0.987  29.972  12.486
40718W        W12444   1.807   8.952  14.964
40719W        W12445  44.364  13.177   1.190
40720W        W12446  42.862  10.815   2.262
40721W        W12447  44.791  34.605  12.736
40722W        W12448  37.866  17.827   2.874
40723W        W12449  37.441  16.819  12.597
40724W        W12450  10.476  44.394   9.733
40725W        W12451   4.854   6.368   1.202
40726W        W12452  25.555  25.662   1.455
40727W        W12453  36.110  40.272   1.083
40728W        W12454  39.833  44.068   1.962
40729W        W12455  11.368   7.381  14.873
40730W        W12456  42.726  17.759  10.760
40731W        W12457  36.761  26.097  11.682
40732W        W12458  16.063   8.131   1.297
40733W        W12459  40.427  44.879  11.731
40734W        W12460  29.107  42.562  12.482
40735W        W12461   9.380   6.812   2.393
40736W        W12462   0.056  40.351  13.332
40737W        W12463  39.614   1.491   1.829
40738W        W12464  28.172   7.148   5.055
40739W        W12465  42.648   6.786   0.846
40740W        W12466   7.465   0.905   4.678
40741W        W12467  32.055   9.678   4.907
40742W        W12468  41.941  40.018   1.734
40743W        W12469  32.354  13.111   2.665
40744W        W12470  33.402  19.984  12.957
40745W        W12471  16.826  38.341  12.459
40746W        W12472  44.398  24.992  10.701
40747W        W12473  38.501  30.722   2.299
40748W        W12474  24.928  44.447   5.134
40749W        W12475  29.219   9.486  11.102
40750W        W12476  40.567  19.616   1.352
40751W        W12477  39.527  22.438   4.524
40752W        W12478  22.101  23.772  14.232
40753W        W12479  42.010  40.028   2.682
40754W        W12480  12.335  13.136   3.413
40755W        W12481  27.206  34.860   0.312
40756W        W12482  11.233  23.721   1.708
40757W        W12483  44.777  26.019  14.967
40758W        W12484  14.121  38.167   4.203
40759W        W12485  19.032  15.090   0.454
40760W        W12486  31.645   1.539   0.432
40761W        W12487  44.896  13.174  12.776
40762W        W12488  34.962  33.657   3.697
40763W        W12489   8.122  21.335  12.066
40764W        W12490   0.774   0.695   2.327
40765W        W12491  41.040  32.370  12.018
40766W        W12492  43.878  33.858   1.273
40767W        W12493  15.689  38.790   1.461
40768W        W12494  39.986  26.518   3.154
40769W        W12495  14.642  26.496  12.369
40770W        W12496  24.544  39.487   4.120
40771W        W12497  28.189  30.857  13.503
40772W        W12498  19.003  23.881   2.452
40773W        W12499  25.157  16.031  11.226
40774W        W12500  16.563  26.494  12.805
40775W        W12501  26.633  42.615  10.698
40776W        W12502  37.060  14.142   1.932
40777W        W12503  41.336  13.033  13.366
40778W        W12504   8.445  24.218  11.886
40779W        W12505  44.862  36.449   4.757
40780W        W12506  34.401  21.245   3.983
40781W        W12507  42.802  32.613   2.404
40782W        W12508   3.663  30.970   3.213
40783W        W12509  25.014  26.233   2.688
40784W        W12510  42.551  20.804  12.129
40785W        W12511  43.479  19.517  11.177
40786W        W12512  26.076  37.057  13.386
40787W        W12513  30.919  19.632  13.292
40788W        W12514  42.832  28.975  14.770
40789W        W12515  22.186  44.476  13.474
40790W        W12516   6.156  29.889   0.932
40791W        W12517   5.123  26.238  14.265
40792W        W12518  11.166  23.279  10.383
40793W        W12519  44.929   2.724  12.867
40794W        W12520  31.557  19.212   1.883
40795W        W12521  24.762  22.256   4.145
40796W        W12522  44.708  23.245  10.363
40797W        W12523   6.143  16.171   4.895
40798W        W12524  12.263  24.023  11.995
40799W        W12525   5.024  27.947   2.447
40800W        W12526  27.509  30.094   1.485
40801W        W12527  16.056  33.231  14.731
40802W        W12528  10.342  27.575  10.504
40803W        W12529  17.856  14.324  10.785
40804W        W12530  32.644  41.544   9.824
40805W        W12531  39.680  16.794   4.120
40806W        W12532  15.897  32.364  13.515
40807W        W12533  39.575  39.306  14.905
40808W        W12534  10.672  16.805   2.825
40809W        W12535  33.235  43.414   2.379
40810W        W12536   5.406  19.260  12.368
40811W        W12537  24.217  24.998  10.318
40812W        W12538  17.996  19.460  12.354
40813W        W12539   6.397  21.953   2.725
40814W        W12540  18.451   9.364   4.782
40815W        W12541   2.566  37.623   1.361
40816W        W12542  42.437  27.414  12.610
40817W        W12543  15.228  26.682  13.813
40818W        W12544  16.559  40.170   5.164
40819W        W12545  32.133  43.025  13.738
40820W        W12546  41.428  20.116  10.529
40821W        W12547  11.618  25.280  12.995
40822W        W12548  27.759  42.396   4.069
40823W        W12549  13.623  12.159   3.668
40824W        W12550   3.288  18.588   3.502
40825W        W12551  10.929  20.391  12.410
40826W        W12552  40.695  14.302  13.365
40827W        W12553   3.184   8.202  14.215
40828W        W12554   6.373  43.877  14.054
40829W        W12555  33.711   1.771  12.953
40830W        W12556   6.936  29.210  14.808
40831W        W12557  25.524  19.695  10.695
40832W        W12558  17.276  43.690  10.238
40833W        W12559  37.885  24.571   1.345
40834W        W12560  42.418  22.363   0.888
40835W        W12561  13.647  16.047  14.954
40836W        W12562  42.392  12.748  14.936
40837W        W12563  27.360   5.706   2.757
40838W        W12564  40.787  24.128  14.265
40839W        W12565  41.835  29.987   1.824
40840W        W12566  35.376  16.864   2.715
40841W        W12567  16.281  39.436   4.342
40842W        W12568  29.596   0.279  13.063
40843W        W12569  11.900  32.043   0.986
40844W        W12570   1.819  42.360   0.956
40845W        W12571  12.339  43.700   1.214
40846W        W12572  39.535   0.351  10.742
40847W        W12573   6.301  33.576  11.156
40848W        W12574  11.861  23.426  11.541
40849W        W12575  14.414  43.442   0.868
40850W        W12576  33.340   7.932   4.299
40851W        W12577  15.895  31.152   4.485
40852W        W12578  12.541  27.654   3.825
40853W        W12579   8.960   1.820  13.630
40854W        W12580  25.804  31.104   3.050
40855W        W12581   0.746  41.812  10.592
40856W        W12582  10.218  28.447   4.638
40857W        W12583  29.369  32.136   4.115
40858W        W12584  32.945   1.763   1.273
40859W        W12585  18.782  41.971   3.314
40860W        W12586  26.719   4.328   2.076
40861W        W12587  23.196  25.591   4.171
40862W        W12588   0.685  16.952  12.325
40863W        W12589  31.016  11.251  13.434
40864W        W12590  40.821  18.259  13.569
40865W        W12591  21.598   3.291  13.361
40866W        W12592  34.498   5.733  13.432
40867W        W12593  39.324   5.580  12.199
40868W        W12594  22.157   1.174  14.344
40869W        W12595  17.168  44.446  14.323
40870W        W12596   7.871   4.286   0.946
40871W        W12597  37.843  21.680   2.375
40872W        W12598  26.618  30.474   2.874
40873W        W12599  15.967  11.106  13.306
40874W        W12600  13.157  28.975   4.226
40875W        W12601  42.176  32.660  10.812
40876W        W12602  42.940  35.546  12.531
40877W        W12603   2.460  37.127   1.808
40878W        W12604  43.750  23.677   2.323
40879W        W12605  11.860   2.259   4.577
40880W        W12606  10.447  26.665  14.781
40881W        W12607  19.230  10.773   0.888
40882W        W12608  44.554  35.312  11.096
40883W        W12609  20.223  43.560  13.923
40884W        W12610  25.054   7.207   4.788
40885W        W12611   5.266  18.782  12.473
40886W        W12612  26.160  38.313   0.815
40887W        W12613  30.619  36.611   1.404
40888W        W12614  16.680  25.160  14.305
40889W        W12615   4.386  39.308  12.575
40890W        W12616  43.014  29.908   1.799
40891W        W12617  20.754   1.882   3.678
40892W        W12618  35.078  13.672   0.925
40893W        W12619  27.206  32.305   1.536
40894W        W12620  38.092  11.105  13.983
40895W        W12621   4.132  43.386  14.453
40896W        W12622  44.897  32.280   4.612
40897W        W12623   4.540  13.291   4.454
40898W        W12624  43.099  37.874  12.560
40899W        W12625  10.985  36.625   0.016
40900W        W12626   2.214  38.467   4.021
40901W        W12627  19.534  34.370  11.480
40902W        W12628  13.409  33.334  14.511
40903W        W12629  43.035   1.096  11.025
40904W        W12630   8.038  15.692  10.682
40905W        W12631  40.005   3.734   3.338
40906W        W12632   4.937   6.229   4.837
40907W        W12633   8.815  43.122  12.922
40908W        W12634  21.327  35.873  10.792
40909W        W12635  10.613  38.728  11.003
40910W        W12636  40.815   5.769  10.904
40911W        W12637   1.707  27.216   0.453
40912W        W12638  11.132   7.437   2.408
40913W        W12639   0.400  24.915  10.672
40914W        W12640   2.023  11.939  12.158
40915W        W12641  37.483  21.968   0.214
40916W        W12642   8.572  36.496  14.035
40917W        W12643  39.909  29.479   3.743
40918W        W12644  33.051   3.169  13.532
40919W        W12645  24.419  44.480  11.903
40920W        W12646  16.501   8.250   1.899
40921W        W12647  44.920  37.896  12.536
40922W        W12648  30.673  41.540  10.587
40923W        W12649  21.093  42.913   1.832
40924W        W12650  24.225  21.175  12.397
40925W        W12651  35.539   7.297  13.984
40926W        W12652  28.208  27.944   2.263
40927W        W12653  30.690  12.531   2.281
40928W        W12654  39.337  27.023  14.775
40929W        W12655  19.740   0.738  11.465
40930W        W12656   5.484  40.822  13.930
40931W        W12657  24.731  30.884  14.497
40932W        W12658  26.629  19.644  12.472
40933W        W12659  31.043  29.028   4.477
40934W        W12660   6.982  10.257   2.117
40935W        W12661  30.663  23.721   2.802
40936W        W12662   5.250  20.590   2.221
40937W        W12663  16.387  43.837  12.049
40938W        W12664  36.058  43.253  11.037
40939W        W12665  12.161  23.875  11.076
40940W        W12666  34.245   8.921  11.956
40941W        W12667  12.123   8.182   3.749
40942W        W12668  26.715   4.298   1.115
40943W        W12669  30.968  36.983   4.408
40944W        W12670  38.421  40.690   3.275
40945W        W12671   7.657  29.145  13.878
40946W        W12672   5.433  27.928  13.403
40947W        W12673   3.230  16.130   4.525
40948W        W12674  11.707  12.883  13.505
40949W        W12675  22.036   0.010  13.475
40950W        W12676  30.705  14.335   1.364
40951W        W12677  28.652  36.708  14.423
40952W        W12678  39.581  24.046   3.241
40953W        W12679   8.853   7.221  11.927
40954W        W12680   4.768  44.250   0.348
40955W        W12681   0.818  41.396  13.591
40956W        W12682   4.766  11.477  10.731
40957W        W12683  35.497   7.208  12.459
40958W        W12684  31.486  27.479   2.697
40959W        W12685  25.606  22.577   0.925
40960W        W12686  23.810  13.117  11.872
40961W        W12687  24.964  33.067  14.717
40962W        W12688  43.472  10.878   1.824
40963W        W12689   8.848   3.235   1.407
40964W        W12690  14.489  14.033  12.080
40965W        W12691   1.977   9.442  14.930
40966W        W12692   3.806  40.859   3.849
40967W        W12693  21.993  37.418   4.356
40968W        W12694   0.542  35.423  12.327
40969W        W12695  11.383  43.351  14.405
40970W        W12696  13.876  21.223  11.456
40971W        W12697   2.379   9.112  10.702
40972W        W12698  37.488   3.810   0.301
40973W        W12699   3.415  43.269  11.612
40974W        W12700  43.522  13.663  13.893
40975W        W12701  29.740  38.736   4.191
40976W        W12702  18.760   8.372   0.404
40977W        W12703  37.162  37.772  12.194
40978W        W12704   9.674  10.310  10.237
40979W        W12705  24.900  33.494   4.319
40980W        W12706   4.505  35.993  14.514
40981W        W12707  22.924  23.100  11.123
40982W        W12708  42.553  30.628  11.975
40983W        W12709  27.742   6.184   3.616
40984W        W12710  41.061  41.299  12.139
40985W        W12711  13.105   9.233   2.301
40986W        W12712  37.565   9.411   2.182
40987W        W12713  44.482   3.396   0.680
40988W        W12714   4.689   2.682   3.610
40989W        W12715   5.526   0.910  11.903
40990W        W12716  43.949  35.480  12.319
40991W        W12717   4.341  17.385   3.233
40992W        W12718  31.981  39.345  14.992
40993W        W12719  24.262  43.742  10.910
40994W        W12720   7.147  20.789   0.891
40995W        W12721  27.374  34.032  12.071
40996W        W12722  17.076  38.420  14.482
40997W        W12723   1.007  26.499   4.636
40998W        W12724  41.463  32.092  14.466
40999W        W12725  19.076   0.777  12.987
41000W        W12726  35.540  22.139   0.902
41001W        W12727  40.417  28.280  11.566
41002W        W12728  25.736   7.329   1.406
41003W        W12729   7.649  28.895   4.214
41004W        W12730   1.751  17.778   4.352
41005W        W12731   1.689  41.448   4.195
41006W        W12732   6.954  32.674  12.821
41007W        W12733   5.207  19.162  14.871
41008W        W12734   2.911  13.920   3.931
41009W        W12735  24.030  22.011  11.999
41010W        W12736   1.946  41.882   1.228
41011W        W12737  10.354  25.394  12.495
41012W        W12738  36.913  32.266   0.033
41013W        W12739  11.247  37.414   5.049
41014W        W12740  12.627  23.752  14.958
41015W        W12741   7.839  18.120   2.267
41016W        W12742   2.753  16.152  13.895
41017W        W12743  43.375  41.306  12.322
41018W        W12744  13.072  31.422  12.994
41019W        W12745  40.405   5.794  11.654
41020W        W12746   0.201  21.021  12.106
41021W        W12747  13.828  39.225   2.391
41022W        W12748   0.066  38.845  13.006
41023W        W12749   7.523  37.923  12.470
41024W        W12750  20.252   1.864  12.579
41025W        W12751  19.212  18.546  13.398
41026W        W12752  29.476  13.878   1.741
41027W        W12753  34.472  41.061   0.047
41028W        W12754  43.025  44.526   3.588
41029W        W12755  15.762  31.927  12.022
41030W        W12756  30.918  39.052   1.348
41031W        W12757   7.795  23.236   2.359
41032W        W12758  40.852   9.538   2.587
41033W        W12759  38.966  33.943  14.846
41034W        W12760  32.540  39.742   1.223
41035W        W12761  35.094  33.610   4.575
41036W        W12762  41.472  14.425  12.391
41037W        W12763  29.995  33.429  12.560
41038W        W12764   7.951  28.202   1.815
41039W        W12765  42.304  25.061  14.839
41040W        W12766  19.869  17.509  14.450
41041W        W12767  21.399   9.366  14.957
41042W        W12768  30.834   5.804  13.577
41043W        W12769   3.794  34.922   2.368
41044W        W12770   5.735  10.651   0.384
41045W        W12771  10.184  18.813  13.005
41046W        W12772  18.166  33.838  12.340
41047W        W12773  35.568  38.581  14.905
41048W        W12774  34.981   8.481   3.876
41049W        W12775   8.130  16.593  13.573
41050W        W12776  27.667  12.443   4.086
41051W        W12777   3.707  44.806   3.652
41052W        W12778  32.433  35.631  10.694
41053W        W12779  14.028  13.301   0.411
41054W        W12780  41.961   0.449  12.922
41055W        W12781  21.453  35.985   3.622
41056W        W12782  34.807  16.082   3.736
41057W        W12783  10.074  16.086  11.260
41058W        W12784   6.354  43.796   3.089
41059W        W12785  43.212  28.459   3.187
41060W        W12786  28.360  36.984   3.571
41061W        W12787   6.362  16.304   9.547
41062W        W12788  35.816  29.394   2.668
41063W        W12789  29.914  22.132   0.339
41064W        W12790  20.937  37.091  13.559
41065W        W12791  11.105  10.113  13.901
41066W        W12792  10.809  34.843  10.667
41067W        W12793  42.484  12.552   3.816
41068W        W12794  11.684  18.952   9.808
41069W        W12795  29.119  22.840   1.883
41070W        W12796   1.892  15.720   1.022
41071W        W12797  44.610   6.227   4.971
41072W        W12798   8.131  14.332   4.702
41073W        W12799  44.488  42.350  12.065
41074W        W12800   1.024  19.700   4.284
41075W        W12801   4.276  23.040  14.039
41076W        W12802  41.310  14.346   2.725
41077W        W12803  21.614  23.048   0.817
41078W        W12804  13.299  35.835  13.980
41079W        W12805  42.516   8.242   2.343
41080W        W12806  13.209  32.731   4.229
41081W        W12807  41.430  25.187  13.039
41082W        W12808  33.924  34.314   2.327
41083W        W12809  28.456  35.114  11.648
41084W        W12810  17.130  42.835   3.791
41085W        W12811  38.357  11.226  10.967
41086W        W12812  13.650  28.431   1.665
41087W        W12813  36.540   9.649  13.349
41088W        W12814  15.761  34.798   3.757
41089W        W12815  16.469  35.968   1.711
41090W        W12816   2.734  12.235   1.914
41091W        W12817  33.892   0.218  11.342
41092W        W12818  28.785  13.242  12.845
41093W        W12819  29.424  37.330   0.798
41094W        W12820  44.264  22.405   1.832
41095W        W12821  25.239  23.173  14.454
41096W        W12822  43.270  15.211  13.419
41097W        W12823  35.282  40.802   3.114
41098W        W12824  35.403  16.062   3.103
41099W        W12825  12.301  39.541   2.119
41100W        W12826  38.366  44.805  13.536
41101W        W12827  35.542  13.094  14.378
41102W        W12828   8.458  10.770  13.046
41103W        W12829  26.733  33.382   0.549
41104W        W12830  13.651  14.043  10.686
41105W        W12831   6.189  24.181   2.514
41106W        W12832  39.547  38.527  13.392
41107W        W12833  18.678   0.959  12.176
41108W        W12834  41.502  10.861  12.028
41109W        W12835  30.441  34.359   4.355
41110W        W12836  20.951  38.540   1.446
41111W        W12837  33.015   3.348  14.029
41112W        W12838  40.797  42.954  14.930
41113W        W12839  13.154  17.666  11.918
41114W        W12840  44.758  35.883   0.903
41115W        W12841  33.388  23.054   3.707
41116W        W12842  23.968  44.367  11.003
41117W        W12843  43.445  13.663   2.391
41118W        W12844  42.677   5.774  13.479
41119W        W12845  15.867   9.293  11.357
41120W        W12846  42.012   8.821   4.233
41121W        W12847  37.092  30.080   0.387
41122W        W12848  10.891   3.256  14.391
41123W        W12849  41.974  35.020   3.287
41124W        W12850  23.707   8.185  11.267
41125W        W12851  35.592   8.149   3.268
41126W        W12852   2.817  42.988  13.044
41127W        W12853  44.457  40.583  10.501
41128W        W12854  41.370   4.696  14.503
41129W        W12855  31.979  28.041   0.152
41130W        W12856  26.484  24.482  14.065
41131W        W12857   4.133  40.022  13.977
41132W        W12858  15.785  40.016  13.560
41133W        W12859  20.729  42.383   3.423
41134W        W12860   1.562  39.918   1.284
41135W        W12861  21.304  21.148   4.039
41136W        W12862  31.436  44.583   2.843
41137W        W12863  26.462  42.531  14.504
41138W        W12864  13.814  30.567  10.742
41139W        W12865  11.227   0.072  11.093
41140W        W12866   3.044   5.414  11.724
41141W        W12867  12.621  32.565   0.968
41142W        W12868   1.516  40.560  13.964
41143W        W12869  13.842  20.799  11.073
41144W        W12870   1.252   6.396   2.006
41145W        W12871  39.936   6.710  11.865
41146W        W12872  24.021  41.807  11.551
41147W        W12873  12.085   2.059  11.180
41148W        W12874  39.349  26.497  14.494
41149W        W12875  15.593   2.215   4.742
41150W        W12876   8.303  32.505  11.552
41151W        W12877  23.573  44.850   5.019
41152W        W12878  10.791  13.643   4.256
41153W        W12879  21.680  24.942  11.938
41154W        W12880   8.508  35.134   2.582
41155W        W12881   0.837  42.233   2.767
41156W        W12882   3.921   0.381  14.823
41157W        W12883   1.763  22.197  13.931
41158W        W12884  21.352  23.568   2.809
41159W        W12885  26.433  18.241  11.980
41160W        W12886  22.513  25.150  14.278
41161W        W12887  41.176  17.297  12.512
41162W        W12888  30.983  12.695   0.789
41163W        W12889  43.533  21.041  13.758
41164W        W12890  12.762  31.118   3.408
41165W        W12891  29.639   5.460   0.876
41166W        W12892  15.961   5.638   4.969
41167W        W12893  34.152   7.854   1.247
41168W        W12894   6.208   3.701   5.510
41169W        W12895   0.450  25.817  14.230
41170W        W12896   4.762  17.041   3.075
41171W        W12897  15.273  16.792  14.289
41172W        W12898  28.496  12.897   5.108
41173W        W12899  39.521  12.167   1.226
41174W        W12900  43.802  16.865  11.864
41175W        W12901  18.672  38.822   0.472
41176W        W12902   1.987  40.483  12.824
41177W        W12903  28.851  22.985  13.861
41178W        W12904   5.927  12.787   1.905
41179W        W12905  35.827  30.408   1.836
41180W        W12906  36.636  26.576  14.329
41181W        W12907  19.758  15.603  13.853
41182W        W12908  31.103  17.567   3.587
41183W        W12909  10.243  18.368  12.706
41184W        W12910  41.860  12.554   3.121
41185W        W12911  14.179  31.423  11.656
41186W        W12912  28.376  26.568  10.953
41187W        W12913   3.677   8.758   2.320
41188W        W12914  34.749   1.943  13.280
41189W        W12915  25.768  29.113  12.003
41190W        W12916   8.178   4.204  11.612
41191W        W12917  31.098  24.963   0.053
41192W        W12918   5.266  37.813   1.051
41193W        W12919  24.659  40.354  10.957
41194W        W12920  23.515  16.113   0.850
41195W        W12921  36.472  16.634   3.183
41196W        W12922  30.762  40.426   3.180
41197W        W12923  37.723   1.394   4.229
41198W        W12924  28.991  21.512  12.863
41199W        W12925  39.510  10.829   0.411
41200W        W12926  42.283  30.205  13.835
41201W        W12927   5.233  26.614  14.765
41202W        W12928  13.385  31.258   3.809
41203W        W12929   4.952  42.251  12.050
41204W        W12930  43.800  13.096  13.459
41205W        W12931   7.426  24.115  12.117
41206W        W12932  22.670  15.471  12.461
41207W        W12933  31.853  36.538  13.156
41208W        W12934  40.009  21.016   0.380
41209W        W12935  20.580  11.826   2.143
41210W        W12936  35.575  16.711   1.376
41211W        W12937  31.645  43.224  11.556
41212W        W12938  20.066  12.112   4.627
41213W        W12939  19.050  28.952  14.186
41214W        W12940  39.824  37.394  14.846
41215W        W12941  39.349   4.764  10.616
41216W        W12942  37.056   2.795  12.381
41217W        W12943   5.668  29.992   4.545
41218W        W12944   2.812  31.711   0.962
41219W        W12945  18.399  28.193   4.862
41220W        W12946  30.881  42.491   1.932
41221W        W12947   3.771  17.090  12.852
41222W        W12948  33.371  16.873   0.790
41223W        W12949  31.216  28.065   3.296
41224W        W12950  31.608   7.401   2.380
41225W        W12951  19.094  13.720  12.621
41226W        W12952   0.740   6.320   4.585
41227W        W12953   2.702  44.916   0.863
41228W        W12954  14.289  41.066   0.499
41229W        W12955  38.441  12.999  11.853
41230W        W12956  26.512   4.745  11.999
41231W        W12957   1.985  16.780  11.652
41232W        W12958  25.565   4.498   2.190
41233W        W12959  39.092  34.969  11.312
41234W        W12960   7.751  40.594   3.230
41235W        W12961  11.777  29.194  13.833
41236W        W12962   0.896   1.399   2.838
41237W        W12963   1.664  40.352   0.327
41238W        W12964   8.354  32.980   4.621
41239W        W12965  12.086  27.539   1.622
41240W        W12966  12.089  38.907   1.906
41241W        W12967   1.025  21.635   2.338
41242W        W12968  22.512   7.128   4.698
41243W        W12969  37.773  29.454  12.019
41244W        W12970  16.508  28.311  13.995
41245W        W12971  44.289  22.523   4.191
41246W        W12972   2.728  23.519  13.877
41247W        W12973  10.771   2.354   4.236
41248W        W12974   8.407  23.689   4.621
41249W        W12975  19.077  29.178   2.828
41250W        W12976  38.025   4.089   4.287
41251W        W12977   2.524  28.149   4.703
41252W        W12978  16.929   5.219   3.647
41253W        W12979  22.602  43.485  11.944
41254W        W12980  44.324   3.930   0.834
41255W        W12981  30.370  14.855   3.205
41256W        W12982  35.905  38.314   3.890
41257W        W12983  17.599   3.286  13.452
41258W        W12984  18.427  10.133  12.667
41259W        W12985   6.429  15.783  14.974
41260W        W12986  32.673   9.372   1.184
41261W        W12987  16.023  29.620  12.334
41262W        W12988  27.029   0.217   2.853
41263W        W12989  12.872  26.730   3.932
41264W        W12990   8.908  31.160   1.256
41265W        W12991  35.880  39.560   3.356
41266W        W12992  41.814  28.417  13.894
41267W        W12993   1.373  10.330  13.444
41268W        W12994  39.850  15.771  11.135
41269W        W12995  23.253  24.090   2.733
41270W        W12996  22.565  23.978   4.090
41271W        W12997  38.472  15.486  12.134
41272W        W12998  12.198  11.675  12.508
41273W        W12999  12.741   6.125  10.501
41274W        W13000  44.924  11.897  13.805
41275W        W13001  41.461  34.129  11.968
41276W        W13002  37.572   8.259   1.536
41277W        W13003  16.049  16.389  12.980
41278W        W13004  40.879  31.857  11.921
41279W        W13005  38.357  36.056   4.119
41280W        W13006   8.894  38.002  10.487
41281W        W13007  25.039  40.607  12.495
41282W        W13008  35.804  42.805   1.203
41283W        W13009  35.900   4.216   3.678
41284W        W13010  34.114  33.525  11.455
41285W        W13011  23.292  19.608   4.185
41286W        W13012  23.003  30.488   3.015
41287W        W13013  16.674  18.340  13.130
41288W        W13014  36.978  41.427   2.743
41289W        W13015  44.237  32.418   3.928
41290W        W13016  38.454  32.623   4.261
41291W        W13017  40.680  31.613  11.076
41292W        W13018   1.385   4.748   2.483
41293W        W13019  21.140  39.824   3.275
41294W        W13020  32.906  29.645  13.469
41295W        W13021   7.392  21.216  10.660
41296W        W13022  18.497  32.219  13.458
41297W        W13023  43.783  29.136   1.198
41298W        W13024  22.292  16.525   4.158
41299W        W13025   5.137   1.576  11.131
41300W        W13026   6.659  26.242   3.258
41301W        W13027  44.348   7.294  12.991
41302W        W13028   2.044  22.373   0.262
41303W        W13029  15.253   2.693   3.165
41304W        W13030  35.331  11.294   4.530
41305W        W13031   8.429  43.862   0.862
41306W        W13032  14.488  10.304  10.437
41307W        W13033   4.990   0.334  10.056
41308W        W13034  27.729  34.174   0.734
41309W        W13035  33.871  32.680  12.987
41310W        W13036  10.315  39.464   2.210
41311W        W13037  19.467  16.662   4.474
41312W        W13038  36.596  21.253   0.473
41313W        W13039  35.661  19.350  12.147
41314W        W13040   2.823   6.486  11.984
41315W        W13041  39.968  32.925  12.179
41316W        W13042  14.844  35.821   2.150
41317W        W13043  44.819  41.451   4.174
41318W        W13044   8.677  44.459   4.994
41319W        W13045  28.159   5.314   3.261
41320W        W13046  37.290   1.176  14.929
41321W        W13047  12.941   5.514   4.015
41322W        W13048  35.837  14.243  13.311
41323W        W13049   6.057   9.905   2.361
41324W        W13050  29.226  29.188   0.710
41325W        W13051   7.128   0.494   3.400
41326W        W13052  14.371  11.092   1.295
41327W        W13053  18.048  43.489   0.421
41328W        W13054  24.192   9.238  14.796
41329W        W13055   1.501  19.150   3.615
41330W        W13056  15.156  28.355  12.977
41331W        W13057  16.555  27.888   4.211
41332W        W13058  33.173  17.561   2.257
41333W        W13059  35.410  42.327   1.763
41334W        W13060  18.696  30.757   3.047
41335W        W13061  32.825  35.070   3.864
41336W        W13062   4.747  22.894  14.245
41337W        W13063   8.473  11.691   2.193
41338W        W13064  29.501   8.614  11.059
41339W        W13065   0.370  35.037  13.246
41340W        W13066  37.490  42.764  10.664
41341W        W13067  10.746  36.069  11.560
41342W        W13068  12.846  12.415   0.474
41343W        W13069  39.474  26.989  13.352
41344W        W13070  27.415  30.866  13.068
41345W        W13071  28.047  34.405   2.750
41346W        W13072  37.525  18.619   4.617
41347W        W13073  20.239  11.994   5.093
41348W        W13074  18.851  16.507   3.553
41349W        W13075   2.671  26.502   3.300
41350W        W13076  33.282   5.664   0.319
41351W        W13077  12.440   3.264   0.959
41352W        W13078  43.150   5.664   4.486
41353W        W13079  21.186  26.268  12.545
41354W        W13080  10.577  30.667  14.849
41355W        W13081  42.789  29.845   0.286
41356W        W13082  10.905  41.508  12.954
41357W        W13083  43.524  41.822  11.099
41358W        W13084  28.248  23.512  12.538
41359W        W13085  19.661   0.917   3.629
41360W        W13086  26.016  43.433  14.994
41361W        W13087   8.624   2.615   0.725
41362W        W13088  34.926   6.859   0.888
41363W        W13089  32.413   3.457   1.408
41364W        W13090   5.749  21.652  13.869
41365W        W13091  26.288  29.923   4.151
41366W        W13092  38.574  16.647  13.659
41367W        W13093  39.072  26.022  13.803
41368W        W13094   3.781  43.650   1.829
41369W        W13095  39.449  38.521   4.496
41370W        W13096  31.827  32.485   3.369
41371W        W13097  27.080  24.122   0.212
41372W        W13098   3.192   8.856   3.158
41373W        W13099  18.161  16.298  13.456
41374W        W13100  39.577  32.183  14.796
41375W        W13101  36.589  17.261   1.700
41376W        W13102   3.953  25.659   0.352
41377W        W13103  41.374  12.368  10.820
41378W        W13104  29.780  42.461  13.344
41379W        W13105  26.959  41.235  10.735
41380W        W13106   3.889  26.472  10.253
41381W        W13107  33.326  23.634  10.052
41382W        W13108  30.639  21.683   4.162
41383W        W13109   8.592  42.963   4.509
41384W        W13110   0.504  21.679   2.295
41385W        W13111  13.205  39.927  11.057
41386W        W13112  30.900  11.076   2.175
41387W        W13113  21.678   3.431  11.014
41388W        W13114  19.609   7.291  10.659
41389W        W13115  41.319  29.378   0.282
41390W        W13116   5.380  17.375  12.391
41391W        W13117  14.850  38.251   1.372
41392W        W13118  35.630  13.621  13.868
41393W        W13119  32.443  21.145  13.476
41394W        W13120   7.672  26.110   0.783
41395W        W13121  26.021  28.946  12.426
41396W        W13122  18.217   0.436  14.709
41397W        W13123  34.112  17.796   4.381
41398W        W13124  23.985  16.689   0.352
41399W        W13125  10.922   3.422   2.724
41400W        W13126  24.104  25.990  12.977
41401W        W13127  38.284  23.654   4.111
41402W        W13128   4.212   1.212  14.383
41403W        W13129  12.054  18.575  10.643
41404W        W13130  37.483  20.503   4.678
41405W        W13131  37.474  10.070  10.969
41406W        W13132  19.481  22.527  12.566
41407W        W13133  25.478  26.713  12.103
41408W        W13134  27.788  16.751  14.984
41409W        W13135  27.781  21.824  11.544
41410W        W13136   5.311  30.984   4.354
41411W        W13137  29.488  10.276  12.624
41412W        W13138  27.601   2.784  11.732
41413W        W13139  40.952  16.001  13.012
41414W        W13140  24.025  23.740   2.658
41415W        W13141   6.574  37.992   2.914
41416W        W13142  30.021   3.029   1.451
41417W        W13143  35.786  15.119  12.990
41418W        W13144   6.209  41.405   0.128
41419W        W13145   5.275  31.922  10.891
41420W        W13146  17.137   6.189  11.668
41421W        W13147  44.191   9.411   4.911
41422W        W13148  42.821   8.496   2.766
41423W        W13149  33.047  32.602   1.405
41424W        W13150  19.644  33.214   3.305
41425W        W13151  11.022  26.805  11.682
41426W        W13152  24.081  27.898   1.970
41427W        W13153   2.162  37.836  12.047
41428W        W13154   5.671   9.390   1.246
41429W        W13155  30.123  42.793  10.724
41430W        W13156  29.158  18.100  13.485
41431W        W13157  10.754  43.084   0.360
41432W        W13158  14.233  34.129  12.089
41433W        W13159   7.898  24.573  10.551
41434W        W13160  44.949   0.836   3.604
41435W        W13161  13.667  36.763  13.480
41436W        W13162  30.589   1.092   3.268
41437W        W13163  34.330  37.765  11.262
41438W        W13164  11.382   2.725  11.613
41439W        W13165  21.632   8.329   1.334
41440W        W13166  16.852  14.266  10.703
41441W        W13167  42.283  15.295   0.399
41442W        W13168   3.506   2.359  10.965
41443W        W13169  42.237  37.858  11.459
41444W        W13170   7.191  18.510   3.169
41445W        W13171  33.764  30.152  10.698
41446W        W13172  15.156   0.880  12.381
41447W        W13173  37.021  17.681   2.591
41448W        W13174  21.033  21.826   1.863
41449W        W13175   4.873  43.244   2.724
41450W        W13176  15.162   2.638   3.705
41451W        W13177  20.220  27.740   4.783
41452W        W13178  36.416   3.346  12.310
41453W        W13179   7.934   9.122  12.116
41454W        W13180   7.344   2.435  10.666
41455W        W13181   2.692   5.924  12.534
41456W        W13182  28.596  30.993   0.824
41457W        W13183  34.457   5.772  12.794
41458W        W13184  16.117  17.753  10.525
41459W        W13185  25.627  31.660  10.426
41460W        W13186  26.132  33.656   3.672
41461W        W13187  38.576   0.550  14.761
41462W        W13188  31.137  11.818   4.151
41463W        W13189  40.081  16.389  11.154
41464W        W13190   1.013  12.807  11.563
41465W        W13191  40.923  39.483  14.598
41466W        W13192  24.738  32.190  11.199
41467W        W13193  33.749  12.510  12.040
41468W        W13194  21.551  18.478   4.407
41469W        W13195  40.592  30.762   5.031
41470W        W13196  18.184  41.513   3.177
41471W        W13197   2.447  40.217  14.713
41472W        W13198  26.418  23.786  12.491
41473W        W13199  15.821  43.949   9.813
41474W        W13200   3.214  29.647  12.232
41475W        W13201  27.996  27.314   0.922
41476W        W13202   2.570  37.958  12.760
41477W        W13203  22.753  40.549  12.160
41478W        W13204  27.552  37.654  10.358
41479W        W13205  16.855  32.883  11.570
41480W        W13206  16.235  43.282   2.709
41481W        W13207  25.984  28.520  11.077
41482W        W13208  14.606  37.764   1.337
41483W        W13209  10.141  12.417   1.711
41484W        W13210  41.512  16.208   0.258
41485W        W13211  33.946  10.757   3.644
41486W        W13212  21.646   9.717  14.690
41487W        W13213  18.112  42.678   0.123
41488W        W13214  32.120  19.997  10.767
41489W        W13215  25.623   9.613   1.556
41490W        W13216   3.633  44.798  12.375
41491W        W13217  29.021  30.235  13.530
41492W        W13218  18.537  31.874  11.217
41493W        W13219  38.494  16.793   0.005
41494W        W13220  31.585  22.153   2.855
41495W        W13221   1.720  39.718   3.988
41496W        W13222   0.791  42.183  14.488
41497W        W13223  27.611   1.191  13.417
41498W        W13224  43.065  22.676   3.143
41499W        W13225  27.608  20.051  14.435
41500W        W13226  41.990  30.930  12.915
41501W        W13227   3.363   9.276  12.733
41502W        W13228  26.665   0.802  10.378
41503W        W13229  11.770   9.329   4.350
41504W        W13230   0.981  17.032   3.282
41505W        W13231  37.360   0.270   2.739
41506W        W13232  21.592  17.022  11.054
41507W        W13233  44.704  12.701  14.457
41508W        W13234  34.124   5.895   1.685
41509W        W13235  22.193  44.339   3.893
41510W        W13236  23.535   4.834   2.120
41511W        W13237  14.315  20.686   0.428
41512W        W13238  34.833   4.662   1.831
41513W        W13239  32.474   8.670  14.962
41514W        W13240  28.982   9.389  12.438
41515W        W13241  21.279   3.496   2.847
41516W        W13242  13.201  17.324   1.831
41517W        W13243  35.893  44.748   0.935
41518W        W13244  37.913  32.957  14.940
41519W        W13245   3.457  35.980   2.883
41520W        W13246  31.063   6.031   4.670
41521W        W13247  37.826  19.836   4.334
41522W        W13248  34.801  32.411   3.180
41523W        W13249  14.508  41.768  12.038
41524W        W13250   7.923  13.211   3.597
41525W        W13251  12.195   8.023   0.784
41526W        W13252  32.056  12.051  13.311
41527W        W13253  18.575   0.877   0.538
41528W        W13254   3.890  12.665  12.141
41529W        W13255  16.898   3.976  11.086
41530W        W13256  28.651  21.313   4.196
41531W        W13257  29.241  24.606   3.290
41532W        W13258  33.735  27.168   1.231
41533W        W13259  21.948   0.264  12.973
41534W        W13260   5.441   8.416  11.685
41535W        W13261  25.641   5.769   3.214
41536W        W13262   3.563  42.327  12.510
41537W        W13263  12.158  33.520   0.920
41538W        W13264  36.098  28.929  14.947
41539W        W13265   8.224  29.939  10.419
41540W        W13266  26.935  44.371   3.145
41541W        W13267  36.877  16.821   1.775
41542W        W13268  11.613  23.922   3.810
41543W        W13269  14.336  19.646  14.089
41544W        W13270   1.759  13.708   4.131
41545W        W13271   2.372   0.314  11.558
41546W        W13272  24.613  27.654  13.272
41547W        W13273  36.911  36.795  11.550
41548W        W13274  35.193  42.588  11.993
41549W        W13275   0.497   3.137   3.682
41550W        W13276   1.153   8.486  11.071
41551W        W13277  19.208   8.602   0.904
41552W        W13278  29.422  33.885  14.953
41553W        W13279  17.314  12.251   2.460
41554W        W13280  29.776  25.450   2.223
41555W        W13281  30.170   2.738   1.883
41556W        W13282  35.440  40.072  13.392
41557W        W13283  40.173  22.536   2.856
41558W        W13284  38.124  23.570   1.605
41559W        W13285   0.203  44.397  14.984
41560W        W13286   5.337   8.369   0.492
41561W        W13287  21.287  17.756  14.780
41562W        W13288  33.837  31.696  10.404
41563W        W13289  33.339  11.683   3.222
41564W        W13290  30.984   5.893   1.301
41565W        W13291  37.756  16.071  14.230
41566W        W13292   8.112  29.042   4.479
41567W        W13293  40.949  18.257  14.513
41568W        W13294  19.045  26.934   2.336
41569W        W13295  17.250   3.939  13.769
41570W        W13296  32.533  13.399  12.104
41571W        W13297  32.575  36.357  12.018
41572W        W13298   9.215  19.163   1.759
41573W        W13299   1.266  16.264   1.521
41574W        W13300  32.042  25.668   4.614
41575W        W13301  33.904   4.935   0.826
41576W        W13302  26.478  29.811  12.142
41577W        W13303  17.980  12.509  13.598
41578W        W13304  15.374  21.583   1.219
41579W        W13305  17.124  15.646   0.687
41580W        W13306  13.882  39.744   3.250
41581W        W13307  39.514  30.125  11.119
41582W        W13308  10.601   6.884   1.739
41583W        W13309  37.890  29.912  11.156
41584W        W13310   8.141  27.706   3.323
41585W        W13311  26.104   9.652  12.440
41586W        W13312  26.910  33.848   2.264
41587W        W13313   8.764  24.192  14.486
41588W        W13314  33.145  12.582  14.922
41589W        W13315   5.284  16.805   4.536
41590W        W13316   9.471   4.175  13.908
41591W        W13317  34.211   3.008  10.692
41592W        W13318   5.012  16.682   5.402
41593W        W13319  21.714   4.907   2.649
41594W        W13320  37.978  43.452  14.882
41595W        W13321   0.303  31.915   4.585
41596W        W13322  26.623  33.354  14.217
41597W        W13323  39.585  17.069  14.561
41598W        W13324  25.582   5.248   3.167
41599W        W13325  14.240  41.086  11.063
41600W        W13326  13.837  29.385  13.483
41601W        W13327   4.470  12.821   3.067
41602W        W13328  12.191  32.096  10.966
41603W        W13329   6.399  18.831   5.083
41604W        W13330  44.709  18.522   1.302
41605W        W13331  26.783   7.675   4.405
41606W        W13332   1.376   9.734   3.719
41607W        W13333  16.645   3.308  11.423
41608W        W13334  31.750  41.174   9.888
41609W        W13335  24.970  43.471  11.598
41610W        W13336   3.862  21.688   1.289
41611W        W13337   2.289   6.854   0.273
41612W        W13338  19.807  13.153  14.951
41613W        W13339  30.861  37.345  11.515
41614W        W13340  42.928  20.514  14.790
41615W        W13341  18.152   8.872   2.288
41616W        W13342  23.004   6.799  14.905
41617W        W13343  25.109  25.626   1.210
41618W        W13344  18.323  12.780   4.013
41619W        W13345  40.792  28.795   3.156
41620W        W13346   9.710  22.695  14.814
41621W        W13347  33.106  43.390  10.496
41622W        W13348  31.650  45.000   4.713
41623W        W13349  27.927  17.652   3.072
41624W        W13350  36.195  35.029  13.975
41625W        W13351  11.684  19.783   0.289
41626W        W13352  17.643  14.110   3.923
41627W        W13353  19.357  14.665  11.213
41628W        W13354  29.563   8.338  11.519
41629W        W13355  26.674  11.332  12.458
41630W        W13356  18.227  39.058   0.371
41631W        W13357  29.406  35.848  13.901
41632W        W13358  34.988  20.143   3.180
41633W        W13359  22.320  25.314   4.143
41634W        W13360   0.699  23.161  11.651
41635W        W13361  16.577  37.561  11.230
41636W        W13362   4.821  10.570  11.160
41637W        W13363  11.858  43.996   0.041
41638W        W13364  35.314  42.775   3.366
41639W        W13365  13.671   3.364   1.135
41640W        W13366  25.367  32.060   4.175
41641W        W13367   0.794  32.269   1.639
41642W        W13368  28.011  32.646  14.005
41643W        W13369  32.967  19.145  12.387
41644W        W13370  40.102  31.289   1.791
41645W        W13371  14.464  38.473   0.228
41646W        W13372  18.085  44.235  13.281
41647W        W13373  10.323  32.547   1.198
41648W        W13374  13.841  42.917  13.441
41649W        W13375   4.973  33.563   3.301
41650W        W13376  21.169   3.748  14.228
41651W        W13377  18.063  42.697   0.708
41652W        W13378  38.889  39.977  11.110
41653W        W13379  28.725  34.588  14.340
41654W        W13380  23.067  24.216  11.713
41655W        W13381  27.024  29.916  10.658
41656W        W13382  24.525  11.172   3.421
41657W        W13383  33.754   2.172  14.740
41658W        W13384  14.529  18.241   3.228
41659W        W13385  43.458  22.638   4.911
41660W        W13386  20.248   5.659   1.184
41661W        W13387  40.811  28.334  14.057
41662W        W13388  23.086  27.129  12.060
41663W        W13389   4.982  30.074  12.887
41664W        W13390  12.749  28.425   1.764
41665W        W13391  11.744   3.982  11.251
41666W        W13392  37.555  10.659  12.313
41667W        W13393  40.449  43.678  12.934
41668W        W13394  41.297  33.713  12.221
41669W        W13395   9.904  22.019  14.559
41670W        W13396  10.323  34.361  13.978
41671W        W13397   9.047  11.353   3.398
41672W        W13398  18.879  35.152  14.608
41673W        W13399   9.163  42.449  14.306
41674W        W13400  38.293  26.474  13.070
41675W        W13401  18.592  25.688   0.501
41676W        W13402  41.237  27.652   4.392
41677W        W13403   9.570  24.084   3.765
41678W        W13404  24.676   4.884   4.790
41679W        W13405  21.275  41.291   2.331
41680W        W13406  37.221   4.718  13.393
41681W        W13407  12.674  26.510  11.147
41682W        W13408  24.451  17.871  11.889
41683W        W13409  23.248  19.730   2.258
41684W        W13410  26.733  29.464  14.302
41685W        W13411  19.614   1.721   3.234
41686W        W13412  28.061  16.848  11.210
41687W        W13413  24.241  33.857  13.387
41688W        W13414  30.019  14.671  14.524
41689W        W13415  22.461  30.647  12.055
41690W        W13416  15.686  12.913   3.592
41691W        W13417  24.925  26.436  13.989
41692W        W13418  35.203   2.979  10.620
41693W        W13419  38.002  21.232   4.560
41694W        W13420  30.351  15.582  14.270
41695W        W13421   8.755   0.273   1.663
41696W        W13422  21.597  32.699   1.772
41697W        W13423  10.541  10.836   1.402
41698W        W13424  10.377   5.390  14.856
41699W        W13425   6.360   7.428  14.355
41700W        W13426  10.371  22.657   4.573
41701W        W13427  17.704  36.734   4.440
41702W        W13428   1.297  31.761   0.965
41703W        W13429   9.810  33.749  11.465
41704W        W13430   7.833  33.654  14.855
41705W        W13431  25.710   4.506  13.904
41706W        W13432  21.948   7.708   2.868
41707W        W13433  30.552  15.801   1.778
41708W        W13434  10.792  27.162  13.302
41709W        W13435  16.841   0.274   3.685
41710W        W13436  15.100  37.609  13.011
41711W        W13437   7.266  31.508  14.604
41712W        W13438  23.665  10.528   1.581
41713W        W13439   8.274  38.591   1.665
41714W        W13440   5.923  23.042   2.552
41715W        W13441   1.100  22.020  13.019
41716W        W13442   6.692   6.995   0.713
41717W        W13443  17.650  21.524  10.574
41718W        W13444  24.633  44.690  13.361
41719W        W13445  44.239  24.768   1.727
41720W        W13446   3.974  37.118  13.855
41721W        W13447  28.205  12.790  13.384
41722W        W13448   0.849  14.226  10.674
41723W        W13449   5.890  14.833   0.788
41724W        W13450  41.023  22.028  11.266
41725W        W13451  13.544  41.913  13.871
41726W        W13452  27.149  39.325  12.477
41727W        W13453   1.796  39.854  11.380
41728W        W13454   0.342  20.028   0.212
41729W        W13455  24.995  30.888  12.878
41730W        W13456  34.095  40.676  11.060
41731W        W13457  28.564  40.026   2.165
41732W        W13458  16.186  10.206  12.527
41733W        W13459  18.066  35.996   4.720
41734W        W13460  36.535  14.644   3.502
41735W        W13461  18.053   6.681  12.104
41736W        W13462  39.486  28.928   1.201
41737W        W13463  24.949  26.735  11.106
41738W        W13464  31.563  35.057  10.681
41739W        W13465  34.610  19.477   1.015
41740W        W13466  35.607  21.755   0.570
41741W        W13467  15.621  22.261   0.876
41742W        W13468  29.355  33.859   2.356
41743W        W13469  15.394   3.878   0.389
41744W        W13470  33.992  12.824  10.796
41745W        W13471  37.777  13.819  14.312
41746W        W13472  10.508  10.855  10.573
41747W        W13473  28.166  22.539   5.451
41748W        W13474  34.143  27.601   1.984
41749W        W13475  11.536  21.687   4.286
41750W        W13476  10.097  39.487  14.455
41751W        W13477   9.594  44.375   1.247
41752W        W13478  19.709  39.006  10.713
41753W        W13479  17.630   1.095   2.732
41754W        W13480  17.840   2.004  14.902
41755W        W13481   5.749  38.991  12.128
41756W        W13482  30.677  29.622  13.581
41757W        W13483  14.624  43.446   0.297
41758W        W13484  31.624  39.576   0.759
41759W        W13485   8.818   2.540   2.206
41760W        W13486  19.049  34.453   2.131
41761W        W13487  21.262  17.379   0.917
41762W        W13488  34.057  10.925   4.120
41763W        W13489  35.391  24.829  10.418
41764W        W13490   9.273  15.500  14.911
41765W        W13491   5.466  42.067  14.524
41766W        W13492  24.826  37.100   1.277
41767W        W13493   7.765  10.761   3.301
41768W        W13494  44.491   2.886   3.243
41769W        W13495  39.492  28.301   3.216
41770W        W13496   8.250   8.412  14.458
41771W        W13497   5.784  26.580  14.797
41772W        W13498  37.053  38.787   0.983
41773W        W13499  36.553  36.432   0.264
41774W        W13500   1.509  36.480  12.548
41775W        W13501  38.659  41.024   2.695
41776W        W13502  20.183  39.659   3.865
41777W        W13503   1.355  43.589  12.864
41778W        W13504   8.873   0.621  10.944
41779W        W13505  11.475  30.820  13.046
41780W        W13506  42.258   3.906  11.615
41781W        W13507  26.260  15.744  12.027
41782W        W13508   3.539   6.843   3.704
41783W        W13509   8.110  18.165  11.186
41784W        W13510  10.385   5.968  13.283
41785W        W13511  22.484  33.456   1.812
41786W        W13512  32.995  13.080   3.772
41787W        W13513  18.168   2.859   4.247
41788W        W13514  23.005   0.530  10.079
41789W        W13515  18.558  32.656   1.377
41790W        W13516  35.959  32.351   0.297
41791W        W13517  27.120  25.211  13.905
41792W        W13518  22.731  13.335  10.742
41793W        W13519  38.484  18.341   2.325
41794W        W13520  33.530   3.251  13.321
41795W        W13521  26.657   7.929   0.918
41796W        W13522  18.763  34.940  12.448
41797W        W13523  23.702   9.163  11.177
41798W        W13524  38.987  30.090   1.216
41799W        W13525  39.041  40.561   4.228
41800W        W13526  21.865   0.202   2.901
41801W        W13527  36.552  26.066  12.142
41802W        W13528  31.638  19.271   4.235
41803W        W13529  33.655  36.076   3.427
41804W        W13530  36.068  32.615  12.551
41805W        W13531   1.018  31.140   0.892
41806W        W13532   0.573   2.353  13.067
41807W        W13533   8.858  36.907  11.511
41808W        W13534  16.172  37.748  10.169
41809W        W13535  42.233   5.766  14.908
41810W        W13536  22.283  11.314   1.307
41811W        W13537   3.373   7.892  12.917
41812W        W13538  37.912  41.551  10.690
41813W        W13539  11.849  29.595  10.578
41814W        W13540  24.022  12.845   0.782
41815W        W13541  28.165  17.618  12.872
41816W        W13542  13.761  10.197   4.643
41817W        W13543  36.825  39.534   4.696
41818W        W13544  26.506   2.204  11.188
41819W        W13545  41.540  10.436  11.735
41820W        W13546  39.795  21.084  14.900
41821W        W13547  20.155  12.887  13.364
41822W        W13548  36.914  21.532   4.017
41823W        W13549   1.625  25.682   1.037
41824W        W13550  17.120  30.003  11.437
41825W        W13551  34.995   7.801   2.800
41826W        W13552  11.340  28.949   2.584
41827W        W13553  17.552  35.050   1.874
41828W        W13554  15.236  17.523   1.992
41829W        W13555  25.616  14.802  14.737
41830W        W13556  43.812  13.271   3.142
41831W        W13557  24.936   2.716  11.846
41832W        W13558  13.188  41.534  13.981
41833W        W13559  23.657  17.164  14.787
41834W        W13560  44.159  26.179  13.594
41835W        W13561  18.300  24.573   4.623
41836W        W13562  21.020  11.360  10.716
41837W        W13563  38.193  34.461   1.813
41838W        W13564  23.548  16.380   0.381
41839W        W13565  28.418   0.171  13.368
41840W        W13566  13.778  18.484   0.319
41841W        W13567  37.655   1.824   3.592
41842W        W13568   7.832  13.827   2.779
41843W        W13569  19.102  33.546   0.739
41844W        W13570   5.165  36.882   2.291
41845W        W13571  30.544  26.885  13.960
41846W        W13572  11.243  37.179  13.987
41847W        W13573   5.482  16.261   1.272
41848W        W13574   6.217  19.478   1.905
41849W        W13575  41.117   7.297   3.179
41850W        W13576  43.456   7.542   4.181
41851W        W13577  40.059   9.672   3.568
41852W        W13578  43.967   4.449   4.067
41853W        W13579  11.608  17.570  12.528
41854W        W13580   1.279   4.483  12.724
41855W        W13581  30.430  37.338   2.881
41856W        W13582  37.629  12.675  14.903
41857W        W13583  33.185  18.173   0.824
41858W        W13584  27.105  27.821   4.424
41859W        W13585  41.977  15.137   1.287
41860W        W13586  22.126  27.425  10.153
41861W        W13587  34.462  13.044  11.621
41862W        W13588  26.179  31.473   1.281
41863W        W13589  32.031  39.300  10.340
41864W        W13590  16.138  40.446   3.058
41865W        W13591  42.967   5.946  10.674
41866W        W13592  21.770   6.911   1.861
41867W        W13593  26.379  35.230  13.163
41868W        W13594  29.819  24.235  10.562
41869W        W13595   0.284  35.958  11.029
41870W        W13596  42.841   1.741  14.284
41871W        W13597  36.867  25.464   3.561
41872W        W13598  14.874  12.632   0.808
41873W        W13599  37.576  30.506   4.254
41874W        W13600  19.166  34.898   4.598
41875W        W13601  41.445  10.338   3.291
41876W        W13602  38.505  23.680  13.300
41877W        W13603  21.956  38.491  14.799
41878W        W13604  36.916  30.554   0.367
41879W        W13605  20.081   8.979  11.091
41880W        W13606  23.174  32.943   4.267
41881W        W13607  27.755  37.485  14.434
41882W        W13608   8.768   1.935   2.616
41883W        W13609   9.423  25.818   3.727
41884W        W13610   3.929   1.287  10.698
41885W        W13611  42.124  32.675  14.724
41886W        W13612  33.401  19.716  10.600
41887W        W13613  12.075   5.640  11.015
41888W        W13614  43.515  25.076   0.717
41889W        W13615  21.440   4.808   4.126
41890W        W13616   4.155   5.314   2.257
41891W        W13617   5.515  36.319  13.409
41892W        W13618  43.726   5.279  10.678
41893W        W13619  20.898  42.831  14.903
41894W        W13620   0.934  37.355   1.895
41895W        W13621  20.866  16.201   3.413
41896W        W13622   2.495  32.994  12.363
41897W        W13623  23.693  37.862  11.003
41898W        W13624  29.923  44.916   3.547
41899W        W13625  38.479  32.373   2.882
41900W        W13626   4.623  39.236   3.082
41901W        W13627  28.390   1.204  11.140
41902W        W13628  15.251  25.750  12.059
41903W        W13629  11.648   4.030   1.852
41904W        W13630  37.077  40.051  12.452
41905W        W13631  34.781  33.597   5.002
41906W        W13632  18.026  16.163   2.233
41907W        W13633  14.280  14.193   2.213
41908W        W13634  16.136   7.498   2.260
41909W        W13635  35.545  27.105   3.228
41910W        W13636  35.006  18.692  14.252
41911W        W13637  22.062  17.049  14.741
41912W        W13638  28.494   9.377   4.156
41913W        W13639  27.988  41.508   4.360
41914W        W13640  16.815  35.981  12.437
41915W        W13641   8.259  21.987   3.722
41916W        W13642  36.447   8.157   0.350
41917W        W13643  41.046  43.844   4.574
41918W        W13644  15.143   7.941  12.646
41919W        W13645  27.467  33.939   3.729
41920W        W13646  23.572  13.123   0.701
41921W        W13647   2.204  11.870   9.844
41922W        W13648   3.080   8.084   0.436
41923W        W13649  21.023   1.988   2.375
41924W        W13650   6.592  17.760  10.519
41925W        W13651  16.137  20.848  14.819
41926W        W13652  21.623   6.695  11.363
41927W        W13653  29.038   1.481  11.890
41928W        W13654   1.694  14.162   2.993
41929W        W13655   5.418  22.242   1.250
41930W        W13656   5.737  43.736  12.090
41931W        W13657  40.303  20.098  14.236
41932W        W13658  42.912  19.240   2.362
41933W        W13659   0.884  36.128   0.264
41934W        W13660   6.008  35.444   0.442
41935W        W13661   2.040  44.916   1.659
41936W        W13662  17.486  41.678   2.240
41937W        W13663  28.341  30.068  11.914
41938W        W13664  39.459  30.005  10.625
41939W        W13665  41.319   0.003   0.408
41940W        W13666  41.990   1.484  14.806
41941W        W13667  28.875   9.175   1.178
41942W        W13668  24.555  14.908   2.596
41943W        W13669  23.644  23.967  12.433
41944W        W13670  13.904  28.062  12.604
41945W        W13671  15.063  31.870   2.635
41946W        W13672  15.020  31.083  13.186
41947W        W13673  29.935   0.344   3.839
41948W        W13674  40.111   8.210  14.885
41949W        W13675  42.491  42.919   4.154
41950W        W13676  28.744  39.882  14.350
41951W        W13677  10.090  25.688   2.528
41952W        W13678  16.186  27.506   0.397
41953W        W13679  37.526  15.103  13.256
41954W        W13680  32.126  11.265  10.190
41955W        W13681  29.805  36.013   1.058
41956W        W13682  14.219   0.540  12.426
41957W        W13683  28.670  14.626   3.079
41958W        W13684  32.119  41.783  11.056
41959W        W13685   6.490  17.580   4.676
41960W        W13686  20.886   2.690  12.587
41961W        W13687  13.847  13.380  12.974
41962W        W13688  25.294  38.401  13.119
41963W        W13689  41.834  41.865   2.677
41964W        W13690   1.179  10.894  12.421
41965W        W13691  37.429  44.991  11.849
41966W        W13692  15.183   7.187  10.887
41967W        W13693  15.355   2.238   1.653
41968W        W13694  34.580  13.534  12.633
41969W        W13695  27.961  11.709  13.709
41970W        W13696  22.535  38.046  12.520
41971W        W13697  34.433  14.958  14.337
41972W        W13698  33.895  38.798  11.653
41973W        W13699  22.143  19.554   5.040
41974W        W13700  23.117  14.613   1.246
41975W        W13701  32.995   6.829  14.486
41976W        W13702   3.855  14.430  10.711
41977W        W13703  35.546  38.426   2.208
41978W        W13704  20.490  14.541   5.027
41979W        W13705   9.874  42.435  14.858
41980W        W13706  42.479   3.743  13.881
41981W        W13707   4.939  22.253   0.003
41982W        W13708   2.206  13.863  14.787
41983W        W13709  19.015  36.021   3.030
41984W        W13710  33.391  22.757   2.681
41985W        W13711  27.187  20.174   1.318
41986W        W13712  20.251  29.881  14.836
41987W        W13713   7.386  20.720   3.230
41988W        W13714  37.530  38.073   4.078
41989W        W13715   2.475  16.601   1.285
41990W        W13716  40.153  23.366   0.840
41991W        W13717  33.578  42.061   0.407
41992W        W13718  21.224  12.095   4.220
41993W        W13719  31.029   6.241  10.657
41994W        W13720   2.782   8.169   2.575
41995W        W13721  12.095   7.650  11.176
41996W        W13722  40.394  29.289   4.956
41997W        W13723   0.249  39.077  14.597
41998W        W13724  28.826  15.381  14.579
41999W        W13725  16.326  42.705  11.621
42000W        W13726   4.244   0.642  14.349
42001W        W13727   2.310   8.843   1.140
42002W        W13728  37.363  18.647   4.117
42003W        W13729  30.904   3.308  14.254
42004W        W13730   9.637   1.091  14.842
42005W        W13731  21.939  18.837  13.710
42006W        W13732   9.346  42.724  14.742
42007W        W13733   3.519   1.952  11.678
42008W        W13734  40.787  39.037   0.347
42009W        W13735  30.568  23.823  13.115
42010W        W13736  17.406  43.028   5.107
42011W        W13737  35.287  28.331  11.252
42012W        W13738   5.224   0.447  11.847
42013W        W13739  16.764   4.726   2.452
42014W        W13740  16.842  38.469   1.388
42015W        W13741  43.008  14.368  11.704
42016W        W13742  22.955  34.612  11.206
42017W        W13743  12.974  42.801   1.605
42018W        W13744  20.340  42.830   4.841
42019W        W13745   0.697   7.181   5.083
42020W        W13746  25.603  44.922  14.376
42021W        W13747  35.136   8.865  14.035
42022W        W13748   2.884  30.692  12.606
42023W        W13749  13.313  28.450  12.152
42024W        W13750  35.130  21.640  10.753
42025W        W13751  32.104  24.654  10.482
42026W        W13752  36.252  29.912   3.722
42027W        W13753  18.056  27.982  10.587
42028W        W13754  31.778  33.706   3.641
42029W        W13755  22.473  16.288  13.034
42030W        W13756  13.636   5.438  10.451
42031W        W13757  10.797   3.098  13.889
42032W        W13758   8.434  43.279  11.137
42033W        W13759  36.379  23.094  12.432
42034W        W13760  33.826  20.178   1.242
42035W        W13761  22.320  32.530  13.628
42036W        W13762  17.080   3.867   2.822
42037W        W13763  43.258  10.167   3.259
42038W        W13764  21.238   7.711   0.923
42039W        W13765  13.761  19.768  12.334
42040W        W13766  16.048  39.478   3.345
42041W        W13767  20.279  40.559  12.649
42042W        W13768  42.872  25.536   3.877
42043W        W13769  40.425  22.470  12.943
42044W        W13770  20.978   4.609   4.201
42045W        W13771  37.331   2.342   3.352
42046W        W13772  33.824   3.808  14.388
42047W        W13773  13.688  38.410  14.003
42048W        W13774  18.657  42.960  11.666
42049W        W13775   5.419   8.316   3.748
42050W        W13776  18.648  10.256  10.732
42051W        W13777  31.336  17.416   0.453
42052W        W13778  21.016  31.504  13.318
42053W        W13779  39.979  40.761   4.108
42054W        W13780  10.962   4.633  12.514
42055W        W13781  12.886  37.807   1.837
42056W        W13782   3.441  12.083   0.814
42057W        W13783  41.042  36.851   2.725
42058W        W13784  33.933  18.791   4.231
42059W        W13785   4.052   8.219   3.516
42060W        W13786  23.220  35.095  14.951
42061W        W13787  22.183  28.471  11.032
42062W        W13788  21.526  39.486  11.779
42063W        W13789  16.537  31.007   3.842
42064W        W13790  43.948   6.199  14.926
42065W        W13791  24.911  40.878  12.917
42066W        W13792   1.204  43.268  11.535
42067W        W13793   5.126  23.967  14.051
42068W        W13794  32.409  44.438  10.590
42069W        W13795   0.995   2.509   1.842
42070W        W13796  37.321  32.935   2.183
42071W        W13797   0.551   4.716  14.742
42072W        W13798  28.269   0.829   1.954
42073W        W13799  23.301   7.823  12.983
42074W        W13800  44.011   9.103  12.520
42075W        W13801  13.378  43.942  14.386
42076W        W13802   1.333  26.620   2.948
42077W        W13803  32.620  23.565  14.007
42078W        W13804   2.812   6.152   0.427
42079W        W13805  34.960  10.526   5.108
42080W        W13806  12.098  35.394   2.730
42081W        W13807  35.159  20.496  14.953
42082W        W13808  24.641   5.844   4.734
42083W        W13809  25.939  25.328  10.972
42084W        W13810  27.382   7.195   2.754
42085W        W13811  28.673   1.251  14.542
42086W        W13812  30.725   5.775  14.456
42087W        W13813  40.875  44.971  11.523
42088W        W13814  36.086  22.206   0.945
42089W        W13815   8.402  15.282   2.681
42090W        W13816  23.030  26.460  10.712
42091W        W13817  40.902  44.505  14.892
42092W        W13818  28.677  17.491  13.935
42093W        W13819   2.302   6.200  10.303
42094W        W13820  17.210   7.429   2.680
42095W        W13821  19.223  32.331  10.614
42096W        W13822  26.561   8.893  12.375
42097W        W13823  12.387   1.286  11.179
42098W        W13824  33.316   2.462   4.439
42099W        W13825  20.959  17.625  11.061
42100W        W13826   8.971  35.663   1.243
42101W        W13827  10.291   8.209  12.564
42102W        W13828  32.771   7.820  14.514
42103W        W13829  21.677   4.364   4.228
42104W        W13830  25.787  24.028   4.833
42105W        W13831  40.606  23.598  12.653
42106W        W13832   9.520  25.715   9.835
42107W        W13833   0.356  38.494   3.268
42108W        W13834  18.101  27.579  14.701
42109W        W13835   9.710  13.812  12.418
42110W        W13836  43.316  41.472   0.798
42111W        W13837  40.748  15.056  14.724
42112W        W13838  40.894  36.049  10.945
42113W        W13839  44.760  44.308   0.997
42114W        W13840  34.923  34.873  14.385
42115W        W13841  19.222  14.591  10.714
42116W        W13842  33.524  40.116  12.453
42117W        W13843  25.903   2.979  12.024
42118W        W13844  43.792  25.635   3.350
42119W        W13845   8.536  29.089   4.156
42120W        W13846  38.565  40.779   4.263
42121W        W13847  21.547  10.410  14.619
42122W        W13848  34.585  24.029   3.225
42123W        W13849  43.830  39.348   3.535
42124W        W13850  26.089  43.912  14.344
42125W        W13851  16.774  36.859  13.981
42126W        W13852   7.222  42.448   1.232
42127W        W13853   2.130  37.354   1.494
42128W        W13854  20.774   6.959  12.546
42129W        W13855  30.527  39.884   1.415
42130W        W13856  10.857  28.479  11.331
42131W        W13857  16.341   6.832   1.763
42132W        W13858  38.339  11.620   2.274
42133W        W13859   2.927   4.915   4.637
42134W        W13860  36.015  38.318  14.891
42135W        W13861  26.190  10.343  11.646
42136W        W13862  23.064  33.460   3.435
42137W        W13863  31.409  44.345  10.591
42138W        W13864   8.379  22.967   4.319
42139W        W13865   9.789  19.562   2.266
42140W        W13866  15.395   2.854   0.391
42141W        W13867  40.271  41.667  11.106
42142W        W13868  19.012  11.328   0.562
42143W        W13869  22.241  43.358   3.412
42144W        W13870  29.687  16.068   1.378
42145W        W13871   2.002  36.350   3.156
42146W        W13872  34.040  22.272   3.325
42147W        W13873  44.216  41.020   1.741
42148W        W13874   9.611  38.145  13.011
42149W        W13875  39.304  44.261  14.320
42150W        W13876  23.839  12.605   0.299
42151W        W13877  22.971   0.721   1.331
42152W        W13878  34.616  10.313   0.901
42153W        W13879  23.842   6.635   3.986
42154W        W13880  18.769  22.601  11.282
42155W        W13881  14.407  37.299  12.431
42156W        W13882   5.762   0.407  13.070
42157W        W13883  35.824   8.802   3.819
42158W        W13884   5.930  33.609   2.389
42159W        W13885  21.751  31.578  13.857
42160W        W13886  10.713  41.863  11.151
42161W        W13887  33.978  29.377  14.269
42162W        W13888  35.397  34.941  12.673
42163W        W13889  42.925   1.955   0.755
42164W        W13890  22.145  39.592  12.564
42165W        W13891  33.766   6.880   4.091
42166W        W13892  41.036  37.472   4.551
42167W        W13893  41.590  34.999  12.492
42168W        W13894   4.172  30.558  12.870
42169W        W13895  42.477  17.249  10.977
42170W        W13896   5.254  29.428  14.522
42171W        W13897  39.827  14.120  14.847
42172W        W13898  28.764  24.252  13.468
42173W        W13899  10.326  11.783   2.273
42174W        W13900  25.592   5.032   2.153
42175W        W13901   6.692  41.008  14.281
42176W        W13902  38.557  13.886  13.880
42177W        W13903  43.432  42.480  12.347
42178W        W13904   2.645   0.577  11.222
42179W        W13905   1.524  10.232   4.173
42180W        W13906  18.386  27.039   3.902
42181W        W13907   5.649  44.226   3.930
42182W        W13908  11.101  16.136  11.924
42183W        W13909  19.591  20.227   2.880
42184W        W13910  26.599   8.198   2.250
42185W        W13911  32.435  38.747  12.799
42186W        W13912  30.103  37.026  12.364
42187W        W13913   0.148  16.818  11.164
42188W        W13914  26.017  35.165  11.417
42189W        W13915  32.644  20.829  10.743
42190W        W13916  37.644  40.536  14.639
42191W        W13917  18.157  35.097   2.368
42192W        W13918   6.725  15.841   2.910
42193W        W13919  30.905   5.677   4.324
42194W        W13920  14.209  37.160   4.179
42195W        W13921  29.362  33.373  13.729
42196W        W13922   9.125  25.457   1.778
42197W        W13923   5.037  38.445   1.708
42198W        W13924  19.312  42.815   3.077
42199W        W13925  15.780  26.546   1.165
42200W        W13926  17.356  11.686  12.356
42201W        W13927  34.069  42.311  14.435
42202W        W13928  18.828  36.897  14.478
42203W        W13929  28.364  32.915  10.872
42204W        W13930  31.867  27.027   1.718
42205W        W13931   5.300  34.018   0.447
42206W        W13932  27.877   9.157  12.212
42207W        W13933  32.517  31.600   1.901
42208W        W13934  14.615  13.262   4.730
42209W        W13935   1.145  34.953   1.196
42210W        W13936  20.434  43.335   1.870
42211W        W13937   3.322  32.651  13.312
42212W        W13938  12.699  19.171   1.908
42213W        W13939  12.844   8.281  14.632
42214W        W13940  11.736  33.861   0.363
42215W        W13941  21.998  44.773  10.681
42216W        W13942  11.952  18.982   1.464
42217W        W13943   0.431  33.100   1.958
42218W        W13944  26.749  43.584  13.541
42219W        W13945  23.041  10.292   3.894
42220W        W13946  29.575  13.259  13.606
42221W        W13947  32.130  21.674   4.259
42222W        W13948   8.528  42.506  13.244
42223W        W13949  37.546  28.286  14.430
42224W        W13950  21.134  25.452  13.183
42225W        W13951   9.545  28.969  13.485
42226W        W13952  26.181  27.746  14.636
42227W        W13953  17.339  15.345  13.008
42228W        W13954  30.598  35.617  14.046
42229W        W13955   6.879  35.538  14.031
42230W        W13956  35.136   2.440  13.413
42231W        W13957  19.794  33.294   2.289
42232W        W13958  11.797  33.573  14.072
42233W        W13959  13.136  14.032   3.225
42234W        W13960  22.654  18.537   0.478
42235W        W13961  26.049   5.790   4.173
42236W        W13962  12.494  23.676  10.738
42237W        W13963  39.973  34.674   0.492
42238W        W13964  41.891  33.137  12.589
42239W        W13965  24.530  30.559  10.953
42240W        W13966  27.722   3.941   3.400
42241W        W13967  36.001   3.190  10.999
42242W        W13968  27.293  18.738   3.442
42243W        W13969   8.195   8.366   0.749
42244W        W13970   0.901   8.965   4.992
42245W        W13971  15.802  40.952   0.875
42246W        W13972  31.327  43.755  10.696
42247W        W13973  35.907  38.625   0.317
42248W        W13974  30.728  23.107   3.614
42249W        W13975   7.364   8.764  11.927
42250W        W13976  43.044  22.249   1.292
42251W        W13977   2.357  12.723  13.558
42252W        W13978  25.658  21.729  14.031
42253W        W13979   8.311   7.928  11.922
42254W        W13980   2.883  20.766   3.334
42255W        W13981  12.506  35.763  12.953
42256W        W13982  43.331  33.160  14.263
42257W        W13983   8.224  28.165   3.107
42258W        W13984  18.750  24.237  13.945
42259W        W13985  23.213  35.068  13.333
42260W        W13986  18.777  32.520   1.855
42261W        W13987  10.081  13.602   0.346
42262W        W13988  17.059   1.368   2.562
42263W        W13989   4.190  35.854   4.167
42264W        W13990   1.449  31.370   0.678
42265W        W13991  10.752   8.091   2.680
42266W        W13992  36.369  28.272   4.911
42267W        W13993  33.686  15.852  13.417
42268W        W13994  18.155  42.937  11.473
42269W        W13995  43.977   7.759   2.327
42270W        W13996  12.329  31.675   0.324
42271W        W13997  13.107  10.252  11.138
42272W        W13998   3.332  40.966   3.607
42273W        W13999  42.437  39.565   4.515
42274W        W14000  14.846  42.299  14.898
42275W        W14001  26.278  44.501  12.560
42276W        W14002   8.152  34.322  13.539
42277W        W14003  10.678  42.629   2.374
42278W        W14004  42.966  33.892   2.082
42279W        W14005   7.287  43.019  11.577
42280W        W14006   9.869  13.660  13.962
42281W        W14007  36.600  20.906  10.807
42282W        W14008  44.600  18.662   2.649
42283W        W14009  33.210  40.874  14.005
42284W        W14010  41.624  27.351   0.200
42285W        W14011   0.174  20.513   4.200
42286W        W14012  12.215  11.548  10.671
42287W        W14013  23.806  13.331   2.672
42288W        W14014  40.380  42.445  12.495
42289W        W14015  10.181  26.122  10.866
42290W        W14016  23.490  13.753  14.844
42291W        W14017  22.168  11.050   0.870
42292W        W14018  19.578  12.439  12.482
42293W        W14019  38.656  26.744  11.468
42294W        W14020  32.096   7.413  14.921
42295W        W14021   2.637   6.492   2.906
42296W        W14022  42.806  27.781   1.863
42297W        W14023   2.368   2.121   0.454
42298W        W14024  23.647  38.852   4.533
42299W        W14025  26.556  23.679   0.929
42300W        W14026  28.422  27.074   1.142
42301W        W14027   4.213  31.697  13.470
42302W        W14028  12.516  30.056   0.570
42303W        W14029  36.013  19.356  13.889
42304W        W14030  38.570  26.455  12.624
42305W        W14031  11.313  41.996   3.371
42306W        W14032  22.157   7.953   3.732
42307W        W14033  43.818   3.803  11.513
42308W        W14034   6.021  16.160   1.251
42309W        W14035  15.719   6.018  13.049
42310W        W14036  11.341  23.684  10.119
42311W        W14037  28.857  43.203   2.793
42312W        W14038   6.423  33.049  13.102
42313W        W14039  31.887   4.692  10.458
42314W        W14040  31.932  32.530  10.607
42315W        W14041  20.213  22.534  13.753
42316W        W14042  37.732  28.386  11.099
42317W        W14043  22.519  31.071   2.522
42318W        W14044  26.534  39.047  13.085
42319W        W14045  37.385  38.125   0.634
42320W        W14046  41.080  26.830  12.464
42321W        W14047   6.841  32.138   3.507
42322W        W14048  32.869  26.319  12.903
42323W        W14049   9.858  24.214   4.999
42324W        W14050  32.492  16.134  12.536
42325W        W14051  14.346  18.006   0.806
42326W        W14052   3.579  34.625   4.588
42327W        W14053  24.612  39.175   1.991
42328W        W14054  24.427  32.535   4.778
42329W        W14055   5.327   1.100  11.052
42330W        W14056  41.859  27.462   2.775
42331W        W14057   9.334  19.882  12.463
42332W        W14058   0.416   6.481  12.517
42333W        W14059   8.191  19.843  13.290
42334W        W14060  38.730   4.474   0.290
42335W        W14061  17.545  11.339   3.177
42336W        W14062  31.499  44.307   4.112
42337W        W14063  28.645  44.545   2.318
42338W        W14064  14.349  14.619  13.949
42339W        W14065  13.336   7.077  12.921
42340W        W14066  24.197  41.735   1.366
42341W        W14067   9.941  23.404  14.268
42342W        W14068  38.480  14.106  14.531
42343W        W14069   9.717   2.846  10.731
42344W        W14070  31.467  42.743  11.584
42345W        W14071  15.440  34.960   2.796
42346W        W14072  12.402   2.802  11.612
42347W        W14073  39.858  38.385  11.326
42348W        W14074   4.246   7.363   1.283
42349W        W14075  37.403   2.888   2.201
42350W        W14076  23.516  42.125  13.435
42351W        W14077  21.398   2.818   1.201
42352W        W14078  39.061  21.685   3.174
42353W        W14079  42.869   4.374  14.472
42354W        W14080  13.391   4.913  11.971
42355W        W14081   6.863  41.240  13.086
42356W        W14082  22.964  21.981   3.603
42357W        W14083  12.234  28.044  12.541
42358W        W14084  25.370  26.095   4.500
42359W        W14085  26.601   6.653   3.163
42360W        W14086  10.158   7.118   1.449
42361W        W14087  21.522  15.817   0.309
42362W        W14088  19.008  38.801  13.058
42363W        W14089  43.970  10.119   2.747
42364W        W14090  39.251  34.810  10.770
42365W        W14091  13.615  14.874  12.326
42366W        W14092  30.344   3.342  14.895
42367W        W14093  31.628   1.902  13.994
42368W        W14094  15.099   0.492   3.557
42369W        W14095  32.566  12.200  10.416
42370W        W14096  35.440  21.136  12.456
42371W        W14097   7.410  35.867   0.363
42372W        W14098  29.591  17.732  11.083
42373W        W14099  44.723  30.570  13.464
42374W        W14100  22.069  30.428   1.723
42375W        W14101  41.294   1.412   1.225
42376W        W14102  43.552  27.654   1.243
42377W        W14103  35.054  15.664  14.488
42378W        W14104  26.670   4.260   0.574
42379W        W14105  16.611  14.286   0.464
42380W        W14106  24.193  28.500  13.838
42381W        W14107   5.645  29.764   0.771
42382W        W14108  43.810  31.994  12.520
42383W        W14109   8.816   5.915  13.305
42384W        W14110   5.980  15.825   3.395
42385W        W14111   4.642  17.613  11.933
42386W        W14112  31.573  29.385   3.732
42387W        W14113  11.397   8.158   1.794
42388W        W14114  39.511   5.436   0.214
42389W        W14115  27.060  37.045   1.788
42390W        W14116  39.859  10.930   3.675
42391W        W14117  11.917  21.171  14.324
42392W        W14118  10.595  16.731   4.966
42393W        W14119   6.431  21.183   4.230
42394W        W14120  37.376  21.795  12.906
42395W        W14121  14.070  35.593   3.059
42396W        W14122   6.988  44.935  10.452
42397W        W14123   6.953  10.774  11.499
42398W        W14124   4.111  26.293  14.467
42399W        W14125  39.025  18.160  14.624
42400W        W14126  15.239   2.205  13.029
42401W        W14127   3.709  41.458  12.284
42402W        W14128   1.143   3.477  11.184
42403W        W14129  38.973  10.208  13.147
42404W        W14130   5.594  22.233   3.084
42405W        W14131  37.847  13.097   4.695
42406W        W14132  24.028   2.991   4.206
42407W        W14133  14.619   3.821   1.903
42408W        W14134   6.640   7.318   1.159
42409W        W14135   6.392   7.654   5.085
42410W        W14136  20.010  44.873   0.312
42411W        W14137  21.816  32.055  11.963
42412W        W14138  23.242  34.242   0.438
42413W        W14139  22.279  44.356   2.690
42414W        W14140  12.125  11.388   0.482
42415W        W14141  12.271  35.926   4.196
42416W        W14142  25.851  28.342   0.463
42417W        W14143  36.846   4.543   1.349
42418W        W14144  41.900  32.584  13.403
42419W        W14145  34.552  43.800   3.654
42420W        W14146  19.577  37.015   2.769
42421W        W14147  26.701  41.038   0.691
42422W        W14148  28.167  19.308  13.189
42423W        W14149   6.779   0.001   2.837
42424W        W14150  15.583  20.574  12.425
42425W        W14151  25.911  36.670   0.744
42426W        W14152  29.338  26.417   5.044
42427W        W14153   9.439   7.503   0.678
42428W        W14154  44.395  35.508  14.650
42429W        W14155  21.429  26.182   0.374
42430W        W14156   5.447  15.131   4.175
42431W        W14157  41.407   6.394   4.207
42432W        W14158  22.254   7.876  13.424
42433W        W14159  36.573  41.332   1.006
42434W        W14160   8.910   9.806   2.459
42435W        W14161  23.766  20.713  11.635
42436W        W14162  26.623  31.907  12.933
42437W        W14163  29.943  15.362  11.155
42438W        W14164  43.083  15.693  13.364
42439W        W14165   9.405  14.564   4.958
42440W        W14166   3.690  24.822  11.552
42441W        W14167  25.581  37.314   0.234
42442W        W14168  10.546  40.049  14.882
42443W        W14169  11.128  43.705   4.112
42444W        W14170   3.272  22.180   1.161
42445W        W14171   8.764  20.058   4.709
42446W        W14172  23.940  21.768   1.723
42447W        W14173  10.612  16.313  12.467
42448W        W14174  34.522  21.122   0.058
42449W        W14175  28.707  18.061  11.157
42450W        W14176  11.702  21.231   3.331
42451W        W14177  43.720   2.848   3.637
42452W        W14178  22.004  19.202  12.020
42453W        W14179  26.867   7.608  11.522
42454W        W14180   7.286   9.820  12.912
42455W        W14181   3.936   6.538   0.461
42456W        W14182  21.043  11.086   4.004
42457W        W14183  33.881  14.431  10.848
42458W        W14184  40.622  27.887   3.624
42459W        W14185  24.503  13.154  14.381
42460W        W14186   2.719  29.718  11.633
42461W        W14187  39.952  33.789  12.580
42462W        W14188   9.499  34.639   3.336
42463W        W14189   2.229  10.073   2.722
42464W        W14190  24.190  13.037  14.879
42465W        W14191  12.016  26.640   0.810
42466W        W14192  23.483  31.048   2.821
42467W        W14193  12.129  36.455   1.353
42468W        W14194  19.843   6.806   1.439
42469W        W14195  32.573  13.818   3.462
42470W        W14196   9.544  36.439  13.953
42471W        W14197  28.465  12.135   3.785
42472W        W14198  41.264  22.474  11.287
42473W        W14199  16.146  10.540   3.759
42474W        W14200  30.976  41.564  12.635
42475W        W14201   8.740   4.258   1.535
42476W        W14202  39.383  17.264   4.686
42477W        W14203  10.618  30.500  12.529
42478W        W14204   4.005  38.880  13.476
42479W        W14205  31.195  39.973  11.527
42480W        W14206  44.435  27.874   3.520
42481W        W14207  13.526  43.311   1.814
42482W        W14208  17.671  16.154  13.316
42483W        W14209  25.737  10.671   1.447
42484W        W14210  12.801   2.798  13.953
42485W        W14211  12.671   3.889  12.991
42486W        W14212  31.387  23.180   4.592
42487W        W14213  13.377  32.482  14.133
42488W        W14214  10.631  43.950   2.571
42489W        W14215  43.434  17.215   0.490
42490W        W14216  24.249   9.956   1.034
42491W        W14217  15.374  16.517  10.459
42492W        W14218  16.288  36.439   4.766
42493W        W14219  13.844  11.605   0.807
42494W        W14220   8.683  44.690  12.631
42495W        W14221   7.393  25.118  11.969
42496W        W14222   6.642  32.552  11.014
42497W        W14223  34.114  10.330   3.408
42498W        W14224  39.826  28.447  13.548
42499W        W14225  34.282  16.914  12.731
42500W        W14226  35.830  43.997  10.731
42501W        W14227  15.169   4.688   1.810
42502W        W14228   9.465  42.035   4.094
42503W        W14229  40.540   1.829  12.012
42504W        W14230  13.982   3.904  11.638
42505W        W14231   3.758   6.772   4.892
42506W        W14232  26.706   2.101  12.824
42507W        W14233  43.713   0.999   3.191
42508W        W14234  17.640   9.628  14.079
42509W        W14235  31.080   0.826  12.353
42510W        W14236  35.746  18.152  11.458
42511W        W14237  14.198  40.042  11.064
42512W        W14238  28.456   9.769  11.955
42513W        W14239  34.505  12.609   4.697
42514W        W14240   0.260  31.826   2.833
42515W        W14241  12.967  32.308  13.879
42516W        W14242  35.813  15.388  12.519
42517W        W14243  24.647  14.733   5.017
42518W        W14244  27.669  18.066  13.418
42519W        W14245  22.043  43.333  14.042
42520W        W14246  15.827  38.295   1.454
42521W        W14247  16.112  26.100   0.396
42522W        W14248  39.345  22.575  12.710
42523W        W14249  20.710  28.146   4.088
42524W        W14250  40.427  12.499   2.803
42525W        W14251  24.645  16.989  14.415
42526W        W14252  17.619  23.753  14.335
42527W        W14253  34.566  16.533  13.918
42528W        W14254  27.635  22.613   3.656
42529W        W14255   2.760  33.733   0.444
42530W        W14256   6.635  16.647   2.445
42531W        W14257   7.319   5.075  11.174
42532W        W14258  17.303   1.865   0.796
42533W        W14259  44.407   2.377   4.149
42534W        W14260  37.082  11.149  13.838
42535W        W14261   2.529  10.320  11.104
42536W        W14262  16.271  44.867  14.521
42537W        W14263   7.312  41.073  13.437
42538W        W14264  36.305  38.486   2.688
42539W        W14265  21.642  12.740   1.840
42540W        W14266  36.015   5.757   0.910
42541W        W14267  37.172  11.441   4.622
42542W        W14268  16.316  40.773  10.308
42543W        W14269   3.190  31.916  11.882
42544W        W14270  44.593   2.365  11.463
42545W        W14271   1.257  34.067  14.837
42546W        W14272  29.023   2.411  12.896
42547W        W14273  28.644  10.747   4.553
42548W        W14274   7.761  30.432   2.374
42549W        W14275  33.428  43.833  14.397
42550W        W14276  10.598  30.375   0.914
42551W        W14277   4.755  39.461  11.018
42552W        W14278  19.992  40.834   1.390
42553W        W14279   4.714  21.626   0.911
42554W        W14280  42.959  36.339  10.771
42555W        W14281  14.690   3.783  14.824
42556W        W14282  33.340  40.044  10.678
42557W        W14283  19.139   8.825   4.366
42558W        W14284  24.506   7.205   3.682
42559W        W14285  14.593  42.768  12.006
42560W        W14286   9.167  19.869   3.802
42561W        W14287   3.452  12.770   2.871
42562W        W14288  28.071  41.747   1.782
42563W        W14289  31.397  14.070  14.231
42564W        W14290   9.338   6.160  12.434
42565W        W14291  16.556  28.413   4.259
42566W        W14292  13.270  35.122   1.813
42567W        W14293  20.624  33.240  12.830
42568W        W14294  44.063  40.220   0.923
42569W        W14295  28.666  28.751  13.896
42570W        W14296  18.207  41.475   3.737
42571W        W14297  16.278  23.713  11.991
42572W        W14298  24.044  39.401  13.895
42573W        W14299   8.391   8.747  14.058
42574W        W14300  23.494  38.341  14.113
42575W        W14301  44.009  29.057  10.938
42576W        W14302  28.061   0.005   1.891
42577W        W14303  35.908  39.629   0.014
42578W        W14304  14.218  17.235   4.629
42579W        W14305   5.721   1.098  10.728
42580W        W14306  20.348  16.170   1.839
42581W        W14307  34.944  29.535   3.676
42582W        W14308   6.661  17.243   2.762
42583W        W14309  12.102  32.610   3.174
42584W        W14310  41.931  38.045   2.792
42585W        W14311   6.831   4.953   4.288
42586W        W14312  33.525   1.539   3.282
42587W        W14313  10.581  35.104  14.087
42588W        W14314  12.916  24.289  13.601
42589W        W14315  15.464   7.774  10.773
42590W        W14316  30.908  40.577  14.403
42591W        W14317   4.665   9.751   2.304
42592W        W14318  12.805  25.200   0.296
42593W        W14319   5.309   8.940  10.608
42594W        W14320  44.644  43.362  13.754
42595W        W14321  25.777  38.746  11.281
42596W        W14322  20.698  36.081   4.187
42597W        W14323  42.347  14.694  14.299
42598W        W14324  37.824  19.242  13.359
42599W        W14325  29.916  28.719  14.216
42600W        W14326  18.162  42.189  11.021
42601W        W14327  10.854   1.213  13.786
42602W        W14328  16.613  32.498   3.768
42603W        W14329  17.993  36.860  11.698
42604W        W14330  27.073  14.372   4.140
42605W        W14331   3.212   3.636  11.628
42606W        W14332  27.538  16.507   2.712
42607W        W14333  17.261   7.458  12.183
42608W        W14334  38.881  44.935  12.582
42609W        W14335   3.746  37.084   1.443
42610W        W14336  19.305  18.684   2.796
42611W        W14337  25.596   3.186   1.713
42612W        W14338  14.454   7.632  11.521
42613W        W14339  30.376  16.130   3.727
42614W        W14340   5.857   2.492   4.363
42615W        W14341  10.021  44.389   3.607
42616W        W14342   7.837  32.550  11.290
42617W        W14343  20.138   4.682  10.728
42618W        W14344   8.847  41.480  10.655
42619W        W14345   8.283  33.501  14.531
42620W        W14346   8.667  20.141  11.220
42621W        W14347  36.641   5.822  11.124
42622W        W14348  25.727  43.635   5.488
42623W        W14349  26.065  19.990  12.823
42624W        W14350   1.247  10.645   1.804
42625W        W14351  13.344  15.214  14.558
42626W        W14352  15.110   0.903  11.477
42627W        W14353   0.419   6.288   0.502
42628W        W14354  33.634  43.396   3.332
42629W        W14355  29.953  14.105  10.741
42630W        W14356  26.640  29.109  12.051
42631W        W14357  43.672  33.125   2.416
42632W        W14358  31.908  13.146   2.926
42633W        W14359  29.583  21.251   3.123
42634W        W14360   3.683  33.496  11.146
42635W        W14361   4.434  12.613  12.332
42636W        W14362  34.049  13.767   1.388
42637W        W14363   8.211  12.146  12.126
42638W        W14364   5.430  29.564  12.658
42639W        W14365  12.812  39.380   1.783
42640W        W14366  44.329  12.338  13.488
42641W        W14367  42.267  22.515   2.231
42642W        W14368  12.731   5.701  14.878
42643W        W14369  26.082   2.193  13.928
42644W        W14370   3.779   0.685  11.490
42645W        W14371  37.935  27.683  13.133
42646W        W14372  32.014   8.038  12.031
42647W        W14373  21.175  44.758   4.396
42648W        W14374  28.877  12.547  11.217
42649W        W14375  37.776  39.001  13.398
42650W        W14376  14.211   6.338  13.506
42651W        W14377  11.083  36.146  12.417
42652W        W14378   5.216   3.470   0.263
42653W        W14379  15.146  10.007   0.103
42654W        W14380  39.658  17.321  13.588
42655W        W14381  35.673  16.635  11.680
42656W        W14382   5.223  14.493   0.786
42657W        W14383   8.411  42.836  10.882
42658W        W14384  24.031  19.855  12.440
42659W        W14385   4.779  14.585   1.659
42660W        W14386   4.214   7.921   3.911
42661W        W14387  33.470  32.853   0.211
42662W        W14388   4.477  16.659   1.872
42663W        W14389  22.969  12.060   3.645
42664W        W14390  21.634  12.535   2.327
42665W        W14391  22.573  44.593   0.799
42666W        W14392  12.794  43.955   1.940
42667W        W14393   0.546   8.781   0.840
42668W        W14394   8.909  21.669  12.366
42669W        W14395  30.809   9.104   2.413
42670W        W14396  25.729  25.194   0.726
42671W        W14397  39.843  38.807   0.490
42672W        W14398  40.834  13.286  10.732
42673W        W14399  27.427   2.843   0.447
42674W        W14400  41.552  35.401  11.566
42675W        W14401   5.321   5.332  13.040
42676W        W14402  38.632  42.931  13.942
42677W        W14403  41.998  33.909   0.342
42678W        W14404  18.803  29.647   1.270
42679W        W14405   9.387  42.823   5.133
42680W        W14406  20.063   7.685   4.365
42681W        W14407  10.609  30.998   1.780
42682W        W14408  38.073  25.926  12.018
42683W        W14409  35.474  29.393   3.680
42684W        W14410  23.066  31.613  10.523
42685W        W14411   4.937  34.303   4.774
42686W        W14412   9.733  38.043   4.614
42687W        W14413  27.081  21.839  10.799
42688W        W14414  26.623  38.481   1.371
42689W        W14415  31.197  40.846   0.859
42690W        W14416  18.907  30.561  10.507
42691W        W14417  19.719  16.590  12.334
42692W        W14418  36.159  41.209  12.521
42693W        W14419  18.058  32.858   1.423
42694W        W14420  37.646  38.835   1.953
42695W        W14421  34.009  13.054  12.079
42696W        W14422  40.479  39.265  13.739
42697W        W14423  38.719   3.583   3.949
42698W        W14424  30.954  40.875   1.734
42699W        W14425  13.567  24.654  12.852
42700W        W14426  37.853   8.799  13.083
42701W        W14427   2.216  10.357   0.875
42702W        W14428  44.898  33.275  10.694
42703W        W14429   2.643  27.127  12.519
42704W        W14430  34.631   8.077  12.386
42705W        W14431  40.053  34.611   1.405
42706W        W14432  10.838   7.282   4.053
42707W        W14433  38.506  20.170   0.193
42708W        W14434  34.867   2.433   0.681
42709W        W14435  14.053  42.865  10.649
42710W        W14436  25.032  21.696   3.693
42711W        W14437  13.653  39.334   4.954
42712W        W14438  29.615  41.892   4.862
42713W        W14439  23.796  32.726  11.450
42714W        W14440  43.683  43.355   4.659
42715W        W14441  38.806   6.206  14.147
42716W        W14442  20.107   2.278  13.856
42717W        W14443  29.629  25.634   5.022
42718W        W14444   7.597  31.074  14.114
42719W        W14445  28.382  20.710  11.068
42720W        W14446   0.493  12.030   1.453
42721W        W14447   3.905  23.002  12.634
42722W        W14448  16.768   1.941  14.496
42723W        W14449  22.095  40.916  12.831
42724W        W14450  42.721   5.174  12.100
42725W        W14451   1.436  16.614  11.023
42726W        W14452  24.048   1.121  10.586
42727W        W14453  22.490  33.548   2.681
42728W        W14454  34.993  35.070  11.727
42729W        W14455   9.212  41.764  10.875
42730W        W14456   1.412  23.771   0.343
42731W        W14457  34.025  15.294  14.439
42732W        W14458  25.920  36.429  11.174
42733W        W14459  37.590  13.492   2.605
42734W        W14460  20.996  33.472   0.939
42735W        W14461  11.708  41.747  11.170
42736W        W14462  43.281   7.296  12.942
42737W        W14463  42.939   9.285   1.335
42738W        W14464  13.150  25.294   0.980
42739W        W14465  16.819  15.956  11.387
42740W        W14466  13.294  11.673   3.837
42741W        W14467  34.056  26.862   0.891
42742W        W14468  10.291   9.210  12.490
42743W        W14469  30.754  35.972  11.566
42744W        W14470  27.386  32.666   0.879
42745W        W14471  20.552  28.558   4.891
42746W        W14472  14.657  41.884   0.236
42747W        W14473   0.274  16.059   1.844
42748W        W14474  10.875  27.964  11.438
42749W        W14475  34.456  18.038   1.216
42750W        W14476  14.133  16.094  12.996
42751W        W14477  11.032  28.789   0.058
42752W        W14478   1.929   5.343  13.955
42753W        W14479  17.381  36.425  10.426
42754W        W14480  37.402   8.736   1.687
42755W        W14481  16.324  15.103   0.931
42756W        W14482   2.324  17.690  14.504
42757W        W14483  37.538  36.490  14.875
42758W        W14484  27.110  21.177   1.416
42759W        W14485  22.963  34.599   0.680
42760W        W14486  15.515  40.119   5.401
42761W        W14487  41.824  25.527   1.032
42762W        W14488  18.541  18.195   3.734
42763W        W14489  24.104  22.633   1.258
42764W        W14490  14.327  26.053  13.030
42765W        W14491  34.599  40.706  10.750
42766W        W14492  11.873   5.237  12.014
42767W        W14493  25.136  17.728  14.568
42768W        W14494  41.361   9.177  12.113
42769W        W14495  17.853   3.349  11.096
42770W        W14496  24.428  22.487   4.455
42771W        W14497   3.433  22.258  13.382
42772W        W14498   7.621  38.422  12.327
42773W        W14499  25.018  29.949   1.192
42774W        W14500  13.706  15.108   1.405
42775W        W14501  12.613  24.610   1.987
42776W        W14502  40.560  14.681   3.660
42777W        W14503  19.637  23.740   1.738
42778W        W14504  18.589  33.356   2.121
42779W        W14505  10.826  33.640  13.762
42780W        W14506  29.201   5.910   3.670
42781W        W14507  43.996  21.195  14.953
42782W        W14508  23.180   3.867   1.381
42783W        W14509  15.897  42.457   4.557
42784W        W14510  14.719  26.014   0.864
42785W        W14511  38.845  42.761   4.584
42786W        W14512   2.869  30.426  13.469
42787W        W14513  14.377  10.381  13.056
42788W        W14514  40.314  24.134   0.075
42789W        W14515   5.989  36.844  10.669
42790W        W14516   0.986  44.544   1.051
42791W        W14517  11.094  33.610   0.992
42792W        W14518  17.832  16.263  12.860
42793W        W14519  26.736   4.813   3.369
42794W        W14520  23.292  24.540   1.261
42795W        W14521  38.426   7.310  13.158
42796W        W14522  44.679   7.065  12.099
42797W        W14523  30.932  39.557   0.491
42798W        W14524  35.280   7.979  13.073
42799W        W14525  31.160   1.782   0.459
42800W        W14526  13.637  25.763  12.253
42801W        W14527   9.180  28.769   4.570
42802W        W14528  17.065  41.898   1.390
42803W        W14529  21.234  14.385  10.207
42804W        W14530  13.237  33.478  10.552
42805W        W14531  42.775   2.961  11.444
42806W        W14532  29.465  13.087   2.162
42807W        W14533  28.678   5.149   2.647
42808W        W14534  37.184  13.810  11.106
42809W        W14535  43.216   0.160   0.928
42810W        W14536  27.275  33.008  10.567
42811W        W14537   4.359   0.392   2.907
42812W        W14538  28.617  12.151   2.366
42813W        W14539  30.032   0.550   2.749
42814W        W14540  13.308  26.001   0.026
42815W        W14541  19.635  27.130  13.418
42816W        W14542   0.833  18.193   3.866
42817W        W14543  43.465  29.970   1.410
42818W        W14544  26.889  40.929   4.128
42819W        W14545  34.545  38.537  12.454
42820W        W14546  11.302   8.233   1.258
42821W        W14547   9.187  25.432  11.837
42822W        W14548  28.181  18.202   4.700
42823W        W14549  17.067  37.370  13.337
42824W        W14550  34.822  25.492   0.352
42825W        W14551  40.344  24.106   2.761
42826W        W14552  42.959  10.402   0.026
42827W        W14553   6.881  30.545  13.964
42828W        W14554  15.581   8.140   4.642
42829W        W14555  29.750  19.498  11.537
42830W        W14556   7.235  29.370  12.331
42831W        W14557  40.276  11.790   2.349
42832W        W14558  28.007   4.288   0.401
42833W        W14559  25.950   3.977   3.847
42834W        W14560  22.454  33.007  11.153
42835W        W14561  27.619  20.322  13.386
42836W        W14562   8.331  27.538   4.776
42837W        W14563  14.077  35.893  11.458
42838W        W14564  36.512  27.407   4.517
42839W        W14565   2.500  43.056  11.378
42840W        W14566   5.910  38.866   3.406
42841W        W14567  41.076   3.623  13.846
42842W        W14568  11.826  21.457   0.793
42843W        W14569  23.136   4.381   1.387
42844W        W14570  27.072   9.591  14.919
42845W        W14571  29.552  33.569  10.635
42846W        W14572  42.314  10.391   3.824
42847W        W14573  36.510  35.608  14.750
42848W        W14574  29.497   6.146  12.995
42849W        W14575  36.071  22.827  12.053
42850W        W14576  31.448   1.206  12.432
42851W        W14577   1.862  15.654   1.901
42852W        W14578   4.660  29.171  10.768
42853W        W14579  10.398  14.447  12.463
42854W        W14580   0.337  15.115  10.787
42855W        W14581  22.737  11.089  11.078
42856W        W14582  24.797   0.490  13.497
42857W        W14583  29.620  28.694   3.653
42858W        W14584  20.347  21.560  13.806
42859W        W14585  39.009   7.397  14.880
42860W        W14586  28.146  31.626  13.863
42861W        W14587   7.642  29.000   1.369
42862W        W14588   3.703  36.764   2.397
42863W        W14589  37.098   8.563   2.246
42864W        W14590   5.425  21.612  14.763
42865W        W14591  29.202  23.522   4.185
42866W        W14592  32.984   7.781   3.238
42867W        W14593  13.711  36.572   0.818
42868W        W14594  21.754  26.597   0.535
42869W        W14595   6.220  44.896  14.543
42870W        W14596  34.518   0.801   0.820
42871W        W14597  42.367   7.125  13.395
42872W        W14598  40.327  24.027  14.020
42873W        W14599  44.182  16.621  13.865
42874W        W14600  26.479  15.754   9.964
42875W        W14601   6.701  21.160   3.781
42876W        W14602  41.317  35.108   4.593
42877W        W14603   1.313   1.842  13.603
42878W        W14604  18.259   8.181   3.154
42879W        W14605  15.723  16.747  11.661
42880W        W14606  25.248  33.878   4.844
42881W        W14607  41.332  28.852  14.320
42882W        W14608  39.030  41.776   2.220
42883W        W14609  27.474  37.460   4.806
42884W        W14610   1.723  13.177  12.527
42885W        W14611   2.874  27.237   2.911
42886W        W14612  24.646  37.342  12.168
42887W        W14613  14.154  30.860   2.759
42888W        W14614  10.463  21.596  10.522
42889W        W14615  29.956  17.183   1.486
42890W        W14616   7.240   9.343   0.349
42891W        W14617  21.161  26.440   4.152
42892W        W14618  28.052  37.369  11.511
42893W        W14619   3.320  14.546  10.084
42894W        W14620  14.338   6.620  11.165
42895W        W14621  16.711  12.162  12.530
42896W        W14622   5.050  40.445   2.126
42897W        W14623  26.589  43.277   4.557
42898W        W14624   5.831  31.620  14.111
42899W        W14625  17.231  33.572  10.631
42900W        W14626  17.329  12.951  13.973
42901W        W14627   0.036  19.322  11.533
42902W        W14628  40.878  21.833  11.717
42903W        W14629  21.067   7.375  13.481
42904W        W14630  12.196  19.206   1.873
42905W        W14631  36.905  17.857   3.585
42906W        W14632  26.435   3.051   3.154
42907W        W14633  43.060  25.026   2.259
42908W        W14634  16.194  39.425   3.833
42909W        W14635  12.325  22.128   2.013
42910W        W14636  21.766  22.237  13.486
42911W        W14637  10.878  28.236   1.796
42912W        W14638  11.284  21.260   2.670
42913W        W14639  12.318  25.187   0.513
42914W        W14640  25.612   2.768   0.506
42915W        W14641   7.663  15.753   2.364
42916W        W14642  29.583  42.318   4.582
42917W        W14643  29.931  38.756  12.164
42918W        W14644  42.464  36.895  13.989
42919W        W14645   9.972  28.680  12.095
42920W        W14646  37.469  33.965  10.449
42921W        W14647  22.529   6.692  14.770
42922W        W14648  38.908  31.642   0.513
42923W        W14649  13.325   0.440   2.058
42924W        W14650   4.220  39.531   0.426
42925W        W14651  38.538  39.238  12.987
42926W        W14652   0.028  36.253   3.695
42927W        W14653  26.179  15.053  11.606
42928W        W14654  41.046   2.388   1.207
42929W        W14655   2.958  26.954   3.398
42930W        W14656  42.474  36.038   2.432
42931W        W14657   9.873  31.967   4.695
42932W        W14658  27.002  20.881   3.184
42933W        W14659   3.994  12.401  11.478
42934W        W14660  37.031  30.661   0.949
42935W        W14661  31.637  13.381  11.636
42936W        W14662  17.262   4.403  10.601
42937W        W14663  19.936   7.053  10.314
42938W        W14664   2.840   0.578   1.470
42939W        W14665  11.404   5.950  13.597
42940W        W14666  28.910  34.982  12.399
42941W        W14667  35.536   3.806   0.920
42942W        W14668  39.356  16.795   1.401
42943W        W14669  21.279  24.049   1.284
42944W        W14670  28.095  41.754   0.386
42945W        W14671  34.586  13.897   3.271
42946W        W14672  42.622   4.812  10.708
42947W        W14673  43.543  24.566  14.841
42948W        W14674  16.229  33.584  10.379
42949W        W14675  14.184  36.570  10.646
42950W        W14676   4.769  27.940   3.315
42951W        W14677  28.733  20.774   1.880
42952W        W14678  26.850  17.783   2.707
42953W        W14679  18.248  34.934  12.549
42954W        W14680   8.310  14.895  10.923
42955W        W14681  35.523   0.652  14.909
42956W        W14682   7.258   9.304  11.205
42957W        W14683  14.711  34.876  13.375
42958W        W14684  20.238  24.516   3.202
42959W        W14685   2.641  38.426  12.488
42960W        W14686  17.497   8.492   5.102
42961W        W14687  36.876  22.113   1.927
42962W        W14688  18.472  18.907   2.215
42963W        W14689  39.476   7.316   2.623
42964W        W14690  40.912  28.857  14.012
42965W        W14691  24.077  32.990   0.816
42966W        W14692  18.126   7.272   4.127
42967W        W14693  39.288   1.227  11.572
42968W        W14694  36.044  13.843  13.558
42969W        W14695  26.911   6.721   1.919
42970W        W14696  29.164   1.982  11.025
42971W        W14697  41.831  22.825  12.588
42972W        W14698  29.407  23.809   3.808
42973W        W14699  35.172   6.901   4.539
42974W        W14700  17.168  18.345  12.462
42975W        W14701   5.708  40.625  10.444
42976W        W14702  42.062   9.108   1.450
42977W        W14703  30.265  43.328   1.913
42978W        W14704  27.674  37.523   3.107
42979W        W14705  38.221  36.116   1.197
42980W        W14706  23.015  34.510  12.130
42981W        W14707   7.995  40.416   2.033
42982W        W14708  38.426  19.006  11.180
42983W        W14709   0.033  20.758  11.040
42984W        W14710   6.722  21.177  12.013
42985W        W14711  35.785  35.961  13.516
42986W        W14712  11.670   8.387  13.912
42987W        W14713  36.472  13.766  13.251
42988W        W14714  24.060  33.814  11.148
42989W        W14715  24.159  13.990   4.094
42990W        W14716  25.999  21.432   4.531
42991W        W14717  23.933  41.541   0.962
42992W        W14718  20.464  20.065  13.071
42993W        W14719  19.160  28.170  12.500
42994W        W14720  31.918   9.814  11.538
42995W        W14721   5.297  17.796   2.863
42996W        W14722  10.881  17.107  10.334
42997W        W14723   2.237  12.364   0.881
42998W        W14724   2.017  12.578  11.591
42999W        W14725  23.038  21.527   4.545
43000W        W14726  26.138  18.942  11.721
43001W        W14727  29.172  18.221   0.848
43002W        W14728   1.934   6.708   4.637
43003W        W14729  21.205  42.317  13.096
43004W        W14730  27.190   0.899   4.788
43005W        W14731  14.728  11.580  11.466
43006W        W14732   6.724   9.305  11.122
43007W        W14733  20.706  35.138   4.387
43008W        W14734  11.360  24.204  14.470
43009W        W14735  11.555  26.559   0.493
43010W        W14736  28.016  25.498   0.926
43011W        W14737  23.122   9.134   2.376
43012W        W14738  26.629  30.518  10.351
43013W        W14739  19.119  29.713  10.874
43014W        W14740  16.066  17.111   3.622
43015W        W14741  39.041  42.349  10.754
43016W        W14742  19.195   3.465  11.936
43017W        W14743  35.379  35.947  12.124
43018W        W14744  13.220  14.531   3.273
43019W        W14745   6.742   6.403  12.924
43020W        W14746  35.437   9.799  11.109
43021W        W14747  34.531  17.688   4.684
43022W        W14748  25.697  16.264   1.776
43023W        W14749   7.371   0.949  11.472
43024W        W14750  21.214  11.084  13.499
43025W        W14751  35.574  40.596  14.805
43026W        W14752  40.288  42.592  11.183
43027W        W14753   3.436  20.915  12.767
43028W        W14754   6.958   9.559  11.690
43029W        W14755  33.402  21.321   4.248
43030W        W14756  26.364  12.589   4.493
43031W        W14757  12.582  33.654  12.788
43032W        W14758   2.244  26.171  12.522
43033W        W14759  31.043  35.798   3.645
43034W        W14760  19.699  44.998   4.658
43035W        W14761  10.647   7.356  10.770
43036W        W14762  12.087  24.622  13.676
43037W        W14763  16.202  42.534  11.137
43038W        W14764   8.806  24.600  10.118
43039W        W14765  43.073  27.463   1.291
43040W        W14766  30.943  34.348  14.861
43041W        W14767  29.434  41.435   4.464
43042W        W14768  42.638  27.420   2.228
43043W        W14769  23.603  39.738  10.758
43044W        W14770  15.786  18.290   4.919
43045W        W14771  33.527  29.203   0.470
43046W        W14772  41.858   9.267  12.105
43047W        W14773   7.708  19.589  13.900
43048W        W14774  28.734   2.827   1.710
43049W        W14775   9.391   9.345   3.704
43050W        W14776  33.369  13.913   3.873
43051W        W14777  19.144   1.467   3.296
43052W        W14778   3.852  38.387  13.395
43053W        W14779   7.711  27.038  12.028
43054W        W14780  43.830  12.793  10.725
43055W        W14781   7.856  21.115  11.244
43056W        W14782  33.891  22.456  11.506
43057W        W14783  42.838  26.092  10.659
43058W        W14784   0.374  32.818   0.987
43059W        W14785  33.869  39.071   0.358
43060W        W14786   4.335  18.819  11.565
43061W        W14787  41.618  33.832  13.954
43062W        W14788  15.009  36.889  11.558
43063W        W14789   3.661  34.086   0.878
43064W        W14790  13.664  22.282   4.020
43065W        W14791   0.869  44.618  11.201
43066W        W14792   9.211  21.761  14.888
43067W        W14793   6.153  30.991   1.941
43068W        W14794   8.369  43.771  11.135
43069W        W14795  21.218  13.309   5.005
43070W        W14796   1.882  32.866  11.415
43071W        W14797  28.149   0.820  14.054
43072W        W14798  40.403  21.936   1.379
43073W        W14799  34.046  10.537   0.049
43074W        W14800  43.080  24.142   1.837
43075W        W14801  13.261  26.444   4.130
43076W        W14802  27.623  17.773   1.377
43077W        W14803  37.289   1.769   3.226
43078W        W14804  13.364  30.403   4.650
43079W        W14805  36.115  31.829   1.507
43080W        W14806  24.097  24.731  14.493
43081W        W14807   6.379  23.097  11.121
43082W        W14808   3.290  17.533   0.950
43083W        W14809  31.594  15.314  13.253
43084W        W14810  40.607  37.459  12.723
43085W        W14811  26.380   7.341   2.659
43086W        W14812  12.262  31.127  11.136
43087W        W14813  31.760   4.903   4.986
43088W        W14814  44.865  10.068  10.327
43089W        W14815  21.538  13.821   0.466
43090W        W14816  10.803   0.555   2.278
43091W        W14817  17.535   8.168   1.825
43092W        W14818   1.288  24.728  13.647
43093W        W14819  19.479  24.238   3.359
43094W        W14820  15.209  21.653   0.255
43095W        W14821  37.816  11.611  11.086
43096W        W14822  19.143  25.490  11.860
43097W        W14823  22.787  16.333  12.643
43098W        W14824  21.691   4.423  14.586
43099W        W14825   7.389  20.213  10.654
43100W        W14826   4.534  35.930  13.396
43101W        W14827  20.209  18.653   3.341
43102W        W14828  28.478  37.355   4.721
43103W        W14829  30.941  22.522   0.824
43104W        W14830  20.866  15.221  11.660
43105W        W14831  15.318  37.376   1.263
43106W        W14832  27.003  24.313   3.719
43107W        W14833   4.826  43.076   3.196
43108W        W14834   9.202  10.451  14.487
43109W        W14835  30.339  10.742  12.430
43110W        W14836  34.428  33.660   2.914
43111W        W14837  33.358  17.478   0.208
43112W        W14838  39.185   5.249  10.585
43113W        W14839  13.692  14.213   3.975
43114W        W14840  20.284   1.147  11.353
43115W        W14841  11.353  32.394   3.555
43116W        W14842  10.370  39.131  14.724
43117W        W14843   2.308  23.822  13.850
43118W        W14844  42.064  37.389   4.478
43119W        W14845   0.947   7.149   1.151
43120W        W14846  41.365   6.834   2.386
43121W        W14847   1.689  33.442  13.996
43122W        W14848   1.618  33.044   0.952
43123W        W14849  12.711  28.893   1.944
43124W        W14850  23.990  33.492   0.527
43125W        W14851  18.625  29.577  13.678
43126W        W14852  38.370  20.305  10.615
43127W        W14853  30.103  24.272  10.127
43128W        W14854  33.988   2.036   2.381
43129W        W14855  20.128  39.326   1.546
43130W        W14856  26.555  22.812   1.349
43131W        W14857  11.084   6.032   4.574
43132W        W14858  16.051  29.081   3.196
43133W        W14859  37.999  12.992  11.005
43134W        W14860  37.594  36.110   3.663
43135W        W14861  26.284   1.753  14.383
43136W        W14862  42.956  18.466   0.943
43137W        W14863  25.723   5.232   4.145
43138W        W14864  42.853  41.307  12.321
43139W        W14865  34.805  12.695  11.152
43140W        W14866  38.366   8.610  11.429
43141W        W14867  20.456  22.271   2.759
43142W        W14868  13.888  16.647  10.711
43143W        W14869  13.411   9.537   1.551
43144W        W14870  22.091  16.895   3.809
43145W        W14871   8.800  36.329  12.369
43146W        W14872  40.332  38.588  10.553
43147W        W14873  27.758  25.667  10.597
43148W        W14874  20.444  32.652   3.874
43149W        W14875  38.425  29.349  12.631
43150W        W14876   6.277  41.441  10.428
43151W        W14877  12.409  25.901  13.980
43152W        W14878  25.725  43.872  12.890
43153W        W14879   0.964   7.618   3.817
43154W        W14880  38.356  42.672   3.467
43155W        W14881   4.539  17.899   3.247
43156W        W14882  44.420  16.705  12.083
43157W        W14883  16.570   4.411  14.313
43158W        W14884   1.101  39.049  12.972
43159W        W14885  41.838  14.507  12.735
43160W        W14886  35.849   4.136  14.789
43161W        W14887  29.639   2.826   1.145
43162W        W14888  15.858  10.241   0.704
43163W        W14889  41.544   1.533   4.823
43164W        W14890  21.052  33.952   4.399
43165W        W14891   2.578  18.289   2.781
43166W        W14892   3.838  14.842  13.337
43167W        W14893  40.990  23.943   0.846
43168W        W14894   2.819  35.382   2.404
43169W        W14895  19.532  38.507  10.636
43170W        W14896  19.727  24.527  11.298
43171W        W14897  37.401  36.031  13.742
43172W        W14898  38.203  31.410  14.998
43173W        W14899  38.038  10.675   2.699
43174W        W14900  29.419  42.832   3.846
43175W        W14901  32.944  22.732  14.837
43176W        W14902   3.388  21.910  13.012
43177W        W14903  43.687  32.719  10.767
43178W        W14904  33.079  40.465  14.431
43179W        W14905  15.924  16.631   3.798
43180W        W14906  17.245  32.301  11.832
43181W        W14907  35.422   8.582  12.620
43182W        W14908  19.787  33.098  13.024
43183W        W14909  12.514  37.093   2.601
43184W        W14910   3.184  43.407   0.894
43185W        W14911  41.991   0.444   0.754
43186W        W14912  26.189  16.922   4.444
43187W        W14913   3.921   6.681  11.563
43188W        W14914  25.906  14.725   4.073
43189W        W14915  29.352  21.364  11.179
43190W        W14916  39.648  25.007  11.921
43191W        W14917  30.709   5.793   2.489
43192W        W14918  27.088   1.231   1.820
43193W        W14919   8.068  34.051   0.380
43194W        W14920  33.839  42.447  11.609
43195W        W14921  29.635  22.582   1.656
43196W        W14922  16.545  44.014  12.509
43197W        W14923   0.232  34.318  12.490
43198W        W14924   1.745  44.032  11.191
43199W        W14925  43.850   1.461   0.289
43200W        W14926  35.573  10.353  11.174
43201W        W14927   1.778  41.298  13.288
43202W        W14928  12.326  12.051  10.638
43203W        W14929   0.752   4.478   0.178
43204W        W14930  41.376  19.750   4.485
43205W        W14931  31.623  23.123  12.923
43206W        W14932   9.240   6.295   2.271
43207W        W14933  34.535  40.317  12.904
43208W        W14934  17.999   1.973  11.112
43209W        W14935  36.084  22.692   0.421
43210W        W14936   2.953  40.271  13.492
43211W        W14937  23.608  27.281   1.163
43212W        W14938  22.505  13.186  14.333
43213W        W14939  34.362  14.354  10.712
43214W        W14940  41.462   7.206  12.986
43215W        W14941   4.846   5.985   0.845
43216W        W14942  10.548   4.098   4.222
43217W        W14943  28.050  31.426  14.805
43218W        W14944   1.509  36.112   4.221
43219W        W14945  23.131  44.688  10.610
43220W        W14946  38.331   4.179   0.128
43221W        W14947  39.344  25.642   3.364
43222W        W14948   7.949  29.734   0.847
43223W        W14949   1.801  13.581   0.685
43224W        W14950  34.371  42.302   0.888
43225W        W14951   0.862  44.484  12.122
43226W        W14952  20.757  18.054  12.384
43227W        W14953  17.536  22.485  13.927
43228W        W14954   2.059  17.563  13.951
43229W        W14955  33.654  41.439   1.825
43230W        W14956  42.839   4.478   3.701
43231W        W14957  43.807  26.021   0.016
43232W        W14958  35.034  24.366   2.235
43233W        W14959  39.032  44.995  10.566
43234W        W14960  22.057  27.046   1.093
43235W        W14961  13.829  18.757  14.856
43236W        W14962  23.196   6.525  11.412
43237W        W14963  36.038  30.178   2.273
43238W        W14964  27.865  26.708  11.860
43239W        W14965  12.634   7.810  12.876
43240W        W14966  15.513  30.238  13.597
43241W        W14967  44.693  42.908  12.415
43242W        W14968  23.417   7.458  12.378
43243W        W14969  12.454   1.384   4.631
43244W        W14970  41.045  31.415   2.684
43245W        W14971  35.974  21.521  11.153
43246W        W14972  42.049   1.759  12.033
43247W        W14973  29.829  34.046   2.258
43248W        W14974   0.231  19.770   2.338
43249W        W14975   3.796  27.015   3.944
43250W        W14976  38.897   5.317  11.014
43251W        W14977  21.711  27.717   0.222
43252W        W14978  20.559  25.925  12.935
43253W        W14979  31.593  18.822  11.007
43254W        W14980  19.012   4.111  12.859
43255W        W14981  24.804   3.382   0.706
43256W        W14982  34.210  12.321  11.994
43257W        W14983  30.026  15.169  10.693
43258W        W14984  31.510   8.451   0.426
43259W        W14985  27.105  16.811   2.849
43260W        W14986  40.251  40.231  12.079
43261W        W14987  31.036  11.424  12.945
43262W        W14988  30.701  34.838  10.887
43263W        W14989  44.057  16.795   1.033
43264W        W14990  33.262  33.471  11.265
43265W        W14991   6.878  43.862   0.803
43266W        W14992   1.497   6.069   2.344
43267W        W14993  32.463  37.952  12.791
43268W        W14994  17.329   5.119  14.828
43269W        W14995   1.684  29.547  10.633
43270W        W14996  24.966   3.945   2.907
43271W        W14997   4.414   4.205  11.499
43272W        W14998  12.246   1.330   1.336
43273W        W14999   4.034  15.105   4.626
43274W        W15000   6.788  38.445   2.759
43275W        W15001  30.508  10.493   3.145
43276W        W15002  31.743  25.549  12.613
43277W        W15003  21.971   6.890  13.493
43278W        W15004  33.952   8.777   3.421
43279W        W15005  29.508  40.050   1.595
43280W        W15006  10.108   0.320  14.377
43281W        W15007   8.480  10.169   1.267
43282W        W15008  34.535  42.486  14.499
43283W        W15009  23.308  38.828  13.961
43284W        W15010  36.145  20.933   2.238
43285W        W15011  16.777  36.805  11.005
43286W        W15012  10.207  37.041  14.647
43287W        W15013   4.227  34.140   2.682
43288W        W15014  24.754  34.476   1.732
43289W        W15015   5.519  36.619   2.578
43290W        W15016  10.207  14.108   1.254
43291W        W15017  31.978  27.055   3.720
43292W        W15018   0.579  33.180   4.109
43293W        W15019  19.614  10.681  13.460
43294W        W15020  12.617  37.852   2.313
43295W        W15021  11.366  39.415   0.635
43296W        W15022  39.407  18.555   1.855
43297W        W15023  12.848  41.735   2.325
43298W        W15024   0.448  14.764  11.977
43299W        W15025  21.668  35.357  13.244
43300W        W15026  34.462  30.193   0.291
43301W        W15027  35.938  12.208   4.664
43302W        W15028  40.556  15.743   3.754
43303W        W15029  29.818  42.629   1.411
43304W        W15030  24.127  41.845   3.367
43305W        W15031  12.796  31.072   2.895
43306W        W15032   1.377  33.059  13.874
43307W        W15033   0.974  30.609  11.940
43308W        W15034  26.762   6.140   0.779
43309W        W15035  12.715  24.695   2.983
43310W        W15036  43.462  13.560  14.972
43311W        W15037  28.882  14.024  14.701
43312W        W15038   1.710  12.610   4.278
43313W        W15039  32.602  16.541  13.829
43314W        W15040  24.244  12.699  10.145
43315W        W15041   4.838  28.921   1.532
43316W        W15042  22.306  23.759  11.696
43317W        W15043  43.807  35.601  12.796
43318W        W15044  17.710   7.838  11.106
43319W        W15045  31.819  21.248   0.314
43320W        W15046  44.325  41.430   1.416
43321W        W15047  12.682  16.535  13.479
43322W        W15048  23.977  40.980   3.639
43323W        W15049  13.796  15.165   0.886
43324W        W15050  40.812  21.151   1.967
43325W        W15051  22.435  34.588  14.845
43326W        W15052  12.117  23.494   1.887
43327W        W15053  12.600  40.663   3.724
43328W        W15054  19.783  28.634   0.309
43329W        W15055  21.482  38.311   1.915
43330W        W15056  32.928  11.168   4.689
43331W        W15057  33.045  31.006  12.158
43332W        W15058  24.677  31.046   2.379
43333W        W15059  37.059   3.085  10.620
43334W        W15060   6.797  39.579  13.898
43335W        W15061  21.503  43.543  14.354
43336W        W15062  11.558  29.521  12.419
43337W        W15063  40.911  41.125   0.790
43338W        W15064  12.210   8.097  14.869
43339W        W15065  18.478  22.146  14.965
43340W        W15066   8.599  35.136  11.066
43341W        W15067  43.164  19.736   4.555
43342W        W15068  15.801  23.902  11.984
43343W        W15069  34.317  15.400   0.901
43344W        W15070   2.889   1.299   2.715
43345W        W15071  23.164  30.860   2.207
43346W        W15072  42.815  18.583  10.771
43347W        W15073   3.550  30.634   5.053
43348W        W15074  12.249   7.514   3.506
43349W        W15075  39.822   4.252   0.808
43350W        W15076  14.375  42.304  13.835
43351W        W15077  23.146  43.265   2.395
43352W        W15078   0.268  26.548   4.042
43353W        W15079  29.108  28.676   0.649
43354W        W15080   8.243  21.464  13.833
43355W        W15081  38.720  42.016   1.015
43356W        W15082  19.072  37.010  11.070
43357W        W15083  21.721  14.332  11.550
43358W        W15084  44.733  17.130  12.027
43359W        W15085   8.592   6.858   3.180
43360W        W15086  10.744  41.795   1.000
43361W        W15087  26.873  37.947  12.516
43362W        W15088  16.680  42.562  12.455
43363W        W15089  27.927   2.927   0.416
43364W        W15090  25.598  27.537  11.113
43365W        W15091   0.779   9.838  14.527
43366W        W15092   7.322  30.740   4.679
43367W        W15093  34.643  25.711  13.501
43368W        W15094  24.322  18.202  10.992
43369W        W15095  21.250  29.926  10.777
43370W        W15096  43.487  25.481  10.356
43371W        W15097   7.940  10.122  14.341
43372W        W15098  29.553  37.097   4.178
43373W        W15099  40.556  41.884  12.894
43374W        W15100  44.306  30.087  11.622
43375W        W15101  20.723   8.793   4.327
43376W        W15102  40.305  13.203  10.816
43377W        W15103  42.790  21.160  12.431
43378W        W15104  35.236  24.066  12.056
43379W        W15105   1.457  11.112  13.090
43380W        W15106  24.362  14.426  11.125
43381W        W15107   0.928  42.974   1.205
43382W        W15108   2.740  38.837   1.862
43383W        W15109  23.502  43.294   1.196
43384W        W15110  18.299  17.600  14.307
43385W        W15111  24.091  10.685   1.847
43386W        W15112   6.221  11.127  11.536
43387W        W15113  12.193  30.954  12.431
43388W        W15114  17.272   2.333  14.479
43389W        W15115  15.476  24.463  11.381
43390W        W15116  24.283  20.613  11.538
43391W        W15117   7.863  19.607   4.526
43392W        W15118   3.667  38.861  14.735
43393W        W15119  16.174   8.260  10.611
43394W        W15120  44.815  42.097  11.542
43395W        W15121   5.773  21.005   4.606
43396W        W15122  20.342  27.195  14.005
43397W        W15123  13.877   0.136   2.746
43398W        W15124   8.969  18.759  14.274
43399W        W15125  41.097  13.675   2.887
43400W        W15126  35.513  10.387   0.797
43401W        W15127  44.738   7.101  10.911
43402W        W15128  23.722   3.713   2.032
43403W        W15129  37.418  43.823  10.778
43404W        W15130  38.606  22.060  12.389
43405W        W15131  20.199  18.493   2.839
43406W        W15132  24.456  25.103  14.441
43407W        W15133   1.461  25.352   3.208
43408W        W15134  19.191  28.659   4.603
43409W        W15135  26.735   8.736   4.633
43410W        W15136   5.347  43.816  13.820
43411W        W15137  34.508  13.049  13.524
43412W        W15138   4.971  16.560   1.824
43413W        W15139  12.621   1.411   0.428
43414W        W15140  27.193   6.027   3.636
43415W        W15141  43.771   6.190  12.457
43416W        W15142   9.819  28.007   4.612
43417W        W15143   4.315  30.202   2.856
43418W        W15144  12.565  37.581   1.453
43419W        W15145  30.756  29.117  11.875
43420W        W15146  39.143  31.431   0.929
43421W        W15147  36.540  29.577  14.820
43422W        W15148  33.485  20.053   0.841
43423W        W15149  18.526  36.733   0.344
43424W        W15150  26.169  31.266   2.702
43425W        W15151  13.841  33.992  11.196
43426W        W15152   8.162   2.502   0.500
43427W        W15153  36.081  27.984  10.628
43428W        W15154   2.924  44.490   3.657
43429W        W15155  36.370  27.428  11.691
43430W        W15156  25.686  40.829  13.385
43431W        W15157  15.087  21.056   2.717
43432W        W15158  31.357   5.061  11.919
43433W        W15159  33.565   3.901   1.014
43434W        W15160  38.353  20.739   2.758
43435W        W15161  17.246  28.067  13.310
43436W        W15162  14.710  16.127   0.766
43437W        W15163  35.899  41.851   4.286
43438W        W15164  27.739   4.492  12.925
43439W        W15165  41.584  29.813  12.942
43440W        W15166  22.872   9.242   3.672
43441W        W15167  39.957  36.881  12.936
43442W        W15168  12.118  14.243   4.818
43443W        W15169  44.896   1.485  11.621
43444W        W15170  38.401  41.967   1.433
43445W        W15171   9.451  27.987   1.500
43446W        W15172   9.336  18.846  10.605
43447W        W15173   2.104  26.718   2.382
43448W        W15174  11.263  41.600   4.582
43449W        W15175  40.942  25.037   4.138
43450W        W15176  23.151  16.168  14.040
43451W        W15177  14.289  10.804   3.645
43452W        W15178  29.597  12.206  13.375
43453W        W15179  18.541   1.337  11.881
43454W        W15180  21.857  21.331   1.904
43455W        W15181   5.132  27.076  12.645
43456W        W15182   2.370  22.203   2.143
43457W        W15183  29.532  44.194   5.063
43458W        W15184   8.675  34.072   3.233
43459W        W15185  13.378   4.978   2.686
43460W        W15186  35.181   1.318  11.299
43461W        W15187  44.239  11.188   0.936
43462W        W15188  19.345  20.741   1.875
43463W        W15189  17.601  39.450   5.473
43464W        W15190  32.398  29.369  11.049
43465W        W15191  26.858   4.928  13.903
43466W        W15192  39.114  38.741  13.881
43467W        W15193  37.620  21.692  14.266
43468W        W15194  33.607   5.124   2.866
43469W        W15195  33.071  36.494  10.687
43470W        W15196   0.534  29.354   1.904
43471W        W15197  19.346  18.026   4.137
43472W        W15198  38.524  15.250  14.046
43473W        W15199  29.932  18.851   2.493
43474W        W15200  17.365  38.659   9.749
43475W        W15201   7.330  32.759   2.291
43476W        W15202  28.623  28.590   3.728
43477W        W15203  33.803  11.214  11.727
43478W        W15204  43.769   3.770   4.534
43479W        W15205  17.743  29.671  14.790
43480W        W15206  44.239   2.137   0.441
43481W        W15207  18.709  44.308   1.439
43482W        W15208  18.702  33.459   4.121
43483W        W15209  12.294  24.733  11.341
43484W        W15210  20.463  35.949   3.737
43485W        W15211  39.079   4.173   0.547
43486W        W15212  31.448  20.968  14.481
43487W        W15213  39.046   5.341  13.409
43488W        W15214  44.227   5.755  11.939
43489W        W15215   9.647  14.708  12.468
43490W        W15216  41.538  21.366   3.686
43491W        W15217  17.859  40.626  13.423
43492W        W15218  27.223   0.437  13.024
43493W        W15219  24.483   5.980  14.976
43494W        W15220  37.768  36.936  10.479
43495W        W15221  26.147  18.683  12.851
43496W        W15222   1.741   1.909   4.704
43497W        W15223  27.091  25.268   2.935
43498W        W15224  43.810  34.413   0.878
43499W        W15225  26.604   6.924  14.914
43500W        W15226  14.527  11.144  11.619
43501W        W15227  28.038  36.263  12.463
43502W        W15228  29.206  40.062  12.393
43503W        W15229  36.653  27.173   2.259
43504W        W15230  34.262  42.760   4.931
43505W        W15231  34.102  14.028  11.618
43506W        W15232  17.892  13.550  11.687
43507W        W15233  21.123  27.289   4.629
43508W        W15234   6.203  22.255  13.440
43509W        W15235  15.812   4.836  14.659
43510W        W15236  42.106  42.240  11.135
43511W        W15237   0.901   4.150   2.960
43512W        W15238  20.594  29.322  14.562
43513W        W15239  44.769   8.973   1.222
43514W        W15240  35.923  34.981  14.984
43515W        W15241  29.711  41.573   4.064
43516W        W15242  12.786   9.310  14.726
43517W        W15243  44.464  33.062   0.766
43518W        W15244   3.685  28.701   4.290
43519W        W15245   1.752   1.046  13.244
43520W        W15246  21.212  23.495   2.243
43521W        W15247   3.040  40.765   2.663
43522W        W15248  41.876  42.848  11.928
43523W        W15249   3.805  17.109   2.447
43524W        W15250  24.524  43.719   4.090
43525W        W15251  29.025  20.513   2.219
43526W        W15252  41.052  35.466   0.287
43527W        W15253   7.384  17.232  11.579
43528W        W15254  27.087  18.928   1.042
43529W        W15255  34.910  21.225  12.467
43530W        W15256   7.347   8.851   1.956
43531W        W15257  36.679   2.334   2.029
43532W        W15258  10.292   2.083  11.964
43533W        W15259  21.532  41.416   3.699
43534W        W15260   7.855  44.742   0.275
43535W        W15261  37.943  26.273   1.829
43536W        W15262  18.772   7.850  10.497
43537W        W15263  43.336  14.361   3.277
43538W        W15264   2.574   0.260   2.436
43539W        W15265  28.552   3.327   1.739
43540W        W15266  10.734  42.595   3.731
43541W        W15267  12.544  37.336  10.664
43542W        W15268   5.886  11.814  14.911
43543W        W15269  31.814  17.268   1.899
43544W        W15270  24.992  20.037  13.813
43545W        W15271  41.764  11.381  12.365
43546W        W15272  41.545  26.088   4.662
43547W        W15273  36.035  26.431   3.473
43548W        W15274  40.711  38.958  11.970
43549W        W15275  18.775  20.171  11.149
43550W        W15276  24.332  21.278   1.200
43551W        W15277  31.613  26.445   0.860
43552W        W15278  13.642   6.389   1.233
43553W        W15279  35.500  42.996   3.944
43554W        W15280  25.424   8.289   1.006
43555W        W15281  35.408  13.036   0.384
43556W        W15282  31.643   1.440  12.000
43557W        W15283  34.923   3.426  10.483
43558W        W15284   2.231  27.498  12.002
43559W        W15285  26.295  38.793   2.656
43560W        W15286  23.984   4.189  11.155
43561W        W15287  10.242  16.390   3.120
43562W        W15288  11.516  26.495  13.725
43563W        W15289  15.771  11.440   5.059
43564W        W15290  35.665   6.394   5.017
43565W        W15291  40.324   4.425   4.493
43566W        W15292  41.957  28.691   0.270
43567W        W15293  16.724  14.821  14.928
43568W        W15294  15.384  14.196  10.682
43569W        W15295  35.895  28.069  13.939
43570W        W15296  25.510  36.312  12.064
43571W        W15297  14.272  12.096   4.916
43572W        W15298  35.822  42.262  13.801
43573W        W15299  13.739  23.296  11.856
43574W        W15300   9.973   4.934   0.839
43575W        W15301  10.778  30.120  13.306
43576W        W15302   4.741  22.242   3.928
43577W        W15303  36.461  39.814  10.712
43578W        W15304  14.620  27.221   1.233
43579W        W15305   3.409   1.922   1.778
43580W        W15306  13.675  10.318  14.276
43581W        W15307  11.191   8.213  13.899
43582W        W15308  36.794  18.741   3.633
43583W        W15309  34.995  43.909  11.442
43584W        W15310  19.807  43.724  11.554
43585W        W15311  17.750   8.308   1.348
43586W        W15312  23.749  33.135  13.487
43587W        W15313  34.860   5.949   1.354
43588W        W15314  35.792  22.109   2.759
43589W        W15315  40.513  27.880   4.549
43590W        W15316  43.725  24.169   3.651
43591W        W15317  34.390  37.897  10.748
43592W        W15318  40.840   5.751  11.410
43593W        W15319  18.064  15.270   5.034
43594W        W15320  24.570   6.217  12.431
43595W        W15321  43.899  32.902   1.040
43596W        W15322  10.006  35.762   5.155
43597W        W15323  28.336  35.874  10.447
43598W        W15324  15.077  39.061  13.914
43599W        W15325  33.707  43.089  13.344
43600W        W15326  15.893  42.360   1.878
43601W        W15327   1.216  44.398   3.323
43602W        W15328   8.712  44.404  11.620
43603W        W15329  26.879  16.844  12.885
43604W        W15330  29.489  15.585   4.171
43605W        W15331  42.943  36.458   0.800
43606W        W15332  23.487   6.748   4.356
43607W        W15333   3.594  36.739   0.269
43608W        W15334   5.237  28.432   4.555
43609W        W15335  43.041  32.059   0.897
43610W        W15336  25.018   0.303  12.027
43611W        W15337  32.355  16.730   3.049
43612W        W15338  31.693  28.415  14.873
43613W        W15339  24.951  30.849  11.069
43614W        W15340  31.633  28.052   1.469
43615W        W15341  18.236  15.820  11.616
43616W        W15342  16.987   5.641   4.134
43617W        W15343  37.342  43.370  11.616
43618W        W15344  34.154  29.582  11.465
43619W        W15345  26.978  40.535   4.947
43620W        W15346   4.688  36.364  10.630
43621W        W15347   3.137  40.845  14.788
43622W        W15348  15.120   6.188  11.870
43623W        W15349  18.325  34.979   4.180
43624W        W15350  32.466  28.605  13.641
43625W        W15351   0.316  16.435   3.389
43626W        W15352  26.542   1.241   4.514
43627W        W15353  10.860   6.428   2.214
43628W        W15354   5.928   8.594   2.227
43629W        W15355  10.611  29.635   0.439
43630W        W15356   9.923  22.228  11.098
43631W        W15357  16.338  22.052   2.219
43632W        W15358   1.532  37.308  11.142
43633W        W15359   2.719   7.312  10.604
43634W        W15360  13.944   0.229  12.089
43635W        W15361  27.517  16.681   3.628
43636W        W15362  16.906  33.092   4.449
43637W        W15363  29.559  10.857   1.821
43638W        W15364  10.848  27.515   3.682
43639W        W15365  13.138  26.292   0.893
43640W        W15366   6.880  25.141   1.061
43641W        W15367   5.120   3.998  13.484
43642W        W15368  44.282   4.440  14.744
43643W        W15369   9.946  15.590  10.717
43644W        W15370  25.087   5.910   1.293
43645W        W15371  44.592   6.446   1.901
43646W        W15372  32.958  22.133  10.779
43647W        W15373  28.034  28.732  11.040
43648W        W15374  19.142  26.103   4.734
43649W        W15375  40.274   7.807  11.018
43650W        W15376  19.661  10.414   0.758
43651W        W15377  20.270   0.232   4.401
43652W        W15378  38.687  10.804   1.275
43653W        W15379   3.864   9.990   0.733
43654W        W15380  13.774  18.158   2.673
43655W        W15381   2.271  30.808   0.150
43656W        W15382   0.988  19.619  10.284
43657W        W15383  24.398  33.044  14.595
43658W        W15384  40.478  26.525   2.411
43659W        W15385   6.380  20.926   2.443
43660W        W15386  25.240  13.661   2.140
43661W        W15387   3.173  13.014   0.945
43662W        W15388  14.021  17.932  12.548
43663W        W15389  44.570  43.755  11.956
43664W        W15390  12.127  34.501  10.707
43665W        W15391  21.005  28.062  14.053
43666W        W15392   4.698   7.937   1.777
43667W        W15393  37.598  36.855  12.672
43668W        W15394  42.500  12.686  13.910
43669W        W15395  22.441  35.715   9.975
43670W        W15396   0.022  27.832   2.365
43671W        W15397  27.211   5.336  13.833
43672W        W15398  31.949   3.797   3.629
43673W        W15399  29.218   5.377   1.695
43674W        W15400  24.005  25.226   1.860
43675W        W15401  10.783   8.669   1.206
43676W        W15402   5.029   5.338  12.595
43677W        W15403  40.422   8.596   0.033
43678W        W15404  28.417   3.441  10.387
43679W        W15405  23.660   9.485  13.984
43680W        W15406  38.259  38.262  12.209
43681W        W15407  33.646  26.462  12.507
43682W        W15408  14.409  39.847  13.430
43683W        W15409  43.433  16.827  12.796
43684W        W15410  33.347  39.486  12.085
43685W        W15411  22.175   8.370   4.744
43686W        W15412   3.371   0.460   4.214
43687W        W15413  32.179  38.326   3.393
43688W        W15414  30.958  41.008  13.556
43689W        W15415  39.328   9.862   4.965
43690W        W15416  34.036  12.659  12.468
43691W        W15417  32.147  37.574   1.989
43692W        W15418  11.779  43.782   4.736
43693W        W15419   0.936  21.082  14.820
43694W        W15420  35.248  17.902  12.021
43695W        W15421  14.374   4.084  13.029
43696W        W15422  37.860  24.131  12.236
43697W        W15423  25.177  42.619   0.550
43698W        W15424  40.443   3.488   3.216
43699W        W15425  18.779  19.811  14.373
43700W        W15426  31.539   1.123   2.822
43701W        W15427   1.591   2.488   1.339
43702W        W15428  26.709   7.793  13.764
43703W        W15429  30.904  22.199   0.234
43704W        W15430  25.083  41.543  11.906
43705W        W15431  11.747   9.151   1.803
43706W        W15432  27.536  25.522  13.895
43707W        W15433   6.692  34.596  11.904
43708W        W15434   1.043  19.405  14.242
43709W        W15435  40.901  15.602   4.134
43710W        W15436  38.041  36.654   2.182
43711W        W15437   3.975  37.604  12.892
43712W        W15438   4.645  11.804  13.589
43713W        W15439  22.703  30.586   2.330
43714W        W15440  27.228   1.323  12.893
43715W        W15441  42.349   0.956   0.441
43716W        W15442  28.653  44.170  13.442
43717W        W15443  26.278  40.463   2.329
43718W        W15444  41.166  36.773   4.192
43719W        W15445  10.370   8.672  12.905
43720W        W15446  30.341  31.016   2.030
43721W        W15447  33.586  44.012   5.086
43722W        W15448  42.284   7.205   2.342
43723W        W15449   8.562  17.202  12.296
43724W        W15450   8.229  34.556   0.364
43725W        W15451  41.067   7.321  14.995
43726W        W15452  11.749  12.987  14.398
43727W        W15453  10.940  13.832   2.901
43728W        W15454  10.859  36.874  13.821
43729W        W15455   4.464   8.901  13.670
43730W        W15456  30.787   8.238   3.665
43731W        W15457   3.957   5.989   1.159
43732W        W15458  20.704  11.230  13.437
43733W        W15459  33.323   2.520   0.961
43734W        W15460  18.810  14.794   1.608
43735W        W15461  38.038  32.438   4.579
43736W        W15462  26.897  42.206  10.911
43737W        W15463  32.046  11.197   3.171
43738W        W15464  12.574  32.144  14.990
43739W        W15465  30.614   0.029  13.939
43740W        W15466   7.852  33.654   3.337
43741W        W15467  27.843  35.431   3.136
43742W        W15468   2.735  35.941   5.113
43743W        W15469  24.511  21.653   3.100
43744W        W15470   4.957  11.885  11.629
43745W        W15471  24.347  41.345   0.746
43746W        W15472  24.530  33.119  12.852
43747W        W15473  16.686  20.122   0.398
43748W        W15474  32.861  12.372   1.246
43749W        W15475  36.773   2.974  13.684
43750W        W15476  25.530  17.701   4.907
43751W        W15477  44.578  35.270   4.080
43752W        W15478  33.848   4.260  10.711
43753W        W15479   1.357  38.946   0.297
43754W        W15480  16.244   1.353   0.935
43755W        W15481  20.942  21.682  14.846
43756W        W15482  44.813   7.798  13.598
43757W        W15483  31.093   2.911   2.060
43758W        W15484  21.597   3.992  12.126
43759W        W15485   0.874  43.312  14.328
43760W        W15486  26.635   8.615  12.823
43761W        W15487  41.340  23.058   0.244
43762W        W15488   2.916   4.500  10.767
43763W        W15489  33.016  25.273  14.194
43764W        W15490  23.154  39.454   2.307
43765W        W15491  22.965  17.107   0.383
43766W        W15492   4.994  11.737   4.513
43767W        W15493  18.799  40.487   2.232
43768W        W15494  20.415   1.199  13.598
43769W        W15495  21.311  10.394   1.047
43770W        W15496  21.248  34.336  12.447
43771W        W15497   9.350   5.942   1.895
43772W        W15498  34.684  42.561  11.947
43773W        W15499  33.110  36.176  12.949
43774W        W15500  42.030   6.455  10.759
43775W        W15501  43.415  32.293   1.175
43776W        W15502  44.387  31.368   2.410
43777W        W15503  14.816  29.686  11.506
43778W        W15504  20.788  25.637   2.701
43779W        W15505  10.633  35.521   0.919
43780W        W15506  29.522   0.973   0.464
43781W        W15507  35.892  19.130   1.169
43782W        W15508  16.206  37.450   5.499
43783W        W15509  25.260  39.389  11.883
43784W        W15510  11.657  41.976   4.608
43785W        W15511  20.492  12.520   1.304
43786W        W15512  16.265  26.073  11.962
43787W        W15513  24.640  17.370  11.933
43788W        W15514  36.290  25.703  11.018
43789W        W15515  11.119  25.297   3.335
43790W        W15516  44.954   6.242  11.144
43791W        W15517  18.507  11.068  11.188
43792W        W15518  17.091  23.510   0.052
43793W        W15519  20.959  22.672  12.516
43794W        W15520  24.508  24.161  14.943
43795W        W15521   9.676  37.783  13.431
43796W        W15522  19.663  44.767  14.117
43797W        W15523   8.398  14.615  14.498
43798W        W15524  31.369  24.139  14.314
43799W        W15525  35.519  34.383   0.779
43800W        W15526  11.823  42.842  13.490
43801W        W15527  33.874  22.050   0.354
43802W        W15528   6.368  11.645   3.374
43803W        W15529   0.018  38.320  14.378
43804W        W15530   9.605   7.954  12.092
43805W        W15531   1.610  32.100   3.302
43806W        W15532  19.654   2.121   1.675
43807W        W15533  27.965  37.348  13.723
43808W        W15534  13.848   9.905   2.293
43809W        W15535   5.180  10.785   2.759
43810W        W15536  20.087  26.889  13.376
43811W        W15537  37.620  41.770  11.652
43812W        W15538  39.454   4.367  14.307
43813W        W15539  44.016   0.183  11.932
43814W        W15540  31.722  31.608  14.780
43815W        W15541  13.558  13.189  11.634
43816W        W15542  17.834   0.321   4.642
43817W        W15543  43.335  17.253  13.072
43818W        W15544  28.599  22.566   3.143
43819W        W15545  44.306  35.746   4.204
43820W        W15546  42.089  21.613  12.960
43821W        W15547  23.203  36.440   1.620
43822W        W15548  35.848  36.065   3.220
43823W        W15549  41.300  36.687   3.382
43824W        W15550  35.856  44.485   3.255
43825W        W15551  24.761  42.936   1.721
43826W        W15552  33.498  43.077  10.634
43827W        W15553   7.564  17.626  12.848
43828W        W15554  33.993   7.211   3.651
43829W        W15555   3.220  24.978  14.043
43830W        W15556  39.091  26.087  11.889
43831W        W15557   5.365  42.819   0.785
43832W        W15558  31.481  34.374  10.975
43833W        W15559  11.204  20.263   4.610
43834W        W15560  37.768  29.551   2.797
43835W        W15561  40.269  30.879   4.257
43836W        W15562   0.877  27.635  14.066
43837W        W15563  29.049  25.487   3.849
43838W        W15564  16.082   7.778  12.620
43839W        W15565  25.584   0.848  10.666
43840W        W15566  12.191  21.351   3.561
43841W        W15567  27.514  27.537  14.170
43842W        W15568  39.801  19.499  12.012
43843W        W15569  44.490   5.812  11.490
43844W        W15570   9.426  31.203   1.299
43845W        W15571  39.745  44.310  12.563
43846W        W15572  16.760  36.556  13.043
43847W        W15573  18.348  13.662  11.204
43848W        W15574  43.785  38.694  13.824
43849W        W15575  17.007  36.837   0.919
43850W        W15576  44.751  20.671   2.354
43851W        W15577  26.667  26.931  14.490
43852W        W15578  34.616  40.077  13.372
43853W        W15579  39.002  41.068   4.188
43854W        W15580  23.264  27.590   1.425
43855W        W15581  44.006  41.774   2.391
43856W        W15582   5.718  35.941  11.859
43857W        W15583  24.151  43.787   1.664
43858W        W15584  34.451  37.611  13.313
43859W        W15585   6.672  19.110  12.010
43860W        W15586   3.430  27.425  11.687
43861W        W15587  13.784  36.307   2.852
43862W        W15588  16.821  18.565  11.201
43863W        W15589  34.508   5.152   3.703
43864W        W15590  41.342  16.347  11.590
43865W        W15591  41.447  19.685  14.417
43866W        W15592  23.521  40.807   0.396
43867W        W15593  25.558  43.764  13.888
43868W        W15594  19.686  14.734   5.130
43869W        W15595  26.894  29.203   0.263
43870W        W15596   4.419   2.826   3.198
43871W        W15597   5.965   3.261  12.509
43872W        W15598   9.754  22.279  11.583
43873W        W15599  19.522  12.159  13.400
43874W        W15600  29.517   6.671   1.885
43875W        W15601  40.623   7.229   3.307
43876W        W15602  15.722   9.773   3.808
43877W        W15603  38.132   3.791  14.335
43878W        W15604  30.889  23.468  11.929
43879W        W15605  15.744  19.731   2.730
43880W        W15606  24.574  37.970   1.475
43881W        W15607  11.360  34.057   0.860
43882W        W15608   7.645  24.112  10.717
43883W        W15609  35.856  32.593  10.644
43884W        W15610  26.360  32.275  12.714
43885W        W15611  12.824  15.836   4.486
43886W        W15612  18.645   0.533   4.012
43887W        W15613  42.108  22.452  11.866
43888W        W15614  42.790  34.970  10.436
43889W        W15615  10.335  41.893   1.848
43890W        W15616  16.241   3.479   0.756
43891W        W15617  13.756  18.037   3.831
43892W        W15618  20.300   5.894   4.182
43893W        W15619  43.880   9.824   3.911
43894W        W15620  33.417  31.048  10.912
43895W        W15621  32.510  34.653  13.564
43896W        W15622   3.903  31.710   4.928
43897W        W15623  36.389  27.643  13.561
43898W        W15624  41.047   9.784   2.177
43899W        W15625   6.489  30.669   1.129
43900W        W15626  17.834   0.014  12.866
43901W        W15627   3.815  31.532   4.392
43902W        W15628  43.707   4.490  13.869
43903W        W15629  18.530  24.781   3.736
43904W        W15630  26.198   8.825  13.027
43905W        W15631  17.969   7.719  13.522
43906W        W15632  24.512  32.140   0.565
43907W        W15633  10.048  40.409   5.078
43908W        W15634   5.273  40.861  12.934
43909W        W15635  32.473   8.430  10.702
43910W        W15636  41.903  14.399   4.834
43911W        W15637   3.701  37.079  14.865
43912W        W15638  37.622  36.297  13.345
43913W        W15639  20.513  20.541  11.919
43914W        W15640  12.319   8.319   1.450
43915W        W15641  16.512   9.610  13.876
43916W        W15642   8.725  11.231  11.997
43917W        W15643  17.532   8.224  14.019
43918W        W15644   1.465  13.577   2.891
43919W        W15645  34.028   7.979   2.255
43920W        W15646   7.512  36.177  11.955
43921W        W15647  16.650  32.662   4.296
43922W        W15648  14.204  23.493   0.547
43923W        W15649   2.266   3.945  13.410
43924W        W15650  43.796  27.452  14.872
43925W        W15651  15.218  32.411   4.622
43926W        W15652  28.109  36.910  11.296
43927W        W15653  22.016  40.255  11.698
43928W        W15654  22.024  31.697   2.321
43929W        W15655  41.814  25.096  11.024
43930W        W15656  35.599  31.607   4.314
43931W        W15657  38.110  11.276   3.414
43932W        W15658   4.894   0.281  13.027
43933W        W15659  17.555  42.593   0.332
43934W        W15660  23.268  43.758  12.306
43935W        W15661  18.029  10.514  12.431
43936W        W15662  30.667  36.408   0.821
43937W        W15663   9.298  10.630   4.460
43938W        W15664  36.543  18.156   4.134
43939W        W15665  37.192   6.003   3.492
43940W        W15666  17.584  38.650   0.791
43941W        W15667  41.825  13.656  12.752
43942W        W15668   1.958  30.027   3.575
43943W        W15669  22.295  44.224  11.444
43944W        W15670  13.432  30.197   2.868
43945W        W15671  39.848  31.152   4.324
43946W        W15672  23.058   2.381   3.637
43947W        W15673  13.955   9.307   2.683
43948W        W15674  24.908  10.139   4.978
43949W        W15675   8.942  38.777   5.012
43950W        W15676  20.969   4.413   2.934
43951W        W15677  17.873  32.270   0.027
43952W        W15678  16.273  38.456  11.988
43953W        W15679  10.145  20.055  12.184
43954W        W15680   3.345  17.345   2.370
43955W        W15681  14.390  40.602   3.608
43956W        W15682  24.982  38.033   4.796
43957W        W15683  44.784  18.710  10.806
43958W        W15684  33.902  17.542  11.452
43959W        W15685  37.613  40.894   0.476
43960W        W15686  34.827   2.883  13.494
43961W        W15687  11.715   2.698   1.388
43962W        W15688  43.924  40.851   4.025
43963W        W15689  29.487   5.948   3.196
43964W        W15690  31.671  36.029  13.048
43965W        W15691  21.021  33.910   1.844
43966W        W15692  27.599  27.959   3.714
43967W        W15693   5.209  34.945  13.755
43968W        W15694  33.087  19.699   2.408
43969W        W15695  22.177  24.848   0.061
43970W        W15696  22.102  29.368   2.769
43971W        W15697   9.417   3.454   1.939
43972W        W15698  26.662  17.793  13.368
43973W        W15699  40.536   8.334   1.863
43974W        W15700   1.599  25.508  12.763
43975W        W15701  29.959   7.434  12.358
43976W        W15702  35.233  12.674   2.005
43977W        W15703   3.022  41.758   0.411
43978W        W15704  22.310   8.424   3.646
43979W        W15705  31.432  10.375   4.012
43980W        W15706   5.420  26.989  10.715
43981W        W15707  22.672   8.495  13.886
43982W        W15708  43.202  34.498   3.647
43983W        W15709  23.400  34.633   0.111
43984W        W15710  17.023  16.134   4.741
43985W        W15711  30.382  11.220   3.814
43986W        W15712  14.582  36.054  11.305
43987W        W15713   4.109   4.966  12.649
43988W        W15714  19.141  23.502   3.418
43989W        W15715  18.459  11.767   0.712
43990W        W15716  23.330   9.888  13.979
43991W        W15717  11.707   4.168  10.585
43992W        W15718  11.310  37.034  12.464
43993W        W15719  43.577  19.474  13.403
43994W        W15720  35.170  39.305   2.843
43995W        W15721  18.034  23.464  13.131
43996W        W15722  14.760  15.658   0.459
43997W        W15723   8.571  15.786   2.626
43998W        W15724  21.273  16.374   0.713
43999W        W15725  42.957  24.000   4.122
44000W        W15726  43.277  41.103   2.624
44001W        W15727   9.803  20.527  10.798
44002W        W15728  35.872  19.701  14.652
44003W        W15729  32.745  11.429  11.533
44004W        W15730   2.858  20.093   4.803
44005W        W15731  31.249  38.000   4.921
44006W        W15732  30.337   1.693  14.910
44007W        W15733  25.037  42.329   2.818
44008W        W15734  13.722  12.965  10.716
44009W        W15735  32.959  42.076  13.280
44010W        W15736  32.891  28.032  14.967
44011W        W15737  27.039  30.703  11.925
44012W        W15738   4.305  38.017   3.703
44013W        W15739  29.122  26.644   1.776
44014W        W15740  16.093   3.977  12.868
44015W        W15741  35.616   3.946   2.226
44016W        W15742   5.346  26.915  12.208
44017W        W15743  16.655  26.297  13.621
44018W        W15744   1.482  43.105   0.309
44019W        W15745  23.489   6.267   1.869
44020W        W15746   2.079  21.080   3.660
44021W        W15747  18.354   1.819   3.527
44022W        W15748  15.224  28.520   0.561
44023W        W15749  36.887  41.475  13.312
44024W        W15750   9.661  35.955  13.825
44025W        W15751  43.318  30.254  12.226
44026W        W15752   7.751  31.161  12.368
44027W        W15753  26.069  29.203  14.479
44028W        W15754   3.052  39.062   1.446
44029W        W15755  14.717  19.785  11.421
44030W        W15756   4.712   8.374  14.346
44031W        W15757  23.283  31.085  11.895
44032W        W15758  20.772  15.054   0.391
44033W        W15759  16.502  22.064   4.251
44034W        W15760  19.651   4.790  13.284
44035W        W15761  31.986  41.461   4.630
44036W        W15762  21.325   1.394   1.763
44037W        W15763   7.387  39.532   2.823
44038W        W15764  27.629  42.387   4.631
44039W        W15765  16.081   7.897  12.087
44040W        W15766  38.850  13.243  12.039
44041W        W15767  18.124  42.748  13.988
44042W        W15768   4.646  43.462  11.886
44043W        W15769  10.086  32.541  11.952
44044W        W15770  26.167  11.757   0.710
44045W        W15771  24.638  31.487   1.243
44046W        W15772  20.299  29.661   2.381
44047W        W15773  42.919  11.023  10.904
44048W        W15774   9.184  28.425   1.407
44049W        W15775  14.798  38.273  13.031
44050W        W15776  14.111  20.518  12.743
44051W        W15777   2.890  39.095   2.846
44052W        W15778  14.751  11.261  10.732
44053W        W15779   3.389  36.534  12.094
44054W        W15780  23.604  39.102   4.070
44055W        W15781  35.597  26.726   1.439
44056W        W15782  38.531  11.115   4.801
44057W        W15783  20.602  15.977   0.451
44058W        W15784   9.547  24.960  11.610
44059W        W15785  43.411   0.441   0.245
44060W        W15786  43.633  32.231  10.606
44061W        W15787   3.390  33.636  14.285
44062W        W15788  28.921   4.898   4.190
44063W        W15789   7.747  13.750  12.947
44064W        W15790  39.340  12.147   0.745
44065W        W15791  32.434  28.439   1.427
44066W        W15792  25.509   6.017   3.650
44067W        W15793  43.527  33.557  10.590
44068W        W15794  26.648  25.473   2.737
44069W        W15795   2.298  27.702   4.835
44070W        W15796   7.642  24.016   2.875
44071W        W15797  41.816  33.286  13.912
44072W        W15798  26.950  25.703   3.830
44073W        W15799   7.837  29.595  14.591
44074W        W15800  12.426  17.659  14.736
44075W        W15801  31.381  22.820  14.878
44076W        W15802  17.379  32.134   1.236
44077W        W15803   3.234   1.766   2.633
44078W        W15804  28.445  19.051   4.597
44079W        W15805  13.150  37.956  12.835
44080W        W15806  40.873   3.793   0.184
44081W        W15807   9.490  17.291   2.379
44082W        W15808  25.943  39.961  14.316
44083W        W15809  22.930  43.710   3.721
44084W        W15810  31.524  29.117   2.361
44085W        W15811  14.115  34.397  11.040
44086W        W15812  16.253   0.242   2.688
44087W        W15813  39.228  12.606   0.489
44088W        W15814   5.007   2.186  13.445
44089W        W15815  13.854  42.350  13.860
44090W        W15816  17.268  36.536   4.690
44091W        W15817  23.989   8.589   0.448
44092W        W15818   6.105   4.476   2.763
44093W        W15819  36.820  36.908   4.263
44094W        W15820  10.439   3.365   4.622
44095W        W15821  31.509   3.023   3.623
44096W        W15822   9.675   9.887   0.032
44097W        W15823  35.569  24.255   3.457
44098W        W15824  36.449   8.868   0.751
44099W        W15825  16.581  24.335   0.596
44100W        W15826  44.412  36.369   1.706
44101W        W15827  19.759   5.228   2.003
44102W        W15828  37.878   0.748  11.087
44103W        W15829  11.689   6.064   0.350
44104W        W15830  10.188  43.784  13.102
44105W        W15831   2.697  24.992  13.018
44106W        W15832  14.094   3.955   3.829
44107W        W15833   6.106  43.896  11.160
44108W        W15834   5.424  36.607   1.312
44109W        W15835  17.304  32.962  14.822
44110W        W15836  43.283  20.874   1.248
44111W        W15837   3.418  17.764  13.416
44112W        W15838  41.722  37.936   4.530
44113W        W15839  16.132  32.946   0.145
44114W        W15840  10.345  10.472  13.334
44115W        W15841  21.969   7.561  12.640
44116W        W15842   4.610  42.797   2.797
44117W        W15843  41.889  33.046   1.791
44118W        W15844  13.713  27.044  14.279
44119W        W15845  38.305  34.817   1.431
44120W        W15846  36.777  40.245  10.847
44121W        W15847  35.805  32.304   3.903
44122W        W15848  43.225  10.301  10.789
44123W        W15849  38.793  44.826  13.108
44124W        W15850  16.876  17.870  14.385
44125W        W15851  11.405  38.819   4.162
44126W        W15852  32.900  38.820   4.335
44127W        W15853  34.419  22.037   0.311
44128W        W15854   5.942  24.359   1.843
44129W        W15855  34.454  19.529  13.434
44130W        W15856  20.106   9.338   4.909
44131W        W15857  41.472  32.540   2.512
44132W        W15858  13.622  14.155   3.394
44133W        W15859  24.290  30.524  12.480
44134W        W15860  40.527   6.855   4.980
44135W        W15861  13.621  42.513  10.712
44136W        W15862  44.006  19.607   1.695
44137W        W15863  17.119  29.245   5.006
44138W        W15864  33.115  35.660  12.837
44139W        W15865  15.310  17.025  13.377
44140W        W15866  30.630  26.488  14.705
44141W        W15867  20.111   7.393   2.707
44142W        W15868  16.311  15.648  10.737
44143W        W15869  17.598  14.679   0.981
44144W        W15870  34.310   8.898  13.383
44145W        W15871  38.618  38.456  14.278
44146W        W15872  26.391  35.963   1.772
44147W        W15873  16.293  12.538  11.844
44148W        W15874   2.161  39.922  12.945
44149W        W15875  15.096   9.708   3.357
44150W        W15876   7.413  27.652  12.581
44151W        W15877  34.863  39.396  12.561
44152W        W15878   6.863  10.772  13.266
44153W        W15879  37.315  17.840   3.941
44154W        W15880   9.186  27.170   3.216
44155W        W15881  16.516  20.812   2.826
44156W        W15882  26.377   4.109  14.419
44157W        W15883  20.553   2.336   4.403
44158W        W15884  17.794  20.336  11.927
44159W        W15885  17.908  18.186  10.528
44160W        W15886  13.937  15.700  13.847
44161W        W15887  12.589  37.936  11.489
44162W        W15888  31.057  35.853   1.160
44163W        W15889  39.082   3.924   2.901
44164W        W15890  38.410   7.106  11.341
44165W        W15891  33.817  24.037  14.347
44166W        W15892  33.842  43.701  10.871
44167W        W15893   9.332  39.400   0.799
44168W        W15894  22.876  36.578  14.951
44169W        W15895  15.756  37.399  14.014
44170W        W15896  36.485  20.180  14.078
44171W        W15897   7.901  19.570  14.901
44172W        W15898  42.067  38.782  11.102
44173W        W15899  23.469  28.619   1.387
44174W        W15900  35.978  35.312   2.345
44175W        W15901  15.511  27.596   0.347
44176W        W15902   0.429  33.442  12.509
44177W        W15903  37.835   3.706  12.018
44178W        W15904  24.603  23.214  13.069
44179W        W15905  26.415   9.211  14.370
44180W        W15906  41.556  10.294   0.858
44181W        W15907  22.650  18.966   4.391
44182W        W15908  38.858  20.253   1.729
44183W        W15909  11.981  20.692   0.359
44184W        W15910  24.335  10.438   9.902
44185W        W15911  20.535  39.229  11.998
44186W        W15912  29.354  23.650   0.762
44187W        W15913  23.272  42.265   2.418
44188W        W15914  30.563  19.280  12.160
44189W        W15915  37.923  13.825   4.424
44190W        W15916  15.316  41.475   2.860
44191W        W15917  23.835  35.570  11.233
44192W        W15918  20.307  36.239  12.582
44193W        W15919  35.898  13.316  12.520
44194W        W15920   6.382  35.324   1.935
44195W        W15921  37.947  13.098   4.163
44196W        W15922  16.569  14.293   2.851
44197W        W15923  29.579   7.206  12.107
44198W        W15924  29.922  13.144   1.930
44199W        W15925  43.066  10.054   4.160
44200W        W15926  38.001   1.765   2.659
44201W        W15927  42.730   3.690   3.353
44202W        W15928  14.532  21.477   0.943
44203W        W15929  43.564  16.645  10.991
44204W        W15930  23.194  19.233  13.310
44205W        W15931  30.695  12.250  10.759
44206W        W15932  11.447  28.434  12.526
44207W        W15933  15.289  42.077  13.069
44208W        W15934  17.234   9.804  11.897
44209W        W15935  17.291   0.840  13.939
44210W        W15936  20.775   4.321   0.492
44211W        W15937   1.512   4.658  14.374
44212W        W15938   3.767  26.195  12.524
44213W        W15939  32.500  30.896   3.894
44214W        W15940  13.862  15.613   1.305
44215W        W15941  16.145  40.579  12.938
44216W        W15942  17.808  19.006  14.514
44217W        W15943   6.413  12.725  12.351
44218W        W15944  37.939  12.795  14.205
44219W        W15945   2.118  38.671   3.256
44220W        W15946   9.373  29.750  12.010
44221W        W15947  24.601  34.088  13.740
44222W        W15948  40.609  42.908   2.208
44223W        W15949  22.110  18.707   0.381
44224W        W15950   9.032  27.939  11.683
44225W        W15951  12.776   2.447   0.446
44226W        W15952  22.383   8.329  11.197
44227W        W15953  23.632  36.188  11.826
44228W        W15954  17.139  38.532   0.446
44229W        W15955  11.586  43.298   3.126
44230W        W15956   4.858   5.936  13.962
44231W        W15957   6.145  22.023   0.733
44232W        W15958  21.142  42.343  12.575
44233W        W15959  40.527  19.084   1.219
44234W        W15960   3.764  28.504   4.777
44235W        W15961  33.428  11.574  11.135
44236W        W15962   0.482  16.848   3.667
44237W        W15963   4.006  15.192   0.952
44238W        W15964  18.239   8.706   3.969
44239W        W15965  37.082  42.964   0.249
44240W        W15966  33.128  26.537   0.852
44241W        W15967  15.094  14.265   2.619
44242W        W15968  14.895  42.374  12.929
44243W        W15969  31.431   5.358  11.517
44244W        W15970  27.582  29.564  14.249
44245W        W15971  33.466   6.662   0.434
44246W        W15972  38.372  20.550   3.612
44247W        W15973  28.565  17.041  10.218
44248W        W15974   2.780  26.115   4.896
44249W        W15975  41.860  23.201  11.229
44250W        W15976  42.198  35.112   5.020
44251W        W15977  15.193  42.916  10.153
44252W        W15978  23.518  30.108   0.463
44253W        W15979   2.449  11.293   3.620
44254W        W15980  28.085   5.860  12.682
44255W        W15981   1.036  29.867  11.128
44256W        W15982  21.482   0.967  12.100
44257W        W15983  14.811  11.525   4.192
44258W        W15984  43.983  27.055  13.495
44259W        W15985  44.245  26.390  14.085
44260W        W15986   4.681  22.078  12.505
44261W        W15987  27.485  34.573  10.905
44262W        W15988  10.652   0.961   4.156
44263W        W15989   0.234  25.374  14.080
44264W        W15990  19.339  26.016   3.370
44265W        W15991  20.882  41.880   4.111
44266W        W15992  33.382  32.529  12.963
44267W        W15993  31.371   0.387  10.733
44268W        W15994  20.634   5.610  13.361
44269W        W15995   1.345  31.962   0.094
44270W        W15996   9.324  26.116   2.299
44271W        W15997  14.006   5.175  14.854
44272W        W15998  44.975  37.573  10.423
44273W        W15999  10.305   7.828  13.420
44274W        W16000  15.306   9.718   1.067
44275W        W16001  11.560  22.532  14.308
44276W        W16002  43.911  16.299   1.752
44277W        W16003   4.842  24.028   0.709
44278W        W16004  40.086  25.456  11.201
44279W        W16005  29.576  37.823  10.766
44280W        W16006  25.515   1.222   4.542
44281W        W16007  37.359  33.102   3.111
44282W        W16008  15.727  26.551  13.807
44283W        W16009  13.553  10.732  10.556
44284W        W16010  19.461  42.319   4.063
44285W        W16011  31.520  12.954   2.147
44286W        W16012  16.378  44.384   4.704
44287W        W16013  22.450  26.042   0.339
44288W        W16014  12.124  42.080  11.863
44289W        W16015  38.855  42.330   1.411
44290W        W16016  29.375  14.399   0.312
44291W        W16017  14.513  30.450   1.880
44292W        W16018  40.457   5.473   0.875
44293W        W16019  42.749  34.203  14.966
44294W        W16020  37.919   2.563  10.614
44295W        W16021  27.944  13.143  11.648
44296W        W16022  31.646   8.644  13.907
44297W        W16023  33.590   6.717   3.581
44298W        W16024  32.620   5.444   1.579
44299W        W16025   9.791  33.501  10.136
44300W        W16026  10.218  20.225   0.828
44301W        W16027  16.295  19.521   4.035
44302W        W16028  24.426  27.791  14.588
44303W        W16029   3.688  20.516   3.490
44304W        W16030  19.997  19.586   0.282
44305W        W16031  19.179  10.591   3.783
44306W        W16032  16.894  30.935  12.089
44307W        W16033  17.713  12.614  10.695
44308W        W16034  15.144  31.443  14.001
44309W        W16035  36.384  44.765   4.822
44310W        W16036  33.176  19.156  13.896
44311W        W16037  24.247  36.594   2.323
44312W        W16038   8.256  44.753   4.836
44313W        W16039  30.761  33.360  11.428
44314W        W16040   9.323  13.307   1.307
44315W        W16041   7.778  28.612  14.893
44316W        W16042   0.829  36.910   2.806
44317W        W16043  29.830  25.435   9.725
44318W        W16044  44.092  23.546  11.154
44319W        W16045  35.911  43.886  14.384
44320W        W16046  10.946  21.630   3.706
44321W        W16047  31.076  26.480  10.193
44322W        W16048  33.381   5.965  14.906
44323W        W16049  28.591  20.049   1.427
44324W        W16050  40.600  29.799   3.148
44325W        W16051  23.722  24.631   4.924
44326W        W16052  30.869  41.378  12.023
44327W        W16053  18.704  32.423   4.298
44328W        W16054  22.012   9.798  10.420
44329W        W16055  40.799  21.626   0.748
44330W        W16056  29.129  13.766   0.918
44331W        W16057   8.406  18.083  12.159
44332W        W16058  11.998  18.733  12.772
44333W        W16059  29.956   5.998  13.369
44334W        W16060   7.770   6.926   2.739
44335W        W16061  27.142  44.162   3.821
44336W        W16062  28.947   7.420  11.150
44337W        W16063  43.758   5.738   1.174
44338W        W16064  12.416  13.794  11.220
44339W        W16065  21.015  11.125   3.150
44340W        W16066  18.628  13.185   2.760
44341W        W16067  13.849   9.119   1.678
44342W        W16068  26.054  18.065  13.924
44343W        W16069   8.176  18.523  12.483
44344W        W16070  34.347  23.613   1.497
44345W        W16071  18.217  41.477  14.358
44346W        W16072  12.842  36.158  13.012
44347W        W16073  20.261  10.764  12.089
44348W        W16074  37.538  31.015   2.331
44349W        W16075  29.117  13.160   3.403
44350W        W16076  20.228  29.366   0.752
44351W        W16077  43.522  15.085  14.768
44352W        W16078  43.464   5.772  12.441
44353W        W16079  30.941  10.445   3.784
44354W        W16080  29.911   8.414   3.698
44355W        W16081  34.883  38.944   1.297
44356W        W16082  27.682   7.233   4.116
44357W        W16083   6.479   0.934   1.460
44358W        W16084  20.804  36.980  11.154
44359W        W16085  42.528  17.170  13.887
44360W        W16086  29.185  13.582  12.852
44361W        W16087   9.371  36.372  12.133
44362W        W16088   9.391  27.057  12.873
44363W        W16089  39.400  20.252  12.396
44364W        W16090  29.275  29.495   3.066
44365W        W16091  33.285  24.657  12.313
44366W        W16092  44.746  10.606  12.843
44367W        W16093  17.092  40.382  11.148
44368W        W16094  14.592  42.527  11.554
44369W        W16095  17.620  42.440   4.352
44370W        W16096  43.417  19.433   2.371
44371W        W16097  26.410  13.384   1.925
44372W        W16098  26.125  10.207   3.859
44373W        W16099  16.813   7.466  10.645
44374W        W16100  15.891  40.693  12.019
44375W        W16101   0.410  42.867   2.914
44376W        W16102  27.469   3.840  12.536
44377W        W16103  24.713  21.344  11.180
44378W        W16104  41.908   5.003   1.306
44379W        W16105  39.065  19.256   4.185
44380W        W16106  44.710  19.607   2.469
44381W        W16107  14.850  29.257  11.793
44382W        W16108  23.186   4.279   4.100
44383W        W16109   3.268   0.392  14.894
44384W        W16110   0.898  38.520   1.322
44385W        W16111  12.689  31.093  14.831
44386W        W16112  43.398  33.587   1.416
44387W        W16113   0.278  32.587  11.260
44388W        W16114  32.516  29.626  14.243
44389W        W16115  12.463  20.421  14.225
44390W        W16116  21.268   1.315  14.752
44391W        W16117  21.561  13.044   2.281
44392W        W16118  39.478   3.310   3.359
44393W        W16119  21.087  36.292  12.578
44394W        W16120  14.071  18.656   1.913
44395W        W16121  44.362   2.924  13.943
44396W        W16122  32.388  22.562  10.316
44397W        W16123  18.012   4.320  11.572
44398W        W16124  43.796  28.377  11.566
44399W        W16125  43.291  44.699  10.661
44400W        W16126  13.631   2.860   3.871
44401W        W16127  16.097  15.289  14.531
44402W        W16128   5.157  34.719   2.601
44403W        W16129  14.328   0.968   3.716
44404W        W16130  31.434  39.459  13.041
44405W        W16131  27.223  21.920   1.825
44406W        W16132  33.827  13.251  13.041
44407W        W16133  32.134  44.383   1.486
44408W        W16134  10.624  34.359   2.260
44409W        W16135  25.196  18.500  13.805
44410W        W16136  25.656  44.958  13.433
44411W        W16137  25.630  16.919   4.441
44412W        W16138  27.849  17.252   0.060
44413W        W16139  11.892  17.710  12.931
44414W        W16140  35.810  24.935   3.651
44415W        W16141  21.826  12.667   3.231
44416W        W16142  17.382  23.937   4.131
44417W        W16143  22.052  11.776   1.334
44418W        W16144   0.184  33.931   3.695
44419W        W16145  23.118   1.741  14.835
44420W        W16146  13.811  15.724  12.814
44421W        W16147  31.930  17.585   2.284
44422W        W16148  24.013  31.572   0.245
44423W        W16149  22.051  11.169  13.638
44424W        W16150  20.587  23.762   3.756
44425W        W16151  28.115   8.115  11.382
44426W        W16152  17.059  25.530  13.436
44427W        W16153  34.886  40.812   0.933
44428W        W16154  42.612  42.375   4.256
44429W        W16155  17.736   7.467   4.422
44430W        W16156  21.740  13.193  12.982
44431W        W16157  33.406   0.155  11.489
44432W        W16158  42.432  44.286  11.582
44433W        W16159  15.975  11.190  12.487
44434W        W16160  43.438  21.125  14.896
44435W        W16161  22.979  28.916  14.832
44436W        W16162   3.911  21.564   0.257
44437W        W16163  11.333   9.834  11.621
44438W        W16164  10.589  40.770  13.342
44439W        W16165  27.079  44.698  11.842
44440W        W16166   4.943  20.047  10.653
44441W        W16167   3.571   6.310  11.472
44442W        W16168   9.935  44.478  12.802
44443W        W16169  38.027  29.936  12.945
44444W        W16170  13.340  24.959  14.120
44445W        W16171   0.921  43.804   2.781
44446W        W16172   7.849  13.653  11.123
44447W        W16173  33.007   1.798  14.336
44448W        W16174  21.553   9.782   1.707
44449W        W16175  14.585   3.392   0.199
44450W        W16176   3.377  19.114   3.581
44451W        W16177  27.069  15.677  12.534
44452W        W16178   4.662  28.449  11.033
44453W        W16179  21.376  40.156  14.260
44454W        W16180  21.523  24.149  13.426
44455W        W16181  36.869  13.087  13.895
44456W        W16182  41.788  33.635   0.810
44457W        W16183  44.697   2.751  10.446
44458W        W16184  19.136   6.255   1.867
44459W        W16185  39.392  43.918   0.888
44460W        W16186   3.766  12.725   2.413
44461W        W16187  25.153   7.925   0.759
44462W        W16188  32.002  32.197  13.058
44463W        W16189   5.689   6.979  13.339
44464W        W16190  25.520  36.866   2.487
44465W        W16191   8.322   7.330  11.061
44466W        W16192  44.384  37.927  11.416
44467W        W16193   0.965  16.678   3.668
44468W        W16194  42.740  16.745  12.502
44469W        W16195  36.219   7.280  10.455
44470W        W16196  40.748  42.503  13.390
44471W        W16197  33.826   7.864  11.676
44472W        W16198  27.324  14.277   3.512
44473W        W16199  41.464  38.553   3.149
44474W        W16200   2.797  43.835  11.109
44475W        W16201   0.224  27.662   2.816
44476W        W16202  14.152   6.195  10.854
44477W        W16203  35.347  11.778   0.381
44478W        W16204  42.470  32.656   0.417
44479W        W16205   2.405  32.493   3.395
44480W        W16206  39.396  27.454  14.347
44481W        W16207  22.772  36.644  11.991
44482W        W16208  12.590   4.180  14.946
44483W        W16209  35.140  13.405  14.447
44484W        W16210  33.063  15.143  11.691
44485W        W16211  36.716  41.955   1.655
44486W        W16212  29.884  18.359  14.826
44487W        W16213  34.136   6.817  14.281
44488W        W16214  11.736   6.742  14.314
44489W        W16215   3.644  14.223  11.524
44490W        W16216  30.996  37.950   3.991
44491W        W16217  15.124  37.129  14.773
44492W        W16218  33.490   7.496  11.548
44493W        W16219  27.230  27.121  12.974
44494W        W16220  36.498  16.719   0.905
44495W        W16221  16.338   4.863  14.782
44496W        W16222  36.384  17.362   0.393
44497W        W16223  41.347  14.898  13.876
44498W        W16224  42.901  22.092  13.317
44499W        W16225  40.844  38.917   5.138
44500W        W16226   3.667  37.424  14.493
44501W        W16227  36.540   9.324   0.476
44502W        W16228  44.685  29.458   2.760
44503W        W16229  42.779  22.168  12.721
44504W        W16230   1.988  37.167  14.814
44505W        W16231  15.159   1.417   4.647
44506W        W16232  41.507  28.498   3.320
44507W        W16233   8.275  23.231  10.768
44508W        W16234  34.535  13.327   0.240
44509W        W16235  25.519  31.304   0.730
44510W        W16236   0.180   5.209   3.641
44511W        W16237  42.754  12.929   1.746
44512W        W16238   9.494  25.709   1.133
44513W        W16239  15.839  26.080   4.216
44514W        W16240  37.981   9.080   2.240
44515W        W16241  27.706  36.881   0.598
44516W        W16242  37.520  27.739  14.398
44517W        W16243   6.362  25.293   1.775
44518W        W16244  41.101  38.662  12.189
44519W        W16245  28.685  13.766  11.626
44520W        W16246  14.768  43.581   1.233
44521W        W16247  42.914  34.706  12.193
44522W        W16248  15.436  28.558   1.568
44523W        W16249  14.427   9.910  14.739
44524W        W16250  36.698  28.374   1.438
44525W        W16251  25.350  16.191   3.354
44526W        W16252  38.770  29.745  11.585
44527W        W16253   6.986  36.116   1.314
44528W        W16254  11.536  14.652  14.989
44529W        W16255  23.026  37.981   4.367
44530W        W16256  28.853  10.066  11.891
44531W        W16257  26.413  31.472   0.827
44532W        W16258   6.364  29.899  13.576
44533W        W16259  14.231   7.183  12.550
44534W        W16260   0.229  23.466  14.391
44535W        W16261   5.668  27.068  14.400
44536W        W16262   4.438   6.620  11.007
44537W        W16263   0.919   3.249   5.119
44538W        W16264  10.008  39.309  13.958
44539W        W16265  35.091  30.447   4.085
44540W        W16266  33.964  43.870  14.967
44541W        W16267  28.031  25.586  13.348
44542W        W16268  21.097  29.391   3.740
44543W        W16269  44.793   7.842  10.771
44544W        W16270  26.150  15.030   0.983
44545W        W16271  19.586  39.775   2.123
44546W        W16272  22.188  16.921   4.537
44547W        W16273  23.599  28.344  13.372
44548W        W16274  31.320  30.537  12.111
44549W        W16275  35.753  14.254  12.489
44550W        W16276   4.697  32.405   2.243
44551W        W16277   6.592  43.777  11.077
44552W        W16278   6.299  44.508   1.379
44553W        W16279   8.192  13.702   0.744
44554W        W16280   6.927  23.180   0.947
44555W        W16281  11.770  24.260   4.961
44556W        W16282  10.576  44.533   1.486
44557W        W16283   0.725  43.952  13.446
44558W        W16284  12.849  10.157   1.328
44559W        W16285  38.930  25.056   2.927
44560W        W16286  43.868  27.333  11.111
44561W        W16287  28.184   3.254   4.673
44562W        W16288  20.680   0.440  14.805
44563W        W16289  31.608  41.994   4.737
44564W        W16290  41.905  24.233   3.332
44565W        W16291  42.000  41.750  14.298
44566W        W16292  34.571  32.287  10.385
44567W        W16293  32.460  24.970  14.033
44568W        W16294  22.714  29.498   1.214
44569W        W16295   1.880  30.861   3.410
44570W        W16296  24.712  27.500   2.778
44571W        W16297   7.726   4.226   4.332
44572W        W16298  22.612  42.028   2.225
44573W        W16299  33.121  44.404  14.568
44574W        W16300  18.166  12.865  14.403
44575W        W16301   9.679  27.062   2.381
44576W        W16302  41.189  37.698  11.087
44577W        W16303  34.355   8.114   4.579
44578W        W16304  39.420  29.218   2.340
44579W        W16305   3.475  36.693   3.208
44580W        W16306   9.180  40.966  12.462
44581W        W16307  40.084  15.857   2.652
44582W        W16308  16.550  30.914   2.866
44583W        W16309  44.779  35.565  12.929
44584W        W16310  16.608  11.815   0.333
44585W        W16311  30.831   4.271  14.968
44586W        W16312  26.114   3.788  14.879
44587W        W16313  15.250  26.088   0.749
44588W        W16314  26.209   1.659  10.487
44589W        W16315  30.580  32.370  13.523
44590W        W16316  34.075  19.657   0.989
44591W        W16317  14.911  32.010  10.012
44592W        W16318  22.944   6.242   2.282
44593W        W16319  39.580  27.989  11.275
44594W        W16320  39.355  24.775   2.988
44595W        W16321  26.147  38.506  10.698
44596W        W16322   3.532  21.834  14.958
44597W        W16323  24.030  39.519  14.778
44598W        W16324  21.867   0.216   1.765
44599W        W16325   9.638  20.050  10.940
44600W        W16326  26.205  34.312   1.951
44601W        W16327  33.454  35.131  13.564
44602W        W16328   4.292  28.283  10.461
44603W        W16329  30.700  27.561  11.313
44604W        W16330   3.938   8.696  14.517
44605W        W16331  37.376  15.349  12.370
44606W        W16332  26.250  35.899  12.856
44607W        W16333   3.583  37.827  13.175
44608W        W16334  21.934  38.870  13.120
44609W        W16335  44.392  27.956  12.903
44610W        W16336  41.055  29.691   4.358
44611W        W16337  10.869  40.014  10.674
44612W        W16338  28.126  29.657  12.579
44613W        W16339  30.912  16.806  12.476
44614W        W16340  30.657  44.780  11.589
44615W        W16341  37.420  42.490   3.683
44616W        W16342   0.720  22.993   1.492
44617W        W16343  23.425  22.546   0.430
44618W        W16344   4.850  40.630  14.421
44619W        W16345   0.820  13.107  14.182
44620W        W16346  14.387   4.627   3.263
44621W        W16347  15.381  42.420   4.629
44622W        W16348  34.369  16.708   0.698
44623W        W16349  18.170  23.996  12.945
44624W        W16350  14.380  38.367   2.249
44625W        W16351  27.722   3.662  11.112
44626W        W16352  15.314  24.943   0.288
44627W        W16353  23.045   1.360  13.997
44628W        W16354  11.703   3.037   0.415
44629W        W16355  19.311   3.387  10.339
44630W        W16356   8.366  29.605   3.000
44631W        W16357  35.076  12.883   4.077
44632W        W16358  36.962  22.765  14.526
44633W        W16359  43.568  43.898   1.813
44634W        W16360  33.982  16.793  11.931
44635W        W16361   5.170  17.320   3.703
44636W        W16362  26.516  30.162   4.584
44637W        W16363  25.816  18.928  11.212
44638W        W16364   6.624  18.285  10.725
44639W        W16365   5.694  15.121  10.601
44640W        W16366  44.030   0.459   1.632
44641W        W16367  23.300  26.672  11.103
44642W        W16368   4.340  25.424   4.611
44643W        W16369  20.466  14.162   0.846
44644W        W16370   5.248  10.434   0.314
44645W        W16371   6.032   2.282  14.827
44646W        W16372  10.674  16.032  14.449
44647W        W16373   6.384  20.643  12.561
44648W        W16374  26.140  40.369  14.035
44649W        W16375  35.995   9.305   1.279
44650W        W16376  23.523  21.291  10.797
44651W        W16377   4.812  33.571  13.525
44652W        W16378  34.973  25.679  10.659
44653W        W16379   6.690  34.411  13.313
44654W        W16380   0.619  41.605   0.862
44655W        W16381  30.109  13.782   3.680
44656W        W16382  19.460   8.555  11.852
44657W        W16383   7.398  18.399   4.026
44658W        W16384  35.537   4.197   4.487
44659W        W16385   4.297  13.275   2.825
44660W        W16386  44.296  34.640  12.597
44661W        W16387  30.650  25.744   0.982
44662W        W16388  21.711  17.347   0.384
44663W        W16389  21.634  29.884   2.339
44664W        W16390  18.231   2.899   0.218
44665W        W16391  41.275   0.787   3.277
44666W        W16392  29.995   1.999  10.754
44667W        W16393   7.634  17.145   4.533
44668W        W16394  41.984  18.918  14.908
44669W        W16395  34.885  39.219  11.162
44670W        W16396  22.622  38.807   2.521
44671W        W16397  42.489  36.340  13.482
44672W        W16398  26.959  27.109  11.175
44673W        W16399  16.205  25.271  12.334
44674W        W16400  24.194  26.996  13.052
44675W        W16401  43.002   5.847   2.127
44676W        W16402   8.654  41.960  14.877
44677W        W16403  16.799   2.992  13.155
44678W        W16404  18.304   5.257   3.678
44679W        W16405   4.480  37.482  11.872
44680W        W16406  11.309  33.479   4.505
44681W        W16407  40.441  43.431  10.766
44682W        W16408  33.149  31.564   2.291
44683W        W16409  14.338  21.945  14.931
44684W        W16410  15.756  23.145  12.619
44685W        W16411  17.837   0.548  11.996
44686W        W16412  19.108  10.569  13.335
44687W        W16413  37.600  16.659   1.364
44688W        W16414  30.911   4.231  13.758
44689W        W16415   7.931  43.547  12.075
44690W        W16416  17.803  20.264   4.970
44691W        W16417  25.475  15.917   2.924
44692W        W16418  39.772  13.577   4.092
44693W        W16419  36.946  39.872  10.522
44694W        W16420   8.325  16.855   4.594
44695W        W16421  10.694   6.840  13.037
44696W        W16422  39.007  32.875   1.621
44697W        W16423  13.458  38.884  11.907
44698W        W16424   6.001  41.010  12.198
44699W        W16425  25.411   7.593   0.463
44700W        W16426  28.431   2.695   3.118
44701W        W16427   3.933  32.860   4.877
44702W        W16428  43.219  29.628   2.715
44703W        W16429  28.654  20.648   0.977
44704W        W16430  40.754  36.343   0.032
44705W        W16431   5.266  15.350  11.536
44706W        W16432   3.850   8.016  10.923
44707W        W16433   1.399  40.781   1.214
44708W        W16434   2.522  29.919  14.682
44709W        W16435  20.546  21.243  10.234
44710W        W16436  14.760  13.407  12.973
44711W        W16437  20.774  31.861  11.584
44712W        W16438  41.293  27.062  13.802
44713W        W16439  20.565   0.266  14.323
44714W        W16440  34.981   5.933   2.758
44715W        W16441  41.994  37.437  14.198
44716W        W16442  13.896  41.849   4.055
44717W        W16443   6.093  36.814   4.119
44718W        W16444  13.716  26.017   2.347
44719W        W16445  34.760  25.619   1.801
44720W        W16446  25.966  18.792   0.347
44721W        W16447   3.198  10.375   1.684
44722W        W16448  39.553  26.183  12.081
44723W        W16449  18.664  24.924   3.228
44724W        W16450  27.913  32.108   4.116
44725W        W16451  44.433  41.546  13.283
44726W        W16452  28.861   6.450  13.869
44727W        W16453  15.843   2.407  12.301
44728W        W16454   4.926  41.738  10.611
44729W        W16455  28.734  15.076   0.489
44730W        W16456   3.987  43.699   2.329
44731W        W16457  37.947  13.317  14.353
44732W        W16458  22.890  33.199  14.983
44733W        W16459   2.030   1.850  10.393
44734W        W16460  15.631  17.324  12.950
44735W        W16461  37.352  14.297  10.305
44736W        W16462   6.661   1.090   4.113
44737W        W16463  12.090  29.623  13.816
44738W        W16464  36.148  19.207   1.988
44739W        W16465  14.114  20.778  11.500
44740W        W16466   6.444   2.417   2.589
44741W        W16467  38.602  44.969   0.431
44742W        W16468  21.007   4.689  13.611
44743W        W16469  16.890  33.977   4.597
44744W        W16470  41.929  24.017   4.365
44745W        W16471  22.872  15.755  13.865
44746W        W16472   2.767  17.382   4.496
44747W        W16473   1.906   7.056   0.815
44748W        W16474  27.602  26.659   0.478
44749W        W16475  28.635  33.986   3.113
44750W        W16476  37.337  10.259   1.816
44751W        W16477  15.142  28.747   3.722
44752W        W16478  11.835  42.527  10.665
44753W        W16479  16.706   8.773   5.076
44754W        W16480  36.888  43.720   3.613
44755W        W16481  37.606   5.248  11.552
44756W        W16482  41.672  33.054  13.460
44757W        W16483  43.168  41.061  13.132
44758W        W16484  18.069  41.853   1.214
44759W        W16485  12.320   0.915  12.929
44760W        W16486   5.769  29.896   3.647
44761W        W16487  37.540   6.935  12.124
44762W        W16488  31.729  13.651  12.066
44763W        W16489  14.796  10.106   3.194
44764W        W16490  24.548  19.306   3.813
44765W        W16491  34.033  18.229   2.983
44766W        W16492   4.808   2.710  12.379
44767W        W16493  26.011  31.644  14.521
44768W        W16494  20.778  29.840  12.936
44769W        W16495  17.751  25.283  12.918
44770W        W16496  29.971  31.176  10.701
44771W        W16497  11.734  31.063  14.863
44772W        W16498  21.746   4.864  12.687
44773W        W16499  42.728   2.229   4.132
44774W        W16500   4.373  24.270  12.589
44775W        W16501   9.783  35.552  12.505
44776W        W16502  25.195  19.538   1.827
44777W        W16503   9.699  31.364   0.862
44778W        W16504  30.896  38.151  11.123
44779W        W16505  12.324   6.854   4.203
44780W        W16506  14.602  35.899   1.680
44781W        W16507  32.530  36.525  14.452
44782W        W16508  18.582  14.160  11.331
44783W        W16509  44.234  27.631   4.483
44784W        W16510  44.868  34.183   4.261
44785W        W16511  30.426  11.172  14.845
44786W        W16512  15.161   8.763   1.749
44787W        W16513  16.210  30.115   3.132
44788W        W16514  31.490   5.712  11.871
44789W        W16515  34.885  29.138   2.460
44790W        W16516  40.697  15.286  13.464
44791W        W16517  40.634  19.444   5.160
44792W        W16518   6.805  38.482  10.606
44793W        W16519  26.626  20.023  13.588
44794W        W16520  24.371  38.799  14.884
44795W        W16521  31.838  33.713  14.001
44796W        W16522  42.378  16.505   4.620
44797W        W16523  32.083  26.264   0.751
44798W        W16524  44.319  25.129  13.666
44799W        W16525   8.963  29.560  13.942
44800W        W16526  20.747  27.128  11.615
44801W        W16527  12.333  16.650  13.853
44802W        W16528   5.978  33.579   0.386
44803W        W16529  22.908  44.900   3.598
44804W        W16530  29.502  41.793   0.324
44805W        W16531   9.396  15.304  11.605
44806W        W16532  18.900  24.907   4.102
44807W        W16533  18.620  21.033  13.880
44808W        W16534  24.036   6.267  12.101
44809W        W16535  29.958   4.785   2.299
44810W        W16536  17.757   0.596   2.719
44811W        W16537   0.409   3.808  13.691
44812W        W16538  43.121   4.805  10.918
44813W        W16539  22.665   8.140   1.283
44814W        W16540  39.083  26.679   2.220
44815W        W16541   7.721  17.308   0.312
44816W        W16542  26.651  25.105  14.780
44817W        W16543  41.594  38.033   0.943
44818W        W16544  17.561  23.667  13.417
44819W        W16545  37.277  39.092   4.077
44820W        W16546  36.892  37.624   4.573
44821W        W16547  31.189  27.135   5.116
44822W        W16548  44.410  16.137   0.785
44823W        W16549   5.288  35.242  12.468
44824W        W16550   9.738  20.979  13.459
44825W        W16551  13.881  29.193  11.165
44826W        W16552  32.164  29.202   3.345
44827W        W16553  41.357  35.859  14.388
44828W        W16554  26.453  34.482   3.863
44829W        W16555  15.109  31.702   4.116
44830W        W16556  33.666   6.237  11.038
44831W        W16557  12.239  19.782  13.298
44832W        W16558  43.347   1.837   1.372
44833W        W16559  38.791  25.958   3.778
44834W        W16560  13.859  22.294  13.268
44835W        W16561  32.906   7.076   0.928
44836W        W16562  44.961   3.725   3.101
44837W        W16563   1.152   9.073  13.170
44838W        W16564  20.767  11.716  13.272
44839W        W16565  29.186  11.622   4.214
44840W        W16566  14.784  38.088  11.150
44841W        W16567   1.783  39.578   2.418
44842W        W16568   7.750  35.559   2.238
44843W        W16569   9.648   0.530   3.316
44844W        W16570  13.433  43.235  14.047
44845W        W16571  12.859  12.253  12.915
44846W        W16572  41.942  27.686  14.346
44847W        W16573  21.733   4.222  13.132
44848W        W16574  27.490  16.588   0.382
44849W        W16575  39.922  35.519   3.546
44850W        W16576  22.942  17.254  13.538
44851W        W16577   7.163  41.896   0.836
44852W        W16578  21.399  17.564  13.738
44853W        W16579  13.795   9.589   1.881
44854W        W16580  23.258  40.926  14.899
44855W        W16581  15.560  39.159  11.011
44856W        W16582   3.646   1.187   2.275
44857W        W16583  15.759  39.177  14.429
44858W        W16584  39.776  27.305   4.648
44859W        W16585  32.067  34.029  11.110
44860W        W16586   5.900  20.585  14.331
44861W        W16587  22.813   6.204   4.614
44862W        W16588  16.821  22.189   1.936
44863W        W16589  14.212   6.109   1.275
44864W        W16590  23.200  41.765  10.760
44865W        W16591  10.659   3.465   2.274
44866W        W16592  42.902   6.839   0.398
44867W        W16593  13.919   2.897   2.879
44868W        W16594  34.136  34.632  14.131
44869W        W16595  19.102  38.363   3.272
44870W        W16596  12.587  25.975   4.417
44871W        W16597   6.714   6.251  14.012
44872W        W16598  13.309  11.879   3.373
44873W        W16599  39.264  17.304   1.863
44874W        W16600   5.943  22.581   1.996
44875W        W16601  11.458  44.904  11.929
44876W        W16602  19.242  16.073   4.338
44877W        W16603  39.820   3.775  12.145
44878W        W16604   8.920  39.421  12.910
44879W        W16605  25.640  25.171   0.216
44880W        W16606   3.891   4.708   4.544
44881W        W16607  30.780  43.463  14.932
44882W        W16608   8.415  30.214  13.405
44883W        W16609  26.521  27.775   2.187
44884W        W16610  21.962  39.324  14.161
44885W        W16611   7.637  44.196  13.408
44886W        W16612   9.320  37.276  14.505
44887W        W16613  19.498   1.316   0.956
44888W        W16614   7.259  33.953   2.004
44889W        W16615  42.245  14.881  10.900
44890W        W16616   3.445  41.834   2.695
44891W        W16617  43.599  22.611   0.735
44892W        W16618   0.368  39.150  14.088
44893W        W16619  18.546  44.868  14.466
44894W        W16620  16.307  13.612  11.173
44895W        W16621  30.328   7.828  12.786
44896W        W16622  43.541   4.164   4.215
44897W        W16623  10.911   1.159  12.087
44898W        W16624  34.479  19.619   2.764
44899W        W16625  12.850   7.348  14.894
44900W        W16626  20.696   8.891   1.447
44901W        W16627  19.292  31.403   2.313
44902W        W16628  27.030  15.360   2.461
44903W        W16629  20.638  28.186  10.735
44904W        W16630  40.265  15.352   2.772
44905W        W16631  21.933   3.240   2.329
44906W        W16632  13.355  17.333  14.978
44907W        W16633  36.739  26.917   4.504
44908W        W16634  35.034  39.319   0.697
44909W        W16635  40.089   0.904   1.175
44910W        W16636  21.587  39.369  13.828
44911W        W16637  12.883  15.160   0.464
44912W        W16638   3.172  22.253  12.543
44913W        W16639  31.160  26.306   9.700
44914W        W16640  36.565  24.080   0.466
44915W        W16641   7.161   7.745   1.391
44916W        W16642   9.359   8.423  11.619
44917W        W16643  14.854  20.580   1.262
44918W        W16644   7.157  20.414   1.279
44919W        W16645  11.632   3.174  11.584
44920W        W16646  34.123  41.972  10.985
44921W        W16647  31.123  37.006   2.237
44922W        W16648   2.501  43.434   2.511
44923W        W16649  34.578  31.850  10.769
44924W        W16650  35.351  43.882   1.798
44925W        W16651  25.966  15.698  10.988
44926W        W16652  29.228  34.579   0.223
44927W        W16653  33.433  14.354   4.730
44928W        W16654  14.308   1.687   3.180
44929W        W16655  24.056  33.815  12.673
44930W        W16656   8.699  28.944   3.200
44931W        W16657  21.058  13.306  11.449
44932W        W16658  16.124  24.372   2.260
44933W        W16659   6.978  20.140   2.194
44934W        W16660  22.765  14.044   1.942
44935W        W16661  15.829   3.521  11.583
44936W        W16662  30.509  29.557   1.051
44937W        W16663   1.222  35.387   3.704
44938W        W16664  18.850  22.637   0.825
44939W        W16665  11.597  30.981   3.413
44940W        W16666  20.537  38.357   1.790
44941W        W16667   0.130  37.168  11.139
44942W        W16668  38.803  24.040   3.687
44943W        W16669  43.793   5.234   2.422
44944W        W16670  12.847  15.132  12.187
44945W        W16671  22.963   5.340   4.857
44946W        W16672   2.440  32.168  13.894
44947W        W16673  34.909  10.970   4.103
44948W        W16674  43.143   5.432   3.943
44949W        W16675   4.018  33.871  11.295
44950W        W16676  13.362  26.656  12.034
44951W        W16677  27.939  24.058   4.894
44952W        W16678  38.937   6.873  12.509
44953W        W16679  44.374  16.742   2.393
44954W        W16680  43.884   8.997   4.879
44955W        W16681  17.752  42.253  14.403
44956W        W16682  31.501  37.669  12.461
44957W        W16683  39.581  18.710   4.659
44958W        W16684  43.710  41.816   3.736
44959W        W16685  14.091  19.149  13.035
44960W        W16686  21.285  34.930  12.462
44961W        W16687  20.085   7.153  10.801
44962W        W16688  43.486  36.531   0.176
44963W        W16689  42.957  21.525  12.053
44964W        W16690  27.566   5.405   2.355
44965W        W16691  34.322   9.899   3.161
44966W        W16692  12.282   0.513  12.607
44967W        W16693  21.096  16.301   4.760
44968W        W16694  27.505   0.704  14.860
44969W        W16695  14.568  17.867   5.044
44970W        W16696   6.956  18.578   1.481
44971W        W16697  44.702  43.713  13.362
44972W        W16698   9.617  44.530  12.390
44973W        W16699   5.360   4.311   2.241
44974W        W16700   2.931  14.351  14.342
44975W        W16701  23.570  23.085   4.554
44976W        W16702  16.064  39.886  14.749
44977W        W16703  42.731   5.806  11.141
44978W        W16704  20.681  36.807  10.690
44979W        W16705  21.486  18.280   3.036
44980W        W16706  22.481  22.095  12.904
44981W        W16707  30.201   1.933   0.499
44982W        W16708  43.052   1.969   2.694
44983W        W16709  43.773  32.717   3.999
44984W        W16710  14.765  41.374  13.903
44985W        W16711  15.129   0.845   0.990
44986W        W16712   8.727  36.360  10.540
44987W        W16713  17.007  21.977   4.285
44988W        W16714  44.297  32.918   3.190
44989W        W16715  42.364  25.531  14.641
44990W        W16716  23.505  22.465  13.496
44991W        W16717   6.928  36.904  13.111
44992W        W16718  21.947  14.320   2.500
44993W        W16719   1.987  14.021  11.653
44994W        W16720  24.567  15.102   4.640
44995W        W16721  40.775  18.089   1.886
44996W        W16722   2.765  22.242   4.152
44997W        W16723  38.115  13.457  13.400
44998W        W16724  16.057  25.014   1.846
44999W        W16725  26.276  17.836   1.855
45000W        W16726  41.379   8.407  12.411
45001W        W16727  26.625  35.659   0.838
45002W        W16728  31.328  32.445   3.478
45003W        W16729  44.801  27.763   1.889
45004W        W16730  21.317   6.772   1.626
45005W        W16731   8.061  35.159  11.966
45006W        W16732  35.515  38.292   4.694
45007W        W16733  13.737  26.185  11.552
45008W        W16734  27.849  17.496  10.709
45009W        W16735  24.670   7.349  11.542
45010W        W16736  32.398  44.900   0.322
45011W        W16737   5.300  25.043   1.968
45012W        W16738  39.058   9.912  10.517
45013W        W16739   3.310  25.030   3.287
45014W        W16740  15.239  37.103   1.686
45015W        W16741   6.323  19.413  11.736
45016W        W16742  34.413  14.542  12.861
45017W        W16743  19.381  33.527  13.974
45018W        W16744  32.424  20.888   3.380
45019W        W16745  39.873  34.186  13.783
45020W        W16746  39.176  28.698   3.743
45021W        W16747   3.465  34.420  12.488
45022W        W16748  40.636  42.570   1.782
45023W        W16749  19.576  33.618   0.474
45024W        W16750  11.603  32.396   0.725
45025W        W16751   9.829   4.732  13.829
45026W        W16752  34.495  10.798   1.374
45027W        W16753  41.630  35.455   2.476
45028W        W16754  34.425  33.460   4.635
45029W        W16755  42.941  33.479   0.667
45030W        W16756  25.003   4.875  10.656
45031W        W16757  39.822  38.618   4.176
45032W        W16758  16.684  33.601  10.668
45033W        W16759  31.313  44.900   5.085
45034W        W16760  44.729  34.373  11.644
45035W        W16761   2.877  43.482  11.562
45036W        W16762  38.880  36.581  11.909
45037W        W16763   1.695  35.574  13.576
45038W        W16764  24.445  27.990  10.668
45039W        W16765   0.706  40.031   4.782
45040W        W16766  27.870  41.230  14.982
45041W        W16767  42.047  35.990  13.457
45042W        W16768  39.065  36.979  11.104
45043W        W16769   0.098  16.957  11.693
45044W        W16770  19.598  41.915   4.608
45045W        W16771  18.809  44.229   2.410
45046W        W16772   8.098  24.237  13.833
45047W        W16773  33.652  26.028   2.286
45048W        W16774  30.190   2.810  11.043
45049W        W16775  42.869   9.123  13.050
45050W        W16776   7.947  10.272  10.733
45051W        W16777   9.361  36.458   1.824
45052W        W16778   7.444  15.313  12.420
45053W        W16779  41.687   1.069   5.036
45054W        W16780   9.232   9.915   0.825
45055W        W16781  39.845   2.455  13.523
45056W        W16782  35.379  11.731  12.359
45057W        W16783   4.793  39.607   2.231
45058W        W16784  24.283   1.741  11.978
45059W        W16785  25.240  34.069  12.438
45060W        W16786  18.706  42.413   3.703
45061W        W16787  30.216   8.884  13.524
45062W        W16788  28.709  32.562   4.667
45063W        W16789  37.777  13.729   0.658
45064W        W16790  25.998  20.190   0.715
45065W        W16791  22.709   6.598   1.939
45066W        W16792  13.723   1.220  12.062
45067W        W16793  26.768  24.206   2.167
45068W        W16794  16.214  27.388  14.861
45069W        W16795  40.471  27.046  14.761
45070W        W16796  13.725  25.498   1.835
45071W        W16797  41.301  13.173   3.888
45072W        W16798  41.030  21.621   4.234
45073W        W16799  28.003  23.039   0.705
45074W        W16800   6.513   3.153  12.719
45075W        W16801  13.749  14.568   1.406
45076W        W16802   7.623   2.372  12.797
45077W        W16803  17.566  17.653  10.623
45078W        W16804  19.670   2.682   1.307
45079W        W16805  39.967  19.331  14.488
45080W        W16806  38.112   5.275   1.348
45081W        W16807  27.571  15.624  10.644
45082W        W16808  18.064  25.606   0.328
45083W        W16809   9.612  28.635   3.362
45084W        W16810   5.985   2.399   3.890
45085W        W16811  18.051  21.264   4.441
45086W        W16812   4.221  13.068  13.472
45087W        W16813  44.943  23.206  11.351
45088W        W16814  20.696  17.484  10.634
45089W        W16815  26.699  43.991   2.869
45090W        W16816  36.331  27.243   4.042
45091W        W16817   5.707  24.165  10.790
45092W        W16818   2.436  26.094  11.017
45093W        W16819  22.594  36.296  12.557
45094W        W16820  26.183   5.742   3.203
45095W        W16821   6.463  14.103   0.379
45096W        W16822  38.980  33.545   3.642
45097W        W16823  26.427  34.935   4.796
45098W        W16824  17.654  27.162   0.806
45099W        W16825  17.354  27.688   4.603
45100W        W16826  24.703  29.539   1.325
45101W        W16827  25.539  25.212  12.854
45102W        W16828   2.235  15.673  12.866
45103W        W16829  42.259  21.509  12.458
45104W        W16830   8.078  36.055  14.064
45105W        W16831  38.483  15.867  14.836
45106W        W16832   2.096   2.730  11.777
45107W        W16833   0.309  23.892  10.719
45108W        W16834  40.794  34.598   0.951
45109W        W16835  37.107  24.670   2.770
45110W        W16836  11.843  31.407   0.375
45111W        W16837  25.272  34.741   0.304
45112W        W16838  36.900  36.399   4.142
45113W        W16839  31.086  15.819  14.894
45114W        W16840  25.898  33.440   2.728
45115W        W16841  40.411   8.904   0.990
45116W        W16842  18.807   8.443  14.568
45117W        W16843  31.912  14.397   3.677
45118W        W16844  42.487  33.891   3.423
45119W        W16845  25.994  40.559   1.885
45120W        W16846  43.896  31.300  11.933
45121W        W16847  42.343  31.115  13.803
45122W        W16848  34.076   6.820   0.681
45123W        W16849  17.030  17.849  12.427
45124W        W16850   2.665  42.900  13.599
45125W        W16851  42.331  19.823  11.949
45126W        W16852   5.426   7.342  12.995
45127W        W16853   6.838   8.772  13.530
45128W        W16854   2.970  28.499   3.276
45129W        W16855  36.186  10.816  11.967
45130W        W16856  11.973   3.244  12.085
45131W        W16857   0.224  26.838   5.058
45132W        W16858  38.138  21.454  13.368
45133W        W16859  31.811  30.967  14.398
45134W        W16860  13.662  30.527  11.496
45135W        W16861  27.854  18.223  12.487
45136W        W16862  14.008   1.344   0.164
45137W        W16863  37.337  43.413  13.629
45138W        W16864   9.648  22.658  11.064
45139W        W16865  22.319  44.355  10.619
45140W        W16866  25.810   7.217  10.412
45141W        W16867  11.818  41.557  10.334
45142W        W16868  33.157  12.811   1.274
45143W        W16869   7.115  36.761   4.183
45144W        W16870   3.409  38.745  14.295
45145W        W16871   2.464  24.983  13.564
45146W        W16872  28.123   3.497   2.892
45147W        W16873   0.530  23.777   4.572
45148W        W16874  13.169  27.731  14.446
45149W        W16875  19.098  44.468  11.601
45150W        W16876  10.443  13.640   1.313
45151W        W16877  36.581  13.941  12.753
45152W        W16878  19.437   5.963  12.867
45153W        W16879  12.435  31.158   0.955
45154W        W16880   9.646  14.787   3.752
45155W        W16881  42.050  12.852   3.706
45156W        W16882  12.099  24.014  10.589
45157W        W16883  36.810   2.441  12.644
45158W        W16884  40.855  23.219   1.318
45159W        W16885   1.624  38.043   1.452
45160W        W16886  32.117  23.973  12.645
45161W        W16887  21.560  18.713   4.887
45162W        W16888   4.239  16.325  14.888
45163W        W16889  24.955  31.614   3.771
45164W        W16890  24.651  40.006   0.845
45165W        W16891  35.612  31.683  13.037
45166W        W16892  32.130  16.850   4.090
45167W        W16893   6.562  32.368   3.871
45168W        W16894  20.030  12.810  12.086
45169W        W16895   3.944   6.190   4.136
45170W        W16896  33.547   0.805  12.516
45171W        W16897   5.907  13.041  10.670
45172W        W16898  25.041  36.018   2.390
45173W        W16899  34.837  26.733  11.602
45174W        W16900  15.244  11.096  12.123
45175W        W16901   6.780  31.453   0.479
45176W        W16902  22.803  22.226   3.160
45177W        W16903  14.568  10.758  10.730
45178W        W16904  12.056  22.101  11.146
45179W        W16905   2.214  39.956  11.094
45180W        W16906   6.670  41.778   0.861
45181W        W16907   3.631   4.261  11.154
45182W        W16908  28.221  41.625  14.884
45183W        W16909  20.685  11.783  11.574
45184W        W16910  10.153   4.798  12.101
45185W        W16911  15.633  13.367  12.705
45186W        W16912   4.463  21.536   2.669
45187W        W16913  39.061  23.035  10.147
45188W        W16914  17.071  37.420   3.209
45189W        W16915  16.218   5.574  10.503
45190W        W16916  25.115   1.377  12.415
45191W        W16917  20.469  36.954  11.559
45192W        W16918  29.400  14.685  10.592
45193W        W16919  39.083  36.398   4.576
45194W        W16920  22.164   5.799  10.732
45195W        W16921  15.027  32.909  10.308
45196W        W16922  28.367  34.079   1.628
45197W        W16923   7.241  15.235   0.901
45198W        W16924  35.958   0.479   2.219
45199W        W16925  10.773   6.452   4.622
45200W        W16926   4.325  42.242  11.428
45201W        W16927  38.973  22.022   0.203
45202W        W16928  28.814   8.227   1.736
45203W        W16929  31.591   0.099   2.925
45204W        W16930  44.194  12.695  14.524
45205W        W16931  10.173   0.842   4.435
45206W        W16932  22.760  41.230   0.329
45207W        W16933  30.829   9.072  12.853
45208W        W16934   4.386   1.325  11.606
45209W        W16935   6.549  16.712  12.923
45210W        W16936  41.750   4.731  13.032
45211W        W16937  12.636  26.313   4.835
45212W        W16938  13.300   5.325   3.611
45213W        W16939   0.498   0.822   2.745
45214W        W16940  43.398  27.955  13.848
45215W        W16941  32.130  16.382   3.367
45216W        W16942   2.212  41.876   3.233
45217W        W16943  41.237  14.222  14.542
45218W        W16944   5.344  31.501   4.246
45219W        W16945  35.284  26.358   2.292
45220W        W16946   0.315  30.889  11.419
45221W        W16947  16.388  41.227  11.553
45222W        W16948   9.912   1.543   1.734
45223W        W16949  31.898  40.165  12.033
45224W        W16950  37.825  18.794  11.988
45225W        W16951  44.151  16.846  14.856
45226W        W16952   8.896  21.304   5.046
45227W        W16953  44.658  31.951   5.391
45228W        W16954   0.146  13.056   3.672
45229W        W16955   6.377  16.186  10.055
45230W        W16956  24.742  30.557   4.987
45231W        W16957  33.411   5.886   0.791
45232W        W16958  28.044  13.439   1.357
45233W        W16959  25.574  24.701   3.362
45234W        W16960   5.944  36.508  11.084
45235W        W16961  39.030  43.831  14.458
45236W        W16962  23.009  43.983   1.020
45237W        W16963  29.223  28.162  13.796
45238W        W16964  11.668  12.738   0.340
45239W        W16965  32.068   9.668   4.356
45240W        W16966  43.300  18.179   4.632
45241W        W16967  11.070  43.055  13.811
45242W        W16968  37.426  22.233  14.280
45243W        W16969  18.182  25.600  11.953
45244W        W16970  23.739  39.004  13.713
45245W        W16971  34.512  16.633   1.499
45246W        W16972  36.885  23.664   3.573
45247W        W16973   4.358  42.939   1.113
45248W        W16974  31.561  29.088   0.644
45249W        W16975  13.508  15.071   0.041
45250W        W16976  26.072  39.419  14.019
45251W        W16977  24.679   3.430  12.564
45252W        W16978   1.430  39.933  12.439
45253W        W16979  43.892  11.170   1.818
45254W        W16980  25.449  10.981  13.509
45255W        W16981   1.703  17.654  11.193
45256W        W16982  43.730   4.760   3.657
45257W        W16983  15.817  38.209   5.122
45258W        W16984  16.002  30.110  13.528
45259W        W16985  38.038  37.620  13.592
45260W        W16986   4.798  28.706   2.128
45261W        W16987  40.683   6.750  13.542
45262W        W16988  33.148  30.145  11.754
45263W        W16989  12.400  21.207  14.515
45264W        W16990   0.530  16.136  10.762
45265W        W16991  24.569  20.347   4.222
45266W        W16992  27.037  39.227  12.976
45267W        W16993  31.412  28.535   3.188
45268W        W16994   9.918  30.036   2.248
45269W        W16995   1.367  14.307   2.223
45270W        W16996   3.841  42.288  11.148
45271W        W16997  26.494  42.253   1.510
45272W        W16998  18.886   2.837  14.419
45273W        W16999  18.242  38.959   4.555
45274W        W17000  10.519   7.359  11.263
45275W        W17001  13.339  18.555  12.755
45276W        W17002  12.640  33.901   1.273
45277W        W17003   1.606  38.027  14.437
45278W        W17004  20.498  29.421  13.101
45279W        W17005  14.254  15.222  14.920
45280W        W17006  42.510  25.416   3.103
45281W        W17007  30.670   6.300  12.030
45282W        W17008  33.373  32.108   1.568
45283W        W17009   5.457  22.760   1.852
45284W        W17010  21.339  35.921   0.244
45285W        W17011  15.304  28.689   2.908
45286W        W17012  13.090  42.353   1.826
45287W        W17013  21.983  12.545   4.574
45288W        W17014   3.313  25.268   2.783
45289W        W17015   5.472   9.325   0.749
45290W        W17016  18.944   3.313   3.727
45291W        W17017  28.745   4.893   3.686
45292W        W17018  14.713  14.651   1.373
45293W        W17019  10.941  13.258   3.147
45294W        W17020  28.507  10.919  12.557
45295W        W17021   3.345  19.012  11.768
45296W        W17022  33.494  24.120  10.145
45297W        W17023  26.122  38.121   3.368
45298W        W17024   3.492  32.664   1.755
45299W        W17025  22.260  33.013  13.407
45300W        W17026  30.623  34.672  13.086
45301W        W17027  40.955  35.504   1.712
45302W        W17028  37.794   7.839  13.078
45303W        W17029   4.970  29.833   4.138
45304W        W17030  38.962  10.913  11.550
45305W        W17031  12.490  16.222   2.936
45306W        W17032  39.162  19.481  12.459
45307W        W17033   5.974  18.552   1.127
45308W        W17034  42.717  38.504  12.913
45309W        W17035  30.643   3.899   4.512
45310W        W17036  30.680   9.781  13.316
45311W        W17037  28.862   9.831  10.948
45312W        W17038  15.592  44.372   1.917
45313W        W17039   6.797  35.426  10.583
45314W        W17040   1.204  15.353   3.237
45315W        W17041  32.566   5.646   3.872
45316W        W17042  31.770  43.363  14.026
45317W        W17043  18.626  31.905  11.721
45318W        W17044   5.196  33.926  11.664
45319W        W17045  22.146  20.175   1.256
45320W        W17046  13.774  22.855   0.043
45321W        W17047  10.235  38.105   0.579
45322W        W17048   4.324  11.864   2.426
45323W        W17049   8.805  36.612  12.926
45324W        W17050   7.258  28.253   3.183
45325W        W17051  31.553  24.141   4.718
45326W        W17052  41.064   5.541  13.636
45327W        W17053  32.564  23.013   5.551
45328W        W17054  42.354   9.358  14.338
45329W        W17055  39.834   8.238   1.221
45330W        W17056  21.083  18.065  13.915
45331W        W17057  28.452  13.656   0.302
45332W        W17058   6.718   5.440   4.138
45333W        W17059  34.268   4.874   4.075
45334W        W17060  34.417   0.393   2.244
45335W        W17061   1.728   0.661   3.246
45336W        W17062  10.423   2.144   3.251
45337W        W17063  21.900  24.563   5.256
45338W        W17064  27.031  10.763  10.620
45339W        W17065  13.778  23.471   0.908
45340W        W17066   7.222  32.352   0.298
45341W        W17067  33.546   9.656   0.189
45342W        W17068  39.741  26.039  12.649
45343W        W17069  30.602   7.427   3.274
45344W        W17070  21.359   8.361  12.338
45345W        W17071   4.247  21.623  14.585
45346W        W17072  11.724  32.646   1.699
45347W        W17073  38.876   8.655   2.151
45348W        W17074  10.275  15.375   4.274
45349W        W17075  11.028   5.779   1.436
45350W        W17076  41.046   9.184   0.470
45351W        W17077  15.219  13.974   2.203
45352W        W17078  36.531  34.390  11.451
45353W        W17079  14.372  32.391  14.009
45354W        W17080  43.750  14.705   4.485
45355W        W17081  19.175  29.883   2.144
45356W        W17082   0.251   5.314  11.617
45357W        W17083  34.857  30.600   2.647
45358W        W17084  23.770  18.081  14.268
45359W        W17085  43.433  21.323  11.833
45360W        W17086  43.318  14.799   4.210
45361W        W17087   3.777   5.715  11.563
45362W        W17088  40.491  42.221   1.435
45363W        W17089  43.056  26.249  11.108
45364W        W17090  32.001  27.378  11.592
45365W        W17091  26.469  38.948  11.712
45366W        W17092  36.496  30.455   4.508
45367W        W17093  14.367   6.267   1.790
45368W        W17094  28.588  31.555  10.800
45369W        W17095  27.789   0.172   0.803
45370W        W17096  12.244   2.377   0.502
45371W        W17097  34.373  31.252  11.576
45372W        W17098  20.776  25.238  10.426
45373W        W17099  21.435  34.578  12.011
45374W        W17100  15.170  22.710   2.196
45375W        W17101  37.658  34.137  14.449
45376W        W17102   8.715  25.077  13.583
45377W        W17103  17.110  12.537   3.577
45378W        W17104   2.792  35.390   0.934
45379W        W17105  26.685  24.996   1.834
45380W        W17106  38.555  34.043   1.922
45381W        W17107  29.758  25.087   1.633
45382W        W17108   5.570  34.557   2.875
45383W        W17109   2.299   1.259   2.197
45384W        W17110  42.362   6.070  14.466
45385W        W17111  34.341  40.771   4.520
45386W        W17112  28.563  17.281  10.678
45387W        W17113  18.050  30.915   0.226
45388W        W17114  27.087   0.448   1.537
45389W        W17115   1.162  23.289  10.750
45390W        W17116  13.327  18.760  14.457
45391W        W17117   9.312  21.051   2.486
45392W        W17118   5.767   7.124   3.143
45393W        W17119  18.160  32.942  14.523
45394W        W17120  11.686  34.344  11.998
45395W        W17121  21.335   8.842   1.868
45396W        W17122  38.071  41.903  11.436
45397W        W17123  37.968  10.161  11.610
45398W        W17124  39.301   3.951  14.003
45399W        W17125  18.572  33.143  10.723
45400W        W17126  37.607   6.851   3.665
45401W        W17127  18.814   7.773   2.194
45402W        W17128   8.649  40.405  14.356
45403W        W17129  26.220  42.942   4.997
45404W        W17130  19.338  14.428   2.456
45405W        W17131   6.869  29.671   0.015
45406W        W17132  44.203   3.786   3.605
45407W        W17133  33.931   2.280  10.691
45408W        W17134  37.412   9.694  13.574
45409W        W17135   1.104  27.765   1.240
45410W        W17136   5.300  26.437  13.433
45411W        W17137  12.035  14.769   1.772
45412W        W17138  41.555  20.593   1.878
45413W        W17139  33.118  23.183   4.893
45414W        W17140  12.469   6.208   4.432
45415W        W17141  34.918   5.793  13.131
45416W        W17142  31.073  32.046   3.259
45417W        W17143   0.514  41.988   1.573
45418W        W17144  14.924  35.113  14.183
45419W        W17145  38.911   4.271  13.983
45420W        W17146  43.007  41.919  11.113
45421W        W17147  27.323  34.337   2.328
45422W        W17148   6.668  44.706  14.712
45423W        W17149  32.757   7.565   4.951
45424W        W17150   4.953  39.064  12.204
45425W        W17151  40.716  21.434  10.395
45426W        W17152  35.094  23.895   0.224
45427W        W17153   7.565  15.602  10.844
45428W        W17154  22.382  37.217  12.490
45429W        W17155  13.555  18.180  12.456
45430W        W17156  25.113  17.737   0.821
45431W        W17157  23.071   6.063  12.944
45432W        W17158  19.321   1.854   4.575
45433W        W17159  16.222  23.083  12.145
45434W        W17160  23.424  22.533  12.333
45435W        W17161  41.384  23.982   2.405
45436W        W17162  34.431   8.416  13.625
45437W        W17163  16.349  42.571   4.811
45438W        W17164   5.338  33.643   3.692
45439W        W17165   3.985  33.017   1.891
45440W        W17166  11.190  15.196   2.129
45441W        W17167  12.229  21.591   1.791
45442W        W17168  26.993  13.266  14.421
45443W        W17169  15.602  36.654   2.149
45444W        W17170  20.660  20.131   3.673
45445W        W17171   0.333  27.178  13.449
45446W        W17172  20.540  40.486   4.150
45447W        W17173  12.049  13.587   3.192
45448W        W17174  39.463   7.725  10.674
45449W        W17175   6.672   7.342   0.307
45450W        W17176  21.955   4.626   5.022
45451W        W17177  13.391  21.531  13.587
45452W        W17178  16.121  12.888  12.174
45453W        W17179  40.915  17.610  14.794
45454W        W17180  43.865  28.625  10.616
45455W        W17181  21.408  19.657   1.068
45456W        W17182  29.740  42.100  14.953
45457W        W17183  35.487  15.254   3.699
45458W        W17184  14.468   2.740  12.988
45459W        W17185  10.249  24.740  11.112
45460W        W17186   3.218   6.793   4.084
45461W        W17187  28.673  33.204   0.373
45462W        W17188   4.210  13.190  14.394
45463W        W17189  34.661  44.535   2.854
45464W        W17190  41.711  10.549   2.272
45465W        W17191  14.184  15.280   1.507
45466W        W17192   1.331  35.361   0.471
45467W        W17193  30.160  31.631  12.074
45468W        W17194  40.809  11.914   1.298
45469W        W17195  22.742  30.664  11.153
45470W        W17196  41.454  23.972   3.314
45471W        W17197   5.258  38.899  14.769
45472W        W17198  31.642  34.584   1.264
45473W        W17199  39.048  22.342   1.584
45474W        W17200  11.162  31.346   3.281
45475W        W17201  42.054  18.113   4.149
45476W        W17202  17.107   4.320   3.086
45477W        W17203  13.833  17.662  13.931
45478W        W17204   2.757  15.484   0.375
45479W        W17205  24.926  18.777   0.295
45480W        W17206  20.368  11.716  13.616
45481W        W17207  24.364  27.468   5.422
45482W        W17208  19.118  39.905  11.641
45483W        W17209  39.492  31.865   0.204
45484W        W17210   3.775   8.828   4.686
45485W        W17211  10.821   3.419   1.773
45486W        W17212  38.895   8.964  10.660
45487W        W17213  41.290  37.270  11.417
45488W        W17214  38.663   9.947  11.905
45489W        W17215  28.573   1.719  14.254
45490W        W17216   2.156   8.207   3.813
45491W        W17217  36.182  19.590   0.987
45492W        W17218  13.054  39.829  10.569
45493W        W17219  29.433  29.456  11.542
45494W        W17220   7.373  22.740  10.925
45495W        W17221  41.705  21.602   5.022
45496W        W17222   2.393  31.944  14.373
45497W        W17223   0.182  31.892   3.351
45498W        W17224  28.152  26.235   5.111
45499W        W17225  35.083  23.188   4.499
45500W        W17226   5.448   6.681   5.460
45501W        W17227   0.895  21.723  12.426
45502W        W17228  34.732  11.973  10.757
45503W        W17229  40.872  14.133   0.366
45504W        W17230  10.096   6.731   3.142
45505W        W17231  14.855  29.945   4.170
45506W        W17232  42.436  12.422  11.214
45507W        W17233  23.719  18.776  14.449
45508W        W17234  21.493  20.014   3.154
45509W        W17235  39.770  40.186  11.880
45510W        W17236  12.377  10.202  13.447
45511W        W17237  20.044  20.222  10.578
45512W        W17238  20.948  29.172   4.902
45513W        W17239  33.252   8.152  14.752
45514W        W17240  38.460  27.085  14.402
45515W        W17241  35.030   7.445  13.981
45516W        W17242  16.193  14.080   3.835
45517W        W17243  26.675  10.662   1.249
45518W        W17244  18.455  38.360  10.532
45519W        W17245  41.728   9.726  12.827
45520W        W17246  27.384  17.548   0.959
45521W        W17247  12.471  40.799  12.419
45522W        W17248  37.992  38.599  12.490
45523W        W17249   3.198  21.520  13.372
45524W        W17250  21.027   7.960   4.289
45525W        W17251  23.307  27.653   0.903
45526W        W17252  35.765   4.923   5.111
45527W        W17253   4.874  11.982  10.725
45528W        W17254   0.401  32.917  12.536
45529W        W17255  40.956   3.958   4.854
45530W        W17256  14.154   2.902   3.733
45531W        W17257  16.400  17.245  10.616
45532W        W17258  35.560  16.214   0.097
45533W        W17259  30.065  40.377  13.402
45534W        W17260  42.180  15.471  14.889
45535W        W17261  25.934  34.538   3.389
45536W        W17262  42.834   7.075   2.740
45537W        W17263  16.591   2.267   3.683
45538W        W17264   6.616  31.891   3.119
45539W        W17265   5.604  18.635  10.692
45540W        W17266   3.250  25.515   2.322
45541W        W17267  15.470   6.412  12.788
45542W        W17268  36.636   6.279   0.241
45543W        W17269  27.452  30.888   0.329
45544W        W17270  39.954   0.919  12.462
45545W        W17271  36.950   5.740  14.379
45546W        W17272   3.999  22.197  12.220
45547W        W17273   7.018   1.400   2.727
45548W        W17274  29.014  21.204  12.434
45549W        W17275  10.116  19.934  14.970
45550W        W17276  21.515  35.391  12.392
45551W        W17277   0.758   4.419  12.860
45552W        W17278  38.357  29.599  12.170
45553W        W17279   0.104   0.563  14.315
45554W        W17280   6.244  26.885  14.848
45555W        W17281  16.039  39.042   1.830
45556W        W17282   3.673  10.634  10.492
45557W        W17283  10.114  29.754   0.482
45558W        W17284  25.825  10.747  11.934
45559W        W17285  28.638  43.251  12.159
45560W        W17286  36.360  40.064   2.671
45561W        W17287  28.944  40.957   0.534
45562W        W17288  10.680   5.711   2.465
45563W        W17289  12.117  35.652  13.365
45564W        W17290  14.674  27.330  14.387
45565W        W17291  36.878   9.694  14.312
45566W        W17292  43.198  23.303   0.031
45567W        W17293  42.364   4.280   2.396
45568W        W17294  42.689  17.066   3.795
45569W        W17295  11.117  14.103   2.260
45570W        W17296  22.046  25.386  14.328
45571W        W17297  25.561  27.240  14.246
45572W        W17298  37.876  15.199  11.376
45573W        W17299  40.491  40.775   0.760
45574W        W17300  16.365  18.960   2.704
45575W        W17301  13.923  27.573  11.859
45576W        W17302   1.796  33.472  13.388
45577W        W17303  26.548  26.474   4.039
45578W        W17304   1.464  35.939   1.424
45579W        W17305  22.069  28.016   1.196
45580W        W17306   0.051  40.025   2.993
45581W        W17307   1.762  13.265  14.802
45582W        W17308  31.335  31.060  12.059
45583W        W17309   7.922  40.927   2.344
45584W        W17310  40.513  26.228  11.593
45585W        W17311  40.594  38.569   1.920
45586W        W17312   9.885   5.748   0.763
45587W        W17313  43.578   9.331   0.800
45588W        W17314  41.451  43.125  10.653
45589W        W17315   5.382  14.036  11.078
45590W        W17316   2.246  12.324   1.754
45591W        W17317  36.918   0.407   2.986
45592W        W17318   9.367  36.976  11.446
45593W        W17319  44.416  13.107   4.520
45594W        W17320  29.090  34.770   3.287
45595W        W17321  26.742  42.231   2.441
45596W        W17322   4.728  22.103   2.378
45597W        W17323  44.250  33.487  12.064
45598W        W17324  36.461  24.556  11.554
45599W        W17325  20.039   3.908   3.762
45600W        W17326  15.274  25.455   0.205
45601W        W17327  34.784  26.002  11.052
45602W        W17328  24.881  12.805  14.508
45603W        W17329  20.762  18.019   4.524
45604W        W17330   0.017  19.080  13.370
45605W        W17331   8.384  32.950  10.729
45606W        W17332  11.332  24.702   4.075
45607W        W17333  12.793  26.855   4.848
45608W        W17334  34.559  14.545   1.122
45609W        W17335  34.468  36.535  10.777
45610W        W17336  18.079  19.999  14.403
45611W        W17337  14.211  40.008  11.896
45612W        W17338  12.615  41.707  13.522
45613W        W17339  36.471  11.299   2.055
45614W        W17340  31.613  17.248   4.249
45615W        W17341  26.062  12.175   4.362
45616W        W17342  29.933  30.451   4.558
45617W        W17343   6.695  32.031  12.051
45618W        W17344  24.537  42.235  12.126
45619W        W17345  18.054  13.791  10.792
45620W        W17346  18.801   4.207   0.764
45621W        W17347  13.336   3.147   1.676
45622W        W17348  33.606  24.067   1.326
45623W        W17349  25.873   0.747   0.891
45624W        W17350  17.416   0.197   4.923
45625W        W17351  16.999  36.285   1.177
45626W        W17352  35.668  40.345   0.708
45627W        W17353  20.553  35.171   2.750
45628W        W17354  42.658  16.327   4.209
45629W        W17355  10.394  42.887   4.725
45630W        W17356  33.896  38.809  14.079
45631W        W17357  34.661  27.797   2.776
45632W        W17358  28.437  29.463   3.209
45633W        W17359  13.859  37.989  13.771
45634W        W17360  17.713  33.613   1.739
45635W        W17361  34.626  39.880   2.343
45636W        W17362   1.802  27.573   1.867
45637W        W17363  31.152  40.358  13.385
45638W        W17364  10.964  28.183   3.094
45639W        W17365   2.566  19.708  14.975
45640W        W17366  13.704   6.310  14.334
45641W        W17367  17.931  38.301  10.581
45642W        W17368  41.431   9.759   0.003
45643W        W17369  25.888  28.767   4.840
45644W        W17370  24.567  43.405   0.194
45645W        W17371  22.489  41.807   3.751
45646W        W17372  12.874  39.958  12.585
45647W        W17373   4.991  31.535   1.588
45648W        W17374   4.714  30.559  11.067
45649W        W17375  37.416   5.911  12.089
45650W        W17376   1.654  22.010   2.847
45651W        W17377  42.978   0.886  12.440
45652W        W17378  14.616  10.986   3.291
45653W        W17379  16.623  39.714   2.643
45654W        W17380  24.510   6.146  10.613
45655W        W17381  32.587  23.998   4.660
45656W        W17382  13.398  39.428  11.984
45657W        W17383  44.448   0.245   1.349
45658W        W17384  39.452  25.555   0.423
45659W        W17385  17.319  14.208   0.697
45660W        W17386   3.297  29.441   3.158
45661W        W17387  32.205  39.448   4.259
45662W        W17388  13.216  27.754   0.721
45663W        W17389  28.230  10.281   0.471
45664W        W17390  25.468  12.718   1.441
45665W        W17391   5.297  13.849   5.319
45666W        W17392  15.295  43.834  14.707
45667W        W17393   0.220  13.037  13.532
45668W        W17394   3.375  20.453   1.353
45669W        W17395  14.220  15.824   3.683
45670W        W17396  39.843   1.690  10.653
45671W        W17397   8.390   5.795   4.563
45672W        W17398  33.949   9.931   1.334
45673W        W17399  43.543   0.376  12.044
45674W        W17400   2.419  18.827  13.984
45675W        W17401  23.185   7.907  10.854
45676W        W17402  38.816  38.454   3.854
45677W        W17403  17.035  24.704  14.246
45678W        W17404   9.992  29.058  13.248
45679W        W17405  33.618  20.483   1.760
45680W        W17406  37.515  21.378  10.595
45681W        W17407  32.138  19.665  10.343
45682W        W17408  39.321  27.196  13.800
45683W        W17409  34.081  31.057   2.189
45684W        W17410  12.745  23.447  13.153
45685W        W17411   7.678  13.306   2.744
45686W        W17412  43.103  34.555  14.727
45687W        W17413   2.919  15.859   3.795
45688W        W17414  20.869   1.180  13.387
45689W        W17415  12.797  29.283   0.908
45690W        W17416  11.633  39.378  14.562
45691W        W17417  19.607  26.254   0.483
45692W        W17418  39.644  36.836   0.892
45693W        W17419  28.060  41.121   2.924
45694W        W17420   7.939  29.642   3.875
45695W        W17421   3.491  10.543  13.911
45696W        W17422  36.603  14.222   4.604
45697W        W17423  38.039   6.968  10.997
45698W        W17424   4.655  33.326   1.307
45699W        W17425   4.940  14.590  11.825
45700W        W17426  28.561  31.197   3.603
45701W        W17427  33.055  18.460   3.386
45702W        W17428  40.482  28.600   0.423
45703W        W17429  11.207  33.097   2.300
45704W        W17430   4.002  18.364   2.552
45705W        W17431  25.795  18.305  12.963
45706W        W17432  26.545   7.771   2.877
45707W        W17433  20.594  37.064   0.269
45708W        W17434  13.581  43.054  10.623
45709W        W17435  32.160  32.723  11.573
45710W        W17436   7.495  15.192   4.156
45711W        W17437   6.357   1.529   3.903
45712W        W17438  10.305   2.047  12.484
45713W        W17439   9.208   4.007   1.173
45714W        W17440   5.199   8.507   4.165
45715W        W17441   3.993  31.738   2.240
45716W        W17442  10.267  16.096  13.377
45717W        W17443   7.613  31.343   0.001
45718W        W17444  23.208   7.005  14.028
45719W        W17445  23.767  18.244   3.791
45720W        W17446   2.771  36.081   4.613
45721W        W17447   9.841  42.932  13.439
45722W        W17448  10.663  12.500   4.608
45723W        W17449  40.286  28.281  12.963
45724W        W17450  34.924  20.579  11.166
45725W        W17451  35.755  32.179   1.636
45726W        W17452  19.734   5.200   1.493
45727W        W17453  15.872  36.935  13.855
45728W        W17454   2.946   5.947  13.769
45729W        W17455  39.760   7.424  13.867
45730W        W17456   1.434   2.250   4.187
45731W        W17457  24.678  26.080  10.742
45732W        W17458  15.637   7.359  14.736
45733W        W17459  30.168  40.388   3.809
45734W        W17460  29.919  37.598  11.098
45735W        W17461  23.291  27.029  14.025
45736W        W17462   3.452  40.372   1.797
45737W        W17463  40.905  39.156   4.705
45738W        W17464  13.635  30.926   0.418
45739W        W17465  17.782  39.094   4.174
45740W        W17466  27.689  17.649   2.090
45741W        W17467  41.313  17.223   3.563
45742W        W17468  39.396   8.891   1.956
45743W        W17469  23.968   0.347  11.053
45744W        W17470  25.444   1.795  13.152
45745W        W17471  32.440  26.415  13.421
45746W        W17472  34.369  10.357  14.423
45747W        W17473  16.294  32.964   1.694
45748W        W17474   1.293  12.419   4.037
45749W        W17475   3.998   0.706   0.284
45750W        W17476  20.435  23.703   2.864
45751W        W17477  39.309   4.883   2.394
45752W        W17478  40.816   6.381  14.657
45753W        W17479  28.250   6.137   3.613
45754W        W17480  27.450  29.375   0.286
45755W        W17481  28.657  16.219   4.266
45756W        W17482  37.869  27.704   0.386
45757W        W17483  28.703  38.797   0.377
45758W        W17484  30.089  25.533   1.803
45759W        W17485  30.336  43.268  10.722
45760W        W17486  34.903   6.891  14.927
45761W        W17487  32.022  41.924   0.126
45762W        W17488  25.617  25.651  13.463
45763W        W17489   3.046  23.018   2.806
45764W        W17490  16.324  36.609   0.437
45765W        W17491  35.996  32.628  11.519
45766W        W17492  19.613  41.604  14.461
45767W        W17493  10.982  37.087  12.938
45768W        W17494  19.635  40.198  11.121
45769W        W17495   2.947  16.378  12.873
45770W        W17496  29.544  36.440   2.734
45771W        W17497  24.902  16.102   0.017
45772W        W17498  21.762  39.083   3.607
45773W        W17499  33.482  12.731  13.940
45774W        W17500   8.785  34.679  14.276
45775W        W17501  34.024  38.013   3.348
45776W        W17502  11.210  44.237  11.482
45777W        W17503  24.883  33.966  12.783
45778W        W17504  35.417  37.947  10.580
45779W        W17505  41.795  24.539   3.745
45780W        W17506   9.295  27.049   1.055
45781W        W17507  20.789  17.673  13.061
45782W        W17508   3.233  13.747   1.278
45783W        W17509  17.750  40.917  14.841
45784W        W17510  23.267  21.680  13.878
45785W        W17511  38.054  18.423  14.481
45786W        W17512  13.709  10.076  14.765
45787W        W17513  34.873  43.820  12.463
45788W        W17514  11.892  42.378   4.839
45789W        W17515  20.682   1.341   3.647
45790W        W17516   5.915   5.310  14.405
45791W        W17517  17.258  16.197  11.077
45792W        W17518  25.120  10.250   4.498
45793W        W17519  15.200   1.403  12.184
45794W        W17520  42.195  35.674  13.071
45795W        W17521   6.749   2.774  12.454
45796W        W17522  38.165   7.844  13.971
45797W        W17523  16.115  43.918  13.024
45798W        W17524  26.530  26.960  11.413
45799W        W17525  35.505   9.658  13.415
45800W        W17526  34.863  40.512   0.345
45801W        W17527  17.771  19.424   4.513
45802W        W17528  29.644  15.519  11.938
45803W        W17529  32.105  32.252  14.930
45804W        W17530  30.969  12.086  14.921
45805W        W17531  26.048  35.141   2.324
45806W        W17532  28.369   0.722  10.014
45807W        W17533  19.674   2.564  11.239
45808W        W17534  16.826  33.860   2.515
45809W        W17535  14.415  13.204   3.154
45810W        W17536  36.829  30.500  14.424
45811W        W17537   4.920   5.770   4.075
45812W        W17538  36.377   5.681  10.695
45813W        W17539  13.819  27.369  14.978
45814W        W17540  23.475  44.462  10.940
45815W        W17541  32.579  12.399   4.048
45816W        W17542  25.176   5.376   2.278
45817W        W17543  26.665  26.363  13.536
45818W        W17544  18.856   1.021  11.186
45819W        W17545  41.569  15.813   4.626
45820W        W17546   1.897  24.533  11.399
45821W        W17547   6.319  31.148   4.170
45822W        W17548  29.555  43.732  10.453
45823W        W17549  27.107  20.967   0.904
45824W        W17550  41.103  18.575   1.414
45825W        W17551   4.715  21.301   3.191
45826W        W17552  38.891  24.092  13.271
45827W        W17553   7.292   9.187   1.279
45828W        W17554   0.213   3.995  12.474
45829W        W17555  32.674  39.110  13.043
45830W        W17556  27.398  31.962  12.573
45831W        W17557  34.784  43.864  10.955
45832W        W17558  30.926  44.338   0.133
45833W        W17559  12.138  32.917  12.517
45834W        W17560  33.453   4.208  11.516
45835W        W17561  19.489  34.284   2.349
45836W        W17562  24.207  25.875  10.754
45837W        W17563  22.582   8.214  14.882
45838W        W17564  35.508   5.887   2.848
45839W        W17565  27.183   5.862   1.400
45840W        W17566  25.758  30.607   3.772
45841W        W17567   5.679  23.279  10.583
45842W        W17568   8.203  10.792   3.811
45843W        W17569  29.028  38.090   1.321
45844W        W17570  35.366  23.272  11.048
45845W        W17571  37.908   0.761  13.349
45846W        W17572  41.749  32.953   3.083
45847W        W17573  23.311  12.542   9.926
45848W        W17574  32.113  23.293   4.275
45849W        W17575  39.526  39.565   2.322
45850W        W17576  43.614  16.133  14.558
45851W        W17577   7.873  16.731  14.970
45852W        W17578  13.992  37.541   1.620
45853W        W17579   7.775  14.123  13.832
45854W        W17580  34.513  28.501  10.754
45855W        W17581  42.912  17.001   2.892
45856W        W17582  22.662  42.068   4.164
45857W        W17583  29.694  36.098  11.690
45858W        W17584  14.174  36.319  13.600
45859W        W17585  29.230  14.580  13.029
45860W        W17586   6.786  22.778   2.731
45861W        W17587  41.397  21.061   1.682
45862W        W17588  43.804  11.864  10.448
45863W        W17589  29.172  18.756  12.274
45864W        W17590  20.648  10.072  14.877
45865W        W17591  42.337   7.734   1.699
45866W        W17592  36.638  40.381  13.360
45867W        W17593   5.824  27.001   1.993
45868W        W17594  38.904  40.835   4.674
45869W        W17595  12.336   2.099   4.770
45870W        W17596  26.181  27.710   1.659
45871W        W17597  38.466  42.824  10.414
45872W        W17598   8.708  44.980   3.168
45873W        W17599  11.435  15.818  13.593
45874W        W17600  41.327   7.329   2.106
45875W        W17601  16.082  31.889  13.635
45876W        W17602  18.486  24.510   1.040
45877W        W17603   1.251  42.381  14.308
45878W        W17604  37.282   6.634   2.267
45879W        W17605   5.924  16.999  14.363
45880W        W17606  21.067  15.869   2.894
45881W        W17607   5.222  22.172  13.389
45882W        W17608  22.966  26.031   0.321
45883W        W17609  19.565  37.033  12.620
45884W        W17610   0.470  35.411   0.862
45885W        W17611  38.373  37.696  14.865
45886W        W17612   3.676  29.145  11.747
45887W        W17613  23.077  30.697  11.538
45888W        W17614  42.811  35.557   4.605
45889W        W17615  30.363  38.923  12.902
45890W        W17616  33.170  41.905   0.104
45891W        W17617  20.091   4.168  10.691
45892W        W17618  14.542  43.831  10.461
45893W        W17619  37.193  12.960  14.866
45894W        W17620  44.460   8.137   3.544
45895W        W17621   5.161   1.702  13.544
45896W        W17622  16.679  33.976   4.096
45897W        W17623  39.270  30.997  12.446
45898W        W17624   9.158  43.895  14.262
45899W        W17625   2.237  17.168  14.546
45900W        W17626   8.792  23.457   3.794
45901W        W17627  31.133  29.317   4.045
45902W        W17628  20.137  15.160   0.883
45903W        W17629  14.675  34.084  13.813
45904W        W17630  40.176  40.791  12.619
45905W        W17631  32.630  20.491   0.169
45906W        W17632  32.352  39.312   3.258
45907W        W17633  21.750  34.912  11.516
45908W        W17634  24.019  37.559   4.549
45909W        W17635  25.147  25.526   3.676
45910W        W17636  36.804   0.365  14.434
45911W        W17637  15.221   9.959   2.411
45912W        W17638  22.078  11.132  11.587
45913W        W17639  14.439  19.558   1.984
45914W        W17640  36.984  37.293  12.211
45915W        W17641   0.674   5.354   3.588
45916W        W17642  22.187  26.091  11.545
45917W        W17643  14.698  17.573   3.591
45918W        W17644  22.547  28.603  12.512
45919W        W17645  17.618  16.947   1.793
45920W        W17646  24.453  27.160   3.791
45921W        W17647  42.864  38.299   4.881
45922W        W17648  42.363  17.715   0.218
45923W        W17649   7.761  23.060  11.628
45924W        W17650   6.990  43.449  11.129
45925W        W17651  17.059  15.194   4.116
45926W        W17652  10.189  17.919  11.229
45927W        W17653  41.069  28.525   4.885
45928W        W17654  38.625  18.861   2.268
45929W        W17655  41.548  10.717  14.068
45930W        W17656   4.356   7.901  11.753
45931W        W17657   6.821  13.072   0.211
45932W        W17658  42.973  13.558  11.984
45933W        W17659  27.080   0.604  10.691
45934W        W17660  31.104  24.216  13.482
45935W        W17661  30.595   3.972  11.600
45936W        W17662  36.698  23.249  13.502
45937W        W17663   3.759  43.457   3.626
45938W        W17664   4.537   3.800   2.626
45939W        W17665  17.303  12.967  10.683
45940W        W17666   7.419  28.569   2.142
45941W        W17667  24.925   0.362   0.892
45942W        W17668  30.783  33.309   0.797
45943W        W17669  42.515  18.641  11.194
45944W        W17670   7.944  23.776  14.009
45945W        W17671  30.046  18.361   2.245
45946W        W17672   5.696  18.566   2.867
45947W        W17673   6.522   8.393  12.445
45948W        W17674   3.663  40.996  11.118
45949W        W17675   2.299  37.965  11.138
45950W        W17676  31.529  39.252  12.331
45951W        W17677   9.350  32.926  10.691
45952W        W17678  43.252  35.962   1.941
45953W        W17679  14.321  26.812   1.391
45954W        W17680  30.085  16.440   2.689
45955W        W17681  13.531  32.777  14.532
45956W        W17682  16.645   1.296   3.223
45957W        W17683  40.319   2.865   2.776
45958W        W17684  30.455  17.574  13.077
45959W        W17685  19.800  27.396   2.142
45960W        W17686  14.852  31.998   3.121
45961W        W17687  31.979   2.474   4.174
45962W        W17688  22.249   9.432  13.036
45963W        W17689  18.630   0.801  11.595
45964W        W17690   1.306  42.325  12.809
45965W        W17691  38.493  32.199   9.886
45966W        W17692   8.433  32.003   0.746
45967W        W17693  31.596  38.722   2.724
45968W        W17694   0.224   2.807  14.596
45969W        W17695  42.845  42.440  13.517
45970W        W17696  15.916  25.555   4.201
45971W        W17697  16.861  35.606  10.601
45972W        W17698   5.179  16.523  14.900
45973W        W17699  30.454  27.670   3.567
45974W        W17700  11.083  29.669  12.593
45975W        W17701  15.092   9.088  11.191
45976W        W17702  38.047   8.754  14.477
45977W        W17703  16.342   5.249  13.493
45978W        W17704   0.179  21.290  13.522
45979W        W17705  23.970  16.241  14.578
45980W        W17706  44.527  15.928  13.319
45981W        W17707   3.407  18.952  12.501
45982W        W17708   4.311  42.007   2.644
45983W        W17709  35.794  23.778  14.063
45984W        W17710  12.433  34.361   1.418
45985W        W17711  26.913  22.232   4.075
45986W        W17712  41.228  37.283   4.090
45987W        W17713  11.544  29.919   0.448
45988W        W17714  14.957   7.509  14.962
45989W        W17715   7.163   9.255   2.253
45990W        W17716   9.725  18.409   1.769
45991W        W17717   8.178  39.533   4.021
45992W        W17718  17.287   1.963  12.427
45993W        W17719   5.473   5.397   2.819
45994W        W17720  31.547   0.039   0.530
45995W        W17721  40.481   0.541  13.485
45996W        W17722   4.219  24.244  14.502
45997W        W17723  44.511   5.692   3.365
45998W        W17724   8.864  24.315   0.006
45999W        W17725  22.342  22.723   1.873
46000W        W17726  40.451  42.030   3.296
46001W        W17727  13.018  30.019   4.607
46002W        W17728   6.112  21.727  13.429
46003W        W17729  36.916  16.805  12.514
46004W        W17730   3.295  34.604   0.974
46005W        W17731  40.010  32.924  10.721
46006W        W17732  13.738  10.538   0.006
46007W        W17733   0.805  30.041   2.218
46008W        W17734  39.177  30.512  14.940
46009W        W17735  27.030  25.176   2.446
46010W        W17736   0.847  27.540   2.610
46011W        W17737  34.459  20.763  12.959
46012W        W17738   9.665  34.736   1.833
46013W        W17739  16.623  27.186   0.935
46014W        W17740   6.679  32.827  13.505
46015W        W17741   4.680   9.689   1.277
46016W        W17742   1.791  18.931  13.840
46017W        W17743  36.987  40.648   3.200
46018W        W17744  35.071  31.194  12.015
46019W        W17745  24.453  22.702   3.409
46020W        W17746  39.776  34.549  10.512
46021W        W17747  36.422  26.357   2.647
46022W        W17748  22.461   7.760   4.117
46023W        W17749   9.676  32.946  11.108
46024W        W17750  35.689  29.908  12.554
46025W        W17751  34.610   0.730  11.158
46026W        W17752  40.553  17.877  13.840
46027W        W17753  21.766  32.877   0.975
46028W        W17754  10.805   1.297   1.687
46029W        W17755  27.567   8.895   0.883
46030W        W17756   1.426  37.378   4.582
46031W        W17757  11.503  15.325  12.416
46032W        W17758  41.303  11.406  12.606
46033W        W17759  31.989  44.708  11.533
46034W        W17760  31.189  28.975  14.046
46035W        W17761   8.733  15.844  11.642
46036W        W17762   9.629  36.914   0.290
46037W        W17763  22.226  32.142  10.549
46038W        W17764  22.981  21.752  11.584
46039W        W17765  22.342  33.267  14.881
46040W        W17766   4.124  20.703   0.182
46041W        W17767   0.426  35.993  14.353
46042W        W17768  38.486  19.933   3.252
46043W        W17769  38.157  34.267   4.121
46044W        W17770  29.494  15.754   2.738
46045W        W17771  40.506  22.578  10.264
46046W        W17772   3.276  12.666   0.254
46047W        W17773   7.601  16.678   3.308
46048W        W17774  16.427   0.033  12.826
46049W        W17775  38.823  21.488  12.479
46050W        W17776  31.020  42.391   3.334
46051W        W17777  19.634  28.698  12.046
46052W        W17778   2.889  10.336  10.726
46053W        W17779  44.432   4.883  12.956
46054W        W17780  39.498  24.454  14.371
46055W        W17781  42.861  31.287  11.598
46056W        W17782  31.072  15.868  12.590
46057W        W17783  22.102  43.222   4.902
46058W        W17784  40.999  39.891   4.078
46059W        W17785  17.911   6.205  11.875
46060W        W17786  32.419  14.663   4.511
46061W        W17787  35.415  31.080   4.746
46062W        W17788   5.120  36.680  13.409
46063W        W17789  35.147  34.475  11.251
46064W        W17790  20.251  11.697   4.235
46065W        W17791  37.893   4.866   0.232
46066W        W17792  18.782   2.312  14.372
46067W        W17793  11.928   4.402   3.793
46068W        W17794  21.083  17.041  11.653
46069W        W17795  33.080  40.865  12.871
46070W        W17796   8.335  31.825   0.244
46071W        W17797  41.783  38.426  11.621
46072W        W17798  39.290  24.155   0.302
46073W        W17799  29.517  20.255  10.813
46074W        W17800  36.256  22.163  11.174
46075W        W17801  23.186  28.300  12.455
46076W        W17802  33.433   1.788  10.640
46077W        W17803   3.320  44.170   5.234
46078W        W17804  11.565   5.685   3.698
46079W        W17805  13.221   7.947  12.146
46080W        W17806  36.620   2.813  12.975
46081W        W17807   1.457  21.047   4.562
46082W        W17808   0.408  40.236   0.840
46083W        W17809   1.915  41.594   2.150
46084W        W17810  31.332   1.870   4.179
46085W        W17811  38.646  12.886   2.099
46086W        W17812  11.594  18.236  13.815
46087W        W17813   9.632  37.438   3.761
46088W        W17814  13.281  34.806  13.927
46089W        W17815   8.674   6.329   5.231
46090W        W17816  41.387   5.224  13.916
46091W        W17817  21.187  18.041   1.533
46092W        W17818  33.135  33.480   2.199
46093W        W17819  35.815  35.528  12.877
46094W        W17820  22.212  14.352  11.049
46095W        W17821  14.341   3.966  10.722
46096W        W17822  13.168  44.195  11.998
46097W        W17823  43.042  28.224   2.671
46098W        W17824  33.015  12.477   2.170
46099W        W17825  30.906   6.558   3.124
46100W        W17826  10.111  32.108  13.163
46101W        W17827  33.837  13.150  12.548
46102W        W17828   0.888  41.550   4.633
46103W        W17829  42.986   0.593   4.320
46104W        W17830  44.020  17.255  13.237
46105W        W17831  31.534   4.461  10.765
46106W        W17832   8.273  12.081  10.688
46107W        W17833  31.360  43.784   2.335
46108W        W17834  34.516   4.300  13.393
46109W        W17835   9.848  43.448   1.718
46110W        W17836  10.662   5.416   1.772
46111W        W17837  26.624  14.157  11.514
46112W        W17838   1.230  36.958   3.353
46113W        W17839  18.075  12.082  13.325
46114W        W17840  24.217  17.228   1.426
46115W        W17841  16.679  28.529   2.426
46116W        W17842  42.259   4.252  13.589
46117W        W17843   4.607  28.451   1.674
46118W        W17844  18.770  19.114   0.535
46119W        W17845   6.538  24.104   2.884
46120W        W17846  36.971  29.241   4.118
46121W        W17847  39.430  44.534  11.208
46122W        W17848  17.065   8.601   1.282
46123W        W17849   9.797  41.885   1.843
46124W        W17850  24.204  28.484  10.726
46125W        W17851  33.699   4.694   0.417
46126W        W17852   5.941  43.351   4.072
46127W        W17853  39.320   9.134  14.336
46128W        W17854  27.406  43.264   0.339
46129W        W17855  30.186  11.887   0.950
46130W        W17856  28.233  11.167  11.164
46131W        W17857  35.918  41.933  10.662
46132W        W17858  44.399  19.716  10.243
46133W        W17859   6.761  20.717  13.107
46134W        W17860  44.178  17.966   4.253
46135W        W17861  19.242  10.937  12.036
46136W        W17862  10.213  34.974   4.181
46137W        W17863  36.742  26.393   1.934
46138W        W17864  32.560  13.314   3.583
46139W        W17865   4.987   2.531  11.941
46140W        W17866  10.610  25.743  13.802
46141W        W17867  23.226  33.677   2.163
46142W        W17868  33.020   6.501   2.866
46143W        W17869  43.545  14.279   4.985
46144W        W17870  36.818  15.804   0.831
46145W        W17871   5.508  16.891   3.657
46146W        W17872  20.463  19.123   3.346
46147W        W17873  24.854  33.479  12.604
46148W        W17874  43.748  35.826  10.677
46149W        W17875   6.837  35.467  12.133
46150W        W17876   4.680  13.408   2.322
46151W        W17877  44.190   4.821   0.564
46152W        W17878  18.244  20.995  10.221
46153W        W17879  20.668  15.758   3.197
46154W        W17880  19.755  11.725   4.497
46155W        W17881  28.710  15.803   3.879
46156W        W17882  38.428   7.454   4.683
46157W        W17883  22.070   2.395   0.987
46158W        W17884  44.470   1.786   3.792
46159W        W17885  12.408  27.119   4.542
46160W        W17886   5.236  38.081   4.196
46161W        W17887  14.128  26.372  12.573
46162W        W17888   5.461   0.542   3.998
46163W        W17889   8.929  22.183   0.897
46164W        W17890  29.006  39.539   0.634
46165W        W17891  20.289  15.073  12.900
46166W        W17892   4.856   7.226   0.085
46167W        W17893  18.487   7.484   2.486
46168W        W17894   8.646   8.810  13.369
46169W        W17895  29.086  23.118  10.633
46170W        W17896   4.949  42.397  12.650
46171W        W17897  14.400  29.190  11.970
46172W        W17898  35.532   4.671  14.463
46173W        W17899  31.330   0.036   3.870
46174W        W17900  25.434  37.786   4.692
46175W        W17901  17.818  41.509  12.510
46176W        W17902   7.350  44.410  12.496
46177W        W17903  43.904  17.166  11.458
46178W        W17904  23.978  33.546   3.494
46179W        W17905  40.247  39.012  10.818
46180W        W17906   0.649  24.280  10.944
46181W        W17907  36.950   2.593   2.410
46182W        W17908  26.892  24.442  13.156
46183W        W17909  35.516  38.914   2.766
46184W        W17910   8.539  25.661   5.605
46185W        W17911  23.945  44.525  14.973
46186W        W17912   3.255  17.545  12.652
46187W        W17913  36.542  19.627   4.595
46188W        W17914  42.998  32.738   0.357
46189W        W17915  44.601  14.056   4.053
46190W        W17916  44.884   4.972   4.240
46191W        W17917   0.835  25.979   0.053
46192W        W17918  33.805  37.823  13.969
46193W        W17919   3.926   2.181   2.808
46194W        W17920  43.202  16.666  11.430
46195W        W17921  17.664  33.140   1.205
46196W        W17922   0.511  35.668   4.730
46197W        W17923  37.482   7.799  13.500
46198W        W17924  39.307  44.725   2.557
46199W        W17925  27.029   9.430  13.940
46200W        W17926  10.164  19.726   1.001
46201W        W17927  34.442  22.501  14.638
46202W        W17928  16.750  23.780  14.279
46203W        W17929   8.925  17.736  13.459
46204W        W17930  23.647  43.872   4.250
46205W        W17931  29.421  16.083  12.501
46206W        W17932  15.483  25.735   4.396
46207W        W17933  37.456  43.457   3.656
46208W        W17934  13.061  27.728   3.825
46209W        W17935   9.355  36.175   2.763
46210W        W17936   0.790  23.716   4.141
46211W        W17937  24.423  39.439  13.067
46212W        W17938  31.444  38.521   3.710
46213W        W17939   2.814   1.848   2.886
46214W        W17940  15.836  25.474  10.615
46215W        W17941  16.271  32.867   3.680
46216W        W17942  34.009  26.427  11.411
46217W        W17943  20.808   5.337  10.771
46218W        W17944  22.551  35.801  12.469
46219W        W17945  42.468  28.302   3.697
46220W        W17946  36.007  26.552   0.401
46221W        W17947   3.817  22.972   4.582
46222W        W17948  22.322   2.760   1.792
46223W        W17949  30.612   2.425   4.164
46224W        W17950  41.432  35.239   3.510
46225W        W17951   8.956  11.700  11.943
46226W        W17952  15.316   6.907   1.838
46227W        W17953  21.622  15.239   4.974
46228W        W17954  29.378  13.836   4.894
46229W        W17955   8.436   0.832   4.865
46230W        W17956  36.396  43.886   1.837
46231W        W17957  36.023  37.073   2.792
46232W        W17958  37.830  17.772  13.435
46233W        W17959  42.108  19.974   0.748
46234W        W17960  16.649  11.116   2.666
46235W        W17961  22.641  33.036  10.143
46236W        W17962  34.818  27.075   3.717
46237W        W17963  26.140  24.654  13.296
46238W        W17964   9.344  32.304  12.898
46239W        W17965  38.152  26.670  11.553
46240W        W17966  14.866  26.681  14.500
46241W        W17967  40.830  44.848  10.604
46242W        W17968  24.981  33.934  11.973
46243W        W17969  23.965   2.202  11.168
46244W        W17970  25.528  43.705  11.552
46245W        W17971  33.086   4.859  13.983
46246W        W17972  44.819  36.936   1.925
46247W        W17973  19.164   1.541   2.337
46248W        W17974  26.125  42.690   3.726
46249W        W17975  27.926  11.310   9.924
46250W        W17976   6.670  42.095   3.199
46251W        W17977  43.954  32.462   4.452
46252W        W17978  36.405  41.276   3.169
46253W        W17979  13.870  33.491  12.638
46254W        W17980  30.861  18.768  13.392
46255W        W17981  25.603  18.243  11.709
46256W        W17982  38.588  36.532   2.840
46257W        W17983  17.739   4.957   0.599
46258W        W17984  33.352  19.543  11.066
46259W        W17985  37.894  40.439   2.514
46260W        W17986   6.729  10.491  12.814
46261W        W17987  22.683  27.079  14.815
46262W        W17988  30.100   6.719  13.582
46263W        W17989   1.992  10.669  12.079
46264W        W17990   3.522  11.859  12.240
46265W        W17991  37.834  25.605  10.475
46266W        W17992  39.404  21.534   0.771
46267W        W17993  18.788   7.386   0.235
46268W        W17994   2.887  21.188  14.914
46269W        W17995  37.687  23.248   3.608
46270W        W17996  30.370  32.611   1.447
46271W        W17997   1.653   7.698   3.138
46272W        W17998   5.803  24.071   1.395
46273W        W17999  18.322  25.735   1.147
46274W        W18000  13.342   5.905  14.220
46275W        W18001  42.593  19.971  11.102
46276W        W18002  25.313   9.810  12.240
46277W        W18003  35.910  21.618   2.503
46278W        W18004  24.040  31.252  11.410
46279W        W18005  43.834  10.295   3.702
46280W        W18006  24.480   1.298   0.951
46281W        W18007  28.458   4.728   0.777
46282W        W18008  39.651   3.976  14.632
46283W        W18009   9.364   3.389   3.714
46284W        W18010  29.987   9.253  11.438
46285W        W18011  28.010   7.139  13.984
46286W        W18012  26.636  15.576  11.641
46287W        W18013  13.753   0.466   1.280
46288W        W18014  12.899  19.997  12.995
46289W        W18015  22.774  28.718   1.817
46290W        W18016  31.612  42.061   5.279
46291W        W18017  42.464  34.528   2.752
46292W        W18018   2.821  10.389   1.323
46293W        W18019  38.773  24.786  13.947
46294W        W18020   2.996   5.855  12.957
46295W        W18021   8.799  42.488   4.582
46296W        W18022  26.182  13.149  11.585
46297W        W18023   5.020  12.887  10.572
46298W        W18024  14.880  26.048  10.827
46299W        W18025   1.771  12.285  11.225
46300W        W18026  21.868  37.653   2.203
46301W        W18027  25.107  41.343   4.200
46302W        W18028  17.298  20.550  14.761
46303W        W18029   4.946  26.266  11.122
46304W        W18030  41.940  14.389  14.349
46305W        W18031  27.195   2.459  11.900
46306W        W18032  32.125  33.384   2.336
46307W        W18033  27.087  10.384  11.918
46308W        W18034  23.159  10.627  14.645
46309W        W18035  24.302  29.976  14.014
46310W        W18036  22.236  38.990   2.777
46311W        W18037  41.643  24.879   2.595
46312W        W18038  44.981  37.117  13.925
46313W        W18039  28.016  33.335  11.627
46314W        W18040  15.702   5.360  14.785
46315W        W18041  21.610  31.623   4.238
46316W        W18042  33.217  42.300   3.995
46317W        W18043  10.173  37.633   0.408
46318W        W18044  14.098   3.266  10.477
46319W        W18045  43.398  16.511  13.245
46320W        W18046  28.046  33.183  14.023
46321W        W18047  40.740  38.076   1.928
46322W        W18048  17.709  20.540  10.701
46323W        W18049  22.953  35.030   4.365
46324W        W18050  31.196  42.969  10.229
46325W        W18051   0.723  13.726   4.186
46326W        W18052  27.523  28.030  13.894
46327W        W18053  24.250   7.766   3.165
46328W        W18054   0.958  44.392  13.017
46329W        W18055  32.340  24.170   5.081
46330W        W18056  19.794  41.902   4.102
46331W        W18057  37.047  34.947   3.849
46332W        W18058  11.486  33.634  14.485
46333W        W18059  16.061  17.490  10.967
46334W        W18060  28.387  29.435   0.796
46335W        W18061   6.915  44.824  13.018
46336W        W18062  43.786  19.017  13.505
46337W        W18063  20.047  26.487  10.464
46338W        W18064  32.910  38.618  14.858
46339W        W18065  26.897   6.570  12.581
46340W        W18066  27.541  29.498   2.748
46341W        W18067  28.646  19.767  14.328
46342W        W18068  43.869   0.542   0.499
46343W        W18069  20.398  29.119   3.665
46344W        W18070  34.890  35.990   4.114
46345W        W18071  41.934  41.606   1.268
46346W        W18072  11.980  40.490   0.875
46347W        W18073  17.261   6.155   2.392
46348W        W18074   8.848  20.639   3.280
46349W        W18075  21.644   8.181  11.482
46350W        W18076   7.927  34.539   4.183
46351W        W18077   6.926  38.034   3.351
46352W        W18078  31.690  19.720   2.788
46353W        W18079  34.122  32.607  10.517
46354W        W18080   9.958  11.686   1.389
46355W        W18081  13.766  41.255   2.281
46356W        W18082  15.356  35.346  12.595
46357W        W18083  32.555  44.429   3.817
46358W        W18084  36.076  29.952   1.798
46359W        W18085  19.309  30.680   3.856
46360W        W18086  12.192  27.544   2.882
46361W        W18087  16.166  11.240  14.228
46362W        W18088  31.976   2.997   0.680
46363W        W18089  40.423  14.502  12.927
46364W        W18090  24.208  35.585   4.198
46365W        W18091  29.638   7.734  12.101
46366W        W18092   8.147  25.833   3.560
46367W        W18093  32.371  44.835  14.385
46368W        W18094   6.385  28.133   2.136
46369W        W18095   5.728  17.995  14.362
46370W        W18096   9.040  33.268   5.020
46371W        W18097  20.273  26.701  12.898
46372W        W18098  31.690  31.695   2.740
46373W        W18099  13.109  31.429  13.949
46374W        W18100   1.334   9.716   1.370
46375W        W18101   3.651  12.376   1.354
46376W        W18102  33.282  17.185   5.011
46377W        W18103  12.152  35.365   1.868
46378W        W18104  43.441  17.974   1.394
46379W        W18105   0.469  38.430   4.857
46380W        W18106  26.026  25.977  11.904
46381W        W18107  19.794  29.962  14.005
46382W        W18108  44.820  26.094  12.053
46383W        W18109  29.509  36.896   1.077
46384W        W18110  36.975  30.080   1.383
46385W        W18111  17.230  31.879   3.432
46386W        W18112  37.471  25.645   0.279
46387W        W18113  19.622   3.835  13.849
46388W        W18114   0.398   1.491   2.359
46389W        W18115  37.091   0.392  14.865
46390W        W18116  26.549  21.307  14.728
46391W        W18117   6.605  16.630  13.842
46392W        W18118  39.544  20.329  11.077
46393W        W18119  21.146   5.601  13.499
46394W        W18120  38.353  36.501   0.740
46395W        W18121   7.929  31.230   4.485
46396W        W18122  26.618  38.925   1.943
46397W        W18123  21.563  37.286  14.027
46398W        W18124   2.815  36.371  12.892
46399W        W18125   4.406  27.198  13.969
46400W        W18126  41.837  31.068   0.271
46401W        W18127  21.657   7.823   3.790
46402W        W18128  33.264  14.908  13.505
46403W        W18129  30.390  13.684   3.246
46404W        W18130  11.420  29.617   3.718
46405W        W18131  44.477   3.960  10.732
46406W        W18132   6.335  20.076  10.640
46407W        W18133  19.054  28.509   2.589
46408W        W18134   7.677  12.552   4.269
46409W        W18135   4.853  31.804   4.088
46410W        W18136  19.117  15.161   2.791
46411W        W18137  38.269  11.510  13.107
46412W        W18138  11.622   9.946   0.042
46413W        W18139  14.754  39.022  14.354
46414W        W18140  28.413  33.511  13.598
46415W        W18141   1.344  40.263  14.343
46416W        W18142  32.669  40.880   9.703
46417W        W18143   7.626  10.605  11.975
46418W        W18144   0.944  16.085  13.734
46419W        W18145  42.011   1.353  12.964
46420W        W18146   1.437  36.813  14.965
46421W        W18147  12.215   1.358  11.674
46422W        W18148   0.298  19.180  11.982
46423W        W18149   5.149   8.282  14.059
46424W        W18150   8.774  42.849   2.304
46425W        W18151  27.915   1.429   2.806
46426W        W18152  27.624   5.885  10.576
46427W        W18153   2.017  34.560  14.871
46428W        W18154  36.106  33.597  14.840
46429W        W18155  15.016  28.453   3.300
46430W        W18156   0.537   8.703  14.955
46431W        W18157   6.066  16.823   2.676
46432W        W18158  23.126  31.960  11.439
46433W        W18159  22.291   4.662   3.716
46434W        W18160   2.348  30.355   5.167
46435W        W18161  30.470  16.627  13.061
46436W        W18162  10.246  13.875   1.750
46437W        W18163  28.692  44.066  13.945
46438W        W18164  42.408  22.399   3.153
46439W        W18165  22.470  40.108  11.920
46440W        W18166  24.651  34.895  14.870
46441W        W18167  24.043  22.742   4.701
46442W        W18168  13.689  37.942   4.395
46443W        W18169  28.844  42.330  13.829
46444W        W18170  43.029  10.757   0.438
46445W        W18171  30.327   0.716   1.776
46446W        W18172  33.977  31.371  12.499
46447W        W18173  21.685   8.763   2.252
46448W        W18174  29.317   5.344  11.691
46449W        W18175  34.949  28.966   1.470
46450W        W18176   4.030  38.913   4.112
46451W        W18177  34.696   4.920   0.355
46452W        W18178  20.583  34.636   4.275
46453W        W18179  21.018  26.694  11.761
46454W        W18180  44.392  26.263  12.305
46455W        W18181  14.713  27.525   3.800
46456W        W18182  22.070  39.756  11.866
46457W        W18183   1.696  22.603  14.962
46458W        W18184   9.075  17.659  13.965
46459W        W18185  38.267   1.001  10.184
46460W        W18186  40.598  19.994   2.320
46461W        W18187  44.182   0.521   0.087
46462W        W18188  27.928   2.807   4.498
46463W        W18189  19.119  13.147  14.394
46464W        W18190   0.180   7.986   0.335
46465W        W18191   5.767  44.436   2.673
46466W        W18192  43.968  23.797   1.867
46467W        W18193   1.851  16.815  10.637
46468W        W18194   0.730  18.007  14.033
46469W        W18195  22.499  26.086  14.774
46470W        W18196  21.017  24.505  14.777
46471W        W18197  15.745  17.770  14.977
46472W        W18198  31.364  37.325  11.505
46473W        W18199   3.979   0.180  13.994
46474W        W18200   6.354   0.854   1.967
46475W        W18201  43.935  41.459  11.204
46476W        W18202  37.994  44.841   0.626
46477W        W18203  11.440  36.903   0.303
46478W        W18204  22.474  13.736  13.790
46479W        W18205  25.664  34.290   0.171
46480W        W18206  11.228  39.426  14.240
46481W        W18207  23.672  39.504   2.271
46482W        W18208  17.038  10.409  13.219
46483W        W18209  16.641  43.268  13.547
46484W        W18210   2.777   2.244  11.396
46485W        W18211   0.911  32.919  13.674
46486W        W18212  23.917   6.798  12.383
46487W        W18213  12.382  34.926  10.565
46488W        W18214  28.745   4.720  13.481
46489W        W18215  31.185  32.785  12.355
46490W        W18216  12.108  33.043   1.466
46491W        W18217   0.493  13.902   2.376
46492W        W18218  11.853   9.833   0.531
46493W        W18219  18.295  23.558   4.116
46494W        W18220  15.372   3.743  11.585
46495W        W18221  44.487  41.795  14.525
46496W        W18222  27.123  37.458  10.054
46497W        W18223   1.849  38.586   0.873
46498W        W18224  11.683  16.709   2.874
46499W        W18225  29.730  35.642   1.433
46500W        W18226  23.598  22.793  11.535
46501W        W18227  26.185  25.012   1.934
46502W        W18228  43.662  38.737  11.139
46503W        W18229  21.469  18.523  11.124
46504W        W18230  40.412  27.588  11.183
46505W        W18231  30.813  30.035  10.454
46506W        W18232  32.105  23.690  13.921
46507W        W18233   4.868  30.126  14.753
46508W        W18234  31.623  20.761  10.741
46509W        W18235   0.134  10.533  13.358
46510W        W18236  41.382   5.591   2.523
46511W        W18237   3.210  29.008   4.975
46512W        W18238  10.181   5.692  14.242
46513W        W18239  23.643  10.638  11.843
46514W        W18240   0.880  12.545   0.036
46515W        W18241  23.871  21.229  14.239
46516W        W18242  29.929  28.425  12.348
46517W        W18243  29.048  16.255  13.793
46518W        W18244  16.164  32.927  11.134
46519W        W18245  23.781  40.829  14.933
46520W        W18246  30.564  29.984   0.395
46521W        W18247  35.601  16.677   2.291
46522W        W18248  10.146   2.316  14.866
46523W        W18249   5.672   8.257  14.281
46524W        W18250  18.037  22.350  10.597
46525W        W18251  27.690   1.740  11.639
46526W        W18252  13.248  19.304   3.452
46527W        W18253  27.144  41.926  11.668
46528W        W18254  41.901  12.424   4.062
46529W        W18255  30.097  30.588   1.811
46530W        W18256   3.773   5.171  14.032
46531W        W18257   5.512  24.981  12.513
46532W        W18258  18.018  31.930  14.366
46533W        W18259   1.181  32.714  14.400
46534W        W18260  43.279  32.491   0.719
46535W        W18261  44.826  31.111   3.596
46536W        W18262  18.065  37.274  11.969
46537W        W18263   0.870   3.978   0.283
46538W        W18264   9.123  35.144   1.378
46539W        W18265   3.960  18.941  12.448
46540W        W18266  31.585  11.525  10.999
46541W        W18267  24.130   6.482   1.271
46542W        W18268  35.068   8.460  13.022
46543W        W18269  37.828  11.567  14.023
46544W        W18270   4.331  40.112   1.991
46545W        W18271  38.290  20.738   0.949
46546W        W18272   2.288  28.325   2.757
46547W        W18273  20.242  39.019  11.566
46548W        W18274   7.722  28.053  13.882
46549W        W18275  35.024  43.458  11.143
46550W        W18276  11.725  12.106   1.873
46551W        W18277   9.443   3.022   0.215
46552W        W18278  19.547   6.242  12.426
46553W        W18279  43.205  26.934  12.835
46554W        W18280  44.404  43.112  14.980
46555W        W18281  17.515   5.713   4.159
46556W        W18282  19.071  31.166   4.221
46557W        W18283   2.156   0.110  11.980
46558W        W18284  31.099  24.513  11.043
46559W        W18285  17.501  15.238  14.435
46560W        W18286  29.995  12.114  14.573
46561W        W18287  39.041  17.653   4.554
46562W        W18288  33.685   3.739  11.569
46563W        W18289   0.557  17.890   3.148
46564W        W18290  41.388  34.908  10.870
46565W        W18291   2.280   0.789   1.253
46566W        W18292  11.232   0.886   2.304
46567W        W18293  22.033  24.566   1.831
46568W        W18294  11.936  17.185  14.471
46569W        W18295  23.184  44.038   4.655
46570W        W18296  35.839  36.978  14.317
46571W        W18297  23.103  37.526  13.579
46572W        W18298  21.185   8.834   4.551
46573W        W18299  44.677  43.458  11.558
46574W        W18300  12.660  18.122   1.812
46575W        W18301  31.324  19.492   2.505
46576W        W18302  17.117  44.009   2.310
46577W        W18303  27.599  32.237  11.770
46578W        W18304  37.061  11.667   1.879
46579W        W18305  24.512  22.280  11.101
46580W        W18306   7.115  28.343   1.763
46581W        W18307  20.677  36.482   3.842
46582W        W18308  16.034  21.245   0.148
46583W        W18309   0.050  11.905  14.788
46584W        W18310   4.060  13.127  12.955
46585W        W18311  13.343   3.616   2.944
46586W        W18312  41.630   6.718  14.941
46587W        W18313  41.045  21.100  10.618
46588W        W18314  15.516  31.396   4.233
46589W        W18315  12.078  21.650  11.410
46590W        W18316  37.884  33.539   1.771
46591W        W18317  36.472   5.884  14.688
46592W        W18318  17.064  29.459   2.500
46593W        W18319  39.770   8.346   3.566
46594W        W18320  24.572  27.921   0.469
46595W        W18321  18.615  34.459  14.881
46596W        W18322  25.690  16.087  14.759
46597W        W18323  27.328   2.149  13.300
46598W        W18324  43.178   7.854  10.647
46599W        W18325  21.826  10.131  14.940
46600W        W18326  11.954  12.740  13.954
46601W        W18327   5.551  27.180  11.799
46602W        W18328  17.655   6.097   4.444
46603W        W18329  25.764  44.585  12.474
46604W        W18330   2.724  11.811   3.097
46605W        W18331   8.456   1.991  14.407
46606W        W18332  35.425  10.861  11.202
46607W        W18333  14.750   9.678   4.572
46608W        W18334  30.447   3.736  12.876
46609W        W18335  30.883   6.974  12.648
46610W        W18336  11.437  35.538   4.153
46611W        W18337  37.944  40.930  14.849
46612W        W18338  21.108   7.424  14.406
46613W        W18339  43.587  29.405   0.734
46614W        W18340  18.508  12.615   1.806
46615W        W18341   1.512   6.783   3.623
46616W        W18342  31.120   1.375  14.736
46617W        W18343  27.705   6.318   0.784
46618W        W18344  39.969  14.213   0.902
46619W        W18345  20.189  10.291   4.614
46620W        W18346  33.044  19.599  14.109
46621W        W18347   4.497  37.565   3.341
46622W        W18348  38.313   2.621  12.024
46623W        W18349   3.935   1.396  14.933
46624W        W18350  26.539  39.961  12.473
46625W        W18351  23.442  44.581   2.785
46626W        W18352   1.884   5.333   1.937
46627W        W18353  13.405  16.112   2.815
46628W        W18354  37.020  39.063   4.545
46629W        W18355  37.268  14.643   1.911
46630W        W18356  41.017  43.950  13.728
46631W        W18357  37.341   6.463  13.861
46632W        W18358   6.653  32.027   4.495
46633W        W18359   4.474  42.479  12.959
46634W        W18360  34.512  44.223   2.160
46635W        W18361  16.654   8.615  12.200
46636W        W18362  32.800   9.691   0.763
46637W        W18363  12.630   9.695  12.414
46638W        W18364  33.027  12.066  14.853
46639W        W18365  16.806  41.608   0.494
46640W        W18366   5.635  35.124  14.643
46641W        W18367  31.559  22.019  12.925
46642W        W18368  25.713   7.833  14.729
46643W        W18369  32.585  12.560  12.430
46644W        W18370  38.139   3.509  11.644
46645W        W18371   4.816  26.555  10.700
46646W        W18372   8.469  29.019  14.283
46647W        W18373  37.896  24.468  10.717
46648W        W18374  31.986  39.353  11.856
46649W        W18375  43.371  34.158   0.457
46650W        W18376  29.842  26.157  10.138
46651W        W18377  12.374  27.628  14.688
46652W        W18378  38.576  33.457  11.842
46653W        W18379  11.897  31.365   4.218
46654W        W18380  15.375   9.221   1.736
46655W        W18381  19.102  22.592   3.882
46656W        W18382  25.897  43.929  13.359
46657W        W18383  25.571  27.066  12.474
46658W        W18384  35.847   5.850  11.489
46659W        W18385  39.715  33.598  14.412
46660W        W18386  16.555   7.236  14.860
46661W        W18387  27.656   4.959   1.276
46662W        W18388  38.178  40.518   4.533
46663W        W18389  21.021  14.696   4.608
46664W        W18390  30.673  38.273   4.283
46665W        W18391  25.071   5.160  11.087
46666W        W18392  39.854   1.239   1.464
46667W        W18393  33.967  14.255   2.733
46668W        W18394  27.963  27.951   4.989
46669W        W18395  41.450  10.824   3.091
46670W        W18396  43.952   9.831  14.775
46671W        W18397   1.062   1.673  14.035
46672W        W18398  14.182  41.729   3.345
46673W        W18399  26.881  14.743   4.530
46674W        W18400   1.408   7.685  13.591
46675W        W18401   4.403  36.597   0.254
46676W        W18402   6.300  20.822   4.603
46677W        W18403  20.678  32.454   4.298
46678W        W18404  23.238   9.888  11.034
46679W        W18405  12.649  15.292   3.693
46680W        W18406  20.033  36.864  12.427
46681W        W18407   2.780  16.369  11.883
46682W        W18408  31.416  27.801   1.948
46683W        W18409  14.740  36.446   3.026
46684W        W18410  12.293  36.341   3.647
46685W        W18411   7.448  15.550  13.956
46686W        W18412  20.723  23.982   0.921
46687W        W18413  31.352  13.829  13.775
46688W        W18414   9.718  40.987  10.708
46689W        W18415  42.657  40.342   3.665
46690W        W18416  28.979   4.953  13.063
46691W        W18417  21.957  27.548   2.414
46692W        W18418  25.599   9.427   0.310
46693W        W18419  16.768  32.080  11.165
46694W        W18420  24.233  22.876   1.693
46695W        W18421  24.971  16.521  10.856
46696W        W18422  24.032  13.874   4.767
46697W        W18423  33.925  31.893  14.723
46698W        W18424   4.251   9.781   1.010
46699W        W18425  36.618  20.057  10.951
46700W        W18426  26.449  40.781   0.330
46701W        W18427  28.850  11.776  14.410
46702W        W18428  39.801  44.822   2.294
46703W        W18429   8.964  35.355  11.885
46704W        W18430  32.544  19.397  14.267
46705W        W18431   2.894   1.695   0.121
46706W        W18432  31.800  19.588   2.266
46707W        W18433  32.584   6.256   4.743
46708W        W18434  41.414  19.612  11.953
46709W        W18435  21.015  22.614   3.148
46710W        W18436  44.726  21.989  13.428
46711W        W18437  35.971  27.216   1.721
46712W        W18438  24.522  43.411   1.685
46713W        W18439   5.163   5.819  12.211
46714W        W18440  11.033  14.075  11.103
46715W        W18441  41.730  26.558   1.262
46716W        W18442  12.229  13.317  11.174
46717W        W18443   2.302  33.567   3.133
46718W        W18444   3.249  36.847  14.900
46719W        W18445  31.264   9.605   1.782
46720W        W18446   7.659  21.183   2.793
46721W        W18447  22.578  34.774   4.083
46722W        W18448  12.869   8.902   0.730
46723W        W18449  12.799   3.194  14.975
46724W        W18450  21.471   7.681   4.370
46725W        W18451  41.011   2.411   4.581
46726W        W18452  39.327  33.294   4.360
46727W        W18453   6.729  19.089   3.637
46728W        W18454  41.822   2.426  13.423
46729W        W18455  23.398  18.031   5.012
46730W        W18456  18.661  44.479   0.928
46731W        W18457  42.705  39.058   1.732
46732W        W18458  43.266  15.255  11.181
46733W        W18459  30.998  22.000   4.636
46734W        W18460  31.647   2.297  11.380
46735W        W18461  28.616   3.701   2.891
46736W        W18462  10.137  43.404  13.444
46737W        W18463   8.738  18.687   0.415
46738W        W18464  35.327  19.196   1.759
46739W        W18465  15.083  24.649  14.910
46740W        W18466  15.715  25.092   2.252
46741W        W18467  31.903  17.862  14.900
46742W        W18468  24.401  26.108  10.323
46743W        W18469   2.319  31.110   2.670
46744W        W18470  13.405  19.062  14.054
46745W        W18471  25.347  12.742   1.959
46746W        W18472  13.831  24.603  11.538
46747W        W18473  12.204   5.230   2.702
46748W        W18474  26.631   6.142  14.295
46749W        W18475   2.409   2.103   2.642
46750W        W18476  35.319  25.509  11.044
46751W        W18477  21.215  36.971   0.967
46752W        W18478  17.697  28.980   1.873
46753W        W18479  26.946  26.816   4.063
46754W        W18480  25.943  42.590   3.108
46755W        W18481  20.006  39.818   2.429
46756W        W18482  23.134  42.278  13.899
46757W        W18483  16.843  21.789  13.417
46758W        W18484  34.036   3.374   3.183
46759W        W18485  35.407  14.910  14.215
46760W        W18486  17.861   5.307  11.550
46761W        W18487  14.801  42.924   3.168
46762W        W18488  42.764  15.268  13.408
46763W        W18489   0.422  40.934   2.638
46764W        W18490  10.737  35.254   9.964
46765W        W18491  34.508   2.440  14.280
46766W        W18492  13.336  23.294   0.693
46767W        W18493  28.603  31.017  11.670
46768W        W18494  12.647  18.474   2.583
46769W        W18495  13.291  12.573   3.611
46770W        W18496  26.193  13.055   4.744
46771W        W18497  21.010   2.309  10.912
46772W        W18498   1.328  29.698  14.690
46773W        W18499   1.301  27.774  14.833
46774W        W18500   5.636  41.854   3.767
46775W        W18501  31.397  39.886   2.163
46776W        W18502  39.986  11.439  11.148
46777W        W18503  17.455  17.576  12.608
46778W        W18504  11.206  20.263  13.956
46779W        W18505  15.989   7.006  12.114
46780W        W18506  22.893  32.712  11.122
46781W        W18507   9.856  43.192  12.067
46782W        W18508  30.805  18.146   0.621
46783W        W18509  17.577  12.618   2.733
46784W        W18510  41.565  16.318  11.133
46785W        W18511  16.222  14.878  14.859
46786W        W18512  17.118  29.979  13.592
46787W        W18513  10.203  12.285   2.195
46788W        W18514  29.663  11.079   0.913
46789W        W18515  15.268  33.557   4.116
46790W        W18516  28.938  43.569  10.644
46791W        W18517  12.325   8.380   3.306
46792W        W18518   1.943  12.465   3.819
46793W        W18519  17.776  26.658  12.125
46794W        W18520  40.445   8.689  14.047
46795W        W18521  42.306   4.383   3.744
46796W        W18522  39.844  31.943  12.849
46797W        W18523  21.553   6.742  14.758
46798W        W18524  21.270   3.298   0.594
46799W        W18525   1.905  38.093   4.212
46800W        W18526   5.594  11.583   9.648
46801W        W18527  17.362  22.354   4.308
46802W        W18528  39.110  23.556   1.746
46803W        W18529  25.501  12.925   4.137
46804W        W18530  40.927  20.820  11.556
46805W        W18531   9.333  22.772  14.033
46806W        W18532  27.610   5.593  11.006
46807W        W18533   8.864  44.886   4.187
46808W        W18534  31.684  28.344  12.973
46809W        W18535  44.333   7.932  11.031
46810W        W18536  21.544   8.818   3.710
46811W        W18537  22.792  19.074   0.559
46812W        W18538  40.485   8.662  13.046
46813W        W18539   5.205  32.595  11.453
46814W        W18540  39.410  18.344   4.012
46815W        W18541  12.369  40.568   1.305
46816W        W18542  32.992  32.013   0.515
46817W        W18543  28.976  38.791  12.973
46818W        W18544  17.212   6.921  13.542
46819W        W18545  20.281  21.613   4.385
46820W        W18546  12.607  24.429  12.037
46821W        W18547  33.272  16.168   1.306
46822W        W18548  15.326  34.948   3.533
46823W        W18549  16.663  31.421   2.678
46824W        W18550  42.219   4.917   3.665
46825W        W18551   1.471   9.252   1.573
46826W        W18552   4.792   9.827  10.630
46827W        W18553  20.660  21.249   0.444
46828W        W18554  17.866  38.435  14.928
46829W        W18555   2.392  23.508   0.902
46830W        W18556  16.815  39.965   0.943
46831W        W18557  14.528  23.704   1.375
46832W        W18558   3.261  32.090  13.281
46833W        W18559  14.191   9.488   0.440
46834W        W18560   4.832   5.163  13.033
46835W        W18561  25.314  39.557  11.044
46836W        W18562  29.044   8.445  11.136
46837W        W18563  35.431  23.893   4.146
46838W        W18564  14.154  40.013  12.987
46839W        W18565  12.920  40.786   1.856
46840W        W18566  15.589   3.334   2.397
46841W        W18567  24.613  41.837   2.151
46842W        W18568  25.017  17.239   4.558
46843W        W18569  12.680  25.442  11.121
46844W        W18570  19.103   7.415  13.440
46845W        W18571  26.446  12.008   1.160
46846W        W18572  17.106  41.385   4.746
46847W        W18573  26.190  44.890   2.338
46848W        W18574  29.007  31.211  11.925
46849W        W18575  44.830  19.287   2.060
46850W        W18576  37.622  38.416   2.367
46851W        W18577  40.096  25.623   1.751
46852W        W18578  40.950  23.195  14.271
46853W        W18579  30.588  39.866   2.635
46854W        W18580  35.821  19.793   0.694
46855W        W18581  33.173  36.976  14.804
46856W        W18582  23.733   7.704   3.171
46857W        W18583  26.183  27.830   4.777
46858W        W18584  11.760  19.779   3.563
46859W        W18585  12.708  19.645   4.979
46860W        W18586   5.737  18.772  12.670
46861W        W18587  39.351  40.390  11.699
46862W        W18588  38.374   4.217   1.927
46863W        W18589  16.274  12.024  11.783
46864W        W18590   6.068  26.001  13.540
46865W        W18591  32.523   3.775   4.330
46866W        W18592  35.070  30.976   3.990
46867W        W18593  30.984  21.573  11.562
46868W        W18594   5.214  19.561  10.767
46869W        W18595  18.482  32.047   3.644
46870W        W18596   2.306  33.780   4.283
46871W        W18597   0.996  44.684  13.925
46872W        W18598  39.855  36.483  13.571
46873W        W18599  42.475  17.103   0.965
46874W        W18600  32.955   8.998   3.552
46875W        W18601  30.538   5.006  11.506
46876W        W18602   1.287  20.667  14.486
46877W        W18603   8.610  35.967  13.927
46878W        W18604  10.030   1.687   0.370
46879W        W18605   9.828  34.284  13.663
46880W        W18606  12.745  25.671   1.286
46881W        W18607  14.374  37.984   0.045
46882W        W18608  17.316  34.359  13.787
46883W        W18609  32.796  32.933  10.624
46884W        W18610   5.341  42.520  10.753
46885W        W18611  12.743   9.347  12.025
46886W        W18612  42.541  33.030  14.505
46887W        W18613  34.427  44.901  13.960
46888W        W18614  44.904  43.526   4.005
46889W        W18615  32.911   7.731   4.126
46890W        W18616   5.445  26.654   1.380
46891W        W18617  20.237  41.019   0.967
46892W        W18618   5.672   9.145  14.274
46893W        W18619   6.908  21.562  14.443
46894W        W18620  37.562  27.964   4.042
46895W        W18621  41.444  13.147  14.372
46896W        W18622  12.204   0.881   4.541
46897W        W18623  24.614  34.449   4.566
46898W        W18624  35.579  26.273  11.832
46899W        W18625  12.809  31.111  14.284
46900W        W18626   4.955  28.880  11.121
46901W        W18627  11.681   6.735  13.056
46902W        W18628  39.683  11.183   4.112
46903W        W18629   2.800  41.021  10.521
46904W        W18630  16.888   1.713  14.959
46905W        W18631  25.698   1.056   1.772
46906W        W18632  36.943  22.239  14.470
46907W        W18633  25.230   4.649   0.951
46908W        W18634  40.074  35.172  13.550
46909W        W18635  44.358  27.189   2.333
46910W        W18636  29.279  23.362  13.908
46911W        W18637  12.354  13.134   3.943
46912W        W18638  37.810  25.280  13.524
46913W        W18639  10.181  21.144   0.393
46914W        W18640  33.728  12.378   0.163
46915W        W18641  33.454   3.939  10.673
46916W        W18642   1.435  13.109   1.244
46917W        W18643  23.403  28.970  14.028
46918W        W18644   5.828   9.908   2.860
46919W        W18645  20.059  23.832   4.908
46920W        W18646  42.565   9.679   0.762
46921W        W18647  29.405   5.745   2.709
46922W        W18648  28.134  27.240   3.868
46923W        W18649   3.870  20.046   4.487
46924W        W18650  36.993  38.995   0.051
46925W        W18651  10.345  44.385  14.323
46926W        W18652  22.279  36.618  13.946
46927W        W18653  14.936  16.365  11.048
46928W        W18654  10.557   6.043   4.901
46929W        W18655   0.194  21.513  10.638
46930W        W18656  26.828  24.492   4.654
46931W        W18657  25.172  31.539  10.710
46932W        W18658  32.562  13.327  13.001
46933W        W18659  19.949  38.100   0.872
46934W        W18660   1.314  15.899   1.880
46935W        W18661   4.303  20.713   2.228
46936W        W18662  16.975  12.329  14.321
46937W        W18663  32.148  34.466   3.404
46938W        W18664  17.507   8.765  13.296
46939W        W18665  30.119  31.838  12.889
46940W        W18666  44.472   2.297  13.556
46941W        W18667  32.975  39.985   4.258
46942W        W18668  14.997  27.013  14.132
46943W        W18669   4.950   7.275   2.897
46944W        W18670  18.155  30.275  10.398
46945W        W18671   0.044  39.765   3.590
46946W        W18672  34.515  12.841  10.750
46947W        W18673  21.679   3.458   3.623
46948W        W18674  44.417  33.836  13.024
46949W        W18675  39.982   4.050   4.690
46950W        W18676  25.507  41.291  13.531
46951W        W18677  39.611  39.474  12.489
46952W        W18678   1.388  36.992   2.856
46953W        W18679   0.287  33.174   0.296
46954W        W18680  28.095  11.750   0.854
46955W        W18681  15.274   5.746  13.037
46956W        W18682  15.244  16.020   2.234
46957W        W18683  10.633  35.428  12.854
46958W        W18684  20.822  31.067   1.837
46959W        W18685  33.473   5.776  11.164
46960W        W18686  40.488  40.885   4.178
46961W        W18687  10.137   2.825  14.838
46962W        W18688  41.555  13.633   3.821
46963W        W18689  39.025  17.562   0.271
46964W        W18690   1.840  35.815   4.543
46965W        W18691  11.336  24.597  10.412
46966W        W18692  16.130  14.371   1.310
46967W        W18693  19.948   9.832   0.353
46968W        W18694   8.814   4.758   1.702
46969W        W18695  44.368   7.080  13.472
46970W        W18696   7.392  13.160  13.843
46971W        W18697   6.866  43.534  14.569
46972W        W18698   8.746  13.633   0.166
46973W        W18699  17.580  20.746   5.006
46974W        W18700  23.047   3.221   0.945
46975W        W18701  41.407  23.465  11.543
46976W        W18702  42.825  30.764  11.531
46977W        W18703  19.098  31.132  14.566
46978W        W18704   6.860  16.002  14.792
46979W        W18705  27.195  23.612   2.008
46980W        W18706  33.881  21.115   2.341
46981W        W18707   3.276   9.760   3.313
46982W        W18708  30.089  24.422   4.613
46983W        W18709  40.879  27.311  12.396
46984W        W18710  21.648  19.179  12.452
46985W        W18711  19.814  12.722   2.366
46986W        W18712  38.245  32.612  10.973
46987W        W18713  17.129   6.327   1.933
46988W        W18714  11.943  17.064   5.003
46989W        W18715  13.838  35.583   4.820
46990W        W18716  21.244  16.300   2.645
46991W        W18717  17.131  34.929  13.545
46992W        W18718  44.428  18.124  13.679
46993W        W18719  38.654  14.289   1.833
46994W        W18720  40.024  22.101   2.602
46995W        W18721  39.344  12.647  11.521
46996W        W18722  38.277  38.283  13.045
46997W        W18723  42.283  41.724  11.596
46998W        W18724  28.087  38.306   2.557
46999W        W18725  35.957  22.204  12.713
47000W        W18726  33.497  23.618  14.194
47001W        W18727   3.314  23.058   4.398
47002W        W18728  24.436  18.540   4.622
47003W        W18729  19.817   9.174   2.643
47004W        W18730   3.682  18.203   3.482
47005W        W18731  30.732  10.897   2.908
47006W        W18732  23.895  40.081   3.871
47007W        W18733  38.064  36.145  12.470
47008W        W18734   9.595  13.928   2.347
47009W        W18735   0.965   7.944   0.832
47010W        W18736   1.825  26.778   1.382
47011W        W18737  12.373  12.364   0.712
47012W        W18738  37.016  29.670  10.746
47013W        W18739  22.609  24.313  10.696
47014W        W18740   5.827  14.723  11.864
47015W        W18741  34.630  41.110   4.070
47016W        W18742   6.397   5.453  10.479
47017W        W18743  32.188  11.936   0.728
47018W        W18744   4.864  34.530   2.217
47019W        W18745  34.554  33.423   0.793
47020W        W18746  32.556   3.692  10.467
47021W        W18747  15.872  12.284  11.989
47022W        W18748  36.022  43.305   3.966
47023W        W18749   3.149  41.403  10.501
47024W        W18750  11.705  32.680   1.147
47025W        W18751  19.261  33.038  13.894
47026W        W18752   3.923   4.451  12.567
47027W        W18753   2.401  15.651   3.675
47028W        W18754  37.884  12.341   2.163
47029W        W18755   6.059  26.942   2.479
47030W        W18756  11.094   6.137  14.068
47031W        W18757  17.358  18.208  10.562
47032W        W18758  28.458  14.765   0.200
47033W        W18759  31.409  34.622  12.462
47034W        W18760  27.442   8.371  10.661
47035W        W18761  24.695  28.374   1.724
47036W        W18762  16.827  38.085  12.016
47037W        W18763  17.609   4.527   3.719
47038W        W18764  34.422  21.613  12.824
47039W        W18765  40.777   1.218  10.657
47040W        W18766  16.605  23.988   3.214
47041W        W18767  12.106  42.922  12.391
47042W        W18768  20.640  44.943  13.459
47043W        W18769  11.351  23.270  10.877
47044W        W18770  44.264  12.959   0.714
47045W        W18771  34.333  23.285  12.647
47046W        W18772  18.619   7.365   3.792
47047W        W18773  19.093  16.076   3.398
47048W        W18774  36.368  24.992  14.588
47049W        W18775   7.240  36.451   3.100
47050W        W18776  36.262  10.298  14.471
47051W        W18777  40.038  39.466   2.148
47052W        W18778  39.984  30.864  10.805
47053W        W18779  34.619  17.132  12.040
47054W        W18780  31.198  31.684   4.099
47055W        W18781  35.141  13.975  11.665
47056W        W18782  19.110  16.565  11.081
47057W        W18783  20.302   2.662   0.506
47058W        W18784   7.196  16.789   0.757
47059W        W18785   6.287  32.016  11.680
47060W        W18786  41.527  18.602   4.612
47061W        W18787   4.246   9.956   2.073
47062W        W18788   9.490   3.550   0.955
47063W        W18789  18.737  24.934  12.051
47064W        W18790  29.659  42.515  13.854
47065W        W18791  36.035   5.957   2.767
47066W        W18792  24.013  16.647   1.259
47067W        W18793  31.626  38.786   3.235
47068W        W18794  12.300   1.781   2.205
47069W        W18795  33.974  11.270  11.218
47070W        W18796  10.576  34.988  12.564
47071W        W18797  42.442  36.490   2.166
47072W        W18798  21.094  44.345  12.569
47073W        W18799   1.016  18.756  13.096
47074W        W18800  16.624  17.259   1.933
47075W        W18801  14.549  31.327  13.000
47076W        W18802  42.980   3.910  14.271
47077W        W18803  21.527  35.370  11.626
47078W        W18804  43.983  11.328  11.157
47079W        W18805   9.918  14.704   0.024
47080W        W18806   3.690   0.366  11.097
47081W        W18807   3.703  40.085   0.799
47082W        W18808  43.338   9.140   4.889
47083W        W18809  36.497  33.562  11.073
47084W        W18810   6.788   3.564   3.601
47085W        W18811   8.313   4.367   1.250
47086W        W18812  12.020  37.494  14.123
47087W        W18813  11.169  23.580   3.207
47088W        W18814  23.628  31.931  11.434
47089W        W18815  12.580  17.533   2.082
47090W        W18816  38.508  22.750  12.906
47091W        W18817  36.584  44.457  14.440
47092W        W18818  34.104  37.818   2.879
47093W        W18819  41.588  37.132  13.667
47094W        W18820  18.401  34.954  14.736
47095W        W18821  17.781  36.287   0.511
47096W        W18822  33.071  26.954   2.810
47097W        W18823  28.562  15.152  10.803
47098W        W18824   8.849  28.667   4.156
47099W        W18825  32.608   5.486  10.993
47100W        W18826   8.908  24.034   5.020
47101W        W18827  30.810  34.651   5.023
47102W        W18828  13.435  18.609   0.696
47103W        W18829  31.473  38.791   0.303
47104W        W18830  31.025  41.473   4.315
47105W        W18831  32.096   7.511  12.290
47106W        W18832  41.015  35.574  12.407
47107W        W18833  21.702  10.864  13.376
47108W        W18834  33.216   1.369  14.109
47109W        W18835  28.679  30.682  13.578
47110W        W18836  39.317  39.787  14.018
47111W        W18837  36.373  30.351   4.992
47112W        W18838  10.413  25.622   1.006
47113W        W18839   2.294  26.993   1.230
47114W        W18840  33.063  32.657  11.397
47115W        W18841   4.506   0.545  10.939
47116W        W18842  32.915   5.949  12.229
47117W        W18843  15.195  28.499   2.420
47118W        W18844   9.255  43.827  13.744
47119W        W18845  21.727  40.408   4.923
47120W        W18846   8.811  29.904  13.251
47121W        W18847  41.022  37.194  10.995
47122W        W18848  33.501  43.945  12.045
47123W        W18849  27.084  42.419  11.850
47124W        W18850  37.642  24.015  10.711
47125W        W18851   4.581  13.957   0.805
47126W        W18852  16.360  24.586   4.266
47127W        W18853   0.811   0.027  13.497
47128W        W18854  23.513  23.191   3.177
47129W        W18855  32.401  38.682   2.687
47130W        W18856   9.075  26.155  11.639
47131W        W18857  12.691  12.828  13.632
47132W        W18858  10.278  35.382  12.456
47133W        W18859  25.526  21.667   3.838
47134W        W18860  28.947   9.199   3.946
47135W        W18861  14.515  19.122  12.004
47136W        W18862   1.106  35.832   4.007
47137W        W18863   5.996  41.021  14.810
47138W        W18864  36.959   4.038  13.884
47139W        W18865  16.062  26.363   1.534
47140W        W18866  12.151  17.572   3.341
47141W        W18867  19.756  30.707   0.741
47142W        W18868   0.574   0.802  13.213
47143W        W18869  41.044  12.798  10.808
47144W        W18870   8.162   4.836  12.944
47145W        W18871  33.990  28.607   3.743
47146W        W18872  11.831  12.607   1.747
47147W        W18873  37.797  31.595   2.811
47148W        W18874  36.569  20.516  14.768
47149W        W18875  38.064  35.782   1.634
47150W        W18876  24.460  28.720  11.139
47151W        W18877  19.984  22.288   3.864
47152W        W18878   8.523  19.452   0.918
47153W        W18879  30.226   2.082   4.968
47154W        W18880  13.242  33.682   4.306
47155W        W18881   4.178   9.619   4.095
47156W        W18882   6.798  15.420   1.123
47157W        W18883  42.084  17.208  14.167
47158W        W18884  21.099  21.416   4.853
47159W        W18885  20.610   1.415  12.022
47160W        W18886  14.758  28.486  14.950
47161W        W18887  25.597  32.646   1.296
47162W        W18888  34.533  17.078   3.670
47163W        W18889  37.606  29.175   1.763
47164W        W18890  38.190  17.259  14.859
47165W        W18891  11.657  20.294   0.265
47166W        W18892  14.638  30.850   2.199
47167W        W18893  17.156  23.502  14.064
47168W        W18894   6.864  42.792  14.014
47169W        W18895  33.299  31.353  11.865
47170W        W18896   2.234  21.094  10.722
47171W        W18897  12.821  36.365   3.676
47172W        W18898  39.991   9.966  11.067
47173W        W18899  42.280   9.896  13.444
47174W        W18900  19.661  13.444   3.693
47175W        W18901  33.615  24.638   3.075
47176W        W18902  31.602  21.293  14.853
47177W        W18903  16.248  15.719   1.756
47178W        W18904  10.782  27.563  14.577
47179W        W18905   1.846  32.499  13.356
47180W        W18906  36.481   9.425  12.696
47181W        W18907   7.019  10.197  13.638
47182W        W18908  25.912   5.849  12.061
47183W        W18909  16.724   4.344   3.925
47184W        W18910  12.828  17.249  11.933
47185W        W18911  36.658  23.086   4.770
47186W        W18912   9.324  13.014  14.562
47187W        W18913  23.676  10.681  10.452
47188W        W18914  36.324  15.298   0.152
47189W        W18915  33.109  13.559   1.852
47190W        W18916  21.949  42.551   1.247
47191W        W18917  29.105   4.264   3.136
47192W        W18918   0.223   0.774   4.039
47193W        W18919  28.167  14.658   2.935
47194W        W18920  44.801  33.652   4.371
47195W        W18921  20.904   9.849  13.914
47196W        W18922  18.205  19.321  11.901
47197W        W18923   5.162   4.445   4.968
47198W        W18924  40.302  33.333  13.785
47199W        W18925  41.964  39.605   3.621
47200W        W18926  10.106   9.787   3.720
47201W        W18927  40.965  28.222   2.283
47202W        W18928  35.377  21.749   1.879
47203W        W18929  39.542   2.334   0.718
47204W        W18930  25.215  16.193   4.220
47205W        W18931  30.043  33.563   2.149
47206W        W18932   9.812  13.111  14.481
47207W        W18933   5.199   2.716   3.641
47208W        W18934  40.041   9.666   2.715
47209W        W18935  31.037  17.169   3.198
47210W        W18936  18.987  18.748  11.090
47211W        W18937   0.190  42.510   2.323
47212W        W18938  17.766  34.445  11.887
47213W        W18939  38.458   0.091  14.940
47214W        W18940   8.764  31.616   0.505
47215W        W18941  22.692  21.820   2.834
47216W        W18942  14.648  16.856   4.709
47217W        W18943  30.452   0.758   5.134
47218W        W18944  38.841  13.337   3.398
47219W        W18945   1.840  34.796  14.465
47220W        W18946   8.581   2.447  11.140
47221W        W18947   1.700  37.632   4.218
47222W        W18948  24.945  32.090  14.958
47223W        W18949  29.922   4.447   1.321
47224W        W18950  30.763   2.393  11.649
47225W        W18951  20.453  23.101   1.802
47226W        W18952  19.811   5.192   2.871
47227W        W18953  19.610  42.830   3.604
47228W        W18954   4.476  28.688   3.610
47229W        W18955  23.530  12.760   2.243
47230W        W18956  11.251  20.083   1.598
47231W        W18957   3.145  12.121  12.504
47232W        W18958  36.263   4.309   3.323
47233W        W18959  28.736  38.888   4.151
47234W        W18960   1.787   0.539   3.943
47235W        W18961  26.205  34.169  13.527
47236W        W18962  10.495   7.099  13.972
47237W        W18963  41.658  43.309   3.281
47238W        W18964  36.630  23.570  12.461
47239W        W18965  42.369  44.725   2.229
47240W        W18966  21.233  18.954   1.906
47241W        W18967  26.575   1.909  13.917
47242W        W18968   2.330  25.681  11.611
47243W        W18969   0.935  11.870  12.923
47244W        W18970  13.662   9.669   3.818
47245W        W18971  21.584  11.376  14.363
47246W        W18972  10.788  25.029  11.943
47247W        W18973  42.846  26.227  14.765
47248W        W18974  37.987  12.187  12.312
47249W        W18975  13.069  20.685  11.567
47250W        W18976   4.400  31.388   3.667
47251W        W18977   1.206  43.325   4.189
47252W        W18978  11.154  10.009  14.782
47253W        W18979  38.391   2.937   1.994
47254W        W18980   7.313   3.387  13.839
47255W        W18981   3.950   9.810  12.575
47256W        W18982  12.398  18.510   3.057
47257W        W18983  29.399  15.793  10.335
47258W        W18984  19.763  21.553  11.252
47259W        W18985   4.308  17.078   1.624
47260W        W18986  10.022   4.676   3.608
47261W        W18987  36.610   5.690  13.763
47262W        W18988  30.940  41.517   3.339
47263W        W18989   3.669  31.895   2.634
47264W        W18990  27.192  13.761   3.950
47265W        W18991   5.159   0.235   4.256
47266W        W18992  24.262  19.680   1.642
47267W        W18993  35.355  30.962   3.173
47268W        W18994  42.700  15.928  12.110
47269W        W18995   8.323  10.071   4.871
47270W        W18996  24.655  21.969  13.518
47271W        W18997  39.014  15.542  11.525
47272W        W18998  17.155   1.712  13.719
47273W        W18999  42.990  11.525  11.035
47274W        W19000   4.999  36.843   0.374
47275W        W19001  15.113  18.159  11.521
47276W        W19002  44.920  42.322   0.544
47277W        W19003  22.645  29.139  11.148
47278W        W19004  41.990  42.955   1.849
47279W        W19005   4.285  32.951   3.384
47280W        W19006  44.902  29.332  12.945
47281W        W19007  44.310  22.170   4.697
47282W        W19008  28.455  19.425  12.494
47283W        W19009   7.244   4.173  12.762
47284W        W19010  20.547  37.148  13.910
47285W        W19011  23.967  26.263   0.458
47286W        W19012  43.441  37.451   5.031
47287W        W19013  29.538  16.978   3.673
47288W        W19014  22.831  12.675  10.157
47289W        W19015  31.451   1.450  14.351
47290W        W19016  11.164  42.869  11.961
47291W        W19017   0.220   3.406   0.263
47292W        W19018   6.520  43.556  13.421
47293W        W19019  39.468   9.988  14.370
47294W        W19020  34.473  15.683   3.667
47295W        W19021   7.594  20.670  11.926
47296W        W19022  33.449  24.213   3.828
47297W        W19023   6.211  10.632   1.934
47298W        W19024   7.373  22.514  14.350
47299W        W19025  41.378  25.919   2.411
47300W        W19026   8.718  21.473  10.591
47301W        W19027  15.586  34.923   1.411
47302W        W19028  23.071  27.748  14.436
47303W        W19029   5.916  42.369  13.291
47304W        W19030  21.323  15.664   4.715
47305W        W19031  34.525  33.443  11.741
47306W        W19032  10.533  20.180   0.209
47307W        W19033  44.274   8.257  13.012
47308W        W19034  18.866  28.127   1.854
47309W        W19035  25.967  14.805  12.004
47310W        W19036  37.829  36.442  12.862
47311W        W19037  23.603  20.589   0.819
47312W        W19038  28.488   5.844  11.364
47313W        W19039   7.284   6.126  14.949
47314W        W19040  19.000   3.811   1.639
47315W        W19041  34.918  18.327  13.886
47316W        W19042  38.724  19.798  13.921
47317W        W19043  26.828  35.128   4.537
47318W        W19044  27.249  28.619  13.944
47319W        W19045  27.687  34.349   0.238
47320W        W19046  34.512  44.228  13.497
47321W        W19047   1.315  20.176   1.232
47322W        W19048  41.442  39.437   2.324
47323W        W19049  31.896  24.003  13.144
47324W        W19050  36.764  18.080  13.831
47325W        W19051  30.076   3.736  12.487
47326W        W19052  12.813  20.646   1.223
47327W        W19053  17.617  13.728  14.841
47328W        W19054  17.179  40.995  12.957
47329W        W19055  40.826  27.078   1.716
47330W        W19056   3.219  33.043  14.798
47331W        W19057  42.030  27.641   0.307
47332W        W19058  20.296  14.368  14.838
47333W        W19059   7.186  22.846  13.999
47334W        W19060  42.347  24.142  14.425
47335W        W19061  38.322  15.553  14.453
47336W        W19062   2.754  19.416   4.263
47337W        W19063  36.975   7.371   0.323
47338W        W19064  30.913   5.648  13.098
47339W        W19065  41.388  11.841   0.466
47340W        W19066  33.593  33.355  10.286
47341W        W19067  36.776  38.524   1.939
47342W        W19068  32.400  21.703  11.106
47343W        W19069  33.893   0.492   2.299
47344W        W19070  12.046  23.468   0.242
47345W        W19071  22.625  20.033   3.293
47346W        W19072  38.457  23.297   2.869
47347W        W19073  34.073  12.741   3.805
47348W        W19074  27.589   8.983   4.100
47349W        W19075   3.963  19.145   0.394
47350W        W19076  24.605  24.971   1.756
47351W        W19077  29.952  34.455   1.931
47352W        W19078  23.363   6.056  11.522
47353W        W19079  36.543  19.735   0.549
47354W        W19080   3.465  40.564  12.372
47355W        W19081  17.549  33.903  13.954
47356W        W19082  38.851  27.301  12.814
47357W        W19083  45.000   4.368   2.236
47358W        W19084  15.871  21.399   4.474
47359W        W19085   1.824  26.161   1.363
47360W        W19086  17.901   9.389   3.228
47361W        W19087  11.146  26.853  14.394
47362W        W19088  19.566  39.872  12.562
47363W        W19089   1.346  22.505  13.982
47364W        W19090   6.851  23.479   0.482
47365W        W19091  38.742  20.315   0.806
47366W        W19092  11.884  13.460   1.964
47367W        W19093  17.705  32.336  11.534
47368W        W19094  24.149  20.236   2.426
47369W        W19095  31.569  31.465   1.010
47370W        W19096  29.216  30.858   3.758
47371W        W19097  35.648  10.394  12.059
47372W        W19098  40.775  25.472   2.914
47373W        W19099   4.691  36.416  13.282
47374W        W19100  26.919  14.607  14.853
47375W        W19101  16.464  35.131  11.897
47376W        W19102  22.201  12.363   5.391
47377W        W19103  34.808   9.365  13.035
47378W        W19104  21.493  30.052   2.818
47379W        W19105  41.918  34.160   3.823
47380W        W19106  31.714   7.864  12.408
47381W        W19107  12.971  20.291   0.384
47382W        W19108  24.251   1.805   4.857
47383W        W19109   2.544  32.887   4.659
47384W        W19110  17.811  24.279   4.171
47385W        W19111  43.191   4.996  11.939
47386W        W19112  21.217  42.807   2.331
47387W        W19113  34.693   1.868  13.837
47388W        W19114  34.382  11.836   1.176
47389W        W19115  23.990  41.316   4.085
47390W        W19116   3.732   8.180  13.154
47391W        W19117  13.069  11.120   2.261
47392W        W19118  24.238  34.633  13.009
47393W        W19119  30.179  26.061   4.542
47394W        W19120  17.736   0.795   1.316
47395W        W19121  36.227  37.444  13.703
47396W        W19122  34.647  18.755  13.860
47397W        W19123  15.850  28.216   3.706
47398W        W19124  40.947  10.834   3.178
47399W        W19125  16.114  42.411   0.523
47400W        W19126  25.342  44.033  11.980
47401W        W19127  35.299  33.486  10.715
47402W        W19128  13.181   8.898  14.935
47403W        W19129  22.265  38.751  10.743
47404W        W19130  37.210  35.221  13.905
47405W        W19131  44.913  30.379   0.251
47406W        W19132  33.468  30.887   3.839
47407W        W19133  39.907  18.608   1.748
47408W        W19134  16.892  19.182  14.462
47409W        W19135  27.645  23.619   4.911
47410W        W19136   3.410  23.255   0.975
47411W        W19137  42.806  29.122  13.341
47412W        W19138  17.167  26.253  12.983
47413W        W19139   2.755  32.545   3.786
47414W        W19140  25.928  40.114  11.352
47415W        W19141   7.382  36.916  13.853
47416W        W19142   6.101  18.558   4.730
47417W        W19143  21.191  44.915  14.706
47418W        W19144  23.936  13.837   2.370
47419W        W19145  25.534  37.898  11.233
47420W        W19146   0.981  15.917  11.697
47421W        W19147  39.579   5.660   2.231
47422W        W19148  26.429  39.756  14.317
47423W        W19149  21.591  11.475  11.957
47424W        W19150  15.594  14.782  12.504
47425W        W19151  13.570   2.710  13.758
47426W        W19152  25.942  21.817   3.314
47427W        W19153   7.636  44.480   0.735
47428W        W19154  30.617  27.094  12.575
47429W        W19155  36.680   3.938  14.517
47430W        W19156   0.446   4.071  14.681
47431W        W19157  14.768  19.738  10.924
47432W        W19158  33.024   8.595   0.967
47433W        W19159  10.217   3.486  14.975
47434W        W19160  34.957  24.490  13.021
47435W        W19161  38.722  20.214  13.599
47436W        W19162  15.022  25.450  13.349
47437W        W19163  32.383   8.384  12.109
47438W        W19164  23.948   7.498  11.251
47439W        W19165  10.291  21.053   2.244
47440W        W19166  24.245   4.761   1.149
47441W        W19167  41.463   4.399  14.952
47442W        W19168   7.885  37.438  11.656
47443W        W19169   7.021  10.736  13.757
47444W        W19170  41.843  25.047   3.831
47445W        W19171   6.687  17.563  14.310
47446W        W19172  12.969  21.173   4.935
47447W        W19173  13.211   9.934   3.583
47448W        W19174  30.046  32.883   1.763
47449W        W19175  17.046  14.247  11.187
47450W        W19176  21.994  44.506  12.536
47451W        W19177  41.544  11.972  11.129
47452W        W19178  40.889  41.972  10.717
47453W        W19179   4.993  36.533  14.796
47454W        W19180   3.645  34.999   0.242
47455W        W19181   4.754   6.788   4.132
47456W        W19182  18.096  37.599   5.113
47457W        W19183  20.639  23.107  10.448
47458W        W19184  40.457  21.190   4.581
47459W        W19185  42.807   9.950  10.973
47460W        W19186  12.903  16.771  10.632
47461W        W19187  23.931  31.909  14.017
47462W        W19188  23.514  36.790   3.284
47463W        W19189  36.911  39.250   3.662
47464W        W19190  36.467  13.159  10.493
47465W        W19191   9.641  41.737  11.136
47466W        W19192  33.069  43.760  11.822
47467W        W19193  15.845  26.541  13.320
47468W        W19194  12.105  44.452  14.896
47469W        W19195  12.811  23.551   0.744
47470W        W19196  28.671  17.709  13.456
47471W        W19197  19.150  41.572  13.907
47472W        W19198  28.014  41.814  14.443
47473W        W19199   9.433   1.986  12.046
47474W        W19200  11.123  30.572  13.973
47475W        W19201  14.055  13.849   4.141
47476W        W19202  44.861  21.085   0.862
47477W        W19203  35.359   6.704   3.255
47478W        W19204   6.402  21.469  14.366
47479W        W19205   5.895  12.631  12.390
47480W        W19206  14.311  18.088   2.568
47481W        W19207  40.550  23.532  11.210
47482W        W19208   0.832  38.457  11.222
47483W        W19209  35.866  28.527  13.677
47484W        W19210  19.824  18.186  10.469
47485W        W19211  13.797   3.927   4.278
47486W        W19212  15.133   0.243   4.029
47487W        W19213  35.816  24.483  10.564
47488W        W19214  16.547  36.875   4.161
47489W        W19215  15.316  43.561   2.449
47490W        W19216  21.863  43.038  11.585
47491W        W19217  44.355  29.115   3.302
47492W        W19218  21.790  40.381  14.007
47493W        W19219  29.491   0.834  10.170
47494W        W19220  19.349  31.670  11.544
47495W        W19221  38.813   1.444   2.627
47496W        W19222  26.367  30.544   0.846
47497W        W19223  20.726   6.472  10.724
47498W        W19224  29.188  42.696  13.938
47499W        W19225  44.386  14.043  10.749
47500W        W19226  11.753  28.730   2.761
47501W        W19227  40.048   1.297   4.535
47502W        W19228  31.906  24.670  14.955
47503W        W19229  22.981  42.968   1.304
47504W        W19230  33.134  13.592   0.300
47505W        W19231  26.666  25.112   4.679
47506W        W19232  26.271  37.534  14.729
47507W        W19233  34.852  38.991   4.878
47508W        W19234   0.479  12.382   2.333
47509W        W19235  32.535   0.494  14.005
47510W        W19236  39.833  41.088  12.405
47511W        W19237  33.012  34.383   3.326
47512W        W19238  15.052  23.097  13.290
47513W        W19239  18.660   8.493   1.724
47514W        W19240   8.981  36.577   2.800
47515W        W19241   6.270  27.827   0.812
47516W        W19242  28.760  25.053   4.621
47517W        W19243   5.747  18.594   4.322
47518W        W19244  19.409   4.581   4.698
47519W        W19245  39.433  34.024  13.994
47520W        W19246  15.778  42.453  10.522
47521W        W19247   3.838  26.588  13.824
47522W        W19248  20.764   9.160  14.005
47523W        W19249  28.671  36.096  14.668
47524W        W19250   8.770  28.494  13.411
47525W        W19251  42.403  43.341  13.289
47526W        W19252  37.502  10.423   4.238
47527W        W19253  36.231  11.830  10.701
47528W        W19254  30.016   0.692  13.344
47529W        W19255  43.899  38.913  13.364
47530W        W19256  31.544  43.538  11.987
47531W        W19257  32.058  35.642   2.748
47532W        W19258  30.378  39.146  13.772
47533W        W19259  10.669  38.926   2.125
47534W        W19260  16.553   3.357   3.836
47535W        W19261  28.271  43.433  11.050
47536W        W19262  38.617  37.920  14.047
47537W        W19263  33.846   0.321  12.608
47538W        W19264   4.440  18.176  13.932
47539W        W19265  38.442  42.717  12.355
47540W        W19266   9.288  37.570  10.535
47541W        W19267  19.732  11.371  14.177
47542W        W19268   5.239  26.518   3.290
47543W        W19269  11.850   1.961  10.737
47544W        W19270   9.724  33.686   1.215
47545W        W19271  17.538  31.831  11.552
47546W        W19272  21.321  15.593  13.686
47547W        W19273  15.856   0.102   3.195
47548W        W19274  42.538  37.310   4.639
47549W        W19275   7.234   1.461   3.875
47550W        W19276  29.729  44.428   4.616
47551W        W19277  31.344  25.838   9.828
47552W        W19278  43.307  43.006  11.466
47553W        W19279   1.882  32.340  11.442
47554W        W19280  20.805  31.016   3.349
47555W        W19281  33.029   2.913   4.535
47556W        W19282   8.739  35.780  13.401
47557W        W19283  42.728  36.969  12.994
47558W        W19284  43.283   3.339   5.009
47559W        W19285  24.591  36.060   3.703
47560W        W19286  15.729   3.347   4.398
47561W        W19287  18.365  35.161  14.259
47562W        W19288  44.833  29.544   4.564
47563W        W19289  18.738  32.109  10.802
47564W        W19290  37.125  17.038   3.654
47565W        W19291  19.877  40.290  12.531
47566W        W19292  18.239   0.017   4.713
47567W        W19293  28.524  11.343  10.756
47568W        W19294  22.707  23.606   3.291
47569W        W19295  17.776  20.650  14.976
47570W        W19296  20.538  25.450   4.184
47571W        W19297  10.535   7.276  12.047
47572W        W19298  16.243  42.665   0.970
47573W        W19299  27.581   2.266  11.592
47574W        W19300  43.164  31.194  10.693
47575W        W19301   7.209   7.064  10.135
47576W        W19302  37.768  24.583  14.071
47577W        W19303  13.908  28.621   2.111
47578W        W19304  25.127   3.773   4.363
47579W        W19305   2.961  15.931   2.310
47580W        W19306  37.752   2.629  13.905
47581W        W19307  14.251   0.317   1.902
47582W        W19308  27.422  26.953  12.034
47583W        W19309  38.906  26.651   1.724
47584W        W19310   2.801  41.858  12.018
47585W        W19311  44.917  27.933  13.011
47586W        W19312  16.243   9.888  10.704
47587W        W19313  23.419  42.825  14.746
47588W        W19314  36.014   5.282   2.317
47589W        W19315  43.927  31.838  12.040
47590W        W19316   1.456   6.964  11.197
47591W        W19317  21.186  42.088  11.297
47592W        W19318  24.891  32.299   3.260
47593W        W19319   1.653  32.163   1.012
47594W        W19320   0.489  34.407   0.902
47595W        W19321  15.153  38.614   0.744
47596W        W19322  33.373  25.359  10.743
47597W        W19323  37.567  42.949  11.940
47598W        W19324  19.023  12.289   2.694
47599W        W19325  44.109  42.426  11.140
47600W        W19326   6.856   6.712  11.722
47601W        W19327  31.364   6.188   5.086
47602W        W19328  35.023  41.735   5.167
47603W        W19329  40.922  30.603  11.478
47604W        W19330  29.714   7.668   1.891
47605W        W19331  25.506   8.748   1.225
47606W        W19332  36.983  43.749  12.052
47607W        W19333  29.829  15.889  11.165
47608W        W19334  22.049  15.608  12.614
47609W        W19335  39.705   7.103  10.992
47610W        W19336  40.301   7.106   4.574
47611W        W19337   6.826  39.438  13.394
47612W        W19338  43.743  33.863   3.111
47613W        W19339  16.344  11.737  12.600
47614W        W19340  36.337   3.942   2.758
47615W        W19341  18.502   9.413   3.806
47616W        W19342   2.786   1.240   0.312
47617W        W19343  43.969  28.725   0.330
47618W        W19344  35.132   9.319   3.719
47619W        W19345   3.717  37.509   4.182
47620W        W19346  41.127  26.549   1.075
47621W        W19347  10.577   8.951   3.213
47622W        W19348  27.459  42.427   3.654
47623W        W19349  38.959   1.211   2.183
47624W        W19350  23.763   9.283   1.434
47625W        W19351  41.210  33.476   3.113
47626W        W19352  28.401  30.550  11.757
47627W        W19353  10.644  27.670   1.265
47628W        W19354  38.471   0.190   3.399
47629W        W19355  22.961  39.235  13.797
47630W        W19356  43.276  40.574  13.090
47631W        W19357  12.466  23.199  13.554
47632W        W19358  35.342  42.356  13.970
47633W        W19359  23.246   9.846   3.510
47634W        W19360  42.874  37.613   1.460
47635W        W19361   3.962  17.213   9.883
47636W        W19362  21.442  14.428   2.628
47637W        W19363  32.076  20.236   2.149
47638W        W19364  38.367  13.149   2.793
47639W        W19365  43.551  34.646   0.474
47640W        W19366  40.099  10.311  13.321
47641W        W19367  20.308   7.295   5.160
47642W        W19368  41.335  37.768  11.578
47643W        W19369  37.372  10.912   4.327
47644W        W19370   2.518  26.987   2.600
47645W        W19371  16.253  17.680  14.859
47646W        W19372  38.308  38.770  12.123
47647W        W19373  21.350  27.454  10.846
47648W        W19374   0.871  12.670  11.074
47649W        W19375  36.666  41.808  11.616
47650W        W19376   4.388  33.303  13.356
47651W        W19377   5.818  12.089  11.501
47652W        W19378   6.466   7.685  12.003
47653W        W19379  13.716  15.308  14.126
47654W        W19380  16.924   9.647  14.193
47655W        W19381  38.285  43.302   0.346
47656W        W19382   1.597  44.944  14.751
47657W        W19383  23.071  20.240   2.145
47658W        W19384  28.962  10.805   3.258
47659W        W19385   8.073  31.081  11.190
47660W        W19386   3.476  13.377   3.167
47661W        W19387  32.808   0.418   4.906
47662W        W19388  39.925   8.887   1.816
47663W        W19389   2.847  35.103  14.279
47664W        W19390  29.862   7.900  11.503
47665W        W19391  24.712  40.316   3.714
47666W        W19392  15.125   1.963   4.550
47667W        W19393  41.739  14.244   0.211
47668W        W19394   0.234  34.439   4.530
47669W        W19395  12.614   9.948  13.949
47670W        W19396  12.121  40.420  12.042
47671W        W19397   5.789  19.090   4.132
47672W        W19398  13.266  23.426  12.573
47673W        W19399  12.865  20.752  12.075
47674W        W19400  29.988  34.411   4.164
47675W        W19401  31.511  40.408   4.320
47676W        W19402  32.942   1.936  12.560
47677W        W19403   6.413  21.541   3.144
47678W        W19404  17.799  37.026  14.436
47679W        W19405  13.730   9.154  11.463
47680W        W19406  25.242   3.683   0.376
47681W        W19407  22.432  39.042   2.060
47682W        W19408   3.035  36.483   4.857
47683W        W19409  29.863  14.581   1.984
47684W        W19410  14.167   0.408   0.466
47685W        W19411  36.828   5.648  12.949
47686W        W19412  10.841  24.802   3.197
47687W        W19413  16.230   8.509  14.621
47688W        W19414  37.977  35.950   0.734
47689W        W19415  27.503   3.202  11.221
47690W        W19416  20.812  14.241  13.349
47691W        W19417  44.631  12.665  12.046
47692W        W19418   2.279   8.006   0.910
47693W        W19419   5.288  32.934   1.541
47694W        W19420  27.180  10.333   4.898
47695W        W19421  19.717  21.087  11.468
47696W        W19422   9.527  26.576  10.068
47697W        W19423  15.974   7.794  10.747
47698W        W19424  28.990  26.099  10.793
47699W        W19425   2.370  41.387  12.841
47700W        W19426  29.511   7.791   1.020
47701W        W19427  34.405   1.284  11.921
47702W        W19428   4.429   1.661  14.526
47703W        W19429  18.606  42.905  14.014
47704W        W19430  35.690  18.084  14.173
47705W        W19431  31.081   5.448   4.797
47706W        W19432   8.822  43.779   2.745
47707W        W19433  37.387  34.139   0.906
47708W        W19434  39.411  38.045   2.644
47709W        W19435  19.622  17.641   3.923
47710W        W19436  32.042  21.124  12.825
47711W        W19437   9.923  30.435   1.946
47712W        W19438  42.342  15.397   0.909
47713W        W19439  37.480   8.663   3.709
47714W        W19440  29.635  39.257  13.496
47715W        W19441  15.862  22.261  11.073
47716W        W19442  44.429  31.434  11.582
47717W        W19443   8.137  31.570  11.476
47718W        W19444   5.714   9.581  14.016
47719W        W19445   5.560  21.045  14.470
47720W        W19446  28.018  32.424  14.497
47721W        W19447  23.526   2.139  12.989
47722W        W19448  11.791   2.786  12.258
47723W        W19449  41.933  13.172   1.796
47724W        W19450   9.384   5.712  10.928
47725W        W19451   6.219  41.427   2.028
47726W        W19452  31.605  12.881  11.677
47727W        W19453  42.148   1.297   4.950
47728W        W19454  37.444  31.071  10.718
47729W        W19455   9.853   3.739  12.643
47730W        W19456  35.875  18.771  13.754
47731W        W19457   6.285  38.550  10.755
47732W        W19458  13.209   4.514   3.991
47733W        W19459  15.694  29.614  11.917
47734W        W19460  32.118   8.271   1.217
47735W        W19461  30.331  39.643  13.939
47736W        W19462  34.947  11.034  14.446
47737W        W19463   8.267  43.768  14.000
47738W        W19464  19.708  19.303  11.909
47739W        W19465  19.240  18.690   1.428
47740W        W19466  23.235  16.899  14.965
47741W        W19467   8.737  15.151  12.375
47742W        W19468  39.031  21.681   2.250
47743W        W19469  39.914  15.251  14.000
47744W        W19470  39.596  35.395   4.551
47745W        W19471  14.160  33.074   1.263
47746W        W19472   4.696  19.584  10.664
47747W        W19473   0.259  24.082  11.192
47748W        W19474  33.479  22.807   2.183
47749W        W19475  30.528  27.596   2.157
47750W        W19476  18.315   1.990   3.038
47751W        W19477  36.937  28.555  13.517
47752W        W19478  19.577   6.986  11.967
47753W        W19479  36.582  18.320  11.588
47754W        W19480  44.188   2.007   2.172
47755W        W19481   6.688  24.604   3.245
47756W        W19482  34.632   5.422   4.751
47757W        W19483   0.023  11.395  13.587
47758W        W19484  19.115  36.598  14.885
47759W        W19485  36.384  35.939   2.344
47760W        W19486  18.707  20.726  13.460
47761W        W19487   3.790  42.902  12.046
47762W        W19488   8.408   1.595   1.424
47763W        W19489  23.280  25.625   1.754
47764W        W19490  14.625   2.202  11.884
47765W        W19491  20.157   0.372  10.606
47766W        W19492   9.396  43.247  14.802
47767W        W19493  38.826  22.016  13.244
47768W        W19494  30.753  14.381   0.386
47769W        W19495  30.112  32.297   1.747
47770W        W19496  15.064   6.660   4.168
47771W        W19497  17.861  36.771   0.381
47772W        W19498  12.220  20.832  11.207
47773W        W19499  33.630  26.343   3.780
47774W        W19500  39.251  25.837   1.819
47775W        W19501  32.712   0.019  13.996
47776W        W19502  43.445   7.815  13.887
47777W        W19503  37.416   1.012  12.958
47778W        W19504  25.579  36.062  10.273
47779W        W19505   5.643  10.233  13.435
47780W        W19506  42.075  29.198   3.705
47781W        W19507  43.327  25.953  13.860
47782W        W19508  34.939  29.414  12.572
47783W        W19509  23.286  16.260   3.305
47784W        W19510  12.075  37.523   4.718
47785W        W19511  23.159  29.006   3.600
47786W        W19512  43.979  25.797   0.456
47787W        W19513   3.246   3.205  13.313
47788W        W19514  33.583  13.276  11.146
47789W        W19515  30.843  19.509   5.001
47790W        W19516  13.827  17.205  10.700
47791W        W19517  21.309  12.871  11.503
47792W        W19518  36.148  38.903  12.277
47793W        W19519   5.753   9.491  11.149
47794W        W19520  43.040  11.884  13.980
47795W        W19521  27.738  30.990  11.127
47796W        W19522  13.110  39.888   1.245
47797W        W19523  25.553  13.751   1.751
47798W        W19524   4.708  13.817   0.219
47799W        W19525  13.830  26.881  13.426
47800W        W19526   4.458  19.313  11.516
47801W        W19527  26.577   1.290  11.628
47802W        W19528  13.787  20.105  12.767
47803W        W19529  25.808  32.560   2.649
47804W        W19530   7.871   4.313   5.495
47805W        W19531  31.470   0.403  12.045
47806W        W19532  20.817  26.049   2.371
47807W        W19533  28.714  11.807  11.618
47808W        W19534   4.261   3.130  13.330
47809W        W19535   5.400  34.848   4.018
47810W        W19536  35.417  23.092   2.797
47811W        W19537  37.299  29.160  12.052
47812W        W19538   6.704  16.060   0.837
47813W        W19539  15.537  42.981   3.761
47814W        W19540  44.843  29.669  14.324
47815W        W19541  11.370   0.384  12.055
47816W        W19542  34.843  25.102   2.592
47817W        W19543  23.479   5.560  12.263
47818W        W19544  32.078  34.958  11.443
47819W        W19545  37.747   4.788   1.262
47820W        W19546   7.231  44.530  14.768
47821W        W19547  41.551  37.211   2.562
47822W        W19548   0.204  27.191   3.777
47823W        W19549  22.007  41.578   3.556
47824W        W19550  42.586  33.719  12.844
47825W        W19551  33.986  33.927  13.559
47826W        W19552  18.804   4.895  11.450
47827W        W19553  17.776  42.429   3.874
47828W        W19554  35.055   8.795   2.564
47829W        W19555  44.922   6.407   3.926
47830W        W19556   3.421  38.362  13.079
47831W        W19557  20.806  31.412  11.360
47832W        W19558  23.828  23.260   4.134
47833W        W19559  32.535   9.727   4.598
47834W        W19560  12.439  38.930   4.176
47835W        W19561  10.424   4.428   2.620
47836W        W19562  28.187   2.310  13.090
47837W        W19563  34.608  18.202   3.107
47838W        W19564  15.752   3.884   0.758
47839W        W19565  33.999   4.536  14.996
47840W        W19566  36.838  43.869   4.111
47841W        W19567  14.992   4.793   4.400
47842W        W19568   9.024  39.808  10.413
47843W        W19569  12.597  13.252  13.327
47844W        W19570  27.200  24.596  14.778
47845W        W19571   4.320   3.345   3.191
47846W        W19572   8.485  16.780   3.685
47847W        W19573  33.627  33.113  13.211
47848W        W19574  33.728   3.416   0.999
47849W        W19575   8.185  39.859  14.484
47850W        W19576  17.567  13.012   1.917
47851W        W19577  34.571   0.393   4.128
47852W        W19578  28.430   3.366   0.891
47853W        W19579  32.922  15.780   3.633
47854W        W19580  13.237  38.606   4.351
47855W        W19581  10.238  33.091  11.160
47856W        W19582  41.141  41.659   0.810
47857W        W19583   2.955  15.664   1.842
47858W        W19584   8.706  23.622   2.430
47859W        W19585  22.541  18.208  10.266
47860W        W19586  28.047  15.064   0.039
47861W        W19587   7.962   0.937  12.903
47862W        W19588  22.672  12.144   9.695
47863W        W19589  34.415  28.696  14.919
47864W        W19590  43.975   3.529  10.978
47865W        W19591   3.376  38.928   2.738
47866W        W19592  43.876  31.158  14.737
47867W        W19593  35.277  37.989  11.063
47868W        W19594   7.279  24.083   0.337
47869W        W19595  40.522  18.755   4.957
47870W        W19596   3.903  10.583   4.088
47871W        W19597  37.813  21.471  14.705
47872W        W19598   1.100  10.703  11.957
47873W        W19599  11.434   0.272   1.583
47874W        W19600  34.279  15.022  13.468
47875W        W19601   5.001  31.985   2.328
47876W        W19602  30.654  14.610  10.429
47877W        W19603  10.338  14.399  11.705
47878W        W19604  26.921   6.715   4.580
47879W        W19605  11.743  16.627   4.224
47880W        W19606   9.623  28.098   3.411
47881W        W19607  14.626  44.176  14.009
47882W        W19608  35.279  35.713   2.786
47883W        W19609  10.663  44.869   1.864
47884W        W19610   3.229  35.507  12.090
47885W        W19611  19.813  27.148   0.281
47886W        W19612  37.266  35.806   0.393
47887W        W19613   7.280   7.195   4.604
47888W        W19614  21.953  35.341   2.975
47889W        W19615  18.741  20.865  12.893
47890W        W19616   6.839   9.801   0.725
47891W        W19617  43.859  14.581   0.307
47892W        W19618  38.531  28.924  12.913
47893W        W19619  33.640   3.185   2.866
47894W        W19620  19.858  16.237   1.724
47895W        W19621  40.922  10.443   1.276
47896W        W19622  21.021  35.435   0.669
47897W        W19623  23.993  40.933  10.427
47898W        W19624  40.341  29.000  10.901
47899W        W19625  20.116   7.622  12.635
47900W        W19626  36.971  30.208  10.734
47901W        W19627  11.504  25.129  11.558
47902W        W19628  25.021  26.213  11.089
47903W        W19629  34.757  20.009   3.616
47904W        W19630  27.087  17.014  13.318
47905W        W19631  41.300  33.327   0.872
47906W        W19632  13.285  23.509  13.104
47907W        W19633  23.520  33.361   4.253
47908W        W19634  35.643  13.712  11.250
47909W        W19635   7.350  38.693  13.515
47910W        W19636  10.275  41.958   0.783
47911W        W19637   6.918  26.563   0.852
47912W        W19638  23.243  25.068  12.929
47913W        W19639  29.183  16.167  12.953
47914W        W19640  28.535  41.522   0.296
47915W        W19641  17.669   0.088   2.781
47916W        W19642  37.337  19.072   4.822
47917W        W19643   9.900  25.597   0.824
47918W        W19644  28.504  34.759  12.611
47919W        W19645   9.689  28.522   4.581
47920W        W19646  35.536  16.257  13.595
47921W        W19647  31.794  44.844   3.713
47922W        W19648  37.826   5.027  13.731
47923W        W19649   9.202  28.735  12.011
47924W        W19650  35.142  40.916  12.469
47925W        W19651   0.465  44.361   1.728
47926W        W19652  23.651  28.047  12.772
47927W        W19653   1.418  25.436  11.984
47928W        W19654  25.935  20.713   4.764
47929W        W19655   2.714   8.765   4.446
47930W        W19656  26.173  27.006   3.103
47931W        W19657   1.021  18.478   1.317
47932W        W19658  38.925  11.443   2.859
47933W        W19659  41.011  23.150  10.651
47934W        W19660  19.144  44.817   4.182
47935W        W19661   3.722  10.674   4.552
47936W        W19662  30.192  18.764   3.380
47937W        W19663  23.601   1.498   4.127
47938W        W19664  40.388  18.783   1.751
47939W        W19665  25.927  11.533   2.704
47940W        W19666  43.911  44.536  11.123
47941W        W19667  33.121  31.648   1.417
47942W        W19668  36.094  32.952   4.060
47943W        W19669   9.336  28.963   3.724
47944W        W19670  24.545  14.104  14.330
47945W        W19671  34.341  29.876  14.432
47946W        W19672  10.757  33.462  11.606
47947W        W19673  44.874  21.621   3.937
47948W        W19674  13.205  21.280   0.158
47949W        W19675   6.412  41.906   2.228
47950W        W19676  44.303  18.720   2.195
47951W        W19677  39.609  13.006   2.290
47952W        W19678  28.392  35.445   0.399
47953W        W19679   4.455   4.765   3.275
47954W        W19680  23.942  12.059   5.017
47955W        W19681  38.429  39.818  14.213
47956W        W19682  10.219  29.828   1.888
47957W        W19683  42.788  14.500   2.370
47958W        W19684  23.655  34.191  11.607
47959W        W19685  34.495   2.095  11.942
47960W        W19686  31.102  21.205  13.155
47961W        W19687  25.501  17.438   4.458
47962W        W19688  22.564  26.633   3.589
47963W        W19689  34.073  17.967   3.884
47964W        W19690   9.698  26.552  13.625
47965W        W19691  15.120  33.152   1.075
47966W        W19692  32.611  42.617   4.220
47967W        W19693   2.502  14.114  13.426
47968W        W19694  19.693   2.927  13.912
47969W        W19695  19.680  22.677  13.709
47970W        W19696  30.403  41.976   1.721
47971W        W19697   4.751  24.073   4.758
47972W        W19698  13.015  35.547   0.870
47973W        W19699  29.585   3.848   2.392
47974W        W19700  41.655  24.733  12.902
47975W        W19701  31.862  38.325   0.949
47976W        W19702  27.445  21.053  12.214
47977W        W19703  15.371  17.149   1.616
47978W        W19704  13.207  29.974   0.291
47979W        W19705   3.074   8.694  14.966
47980W        W19706   5.942  22.120   1.762
47981W        W19707  17.289  21.306   5.040
47982W        W19708  36.334  26.184   0.678
47983W        W19709  21.101  34.874  10.769
47984W        W19710  16.678   2.272   3.181
47985W        W19711  12.136  23.714  13.276
47986W        W19712  35.881  27.066   0.254
47987W        W19713  31.324  10.780  12.563
47988W        W19714  39.114  25.965   0.345
47989W        W19715  32.005  12.274   3.158
47990W        W19716  34.640  42.924   4.625
47991W        W19717   0.620  25.671   4.403
47992W        W19718   3.399  41.465  10.930
47993W        W19719  15.146  23.547   3.595
47994W        W19720   6.329   3.758   3.797
47995W        W19721   6.180  26.022   3.344
47996W        W19722  39.891  44.824  12.505
47997W        W19723  38.419  29.375   0.446
47998W        W19724  38.500  26.744  13.754
47999W        W19725   2.780   4.528  12.526
48000W        W19726  44.976  29.299   0.437
48001W        W19727  23.222   8.730  14.870
48002W        W19728  41.367  26.552   4.540
48003W        W19729  23.673  27.608   2.781
48004W        W19730  43.911  15.561   2.995
48005W        W19731  19.614  22.285   3.196
48006W        W19732  24.792  34.278   1.234
48007W        W19733  41.058   0.863   2.255
48008W        W19734  11.595  13.203   1.126
48009W        W19735  11.360  10.288  12.082
48010W        W19736   0.726  28.235  12.467
48011W        W19737  38.904  36.085   2.953
48012W        W19738  19.312  31.829   3.638
48013W        W19739  21.201  42.506   0.419
48014W        W19740  31.986   8.768   3.525
48015W        W19741  18.240  30.556  14.873
48016W        W19742  38.997   9.764  10.988
48017W        W19743  30.908  42.012   1.633
48018W        W19744  21.560  14.108  11.097
48019W        W19745  29.267  25.103   4.464
48020W        W19746   2.262  27.203  14.898
48021W        W19747  24.798  24.011  10.782
48022W        W19748  42.307  37.695  12.447
48023W        W19749  18.537   5.432  12.294
48024W        W19750  33.026  36.582   1.376
48025W        W19751   4.678  39.346  11.597
48026W        W19752  21.322  15.228   1.740
48027W        W19753  28.497  39.056  11.060
48028W        W19754  17.392  10.799  10.722
48029W        W19755   7.864  40.291   0.453
48030W        W19756  14.696  18.984   1.180
48031W        W19757   3.237  43.150   0.429
48032W        W19758  43.362  14.683  11.923
48033W        W19759  17.108   5.217  11.182
48034W        W19760  23.037  32.918  13.071
48035W        W19761  32.399  34.584  10.953
48036W        W19762   4.769   1.852   1.426
48037W        W19763  43.918  30.062   1.160
48038W        W19764  15.710   4.769  12.486
48039W        W19765   7.919  42.916  13.953
48040W        W19766  31.104  12.786   2.919
48041W        W19767  23.529  16.605  11.993
48042W        W19768  21.595  24.042  10.680
48043W        W19769  44.203   0.842   3.289
48044W        W19770   7.979  33.668   4.139
48045W        W19771  37.622  36.409  12.395
48046W        W19772   9.389  21.746   3.058
48047W        W19773  18.488   3.039   5.075
48048W        W19774   6.694  18.716   3.166
48049W        W19775  17.260  20.133   1.474
48050W        W19776   4.400  31.150   0.968
48051W        W19777  42.568   0.820  13.445
48052W        W19778   7.700  34.887   4.537
48053W        W19779   3.260  36.943  12.852
48054W        W19780   5.147  31.084   1.833
48055W        W19781   1.391  42.465   1.430
48056W        W19782  28.421   2.936  10.506
48057W        W19783  25.531  31.623  11.431
48058W        W19784  34.337  42.411  13.997
48059W        W19785  26.103  21.195  13.957
48060W        W19786   8.020  17.630   2.360
48061W        W19787  20.060  12.443  11.707
48062W        W19788   4.967   1.897  10.280
48063W        W19789   1.207   1.743  12.091
48064W        W19790  24.670   3.640   2.436
48065W        W19791  15.669  10.096  13.409
48066W        W19792  21.491  12.305   5.093
48067W        W19793  40.231  37.673   0.769
48068W        W19794  33.661  12.741   1.439
48069W        W19795  27.252  43.423  14.414
48070W        W19796  18.810  30.747  14.367
48071W        W19797  29.608  41.052  13.028
48072W        W19798  26.049  22.016  12.005
48073W        W19799  30.058  26.567   1.785
48074W        W19800   5.983  21.217   2.301
48075W        W19801  15.326  33.617  12.041
48076W        W19802  10.911  23.563  12.885
48077W        W19803  23.758  24.158   2.761
48078W        W19804  15.436   6.356   1.864
48079W        W19805   6.170  36.895   2.272
48080W        W19806   3.900   3.468  11.507
48081W        W19807  36.442  21.572   4.663
48082W        W19808   6.681  12.078  11.075
48083W        W19809  23.688  22.131   0.955
48084W        W19810  34.808  28.097   0.975
48085W        W19811  44.357  10.189   2.179
48086W        W19812   0.710  43.354  10.736
48087W        W19813  22.526  44.700  12.535
48088W        W19814  33.461  37.368  14.973
48089W        W19815   1.325  36.469   3.156
48090W        W19816  17.647  27.835  14.700
48091W        W19817  26.966  42.333   3.855
48092W        W19818  18.631  41.069   4.586
48093W        W19819  17.525   0.552   0.924
48094W        W19820  25.983  11.207   4.004
48095W        W19821   4.127  26.455   4.608
48096W        W19822  21.520  12.071   3.776
48097W        W19823  34.435   7.220   3.345
48098W        W19824   5.402  18.650   2.440
48099W        W19825  32.827  32.955   4.115
48100W        W19826  22.643  12.769  13.869
48101W        W19827  18.915   6.381  12.080
48102W        W19828  10.133   8.655  10.691
48103W        W19829  23.430   4.622  14.987
48104W        W19830  12.282  16.718  14.828
48105W        W19831  10.883  33.028   3.827
48106W        W19832  20.561  22.164  13.831
48107W        W19833  15.645  17.098  14.023
48108W        W19834  22.461  11.897   4.211
48109W        W19835  33.512  28.421  14.370
48110W        W19836  34.483  25.745  14.016
48111W        W19837  13.311  40.142  10.211
48112W        W19838   0.497  17.337  13.139
48113W        W19839  39.382  36.208   2.748
48114W        W19840   4.352  25.496  12.109
48115W        W19841  12.849  15.619  10.968
48116W        W19842  11.006  36.380  13.648
48117W        W19843  13.921  11.086  10.983
48118W        W19844   5.196  10.165  10.566
48119W        W19845  41.448  28.859   0.202
48120W        W19846  44.950   7.930   0.799
48121W        W19847   5.314   0.992  14.809
48122W        W19848  13.371  30.611   1.041
48123W        W19849  35.241   6.364   2.864
48124W        W19850  41.381  28.892  11.525
48125W        W19851  34.438  24.253   1.756
48126W        W19852  35.186  22.981   3.247
48127W        W19853  28.481  14.582  13.482
48128W        W19854  12.215  40.971   0.913
48129W        W19855   2.872   3.431  10.763
48130W        W19856   0.809  29.470  10.419
48131W        W19857   2.353  26.185  11.527
48132W        W19858  23.966  44.996  14.724
48133W        W19859  40.362  22.574  11.589
48134W        W19860  30.784   6.687  11.327
48135W        W19861  21.876  26.706   9.949
48136W        W19862  35.626  20.995   2.207
48137W        W19863  11.820   8.360   3.390
48138W        W19864  19.237   1.881   1.918
48139W        W19865  20.844  16.156   0.877
48140W        W19866  22.573   6.637   4.831
48141W        W19867  34.632   3.244   2.816
48142W        W19868   8.353   6.943   2.379
48143W        W19869  39.572  32.986   2.284
48144W        W19870  32.466  11.934   1.348
48145W        W19871   8.813  33.839  10.701
48146W        W19872   0.869  42.886   5.021
48147W        W19873   7.686   5.845  10.660
48148W        W19874  25.513  22.705   2.440
48149W        W19875  26.441   5.885  13.876
48150W        W19876  23.743  22.654  13.066
48151W        W19877  25.721  29.327  11.086
48152W        W19878   0.788  16.262   0.702
48153W        W19879   9.167  25.197  13.104
48154W        W19880  15.704   5.215   2.773
48155W        W19881  26.557  17.349   2.688
48156W        W19882   8.202  34.555   1.765
48157W        W19883  13.362  25.190  11.157
48158W        W19884  28.402  38.080  12.562
48159W        W19885  35.884  41.772  14.515
48160W        W19886  22.087   5.468  14.744
48161W        W19887   6.733  40.559   2.326
48162W        W19888  18.551  30.842   0.813
48163W        W19889  30.408  12.590   3.132
48164W        W19890  12.495   2.129   9.970
48165W        W19891  12.170  20.489   0.820
48166W        W19892  18.568  11.594  12.550
48167W        W19893  40.974  24.418   4.755
48168W        W19894   4.422  39.693  14.411
48169W        W19895  34.035  17.665  13.485
48170W        W19896  41.893  23.577   4.113
48171W        W19897   8.421  42.902  13.798
48172W        W19898   3.964  26.744  12.089
48173W        W19899   0.241   7.289  13.810
48174W        W19900  30.601  11.403   2.909
48175W        W19901   1.542  13.795  13.054
48176W        W19902   9.380  16.075   1.399
48177W        W19903   8.116  38.397  12.975
48178W        W19904  43.422  30.209   1.873
48179W        W19905  31.598   2.045   0.349
48180W        W19906   1.670  15.175  13.726
48181W        W19907  27.030  34.232   4.511
48182W        W19908  13.084   9.754  13.812
48183W        W19909  44.376  13.529  10.718
48184W        W19910  18.464   3.916   3.670
48185W        W19911  22.127  24.987   2.592
48186W        W19912   0.133   8.696  13.095
48187W        W19913  29.827  39.589   0.908
48188W        W19914   0.700  26.374  12.565
48189W        W19915  16.092  44.365  14.738
48190W        W19916  29.350  14.599   1.227
48191W        W19917  41.841  31.583  13.513
48192W        W19918  18.196  23.493   3.546
48193W        W19919  13.348  36.019   2.932
48194W        W19920   2.203  20.130  14.009
48195W        W19921  35.106  31.413   4.289
48196W        W19922  41.062  32.567   3.297
48197W        W19923  11.452  42.777  11.547
48198W        W19924   2.936   7.819  11.611
48199W        W19925   6.207  38.960   2.445
48200W        W19926   7.920   1.405  10.697
48201W        W19927  27.160   0.855  11.594
48202W        W19928  33.488  22.492   0.938
48203W        W19929  18.120  32.630   2.647
48204W        W19930  29.062  12.203  13.449
48205W        W19931   7.280  41.798  12.134
48206W        W19932  33.088  17.035  13.845
48207W        W19933  16.317  33.664  14.014
48208W        W19934  21.445  13.129  12.559
48209W        W19935  10.644   6.442  13.374
48210W        W19936  36.494  39.462  10.321
48211W        W19937  10.641  43.992  14.037
48212W        W19938  37.556   9.619   1.312
48213W        W19939  31.122  22.615  12.023
48214W        W19940  22.641  31.804   0.970
48215W        W19941  37.670  23.048  13.323
48216W        W19942   9.928  20.288  11.275
48217W        W19943   9.773  20.788  12.517
48218W        W19944  12.933  14.697  10.966
48219W        W19945  17.073  41.390  12.022
48220W        W19946  13.667  32.573   0.855
48221W        W19947   7.288  23.567   0.203
48222W        W19948  15.116   1.123  13.129
48223W        W19949  37.893  14.776  13.002
48224W        W19950  39.444  11.313   0.159
48225W        W19951  23.073  39.524  11.951
48226W        W19952  27.149   7.032   0.886
48227W        W19953  40.704  24.884  14.919
48228W        W19954   7.869  30.061  13.463
48229W        W19955  35.064  14.947   3.846
48230W        W19956  37.874  15.034   3.607
48231W        W19957  25.672   9.568  13.985
48232W        W19958  19.773  35.583   0.658
48233W        W19959  36.007   4.054   4.204
48234W        W19960  21.391   2.985   2.713
48235W        W19961  39.379  37.083   4.610
48236W        W19962  28.021  40.494  10.279
48237W        W19963  15.768  22.685   4.153
48238W        W19964  32.791  18.242  14.937
48239W        W19965  10.735  29.194   1.898
48240W        W19966   9.909  37.152   4.997
48241W        W19967  27.215   7.423   0.506
48242W        W19968   4.412  19.519   4.196
48243W        W19969   9.665  36.236   0.729
48244W        W19970   1.339  25.725  12.406
48245W        W19971   4.730  23.778   0.270
48246W        W19972   7.227   1.433   0.167
48247W        W19973   8.465  43.857   3.175
48248W        W19974  29.539  18.225   3.055
48249W        W19975   1.464  33.945   4.181
48250W        W19976  30.567   2.988   1.292
48251W        W19977  27.991  39.990  14.855
48252W        W19978  27.571  16.304   1.249
48253W        W19979  14.820  37.027  11.089
48254W        W19980  31.193  10.153  11.134
48255W        W19981  36.182  28.182  11.102
48256W        W19982  21.046  14.277   0.829
48257W        W19983  11.785  26.670   3.226
48258W        W19984  40.471   9.819  12.878
48259W        W19985  18.763  27.660   1.458
48260W        W19986  16.811   5.367  10.787
48261W        W19987   6.283  42.473  13.954
48262W        W19988  44.257  28.006  13.404
48263W        W19989  36.004  29.444  11.654
48264W        W19990   4.843  10.165  13.062
48265W        W19991   8.102  35.857   4.299
48266W        W19992  13.307   7.790   1.444
48267W        W19993  15.449  41.196   5.477
48268W        W19994   8.485  35.777   1.410
48269W        W19995  24.705  36.604   2.968
48270W        W19996   3.168  15.655   3.024
48271W        W19997   9.673  32.346   2.993
48272W        W19998  17.291  22.917  11.812
48273W        W19999  18.753   4.544  12.749
48274W        W20000  21.995   0.225   4.267
48275W        W20001  10.177   7.519  10.141
48276W        W20002   1.178  32.619   2.528
48277W        W20003  25.838  12.839   1.794
48278W        W20004  10.627  13.384   0.877
48279W        W20005  10.149  34.965   1.419
48280W        W20006  34.398  28.043   2.421
48281W        W20007   8.598  20.726   2.856
48282W        W20008   5.206   5.200   3.254
48283W        W20009   6.779  16.449  10.232
48284W        W20010  43.540  15.292   2.087
48285W        W20011  29.792  24.104   9.711
48286W        W20012  42.504   5.579  14.397
48287W        W20013   5.429  16.071   4.369
48288W        W20014  10.711  16.499  11.971
48289W        W20015  30.160  31.151   0.772
48290W        W20016   5.688  19.671  12.191
48291W        W20017   7.439  27.369  11.687
48292W        W20018  43.927  30.157  11.278
48293W        W20019  14.251  36.084  13.130
48294W        W20020  38.270   5.389   3.367
48295W        W20021  44.811   5.245  12.571
48296W        W20022  32.479   2.120   2.694
48297W        W20023  20.299  24.493  13.180
48298W        W20024  34.181   3.869  10.641
48299W        W20025   0.211  34.880  10.770
48300W        W20026  22.187  31.419  12.593
48301W        W20027  44.922  13.265   3.230
48302W        W20028  44.321  34.063   3.728
48303W        W20029  19.629  10.676   1.203
48304W        W20030   4.979  29.534  12.458
48305W        W20031  11.106  26.147  14.434
48306W        W20032  19.074  39.192   3.728
48307W        W20033   1.925  21.754  11.948
48308W        W20034  42.566   2.335  12.093
48309W        W20035  13.623  16.896   4.669
48310W        W20036  43.765  32.139   2.259
48311W        W20037  32.879   9.206   2.251
48312W        W20038  35.473  10.582   3.106
48313W        W20039  26.537  32.343   3.684
48314W        W20040  10.213  35.530   0.434
48315W        W20041   3.913  14.914  12.032
48316W        W20042  10.540  23.433   1.326
48317W        W20043  13.915  25.234  10.638
48318W        W20044   2.885  28.566  14.584
48319W        W20045  14.941  38.155   0.858
48320W        W20046  17.678  42.455  11.024
48321W        W20047   7.183   1.957   4.037
48322W        W20048  33.429   0.780  10.604
48323W        W20049   1.824   1.572  13.229
48324W        W20050   9.220  24.965  14.485
48325W        W20051  25.617  28.812  13.256
48326W        W20052  41.875  26.486   4.636
48327W        W20053   1.751  12.693   3.381
48328W        W20054  24.757  34.833  12.451
48329W        W20055  40.483   4.459  10.412
48330W        W20056  36.378  35.983   1.407
48331W        W20057   5.622  39.567   3.182
48332W        W20058  18.005  27.162  10.711
48333W        W20059  23.198  17.711  11.183
48334W        W20060  34.058   2.214  11.305
48335W        W20061  44.321  29.487   4.614
48336W        W20062  34.553  19.791  13.868
48337W        W20063  12.572   9.788   1.898
48338W        W20064  42.845   6.382  14.621
48339W        W20065  22.402  33.667  14.020
48340W        W20066  32.309  30.459  13.149
48341W        W20067   2.498  20.302   2.641
48342W        W20068  18.584  21.209   2.290
48343W        W20069  25.300   3.218  13.080
48344W        W20070  24.554   2.795   3.437
48345W        W20071  36.917  20.231   2.026
48346W        W20072  16.793  44.740   4.749
48347W        W20073   3.970  36.004  13.326
48348W        W20074  37.093   0.158   4.874
48349W        W20075  14.913  10.657  12.087
48350W        W20076  30.326  33.053   2.969
48351W        W20077  25.481  20.670  13.537
48352W        W20078   9.692  15.165   1.831
48353W        W20079   7.925  13.230  12.917
48354W        W20080  20.357  14.532  11.197
48355W        W20081  23.269  28.947   0.757
48356W        W20082  22.270   8.363  13.569
48357W        W20083   9.890  17.596   4.579
48358W        W20084  40.578  10.238   4.231
48359W        W20085   3.730  35.376   2.138
48360W        W20086   0.298  25.073  11.170
48361W        W20087  19.711   4.329   0.574
48362W        W20088  36.070  13.671   1.246
48363W        W20089  38.188  41.375   0.032
48364W        W20090  31.491  31.848   3.647
48365W        W20091  16.760   7.727   1.295
48366W        W20092  22.743  30.504   1.274
48367W        W20093  17.222  11.261  12.675
48368W        W20094  29.737  40.517   1.604
48369W        W20095   9.716  33.251  10.570
48370W        W20096  43.335  37.962  11.580
48371W        W20097  10.810  41.058  11.626
48372W        W20098  28.125   6.677  10.579
48373W        W20099  30.667  23.821  14.138
48374W        W20100  30.348  34.024   3.190
48375W        W20101  36.151  16.282  12.332
48376W        W20102  32.979  14.918   3.173
48377W        W20103   5.145  40.274   4.465
48378W        W20104  21.566  15.701   2.191
48379W        W20105   0.227   0.758   1.761
48380W        W20106   0.342   4.987  13.376
48381W        W20107   5.613  18.112   3.140
48382W        W20108  21.563  30.162  12.044
48383W        W20109  28.276  39.810  13.481
48384W        W20110  39.544   8.419  13.219
48385W        W20111  17.991  33.075  10.684
48386W        W20112  33.535   7.473   3.362
48387W        W20113  23.169  19.144   3.152
48388W        W20114  24.194  11.617   2.407
48389W        W20115   3.405  26.023   0.750
48390W        W20116  22.595  11.908  12.718
48391W        W20117  15.653  13.577   1.366
48392W        W20118  20.799   4.341  12.751
48393W        W20119   3.235  10.371   0.741
48394W        W20120  37.543  44.442  13.526
48395W        W20121  38.927  18.296  12.011
48396W        W20122  37.485  10.651  13.721
48397W        W20123  16.645  12.823  12.087
48398W        W20124   1.200  34.990  14.827
48399W        W20125  31.536   3.951  11.595
48400W        W20126  26.476  36.513  13.060
48401W        W20127  10.398  44.056   1.239
48402W        W20128  20.476  26.234   4.185
48403W        W20129  23.970  27.548   2.356
48404W        W20130   5.337  36.590   4.574
48405W        W20131  33.604  37.598  11.776
48406W        W20132  43.988  30.554   0.961
48407W        W20133  37.971  36.890   3.802
48408W        W20134  25.372   7.108   2.852
48409W        W20135  44.342  18.493  14.481
48410W        W20136  41.884  16.213   4.824
48411W        W20137  25.589  22.206  12.176
48412W        W20138   4.691  25.234   2.660
48413W        W20139  25.813  21.208   0.832
48414W        W20140  31.720  14.714  13.440
48415W        W20141  14.778   3.418   0.680
48416W        W20142  33.081  16.285   2.955
48417W        W20143  42.718  35.330  13.477
48418W        W20144   3.116  21.687  14.626
48419W        W20145  32.695  37.469   2.837
48420W        W20146  17.889  28.139   4.423
48421W        W20147  37.230  10.653   3.877
48422W        W20148   5.887  35.815   0.793
48423W        W20149  21.276  23.292  14.054
48424W        W20150  28.991  18.374   2.302
48425W        W20151  12.159  39.097  11.711
48426W        W20152  21.310  30.118  14.320
48427W        W20153   7.349   8.330  14.115
48428W        W20154  34.392  18.215  13.926
48429W        W20155  36.390  33.190   2.457
48430W        W20156   8.901  27.533   2.970
48431W        W20157  10.614   1.284  12.499
48432W        W20158  30.431  28.326  13.814
48433W        W20159  30.137  22.746  12.463
48434W        W20160  12.611  29.277  14.506
48435W        W20161   7.233  40.896  11.578
48436W        W20162   6.849  12.003   4.157
48437W        W20163  25.750   3.279   4.579
48438W        W20164  20.179   9.244  12.649
48439W        W20165  24.703   2.356   3.189
48440W        W20166   2.391  25.245   2.567
48441W        W20167   8.473   2.232  12.660
48442W        W20168   2.900  39.890  12.152
48443W        W20169  10.369  44.267  10.931
48444W        W20170   4.809  43.293  12.845
48445W        W20171  22.639  38.615   1.257
48446W        W20172  43.283  28.759  12.439
48447W        W20173  12.059  29.545  13.289
48448W        W20174  19.226  12.941   1.282
48449W        W20175  39.232  17.236   2.379
48450W        W20176  38.268  44.368   4.847
48451W        W20177  33.111  23.209   3.284
48452W        W20178   8.899  31.369  12.967
48453W        W20179  44.039  15.015  12.390
48454W        W20180  18.730  40.642  10.782
48455W        W20181  36.157  41.081   0.777
48456W        W20182  43.068  42.297   0.811
48457W        W20183  38.819  29.718   4.563
48458W        W20184  23.184  19.047  14.302
48459W        W20185  19.584  19.310   4.324
48460W        W20186  16.289  12.731  12.947
48461W        W20187  38.025   8.279  11.656
48462W        W20188   1.671  10.584   5.118
48463W        W20189  33.830  37.060  11.472
48464W        W20190   7.903  42.258   3.027
48465W        W20191  14.398  43.947  14.440
48466W        W20192   7.752   9.555  11.201
48467W        W20193  13.621  43.985  14.865
48468W        W20194  32.523  27.675  12.537
48469W        W20195   1.319  13.611  13.485
48470W        W20196  25.111   7.791   3.118
48471W        W20197   3.719   5.860  13.576
48472W        W20198  25.888  38.621   4.386
48473W        W20199  33.908  42.238  14.936
48474W        W20200  13.827  12.135  11.082
48475W        W20201  37.783   1.835   0.882
48476W        W20202  20.636  30.692   0.802
48477W        W20203  25.723   0.103   3.532
48478W        W20204   4.272   2.157   4.076
48479W        W20205  19.360  31.482   3.241
48480W        W20206  20.766  38.791   2.838
48481W        W20207  28.701  15.786   0.098
48482W        W20208  37.450  40.993  13.110
48483W        W20209  41.965  23.444  12.032
48484W        W20210  14.835   9.032   2.611
48485W        W20211  24.177  36.110   3.278
48486W        W20212   4.229  14.232   4.041
48487W        W20213  27.456  40.076   2.701
48488W        W20214   0.898  12.560   4.365
48489W        W20215  22.675  37.289   2.056
48490W        W20216  23.958  22.472   4.257
48491W        W20217  17.851  34.079   0.209
48492W        W20218  32.203  11.567   3.471
48493W        W20219  15.741  19.317   1.683
48494W        W20220   5.071   5.865  11.277
48495W        W20221  22.958   8.202  12.936
48496W        W20222  28.171  36.424  11.581
48497W        W20223  17.886   9.327   4.652
48498W        W20224  35.148  18.530  14.721
48499W        W20225   7.548   6.298  12.010
48500W        W20226  35.001  16.180   4.225
48501W        W20227   1.658  17.523   1.207
48502W        W20228  17.771   4.774  13.536
48503W        W20229  13.692  21.178  13.316
48504W        W20230  10.270   8.913  11.529
48505W        W20231  15.389   8.377  12.766
48506W        W20232  11.691   4.722  14.844
48507W        W20233  32.457  36.108   2.910
48508W        W20234  32.583  28.622  12.616
48509W        W20235  32.162  12.538  10.611
48510W        W20236  18.957   9.328   4.553
48511W        W20237  17.713  35.918   3.645
48512W        W20238   1.172   2.172   2.281
48513W        W20239  20.300   3.042  14.480
48514W        W20240  43.973  20.638  12.934
48515W        W20241  10.833  18.989  12.199
48516W        W20242  33.138  25.503   2.742
48517W        W20243  42.026  22.735   9.946
48518W        W20244  28.231   8.669  10.779
48519W        W20245  26.204  38.426   2.307
48520W        W20246  25.184  11.391   0.720
48521W        W20247   2.047  11.113   1.365
48522W        W20248  24.950  33.461   4.897
48523W        W20249   1.522  32.432   0.222
48524W        W20250  32.097  10.716   3.918
48525W        W20251  36.930  10.450   4.579
48526W        W20252  26.457   9.463   3.577
48527W        W20253  28.022  29.006  13.346
48528W        W20254   1.779  13.347  10.553
48529W        W20255  10.651  34.969   3.771
48530W        W20256  12.636  14.149  12.537
48531W        W20257  27.491  27.687  11.622
48532W        W20258   4.280  11.797  12.850
48533W        W20259  19.912  13.666  14.869
48534W        W20260   2.307  14.663   4.739
48535W        W20261  41.504  32.474   3.020
48536W        W20262   4.286  25.205   1.210
48537W        W20263  18.626   2.310   4.568
48538W        W20264  32.375   8.946  10.721
48539W        W20265   8.373  32.503  12.471
48540W        W20266  26.304  22.739   4.350
48541W        W20267  24.274  12.138   2.306
48542W        W20268  34.934   1.400   4.654
48543W        W20269   8.914  12.116   3.828
48544W        W20270  38.310   1.354   2.708
48545W        W20271  29.987  29.892  12.449
48546W        W20272  11.173  28.930  11.949
48547W        W20273  24.859  26.592   4.521
48548W        W20274  41.258   5.901  11.169
48549W        W20275  19.880   6.564   3.158
48550W        W20276  38.017  37.388  11.048
48551W        W20277  42.433  41.963   4.536
48552W        W20278  44.877  26.866   0.036
48553W        W20279  28.214   3.741   1.619
48554W        W20280   5.980  11.296  11.091
48555W        W20281  42.972  44.422   4.838
48556W        W20282  30.210  36.490   4.438
48557W        W20283   5.046  19.701   0.939
48558W        W20284  30.127  41.422   0.701
48559W        W20285  20.997  18.795   3.259
48560W        W20286   2.165  24.923  11.154
48561W        W20287  13.597  39.355   4.429
48562W        W20288  13.145  30.902   4.145
48563W        W20289  35.514   0.238  14.017
48564W        W20290  26.011  18.254   1.722
48565W        W20291  10.902   8.711   0.693
48566W        W20292  26.057  26.606   4.215
48567W        W20293  17.224  28.371   0.463
48568W        W20294  11.756  37.332  13.391
48569W        W20295  23.133  12.917  13.733
48570W        W20296  34.075  23.677   0.292
48571W        W20297  41.406  17.699  12.323
48572W        W20298  38.896   5.408  11.950
48573W        W20299  20.524  12.632  14.904
48574W        W20300  13.614   8.165   3.652
48575W        W20301  10.635  34.610   0.836
48576W        W20302  22.596  28.873  10.183
48577W        W20303  20.388  27.920  12.188
48578W        W20304  34.027  29.971   3.918
48579W        W20305   0.419  40.986   0.449
48580W        W20306  11.112  35.832   0.313
48581W        W20307  33.937  27.202   1.717
48582W        W20308   8.289  23.499   1.783
48583W        W20309  12.754  20.820   4.514
48584W        W20310  10.438   6.973  11.612
48585W        W20311  18.051   7.088   0.118
48586W        W20312  26.227   8.623  13.551
48587W        W20313   4.493  17.855  12.638
48588W        W20314  39.034  11.982   2.883
48589W        W20315  27.587  14.265  14.961
48590W        W20316   3.320  10.131   1.198
48591W        W20317  11.074  24.047   2.960
48592W        W20318  24.484  36.548   0.254
48593W        W20319  32.183  15.160   3.996
48594W        W20320  19.242  35.489  12.020
48595W        W20321  44.465  14.523   1.869
48596W        W20322  22.024  12.710   0.438
48597W        W20323  21.587  36.342  14.540
48598W        W20324  37.271  24.146   3.623
48599W        W20325   2.613   8.863   3.956
48600W        W20326   4.898  43.923  12.404
48601W        W20327  44.423  28.916   2.848
48602W        W20328  36.105  20.972  14.047
48603W        W20329  35.671  23.784  11.987
48604W        W20330  21.263  31.347   1.755
48605W        W20331  22.437   2.684   1.271
48606W        W20332  32.184  14.136   4.054
48607W        W20333  19.777  21.042  11.967
48608W        W20334   5.740  13.073   3.789
48609W        W20335  35.607  27.509   1.928
48610W        W20336  35.975  41.256   4.834
48611W        W20337  24.655  15.341  12.602
48612W        W20338  43.673  40.808   3.029
48613W        W20339  17.949  32.887  12.510
48614W        W20340  13.798  38.398  14.542
48615W        W20341  40.597  21.463  12.881
48616W        W20342  30.129  30.454  14.066
48617W        W20343  11.654  30.964  14.338
48618W        W20344  20.055  22.042  13.854
48619W        W20345  14.542  11.498   3.356
48620W        W20346   3.989  26.781  13.358
48621W        W20347   8.207  25.892  10.943
48622W        W20348   8.084  29.973   0.347
48623W        W20349   3.434   0.960  11.772
48624W        W20350  23.670   3.774   1.523
48625W        W20351  10.821  29.433  11.141
48626W        W20352  40.063  34.573   2.304
48627W        W20353  16.223  20.036   1.675
48628W        W20354  41.500  31.718   1.789
48629W        W20355  42.351  28.915  11.595
48630W        W20356  19.698  39.794  13.993
48631W        W20357   1.118  26.652  12.577
48632W        W20358  23.016  21.605   1.784
48633W        W20359  42.777  42.911   1.432
48634W        W20360   0.864  27.347   3.252
48635W        W20361  37.475  17.427   3.586
48636W        W20362  20.036   4.988  12.027
48637W        W20363  10.760  26.516   4.122
48638W        W20364  37.471  22.766  11.074
48639W        W20365  11.312   9.390   4.115
48640W        W20366  17.149  10.363   4.473
48641W        W20367  44.009   4.516   3.121
48642W        W20368  11.168  30.817   1.216
48643W        W20369  29.685  24.696   0.944
48644W        W20370  24.075  39.931  13.969
48645W        W20371  39.894   0.836   0.178
48646W        W20372  12.853   7.112  13.159
48647W        W20373  29.011  42.240  11.539
48648W        W20374  24.419   8.578   2.371
48649W        W20375  12.197  19.133   0.490
48650W        W20376  14.844  38.799  12.057
48651W        W20377  19.309  29.612   3.077
48652W        W20378  29.237  20.830   1.834
48653W        W20379  24.196  37.449  14.970
48654W        W20380  34.987  31.869   3.592
48655W        W20381  21.289  35.927  14.322
48656W        W20382   2.531  43.907   1.347
48657W        W20383   9.691   0.870   0.346
48658W        W20384   6.271  44.686   0.866
48659W        W20385  31.016   7.814  14.451
48660W        W20386  35.907  42.481   1.977
48661W        W20387  44.234  14.869  11.905
48662W        W20388  19.168  22.534   4.921
48663W        W20389  14.050  30.114   2.288
48664W        W20390  25.952  20.776  13.413
48665W        W20391  15.205  36.895  12.049
48666W        W20392  32.605  44.198   2.337
48667W        W20393   5.723   6.635   3.264
48668W        W20394  24.788  12.183   0.638
48669W        W20395   8.293  32.551   2.965
48670W        W20396   5.238  18.629   0.663
48671W        W20397   3.900  19.686  12.086
48672W        W20398  12.313  17.131  14.089
48673W        W20399   3.895   2.927   4.125
48674W        W20400  14.812  30.745  13.542
48675W        W20401  21.155  26.869   2.512
48676W        W20402  35.884  28.247   0.776
48677W        W20403  31.558  13.131   0.402
48678W        W20404  17.387  40.410  13.399
48679W        W20405  44.163  20.019  14.958
48680W        W20406  31.409  16.160  13.823
48681W        W20407   9.221  43.403   4.600
48682W        W20408  15.383  36.950   0.195
48683W        W20409  30.746   4.154   0.897
48684W        W20410  37.605   8.350  13.367
48685W        W20411  40.792  35.859   4.845
48686W        W20412   8.739  22.130  14.235
48687W        W20413  35.257   5.434  11.692
48688W        W20414  28.773  11.229   0.690
48689W        W20415  18.101   0.934   2.984
48690W        W20416  22.863   9.796  14.193
48691W        W20417  22.658  31.583   2.653
48692W        W20418  31.136  22.340  13.883
48693W        W20419  42.309  33.820   3.898
48694W        W20420  32.324  18.125  10.976
48695W        W20421  15.816  26.490  10.693
48696W        W20422   1.464  30.413  11.850
48697W        W20423  36.366  37.110   4.127
48698W        W20424   4.271  29.390  11.174
48699W        W20425   7.052  40.344   5.059
48700W        W20426  38.658  30.203   4.053
48701W        W20427   5.204  12.918   2.846
48702W        W20428   6.277  40.329   4.997
48703W        W20429  26.643  11.564   0.305
48704W        W20430   4.517   5.553  10.079
48705W        W20431  31.641  24.231  12.756
48706W        W20432   3.246  30.132  10.452
48707W        W20433  20.535  15.251   3.005
48708W        W20434  13.043  36.458   4.136
48709W        W20435  12.257  12.886  14.354
48710W        W20436   8.858  16.577   2.350
48711W        W20437  28.152  28.483  12.301
48712W        W20438  43.607  18.144  12.921
48713W        W20439  12.530  16.831  12.980
48714W        W20440   6.367  16.035   0.412
48715W        W20441   9.919  24.676  12.909
48716W        W20442  19.128  15.151  11.925
48717W        W20443  31.071  32.003  11.904
48718W        W20444  16.439  33.750   1.705
48719W        W20445  19.095  23.048  11.871
48720W        W20446  44.843  20.016  12.801
48721W        W20447   8.659  34.403   3.631
48722W        W20448  40.277  23.166   4.588
48723W        W20449  18.594  31.029  12.425
48724W        W20450  38.488  40.566   0.351
48725W        W20451  18.571  20.596  14.969
48726W        W20452  29.909  25.559   5.436
48727W        W20453   1.444  14.896   1.895
48728W        W20454  22.434  13.832  12.847
48729W        W20455  36.647  39.050  13.941
48730W        W20456  33.935   6.296   4.803
48731W        W20457  22.044  32.252   1.416
48732W        W20458  20.726  11.919   4.157
48733W        W20459   0.337  13.080   1.238
48734W        W20460  26.647   7.210   0.807
48735W        W20461  30.601  41.494   5.069
48736W        W20462  32.098  27.780   3.317
48737W        W20463  27.140   9.562  11.224
48738W        W20464  39.937  15.129   4.181
48739W        W20465   6.780  11.898  14.305
48740W        W20466  40.799   4.159  13.380
48741W        W20467   6.851  23.579   2.022
48742W        W20468  15.434  31.605  11.032
48743W        W20469  44.407   8.820   2.735
48744W        W20470  37.851  34.851   1.682
48745W        W20471  14.730  15.122   3.717
48746W        W20472   2.664   1.880  14.683
48747W        W20473  15.557  15.639   2.686
48748W        W20474  11.391  20.255  12.652
48749W        W20475  26.785  42.784  14.836
48750W        W20476  36.878  30.168   0.855
48751W        W20477  28.583   2.376   0.811
48752W        W20478  15.251  26.116   2.325
48753W        W20479  10.133  39.258  11.609
48754W        W20480  41.701  33.557  13.450
48755W        W20481  22.701  10.676   2.694
48756W        W20482  33.062  12.194  10.695
48757W        W20483  17.235  30.362   3.404
48758W        W20484  28.605  38.155  11.511
48759W        W20485   0.387  28.652   0.079
48760W        W20486  38.282   0.505  12.981
48761W        W20487   7.532  11.572   1.303
48762W        W20488  36.193  33.286  10.128
48763W        W20489  22.079  24.440  10.256
48764W        W20490  29.232  37.129  12.814
48765W        W20491   4.363   4.131   5.527
48766W        W20492   8.218  40.597   0.683
48767W        W20493   5.401   3.329  12.517
48768W        W20494  21.549  18.291  13.953
48769W        W20495  39.561   4.248  11.500
48770W        W20496   7.389  21.110   1.238
48771W        W20497   6.481   2.468  14.627
48772W        W20498  32.462   9.071  11.547
48773W        W20499  31.516  29.518  11.923
48774W        W20500  21.552  26.558   0.055
48775W        W20501  44.355  34.410   3.120
48776W        W20502  35.346  21.244   1.836
48777W        W20503  12.056  37.795   1.431
48778W        W20504   4.911  39.707   0.719
48779W        W20505  36.855  33.078   0.389
48780W        W20506  19.247  25.383   3.966
48781W        W20507  36.426  15.322  11.391
48782W        W20508  32.619  11.645   1.992
48783W        W20509  21.563   8.824  12.242
48784W        W20510  22.324  34.528   1.704
48785W        W20511  18.062  12.310   0.210
48786W        W20512   9.207  22.950  10.666
48787W        W20513  23.675  16.158  11.076
48788W        W20514  42.362  24.461   2.297
48789W        W20515  40.045  16.836  11.977
48790W        W20516  38.593  20.052  11.038
48791W        W20517  36.942  40.367   4.710
48792W        W20518  28.221  31.410  11.731
48793W        W20519  20.505  16.427   3.133
48794W        W20520  22.687  17.364   4.665
48795W        W20521  30.168  32.108   3.427
48796W        W20522  36.561   8.806   1.280
48797W        W20523  17.130  16.118  10.559
48798W        W20524  11.809  25.044   1.768
48799W        W20525  25.828   1.464   2.046
48800W        W20526   8.563  35.042  10.196
48801W        W20527  12.370  43.574  11.987
48802W        W20528  26.180   0.010   3.334
48803W        W20529   6.306   5.645  11.921
48804W        W20530  33.686  14.629   3.421
48805W        W20531  20.277  26.203  14.461
48806W        W20532  38.415   1.184  14.316
48807W        W20533   1.803   3.209  12.397
48808W        W20534  42.991  13.285   2.681
48809W        W20535  15.640  37.851  13.829
48810W        W20536   6.905  19.950  13.473
48811W        W20537  19.636   4.272   1.069
48812W        W20538  20.296  35.383   0.933
48813W        W20539   2.696  14.881   2.211
48814W        W20540   2.738  24.364  11.529
48815W        W20541  39.001  37.559  12.597
48816W        W20542   4.936  25.651   2.854
48817W        W20543  35.377  38.761   3.253
48818W        W20544  41.772  16.639  14.490
48819W        W20545  29.204   6.804   3.402
48820W        W20546   2.714   7.975  14.351
48821W        W20547  31.228  15.403   4.314
48822W        W20548   0.886   3.939   4.416
48823W        W20549  11.602  33.899   2.274
48824W        W20550   2.219  18.981  14.956
48825W        W20551  40.452  24.178  11.857
48826W        W20552   5.424  14.604  13.075
48827W        W20553   3.021  23.741   1.850
48828W        W20554  28.148  18.047   3.318
48829W        W20555  27.892  16.745  14.443
48830W        W20556  42.892  33.398   1.705
48831W        W20557  36.603   1.477  11.112
48832W        W20558  40.397  12.200   1.426
48833W        W20559   2.442  41.823  13.772
48834W        W20560   2.305  24.007   0.692
48835W        W20561  43.445  38.319   1.773
48836W        W20562  25.711   1.294  13.059
48837W        W20563  39.995  13.305   0.886
48838W        W20564   5.727  40.018  11.263
48839W        W20565  43.893  39.276   3.045
48840W        W20566  36.322  22.963   2.490
48841W        W20567   5.403  40.522   1.303
48842W        W20568  35.382  40.458   2.708
48843W        W20569  25.169  25.046   1.682
48844W        W20570  42.936  37.862   1.018
48845W        W20571  19.590  41.212   2.359
48846W        W20572  11.617  21.529  13.022
48847W        W20573  18.689  40.426  14.735
48848W        W20574  43.244  32.007  12.687
48849W        W20575   2.480  23.626   1.944
48850W        W20576  25.095  38.579  12.185
48851W        W20577  30.094  32.055  14.678
48852W        W20578   2.014  38.061   2.730
48853W        W20579   9.560  11.197   3.740
48854W        W20580  26.706  22.147   1.777
48855W        W20581  43.033  36.877  13.420
48856W        W20582   0.472  21.662   4.696
48857W        W20583  10.481   1.412   0.279
48858W        W20584   6.948  11.280  13.315
48859W        W20585  36.476  33.501  14.322
48860W        W20586   7.272  34.829   5.193
48861W        W20587   9.196  27.928  10.795
48862W        W20588   7.629  36.503   0.673
48863W        W20589  38.533  25.180   4.212
48864W        W20590  31.175   4.995   4.530
48865W        W20591   5.765  35.969   1.974
48866W        W20592  39.273  26.055   0.836
48867W        W20593  30.190  25.773   0.340
48868W        W20594  28.164   1.643  10.473
48869W        W20595   8.386  35.039  11.537
48870W        W20596  41.580   6.433  11.991
48871W        W20597   4.309   4.788   0.063
48872W        W20598   4.263  24.218   4.691
48873W        W20599   6.684  39.555   2.301
48874W        W20600   4.967   2.966  10.692
48875W        W20601   7.364  27.075   3.168
48876W        W20602  14.352  16.025  13.795
48877W        W20603  23.169  34.034  12.356
48878W        W20604  39.022  28.172   2.982
48879W        W20605  31.382  18.742  12.404
48880W        W20606  41.400   6.437  13.483
48881W        W20607  13.337  40.221  12.415
48882W        W20608   5.271  12.630  13.948
48883W        W20609  39.691   4.984   0.378
48884W        W20610   9.284  28.637   2.340
48885W        W20611  39.941  43.877  12.352
48886W        W20612  24.100  43.124   3.813
48887W        W20613  39.149  41.761   4.718
48888W        W20614   1.800  21.378  10.571
48889W        W20615  40.840  30.136  14.280
48890W        W20616  20.082  25.787  13.145
48891W        W20617  27.956  11.140   0.010
48892W        W20618   6.358   9.727  14.506
48893W        W20619   5.628  40.655  12.064
48894W        W20620  22.041  42.425   4.411
48895W        W20621   0.798  29.355   1.439
48896W        W20622  14.410  20.717   3.644
48897W        W20623  25.869  31.939   0.489
48898W        W20624  33.162  37.402  13.265
48899W        W20625  18.969  29.963  14.549
48900W        W20626  22.301  35.122  10.387
48901W        W20627   7.172   5.153  10.691
48902W        W20628  21.950  40.872  14.030
48903W        W20629  20.641   1.983  13.821
48904W        W20630  29.435  10.424   4.553
48905W        W20631  44.882  21.218  13.955
48906W        W20632  16.052  15.101  13.545
48907W        W20633  37.710  17.669   4.296
48908W        W20634  16.779  31.901  14.237
48909W        W20635  35.538   3.933   4.016
48910W        W20636   7.920  21.535  14.522
48911W        W20637  18.367   2.717  14.319
48912W        W20638  39.438  27.960  14.270
48913W        W20639  15.570  39.376   0.308
48914W        W20640  34.502  26.756   1.222
48915W        W20641   3.381  19.665   2.657
48916W        W20642  26.807  10.824   2.264
48917W        W20643  30.872  36.286  13.448
48918W        W20644  25.411   7.879  11.563
48919W        W20645  31.068  24.896   3.704
48920W        W20646  26.092  40.260   3.911
48921W        W20647  30.615   1.345  14.613
48922W        W20648  35.677  17.757  14.560
48923W        W20649  33.995  19.565   2.929
48924W        W20650  13.557  42.824   3.765
48925W        W20651   5.942  24.696   0.359
48926W        W20652  43.990  36.689   4.785
48927W        W20653  32.364  25.079   2.770
48928W        W20654   5.258  41.945   2.945
48929W        W20655  16.815   2.973  14.516
48930W        W20656  40.419   8.207   2.385
48931W        W20657  39.984  21.824  10.379
48932W        W20658  42.542   7.216   3.174
48933W        W20659   7.634   9.235   3.239
48934W        W20660  25.709  35.133  14.867
48935W        W20661   5.131  27.431  11.627
48936W        W20662  32.897  40.841  11.425
48937W        W20663  19.564  14.469   0.995
48938W        W20664  13.786  10.350   1.354
48939W        W20665   0.542   8.262   0.756
48940W        W20666  21.815  43.279   2.787
48941W        W20667  35.865  32.605  13.851
48942W        W20668  31.846   6.758  12.933
48943W        W20669  19.328  19.756   4.240
48944W        W20670  31.591  28.026  11.609
48945W        W20671  10.445  26.561   3.679
48946W        W20672   8.202   4.984  11.012
48947W        W20673  25.994  18.999   3.219
48948W        W20674   3.747  42.804  12.545
48949W        W20675  32.635  33.121   2.736
48950W        W20676  18.002  26.825   0.969
48951W        W20677  14.216  12.750  12.777
48952W        W20678  31.667  17.109  11.613
48953W        W20679  28.172  44.282   0.580
48954W        W20680  25.068  11.815   0.373
48955W        W20681  43.731   5.277  14.003
48956W        W20682  12.525   6.134  10.959
48957W        W20683  31.946  15.345   1.976
48958W        W20684  30.502  23.444   2.001
48959W        W20685   7.849  15.713  12.154
48960W        W20686  16.571  34.996   1.587
48961W        W20687  20.591  19.597   3.141
48962W        W20688  29.089  13.399   3.855
48963W        W20689  17.528   1.141   1.854
48964W        W20690  20.526  23.593  12.522
48965W        W20691   7.038  42.773   4.525
48966W        W20692  43.410  31.058   0.833
48967W        W20693  43.022  37.782  13.561
48968W        W20694   5.241  11.184  12.651
48969W        W20695   3.507  20.340  11.571
48970W        W20696  26.572  26.665  14.030
48971W        W20697  12.184  31.359  14.938
48972W        W20698   4.956   0.750  11.038
48973W        W20699   6.105  26.260   0.746
48974W        W20700  29.085   5.742   4.588
48975W        W20701  33.468  34.411   3.553
48976W        W20702  31.283  27.130   5.613
48977W        W20703  39.580  23.646   3.633
48978W        W20704  12.831   2.440  14.335
48979W        W20705  17.829  28.085   2.842
48980W        W20706  40.417  41.587   4.945
48981W        W20707  21.138  31.915  12.399
48982W        W20708  42.465   4.651  12.569
48983W        W20709  25.558  11.920   4.196
48984W        W20710   1.399  41.838   1.229
48985W        W20711  14.499  36.872  11.462
48986W        W20712  32.415  43.626   1.511
48987W        W20713  16.867   8.874   2.561
48988W        W20714  29.944  21.023   0.013
48989W        W20715   8.799  33.564  11.119
48990W        W20716   0.850  38.293   4.523
48991W        W20717  12.701   3.037   2.387
48992W        W20718  30.064  44.968   0.741
48993W        W20719  33.390   5.353  13.842
48994W        W20720  43.403  37.188   3.537
48995W        W20721  37.096  17.291  10.750
48996W        W20722  32.555  41.880  11.939
48997W        W20723  26.727  13.531  10.959
48998W        W20724   8.218  34.803  11.080
48999W        W20725  30.628  26.038  14.461
49000W        W20726  19.788  24.032  11.452
49001W        W20727   2.421  13.914  11.403
49002W        W20728  31.588  40.358   2.256
49003W        W20729  25.654   1.191   0.379
49004W        W20730  28.246  44.010  14.741
49005W        W20731   5.609  17.232  10.570
49006W        W20732  13.826  43.654   4.471
49007W        W20733  24.109   0.616  10.594
49008W        W20734   5.632  40.029  13.992
49009W        W20735  19.211  23.625   2.038
49010W        W20736   6.266  14.593   3.487
49011W        W20737  13.286  39.587  14.314
49012W        W20738  40.090  42.459  10.724
49013W        W20739  20.010  23.001  10.815
49014W        W20740   1.762  17.925   0.401
49015W        W20741  10.390   7.313   2.962
49016W        W20742  19.779  27.033   2.816
49017W        W20743  11.884   3.156  14.908
49018W        W20744  33.598  42.451  11.043
49019W        W20745  24.497  10.366   2.792
49020W        W20746  36.405  22.195   0.468
49021W        W20747  20.774  30.632   3.726
49022W        W20748   6.863  16.854   0.360
49023W        W20749  27.791  27.605  13.733
49024W        W20750   7.163  12.106  10.726
49025W        W20751  17.830  16.802   1.325
49026W        W20752   8.576  23.883   0.951
49027W        W20753   6.761  34.695   0.484
49028W        W20754  27.173  27.243  11.649
49029W        W20755   4.043  17.704   3.927
49030W        W20756  32.891  43.146   2.865
49031W        W20757  35.571  25.919   4.608
49032W        W20758  29.058   3.273   3.038
49033W        W20759  42.990  27.199  13.848
49034W        W20760  44.457  28.617   3.271
49035W        W20761   4.459  10.288   0.193
49036W        W20762  39.512  34.517  14.555
49037W        W20763  19.840   3.845   2.797
49038W        W20764  13.407   3.395  11.266
49039W        W20765  15.051   3.247   2.310
49040W        W20766  38.221  19.122   3.000
49041W        W20767  35.469  14.457   3.163
49042W        W20768  18.805  39.378  14.829
49043W        W20769  31.887  35.912  12.532
49044W        W20770  37.481  30.161  11.921
49045W        W20771  19.481  24.605   1.735
49046W        W20772   4.915  25.397  13.303
49047W        W20773  30.413  21.479   2.520
49048W        W20774  22.690  37.152  11.940
49049W        W20775  12.734  19.019   0.477
49050W        W20776  24.786  35.529  10.859
49051W        W20777  40.938  39.452  11.531
49052W        W20778   1.214   3.362   1.330
49053W        W20779  11.559  28.198  10.022
49054W        W20780  44.961  24.528   3.288
49055W        W20781  19.218  22.978  14.321
49056W        W20782  24.302  18.281  10.330
49057W        W20783   6.453  28.617  10.929
49058W        W20784  24.348  37.996  12.395
49059W        W20785  28.620  16.473  14.017
49060W        W20786  43.558  37.148  12.031
49061W        W20787  38.908  38.752   0.422
49062W        W20788  33.056   3.717   4.179
49063W        W20789  21.875  31.220  14.682
49064W        W20790  21.461  30.764   4.599
49065W        W20791  27.551  43.467   0.919
49066W        W20792  29.901  31.193  12.052
49067W        W20793   9.286   0.297  10.776
49068W        W20794   3.914  34.125  12.181
49069W        W20795  24.742   5.286  12.202
49070W        W20796  34.486  29.476   2.401
49071W        W20797  19.331  11.746  11.200
49072W        W20798   6.515  10.702  13.625
49073W        W20799  43.059  22.156  14.343
49074W        W20800  32.366   8.287   2.256
49075W        W20801  36.049   9.783  11.226
49076W        W20802  21.071  23.193  13.569
49077W        W20803  22.167  38.534   0.298
49078W        W20804  11.404  15.917  11.560
49079W        W20805   3.429   6.217   4.177
49080W        W20806   1.929   5.851  14.931
49081W        W20807   0.803  43.737   0.266
49082W        W20808   1.866  17.407   0.385
49083W        W20809   3.429  21.613   0.939
49084W        W20810   8.630  36.995   1.735
49085W        W20811   4.335  42.750  12.071
49086W        W20812  40.919  17.764  12.563
49087W        W20813   9.449  10.211   0.384
49088W        W20814  32.715   3.385   0.026
49089W        W20815  40.428  43.213   1.262
49090W        W20816   9.485   8.458  13.450
49091W        W20817  26.206   4.779   3.324
49092W        W20818   7.161  41.526   0.360
49093W        W20819  20.354  34.565  10.914
49094W        W20820   5.118  40.383  12.739
49095W        W20821  41.767  23.571  10.649
49096W        W20822  42.799  26.448   1.447
49097W        W20823  11.221  33.322   3.578
49098W        W20824  27.717  34.667   0.992
49099W        W20825  38.755  29.621   0.079
49100W        W20826  36.084  21.131  10.754
49101W        W20827   9.346  34.336   4.176
49102W        W20828   2.403  44.814  14.910
49103W        W20829  16.853   3.902  12.504
49104W        W20830   0.862  35.495  13.786
49105W        W20831  41.595  40.065   2.110
49106W        W20832  24.079  44.929   4.953
49107W        W20833  38.441  26.096   4.149
49108W        W20834  12.637  40.883  12.916
49109W        W20835  44.287  21.547   0.234
49110W        W20836  34.247  33.539   1.192
49111W        W20837  12.319   0.268   3.098
49112W        W20838  33.462  40.651   2.749
49113W        W20839  25.042  22.464   1.690
49114W        W20840  40.384  31.730  12.146
49115W        W20841  20.106  44.967  12.340
49116W        W20842  24.996   5.112   1.849
49117W        W20843  25.673   6.242  11.872
49118W        W20844  42.997   7.900   3.159
49119W        W20845  27.255   6.961  13.929
49120W        W20846   3.441  24.229   1.826
49121W        W20847   1.958  36.640  14.834
49122W        W20848   3.709  39.513   1.351
49123W        W20849  41.925  20.343  10.569
49124W        W20850   4.758  26.533   0.015
49125W        W20851  41.730  43.747  14.194
49126W        W20852  31.096  23.594  11.497
49127W        W20853  44.446   2.872   3.764
49128W        W20854   9.612  14.995  11.954
49129W        W20855  37.320  43.946  13.516
49130W        W20856  34.139  24.042   1.286
49131W        W20857  39.979  13.813   2.187
49132W        W20858  29.748   9.178  14.919
49133W        W20859  41.478  37.825  12.094
49134W        W20860  21.201  23.026   3.654
49135W        W20861   6.701  20.906   1.750
49136W        W20862  22.598  28.545  14.570
49137W        W20863  17.170   4.789   3.811
49138W        W20864  27.239  23.536  12.498
49139W        W20865  36.854  22.485  14.955
49140W        W20866  21.959  28.618   1.481
49141W        W20867   5.430  13.089  14.889
49142W        W20868  42.628  19.628  12.332
49143W        W20869  12.361  32.082   4.324
49144W        W20870  42.781  38.368  14.749
49145W        W20871  17.666  41.059   4.176
49146W        W20872  13.135  19.228  13.398
49147W        W20873   7.586   6.232  13.360
49148W        W20874   7.218  19.342   0.051
49149W        W20875  17.343  33.203   0.352
49150W        W20876  33.012   7.113  13.437
49151W        W20877  28.455  23.573   0.884
49152W        W20878  27.194  35.438  11.912
49153W        W20879  35.043  43.979   2.265
49154W        W20880  42.437  21.080   4.147
49155W        W20881  31.053  33.111  14.343
49156W        W20882  27.800  20.100   4.058
49157W        W20883   4.223  25.192   0.482
49158W        W20884  11.377  43.929  14.710
49159W        W20885  14.325  36.531  14.588
49160W        W20886  39.097  22.092   4.961
49161W        W20887  22.659  19.183   3.044
49162W        W20888  27.982  39.608  12.667
49163W        W20889   5.801  16.275   5.634
49164W        W20890   0.841   3.525   3.624
49165W        W20891  20.573  21.035   2.197
49166W        W20892  43.041  38.756  14.983
49167W        W20893  29.379  36.065   1.451
49168W        W20894  16.604   5.651  14.213
49169W        W20895  16.199  21.708  10.477
49170W        W20896  40.473   1.078   4.235
49171W        W20897   5.679  18.793  12.111
49172W        W20898  29.440  21.488  12.550
49173W        W20899  25.152  30.144  13.516
49174W        W20900  30.637  12.772  10.744
49175W        W20901  15.230  19.182   2.432
49176W        W20902  33.341   1.002   1.853
49177W        W20903  41.076  29.672   2.203
49178W        W20904   7.159   5.319   5.007
49179W        W20905  31.611  40.732   2.769
49180W        W20906  44.200  43.536  14.752
49181W        W20907   7.640   3.848   0.428
49182W        W20908  44.842  23.250  13.824
49183W        W20909  30.847   3.334   1.929
49184W        W20910   2.456  11.364   4.588
49185W        W20911   3.656  27.201  13.278
49186W        W20912  20.701   9.088   2.843
49187W        W20913   6.423   4.331   1.455
49188W        W20914  20.395  43.308   3.726
49189W        W20915  42.760  13.753   1.636
49190W        W20916  32.750  17.870   2.155
49191W        W20917  36.347  36.322  11.092
49192W        W20918   7.337   5.240  14.084
49193W        W20919  34.572   8.961  14.308
49194W        W20920   2.501  30.934  12.883
49195W        W20921  15.348  35.934   0.835
49196W        W20922  28.144   6.917   3.246
49197W        W20923  13.020  41.889  12.061
49198W        W20924  44.688  39.911   1.508
49199W        W20925  32.462  25.169   5.195
49200W        W20926  22.211   7.364  10.626
49201W        W20927  15.517  22.590   3.717
49202W        W20928  26.111  38.870  12.835
49203W        W20929   7.836  43.018  12.964
49204W        W20930  25.579  20.780   1.399
49205W        W20931  39.464  37.268  11.278
49206W        W20932  44.640  43.124  11.173
49207W        W20933  33.575   5.343  12.421
49208W        W20934  35.318  27.189   3.693
49209W        W20935  36.689  15.809  10.711
49210W        W20936  37.634  43.371   0.895
49211W        W20937  12.884  23.189  11.909
49212W        W20938   2.462  18.509   3.244
49213W        W20939  26.650  27.711  14.903
49214W        W20940  31.870   2.895  14.865
49215W        W20941  15.674  43.602  14.958
49216W        W20942   5.490  39.676   2.314
49217W        W20943  26.676  28.186   5.043
49218W        W20944   8.320   8.887   1.661
49219W        W20945  23.951  30.962   4.629
49220W        W20946  18.937  42.004  11.884
49221W        W20947  15.287  33.028   3.812
49222W        W20948  29.622  26.529  14.912
49223W        W20949  36.044   3.837   3.215
49224W        W20950  30.913   8.739   3.563
49225W        W20951  17.065  21.443  10.358
49226W        W20952  32.194  26.485  11.628
49227W        W20953  29.846  38.891  13.784
49228W        W20954   2.328  24.717  10.690
49229W        W20955   0.734   9.109   4.520
49230W        W20956  29.078  40.480  13.444
49231W        W20957  11.748   7.606   4.117
49232W        W20958  33.481  11.203   2.263
49233W        W20959  33.802  13.770  14.292
49234W        W20960   1.842  30.735  12.174
49235W        W20961  14.743   2.467   1.020
49236W        W20962  38.185  29.936  13.428
49237W        W20963  37.368  22.581   3.248
49238W        W20964  14.549  33.995   0.447
49239W        W20965  11.043  26.796   4.598
49240W        W20966  38.555  15.763  12.562
49241W        W20967  38.921  17.792  14.257
49242W        W20968  12.831  16.693  13.988
49243W        W20969  35.572  10.426   2.609
49244W        W20970  20.993   7.749   2.441
49245W        W20971   3.239  35.471   3.752
49246W        W20972  41.487  39.609  14.269
49247W        W20973   6.196  30.653   3.214
49248W        W20974   6.790  27.551  10.811
49249W        W20975  32.697  36.096  10.597
49250W        W20976   2.009   4.202  12.010
49251W        W20977  28.641  25.971   2.888
49252W        W20978   0.467  24.678   3.397
49253W        W20979   2.507   1.796   1.388
49254W        W20980  14.793  37.006  12.591
49255W        W20981  14.863  26.588  11.917
49256W        W20982  12.861   3.355   1.754
49257W        W20983  13.662  23.666  11.452
49258W        W20984  38.509  33.496   3.915
49259W        W20985   6.816   6.795  10.313
49260W        W20986  19.967  15.240   1.567
49261W        W20987  11.881  37.501   3.190
49262W        W20988  12.672  42.170  12.415
49263W        W20989  12.231  34.658   0.418
49264W        W20990   4.737  13.281  13.592
49265W        W20991  28.040   3.754  12.779
49266W        W20992   1.042  25.776  11.122
49267W        W20993  30.673  26.115   2.423
49268W        W20994  42.331  38.880   3.267
49269W        W20995   9.369   0.182  13.002
49270W        W20996  41.015  43.235  14.543
49271W        W20997  17.744  14.664  13.329
49272W        W20998  38.522  27.982  11.065
49273W        W20999  26.744   6.671   0.821
49274W        W21000  28.130  19.545   3.619
49275W        W21001  20.548  24.644  11.078
49276W        W21002  22.244   9.373   0.361
49277W        W21003   1.500  27.137  11.852
49278W        W21004  42.815   9.265  12.084
49279W        W21005  37.663  23.837  13.906
49280W        W21006  30.538  25.996  11.668
49281W        W21007   7.329   8.824  10.939
49282W        W21008   8.326  44.155   3.592
49283W        W21009  31.832  35.810   4.112
49284W        W21010  39.666  39.707  11.097
49285W        W21011  23.498  20.539   3.448
49286W        W21012  15.508  13.400   4.375
49287W        W21013   4.695  12.925  14.415
49288W        W21014  22.586  25.626  10.691
49289W        W21015   2.374   6.654  14.775
49290W        W21016  38.985  29.420   3.611
49291W        W21017  27.640  39.935   3.180
49292W        W21018  20.577  12.380   3.284
49293W        W21019  26.514  11.272  11.972
49294W        W21020  10.833  23.001   1.370
49295W        W21021  29.743  16.202   0.860
49296W        W21022  41.771  22.653   1.325
49297W        W21023  23.997   0.819   4.729
49298W        W21024  29.361  25.693  11.602
49299W        W21025  26.653  13.167   2.955
49300W        W21026  13.038  23.710  10.836
49301W        W21027   6.932   3.442   1.899
49302W        W21028  15.128  28.203  14.303
49303W        W21029   3.963  24.753  13.725
49304W        W21030  42.798  11.787  11.437
49305W        W21031  13.166  31.454  10.566
49306W        W21032  43.395  37.504   2.149
49307W        W21033  15.513  34.475   3.410
49308W        W21034   3.949  30.107  12.776
49309W        W21035  35.838  11.687  13.872
49310W        W21036  10.436  15.744   1.998
49311W        W21037  36.898  41.382   4.605
49312W        W21038  38.364  22.575  11.713
49313W        W21039  10.686  11.135   4.291
49314W        W21040  11.796  42.771  11.137
49315W        W21041  40.495  22.653   4.554
49316W        W21042   4.797  39.839  11.659
49317W        W21043  11.725  34.147   1.783
49318W        W21044  12.114   0.070   0.804
49319W        W21045   6.208   8.781  10.695
49320W        W21046  17.462  20.798  11.057
49321W        W21047  27.995   3.814   2.103
49322W        W21048  42.968  15.700  12.489
49323W        W21049   3.945  36.774   3.956
49324W        W21050  24.989   5.662   2.756
49325W        W21051  23.182   8.472   2.963
49326W        W21052   8.231  40.572  12.273
49327W        W21053  40.355  23.041  14.903
49328W        W21054  19.270  34.556   1.686
49329W        W21055  24.628  35.333  14.358
49330W        W21056   9.934  20.290  12.571
49331W        W21057   8.817  14.853   1.407
49332W        W21058  23.228  19.107  12.554
49333W        W21059  31.039   8.796   0.214
49334W        W21060   1.702  31.706  11.084
49335W        W21061  11.309  44.416   2.784
49336W        W21062  31.541   8.218  12.734
49337W        W21063   8.934  42.015  13.479
49338W        W21064   7.079  14.483  12.657
49339W        W21065   4.312   1.935   0.322
49340W        W21066   2.208   3.334   4.332
49341W        W21067   9.214   3.267  12.705
49342W        W21068  11.307  12.317  13.166
49343W        W21069  38.545  24.943   1.944
49344W        W21070  23.644  42.953   0.782
49345W        W21071  20.247  13.731  11.702
49346W        W21072  32.936  18.734   0.546
49347W        W21073  36.286  33.464  12.380
49348W        W21074   1.195  27.589  11.923
49349W        W21075   3.942   5.236  11.672
49350W        W21076   5.778  17.700  10.678
49351W        W21077   6.660   2.917   2.711
49352W        W21078   9.381  12.146   0.419
49353W        W21079  24.177  18.911   0.396
49354W        W21080  22.687  44.051  11.120
49355W        W21081  37.179  15.158   5.125
49356W        W21082  11.941  37.058   0.315
49357W        W21083  21.658  30.274   4.637
49358W        W21084   0.177   7.855  11.158
49359W        W21085  34.058  33.588   0.694
49360W        W21086   6.792  17.733   1.731
49361W        W21087  41.198  18.199  12.464
49362W        W21088  17.116  44.571   5.304
49363W        W21089   1.303  30.918  13.953
49364W        W21090  20.520   8.383   0.401
49365W        W21091  38.605  25.069   3.350
49366W        W21092   2.913  37.616  12.571
49367W        W21093   6.183   6.864  13.452
49368W        W21094   5.734   4.985  10.261
49369W        W21095  20.516  30.385   0.375
49370W        W21096   6.088   3.783   1.742
49371W        W21097   4.528  20.981   0.486
49372W        W21098  13.089  27.191   2.405
49373W        W21099  14.949   1.731  10.350
49374W        W21100  36.832  19.241   3.495
49375W        W21101  19.434  36.214   2.349
49376W        W21102  21.502  44.197  11.078
49377W        W21103   7.697  27.235  12.594
49378W        W21104  19.309  37.077  11.876
49379W        W21105  43.251  21.811   2.789
49380W        W21106   0.500   2.544   0.458
49381W        W21107  30.103   4.606   4.116
49382W        W21108  25.659  42.472  12.851
49383W        W21109  13.254  22.099   2.754
49384W        W21110  40.429  25.051   0.332
49385W        W21111  13.282  38.517   2.141
49386W        W21112   1.376  37.573  14.370
49387W        W21113  36.860  22.318  12.107
49388W        W21114  31.362  17.553  13.061
49389W        W21115  19.063  25.949   0.717
49390W        W21116  43.536  19.971  11.938
49391W        W21117  39.095  39.295  12.565
49392W        W21118   2.309  34.073   4.703
49393W        W21119  37.451  14.175  13.328
49394W        W21120   5.297  22.109  14.026
49395W        W21121   1.166   0.709   0.348
49396W        W21122  18.976   3.922   0.364
49397W        W21123  29.571  12.536   4.877
49398W        W21124  33.003   3.146   1.270
49399W        W21125  10.022  17.716   2.213
49400W        W21126  26.573  44.480  13.773
49401W        W21127  25.065  29.606  12.172
49402W        W21128  43.175   4.784  14.465
49403W        W21129   7.194  11.866  13.513
49404W        W21130  15.651  11.958  14.364
49405W        W21131  22.195  17.763   4.049
49406W        W21132  44.439  13.814  14.514
49407W        W21133  36.997  11.430  11.204
49408W        W21134  27.619  16.011   2.804
49409W        W21135  33.903  24.016   2.821
49410W        W21136  19.130   3.418   0.370
49411W        W21137  11.771  19.029   3.217
49412W        W21138  40.332  23.250  11.982
49413W        W21139   8.435   9.053   2.132
49414W        W21140  15.020  40.014  12.399
49415W        W21141   9.818  14.590  14.114
49416W        W21142  44.855  43.823   1.496
49417W        W21143  27.451  35.954   0.504
49418W        W21144  33.914   8.606   0.808
49419W        W21145  34.128  34.739  10.909
49420W        W21146  34.130   8.467   4.973
49421W        W21147  41.543   0.910   4.214
49422W        W21148   3.535  34.082  11.249
49423W        W21149  15.006  32.364   2.751
49424W        W21150  13.390  41.066  11.213
49425W        W21151  35.436  26.484  12.297
49426W        W21152  31.882  15.690   3.307
49427W        W21153   2.438  44.483   0.702
49428W        W21154  15.120  12.141   1.884
49429W        W21155  15.667  44.403   1.405
49430W        W21156  20.534  10.338   3.575
49431W        W21157  29.495  42.975   1.188
49432W        W21158  37.204  33.209  10.794
49433W        W21159  18.304  29.617   0.823
49434W        W21160  10.158  13.758   3.214
49435W        W21161  22.298  38.491  12.832
49436W        W21162  25.668   7.849  12.549
49437W        W21163  36.322  22.554  11.663
49438W        W21164  36.327   9.139   2.110
49439W        W21165  37.058   6.884   2.656
49440W        W21166   4.282  27.120   4.758
49441W        W21167  42.742  13.061  11.970
49442W        W21168   6.335  41.840  12.156
49443W        W21169  26.213   6.798  12.051
49444W        W21170  20.297  23.661  11.563
49445W        W21171  17.590  35.824  13.991
49446W        W21172   1.681  21.110  12.952
49447W        W21173   4.216  43.375   1.979
49448W        W21174  34.866  24.758   1.286
49449W        W21175   2.681  16.237  13.303
49450W        W21176  23.529   2.488   3.875
49451W        W21177  25.770   0.185  10.199
49452W        W21178   0.537   9.151   1.223
49453W        W21179  30.637  16.217   3.261
49454W        W21180  44.061  11.882  11.926
49455W        W21181   3.437  30.463  11.636
49456W        W21182   8.920  11.416   4.299
49457W        W21183  35.829   1.992   3.263
49458W        W21184  18.752  36.036  13.426
49459W        W21185  33.492  33.433   3.459
49460W        W21186  26.374  17.009  12.762
49461W        W21187  38.862  18.868  13.039
49462W        W21188  44.713   7.315  13.791
49463W        W21189   6.240  40.226  13.541
49464W        W21190   0.911  39.385  10.380
49465W        W21191  39.053  18.612   4.688
49466W        W21192  28.523  25.662   0.980
49467W        W21193   0.078  26.517   2.014
49468W        W21194  28.427  40.676   4.050
49469W        W21195  41.591   1.653   0.860
49470W        W21196  25.033  12.551  12.461
49471W        W21197   5.674  28.012  14.410
49472W        W21198  42.269  17.622  13.914
49473W        W21199  11.539  18.518  10.694
49474W        W21200  42.371  23.618   1.812
49475W        W21201  41.177  32.395  11.046
49476W        W21202  33.671   0.820   2.711
49477W        W21203  28.374   2.210  11.006
49478W        W21204  29.917  41.900   4.436
49479W        W21205   0.816  31.162  12.981
49480W        W21206  42.555   3.832  14.994
49481W        W21207  28.355  39.733   0.197
49482W        W21208   8.150  28.777  12.129
49483W        W21209  12.885  12.711   4.464
49484W        W21210   2.477   5.801   3.303
49485W        W21211   7.375  21.223   4.075
49486W        W21212   0.683  44.810   4.131
49487W        W21213   5.207  24.942   4.651
49488W        W21214   6.681  19.634  12.058
49489W        W21215   0.344  17.385  14.494
49490W        W21216  10.292  28.419  10.409
49491W        W21217  25.611  19.691  11.593
49492W        W21218   0.675  43.011  10.343
49493W        W21219  38.144   3.619   3.143
49494W        W21220  38.292   5.692   2.594
49495W        W21221  13.900   7.107  12.985
49496W        W21222  24.745  27.596   0.129
49497W        W21223   5.362  11.676   4.939
49498W        W21224  35.410  18.386  12.080
49499W        W21225  37.106  21.797   3.604
49500W        W21226  38.705  12.642   0.496
49501W        W21227  31.164  19.173   4.435
49502W        W21228   3.174  33.853  13.777
49503W        W21229  18.005  18.176   3.731
49504W        W21230  31.568  39.266   2.814
49505W        W21231   8.931  19.154   1.293
49506W        W21232  35.044  13.125  13.432
49507W        W21233  12.540  36.364   4.117
49508W        W21234   1.472  42.810  14.505
49509W        W21235  31.037  38.388   1.592
49510W        W21236  37.359  30.512  13.494
49511W        W21237  13.216  43.077   4.126
49512W        W21238  12.260  25.508  14.372
49513W        W21239  41.496   4.208   1.273
49514W        W21240  34.239  15.898  13.518
49515W        W21241  28.027  33.842  10.681
49516W        W21242  33.393  15.603  12.995
49517W        W21243  17.491  19.115  11.613
49518W        W21244   9.750  35.014   5.122
49519W        W21245  33.327  43.760   1.739
49520W        W21246   1.782  18.626  12.502
49521W        W21247  21.349  38.498  11.155
49522W        W21248  16.696   0.937  12.341
49523W        W21249  26.096  14.900   0.455
49524W        W21250  37.854  32.124   0.355
49525W        W21251  29.477  19.493   1.058
49526W        W21252  32.070  41.605   1.309
49527W        W21253  43.049  44.526  12.989
49528W        W21254   3.182  31.258   0.428
49529W        W21255  37.319  33.399   1.452
49530W        W21256   3.889  25.270  14.474
49531W        W21257  30.591  38.843  11.453
49532W        W21258  20.046  25.260  14.077
49533W        W21259  10.210  31.082   0.242
49534W        W21260  37.417   3.342  11.018
49535W        W21261  20.991  10.064   3.714
49536W        W21262  29.316  20.556  14.582
49537W        W21263  28.486  27.261  14.277
49538W        W21264  25.174   2.407   4.106
49539W        W21265   5.424  43.302   4.133
49540W        W21266  21.716  21.434   4.213
49541W        W21267  41.688  39.464   2.799
49542W        W21268  20.879  28.492  13.020
49543W        W21269  31.553  23.397  11.558
49544W        W21270  38.348  12.404   1.920
49545W        W21271  13.248  29.913  10.763
49546W        W21272  29.915   4.483  10.960
49547W        W21273  17.248  19.853  10.298
49548W        W21274   7.174  33.635  14.142
49549W        W21275  34.789  35.511  11.551
49550W        W21276  19.195  22.991  13.791
49551W        W21277  19.489  20.272  12.840
49552W        W21278   1.814  32.975   4.733
49553W        W21279  34.560  41.216   4.744
49554W        W21280  14.801  37.563  11.168
49555W        W21281   3.961   2.672  12.422
49556W        W21282  13.666  43.493   3.450
49557W        W21283   3.904  19.836   1.814
49558W        W21284  40.058  29.503  13.563
49559W        W21285   4.686   0.880   3.669
49560W        W21286  12.306  33.379   1.892
49561W        W21287   1.917   2.927   1.648
49562W        W21288  42.040  25.163  11.533
49563W        W21289  18.520  24.670  13.359
49564W        W21290  23.347  34.549  12.516
49565W        W21291  21.593  32.589  14.917
49566W        W21292  37.889  24.264  13.698
49567W        W21293   3.478  38.149   3.785
49568W        W21294  17.097  19.285  12.534
49569W        W21295  26.451  32.274  13.249
49570W        W21296  17.062  12.830  13.409
49571W        W21297  13.976   5.854  11.266
49572W        W21298  36.151  13.590  11.187
49573W        W21299  24.636  42.315  11.167
49574W        W21300  29.239  26.097  11.908
49575W        W21301   9.873  19.254  14.259
49576W        W21302  18.672  33.960   4.305
49577W        W21303  14.749  27.863  11.877
49578W        W21304  43.899  25.395   4.318
49579W        W21305   9.227  37.954   3.112
49580W        W21306  25.655   6.327   1.826
49581W        W21307  26.688  38.595  11.347
49582W        W21308  23.400  41.563  14.543
49583W        W21309  41.379  41.619  14.441
49584W        W21310  32.359  19.783  12.052
49585W        W21311  18.164  25.070   0.383
49586W        W21312  14.300  15.202  10.931
49587W        W21313  13.365  36.809   0.175
49588W        W21314  19.650  21.324   0.782
49589W        W21315  41.511  28.467   1.496
49590W        W21316  13.282   8.313  13.455
49591W        W21317  33.177  35.025  14.946
49592W        W21318  21.139  24.463  12.418
49593W        W21319   0.352   8.977   0.373
49594W        W21320  29.565  43.793  14.376
49595W        W21321  14.327  19.613  12.151
49596W        W21322  21.572  14.602  14.019
49597W        W21323  42.422   1.701  12.674
49598W        W21324   7.736  34.383   4.633
49599W        W21325  16.682  13.737  13.474
49600W        W21326  12.225   6.653  11.028
49601W        W21327   6.342  32.509   4.320
49602W        W21328   4.255  15.636  13.311
49603W        W21329  11.774  27.918  11.442
49604W        W21330   8.418   9.693  11.572
49605W        W21331  27.402  15.621   3.684
49606W        W21332   0.398   5.485  12.470
49607W        W21333  31.949  26.463  12.103
49608W        W21334  14.130  16.618   2.832
49609W        W21335  36.469  18.562  12.956
49610W        W21336  32.952  29.621   4.254
49611W        W21337  38.884  42.037   4.353
49612W        W21338  12.983  21.690  12.536
49613W        W21339  26.248  33.847  13.021
49614W        W21340  18.074  13.613   1.519
49615W        W21341  26.841  15.141  14.564
49616W        W21342  37.699  31.195  11.707
49617W        W21343   2.814   8.836  11.502
49618W        W21344  38.230  36.619   1.300
49619W        W21345   2.795   3.974  11.651
49620W        W21346   1.571  33.123  11.071
49621W        W21347  14.294  19.780   0.972
49622W        W21348  21.370   8.938   2.769
49623W        W21349  24.574  44.942  10.415
49624W        W21350  27.523  24.481   2.779
49625W        W21351   0.368  37.128  14.307
49626W        W21352  31.584  17.046   0.125
49627W        W21353   7.268   6.217   0.851
49628W        W21354  13.503  22.659  10.225
49629W        W21355   3.378  14.337  10.548
49630W        W21356  11.692  14.487  11.566
49631W        W21357  27.102  20.759   4.174
49632W        W21358  36.080  27.379   3.330
49633W        W21359  40.527  28.038  13.384
49634W        W21360   8.575  30.656   4.099
49635W        W21361  39.383  30.675   2.130
49636W        W21362  24.700  41.526   1.155
49637W        W21363  18.071  15.350  12.499
49638W        W21364  16.075  42.209   5.019
49639W        W21365  37.948  11.708  12.113
49640W        W21366  33.995  28.169   3.419
49641W        W21367  32.450  41.178   4.518
49642W        W21368  25.282  30.396   5.086
49643W        W21369  21.758  38.860  13.970
49644W        W21370  10.293  25.914   0.260
49645W        W21371   0.738  35.973  14.793
49646W        W21372   8.941  43.941   1.780
49647W        W21373  31.831  42.901  13.333
49648W        W21374   4.872  16.181   2.200
49649W        W21375  43.313   1.689  14.086
49650W        W21376  20.775  10.282  13.622
49651W        W21377  28.199  24.463  14.972
49652W        W21378  26.675   2.095  13.387
49653W        W21379  33.476  18.646   3.630
49654W        W21380   4.860  36.354   4.589
49655W        W21381   6.181   2.768  12.549
49656W        W21382   2.208  26.049   1.700
49657W        W21383  42.738  37.884  12.186
49658W        W21384  26.897  15.591   3.318
49659W        W21385  16.291  11.821  13.948
49660W        W21386  44.483  43.522  12.439
49661W        W21387   9.459  44.007  11.112
49662W        W21388  36.919  24.933  12.284
49663W        W21389  15.121  43.870   3.385
49664W        W21390   8.469  17.123   4.115
49665W        W21391  16.081  40.776   1.334
49666W        W21392   8.276  38.886  12.898
49667W        W21393  34.331  17.814  11.676
49668W        W21394  32.384  25.460   2.403
49669W        W21395  21.717  30.686   3.705
49670W        W21396  22.668   8.704  13.389
49671W        W21397  23.245  26.400   4.670
49672W        W21398  25.150  40.864  13.375
49673W        W21399  27.948  22.435   0.573
49674W        W21400  33.936  43.128   3.682
49675W        W21401  30.111   4.390   3.127
49676W        W21402  40.613  10.755   4.129
49677W        W21403  11.648  20.077  10.746
49678W        W21404  15.670  19.617  14.825
49679W        W21405  35.802   0.921  11.690
49680W        W21406  10.165   2.778  10.099
49681W        W21407   9.416   2.877  11.777
49682W        W21408  30.062  28.569  10.329
49683W        W21409  33.033  15.497  10.655
49684W        W21410  40.289  38.973   2.252
49685W        W21411   0.478  35.053   3.197
49686W        W21412  19.836  20.620  11.256
49687W        W21413  32.917  28.641  13.937
49688W        W21414  21.891  18.155   2.237
49689W        W21415  14.591  13.503   0.528
49690W        W21416  28.545  38.159  12.020
49691W        W21417  17.686  31.634   3.324
49692W        W21418  21.972  13.766   4.609
49693W        W21419  26.626  36.510  10.673
49694W        W21420  20.983  32.432   3.080
49695W        W21421   8.783  16.903  11.506
49696W        W21422  44.989   4.734  12.481
49697W        W21423   8.728   3.476  11.461
49698W        W21424  39.036  18.360  14.145
49699W        W21425  32.600   1.295   4.156
49700W        W21426  17.795  37.420  12.856
49701W        W21427  30.565  12.445   3.697
49702W        W21428  17.772   3.212   4.266
49703W        W21429  31.999  26.983  13.495
49704W        W21430  42.095  12.422   9.886
49705W        W21431  29.999  24.189  14.103
49706W        W21432  28.402  30.620  14.535
49707W        W21433   1.742  19.035   2.088
49708W        W21434  22.304  43.312  11.538
49709W        W21435  34.699  18.285  14.371
49710W        W21436   8.033   2.570   4.071
49711W        W21437   1.004  13.292  11.710
49712W        W21438  30.141  18.795  10.720
49713W        W21439  38.824   2.311   5.186
49714W        W21440   8.880  41.145  13.853
49715W        W21441  43.484  27.642  10.551
49716W        W21442  11.161  29.438   4.583
49717W        W21443  28.387  16.705  13.025
49718W        W21444  14.298   9.641   2.323
49719W        W21445  16.535   6.573  12.848
49720W        W21446  39.928  20.127  12.524
49721W        W21447  37.316  12.277  13.488
49722W        W21448  41.389  24.936  12.467
49723W        W21449  17.767  13.487   4.552
49724W        W21450   2.513  15.004  13.449
49725W        W21451  17.022   7.735  13.075
49726W        W21452  20.453  20.352   2.703
49727W        W21453  42.245  18.577   0.752
49728W        W21454  21.816   1.045   0.505
49729W        W21455  25.041   6.169   2.892
49730W        W21456   3.223  44.279  13.030
49731W        W21457  36.995  43.107  12.543
49732W        W21458  15.943  27.045   3.377
49733W        W21459  25.955  17.547  11.652
49734W        W21460  29.002  26.009   0.280
49735W        W21461  40.434   2.958  10.995
49736W        W21462  44.161  20.255   3.113
49737W        W21463  16.040  31.616   1.918
49738W        W21464   5.379  19.718  12.607
49739W        W21465   3.251  14.091   2.664
49740W        W21466  20.208  37.861   2.393
49741W        W21467   9.923   7.765  12.476
49742W        W21468  30.081  24.438   0.728
49743W        W21469  14.480  42.369   0.251
49744W        W21470   9.832  42.866   4.676
49745W        W21471  42.816   8.726   3.780
49746W        W21472  43.447  19.170  10.757
49747W        W21473  17.338  21.218   2.827
49748W        W21474  13.252  42.032  12.516
49749W        W21475  35.670   8.882  13.960
49750W        W21476  21.223   6.137   3.285
49751W        W21477  11.858  39.779  14.300
49752W        W21478  13.595  22.997  10.881
49753W        W21479   9.464  40.518  11.587
49754W        W21480  37.401  16.747   4.222
49755W        W21481  36.609  27.789  12.624
49756W        W21482   4.624  14.670  11.437
49757W        W21483   9.836  24.182   2.513
49758W        W21484  27.698  16.647   0.865
49759W        W21485  25.190   9.080  13.739
49760W        W21486  20.074  43.330   4.722
49761W        W21487  11.821  13.962  11.598
49762W        W21488   9.904   2.734   3.454
49763W        W21489  27.897   3.148  11.559
49764W        W21490   7.853   9.874   4.815
49765W        W21491  37.270   0.583   5.110
49766W        W21492  31.469  29.713  14.951
49767W        W21493  16.819  31.448   2.130
49768W        W21494   7.121  22.778   3.239
49769W        W21495  22.699   6.304   3.072
49770W        W21496  34.356  13.246   3.704
49771W        W21497  33.843  42.772   2.129
49772W        W21498   4.237  19.611   1.459
49773W        W21499  28.083  14.963  10.650
49774W        W21500  20.557  11.037  10.570
49775W        W21501  11.221  19.013   0.451
49776W        W21502   4.578  24.530   4.966
49777W        W21503  28.656  30.277  13.898
49778W        W21504  25.645  20.128   1.469
49779W        W21505  17.072  40.699  14.375
49780W        W21506  13.734  40.452   0.075
49781W        W21507  14.165  30.189   4.282
49782W        W21508  23.862   1.734   4.522
49783W        W21509  41.239   6.860  12.025
49784W        W21510  26.411  26.448  10.160
49785W        W21511  34.851   5.232  11.229
49786W        W21512  30.706   0.142   2.378
49787W        W21513  25.163   7.134  13.777
49788W        W21514   6.844  40.538   4.559
49789W        W21515  16.204  34.917  12.834
49790W        W21516  41.487  23.185   2.823
49791W        W21517  20.134  18.316   3.734
49792W        W21518  37.109   0.449  10.711
49793W        W21519  13.588  33.551   0.042
49794W        W21520  36.995  23.101   4.341
49795W        W21521  36.487   5.958   0.699
49796W        W21522  28.597  12.572  14.628
49797W        W21523  11.687  15.020  11.605
49798W        W21524  32.863   6.779   4.649
49799W        W21525  18.075  23.040   2.295
49800W        W21526   6.771   6.760   2.298
49801W        W21527  14.830  44.943   1.932
49802W        W21528  39.672  33.263  13.136
49803W        W21529  18.623  40.815  12.441
49804W        W21530  32.408  12.146   2.796
49805W        W21531  16.554  42.277  11.450
49806W        W21532   5.929  35.459   2.705
49807W        W21533   6.773  12.541   4.121
49808W        W21534  31.676  27.533  14.788
49809W        W21535  14.212   8.948  11.673
49810W        W21536  15.069   3.938   4.722
49811W        W21537  25.727  15.594  13.985
49812W        W21538  44.471  18.518   1.757
49813W        W21539  16.433  26.888   3.368
49814W        W21540  15.340  41.673   4.176
49815W        W21541  16.766  42.494   4.075
49816W        W21542  39.761  14.938  11.582
49817W        W21543  20.639  19.215  11.843
49818W        W21544  30.363  15.363   3.130
49819W        W21545  27.915  43.368  12.972
49820W        W21546  39.996  10.951  11.092
49821W        W21547  40.874  41.693   1.807
49822W        W21548  12.290  43.936  11.640
49823W        W21549  33.886  44.199  10.962
49824W        W21550  17.766  33.110  12.067
49825W        W21551  39.441  27.419   4.213
49826W        W21552  41.775   9.844   2.656
49827W        W21553  40.456  33.603  14.828
49828W        W21554  24.668  32.423   3.756
49829W        W21555  12.325  21.465   0.830
49830W        W21556  32.979  21.223  10.779
49831W        W21557  43.435  10.870   2.667
49832W        W21558  35.301  20.396  13.814
49833W        W21559  34.151  11.816   2.831
49834W        W21560   8.833  25.050   2.541
49835W        W21561  37.403  36.305   0.466
49836W        W21562  37.111   6.797   3.601
49837W        W21563  14.148  41.060  14.968
49838W        W21564   5.871  26.518   2.225
49839W        W21565  11.855  14.770   1.287
49840W        W21566  12.640   9.926  13.073
49841W        W21567  41.792  24.852  14.781
49842W        W21568  26.133  27.469   0.623
49843W        W21569   6.635  43.918  11.913
49844W        W21570   0.416  37.321   1.815
49845W        W21571  18.186  33.314  12.330
49846W        W21572  10.579  26.303  11.495
49847W        W21573  43.360  15.828  14.262
49848W        W21574   0.240  40.393   1.311
49849W        W21575  35.418  38.386   0.359
49850W        W21576   7.302  31.246   4.591
49851W        W21577   3.254   7.271  14.687
49852W        W21578  18.033  22.386  14.788
49853W        W21579  21.128  15.316  14.958
49854W        W21580  38.807  34.465  13.570
49855W        W21581  35.423  17.215  13.202
49856W        W21582  44.495  41.998   1.700
49857W        W21583  39.798  44.595   1.838
49858W        W21584  33.131  42.007  14.239
49859W        W21585  22.984  29.209   3.094
49860W        W21586  35.198  24.654   0.914
49861W        W21587  40.913  12.177   2.787
49862W        W21588  36.556   2.341  11.196
49863W        W21589  42.910   5.555   2.569
49864W        W21590  14.650  36.614   2.540
49865W        W21591  39.989  30.524  12.997
49866W        W21592  20.123  22.966   0.100
49867W        W21593  39.826  35.382   4.044
49868W        W21594  20.785  13.326  10.094
49869W        W21595   5.828  32.497  14.294
49870W        W21596   0.639  29.861  14.004
49871W        W21597  22.811  40.412  14.287
49872W        W21598  23.297   5.380  14.771
49873W        W21599   2.739  37.107   2.246
49874W        W21600  31.238   7.848   2.696
49875W        W21601  24.579  11.125  10.661
49876W        W21602  40.822  23.989   4.499
49877W        W21603   1.923  31.346   4.537
49878W        W21604  16.295  18.686  11.663
49879W        W21605  36.627   6.775   4.855
49880W        W21606  19.097  44.704   2.817
49881W        W21607  11.664   1.877   1.758
49882W        W21608   2.417  37.371  12.910
49883W        W21609  38.402  37.485   0.339
49884W        W21610  15.805  32.570   0.265
49885W        W21611  40.455  17.909  12.083
49886W        W21612  30.043  28.299   0.951
49887W        W21613  11.935   4.385   4.362
49888W        W21614   6.285  15.827  12.530
49889W        W21615  36.976  18.006  14.937
49890W        W21616   8.858  20.252   1.663
49891W        W21617  24.706  20.595   2.362
49892W        W21618  31.673   2.911  12.651
49893W        W21619  33.203  41.631  12.513
49894W        W21620  42.456  30.964  11.182
49895W        W21621   8.814  25.621  14.379
49896W        W21622   1.021  28.700   3.181
49897W        W21623   3.418   5.387  12.474
49898W        W21624  24.941  19.706   0.510
49899W        W21625  18.838  20.909   0.299
49900W        W21626   8.901  24.554   4.916
49901W        W21627   7.953  43.197   1.391
49902W        W21628  28.348  37.842   4.594
49903W        W21629  18.262  42.014   3.290
49904W        W21630  36.714  30.954   3.794
49905W        W21631  40.337   1.227  12.646
49906W        W21632  17.292  25.989  14.463
49907W        W21633  28.236  44.793   4.170
49908W        W21634   0.220  43.787  13.279
49909W        W21635  28.294  33.947   0.678
49910W        W21636  33.142  25.917   4.484
49911W        W21637  31.719  11.643  11.487
49912W        W21638  40.489   3.659  14.828
49913W        W21639  40.349  14.628   2.309
49914W        W21640  18.579   3.383   4.622
49915W        W21641  32.659  24.479  13.979
49916W        W21642  24.671  23.530   3.682
49917W        W21643  10.952  15.867  13.377
49918W        W21644  36.509  27.967   3.615
49919W        W21645  29.158  36.942  10.922
49920W        W21646  13.450  28.445  12.638
49921W        W21647  41.037  38.012   1.008
49922W        W21648   6.966  23.244  13.732
49923W        W21649  36.962  27.255  13.876
49924W        W21650  32.458  17.625  11.857
49925W        W21651  35.754  25.786  11.868
49926W        W21652  30.375   2.289   1.682
49927W        W21653  40.930  41.056   2.630
49928W        W21654   6.724  28.558  13.495
49929W        W21655  29.149   8.747   3.928
49930W        W21656   0.101  30.910  12.395
49931W        W21657  28.545  32.202   3.790
49932W        W21658   3.313   7.084  13.454
49933W        W21659  15.070   3.662   3.900
49934W        W21660   8.372  26.924   0.402
49935W        W21661  18.285  10.292   1.893
49936W        W21662  15.698  27.335   4.578
49937W        W21663  38.542  12.795   3.729
49938W        W21664  27.512  28.373  12.130
49939W        W21665  35.002   7.739  11.646
49940W        W21666  19.781  42.887  13.664
49941W        W21667  36.220   2.158  11.659
49942W        W21668  25.642  31.670  10.939
49943W        W21669   6.334  15.548   3.090
49944W        W21670   9.308  24.827  10.231
49945W        W21671  14.341   2.347   3.826
49946W        W21672  15.679   8.760   3.675
49947W        W21673   2.766   3.776   2.329
49948W        W21674  27.424  17.815   3.564
49949W        W21675  15.679  24.598  13.287
49950W        W21676  28.378  32.438   4.235
49951W        W21677  17.658  36.892  13.941
49952W        W21678  44.805  10.414  13.813
49953W        W21679   5.704  29.603  11.126
49954W        W21680  16.889  13.105  14.787
49955W        W21681  43.047  18.191  12.826
49956W        W21682   8.344  11.396  14.438
49957W        W21683   6.847  35.149   0.207
49958W        W21684   2.974  30.564  10.341
49959W        W21685  28.136  13.785   2.141
49960W        W21686  32.037  25.005  10.878
49961W        W21687  17.174  23.648  14.568
49962W        W21688  40.538  13.974   1.899
49963W        W21689  28.428  34.799  11.225
49964W        W21690  13.368  14.938  11.055
49965W        W21691  26.591   4.793   0.541
49966W        W21692   6.682  21.773   1.026
49967W        W21693   1.009   5.759  13.115
49968W        W21694   3.538  44.029   3.184
49969W        W21695  11.054  30.584   0.710
49970W        W21696  42.539  41.562  13.154
49971W        W21697  13.197  31.655  11.046
49972W        W21698  16.724  43.884   4.595
49973W        W21699   5.988  30.055   4.122
49974W        W21700  16.724   4.680  11.629
49975W        W21701  36.138  17.357   3.589
49976W        W21702  43.800   7.169   4.135
49977W        W21703  22.964  29.574   2.723
49978W        W21704  30.187  44.489   2.744
49979W        W21705  18.233  12.431  11.434
49980W        W21706  14.686   9.681   1.805
49981W        W21707   2.233   3.864  10.629
49982W        W21708  44.478  35.930   0.425
49983W        W21709  21.691  35.369  14.276
49984W        W21710   2.574  43.922  11.555
49985W        W21711  21.215  34.384  14.328
49986W        W21712  27.879  16.429  11.429
49987W        W21713   4.468  31.938  11.614
49988W        W21714  35.972  33.385  14.396
49989W        W21715   4.321   1.895   1.708
49990W        W21716  18.850  19.612   1.680
49991W        W21717  40.358   1.962   3.278
49992W        W21718  22.741  17.852   3.236
49993W        W21719  12.713   0.807  14.035
49994W        W21720  20.549  27.934   0.555
49995W        W21721  42.431   8.856  14.765
49996W        W21722  28.119  13.069  11.175
49997W        W21723  29.105  15.462   0.008
49998W        W21724  31.063  42.769  10.861
49999W        W21725  40.004   6.141   4.603
50000W        W21726  28.461  18.573   1.837
50001W        W21727  33.854   8.210  10.962
50002W        W21728  20.966   0.935  12.069
50003W        W21729  15.686  10.106  12.512
50004W        W21730  14.482  40.835  10.640
50005W        W21731   3.206  17.818  14.413
50006W        W21732   4.689  30.410  12.025
50007W        W21733  33.021  39.428  11.668
50008W        W21734  18.493  16.558  11.174
50009W        W21735  27.421   6.712   1.931
50010W        W21736  19.762  40.469   4.564
50011W        W21737  14.848   0.533  12.045
50012W        W21738  37.490  24.900   1.796
50013W        W21739  27.026   4.927  10.890
50014W        W21740  42.334   5.346  13.948
50015W        W21741  18.098   2.870  11.101
50016W        W21742  18.802  44.515  10.943
50017W        W21743  13.211  31.626   0.800
50018W        W21744  43.586  40.963   4.398
50019W        W21745  23.069  12.372   0.317
50020W        W21746  38.003  22.163  10.624
50021W        W21747  44.134  12.834  10.298
50022W        W21748   0.431   0.946  14.247
50023W        W21749  15.974  35.996  12.564
50024W        W21750  36.454  22.436  12.405
50025W        W21751  44.393  41.076  13.463
50026W        W21752  44.769  19.920   0.525
50027W        W21753   6.808  29.439   4.401
50028W        W21754  38.449   0.421  13.875
50029W        W21755  18.997   4.686  11.003
50030W        W21756  21.774  22.652   2.779
50031W        W21757  41.928  19.250   0.319
50032W        W21758   2.212  21.570   4.848
50033W        W21759  10.398  15.574  10.455
50034W        W21760  44.777  31.615   3.562
50035W        W21761   6.460   0.790   4.473
50036W        W21762   2.060  23.265  12.879
50037W        W21763  11.696  32.999  13.007
50038W        W21764  39.780  31.074  12.217
50039W        W21765  32.497  17.109   3.829
50040W        W21766  40.563  24.543   0.304
50041W        W21767  17.099   2.168  12.885
50042W        W21768  25.988  18.459  11.970
50043W        W21769  10.683  26.580   0.566
50044W        W21770  41.823  35.192  11.077
50045W        W21771   9.605  18.977   4.075
50046W        W21772   9.055  36.055  10.789
50047W        W21773  14.306  42.457   4.622
50048W        W21774  10.416  16.080   3.575
50049W        W21775  39.307  32.190   2.139
50050W        W21776  40.039  37.494   0.317
50051W        W21777  27.066  18.636   1.488
50052W        W21778  30.879  13.473  12.464
50053W        W21779  26.564   7.360  13.400
50054W        W21780  44.852  23.670  10.624
50055W        W21781  13.796  19.537  11.865
50056W        W21782  44.821  24.209  12.434
50057W        W21783  30.230   3.896   3.113
50058W        W21784  17.582  38.565  14.501
50059W        W21785  36.323  22.765   3.148
50060W        W21786  34.584  28.343  11.986
50061W        W21787  23.041  24.106   1.159
50062W        W21788  16.266  34.866   3.181
50063W        W21789  21.697  20.956  14.991
50064W        W21790  34.944   5.983   3.648
50065W        W21791  12.442  24.774   0.248
50066W        W21792  37.020   4.319   1.793
50067W        W21793   4.339   8.829  11.709
50068W        W21794  27.390  13.898  11.498
50069W        W21795  40.883  41.573   2.744
50070W        W21796  13.873  37.955  10.922
50071W        W21797   8.195  38.863   2.119
50072W        W21798  28.097  24.146   0.390
50073W        W21799  36.455   1.297   5.053
50074W        W21800  40.428  19.575  11.432
50075W        W21801  24.406  25.032   2.283
50076W        W21802   1.425   8.634   0.239
50077W        W21803  15.797  40.038  11.081
50078W        W21804   0.993   3.473   4.643
50079W        W21805  33.368  20.730   2.174
50080W        W21806  20.179  24.680  11.523
50081W        W21807  13.160  32.477  10.652
50082W        W21808  34.343  30.088   1.388
50083W        W21809  39.595   3.260   3.881
50084W        W21810   9.760   6.772   2.753
50085W        W21811   8.807   2.442   4.675
50086W        W21812  39.373  40.211  12.183
50087W        W21813  15.164   4.897  13.455
50088W        W21814  14.090   0.420   3.752
50089W        W21815   8.631  39.792  10.774
50090W        W21816  38.075  25.422  10.061
50091W        W21817  16.666  32.409  14.281
50092W        W21818  27.931  35.122   0.802
50093W        W21819  16.027  40.470   0.836
50094W        W21820   5.127   4.917  11.417
50095W        W21821  12.059  26.864  12.871
50096W        W21822  42.526   9.367  12.502
50097W        W21823  25.502  37.977  14.787
50098W        W21824  25.125  15.350   1.348
50099W        W21825  33.928  43.461   9.697
50100W        W21826   1.293  38.590   3.158
50101W        W21827  20.607   7.763  12.083
50102W        W21828   2.422  30.464  13.813
50103W        W21829  27.482  39.081  10.947
50104W        W21830   2.245  35.070  11.138
50105W        W21831  36.625   2.036  13.621
50106W        W21832  38.611   4.390  14.755
50107W        W21833   2.138  18.004  13.668
50108W        W21834   1.836  44.276   1.402
50109W        W21835  32.537  32.474   1.339
50110W        W21836   4.342   3.850  10.537
50111W        W21837  19.317   0.393   1.412
50112W        W21838  26.178  35.931   4.922
50113W        W21839  44.354  33.928   2.292
50114W        W21840  42.840   4.604  12.928
50115W        W21841  24.256  41.454   3.680
50116W        W21842  24.884  12.687   2.191
50117W        W21843  13.650  25.535  13.747
50118W        W21844   9.413  27.574  14.320
50119W        W21845  44.868  11.826   2.336
50120W        W21846   8.151  14.689   0.840
50121W        W21847  25.487  34.173  11.153
50122W        W21848  22.612  11.783   1.820
50123W        W21849   8.142   2.830  11.074
50124W        W21850  28.721  11.274   3.186
50125W        W21851  33.145  41.383  14.950
50126W        W21852  11.881  15.221  14.307
50127W        W21853  38.398  14.383  11.656
50128W        W21854   4.701  13.228   1.811
50129W        W21855   0.276  28.679   2.667
50130W        W21856  42.389   2.455   4.581
50131W        W21857  23.183  28.739   3.152
50132W        W21858   5.795   6.450  10.412
50133W        W21859   9.225  30.751  11.180
50134W        W21860  35.920   7.912   0.547
50135W        W21861  16.824   1.975   4.123
50136W        W21862  36.576  32.085  10.787
50137W        W21863  37.614   6.245   1.355
50138W        W21864  14.564   8.336   0.338
50139W        W21865  38.829  17.047  13.892
50140W        W21866   7.757   9.833   3.778
50141W        W21867   4.801   4.896  11.009
50142W        W21868  21.447  38.806   1.819
50143W        W21869  20.760   6.970   4.242
50144W        W21870  25.709  27.153   1.458
50145W        W21871  42.080   1.270   3.653
50146W        W21872  24.913  26.701  10.225
50147W        W21873  21.034   3.762   2.184
50148W        W21874   5.744  33.536  11.092
50149W        W21875  10.177   9.891   5.136
50150W        W21876  40.605  32.543   3.089
50151W        W21877  44.723  28.650  10.371
50152W        W21878   4.455  12.823   3.601
50153W        W21879  11.785   8.361   4.627
50154W        W21880  40.305  16.429   1.573
50155W        W21881   2.036  43.419   2.279
50156W        W21882   9.799  13.767   0.856
50157W        W21883  27.009  16.293   0.488
50158W        W21884  39.035  43.205  12.044
50159W        W21885  20.798   8.712  12.912
50160W        W21886   3.687   6.891   0.780
50161W        W21887   9.101  31.904  10.705
50162W        W21888  24.992  10.827  12.227
50163W        W21889  37.504  44.217  12.556
50164W        W21890   6.901  30.017  12.858
50165W        W21891  12.017  27.255  12.031
50166W        W21892  18.644  36.973   2.350
50167W        W21893   7.978  31.181   0.966
50168W        W21894  31.581  35.013  12.193
50169W        W21895  35.885   0.773  12.508
50170W        W21896  30.440  37.586  11.012
50171W        W21897  26.187  20.310   3.263
50172W        W21898   0.674   8.116   1.327
50173W        W21899  20.742  24.683   0.176
50174W        W21900  19.607  37.547  10.593
50175W        W21901  37.622  19.507   4.695
50176W        W21902   1.536  20.631   0.409
50177W        W21903  29.596   4.214   1.668
50178W        W21904   4.719   5.009   4.489
50179W        W21905   1.796   8.554   5.010
50180W        W21906  44.392  25.188   2.761
50181W        W21907  35.525  14.630   0.694
50182W        W21908  25.980  13.601  11.592
50183W        W21909  37.482   3.347   0.047
50184W        W21910  41.354  37.091  13.191
50185W        W21911   3.321  15.390  12.482
50186W        W21912  43.928   6.150  11.045
50187W        W21913  43.704   5.549   1.987
50188W        W21914  27.425   8.057   3.960
50189W        W21915  25.747  15.863  10.540
50190W        W21916  40.090  15.354   3.695
50191W        W21917  40.100   9.661  14.535
50192W        W21918  35.594  34.134   4.156
50193W        W21919  22.476   4.554   4.913
50194W        W21920  25.430   1.669   9.817
50195W        W21921  22.994  18.146   1.292
50196W        W21922  43.488  18.486  11.152
50197W        W21923  38.461  30.118  12.134
50198W        W21924  13.287  30.158  12.773
50199W        W21925  29.552   8.217   0.690
50200W        W21926   0.776  16.022  11.255
50201W        W21927  33.701  41.329   0.782
50202W        W21928  41.899  39.782  11.182
50203W        W21929  35.613  28.088  13.461
50204W        W21930  23.047  37.984  12.967
50205W        W21931  14.140   4.684   4.085
50206W        W21932  17.559  32.432  14.012
50207W        W21933   4.265  33.540   0.375
50208W        W21934  43.975  25.801   1.332
50209W        W21935  28.094   1.830  14.066
50210W        W21936  37.175  16.757   2.292
50211W        W21937  14.683   8.575   2.794
50212W        W21938  39.490  14.233  12.918
50213W        W21939   0.712  17.100  13.585
50214W        W21940  39.782  28.217  13.060
50215W        W21941   3.821   2.287   1.115
50216W        W21942  30.551  20.809   4.069
50217W        W21943   7.248  39.235   2.435
50218W        W21944   4.952   8.820   3.761
50219W        W21945  21.025  11.343   9.832
50220W        W21946  21.156  29.382  12.075
50221W        W21947  33.629  43.505  11.824
50222W        W21948  26.165  10.180   2.259
50223W        W21949  26.300  10.970   3.174
50224W        W21950  10.769   7.829   3.714
50225W        W21951  24.312  38.462  13.101
50226W        W21952  39.271   0.000   3.018
50227W        W21953   4.462  35.465  12.229
50228W        W21954   8.662  43.860   2.237
50229W        W21955   2.825  14.625  13.898
50230W        W21956   3.385  37.414   1.673
50231W        W21957  42.566  11.833   1.385
50232W        W21958  22.402  19.549  13.526
50233W        W21959   3.004   8.302   4.448
50234W        W21960   0.414  13.979  12.750
50235W        W21961  43.476  25.799   0.429
50236W        W21962   7.795  36.378  10.551
50237W        W21963  29.383  24.909  13.079
50238W        W21964  13.198  22.381  14.522
50239W        W21965  30.129  41.434   4.306
50240W        W21966  30.886  32.800   0.744
50241W        W21967  14.879  29.164   3.838
50242W        W21968   8.924   0.451   3.716
50243W        W21969  14.074  10.678  10.559
50244W        W21970   9.922  23.208   4.993
50245W        W21971  35.898  18.428   1.706
50246W        W21972  10.728  27.087  13.814
50247W        W21973  21.703   4.732   3.126
50248W        W21974  29.166  28.177   0.478
50249W        W21975  38.799  24.044   0.099
50250W        W21976  22.646  23.724  12.537
50251W        W21977  16.220   0.477   4.622
50252W        W21978  43.014   4.239   4.658
50253W        W21979  18.725  28.975   4.091
50254W        W21980  35.084  20.052   0.667
50255W        W21981  27.418   5.418   1.239
50256W        W21982  22.110   1.779   5.077
50257W        W21983   8.576  23.940   3.739
50258W        W21984  23.505   8.180   3.266
50259W        W21985  39.064  21.182  13.317
50260W        W21986  21.359  24.012  11.125
50261W        W21987  43.301  15.827   1.102
50262W        W21988  27.041   0.433   4.244
50263W        W21989  11.264  11.864   1.749
50264W        W21990  11.889  40.896   0.509
50265W        W21991  32.640   6.307  13.508
50266W        W21992   6.810   1.375  10.760
50267W        W21993  24.594  28.049   4.356
50268W        W21994   2.816   1.998   3.872
50269W        W21995  37.493  41.485   2.669
50270W        W21996  33.344   1.364   2.825
50271W        W21997  29.440   9.808   3.265
50272W        W21998  28.147  30.539   4.099
50273W        W21999   1.099  17.937  13.443
50274W        W22000   3.699   5.123   2.750
50275W        W22001  13.743   6.356   3.104
50276W        W22002  43.498  31.747   0.224
50277W        W22003   5.255   7.651   3.196
50278W        W22004  32.180   1.727  12.048
50279W        W22005  21.612   0.473  12.319
50280W        W22006   8.166  21.604   4.953
50281W        W22007  14.286   6.875  14.815
50282W        W22008  33.292  32.160  13.675
50283W        W22009  15.603   9.674   3.331
50284W        W22010   9.298  41.098   4.169
50285W        W22011  33.057  42.512  13.029
50286W        W22012  34.552  19.362  10.438
50287W        W22013  22.373  38.547   0.789
50288W        W22014  36.867  26.186  13.002
50289W        W22015  36.509  11.396   3.026
50290W        W22016   3.157   1.938  12.869
50291W        W22017  35.646   2.924  13.987
50292W        W22018  25.563  23.280  14.075
50293W        W22019  14.119  30.050   4.862
50294W        W22020  35.531  26.302   3.716
50295W        W22021   4.104   4.204   4.615
50296W        W22022   8.618  22.591   3.272
50297W        W22023  33.242  41.889   3.692
50298W        W22024   3.986  10.591  13.770
50299W        W22025  31.492  27.731  13.550
50300W        W22026  26.899  33.518  11.059
50301W        W22027  35.488  41.421   4.642
50302W        W22028  28.169  12.907   2.691
50303W        W22029  23.628   5.337   2.083
50304W        W22030  21.731  40.827   1.722
50305W        W22031  27.191  13.173  13.025
50306W        W22032  36.998  23.088  14.935
50307W        W22033  12.130   6.810  13.309
50308W        W22034  24.100  39.517   3.807
50309W        W22035   4.694  24.009  10.598
50310W        W22036  33.366  36.069   2.456
50311W        W22037  14.535  24.617  12.807
50312W        W22038  42.984  40.418   1.972
50313W        W22039   1.222  18.486   2.907
50314W        W22040   7.615  11.854  10.643
50315W        W22041   2.763  30.777  11.719
50316W        W22042   7.814  19.592  13.016
50317W        W22043  44.738  41.324  14.483
50318W        W22044   1.061  17.921   0.058
50319W        W22045   3.357  23.633  13.254
50320W        W22046  34.443   6.193  13.083
50321W        W22047  36.547  27.915  10.856
50322W        W22048  32.204  11.754  14.899
50323W        W22049  26.023  32.431  10.953
50324W        W22050  10.258  12.619  12.498
50325W        W22051  25.434   1.340  10.790
50326W        W22052  31.191  15.644   2.378
50327W        W22053  31.186  18.569  12.983
50328W        W22054  41.986  26.706   1.694
50329W        W22055  14.391  37.233   3.318
50330W        W22056  34.506  44.493   3.641
50331W        W22057  44.223  19.091  11.922
50332W        W22058  36.492  27.261  12.585
50333W        W22059  24.144  13.924   1.379
50334W        W22060   8.923  18.017  12.551
50335W        W22061  29.141  44.461   2.435
50336W        W22062  24.055  29.146   1.242
50337W        W22063  18.256  31.620   0.817
50338W        W22064  31.000  40.036  14.267
50339W        W22065   6.837  37.343  13.360
50340W        W22066  30.445  28.761  12.128
50341W        W22067   3.916   3.867   3.246
50342W        W22068   4.954  42.991  14.450
50343W        W22069  24.496  15.266  13.960
50344W        W22070  25.452  13.615   2.811
50345W        W22071   5.868   5.702   4.136
50346W        W22072   3.947  35.117   2.817
50347W        W22073  14.315  15.361   3.924
50348W        W22074  19.376  26.951  13.849
50349W        W22075  29.067  31.034  11.448
50350W        W22076  16.296  23.275   3.704
50351W        W22077  31.606  15.208   4.606
50352W        W22078  20.543   4.782  12.780
50353W        W22079  19.637  35.131  11.978
50354W        W22080  39.746  36.047   1.356
50355W        W22081  32.881  25.082   2.667
50356W        W22082   2.490  37.384   4.552
50357W        W22083  24.288   8.506  11.602
50358W        W22084   6.830   4.499  11.487
50359W        W22085   3.456   7.413  13.078
50360W        W22086  19.304  28.140   3.877
50361W        W22087  28.678   0.934  11.570
50362W        W22088  30.915  16.314  14.852
50363W        W22089  43.309   1.372   3.842
50364W        W22090  35.523   3.977  13.123
50365W        W22091  13.313  13.082   4.612
50366W        W22092  12.085  15.653   4.248
50367W        W22093   3.541  39.061  10.652
50368W        W22094  27.733  10.145   0.492
50369W        W22095  28.134  42.867   1.468
50370W        W22096  28.337  13.790   1.662
50371W        W22097   7.195   1.973  11.529
50372W        W22098  21.290  25.351  10.257
50373W        W22099  11.292   7.371   4.299
50374W        W22100  35.316  30.874   1.762
50375W        W22101  22.012   9.089   1.993
50376W        W22102  33.724  35.544  14.495
50377W        W22103   2.371   6.909   2.702
50378W        W22104  39.590  23.984   4.101
50379W        W22105  37.600  16.073   2.606
50380W        W22106   0.002   8.156   4.732
50381W        W22107  27.304  22.099  11.606
50382W        W22108  20.900  25.942   4.098
50383W        W22109  44.464  14.571  10.820
50384W        W22110   3.943  39.800   4.052
50385W        W22111   2.795   1.177   4.273
50386W        W22112  34.323   0.952  11.517
50387W        W22113  32.543  16.935   1.263
50388W        W22114  24.548  37.557   2.685
50389W        W22115  34.303  12.759  11.211
50390W        W22116   9.183   9.117   4.844
50391W        W22117  35.518  36.579   2.700
50392W        W22118   4.255  37.893  12.084
50393W        W22119   3.656  40.724  14.774
50394W        W22120  28.892  41.831   3.407
50395W        W22121  35.877  17.776  11.111
50396W        W22122  40.685  31.112   2.480
50397W        W22123  43.736  13.700   2.837
50398W        W22124  14.665  11.414   2.472
50399W        W22125   8.872  22.255   4.660
50400W        W22126  35.299  30.162  11.648
50401W        W22127  19.769  37.904   4.317
50402W        W22128  34.949  14.449  11.590
50403W        W22129   9.866  18.040  13.502
50404W        W22130  38.489  13.178  10.990
50405W        W22131  23.864  37.011   4.289
50406W        W22132  26.522   3.507   1.821
50407W        W22133  35.119   4.158   1.074
50408W        W22134   8.395   6.306   3.203
50409W        W22135   0.345  10.335   0.679
50410W        W22136   7.409  11.993  13.066
50411W        W22137  33.337  25.926   3.581
50412W        W22138   0.857  44.330   0.622
50413W        W22139  34.427  25.134   0.014
50414W        W22140  18.668  35.631   1.327
50415W        W22141  25.721   6.073  13.256
50416W        W22142  34.540  33.900  10.719
50417W        W22143  29.671  37.601  14.360
50418W        W22144  29.591  39.608   1.847
50419W        W22145  40.185  43.706   0.571
50420W        W22146  26.624   5.240  12.023
50421W        W22147  14.796  40.424  10.642
50422W        W22148  15.652  23.928   0.206
50423W        W22149   0.847   6.295  11.531
50424W        W22150  40.624   2.511   1.887
50425W        W22151  16.282  21.237  11.454
50426W        W22152  14.790  40.438   1.780
50427W        W22153  17.534  11.175  14.883
50428W        W22154  13.776   7.141   3.775
50429W        W22155  22.540  10.317  14.291
50430W        W22156  11.280  22.161   4.268
50431W        W22157  15.774  36.106  14.576
50432W        W22158  26.406  41.035   4.202
50433W        W22159  29.390   7.816   1.521
50434W        W22160  42.414  11.263   1.920
50435W        W22161   9.433  30.558   3.784
50436W        W22162   0.176  24.883  13.978
50437W        W22163  32.415  36.940   0.355
50438W        W22164   8.369  34.508  11.452
50439W        W22165  34.900  27.096  12.838
50440W        W22166  31.264  14.582   1.786
50441W        W22167  13.203  16.784   0.303
50442W        W22168   0.326  27.476   0.302
50443W        W22169  12.708  17.013  12.351
50444W        W22170  39.886  14.209   0.387
50445W        W22171  10.940  40.398   1.013
50446W        W22172  15.049  44.235   4.185
50447W        W22173   2.814  19.690   1.502
50448W        W22174  30.420   1.445   0.460
50449W        W22175  21.971   7.908   1.171
50450W        W22176   4.374   1.414   0.414
50451W        W22177  24.731  44.500  12.315
50452W        W22178   9.280  33.525  10.714
50453W        W22179  33.040   4.962  14.870
50454W        W22180   1.513  37.000  10.754
50455W        W22181  10.911  18.855   4.085
50456W        W22182   6.865  38.463  11.455
50457W        W22183  29.140  26.626  12.495
50458W        W22184  16.098   1.772   2.724
50459W        W22185  15.112  44.546  11.965
50460W        W22186  23.496  43.395   4.159
50461W        W22187   7.453   0.858   3.075
50462W        W22188  27.742  11.408  10.618
50463W        W22189  38.073  30.575   0.811
50464W        W22190  32.134  37.521   3.734
50465W        W22191  36.974  15.813  13.965
50466W        W22192  32.903  28.194  12.358
50467W        W22193  11.843  39.523  11.115
50468W        W22194  16.843  41.289   0.036
50469W        W22195  17.724  18.475  11.279
50470W        W22196   5.232   7.911   1.808
50471W        W22197   0.980  31.186  11.143
50472W        W22198   8.744  44.407   4.386
50473W        W22199  26.728  28.230   1.284
50474W        W22200  34.450  17.835  10.801
50475W        W22201   2.391  25.732   2.717
50476W        W22202   6.271   3.046  10.796
50477W        W22203  24.234   0.514   5.567
50478W        W22204  29.919  35.384  12.874
50479W        W22205   3.063   8.314  10.737
50480W        W22206  44.254  10.688   2.265
50481W        W22207  29.718  12.727  13.423
50482W        W22208  14.719  12.721   3.682
50483W        W22209  43.226  15.316   1.269
50484W        W22210  18.186   8.933   4.840
50485W        W22211  28.564  23.162  10.530
50486W        W22212  11.269  40.404  13.110
50487W        W22213  29.711  40.070   3.694
50488W        W22214  40.428  39.804  13.826
50489W        W22215   5.449  24.250   3.641
50490W        W22216  15.715  40.325   9.790
50491W        W22217   1.113   4.407  14.130
50492W        W22218  13.100  42.834  13.933
50493W        W22219  13.580  11.221   3.842
50494W        W22220  42.256  36.337   3.281
50495W        W22221  12.218  35.939  13.834
50496W        W22222  40.981  15.037   2.255
50497W        W22223  32.091  44.042  11.085
50498W        W22224  18.232  14.399  13.473
50499W        W22225  23.671  14.573   2.802
50500W        W22226  40.073   6.724  10.987
50501W        W22227  39.634  17.196  11.712
50502W        W22228  43.653   5.018  12.888
50503W        W22229  43.524  10.263  12.998
50504W        W22230  31.855  34.062   1.283
50505W        W22231  37.963  25.699   0.485
50506W        W22232  25.862  11.779   4.664
50507W        W22233  18.039   8.745   1.284
50508W        W22234  39.734   5.312   3.290
50509W        W22235  42.990   6.396  13.566
50510W        W22236  39.546  10.154  13.886
50511W        W22237  29.345  39.912  10.663
50512W        W22238  16.658  14.217   1.854
50513W        W22239  37.842  27.973   4.472
50514W        W22240   6.769  33.899   0.715
50515W        W22241  44.796  37.369  12.484
50516W        W22242  44.507  39.497   0.882
50517W        W22243  40.596  31.334   0.002
50518W        W22244  32.042  12.802   1.626
50519W        W22245  27.072  37.075  11.181
50520W        W22246  42.675   3.197   4.140
50521W        W22247  31.557  37.415  11.001
50522W        W22248  19.210  37.854  14.040
50523W        W22249  10.904  11.275  12.642
50524W        W22250  23.021  11.639   0.839
50525W        W22251   3.800  24.418  14.740
50526W        W22252  26.889   0.034   0.765
50527W        W22253   9.727  24.084  10.177
50528W        W22254  25.495  14.245  12.480
50529W        W22255  26.007  17.272  13.481
50530W        W22256   3.167  25.096  11.258
50531W        W22257   0.982   7.510  11.233
50532W        W22258  28.641  18.048   3.100
50533W        W22259  36.625  44.537  11.670
50534W        W22260  24.740  33.480   0.880
50535W        W22261  33.325   9.693   0.774
50536W        W22262  37.266  16.026  10.829
50537W        W22263  29.962  36.663  11.037
50538W        W22264  31.850  44.557  12.817
50539W        W22265  12.755   1.919  12.828
50540W        W22266  40.300  26.943  13.800
50541W        W22267  16.587  31.915   2.908
50542W        W22268  14.700  22.685   1.367
50543W        W22269  28.087  42.609  13.939
50544W        W22270  37.842  37.330   2.840
50545W        W22271   2.723  18.790   0.816
50546W        W22272  21.978  27.504  11.508
50547W        W22273   4.346  37.299   1.706
50548W        W22274   3.853  31.893   1.302
50549W        W22275  43.959   3.001   3.181
50550W        W22276  23.731   2.753  13.932
50551W        W22277  26.181  13.686  14.006
50552W        W22278  11.760  31.838  11.199
50553W        W22279   9.152  42.405   1.696
50554W        W22280  18.475  43.748  11.173
50555W        W22281  24.146   5.404   3.284
50556W        W22282  41.289  42.198  11.500
50557W        W22283  34.887  14.051   1.731
50558W        W22284  20.154  11.535   2.327
50559W        W22285   4.033   4.612  10.498
50560W        W22286  35.992  38.823   4.005
50561W        W22287  12.063   8.178  10.732
50562W        W22288  12.356  21.420  14.980
50563W        W22289  22.904   3.476   2.228
50564W        W22290  11.042  41.865  10.656
50565W        W22291  34.692  13.522   4.122
50566W        W22292  33.358  19.818   1.300
50567W        W22293  26.274  37.499   4.186
50568W        W22294  43.821   6.338  11.530
50569W        W22295   9.212  27.587   2.371
50570W        W22296  44.010  10.897  12.417
50571W        W22297  24.681  43.248   4.995
50572W        W22298  11.272  36.020   4.261
50573W        W22299   8.908   8.085   0.406
50574W        W22300  38.421  39.062  12.530
50575W        W22301  44.394  37.241   3.172
50576W        W22302   6.720   2.853   3.601
50577W        W22303   2.432  33.317  10.810
50578W        W22304  25.763   4.681  11.252
50579W        W22305  16.739  41.932  11.781
50580W        W22306  39.376  13.086   1.810
50581W        W22307  38.927  20.690  14.119
50582W        W22308  33.634   5.281   4.558
50583W        W22309  32.036  23.517   3.823
50584W        W22310  42.937  21.542  13.317
50585W        W22311  11.292  39.195  10.657
50586W        W22312  30.113  16.946   2.798
50587W        W22313  11.321   7.297  11.426
50588W        W22314   4.692  16.621   1.378
50589W        W22315   8.729  38.094  14.781
50590W        W22316  35.733  36.402  14.291
50591W        W22317  22.257   3.208   2.827
50592W        W22318  14.801  35.337   1.292
50593W        W22319  33.610  17.191   1.113
50594W        W22320   1.089  33.084  11.933
50595W        W22321  29.669  25.930   2.419
50596W        W22322  18.684  43.268   4.401
50597W        W22323   5.246   4.703  11.870
50598W        W22324  28.021  35.090  11.929
50599W        W22325  13.326  31.980  10.633
50600W        W22326  37.121  21.730  14.433
50601W        W22327  16.736  34.587   1.936
50602W        W22328  13.421  19.265   1.209
50603W        W22329  20.248  35.186   2.320
50604W        W22330  39.178  16.512  11.057
50605W        W22331  18.140  38.612   1.962
50606W        W22332  26.982  37.599  12.092
50607W        W22333  37.483  32.002  11.284
50608W        W22334  33.320  24.210  10.629
50609W        W22335  23.516  29.831   0.022
50610W        W22336  44.081   8.514   1.395
50611W        W22337  16.611  24.711  14.565
50612W        W22338  19.357  21.718  14.013
50613W        W22339  17.937  41.044  12.972
50614W        W22340   9.523  22.119  10.257
50615W        W22341  19.132  25.150   3.166
50616W        W22342   3.255   3.710  13.378
50617W        W22343   2.742   5.525  13.318
50618W        W22344   5.000  34.454   1.267
50619W        W22345  20.089  36.847   0.320
50620W        W22346  38.349  35.552  14.494
50621W        W22347  27.516  19.855  13.555
50622W        W22348  39.838   5.829  11.989
50623W        W22349  12.715   3.769  10.960
50624W        W22350  43.717   4.498  12.365
50625W        W22351  16.648  15.715  13.546
50626W        W22352   2.916   7.948   2.123
50627W        W22353   8.392  39.509  11.343
50628W        W22354  27.296  37.750  13.907
50629W        W22355  14.061  42.809  12.008
50630W        W22356   2.610  29.714  13.084
50631W        W22357  24.805  10.064  13.486
50632W        W22358  10.195  10.058   4.578
50633W        W22359  26.137  17.781  13.482
50634W        W22360  13.926  32.215   3.284
50635W        W22361  36.057   9.730  13.822
50636W        W22362  44.149  38.059   4.762
50637W        W22363  23.027  15.142  10.649
50638W        W22364   0.939  34.552  10.388
50639W        W22365  22.078   4.692  11.389
50640W        W22366  11.597   1.016   4.950
50641W        W22367  17.675   1.582  11.918
50642W        W22368  23.487  12.612   4.559
50643W        W22369  25.140  21.941  13.882
50644W        W22370   3.328  39.259  11.481
50645W        W22371   0.555  27.890   2.335
50646W        W22372  23.551  28.111  14.683
50647W        W22373   8.333  41.793   0.272
50648W        W22374  14.691  39.057   2.911
50649W        W22375  11.394  11.611  13.428
50650W        W22376   0.445  12.660  14.771
50651W        W22377  27.978   3.419   4.226
50652W        W22378  18.269   0.902  11.212
50653W        W22379  42.277   9.888   2.612
50654W        W22380  31.967  35.573  14.255
50655W        W22381   5.154  24.141  14.548
50656W        W22382  42.006   1.761   0.296
50657W        W22383  40.450   9.543  14.918
50658W        W22384  16.428   0.278   4.017
50659W        W22385  34.331  42.756  10.664
50660W        W22386  37.039  36.510  14.651
50661W        W22387  13.188  12.933  11.935
50662W        W22388  33.838  11.270   4.884
50663W        W22389  29.600  19.161  14.332
50664W        W22390  15.308  10.402   2.152
50665W        W22391  29.450  19.197  14.821
50666W        W22392  12.871  38.950   4.472
50667W        W22393   8.703  20.339   0.859
50668W        W22394   4.495  32.151  13.454
50669W        W22395  18.382  26.519   1.903
50670W        W22396  19.274   9.105   0.800
50671W        W22397  38.736   4.949  14.260
50672W        W22398  42.654   9.361   3.108
50673W        W22399  23.176  14.535  10.192
50674W        W22400  30.545   3.385  10.671
50675W        W22401  10.438  23.941   2.768
50676W        W22402  36.447   8.427  12.312
50677W        W22403  20.109  43.328   2.768
50678W        W22404  29.514  18.314   3.659
50679W        W22405  33.878  43.800  11.397
50680W        W22406  19.681  32.610   1.399
50681W        W22407  26.306  10.340   2.734
50682W        W22408  15.766   8.910  11.039
50683W        W22409  29.199  23.516   2.554
50684W        W22410   8.158  25.548   0.019
50685W        W22411  31.048  40.992   3.579
50686W        W22412  29.322  18.089   2.016
50687W        W22413   2.413  31.434   3.106
50688W        W22414  15.174  36.505  13.926
50689W        W22415   8.334  12.278  14.021
50690W        W22416   6.487  26.159  14.333
50691W        W22417  43.966  15.363  11.050
50692W        W22418  37.809  21.228  12.980
50693W        W22419   7.344   0.472  10.684
50694W        W22420   1.321   3.526   0.148
50695W        W22421  40.168  31.624  12.623
50696W        W22422   7.303   4.361  14.244
50697W        W22423  38.999  23.454  14.412
50698W        W22424  41.406   2.205  12.490
50699W        W22425   5.853  42.948   0.583
50700W        W22426  22.561  21.491   1.448
50701W        W22427   6.332  38.541   3.645
50702W        W22428  43.775  27.942  14.195
50703W        W22429  25.197  29.574   1.490
50704W        W22430  17.576  11.079   3.622
50705W        W22431  23.111  18.616  12.664
50706W        W22432   5.931  10.322   1.092
50707W        W22433  27.185  24.062  12.943
50708W        W22434  36.258  42.762   3.708
50709W        W22435  26.955  38.056   4.504
50710W        W22436  21.673   0.747   2.932
50711W        W22437  14.297  22.617  13.423
50712W        W22438   2.005  38.832  12.808
50713W        W22439  16.539  16.511  14.043
50714W        W22440  19.331  19.888   1.785
50715W        W22441  18.548  33.939  13.930
50716W        W22442  19.187   8.285  13.406
50717W        W22443  20.083   0.878  12.858
50718W        W22444  10.328   0.379  13.921
50719W        W22445   0.641  41.076  12.086
50720W        W22446  32.416   7.124   2.732
50721W        W22447   9.682   7.420  11.247
50722W        W22448   6.105  28.602  10.524
50723W        W22449  37.009   6.820   0.441
50724W        W22450  25.019  22.253  14.354
50725W        W22451  19.009  31.077   2.721
50726W        W22452   3.101  28.675   1.821
50727W        W22453  15.600  26.292   4.636
50728W        W22454  39.171  39.580  11.230
50729W        W22455   7.410  34.144  11.793
50730W        W22456  12.660  15.661   1.826
50731W        W22457   0.390  17.527   1.698
50732W        W22458  22.625  14.876  10.810
50733W        W22459   2.605  13.885   1.480
50734W        W22460  42.050  19.394   5.044
50735W        W22461   4.222  34.005  10.745
50736W        W22462   1.193  41.487  13.988
50737W        W22463   1.554  40.178  11.065
50738W        W22464  26.021  37.974  14.889
50739W        W22465  31.349   4.640   3.694
50740W        W22466  41.877  41.375   4.602
50741W        W22467  29.139  33.863  13.593
50742W        W22468  11.330  43.096  11.180
50743W        W22469  39.217   8.340   0.373
50744W        W22470   4.786   8.085  10.972
50745W        W22471  20.455  20.617   3.792
50746W        W22472  41.557  43.324   0.988
50747W        W22473  27.390  13.338  12.519
50748W        W22474  10.519   0.552   3.143
50749W        W22475  44.192  29.391   2.895
50750W        W22476   1.017   2.126  11.672
50751W        W22477  25.862   0.834   4.677
50752W        W22478  13.794   4.656  11.162
50753W        W22479  28.880  25.121  14.812
50754W        W22480  33.666  22.449   0.088
50755W        W22481   9.275   9.289   0.298
50756W        W22482  40.823  16.530  12.440
50757W        W22483  14.325   8.425  12.587
50758W        W22484  27.738  35.951   3.207
50759W        W22485  21.370  37.374   2.938
50760W        W22486   0.888   6.271  12.417
50761W        W22487  30.541  42.406  10.182
50762W        W22488  13.045  28.720   2.723
50763W        W22489  40.568  36.652   1.782
50764W        W22490  16.754   2.778   3.159
50765W        W22491   7.224   5.889   0.399
50766W        W22492  36.667  19.499  14.644
50767W        W22493  34.721   3.018  10.771
50768W        W22494  19.673  44.485  10.671
50769W        W22495   0.046  38.383   2.848
50770W        W22496   5.738   7.599   2.421
50771W        W22497  22.698  15.095   2.709
50772W        W22498   2.226  31.552   1.786
50773W        W22499  21.398  42.924   3.792
50774W        W22500   7.863  32.180   2.942
50775W        W22501  14.204  21.086  11.902
50776W        W22502   7.928  41.790   1.250
50777W        W22503  44.826  27.690  10.807
50778W        W22504   3.232   8.780  10.883
50779W        W22505  37.413  27.025   0.846
50780W        W22506  27.484  36.054  10.546
50781W        W22507   1.719   5.695   0.849
50782W        W22508   8.920   9.210   3.813
50783W        W22509   3.250  17.083   2.814
50784W        W22510  10.306   2.573   4.153
50785W        W22511  12.759  23.995  13.178
50786W        W22512  19.267  21.576   1.817
50787W        W22513   8.700  31.136   0.215
50788W        W22514   6.916   7.018   5.383
50789W        W22515   6.346  33.646   3.816
50790W        W22516   1.405   2.212  12.025
50791W        W22517  30.202   7.655   2.710
50792W        W22518  40.453  30.668   3.242
50793W        W22519  29.583  36.859   0.541
50794W        W22520   2.789  18.812   3.515
50795W        W22521  21.816  35.132  13.678
50796W        W22522  33.319  35.057   0.873
50797W        W22523   5.945  16.698   3.811
50798W        W22524  29.130  20.081  13.365
50799W        W22525  37.606  28.442   4.297
50800W        W22526   6.486   5.350  13.514
50801W        W22527   0.874   8.346   3.254
50802W        W22528   8.847  30.621  12.033
50803W        W22529  26.920  40.452   0.968
50804W        W22530  34.837  31.036   3.125
50805W        W22531  29.242  38.926  11.450
50806W        W22532  20.344  14.672  12.100
50807W        W22533  24.139  26.790  13.578
50808W        W22534   6.309  28.860  13.643
50809W        W22535  32.785  33.857  10.520
50810W        W22536  21.866   9.459   4.090
50811W        W22537  26.203  31.460  14.961
50812W        W22538  12.260  29.642   0.734
50813W        W22539   1.988  42.973   3.087
50814W        W22540  36.334  43.580  11.369
50815W        W22541   9.366  41.290  11.689
50816W        W22542  33.073  19.653  13.604
50817W        W22543  10.469  37.761  13.844
50818W        W22544   5.933  32.410  11.626
50819W        W22545   9.268  37.906   0.502
50820W        W22546  13.162  43.238   1.397
50821W        W22547  28.777  24.707   0.552
50822W        W22548  40.497  37.958   1.135
50823W        W22549   2.804  37.944   3.172
50824W        W22550  23.699   3.142   4.622
50825W        W22551  19.244   2.287   0.057
50826W        W22552  11.603  43.433  11.553
50827W        W22553   4.858   5.884  10.819
50828W        W22554  24.626   9.671   1.273
50829W        W22555  20.684   0.420   4.642
50830W        W22556  32.604   6.858   4.137
50831W        W22557  24.488  38.516   1.496
50832W        W22558   5.321  29.345   2.390
50833W        W22559   7.861  16.806  12.483
50834W        W22560   2.957  31.198   0.896
50835W        W22561  17.162  37.668  12.909
50836W        W22562  38.958  13.388  14.568
50837W        W22563   0.736  35.692   1.214
50838W        W22564  10.320   3.857  13.902
50839W        W22565  28.881   4.731  12.603
50840W        W22566  32.349  35.422   3.112
50841W        W22567   9.238  43.946   1.286
50842W        W22568  33.340  23.039  13.807
50843W        W22569  32.366  27.097  14.946
50844W        W22570  24.147  36.062   4.035
50845W        W22571   8.357  17.351   4.589
50846W        W22572  18.773  15.976  12.814
50847W        W22573   8.270  33.033   3.228
50848W        W22574  14.839  30.513   4.753
50849W        W22575   7.108   9.671   1.401
50850W        W22576  36.446  20.773   0.296
50851W        W22577  15.145  33.166  13.011
50852W        W22578   8.275  23.560   5.512
50853W        W22579  27.333  10.253   2.789
50854W        W22580  11.240  12.381  13.670
50855W        W22581   3.398  40.486   4.372
50856W        W22582   1.413  15.169   2.397
50857W        W22583  19.113  34.123   3.049
50858W        W22584  34.014  33.829  11.946
50859W        W22585  21.481  30.385   2.340
50860W        W22586  28.959  35.985   1.885
50861W        W22587  39.120  17.941  13.798
50862W        W22588   8.723  14.953  11.905
50863W        W22589  31.445  44.798   3.318
50864W        W22590  36.310  17.205   1.240
50865W        W22591  35.920  18.590   1.199
50866W        W22592  22.640   2.511   2.183
50867W        W22593  16.514  19.133   3.258
50868W        W22594  41.466   4.738   1.392
50869W        W22595   5.001  39.081  14.335
50870W        W22596  39.460  18.575  10.663
50871W        W22597  22.960   5.781  14.708
50872W        W22598  35.370  41.926   4.534
50873W        W22599   6.720   0.681   0.392
50874W        W22600   6.488  14.827   4.965
50875W        W22601  10.106   2.862   2.945
50876W        W22602  21.331   1.771  14.502
50877W        W22603  38.471  19.521   0.703
50878W        W22604  41.318  44.475   1.206
50879W        W22605  38.598   2.961  10.740
50880W        W22606  30.595  43.063  13.029
50881W        W22607  39.329  13.240  10.664
50882W        W22608  22.544  25.478  13.023
50883W        W22609  34.264   5.809   4.839
50884W        W22610  16.088  22.487  11.488
50885W        W22611   4.805   7.663  12.537
50886W        W22612   3.580  20.254   1.806
50887W        W22613   3.461  42.510   4.448
50888W        W22614  28.187  10.104  13.440
50889W        W22615  35.304  38.266  13.116
50890W        W22616  24.705   7.588   2.376
50891W        W22617  20.553  28.228   1.493
50892W        W22618   7.643  31.082   1.920
50893W        W22619  31.207  37.765  14.279
50894W        W22620  28.146  11.158   1.809
50895W        W22621  18.042   9.173   3.763
50896W        W22622  27.411  35.097   0.772
50897W        W22623  20.173  42.815   0.561
50898W        W22624   8.321   3.522   3.230
50899W        W22625  25.027  35.159  11.170
50900W        W22626  23.160  31.088   3.664
50901W        W22627  21.832  35.459   1.968
50902W        W22628  37.191  23.223   4.794
50903W        W22629  25.665   8.354  12.395
50904W        W22630  41.367   3.229   4.531
50905W        W22631   0.882   0.251   0.251
50906W        W22632  25.767  22.961   4.835
50907W        W22633   5.948   6.355  11.407
50908W        W22634   3.428  29.995   2.285
50909W        W22635  11.834  43.342   4.408
50910W        W22636  41.727  24.573   0.986
50911W        W22637  14.284  38.398  14.720
50912W        W22638  31.609  26.427   1.729
50913W        W22639  34.048   9.837  11.852
50914W        W22640  40.851  36.342   2.846
50915W        W22641  21.243  11.105  11.130
50916W        W22642  40.567   6.231  10.749
50917W        W22643   3.118  32.412  12.904
50918W        W22644  44.840  17.133   1.122
50919W        W22645  38.006   8.259   4.423
50920W        W22646  18.823  16.672  11.601
50921W        W22647  32.029  34.684  13.947
50922W        W22648  35.088  44.929  13.476
50923W        W22649  25.555   7.440   0.929
50924W        W22650  24.196  28.687  12.546
50925W        W22651  22.275   8.442   0.317
50926W        W22652   2.549  31.201  13.315
50927W        W22653  44.592   9.149   0.749
50928W        W22654  25.727  24.455  11.003
50929W        W22655  10.582  30.648   3.192
50930W        W22656  22.011  34.474  12.048
50931W        W22657   2.459  40.639   1.874
50932W        W22658  22.574  24.647  10.278
50933W        W22659  36.177  18.945  14.140
50934W        W22660  19.301  31.346  10.564
50935W        W22661   2.270  19.781  10.390
50936W        W22662  11.277  27.370  14.588
50937W        W22663  31.430  34.423  11.508
50938W        W22664  38.933  33.622  13.830
50939W        W22665  27.162   2.819   0.890
50940W        W22666  26.176  30.177   1.706
50941W        W22667  34.429  40.107  14.720
50942W        W22668  19.274   0.294  12.896
50943W        W22669  13.278  31.637   1.827
50944W        W22670  13.148  37.234   1.948
50945W        W22671  31.968   0.191   0.302
50946W        W22672  13.314  10.096  11.583
50947W        W22673  15.315  14.375   4.141
50948W        W22674  42.941  22.427   4.961
50949W        W22675  18.065  27.980  13.012
50950W        W22676  23.780  41.622  12.147
50951W        W22677  42.892  15.798   1.748
50952W        W22678  20.912  23.491   3.061
50953W        W22679  29.230   6.227   1.813
50954W        W22680  35.120  17.244  11.830
50955W        W22681   9.785   9.827   0.938
50956W        W22682  40.282  22.261  14.502
50957W        W22683  30.952   7.085   3.099
50958W        W22684  35.170  34.197   1.811
50959W        W22685  42.833  35.339   3.720
50960W        W22686  29.620   1.253  11.626
50961W        W22687   4.587  18.545  14.931
50962W        W22688  30.399   2.396  12.902
50963W        W22689   6.868   7.709   3.850
50964W        W22690   3.792  29.520   4.820
50965W        W22691   0.813  10.382  11.632
50966W        W22692  36.818  41.961  13.096
50967W        W22693  27.677  27.985  14.390
50968W        W22694  26.346  12.285  12.573
50969W        W22695  24.770  32.990  13.289
50970W        W22696  39.357  44.269  12.918
50971W        W22697  19.220  20.009   3.144
50972W        W22698   2.969  34.299   4.080
50973W        W22699  10.651  12.386  14.934
50974W        W22700  33.302   9.552   2.349
50975W        W22701   9.872  40.787  14.035
50976W        W22702   5.593   6.815  11.856
50977W        W22703  26.842  42.876  13.595
50978W        W22704   2.645  21.173   2.202
50979W        W22705  26.183  37.775  11.928
50980W        W22706  30.765  31.493   1.460
50981W        W22707  11.647   2.212  14.971
50982W        W22708  44.755  30.623   3.724
50983W        W22709   0.065  25.941  14.560
50984W        W22710  21.039  42.903   4.166
50985W        W22711  29.473  35.418   4.907
50986W        W22712  17.873  22.839   1.175
50987W        W22713  44.481   9.056  10.416
50988W        W22714  22.990  25.956  10.589
50989W        W22715  17.077   9.144  12.956
50990W        W22716  38.076  29.680   1.017
50991W        W22717  23.445  43.735   0.885
50992W        W22718   0.256   6.678   1.305
50993W        W22719  22.620  41.485  11.768
50994W        W22720   0.502  11.693   0.738
50995W        W22721   3.672   7.283  13.777
50996W        W22722  14.781  15.053  12.028
50997W        W22723   1.724  41.996  12.570
50998W        W22724  25.129  26.453  11.545
50999W        W22725   1.229  31.453   1.825
51000W        W22726  26.160  35.118   0.378
51001W        W22727   7.328  39.884   0.964
51002W        W22728   4.467  16.047  14.505
51003W        W22729  17.765  14.044  11.651
51004W        W22730  14.038   1.035  11.075
51005W        W22731  10.193  38.204  11.744
51006W        W22732  20.590  12.412  11.630
51007W        W22733  10.692   0.462  11.650
51008W        W22734  27.948   0.706  10.387
51009W        W22735  38.384  30.369  10.795
51010W        W22736   2.968  22.747   0.205
51011W        W22737  31.462  36.448  12.817
51012W        W22738  41.381  33.215   1.839
51013W        W22739  43.038   3.295  11.160
51014W        W22740   4.994   3.944   4.924
51015W        W22741  24.593  22.968  11.677
51016W        W22742   7.746  36.619  11.019
51017W        W22743   8.967  40.364  11.555
51018W        W22744  35.506  25.955   1.854
51019W        W22745  15.527  28.498  11.650
51020W        W22746  38.578  29.795   1.033
51021W        W22747  18.883   0.030  13.116
51022W        W22748  38.686  37.937  13.166
51023W        W22749   3.634  29.755   0.810
51024W        W22750  13.066  12.925   2.554
51025W        W22751  11.335  32.802   2.736
51026W        W22752  20.086   4.870  13.010
51027W        W22753   5.509   6.224  12.437
51028W        W22754  28.654   2.533   4.250
51029W        W22755  32.733  28.100  12.845
51030W        W22756  42.095  10.769   4.106
51031W        W22757   2.475  24.385  12.003
51032W        W22758  14.221   4.223   4.337
51033W        W22759  32.374  12.454   1.840
51034W        W22760   3.839  20.134   1.369
51035W        W22761  18.489  36.857   1.844
51036W        W22762  35.195   8.757  10.987
51037W        W22763  11.697  42.255  11.076
51038W        W22764  29.526  34.547  11.587
51039W        W22765  11.650   5.822  11.237
51040W        W22766  44.487   5.091   1.277
51041W        W22767  40.311   2.187   2.358
51042W        W22768   4.892  39.025   4.316
51043W        W22769  32.741  12.500  12.930
51044W        W22770  18.762  38.085  11.379
51045W        W22771  24.155  38.497   3.628
51046W        W22772   8.408   0.882   4.314
51047W        W22773  26.526  21.182   3.186
51048W        W22774  14.419  11.289  12.517
51049W        W22775  19.629  25.037   0.888
51050W        W22776  27.010  19.439   0.991
51051W        W22777   3.928   0.378   2.628
51052W        W22778  39.473  24.183  11.430
51053W        W22779  38.734  30.261  11.685
51054W        W22780  36.712  31.047  11.934
51055W        W22781   0.216   1.266   3.797
51056W        W22782  37.092  14.200   2.769
51057W        W22783  17.646   3.913   1.520
51058W        W22784  44.405  16.560   1.346
51059W        W22785  22.220  37.089   1.877
51060W        W22786  20.615  19.556   3.644
51061W        W22787  30.634  26.723   4.671
51062W        W22788  19.000  21.600  14.948
51063W        W22789   8.016  10.673  12.748
51064W        W22790  25.949  28.933  13.898
51065W        W22791   7.085  23.068   4.482
51066W        W22792  34.562  16.273   2.775
51067W        W22793  19.582  13.321   3.169
51068W        W22794  23.241  31.097  10.570
51069W        W22795   9.605  14.324   2.704
51070W        W22796   3.801  26.891   4.673
51071W        W22797   0.600  31.569  14.035
51072W        W22798  36.870  39.073  12.969
51073W        W22799  27.073   7.804   3.082
51074W        W22800  34.553  38.834  14.302
51075W        W22801  32.882  16.337  13.436
51076W        W22802  22.509  39.831   0.393
51077W        W22803  14.821  19.552   3.694
51078W        W22804   7.801  27.503  13.497
51079W        W22805  25.834  43.913  10.277
51080W        W22806  35.527  31.965  11.577
51081W        W22807  33.616   6.943   0.848
51082W        W22808   1.410  34.436  13.350
51083W        W22809  35.236  14.117  12.556
51084W        W22810  40.222  13.435  12.079
51085W        W22811  22.692  34.686   3.033
51086W        W22812  24.370  23.289  11.320
51087W        W22813  14.028   4.713   5.003
51088W        W22814  12.602  14.237   1.222
51089W        W22815   4.770  29.239   4.605
51090W        W22816  28.659   0.425  11.504
51091W        W22817  11.396  41.057   0.587
51092W        W22818   1.705   8.823   2.763
51093W        W22819  29.519  11.351   2.730
51094W        W22820  26.676  23.005   4.629
51095W        W22821   9.376  40.982  13.977
51096W        W22822  41.591  40.405   1.677
51097W        W22823   3.914  39.000   4.607
51098W        W22824  41.289   4.365   0.802
51099W        W22825  16.063   5.356  14.412
51100W        W22826  17.068   3.724  12.072
51101W        W22827  40.830  44.864   2.213
51102W        W22828   1.437   9.707   4.699
51103W        W22829  38.514  26.668  14.787
51104W        W22830  28.206  15.695   0.884
51105W        W22831  10.382  29.337  10.376
51106W        W22832  27.068   2.373  11.411
51107W        W22833  22.055  11.162  14.654
51108W        W22834   5.337   7.852   0.533
51109W        W22835  16.051   3.434   3.731
51110W        W22836  30.959  26.131   1.611
51111W        W22837   4.822   7.885  14.465
51112W        W22838  23.466  29.882   0.926
51113W        W22839  25.960  29.498  11.685
51114W        W22840  39.991  22.065  14.931
51115W        W22841  27.152  44.574   0.544
51116W        W22842  32.137  15.637  13.452
51117W        W22843  14.098  18.292   3.494
51118W        W22844  19.738  28.512  11.563
51119W        W22845  29.015  14.883  14.356
51120W        W22846  22.834  26.163   3.834
51121W        W22847   0.467  29.574   3.912
51122W        W22848  13.258  25.359   2.827
51123W        W22849  16.242   3.801   0.312
51124W        W22850   1.746  32.888   0.372
51125W        W22851  16.531  44.445   4.199
51126W        W22852  21.573  40.088   3.615
51127W        W22853  19.567  13.661   1.724
51128W        W22854   1.403  28.002  12.921
51129W        W22855   4.300  34.312   3.796
51130W        W22856  16.779  16.275  10.940
51131W        W22857  10.025  35.128   1.883
51132W        W22858  24.777   5.719   0.339
51133W        W22859  28.511  34.794   4.915
51134W        W22860  42.106  33.525  13.030
51135W        W22861  14.336   1.412   2.737
51136W        W22862   7.779  16.309  11.439
51137W        W22863  27.131  33.084   0.431
51138W        W22864  40.434   3.494   1.699
51139W        W22865  42.502  32.515   3.207
51140W        W22866  44.941  15.160  11.530
51141W        W22867  34.281   7.789  12.626
51142W        W22868   5.528   5.786  10.042
51143W        W22869  10.414  37.268   5.075
51144W        W22870  13.972  20.594   0.814
51145W        W22871   4.604  31.477  12.617
51146W        W22872  25.553  34.632  14.813
51147W        W22873  19.988  36.131   4.599
51148W        W22874   5.809  28.119   4.694
51149W        W22875  17.279  39.773   4.120
51150W        W22876  32.874  17.985  13.946
51151W        W22877  13.665   7.477  13.913
51152W        W22878  31.788  12.969  12.137
51153W        W22879  41.084  28.246  12.546
51154W        W22880   9.696  25.119  14.352
51155W        W22881  29.641  17.197  14.761
51156W        W22882  23.355  28.976  12.561
51157W        W22883  35.064  37.927  13.851
51158W        W22884   0.823  40.581   2.202
51159W        W22885  11.800  22.673  10.643
51160W        W22886  29.651  30.871   2.256
51161W        W22887   3.843  27.665  13.437
51162W        W22888  31.635   1.089   5.006
51163W        W22889  43.864  27.880   0.673
51164W        W22890   9.846  34.564   1.343
51165W        W22891  37.854  17.170   1.225
51166W        W22892  43.524  35.361   4.406
51167W        W22893  22.422  37.268   0.134
51168W        W22894   4.522  33.950  13.760
51169W        W22895  33.469  36.608  13.406
51170W        W22896  38.088   5.821   3.938
51171W        W22897  44.977  36.474  14.926
51172W        W22898  23.277   2.973  13.855
51173W        W22899  41.361  26.140  14.870
51174W        W22900  17.650   6.493  14.503
51175W        W22901   9.667   7.826  13.883
51176W        W22902   7.729  32.185  13.078
51177W        W22903   0.926  32.018  13.432
51178W        W22904  36.640  43.162   1.794
51179W        W22905   9.319  15.816   0.317
51180W        W22906  28.013  39.992   5.106
51181W        W22907   7.192  33.997   1.495
51182W        W22908  28.069  27.506   5.250
51183W        W22909  20.991   0.866   0.010
51184W        W22910  26.453  17.822  14.870
51185W        W22911  10.890  43.992  10.693
51186W        W22912  29.089  16.486   4.086
51187W        W22913  34.465  41.077   2.744
51188W        W22914  29.445  13.244   2.654
51189W        W22915   8.742   8.298  13.995
51190W        W22916  27.422  16.149   3.674
51191W        W22917  31.822  26.578   2.221
51192W        W22918  10.227  44.003   2.257
51193W        W22919  26.455  21.502   4.343
51194W        W22920  35.007  24.590  14.533
51195W        W22921  18.171  11.670   1.402
51196W        W22922  14.130  38.302  12.403
51197W        W22923  14.594  40.011   4.154
51198W        W22924  44.833  30.214   1.158
51199W        W22925  11.911   1.492  11.116
51200W        W22926   5.723   4.073   1.971
51201W        W22927  15.755   0.532  13.473
51202W        W22928   2.825   2.903   2.307
51203W        W22929   6.827  18.252  14.000
51204W        W22930  10.749  32.633  12.590
51205W        W22931  20.766  34.527  10.545
51206W        W22932  37.118  34.944  13.455
51207W        W22933  24.400   4.374  11.911
51208W        W22934  11.728  37.934  14.362
51209W        W22935  41.720  15.128  13.550
51210W        W22936  34.734  11.849   2.166
51211W        W22937  41.978  30.914  11.012
51212W        W22938  32.954  31.352   1.800
51213W        W22939   7.300  28.598   1.320
51214W        W22940   1.333  28.881  12.714
51215W        W22941   2.971  43.599   1.342
51216W        W22942  38.245  14.000  11.961
51217W        W22943  10.727  19.171   2.960
51218W        W22944  44.357  14.864   0.396
51219W        W22945  35.532   3.427  13.900
51220W        W22946  38.358   0.678  14.316
51221W        W22947  11.866  17.482  12.041
51222W        W22948  22.086  20.100  12.496
51223W        W22949   5.466   4.040  11.244
51224W        W22950  17.708  25.808   3.202
51225W        W22951   5.166  20.725  11.594
51226W        W22952  17.807  22.113   0.700
51227W        W22953  22.235  28.555   3.730
51228W        W22954  36.577  22.963  14.257
51229W        W22955   2.640   1.466  11.359
51230W        W22956  10.370  12.843  14.894
51231W        W22957  43.285   3.591   0.566
51232W        W22958  27.088  11.818   0.431
51233W        W22959  32.903  22.656   3.207
51234W        W22960  34.510   2.843  13.933
51235W        W22961  30.940  20.852  10.337
51236W        W22962   2.939  19.793   1.976
51237W        W22963  22.304  35.129  13.839
51238W        W22964   1.842   6.658   4.075
51239W        W22965  12.336   8.662  10.815
51240W        W22966  18.065  17.154  11.423
51241W        W22967   2.779  34.256  13.890
51242W        W22968  16.731  29.060   4.711
51243W        W22969   6.719  23.019   4.121
51244W        W22970  42.740  31.844   2.230
51245W        W22971  41.258   2.927  12.933
51246W        W22972  24.551  16.621  10.579
51247W        W22973  25.121  42.558   0.022
51248W        W22974  32.091  17.381   3.652
51249W        W22975  43.045  15.993   4.292
51250W        W22976  40.088  32.043  11.873
51251W        W22977  22.595  20.284   1.773
51252W        W22978   3.864  44.878   4.143
51253W        W22979  13.516   2.224  12.027
51254W        W22980  40.971   2.422   0.664
51255W        W22981  24.236  12.131   3.309
51256W        W22982   3.403   2.750  11.634
51257W        W22983  44.318  13.690   1.245
51258W        W22984  23.985  30.716  11.495
51259W        W22985  42.590  27.055  11.142
51260W        W22986  41.973   7.736  11.149
51261W        W22987  23.007  39.730   4.121
51262W        W22988  10.712  14.429  11.283
51263W        W22989  34.341  37.078  10.678
51264W        W22990  18.640  17.215   4.159
51265W        W22991   7.330  29.627   2.158
51266W        W22992  34.951  16.060   1.230
51267W        W22993  26.927   7.966  11.117
51268W        W22994  41.250   4.171   2.626
51269W        W22995  29.824  29.594  13.798
51270W        W22996  23.560   9.736  11.459
51271W        W22997  44.761  37.423   4.655
51272W        W22998  18.803   4.541   1.467
51273W        W22999  27.428   0.885  14.366
51274W        W23000  17.120  27.910   3.219
51275W        W23001   2.275  22.559   0.708
51276W        W23002  23.349  10.198  14.882
51277W        W23003  44.829   3.360  11.248
51278W        W23004  31.355  14.623  12.025
51279W        W23005  17.539  24.016   1.834
51280W        W23006  32.982  28.183   3.777
51281W        W23007   0.421  28.153   4.334
51282W        W23008   5.784  11.724   4.604
51283W        W23009  29.635  25.510  10.687
51284W        W23010   9.707  33.420   3.702
51285W        W23011  44.664  30.155  14.414
51286W        W23012  35.708  34.204  12.801
51287W        W23013   8.212   8.719  10.996
51288W        W23014  12.855  41.401  11.853
51289W        W23015  41.539  38.674  14.473
51290W        W23016   0.936   8.628   0.502
51291W        W23017  12.887  36.173   2.694
51292W        W23018  27.597  13.137  11.236
51293W        W23019  22.927  25.756  11.061
51294W        W23020  20.157  35.547   1.897
51295W        W23021  43.050  41.154  14.485
51296W        W23022  11.230  12.248  14.159
51297W        W23023  26.751  18.228  11.596
51298W        W23024  28.513  38.576  11.240
51299W        W23025  41.812  22.229   2.454
51300W        W23026  21.165  24.989  14.982
51301W        W23027   4.752  24.535  10.617
51302W        W23028  12.564  33.193  12.584
51303W        W23029  13.009  16.720  13.115
51304W        W23030   5.455  28.222  11.961
51305W        W23031   1.451  36.383   1.719
51306W        W23032  33.527  43.191  14.301
51307W        W23033  16.271  32.020  12.660
51308W        W23034  36.938  20.064  13.838
51309W        W23035  39.454  11.143  13.085
51310W        W23036  39.386  30.419  13.351
51311W        W23037  35.735  18.686   4.354
51312W        W23038  35.603  29.407  12.506
51313W        W23039  36.502  31.346  11.037
51314W        W23040  43.826  37.178   4.849
51315W        W23041  25.400  26.004  11.370
51316W        W23042  31.382   3.300  14.040
51317W        W23043   0.893  21.976  14.457
51318W        W23044  18.635  28.165   1.394
51319W        W23045  16.687  21.260  13.474
51320W        W23046  27.086  25.041   0.044
51321W        W23047  27.956   1.832   1.320
51322W        W23048  15.983  11.094   1.934
51323W        W23049  41.031   8.091   4.557
51324W        W23050  14.912  15.068   3.248
51325W        W23051  39.624   1.840  14.405
51326W        W23052  30.485  21.989  11.132
51327W        W23053  43.018  16.285  10.501
51328W        W23054  22.294  27.650  13.752
51329W        W23055  13.758  38.391   3.618
51330W        W23056  30.895  38.947  12.877
51331W        W23057  31.148   8.819   2.153
51332W        W23058  16.579   2.809   1.292
51333W        W23059  26.763  31.134  12.044
51334W        W23060  34.305  20.242  13.874
51335W        W23061  30.982  11.856  11.010
51336W        W23062  18.468  19.736  12.095
51337W        W23063  28.694  10.721  14.869
51338W        W23064  42.796  36.488  12.115
51339W        W23065  27.429  34.766  13.179
51340W        W23066   9.787  20.502   4.194
51341W        W23067  33.821  25.153   2.354
51342W        W23068  26.016  18.571  13.936
51343W        W23069   3.867  44.490  12.006
51344W        W23070  38.654  13.312   2.380
51345W        W23071  25.281  11.232  11.385
51346W        W23072  12.199   9.656  12.072
51347W        W23073   9.220   6.244  10.705
51348W        W23074   0.342  36.875  12.295
51349W        W23075   2.713  15.876  12.015
51350W        W23076   5.862  41.723   1.234
51351W        W23077  10.713  26.124  11.014
51352W        W23078  23.509  20.957   2.460
51353W        W23079  13.648  36.414   0.318
51354W        W23080  39.757  29.819  12.405
51355W        W23081   9.416  30.089   2.119
51356W        W23082  26.929  29.079   3.902
51357W        W23083  23.526   2.211   3.449
51358W        W23084  44.950  32.022  10.704
51359W        W23085  17.693   9.717  10.683
51360W        W23086  27.681  29.385  13.273
51361W        W23087   1.741  24.101  11.632
51362W        W23088  13.220   6.654   4.263
51363W        W23089  23.741  37.876   0.605
51364W        W23090   1.312  34.306   0.523
51365W        W23091  38.404  44.483  13.086
51366W        W23092  40.240  34.288  10.493
51367W        W23093  22.631  31.489  10.782
51368W        W23094  31.393   6.656  14.723
51369W        W23095  26.324  43.150   3.718
51370W        W23096   2.733  35.037   3.249
51371W        W23097  12.763  27.892   2.930
51372W        W23098  29.594  11.751  11.991
51373W        W23099  13.858   6.868   1.190
51374W        W23100   7.360  42.308   3.275
51375W        W23101  37.555  32.212  11.749
51376W        W23102   0.887  18.594   0.231
51377W        W23103  21.719  36.529  14.041
51378W        W23104  29.883  25.167   1.140
51379W        W23105  24.502  39.287  14.853
51380W        W23106  35.527  13.692   3.852
51381W        W23107  32.464  20.762   3.923
51382W        W23108  18.324  27.546   3.709
51383W        W23109  44.287  12.544  10.706
51384W        W23110   0.784   2.235  14.870
51385W        W23111  19.330   8.409   4.960
51386W        W23112  15.774  16.334   4.194
51387W        W23113  43.751  11.759   1.116
51388W        W23114   0.803  15.655  12.092
51389W        W23115  40.280  25.576  14.104
51390W        W23116  10.303  19.243  12.673
51391W        W23117  39.850  29.744   4.738
51392W        W23118  39.096  36.536  12.379
51393W        W23119   4.701  40.348   4.064
51394W        W23120  32.861  22.939   3.631
51395W        W23121  25.437   0.458   3.307
51396W        W23122  16.338  31.061  12.909
51397W        W23123  11.779   4.857  14.067
51398W        W23124  28.505  24.597   1.409
51399W        W23125  39.665   9.511  14.270
51400W        W23126  44.941  19.740   0.998
51401W        W23127  33.109   0.289  11.875
51402W        W23128  22.463  27.010   4.563
51403W        W23129  32.276  44.930   9.598
51404W        W23130   9.341   5.643  12.491
51405W        W23131   3.798  16.613   1.084
51406W        W23132  14.202  36.336   2.397
51407W        W23133  34.467   4.097   2.676
51408W        W23134  22.130  19.833  13.968
51409W        W23135  37.101  33.356   2.359
51410W        W23136  22.768  14.538   2.737
51411W        W23137  39.570  34.847  11.171
51412W        W23138   6.648   1.691  13.997
51413W        W23139  32.506  12.953   1.816
51414W        W23140  13.754  40.828  12.821
51415W        W23141   6.165  22.189   3.131
51416W        W23142   8.719  25.464  12.077
51417W        W23143  11.454  11.826  12.043
51418W        W23144   7.672  34.072   4.206
51419W        W23145  44.492  18.934   0.334
51420W        W23146  14.316  14.143  13.319
51421W        W23147  16.756  15.610   0.319
51422W        W23148   4.270  25.014  14.984
51423W        W23149  27.216   5.883  14.874
51424W        W23150  17.218  30.608  14.739
51425W        W23151  26.144  34.969   4.322
51426W        W23152  22.705  32.478   1.822
51427W        W23153  11.179  13.190  14.047
51428W        W23154  17.411  27.650  14.285
51429W        W23155  32.108   4.805   1.238
51430W        W23156  37.979  20.926   0.268
51431W        W23157  17.960  41.958   3.727
51432W        W23158  44.801  25.628  14.253
51433W        W23159   8.809  29.598   4.204
51434W        W23160   1.728  30.355   2.746
51435W        W23161  20.025  34.579  13.686
51436W        W23162  29.527  21.506   2.647
51437W        W23163  24.448  38.439  10.707
51438W        W23164  28.431  44.639  13.302
51439W        W23165  29.564  41.519  13.858
51440W        W23166  15.312  12.660   2.206
51441W        W23167  31.980  36.624   0.321
51442W        W23168  44.760   8.159  14.735
51443W        W23169   7.202  12.426  12.038
51444W        W23170  28.638  13.531   2.630
51445W        W23171  25.934   5.019   0.928
51446W        W23172   6.783  25.046   2.028
51447W        W23173  39.368   5.249   2.013
51448W        W23174   3.198  16.025  11.923
51449W        W23175  11.969  38.919  12.166
51450W        W23176  12.691  26.986  14.348
51451W        W23177  24.235  32.378  12.282
51452W        W23178  17.953  10.644   1.282
51453W        W23179  33.850  30.985  13.818
51454W        W23180  24.689  22.455  11.610
51455W        W23181  44.852  41.234  11.159
51456W        W23182  39.124   0.176  13.307
51457W        W23183  32.346  43.893  14.373
51458W        W23184  13.673  36.472   2.338
51459W        W23185   9.230  41.823  11.495
51460W        W23186  27.014   0.736   1.956
51461W        W23187  23.046  15.808   0.914
51462W        W23188  18.103  19.511   0.850
51463W        W23189  24.385   0.070   5.346
51464W        W23190   8.307  24.707   1.229
51465W        W23191  20.385  25.636   5.373
51466W        W23192  14.634   9.139  11.946
51467W        W23193  27.148   6.727   1.372
51468W        W23194  30.416  34.469   2.871
51469W        W23195  10.664  40.887  11.154
51470W        W23196   4.703   1.297  12.035
51471W        W23197  10.526  14.898  11.343
51472W        W23198  34.090  29.051  12.049
51473W        W23199  28.582   6.089  13.608
51474W        W23200  37.319  42.344  12.306
51475W        W23201  15.759  23.771  10.644
51476W        W23202  27.473   8.656   0.322
51477W        W23203  41.357   7.771   3.225
51478W        W23204   7.842   5.041  12.593
51479W        W23205  22.344  18.189   0.183
51480W        W23206  33.397  31.572  12.653
51481W        W23207  30.982   9.130  11.916
51482W        W23208  39.453   9.031   1.465
51483W        W23209  34.392  24.684   0.296
51484W        W23210  22.997  25.847   3.164
51485W        W23211  32.815  41.751  12.893
51486W        W23212  11.281  31.374   1.984
51487W        W23213  40.848   8.154   1.395
51488W        W23214  20.103  44.735  10.475
51489W        W23215  23.064  38.833  13.495
51490W        W23216  14.210   2.754  12.487
51491W        W23217  15.059   4.551   1.306
51492W        W23218  30.883  17.309  12.400
51493W        W23219  32.003  35.802   2.240
51494W        W23220  36.520  41.916  12.689
51495W        W23221  26.243  17.533  12.089
51496W        W23222  41.487  31.807   0.837
51497W        W23223  15.130  26.046   4.622
51498W        W23224   2.450  14.825   4.251
51499W        W23225   3.774  23.691   0.149
51500W        W23226  10.738  27.533   3.148
51501W        W23227  23.158   9.141   4.666
51502W        W23228  18.810  33.543   1.172
51503W        W23229  33.698  15.301  14.012
51504W        W23230  38.690   4.137   2.325
51505W        W23231  17.785  31.113  14.258
51506W        W23232  29.773  23.122   1.359
51507W        W23233  12.190  30.942   3.613
51508W        W23234  13.140  34.364   2.106
51509W        W23235  13.176  31.550   3.375
51510W        W23236  42.986  23.204   3.191
51511W        W23237   2.969   6.881   4.700
51512W        W23238  21.875  25.217   4.619
51513W        W23239  40.824  24.754  13.042
51514W        W23240   3.948  32.564  11.875
51515W        W23241  44.734  21.568   2.713
51516W        W23242  10.484  30.987  12.461
51517W        W23243  39.999  31.158   3.820
51518W        W23244  16.674  22.925  10.679
51519W        W23245  15.390  33.522   0.382
51520W        W23246  42.559  30.624  14.358
51521W        W23247  31.911  21.237   2.385
51522W        W23248  34.377   7.204  12.017
51523W        W23249  16.619   5.459  12.001
51524W        W23250  31.853  37.956  14.362
51525W        W23251  40.009  31.960  14.957
51526W        W23252   9.445  35.341  12.058
51527W        W23253   4.411  19.770   1.921
51528W        W23254  21.036   9.531  10.007
51529W        W23255  37.988  44.925  14.789
51530W        W23256  24.093  18.651  12.187
51531W        W23257   3.394  33.804   2.845
51532W        W23258  29.067  43.800   4.850
51533W        W23259  20.245  35.924  10.716
51534W        W23260  35.630   7.321  10.728
51535W        W23261  11.203  39.010   0.952
51536W        W23262  17.758   3.687  12.535
51537W        W23263  16.707  41.023  14.150
51538W        W23264  44.472  16.639   1.862
51539W        W23265  21.757  12.987  10.233
51540W        W23266  39.387  18.493   2.726
51541W        W23267  23.462   2.900   2.932
51542W        W23268  33.597  16.478  12.074
51543W        W23269  18.714  10.157   0.712
51544W        W23270   4.297  33.003   0.556
51545W        W23271  16.327  15.376   1.366
51546W        W23272  31.026   5.631   0.711
51547W        W23273  39.070  38.487  12.509
51548W        W23274  29.671  41.559  13.337
51549W        W23275   0.566  24.560  13.940
51550W        W23276  16.274  16.058  13.818
51551W        W23277   9.628  27.402  12.073
51552W        W23278  16.512  15.067  12.592
51553W        W23279   7.907  40.381   3.686
51554W        W23280  28.937  33.509   1.295
51555W        W23281  20.712  14.603   3.689
51556W        W23282   9.967   7.720   4.151
51557W        W23283  10.087  14.658   3.284
51558W        W23284  14.596   3.934   2.434
51559W        W23285  42.956  39.755  14.946
51560W        W23286   1.205  43.219  10.721
51561W        W23287  29.440  38.981  12.389
51562W        W23288  27.240  24.088   1.245
51563W        W23289  20.869  24.695   1.954
51564W        W23290   8.084  42.517  12.976
51565W        W23291  44.540  42.900  13.964
51566W        W23292  31.007  16.102  11.430
51567W        W23293  14.330  38.965  10.326
51568W        W23294  42.328  27.226   2.616
51569W        W23295  38.566   6.702  10.606
51570W        W23296  28.022  34.141  14.402
51571W        W23297  42.384  29.000   3.225
51572W        W23298   1.875  15.139  14.210
51573W        W23299  28.253  39.222  10.636
51574W        W23300  20.770  16.487   0.482
51575W        W23301  28.425  41.967   2.089
51576W        W23302  41.351  32.609   1.403
51577W        W23303  12.441  28.519  12.425
51578W        W23304  36.829  12.267  13.360
51579W        W23305  14.842  11.677  13.917
51580W        W23306  21.624  34.080  12.030
51581W        W23307   6.170  24.671  13.830
51582W        W23308  27.042  41.861   3.626
51583W        W23309  41.966  40.591   1.224
51584W        W23310  12.572  19.954   0.486
51585W        W23311   2.300   0.866  10.616
51586W        W23312  13.156  17.296   3.763
51587W        W23313  40.663  25.063   1.317
51588W        W23314  34.610  25.167  10.655
51589W        W23315  13.880   3.485  13.408
51590W        W23316  40.665  41.826  13.868
51591W        W23317  40.833   3.895   2.839
51592W        W23318  27.322  27.539   2.545
51593W        W23319  38.340  37.129   4.577
51594W        W23320  21.978  42.842  10.752
51595W        W23321   6.822  31.963   2.256
51596W        W23322  14.518  32.582   1.234
51597W        W23323   7.820  13.789  10.597
51598W        W23324  27.565  29.185  12.420
51599W        W23325   9.202  33.191  11.099
51600W        W23326  33.561  15.051  14.523
51601W        W23327  22.796  16.606  10.524
51602W        W23328   8.699  24.257   0.560
51603W        W23329  15.277  43.582   1.917
51604W        W23330  20.977   5.898   1.664
51605W        W23331  32.478  40.796  13.384
51606W        W23332  24.079  35.923   0.491
51607W        W23333  23.897  21.043   1.481
51608W        W23334  34.932  38.117   2.311
51609W        W23335  27.433  10.648  13.309
51610W        W23336  26.081   9.870   4.298
51611W        W23337  35.996  15.532  13.320
51612W        W23338   3.465  27.150  14.280
51613W        W23339  10.644  13.669   3.279
51614W        W23340  17.760   2.241   4.579
51615W        W23341  40.788  33.605   0.809
51616W        W23342  40.578   2.342  12.836
51617W        W23343  21.494  28.674  12.408
51618W        W23344   7.277  35.423   0.057
51619W        W23345  35.258  39.335   1.989
51620W        W23346  16.024  23.541   9.958
51621W        W23347  31.160  10.690  12.045
51622W        W23348  32.213  26.500   1.258
51623W        W23349  13.154  12.345   1.726
51624W        W23350   8.475  33.531   4.083
51625W        W23351  16.480  17.990  14.087
51626W        W23352  25.586  28.968   4.386
51627W        W23353   6.662   8.883  12.529
51628W        W23354  24.195  38.860  12.345
51629W        W23355  30.857  35.445  11.525
51630W        W23356  12.674  11.390   0.386
51631W        W23357  28.392  21.148   1.964
51632W        W23358  16.537  40.395   0.810
51633W        W23359  28.426  14.363   4.248
51634W        W23360  15.365  12.039   3.687
51635W        W23361  13.464  37.339  10.429
51636W        W23362  18.556  25.952  11.156
51637W        W23363  37.789  22.599  14.582
51638W        W23364  14.102   8.455  10.755
51639W        W23365  35.495  44.007   3.044
51640W        W23366  23.398  30.133   3.271
51641W        W23367  38.925   3.645   4.981
51642W        W23368  21.221  39.473  13.486
51643W        W23369  13.325  37.189  14.826
51644W        W23370   0.763   3.478  13.463
51645W        W23371  10.728  11.298   1.991
51646W        W23372  20.185  19.315   3.792
51647W        W23373  11.391   1.473  12.024
51648W        W23374   3.726  17.542  11.537
51649W        W23375  34.965  27.419  11.032
51650W        W23376   5.915  12.245   4.420
51651W        W23377  10.236  39.276   1.260
51652W        W23378  19.055  21.644  14.430
51653W        W23379  26.194   9.297  10.890
51654W        W23380  14.274   7.462  12.988
51655W        W23381  31.496  35.064  12.700
51656W        W23382   8.715  10.341  13.208
51657W        W23383  19.936  37.517  11.021
51658W        W23384   5.744  40.753   0.168
51659W        W23385  30.261   9.146  12.929
51660W        W23386  25.193  15.521   5.029
51661W        W23387  43.692   6.587   0.740
51662W        W23388  16.775  26.661   0.217
51663W        W23389  28.001   3.398   2.406
51664W        W23390  33.335   5.937   5.078
51665W        W23391  38.344  40.767   0.803
51666W        W23392  26.924  43.218  11.590
51667W        W23393  27.345  37.959   4.841
51668W        W23394  27.946  27.104  12.148
51669W        W23395  20.810  12.771  10.073
51670W        W23396  43.629  11.390  10.453
51671W        W23397  33.844  29.971   4.903
51672W        W23398  20.159  21.279  11.650
51673W        W23399  31.365  38.378  11.230
51674W        W23400  15.689  43.052  14.803
51675W        W23401  13.234   6.642   0.391
51676W        W23402  24.539  21.782   1.215
51677W        W23403  44.958  37.566   1.190
51678W        W23404  11.282  34.807   3.725
51679W        W23405  43.960   0.700  12.001
51680W        W23406  33.420  23.990  13.842
51681W        W23407  40.079  13.647  13.121
51682W        W23408  32.614  37.879  14.922
51683W        W23409  32.216  21.791   1.215
51684W        W23410  15.878   1.936  11.983
51685W        W23411   4.422  21.058   4.955
51686W        W23412  18.665  29.140   3.139
51687W        W23413  13.616  11.885   0.445
51688W        W23414  11.635  25.633  13.839
51689W        W23415  18.044   9.018  12.064
51690W        W23416  38.249  15.258   3.317
51691W        W23417  14.374  27.518  13.970
51692W        W23418  22.053  10.191  13.947
51693W        W23419   3.268   4.979   1.813
51694W        W23420   5.793  21.673   0.966
51695W        W23421  23.446  44.411  12.969
51696W        W23422  10.970   0.080   2.228
51697W        W23423   0.043  19.130   3.103
51698W        W23424  28.472   0.952   5.108
51699W        W23425  27.966  30.949   2.794
51700W        W23426  34.876  42.835  14.978
51701W        W23427  31.612  32.384  12.561
51702W        W23428  27.040  25.623  11.887
51703W        W23429  15.111  21.021   1.987
51704W        W23430   1.231  11.693  14.832
51705W        W23431  25.137  24.746  12.496
51706W        W23432  27.131  23.555  10.696
51707W        W23433  37.897  20.344   4.305
51708W        W23434  44.876  34.549   1.698
51709W        W23435  14.741  38.870   3.389
51710W        W23436  44.456  43.957  12.944
51711W        W23437  34.865  14.257  12.922
51712W        W23438  12.672  43.479  14.893
51713W        W23439  17.624  13.112  11.574
51714W        W23440  13.740   4.759  12.757
51715W        W23441  22.662  14.359  10.789
51716W        W23442  24.091  44.940   0.221
51717W        W23443  20.175   4.695  11.608
51718W        W23444  39.768  19.787   1.388
51719W        W23445   9.673  33.956   0.421
51720W        W23446  39.540  11.715   0.952
51721W        W23447  35.080  22.704   3.697
51722W        W23448   7.363  29.232   3.273
51723W        W23449   3.295   6.342  14.701
51724W        W23450  22.294  21.103   1.231
51725W        W23451  43.979  26.931   0.902
51726W        W23452  18.212  44.447   1.238
51727W        W23453   5.461   2.242   4.556
51728W        W23454  30.882  42.405   4.965
51729W        W23455  20.814  18.437  11.692
51730W        W23456  11.239  19.642   4.354
51731W        W23457  35.144  34.134   3.846
51732W        W23458  13.008  13.643   4.073
51733W        W23459  21.598  14.082   3.367
51734W        W23460   6.319  42.266   0.893
51735W        W23461  22.561  41.549  14.979
51736W        W23462   0.616  19.738   2.680
51737W        W23463  39.072  40.303   2.297
51738W        W23464  22.052  15.036   4.080
51739W        W23465  37.901   5.764   4.419
51740W        W23466   2.051   5.340  10.995
51741W        W23467   1.119   4.581  13.221
51742W        W23468  42.465  22.985  12.439
51743W        W23469  11.338  35.527   3.255
51744W        W23470  16.027  26.182  12.425
51745W        W23471  39.430  40.964   1.216
51746W        W23472  24.033   2.754   3.745
51747W        W23473  42.803  15.067   3.179
51748W        W23474   4.298  14.326   1.683
51749W        W23475  42.240  22.525  12.402
51750W        W23476  34.642  43.086  11.519
51751W        W23477  35.557   2.668   4.660
51752W        W23478  18.665   7.421  10.804
51753W        W23479  38.509   8.566   3.692
51754W        W23480  40.390  37.270  13.167
51755W        W23481  44.443  38.172   1.842
51756W        W23482  44.400  17.609   1.717
51757W        W23483  38.021   5.348  11.912
51758W        W23484  30.991  42.618   0.405
51759W        W23485  10.821   9.286  12.190
51760W        W23486  44.983  26.940  13.127
51761W        W23487  29.910   7.919   2.318
51762W        W23488  29.048  20.989   4.128
51763W        W23489  25.739  13.937  14.372
51764W        W23490  26.416   4.858   3.777
51765W        W23491  19.729  36.956  14.085
51766W        W23492  16.796  23.069   0.005
51767W        W23493   7.225  22.509  11.953
51768W        W23494  39.861   7.363   1.586
51769W        W23495   5.933  44.778  11.318
51770W        W23496   9.230  10.157  14.079
51771W        W23497  18.619  33.069   4.858
51772W        W23498   3.999  39.966   1.240
51773W        W23499  33.508  27.553  12.471
51774W        W23500  30.601  22.532  11.738
51775W        W23501  18.287  35.813  13.564
51776W        W23502  26.526  43.419  12.689
51777W        W23503  41.527  26.931   0.469
51778W        W23504  14.843  19.741   2.697
51779W        W23505  12.079   7.175  11.862
51780W        W23506  23.434  33.321  13.120
51781W        W23507  44.892  44.376  13.647
51782W        W23508  42.551  35.520   4.148
51783W        W23509   9.177  12.590  10.554
51784W        W23510   7.782   5.311  11.043
51785W        W23511  26.596  33.314  12.502
51786W        W23512   5.711  22.602   0.991
51787W        W23513   0.042  32.634   2.800
51788W        W23514  18.707   1.456  10.887
51789W        W23515  31.195  22.101   2.415
51790W        W23516  22.012  20.681  10.656
51791W        W23517  43.446  25.728   1.357
51792W        W23518  19.184  20.265  12.429
51793W        W23519   9.577   4.998  10.791
51794W        W23520  18.801  44.900   9.573
51795W        W23521  43.953  37.015   4.379
51796W        W23522  34.981  34.186  13.942
51797W        W23523  42.406  34.216   2.323
51798W        W23524  27.236  21.761  12.125
51799W        W23525  30.275  19.091  11.116
51800W        W23526  25.761  39.370   3.078
51801W        W23527  29.459  34.435  12.913
51802W        W23528  33.334  33.325  12.430
51803W        W23529  32.130  35.862  13.343
51804W        W23530  35.104  21.038   2.241
51805W        W23531  11.918   0.337  12.039
51806W        W23532  38.321  34.184   0.057
51807W        W23533  13.218  27.071   0.533
51808W        W23534  29.663  14.861   4.671
51809W        W23535  19.078  11.756   0.823
51810W        W23536  35.659  21.969  13.978
51811W        W23537  34.167   1.264   4.185
51812W        W23538  44.291  32.443  14.779
51813W        W23539  36.280  23.069   3.755
51814W        W23540  21.281   5.764  12.572
51815W        W23541  38.372  17.029  12.101
51816W        W23542  39.933  17.657   0.281
51817W        W23543  36.983   4.163  12.017
51818W        W23544  20.569   1.008  10.720
51819W        W23545  17.088  11.837  13.484
51820W        W23546  24.922  28.711  11.978
51821W        W23547  20.169  11.639   1.820
51822W        W23548  15.847  36.077  12.086
51823W        W23549  44.436  23.152   4.582
51824W        W23550   0.241  15.811   4.028
51825W        W23551   1.743  40.399   1.271
51826W        W23552  35.375  28.874   3.765
51827W        W23553  24.514  25.925  14.636
51828W        W23554  43.368  16.710   3.621
51829W        W23555  40.986  23.767  12.942
51830W        W23556  22.186   7.367  13.472
51831W        W23557  44.996  20.188  14.249
51832W        W23558  23.598  33.225  11.595
51833W        W23559  40.711  11.047  12.029
51834W        W23560  28.630  11.670   3.579
51835W        W23561  26.196  23.848   1.934
51836W        W23562  36.291  33.219   3.662
51837W        W23563  16.175  21.689  14.896
51838W        W23564  37.287  15.719   2.385
51839W        W23565   3.665   9.238  11.483
51840W        W23566  11.484  26.476  14.241
51841W        W23567  16.207  27.146  11.016
51842W        W23568  36.752  13.875  11.959
51843W        W23569  41.400  21.062  12.853
51844W        W23570  41.477  40.446   5.020
51845W        W23571  34.075  32.837  12.546
51846W        W23572  27.584  24.126   0.281
51847W        W23573  33.082  30.742  11.178
51848W        W23574  21.439  42.987  10.325
51849W        W23575  43.034   7.356   3.164
51850W        W23576  11.260  35.432   1.727
51851W        W23577  21.699  30.590   0.869
51852W        W23578  18.233  43.298   3.436
51853W        W23579  19.160  25.982  12.182
51854W        W23580  27.984   8.036   4.023
51855W        W23581  41.379   7.364  14.487
51856W        W23582  35.526  21.230   0.257
51857W        W23583   2.535  36.139   2.371
51858W        W23584  16.677  44.854   3.274
51859W        W23585  43.535  18.475   1.288
51860W        W23586  31.036  35.597  12.081
51861W        W23587  29.506   5.851   4.267
51862W        W23588  17.083  23.196   1.364
51863W        W23589  35.687   1.375  11.429
51864W        W23590  13.580  14.663   0.822
51865W        W23591  16.067  34.383   2.330
51866W        W23592  21.005  18.448  12.173
51867W        W23593  18.471  18.697   0.307
51868W        W23594  26.171  37.958  14.400
51869W        W23595  10.267  31.122  12.919
51870W        W23596  38.987  26.172  14.318
51871W        W23597  16.025  38.908  14.857
51872W        W23598  10.377  19.979  10.361
51873W        W23599  10.105  44.032  12.513
51874W        W23600   1.115  31.126   4.088
51875W        W23601  20.223  44.234  13.133
51876W        W23602   3.307  40.909   3.112
51877W        W23603   9.337   7.020   2.939
51878W        W23604  28.248   6.104  14.926
51879W        W23605  15.270  22.039  10.714
51880W        W23606  27.412  36.468   0.675
51881W        W23607  35.583  15.612   4.553
51882W        W23608   6.362  43.443  12.949
51883W        W23609  41.035  17.080  12.019
51884W        W23610  28.592  39.183   3.761
51885W        W23611  15.385  27.296  13.948
51886W        W23612  38.920  33.068   4.580
51887W        W23613  19.283  17.601   1.412
51888W        W23614  24.568  33.591  13.880
51889W        W23615  24.370  16.791  13.093
51890W        W23616  37.606  37.450   3.270
51891W        W23617  38.134  43.994  11.507
51892W        W23618  16.203   7.784   3.084
51893W        W23619  29.110  37.749   2.234
51894W        W23620   1.969  23.706   3.711
51895W        W23621  27.602  36.127   4.567
51896W        W23622  30.638  18.919   0.305
51897W        W23623  25.958  26.429   1.353
51898W        W23624  26.316  27.270  12.920
51899W        W23625  24.591  19.742  10.762
51900W        W23626  29.548   7.143   4.784
51901W        W23627  30.893  33.522  13.836
51902W        W23628  41.102  17.607  13.023
51903W        W23629  13.818  32.440   4.109
51904W        W23630   6.173   3.431  12.988
51905W        W23631  42.894   4.543   2.401
51906W        W23632  38.134  29.127   4.619
51907W        W23633  40.355   6.183   4.177
51908W        W23634   0.404  40.442  14.766
51909W        W23635   8.866  17.912  11.192
51910W        W23636  34.348  11.251   2.054
51911W        W23637  41.162  27.087  12.023
51912W        W23638  21.350  39.532  10.449
51913W        W23639  19.857  26.950   0.818
51914W        W23640  34.558  14.578  13.362
51915W        W23641  31.661  26.955   0.784
51916W        W23642   0.052  44.838  13.865
51917W        W23643   2.691   1.962  12.178
51918W        W23644  19.236  13.378   2.594
51919W        W23645  34.301   9.384  13.112
51920W        W23646  26.088   8.158   1.360
51921W        W23647  15.377   9.280  12.714
51922W        W23648  15.714  27.301   2.518
51923W        W23649  39.247  36.251   1.266
51924W        W23650  23.004  32.084  14.179
51925W        W23651  15.539   5.296  10.996
51926W        W23652  32.179  37.083   2.144
51927W        W23653  27.571  27.470  12.075
51928W        W23654  26.141  35.957  11.118
51929W        W23655  13.016  28.130  10.736
51930W        W23656   9.440  35.875  11.087
51931W        W23657  20.715   1.356  12.945
51932W        W23658  11.926  23.120   3.342
51933W        W23659  17.005  15.296  12.503
51934W        W23660  40.299  31.440  13.207
51935W        W23661  26.768   6.001  11.507
51936W        W23662   8.135  17.233  10.801
51937W        W23663   7.863  44.863  14.318
51938W        W23664  22.982  16.158   3.822
51939W        W23665  18.072  11.849   3.714
51940W        W23666  14.889   1.473   1.812
51941W        W23667  37.640   9.189   9.967
51942W        W23668  14.330  12.778   2.187
51943W        W23669  31.137  20.732  12.913
51944W        W23670  14.035  17.064  12.412
51945W        W23671  33.207  25.557  10.313
51946W        W23672  11.751  40.928   4.109
51947W        W23673  44.352  19.283  10.567
51948W        W23674  35.663  19.164  11.665
51949W        W23675  27.444   9.693   4.542
51950W        W23676  29.139  13.120  12.058
51951W        W23677  19.115  14.285   3.805
51952W        W23678  20.798  38.490   2.421
51953W        W23679  39.634  43.078  14.310
51954W        W23680   1.815  20.556  12.604
51955W        W23681  40.575  42.147  11.080
51956W        W23682  21.053  34.402   4.693
51957W        W23683  36.653  32.410   4.413
51958W        W23684  31.243   6.193  14.886
51959W        W23685  40.379  34.980   4.630
51960W        W23686  24.274  40.335  12.847
51961W        W23687  24.081  14.310   4.487
51962W        W23688  42.934  29.780   1.278
51963W        W23689  17.574  36.129   3.121
51964W        W23690  23.032  24.958  14.362
51965W        W23691  30.432  38.395   3.779
51966W        W23692  31.197   2.731  12.030
51967W        W23693  24.980  24.221  11.251
51968W        W23694  29.282  21.133   1.401
51969W        W23695  15.315  18.351  12.851
51970W        W23696   1.957  17.750   3.473
51971W        W23697  25.080  24.969  12.987
51972W        W23698  17.239  37.544   4.546
51973W        W23699   2.306   4.978   2.842
51974W        W23700  38.852  44.539  14.295
51975W        W23701   4.738  41.082   1.856
51976W        W23702   1.345  28.683  12.106
51977W        W23703  40.300  41.419  13.892
51978W        W23704   3.374  10.829  14.353
51979W        W23705  21.342  39.950   2.022
51980W        W23706  29.148  44.124   0.548
51981W        W23707  32.488  12.491   3.211
51982W        W23708  10.917  25.139  13.755
51983W        W23709  23.968  11.686   4.069
51984W        W23710   7.160   1.688   4.516
51985W        W23711  24.947  37.959   4.247
51986W        W23712  18.570  39.142   3.650
51987W        W23713  10.297  16.824  12.881
51988W        W23714  38.307  14.572  10.660
51989W        W23715  26.907  28.399  11.019
51990W        W23716  13.342   8.834   0.967
51991W        W23717   2.807   1.899   0.955
51992W        W23718  23.617  41.599  10.463
51993W        W23719  35.873   6.912  14.961
51994W        W23720  10.042   1.209   4.852
51995W        W23721  19.808   6.378   4.646
51996W        W23722  19.242  30.405  12.373
51997W        W23723  22.807  36.489   2.862
51998W        W23724  31.336  35.282  11.430
51999W        W23725  42.898   7.621   3.585
52000W        W23726  37.044  23.761   2.655
52001W        W23727  12.273  22.133  10.680
52002W        W23728   6.722  34.194  12.541
52003W        W23729   1.767  32.402  13.863
52004W        W23730   9.853  25.664   5.097
52005W        W23731  16.100  34.958   1.370
52006W        W23732  20.285  29.705   3.241
52007W        W23733  17.186   6.386   2.841
52008W        W23734  29.553  44.175   0.872
52009W        W23735  13.344  35.331   4.674
52010W        W23736   8.206  28.919  11.326
52011W        W23737  33.506  11.947   0.009
52012W        W23738   4.868  13.583   4.148
52013W        W23739   2.868  44.488  12.176
52014W        W23740   8.455  32.788  11.967
52015W        W23741  12.609   2.764   0.887
52016W        W23742  19.232  37.979  13.063
52017W        W23743  24.117  36.344  11.467
52018W        W23744   2.588  30.276   2.253
52019W        W23745  12.826  15.241  14.555
52020W        W23746   5.871  43.541   1.278
52021W        W23747   4.895  26.041  12.516
52022W        W23748   6.262  22.944   0.394
52023W        W23749  40.155   2.197   1.403
52024W        W23750   8.662  14.584   3.257
52025W        W23751  42.447   4.121   3.229
52026W        W23752  38.455  44.329  11.715
52027W        W23753  16.600   9.354  11.863
52028W        W23754  32.653  38.267   1.357
52029W        W23755  18.096  36.522  13.783
52030W        W23756  10.687   2.491  13.089
52031W        W23757  42.409  37.013   2.006
52032W        W23758  10.210  39.028  13.003
52033W        W23759   7.193   7.484  12.343
52034W        W23760  15.906  44.783   1.780
52035W        W23761  39.867  20.074  13.023
52036W        W23762  11.360  21.742   2.874
52037W        W23763  38.897  41.275   2.273
52038W        W23764  35.183  40.936  11.531
52039W        W23765   5.893   2.021  14.395
52040W        W23766   1.903  19.165   4.968
52041W        W23767  31.402  21.295   4.145
52042W        W23768  28.883  23.860   0.817
52043W        W23769  18.780  21.179   5.185
52044W        W23770   2.284  30.493   1.486
52045W        W23771  12.862  23.578   4.195
52046W        W23772  23.648  25.082   2.813
52047W        W23773   9.450  10.641  13.968
52048W        W23774  13.756   1.526   2.966
52049W        W23775  32.985  26.937  11.064
52050W        W23776  17.789  26.705   0.398
52051W        W23777  10.755   0.446  12.864
52052W        W23778  35.056  41.419  14.291
52053W        W23779  19.280   5.308   1.740
52054W        W23780  22.748  32.049   0.509
52055W        W23781  10.410   8.690  12.384
52056W        W23782  41.810  41.061  14.877
52057W        W23783  32.890  24.013  13.089
52058W        W23784  22.950   4.200   2.713
52059W        W23785   8.745  18.564   4.916
52060W        W23786  26.565  41.810   3.832
52061W        W23787  30.354  24.718   2.416
52062W        W23788   9.671   8.119   4.303
52063W        W23789  33.459  36.874   0.244
52064W        W23790  18.593  16.874   5.030
52065W        W23791   5.024   0.868   1.441
52066W        W23792   6.881  43.548   0.404
52067W        W23793   8.818  30.233   0.760
52068W        W23794  33.536  27.554   1.523
52069W        W23795  15.592   6.391  13.787
52070W        W23796  15.133  10.658  13.861
52071W        W23797  33.615  12.126   3.185
52072W        W23798  38.464   3.963   3.649
52073W        W23799  26.001   9.922   2.821
52074W        W23800  18.519   0.906  13.654
52075W        W23801  11.926  13.063   5.131
52076W        W23802   0.550  17.908  12.465
52077W        W23803  28.108  18.547   3.614
52078W        W23804  18.256  34.948  13.440
52079W        W23805  17.250   1.271  14.975
52080W        W23806  21.067  41.868   0.932
52081W        W23807  34.759  17.316   4.992
52082W        W23808   2.713  32.032   4.271
52083W        W23809  29.630  10.138   3.593
52084W        W23810   8.264  36.105   3.725
52085W        W23811  29.441   6.945   0.450
52086W        W23812  36.050   3.674   0.877
52087W        W23813   7.186  23.025  12.014
52088W        W23814  13.317  37.581   4.740
52089W        W23815  24.607  16.161   2.854
52090W        W23816  14.157  20.531   4.637
52091W        W23817   6.225  19.297  12.906
52092W        W23818  39.287  12.437   3.674
52093W        W23819  38.498  22.208  11.387
52094W        W23820  14.126  43.392   0.424
52095W        W23821  29.171  18.976  11.153
52096W        W23822  32.964   9.844   1.229
52097W        W23823  35.017   5.323   0.313
52098W        W23824  22.356  18.392  12.443
52099W        W23825  10.084   0.258   3.228
52100W        W23826  25.574  39.942  11.700
52101W        W23827  10.854   6.891  13.621
52102W        W23828  18.256  28.834   3.186
52103W        W23829  23.334  30.569   2.623
52104W        W23830   8.771   3.432  10.880
52105W        W23831  35.960  10.893   0.481
52106W        W23832   2.915  37.109  13.555
52107W        W23833  27.398  20.562   1.062
52108W        W23834  21.266  23.285  12.238
52109W        W23835   0.824  31.108  14.072
52110W        W23836  39.544  17.751  11.078
52111W        W23837  34.261   6.670  10.659
52112W        W23838  28.595   2.304   2.833
52113W        W23839   8.314  33.835  10.839
52114W        W23840  39.974  30.963  14.883
52115W        W23841  14.407   9.958  12.482
52116W        W23842  41.253  10.626  12.915
52117W        W23843  22.474  23.178   3.003
52118W        W23844  40.555  15.256  12.927
52119W        W23845   5.152  20.526   1.233
52120W        W23846  42.890  26.247   3.341
52121W        W23847  10.123  39.256  12.498
52122W        W23848  40.224   7.735   0.105
52123W        W23849  11.648   0.722  12.308
52124W        W23850  43.368  22.106  11.101
52125W        W23851   9.316  41.647  10.393
52126W        W23852  39.178  43.454   0.813
52127W        W23853   5.246   3.837  11.666
52128W        W23854   0.498  15.031  13.209
52129W        W23855  30.098  12.780   2.766
52130W        W23856   2.705  41.344   0.399
52131W        W23857  39.153  18.150   3.628
52132W        W23858  26.621  20.345   0.048
52133W        W23859  17.211   1.334  14.073
52134W        W23860  22.819  25.520   4.935
52135W        W23861  32.356  35.366  11.627
52136W        W23862  30.233  10.322   0.232
52137W        W23863  32.622  25.521   2.867
52138W        W23864  22.230  21.661  13.124
52139W        W23865  37.938  13.702  12.587
52140W        W23866  42.422  40.891  11.378
52141W        W23867  29.422  25.195   2.562
52142W        W23868  36.249   6.377  13.332
52143W        W23869   7.326  43.873   1.992
52144W        W23870   1.190  44.302   2.204
52145W        W23871  23.519  30.786   4.402
52146W        W23872  11.652  44.788   0.819
52147W        W23873  16.050   9.351   0.738
52148W        W23874  12.782  13.186   4.667
52149W        W23875  41.948  14.667  13.611
52150W        W23876  15.127  21.959   2.866
52151W        W23877  32.889  38.206   0.753
52152W        W23878  17.031  29.105  11.983
52153W        W23879  12.780   2.940  11.978
52154W        W23880  19.783   0.436  13.452
52155W        W23881  24.615  22.956   2.400
52156W        W23882  25.880  35.095  10.158
52157W        W23883  36.868  44.086  12.447
52158W        W23884  40.289  16.954   1.446
52159W        W23885  19.128  19.061  13.045
52160W        W23886   1.676   1.157  11.438
52161W        W23887  33.494   5.302  11.390
52162W        W23888   5.304  38.937  11.851
52163W        W23889  40.789  11.802   2.263
52164W        W23890  32.438  10.319  11.982
52165W        W23891  15.220   4.768   0.393
52166W        W23892  18.898  44.295   4.976
52167W        W23893  21.576  26.654   1.588
52168W        W23894  15.116  44.654  10.547
52169W        W23895   9.142  24.191   2.910
52170W        W23896  16.566  24.699  14.032
52171W        W23897  19.864  21.898   4.209
52172W        W23898  34.686   3.273   0.927
52173W        W23899  25.205   7.312   3.329
52174W        W23900   9.444   8.212   2.357
52175W        W23901  31.305   5.492  14.485
52176W        W23902  22.979  37.446  11.005
52177W        W23903  32.521  38.153  10.528
52178W        W23904  14.609  26.230   0.397
52179W        W23905   8.866  20.548   4.540
52180W        W23906  38.453   4.447   3.899
52181W        W23907  19.492  28.621  12.555
52182W        W23908  44.022  40.103   2.753
52183W        W23909   1.237  40.307   1.363
52184W        W23910  23.985  16.612  12.285
52185W        W23911  18.132  10.898   0.868
52186W        W23912  12.175  44.849   1.841
52187W        W23913  32.727  43.583   4.733
52188W        W23914  24.783   1.732   3.615
52189W        W23915   0.713  14.869  12.415
52190W        W23916  41.436  13.128   1.241
52191W        W23917  14.829  21.340  12.666
52192W        W23918   5.639  41.979  14.029
52193W        W23919   7.560  40.589   2.284
52194W        W23920  31.681  16.561   3.584
52195W        W23921   5.407  11.440   0.470
52196W        W23922  36.315  12.236  14.237
52197W        W23923  23.958  20.688   2.677
52198W        W23924  12.936  44.327   5.070
52199W        W23925  41.555   0.748  11.250
52200W        W23926   5.181  41.247   4.522
52201W        W23927  44.387   5.046   4.539
52202W        W23928   2.967  43.349   4.063
52203W        W23929  31.174  18.024  12.922
52204W        W23930   9.588   2.833   2.934
52205W        W23931  34.993  38.788  13.361
52206W        W23932  18.740  30.482   4.670
52207W        W23933  29.052  33.433  12.339
52208W        W23934  37.587  42.570   2.289
52209W        W23935   2.230  36.151  13.768
52210W        W23936  23.469  42.502   4.516
52211W        W23937   6.269  20.524  13.047
52212W        W23938  40.980   8.336  11.608
52213W        W23939  39.030  33.884  12.674
52214W        W23940   4.902   8.201   1.371
52215W        W23941   9.776  28.477  13.167
52216W        W23942  36.060  36.802  14.754
52217W        W23943  43.413  12.819  14.362
52218W        W23944  27.096  17.745   1.330
52219W        W23945   4.309   9.922   1.538
52220W        W23946   1.735  38.155  14.964
52221W        W23947  44.285  12.169   2.953
52222W        W23948  38.281   9.852   3.079
52223W        W23949  44.695  39.913   4.770
52224W        W23950  33.373  14.787   2.296
52225W        W23951   8.984  30.588   5.049
52226W        W23952   6.470  40.939  13.822
52227W        W23953  29.714   6.466  13.341
52228W        W23954  24.878  11.374  14.475
52229W        W23955  30.432   7.881   2.317
52230W        W23956  37.906  33.773  12.439
52231W        W23957  19.989  25.058  12.661
52232W        W23958  35.512  20.408   3.257
52233W        W23959  35.668   9.774  12.939
52234W        W23960   3.910  22.685  14.001
52235W        W23961  28.998  26.597  10.011
52236W        W23962  10.702  35.054   5.149
52237W        W23963  15.635  42.669  11.960
52238W        W23964  30.943  37.930   1.835
52239W        W23965   8.796   6.103   0.488
52240W        W23966   5.666  32.018  12.941
52241W        W23967  42.810   7.203  11.151
52242W        W23968  10.654   5.896  14.188
52243W        W23969  31.869  29.993  10.675
52244W        W23970  24.211  32.255   1.836
52245W        W23971   7.869  23.370   4.197
52246W        W23972  13.379   1.247   4.285
52247W        W23973  39.280   6.967  11.282
52248W        W23974  20.688  17.531   2.111
52249W        W23975  20.108   9.625   2.577
52250W        W23976  32.063  31.646   2.121
52251W        W23977  33.457  44.540   3.812
52252W        W23978  15.252  12.115  10.794
52253W        W23979  43.923  27.234  10.553
52254W        W23980  44.500   9.328  11.592
52255W        W23981   3.988  44.983  12.010
52256W        W23982  38.513   7.453  14.715
52257W        W23983   4.300   5.075   5.155
52258W        W23984  10.625  11.720  10.525
52259W        W23985  37.514  38.643  10.841
52260W        W23986   2.390  18.539  11.547
52261W        W23987  44.321  32.829   0.124
52262W        W23988  25.381  34.845   3.826
52263W        W23989  30.600  35.587  14.562
52264W        W23990   4.086  35.447  11.855
52265W        W23991  41.215   9.539   4.424
52266W        W23992  26.995   3.785  14.859
52267W        W23993  16.374  17.836  11.822
52268W        W23994   9.256  39.766  14.523
52269W        W23995   1.294  38.833   2.693
52270W        W23996  15.386  44.750   4.627
52271W        W23997  11.688  34.026  10.240
52272W        W23998   5.856  41.357  12.758
52273W        W23999  14.994  23.638  11.545
52274W        W24000  38.835  24.627   1.647
52275W        W24001   7.627  28.858  12.516
52276W        W24002  19.666   2.644  12.086
52277W        W24003   9.801  13.213  10.393
52278W        W24004  12.838   2.277   1.778
52279W        W24005  28.095  15.472  10.633
52280W        W24006  22.526  29.456  11.558
52281W        W24007  13.143   0.508   3.895
52282W        W24008  40.546  31.583  14.184
52283W        W24009  38.220  23.466   2.128
52284W        W24010  25.912   8.212  11.937
52285W        W24011  13.293  22.590   3.813
52286W        W24012  19.460  11.088   1.453
52287W        W24013  33.134  28.283   5.024
52288W        W24014  17.629  43.043  12.534
52289W        W24015  24.101  21.970   3.048
52290W        W24016  29.577   9.425  10.687
52291W        W24017  41.347  33.707   4.598
52292W        W24018  23.931  28.043  13.837
52293W        W24019  40.932   2.451  12.453
52294W        W24020  28.108  23.223   2.776
52295W        W24021  27.474   9.160   0.422
52296W        W24022  26.428  22.708  10.752
52297W        W24023  37.966  14.514  11.433
52298W        W24024  37.114   4.263   3.244
52299W        W24025  32.678  31.070  13.426
52300W        W24026  13.719  10.707  12.614
52301W        W24027  22.508   9.821   0.184
52302W        W24028  22.952  33.396   0.476
52303W        W24029   9.698  32.037   4.149
52304W        W24030  32.699  23.116  11.033
52305W        W24031   7.335  10.281   2.732
52306W        W24032  28.406  41.443   4.663
52307W        W24033  27.735   0.166  11.190
52308W        W24034  20.803  30.985   4.114
52309W        W24035  31.361  26.209   1.263
52310W        W24036  13.859  30.429   0.342
52311W        W24037  12.001  43.335   1.331
52312W        W24038  18.029  24.642   5.073
52313W        W24039  11.690  15.765   1.524
52314W        W24040  15.850   5.549  11.354
52315W        W24041  23.441  30.273   1.806
52316W        W24042  30.006  27.928  12.557
52317W        W24043  23.011  11.303  12.038
52318W        W24044   8.064  39.816  11.576
52319W        W24045  28.331  17.887  11.459
52320W        W24046  29.466  24.628  10.588
52321W        W24047  34.492  40.533  13.762
52322W        W24048  16.062  43.566   4.113
52323W        W24049  30.605  37.888   2.209
52324W        W24050  15.705  10.280   3.772
52325W        W24051  16.583   2.321  11.610
52326W        W24052   4.125  43.951  11.020
52327W        W24053   3.556  43.998   2.342
52328W        W24054  12.227  30.151  10.923
52329W        W24055  17.990  32.892   3.580
52330W        W24056  39.436  44.413   4.238
52331W        W24057  22.562  16.181  10.740
52332W        W24058   2.325   9.394  11.112
52333W        W24059  25.487   7.482   4.665
52334W        W24060  35.434  15.982   0.958
52335W        W24061  33.179  41.423   0.865
52336W        W24062  17.852  31.098  13.758
52337W        W24063   8.608   3.919  13.839
52338W        W24064  43.970   5.496   3.411
52339W        W24065  41.533  37.300   0.401
52340W        W24066  30.579  38.321   1.909
52341W        W24067  22.109  19.728   0.440
52342W        W24068  14.841  25.024   2.188
52343W        W24069  34.852  14.539  10.726
52344W        W24070   1.389  34.544   1.391
52345W        W24071  41.599  20.089   0.686
52346W        W24072   7.203  42.552   2.722
52347W        W24073   7.827  42.387   4.562
52348W        W24074  17.630   3.409   0.276
52349W        W24075  13.206   8.270   1.287
52350W        W24076  32.009  39.026   2.655
52351W        W24077  38.355  13.655  14.305
52352W        W24078  10.356  13.939   4.966
52353W        W24079  29.595  32.924  14.917
52354W        W24080  15.993   4.945   4.311
52355W        W24081   1.886  44.338  12.934
52356W        W24082   6.285  22.526  13.893
52357W        W24083  14.740  10.053  12.916
52358W        W24084  26.106  26.981   4.557
52359W        W24085   0.445  41.773   4.462
52360W        W24086  12.800   1.726   3.956
52361W        W24087  15.687  30.519   0.354
52362W        W24088  32.683  33.619  11.643
52363W        W24089  23.715   4.955   0.266
52364W        W24090  39.343  23.231  12.034
52365W        W24091  30.114  26.095  14.527
52366W        W24092  33.908  36.563  11.566
52367W        W24093  39.903  22.391  10.434
52368W        W24094   1.487  43.402  11.112
52369W        W24095  24.296  27.900   5.128
52370W        W24096  11.656  11.382  11.900
52371W        W24097  28.883  14.279  13.282
52372W        W24098  10.899  17.665  14.883
52373W        W24099   4.167  42.627  13.366
52374W        W24100  10.493  36.539  13.701
52375W        W24101  14.065  31.117   1.393
52376W        W24102  38.345   7.617   4.195
52377W        W24103  40.857  42.735  11.833
52378W        W24104   9.368  30.687  12.069
52379W        W24105   1.245  27.561   0.399
52380W        W24106  25.108  43.523   2.388
52381W        W24107  21.609  14.138  13.772
52382W        W24108   1.261   5.417  14.376
52383W        W24109   0.665  14.792   2.315
52384W        W24110  42.333  26.550   4.394
52385W        W24111  27.500  18.590   4.862
52386W        W24112  13.042   7.374  14.394
52387W        W24113  34.527  24.781  11.446
52388W        W24114   1.373  34.426  12.106
52389W        W24115  24.839  14.281   3.510
52390W        W24116  19.804   0.569   1.355
52391W        W24117   7.467   5.211   1.724
52392W        W24118   2.498  14.623   2.665
52393W        W24119  26.996  27.505  10.773
52394W        W24120  18.296  15.145  12.936
52395W        W24121  35.078  27.205  14.456
52396W        W24122   6.574   4.040  10.720
52397W        W24123  20.086  22.305  11.518
52398W        W24124  14.082  33.594   4.729
52399W        W24125   3.466  24.887  13.570
52400W        W24126  17.487  34.558   4.186
52401W        W24127  17.139  32.667  10.635
52402W        W24128   4.925  30.590  13.985
52403W        W24129  39.351  21.557  13.940
52404W        W24130   2.367  33.444  13.522
52405W        W24131  27.141   7.717   0.083
52406W        W24132   7.474  39.112   4.199
52407W        W24133   3.141  42.344   1.990
52408W        W24134  28.225   0.468  12.975
52409W        W24135  37.549  34.807  13.880
52410W        W24136  39.308  15.846  13.507
52411W        W24137  19.318  13.327  13.498
52412W        W24138  39.372  35.417  12.874
52413W        W24139  22.624  35.858  10.450
52414W        W24140  18.326  25.905  13.429
52415W        W24141  28.070  30.046  10.264
52416W        W24142  15.628  41.282   1.332
52417W        W24143   1.918  27.993  10.431
52418W        W24144   0.598  17.755  13.489
52419W        W24145   3.530  38.616  11.974
52420W        W24146  12.120  20.270  13.436
52421W        W24147   1.021  20.954   4.254
52422W        W24148  12.865  31.880   4.239
52423W        W24149  13.856   9.674  13.307
52424W        W24150   8.618  30.582  12.627
52425W        W24151   2.039  38.924   4.087
52426W        W24152  11.058   0.547  11.144
52427W        W24153  10.900  34.467  10.990
52428W        W24154  34.579  10.746  10.630
52429W        W24155   5.441  30.518   5.051
52430W        W24156  25.061   4.339   1.325
52431W        W24157   2.577  25.922  14.466
52432W        W24158  14.686  18.160   4.222
52433W        W24159  11.980  32.091  13.122
52434W        W24160  29.541   4.939   1.833
52435W        W24161  28.032  41.503   1.353
52436W        W24162  42.937  36.634  14.859
52437W        W24163  34.838  34.462  13.019
52438W        W24164   9.172  10.430  11.980
52439W        W24165  34.979   7.725   0.942
52440W        W24166  25.632  24.992  12.409
52441W        W24167   3.390  18.898   3.102
52442W        W24168  17.131   6.475  14.353
52443W        W24169  34.472   7.629   4.368
52444W        W24170  21.494  42.494  10.488
52445W        W24171  14.300  40.513  12.856
52446W        W24172  18.295  44.715  11.176
52447W        W24173   1.412  16.655   1.223
52448W        W24174   9.844  25.635  11.088
52449W        W24175  43.847  17.829  10.685
52450W        W24176  17.338   4.170  12.022
52451W        W24177  43.130  38.768   1.766
52452W        W24178  39.545  32.688  14.929
52453W        W24179  41.873   6.162  14.251
52454W        W24180  24.697  44.895  11.941
52455W        W24181  11.895   4.921  12.566
52456W        W24182  15.858  31.951  12.938
52457W        W24183   2.282  27.696  11.131
52458W        W24184   0.153  18.806   1.312
52459W        W24185  12.959  11.134  12.537
52460W        W24186   7.889  27.608  11.628
52461W        W24187  34.601  21.102   2.196
52462W        W24188  17.765  33.586   3.996
52463W        W24189  43.591  41.640   2.070
52464W        W24190  21.714   9.369   0.398
52465W        W24191  38.538  41.257   4.079
52466W        W24192  33.672  43.473  14.712
52467W        W24193  17.568   5.198  14.345
52468W        W24194   0.884  20.195  12.006
52469W        W24195  26.657  44.681   2.218
52470W        W24196  42.263   3.630   3.138
52471W        W24197  21.525  33.216   1.799
52472W        W24198   4.738  34.136   1.595
52473W        W24199   5.745  37.763  12.818
52474W        W24200   3.342  16.034   4.030
52475W        W24201  22.584  13.344   4.039
52476W        W24202   5.286   4.108   5.330
52477W        W24203  37.133  13.322  13.513
52478W        W24204  21.582  24.223  12.519
52479W        W24205   7.241  27.550   1.230
52480W        W24206  34.357  44.205  14.799
52481W        W24207  24.557  43.770  11.691
52482W        W24208  27.505  26.075   2.864
52483W        W24209  44.223  44.417  10.686
52484W        W24210  30.455  29.026  10.903
52485W        W24211  33.822  38.399   1.885
52486W        W24212  33.812  21.877   1.808
52487W        W24213  17.704  30.224  10.614
52488W        W24214  26.123  44.995   4.823
52489W        W24215  25.065  15.690  12.586
52490W        W24216  36.435  19.074  12.635
52491W        W24217  39.843   9.373  12.899
52492W        W24218   3.735   7.659   4.317
52493W        W24219  31.075   4.698  13.736
52494W        W24220  32.987  28.448   2.906
52495W        W24221   3.496  31.540   2.251
52496W        W24222   3.396  33.633   1.934
52497W        W24223  19.699  24.958   1.396
52498W        W24224   1.810  38.857  10.477
52499W        W24225  30.656  43.562  13.931
52500W        W24226  10.004  15.472   5.447
52501W        W24227  11.832  24.797   5.202
52502W        W24228  22.086  42.567   4.946
52503W        W24229  38.709  44.861  11.383
52504W        W24230  39.231  19.429   3.737
52505W        W24231  38.350  15.866   3.663
52506W        W24232  37.773  41.080   1.750
52507W        W24233  27.382  39.987  11.943
52508W        W24234   5.187  41.308   2.296
52509W        W24235  37.429  21.406   4.797
52510W        W24236   4.716  37.870   3.956
52511W        W24237  34.141  28.053  11.967
52512W        W24238   0.156  15.401   1.391
52513W        W24239  16.757  44.504   2.709
52514W        W24240  31.976  19.733   3.534
52515W        W24241  13.424  41.549  11.062
52516W        W24242  36.288   9.917   4.166
52517W        W24243  16.499  29.791   3.985
52518W        W24244   0.678  14.316  14.309
52519W        W24245   2.684  42.486   2.873
52520W        W24246   3.748  19.119  14.478
52521W        W24247  10.239  27.712   2.341
52522W        W24248   8.662  44.543  13.592
52523W        W24249  21.080   7.731   3.395
52524W        W24250  43.506   9.968  10.485
52525W        W24251  38.616  38.285   0.603
52526W        W24252   4.428  14.884   2.318
52527W        W24253  25.955  26.323  14.530
52528W        W24254  43.884  21.699  14.246
52529W        W24255  34.979  29.160  10.768
52530W        W24256  16.834  34.417  11.448
52531W        W24257  10.897   6.607   1.330
52532W        W24258  26.401   8.140  11.972
52533W        W24259  28.455  39.691   3.761
52534W        W24260  37.877  39.017  11.973
52535W        W24261  35.799   6.755  12.635
52536W        W24262  33.424   3.537  13.736
52537W        W24263   8.873   9.638   3.014
52538W        W24264  26.851  10.837   3.222
52539W        W24265  25.404   5.419   4.503
52540W        W24266   8.744  21.877   0.053
52541W        W24267  42.803  27.020  11.626
52542W        W24268  15.706  15.019   4.882
52543W        W24269  31.171  30.955  14.454
52544W        W24270  42.575  38.809   2.782
52545W        W24271  39.391  19.628   0.640
52546W        W24272  32.489   4.529   1.444
52547W        W24273   4.691   1.435   3.212
52548W        W24274  31.968  41.920  10.206
52549W        W24275   4.274  21.749  13.623
52550W        W24276  17.228   4.695  11.941
52551W        W24277  37.531   9.861   0.857
52552W        W24278   3.388   1.758   1.220
52553W        W24279  19.115  36.854   3.663
52554W        W24280  29.044   4.796   1.056
52555W        W24281  24.528  35.391   0.005
52556W        W24282   7.403  35.487  14.009
52557W        W24283   1.353   8.771   4.712
52558W        W24284  30.599   0.982   3.821
52559W        W24285   0.023  10.631  11.216
52560W        W24286  24.232  22.210  11.525
52561W        W24287  43.381  30.660   1.632
52562W        W24288  20.099  14.159  11.462
52563W        W24289  24.540  15.388   0.366
52564W        W24290   0.345  38.434   4.335
52565W        W24291  35.850  32.786  13.006
52566W        W24292  12.301  38.432   1.807
52567W        W24293  44.230  34.458   2.630
52568W        W24294   7.535  39.325  14.683
52569W        W24295   4.424  40.583   1.308
52570W        W24296  21.154  37.148   3.357
52571W        W24297  44.454   1.067   2.194
52572W        W24298  38.083  25.057   1.198
52573W        W24299  37.781   5.496  13.131
52574W        W24300  23.033  26.814  12.457
52575W        W24301   1.751   5.283   3.648
52576W        W24302  18.729  36.532  13.484
52577W        W24303   7.985   4.802   2.211
52578W        W24304  22.097  25.025   5.064
52579W        W24305  22.500   9.864   1.685
52580W        W24306   8.933  43.192  11.140
52581W        W24307  11.532   2.427  12.021
52582W        W24308   6.674  14.758  10.679
52583W        W24309  38.041  26.409  12.597
52584W        W24310   8.947  17.276  13.135
52585W        W24311  22.955  41.469   0.813
52586W        W24312  13.031  28.117  12.950
52587W        W24313  43.326   9.833  10.940
52588W        W24314  24.675  40.952  14.533
52589W        W24315  36.318   3.048   2.865
52590W        W24316  26.552  16.357   4.386
52591W        W24317  36.959  13.581  12.783
52592W        W24318  40.244  20.541  13.517
52593W        W24319   1.739  24.444   3.317
52594W        W24320  12.306   2.194   1.858
52595W        W24321  43.189   3.857   4.986
52596W        W24322  42.925  34.864  14.341
52597W        W24323  41.502  13.123   2.425
52598W        W24324  21.509  29.637  11.149
52599W        W24325  15.652  15.491   1.254
52600W        W24326   7.174   1.389  13.290
52601W        W24327  23.526  17.231   3.742
52602W        W24328  33.107  23.567   0.588
52603W        W24329  35.531   3.744  11.475
52604W        W24330  30.723  12.841  11.658
52605W        W24331  20.816  22.391   0.993
52606W        W24332   3.409   2.638  14.112
52607W        W24333   1.179  25.245   0.413
52608W        W24334  10.950  31.978  13.022
52609W        W24335  30.951  14.776  11.687
52610W        W24336  12.338  31.596  13.443
52611W        W24337   6.112  14.190   2.313
52612W        W24338   2.325  25.339   4.769
52613W        W24339  13.526  19.181  12.121
52614W        W24340  12.577  12.886   2.300
52615W        W24341  30.946   4.391  12.457
52616W        W24342   7.513  15.960   5.270
52617W        W24343   7.190  37.382  11.069
52618W        W24344   8.903  24.195   3.377
52619W        W24345  31.781  24.704  13.722
52620W        W24346  14.509  10.156   9.911
52621W        W24347  36.747  29.659   0.338
52622W        W24348  28.159  41.506  12.620
52623W        W24349  31.461  26.213  12.041
52624W        W24350  27.502  19.820   0.389
52625W        W24351  15.306  22.841  14.292
52626W        W24352  36.548  28.554   4.527
52627W        W24353  32.491  43.221  11.123
52628W        W24354   8.877  30.299  10.553
52629W        W24355  14.303  25.249   4.984
52630W        W24356  12.260  24.238  11.480
52631W        W24357  22.613   2.916   0.826
52632W        W24358  32.114  26.522  13.046
52633W        W24359  19.606  22.764   0.333
52634W        W24360  38.948   8.277  13.876
52635W        W24361  13.163  32.533   0.469
52636W        W24362   0.892  15.295  10.722
52637W        W24363  44.836  30.980  11.554
52638W        W24364  16.798  12.831  10.724
52639W        W24365  20.440  31.031  11.075
52640W        W24366  18.763  20.339   2.237
52641W        W24367  30.111   9.404   3.697
52642W        W24368  27.386  15.264   2.105
52643W        W24369  24.363  40.083  10.631
52644W        W24370  43.439  38.947   1.385
52645W        W24371   5.758  42.853  13.451
52646W        W24372  37.315  17.319   4.076
52647W        W24373  18.136  15.417  13.342
52648W        W24374   2.318  28.864  13.996
52649W        W24375   5.146   2.542  13.810
52650W        W24376  23.037  11.605  12.924
52651W        W24377  42.400   8.164   1.434
52652W        W24378  22.104  22.543   3.594
52653W        W24379  25.717  13.387  11.139
52654W        W24380   4.246  25.615   2.649
52655W        W24381  37.209  35.965  12.077
52656W        W24382  39.867   8.468  10.711
52657W        W24383  34.473   1.289  14.896
52658W        W24384  40.301  37.001   1.463
52659W        W24385  38.814  33.356   1.662
52660W        W24386  38.510  13.884  11.527
52661W        W24387  29.217  21.671  14.010
52662W        W24388  43.391  10.084   2.241
52663W        W24389  21.309   1.756   4.753
52664W        W24390  39.770  23.142   2.331
52665W        W24391  24.885  14.754   0.868
52666W        W24392  18.659  32.846   0.880
52667W        W24393  16.160  41.815   3.612
52668W        W24394  11.044  30.853   3.365
52669W        W24395  34.059   5.362   1.736
52670W        W24396  16.588   1.299   2.279
52671W        W24397  32.400  11.084   0.501
52672W        W24398   7.821  21.474  12.492
52673W        W24399  27.632   4.495   1.812
52674W        W24400  35.384  30.364  14.792
52675W        W24401   8.245  24.916   5.586
52676W        W24402  43.194  35.868   0.022
52677W        W24403  44.625  31.210   1.342
52678W        W24404  44.885  44.458  10.203
52679W        W24405  25.173  31.180   2.471
52680W        W24406  15.201  34.615   0.343
52681W        W24407  35.104  19.118  13.019
52682W        W24408  35.928  35.021  10.453
52683W        W24409  23.212  28.439   3.565
52684W        W24410  18.988  19.199   3.487
52685W        W24411  34.383   0.292  11.288
52686W        W24412  28.772  43.343  14.415
52687W        W24413  39.386  37.899   2.133
52688W        W24414  18.278  42.368   3.977
52689W        W24415  30.459  35.158  11.749
52690W        W24416  14.349  10.208  13.551
52691W        W24417  40.889   1.497  11.499
52692W        W24418  40.380  10.395   4.672
52693W        W24419  29.432   7.385   0.173
52694W        W24420  21.432  27.568   0.653
52695W        W24421   7.782  19.767   0.396
52696W        W24422   8.836   7.187   4.710
52697W        W24423   1.223  30.387   3.699
52698W        W24424  41.926  44.299  14.024
52699W        W24425   8.818  31.872   0.037
52700W        W24426   1.347  35.538   2.229
52701W        W24427  37.058  32.207  10.628
52702W        W24428  29.968   7.184   2.773
52703W        W24429  10.740   9.286   1.854
52704W        W24430  28.274  25.746  12.908
52705W        W24431   4.575   3.277  12.898
52706W        W24432  24.081  30.988  13.146
52707W        W24433  40.454  42.859   4.543
52708W        W24434   0.483  12.655   2.809
52709W        W24435   5.770   7.589   0.495
52710W        W24436  11.046  41.307   2.704
52711W        W24437  38.124   5.708  12.697
52712W        W24438   6.673  36.928   2.357
52713W        W24439  35.445   2.326  14.976
52714W        W24440  20.997   1.813  10.757
52715W        W24441  13.505  44.379   3.795
52716W        W24442  19.522  36.399   4.634
52717W        W24443  41.759  25.266  12.600
52718W        W24444  15.446  19.119  14.607
52719W        W24445  40.245  26.597   3.613
52720W        W24446  20.233  28.610  11.666
52721W        W24447  24.473   8.987   3.360
52722W        W24448  19.830  41.539   1.864
52723W        W24449  24.019  27.176   0.308
52724W        W24450  11.610   9.758   4.593
52725W        W24451   0.743  20.791   3.768
52726W        W24452   0.830   3.199  11.531
52727W        W24453  41.140  17.087   0.508
52728W        W24454   5.388  22.793   3.752
52729W        W24455  38.321   4.524   2.371
52730W        W24456   7.465  26.222   4.923
52731W        W24457   2.447  32.375   0.286
52732W        W24458  21.014  27.581  13.285
52733W        W24459   5.720  11.706   2.696
52734W        W24460  32.864   8.396   4.881
52735W        W24461  42.773  37.087  14.400
52736W        W24462  41.604   2.385  12.956
52737W        W24463  15.275  19.366   0.057
52738W        W24464  22.749  14.661  14.509
52739W        W24465  42.182  32.922  13.653
52740W        W24466  14.347  26.058  10.753
52741W        W24467  27.534  41.889  14.607
52742W        W24468  40.070  44.072   2.795
52743W        W24469  10.651  35.618   5.174
52744W        W24470  28.858  32.915   3.502
52745W        W24471  40.276   3.944   0.827
52746W        W24472  23.210  28.499  10.956
52747W        W24473  26.185  44.171   4.934
52748W        W24474  20.454  25.110   0.281
52749W        W24475  32.101  42.979  14.265
52750W        W24476  25.085   7.371  14.728
52751W        W24477  37.932   6.780   4.871
52752W        W24478   8.826  34.637  13.043
52753W        W24479  39.474  28.976  14.198
52754W        W24480  39.307  20.597   0.483
52755W        W24481  33.118  29.780  13.919
52756W        W24482  28.997  37.421  10.741
52757W        W24483  34.931  25.985  12.905
52758W        W24484  34.463  29.865  11.829
52759W        W24485  39.060  20.247  11.194
52760W        W24486  32.486  40.098  11.268
52761W        W24487  10.886   0.709  14.775
52762W        W24488  44.679  40.375  12.349
52763W        W24489  27.227  44.839   4.167
52764W        W24490  26.951  39.882  10.445
52765W        W24491  10.152  21.292  13.414
52766W        W24492   9.368  33.574   0.269
52767W        W24493  10.095  44.453   1.325
52768W        W24494  13.194   5.121   3.147
52769W        W24495  16.917  28.450   0.959
52770W        W24496  31.197  39.834  11.022
52771W        W24497  24.657  29.746  14.963
52772W        W24498  40.234  35.874   1.375
52773W        W24499  33.139  17.034   1.295
52774W        W24500  34.075  44.805   0.907
52775W        W24501   1.422  25.590  13.884
52776W        W24502  21.178  17.757  12.397
52777W        W24503   1.452   8.443  13.806
52778W        W24504  28.625  12.199  10.504
52779W        W24505   6.424  23.134   0.845
52780W        W24506  34.917  40.475   3.242
52781W        W24507   6.279  15.854   2.664
52782W        W24508  12.808  20.500  13.051
52783W        W24509  17.637   7.327  11.069
52784W        W24510  24.207  42.884  10.900
52785W        W24511   8.123   7.234  13.755
52786W        W24512  10.924  23.863  12.390
52787W        W24513  31.633  29.487   2.736
52788W        W24514  24.522  22.042   2.742
52789W        W24515  37.861  24.556   0.008
52790W        W24516  30.701  44.917  12.518
52791W        W24517  34.446   9.442   1.920
52792W        W24518  26.266  35.610  14.313
52793W        W24519  20.155   0.440  11.512
52794W        W24520   8.614   7.686   4.800
52795W        W24521   5.755  43.769  14.935
52796W        W24522   0.292  36.931   2.586
52797W        W24523   4.749   9.898   0.789
52798W        W24524  37.857  18.873   2.701
52799W        W24525  20.065  41.361  14.397
52800W        W24526  12.031  32.032   9.907
52801W        W24527  38.167  39.753   3.075
52802W        W24528   0.625  37.835  11.490
52803W        W24529   1.418  27.237   4.747
52804W        W24530  36.513   3.755  12.627
52805W        W24531   0.418  35.646  11.407
52806W        W24532  13.723   3.382  10.855
52807W        W24533  30.606   8.618  11.646
52808W        W24534  24.621  26.969  12.098
52809W        W24535   5.750  15.166  11.601
52810W        W24536  33.128   9.372   1.433
52811W        W24537  44.280   1.921  14.987
52812W        W24538  37.943   2.287  13.044
52813W        W24539  42.005  13.154   0.314
52814W        W24540  34.506  43.885  12.090
52815W        W24541  39.790   3.742   0.913
52816W        W24542   9.019  35.386  14.306
52817W        W24543   2.305   8.706   0.129
52818W        W24544   0.289   7.760   3.616
52819W        W24545  40.423   0.020   0.934
52820W        W24546  33.844  32.178  12.886
52821W        W24547  20.539  23.434  14.429
52822W        W24548   4.267  42.854  12.621
52823W        W24549  25.471  20.570   2.740
52824W        W24550  23.869  41.795  13.595
52825W        W24551   6.439  10.124  12.032
52826W        W24552  21.897  32.526   0.569
52827W        W24553  28.980   9.345  13.567
52828W        W24554   9.152  19.882  12.937
52829W        W24555  21.188   4.138   4.206
52830W        W24556   0.622  29.218  11.855
52831W        W24557  37.380   7.933  14.424
52832W        W24558  34.549  36.298   1.167
52833W        W24559   9.387  21.701   3.585
52834W        W24560   0.229  44.401   4.470
52835W        W24561  32.103  25.313   3.325
52836W        W24562   8.384   6.104   3.690
52837W        W24563  38.897  26.490   3.085
52838W        W24564  25.645  26.874   2.702
52839W        W24565  22.763  29.474  14.726
52840W        W24566   2.277  14.330   0.837
52841W        W24567   9.687  37.980   3.683
52842W        W24568   8.489  15.088  14.252
52843W        W24569   1.813  17.218  11.448
52844W        W24570   8.259  37.394  13.005
52845W        W24571  12.671  43.958   0.914
52846W        W24572  17.816  41.054   1.738
52847W        W24573  15.891  42.947  13.882
52848W        W24574  17.541  10.838   1.535
52849W        W24575  23.447  24.553   2.919
52850W        W24576   8.311   4.840  12.417
52851W        W24577  26.487  23.740  14.668
52852W        W24578   3.903  41.222   4.576
52853W        W24579   1.454  20.012   4.246
52854W        W24580  32.109  17.207  11.355
52855W        W24581  34.570  37.800   2.106
52856W        W24582  29.542   2.556   2.911
52857W        W24583  32.684  24.094  11.825
52858W        W24584  34.049  42.795   1.167
52859W        W24585  19.169  15.806  12.124
52860W        W24586  29.367  34.588   2.804
52861W        W24587   1.923  44.302   2.748
52862W        W24588  44.059   6.725   4.100
52863W        W24589  24.015  26.179   5.252
52864W        W24590  39.386  42.520  12.484
52865W        W24591  24.118  37.106  12.938
52866W        W24592  39.834  19.681  10.697
52867W        W24593  28.944  44.269  13.032
52868W        W24594   3.753  24.917  14.830
52869W        W24595  32.072   3.836   2.644
52870W        W24596  31.441  22.286   0.085
52871W        W24597   7.234   2.677   3.713
52872W        W24598   9.893  41.310  11.983
52873W        W24599  44.228   8.666  12.111
52874W        W24600  21.463   2.013  12.973
52875W        W24601   5.343  36.443   3.026
52876W        W24602   5.730  36.383  12.696
52877W        W24603  14.753  23.569   3.248
52878W        W24604   5.917  35.524  11.113
52879W        W24605  13.767  27.688   3.972
52880W        W24606  43.913  13.804  14.814
52881W        W24607   3.655  19.213  12.136
52882W        W24608  16.541  31.706  13.829
52883W        W24609   2.338  11.378  13.240
52884W        W24610  20.550  36.572   0.179
52885W        W24611  24.755  11.108   2.179
52886W        W24612  35.548  43.787  14.022
52887W        W24613   6.139  34.508  14.170
52888W        W24614  13.201  29.536   4.529
52889W        W24615   0.934  42.301  10.551
52890W        W24616  28.156  19.570   2.253
52891W        W24617  26.650  28.724  10.625
52892W        W24618  34.433  22.760   0.768
52893W        W24619  38.282  28.574   0.914
52894W        W24620  40.017  41.508   1.678
52895W        W24621  12.571  36.446  13.353
52896W        W24622   7.157  19.708  11.530
52897W        W24623  16.858   7.276   4.933
52898W        W24624  10.176  16.684   2.684
52899W        W24625  17.329  37.806   1.060
52900W        W24626  37.057   5.264   2.180
52901W        W24627  39.020  20.974   3.759
52902W        W24628  25.676  28.851  14.607
52903W        W24629  37.275  18.670  13.487
52904W        W24630  14.252  27.559   3.180
52905W        W24631   7.871  40.390  10.535
52906W        W24632  31.965   0.320   2.644
52907W        W24633  37.504  30.646  11.026
52908W        W24634   0.796  27.950  14.898
52909W        W24635  32.502  36.643  11.584
52910W        W24636   7.215   6.407  11.106
52911W        W24637  42.038  27.908  14.800
52912W        W24638  27.549  21.240   0.865
52913W        W24639  24.694  33.768   1.296
52914W        W24640   2.314  19.133   0.818
52915W        W24641  39.623  38.371   0.698
52916W        W24642   1.229  35.486  10.671
52917W        W24643  29.069   7.794   4.631
52918W        W24644  25.006  36.642   0.381
52919W        W24645  30.485  35.032  12.557
52920W        W24646   9.229  22.481   2.015
52921W        W24647   1.426  17.309   2.380
52922W        W24648   8.762  33.029   2.287
52923W        W24649  43.530  26.099   3.849
52924W        W24650  21.343  23.600  11.433
52925W        W24651  34.490   9.402  11.148
52926W        W24652  37.597  11.155  13.842
52927W        W24653   8.935  38.590   4.179
52928W        W24654  24.911   3.024  10.556
52929W        W24655  21.583  38.052   3.636
52930W        W24656  34.617  13.701   1.191
52931W        W24657   6.358  34.586   2.405
52932W        W24658   6.885  16.281  11.583
52933W        W24659  22.481  15.259   3.335
52934W        W24660  21.817  29.942  10.829
52935W        W24661  40.891  12.092  14.399
52936W        W24662  42.498  37.627   5.029
52937W        W24663  15.980   6.437  12.864
52938W        W24664  13.868  27.534  12.866
52939W        W24665  13.830   5.560  13.068
52940W        W24666  37.254  28.539  11.003
52941W        W24667  40.799   5.809  10.402
52942W        W24668   2.844  42.240   4.649
52943W        W24669   9.737  10.870  11.683
52944W        W24670  23.038  40.017  10.635
52945W        W24671  19.087  33.673   2.807
52946W        W24672   0.294  21.298  10.082
52947W        W24673  40.134   6.480  14.014
52948W        W24674  17.852  39.478  14.776
52949W        W24675   2.822  17.746  14.812
52950W        W24676  43.100  13.385  14.095
52951W        W24677   3.863  21.136  12.533
52952W        W24678  44.275  38.500   0.183
52953W        W24679  35.300  10.229   1.254
52954W        W24680  17.119  12.255   4.616
52955W        W24681   9.664   5.325   0.981
52956W        W24682  31.401  38.994  12.781
52957W        W24683  21.721   3.346   0.360
52958W        W24684  14.905  38.403   2.294
52959W        W24685   0.710   8.726  11.070
52960W        W24686  23.309  35.823   2.842
52961W        W24687  22.765   0.234   2.974
52962W        W24688  44.878  36.752   3.754
52963W        W24689  42.498  38.371   1.687
52964W        W24690   4.623  33.334  14.553
52965W        W24691   0.844  16.195   3.597
52966W        W24692  44.326  14.034   4.643
52967W        W24693   4.908  14.820   2.118
52968W        W24694  31.568  24.664   2.637
52969W        W24695  18.216  44.342   3.697
52970W        W24696  18.796  29.444   4.347
52971W        W24697   7.889  36.985  13.955
52972W        W24698   1.785  44.775   1.206
52973W        W24699   5.991  32.388  14.773
52974W        W24700  14.871  39.035  11.598
52975W        W24701   7.947  27.791   5.000
52976W        W24702   1.212  11.775  12.485
52977W        W24703  14.619   9.613   3.219
52978W        W24704  26.343  13.238  13.353
52979W        W24705   3.065  10.888  12.133
52980W        W24706  34.810  13.285   1.581
52981W        W24707   9.335  39.429   4.666
52982W        W24708  15.623  17.246  11.603
52983W        W24709   2.397   3.572   1.970
52984W        W24710  15.461  14.236   1.830
52985W        W24711  43.471  12.335   2.252
52986W        W24712  23.350  21.070   4.489
52987W        W24713  27.531  42.392  14.494
52988W        W24714   3.214  16.089   1.698
52989W        W24715   8.508  32.133   1.257
52990W        W24716   0.240   1.068   0.284
52991W        W24717  33.930  23.172   4.957
52992W        W24718  36.660  21.155   3.306
52993W        W24719   9.310   1.123   4.922
52994W        W24720  40.795  10.942   1.333
52995W        W24721  18.278   1.478  14.903
52996W        W24722  44.164   9.228   4.451
52997W        W24723   8.488   6.616   1.281
52998W        W24724  20.115  44.016  14.168
52999W        W24725  25.261  23.229   2.792
53000W        W24726  28.544  17.757   1.389
53001W        W24727  37.364  19.716  10.604
53002W        W24728  12.180  27.125  13.328
53003W        W24729   6.829  13.003  10.915
53004W        W24730  25.332  15.201  14.311
53005W        W24731  42.604   8.276   3.190
53006W        W24732  44.033   1.867  12.942
53007W        W24733  17.426  21.075   4.139
53008W        W24734  17.743  20.339   1.455
53009W        W24735  33.846  17.278  11.896
53010W        W24736  33.023   9.977   2.730
53011W        W24737  31.079  30.855  12.484
53012W        W24738  38.820  41.569  12.901
53013W        W24739  29.034  14.721  13.497
53014W        W24740   2.547   8.210  10.757
53015W        W24741  40.480  33.852  12.721
53016W        W24742  11.261  21.532   0.887
53017W        W24743  18.536  15.057   4.150
53018W        W24744  18.725  14.838   3.626
53019W        W24745  39.819  17.624  12.457
53020W        W24746  33.589   4.888  13.986
53021W        W24747  17.023  32.623   2.456
53022W        W24748  43.485   9.412  10.641
53023W        W24749  34.074  27.217  11.605
53024W        W24750  10.813  44.236  11.162
53025W        W24751  30.346  31.557  11.583
53026W        W24752  35.671  26.982  11.445
53027W        W24753   5.904  44.897   1.408
53028W        W24754  12.889  27.092   1.862
53029W        W24755   2.210  36.982  14.366
53030W        W24756  26.049  10.232   1.298
53031W        W24757   5.319  35.801   2.172
53032W        W24758  18.496  15.547   4.909
53033W        W24759   7.606  12.826  12.893
53034W        W24760  35.602  19.683  11.697
53035W        W24761  12.914  39.867  13.504
53036W        W24762  38.970  36.791   2.381
53037W        W24763   6.352  25.144   2.330
53038W        W24764  18.530  42.884   3.576
53039W        W24765  39.111   4.384  10.908
53040W        W24766  37.593  29.987   0.431
53041W        W24767  31.867  29.154  12.008
53042W        W24768  12.293  25.723   4.028
53043W        W24769   9.359  36.246  14.427
53044W        W24770  36.478   5.287  11.064
53045W        W24771  22.624  14.835  11.694
53046W        W24772  33.102  44.380   1.206
53047W        W24773  14.262  26.852  12.498
53048W        W24774  21.446  41.782  10.995
53049W        W24775  30.939  41.564   2.366
53050W        W24776  28.079  28.210  11.001
53051W        W24777   0.018  12.791   2.015
53052W        W24778   2.447  21.115  13.487
53053W        W24779  15.115  42.336   0.967
53054W        W24780  41.580  42.106  13.023
53055W        W24781   2.478  39.938  12.498
53056W        W24782   7.761  16.475  10.636
53057W        W24783   4.962  26.118   3.068
53058W        W24784  23.624  24.516   2.415
53059W        W24785  41.619   4.517   5.083
53060W        W24786  21.028  34.141  13.867
53061W        W24787  21.474  41.347   4.598
53062W        W24788  30.688  12.057  13.716
53063W        W24789  17.569  40.677  12.962
53064W        W24790   8.704   1.435  13.390
53065W        W24791  24.551  12.596   0.889
53066W        W24792  12.697   1.462   2.295
53067W        W24793  17.778  35.402  13.105
53068W        W24794  15.326  13.682   4.773
53069W        W24795   9.343   3.461   0.470
53070W        W24796  25.469  11.505  11.927
53071W        W24797  34.322  11.360  10.824
53072W        W24798  10.661  37.703   3.692
53073W        W24799  12.064  41.584   4.393
53074W        W24800  44.478   0.042   3.603
53075W        W24801  33.089  38.666   0.927
53076W        W24802  21.511  38.588  14.438
53077W        W24803  27.376  15.562  10.152
53078W        W24804  18.796  21.172  12.060
53079W        W24805  15.668   9.206   2.421
53080W        W24806  14.120  10.275  14.544
53081W        W24807  33.574  14.155  14.033
53082W        W24808  13.846  37.890  12.361
53083W        W24809  20.078  15.686   0.809
53084W        W24810  31.102  42.296  13.867
53085W        W24811  44.790  23.700  12.598
53086W        W24812  35.551   9.884  12.032
53087W        W24813   0.008  34.630  14.859
53088W        W24814   2.264  13.222  12.944
53089W        W24815   0.475  24.581   0.744
53090W        W24816  37.440  30.091  14.954
53091W        W24817   3.802   3.157   2.852
53092W        W24818  24.100  27.198  11.234
53093W        W24819  25.640  11.384   0.974
53094W        W24820  15.154  19.559   0.928
53095W        W24821  24.723  39.889  11.577
53096W        W24822  27.884  18.280  14.925
53097W        W24823  25.918   8.471  10.680
53098W        W24824  43.491  35.337  14.884
53099W        W24825  11.749  11.167  12.885
53100W        W24826  16.153  32.193   2.949
53101W        W24827  10.911  40.440  10.975
53102W        W24828   4.381  27.578  13.450
53103W        W24829  16.739  26.850   1.855
53104W        W24830   8.661  39.384  10.454
53105W        W24831  12.766   4.213   2.289
53106W        W24832  38.867  17.270   2.742
53107W        W24833  10.821  27.446  10.662
53108W        W24834  25.653  19.752   2.255
53109W        W24835  19.056  41.460  13.035
53110W        W24836  39.087  36.820  14.783
53111W        W24837   8.004  37.575  14.890
53112W        W24838  29.849   7.743   0.058
53113W        W24839  22.753  28.150  12.764
53114W        W24840   5.444  25.496   1.048
53115W        W24841  28.180  12.620   4.543
53116W        W24842  30.995  12.328  11.205
53117W        W24843   3.668  27.109  12.436
53118W        W24844   1.830  44.052  14.866
53119W        W24845  37.800  41.551  11.178
53120W        W24846  36.033  14.594   1.206
53121W        W24847  39.192  41.269  10.184
53122W        W24848  36.974   6.323  10.437
53123W        W24849   2.122  41.070  14.937
53124W        W24850  13.789  43.057  11.642
53125W        W24851  41.300  35.858  11.673
53126W        W24852  11.422  39.456  11.966
53127W        W24853  12.597  11.688   3.076
53128W        W24854  18.292  11.204   4.492
53129W        W24855  44.323  14.318  12.087
53130W        W24856  42.145   8.960  10.492
53131W        W24857  13.558  31.011   1.332
53132W        W24858  37.355   3.012   4.811
53133W        W24859  18.721  22.432   4.581
53134W        W24860  44.108  10.465  12.129
53135W        W24861  17.092  11.256   2.910
53136W        W24862  13.320  18.265   0.338
53137W        W24863  19.964  17.559   4.570
53138W        W24864  42.947   8.414  12.408
53139W        W24865   8.693  19.062   1.750
53140W        W24866  37.511  32.705   3.394
53141W        W24867   1.357   3.852   1.518
53142W        W24868  39.324  36.392  14.024
53143W        W24869  25.047  24.818  10.702
53144W        W24870  42.223  38.627  12.926
53145W        W24871   4.284  34.037   4.265
53146W        W24872  43.402  20.672   4.110
53147W        W24873  26.170  27.248  10.630
53148W        W24874   4.932  40.786   1.286
53149W        W24875  39.561   5.838   1.273
53150W        W24876  41.525  38.996   3.765
53151W        W24877   9.977  38.648   4.955
53152W        W24878  40.310  43.886   2.082
53153W        W24879  39.466   8.333   2.684
53154W        W24880  24.395  13.370   0.241
53155W        W24881  38.031  23.609   3.681
53156W        W24882  29.568  37.550   9.767
53157W        W24883  33.165  21.928   3.175
53158W        W24884  32.495  41.788  14.015
53159W        W24885   0.044  26.106  14.075
53160W        W24886  19.493   4.358  12.144
53161W        W24887   0.823  38.284   3.225
53162W        W24888  32.392   9.368   0.720
53163W        W24889  11.660  32.128  12.204
53164W        W24890  24.143  10.846  10.634
53165W        W24891  16.273  28.963  14.763
53166W        W24892  34.413  19.242   3.154
53167W        W24893   4.720  42.587  11.707
53168W        W24894   3.767  31.156   4.755
53169W        W24895  15.983  28.252  11.608
53170W        W24896  40.013  30.349  14.517
53171W        W24897  43.423  12.193   0.538
53172W        W24898   1.723  37.289   1.803
53173W        W24899  27.356  17.209  12.370
53174W        W24900  29.327  10.909   1.359
53175W        W24901  24.543  13.661  10.622
53176W        W24902  29.303  40.518  12.156
53177W        W24903  35.989  23.942  11.339
53178W        W24904   4.517  19.558  12.784
53179W        W24905  26.470   9.715  10.679
53180W        W24906   3.857  11.138  14.924
53181W        W24907  18.318  42.004  12.986
53182W        W24908  19.715  19.355  13.352
53183W        W24909  13.270  12.711  10.779
53184W        W24910  32.001  20.105  13.792
53185W        W24911  40.378   4.821  11.642
53186W        W24912  23.216  17.577  13.007
53187W        W24913  33.412  28.120   1.712
53188W        W24914  31.847  20.724   4.778
53189W        W24915  11.352  29.545   3.211
53190W        W24916  23.000  20.677   4.611
53191W        W24917  27.952  33.905   3.947
53192W        W24918   7.368  24.764  12.866
53193W        W24919  13.723  26.067   2.876
53194W        W24920  28.569  25.583  11.232
53195W        W24921   5.954  30.469   0.162
53196W        W24922  43.796  35.585  14.543
53197W        W24923  31.799  10.034  10.058
53198W        W24924  21.437  15.141   3.439
53199W        W24925  24.903  29.568  14.065
53200W        W24926  33.452   2.898   2.423
53201W        W24927  26.750  23.428   3.756
53202W        W24928  39.013   9.585   0.866
53203W        W24929  35.412  35.804  11.079
53204W        W24930  14.864   2.993  14.290
53205W        W24931  27.247  24.717  14.055
53206W        W24932  28.933   9.891   0.750
53207W        W24933  13.559   3.674  14.988
53208W        W24934  25.109  31.654  13.542
53209W        W24935  42.393  19.552   0.448
53210W        W24936  36.772   3.155  12.618
53211W        W24937  12.202   7.768   0.317
53212W        W24938  24.193  25.707   5.078
53213W        W24939  36.478  40.482   4.575
53214W        W24940  10.066  33.015   3.654
53215W        W24941  20.187  15.424  14.935
53216W        W24942   9.372  27.484   0.760
53217W        W24943  31.430   5.950  10.422
53218W        W24944  20.772  13.412  11.882
53219W        W24945  27.718  43.817   2.236
53220W        W24946  13.625  22.158  14.801
53221W        W24947   1.427   3.393   3.238
53222W        W24948  35.636  43.290  12.315
53223W        W24949   2.522  40.891   4.649
53224W        W24950   3.190   4.887   0.921
53225W        W24951   8.022  31.341  13.988
53226W        W24952  38.634  32.169  14.907
53227W        W24953  32.578  29.830   4.978
53228W        W24954   5.054  17.119   2.166
53229W        W24955  13.740  12.650   3.866
53230W        W24956  14.365  43.531  11.217
53231W        W24957   7.933  12.759   3.885
53232W        W24958  14.706  18.743  11.197
53233W        W24959   4.625   5.451  13.822
53234W        W24960  15.382  14.584  13.855
53235W        W24961  19.682  38.866   1.374
53236W        W24962  36.156  23.131  14.564
53237W        W24963  34.158  15.508   3.207
53238W        W24964  19.498   6.757  13.816
53239W        W24965  10.469  25.194   9.779
53240W        W24966   1.781  33.407  12.355
53241W        W24967  44.178   0.551   4.672
53242W        W24968  25.352  11.646   4.627
53243W        W24969  24.187  19.799   2.142
53244W        W24970  32.343  33.863   2.333
53245W        W24971  40.307  22.495  14.036
53246W        W24972   0.244   1.035  12.410
53247W        W24973   8.401  33.893  14.185
53248W        W24974  31.172  36.817   3.452
53249W        W24975  25.157  13.241  14.309
53250W        W24976   1.111  38.042   1.431
53251W        W24977  44.269  25.721   4.121
53252W        W24978  25.302  20.198   3.256
53253W        W24979  24.964   0.328  11.022
53254W        W24980  21.182  17.468  11.945
53255W        W24981  30.464  40.242   0.145
53256W        W24982   2.190  38.969   4.568
53257W        W24983  32.092  12.887   4.722
53258W        W24984  37.435   3.900  11.070
53259W        W24985   2.990  38.323   2.440
53260W        W24986  17.777   8.360  14.468
53261W        W24987   6.460   8.111  13.812
53262W        W24988  41.584  44.932  13.896
53263W        W24989  20.358  17.728  11.591
53264W        W24990  24.726  15.747  13.992
53265W        W24991   1.927   0.108   3.049
53266W        W24992  19.972  43.943   3.269
53267W        W24993   8.502  36.816  10.516
53268W        W24994  23.591  11.618  13.781
53269W        W24995  16.673  37.783  14.376
53270W        W24996  35.594  18.087   0.440
53271W        W24997   1.500  25.305  14.344
53272W        W24998   5.365  26.030   3.372
53273W        W24999  29.828  23.845  10.163
53274W        W25000  36.797  13.371   4.622
53275W        W25001  42.702  29.691   2.741
53276W        W25002  20.892  11.767   0.086
53277W        W25003   3.371   6.150   3.263
53278W        W25004   3.892   2.020   1.990
53279W        W25005  40.947  36.996  14.239
53280W        W25006  24.578  24.627   0.168
53281W        W25007  26.925  39.552   2.410
53282W        W25008  32.885  11.175   1.875
53283W        W25009  16.094  26.995  13.587
53284W        W25010  36.465  16.760  14.534
53285W        W25011  27.951  24.186   2.415
53286W        W25012   6.537  15.741  12.070
53287W        W25013  10.969  39.457   2.940
53288W        W25014  38.931  41.562   0.872
53289W        W25015  33.904  29.443   0.217
53290W        W25016  20.778  20.162  11.144
53291W        W25017  44.499  42.796  12.921
53292W        W25018  31.373   3.132  12.272
53293W        W25019  25.973  27.871   2.132
53294W        W25020  32.871  44.053   3.636
53295W        W25021  25.673  12.866  13.425
53296W        W25022  17.654  42.873   3.634
53297W        W25023  28.424  34.808  14.924
53298W        W25024  16.936  37.889  13.371
53299W        W25025  43.992  24.862  11.557
53300W        W25026  10.590  40.333   0.528
53301W        W25027  42.383  17.475   3.832
53302W        W25028  38.689  18.854  12.525
53303W        W25029  42.100  23.724  10.228
53304W        W25030  13.675  14.747   3.213
53305W        W25031  33.950  17.049  14.081
53306W        W25032  22.656  28.571  14.055
53307W        W25033  34.656  18.489   1.404
53308W        W25034   4.444   4.789   1.491
53309W        W25035  16.732   8.808   4.541
53310W        W25036   6.478  34.404  13.790
53311W        W25037  28.417  19.803  11.000
53312W        W25038  31.147  14.396  12.445
53313W        W25039  36.589  39.879  14.571
53314W        W25040  34.030  36.626  12.872
53315W        W25041  29.126  29.964   0.406
53316W        W25042  30.519  29.485   0.516
53317W        W25043   5.764   2.924   1.383
53318W        W25044  14.131  19.196   3.511
53319W        W25045  35.674  40.531   1.193
53320W        W25046  11.371  14.243  12.775
53321W        W25047   6.778  40.223   2.719
53322W        W25048   2.820  13.444   1.312
53323W        W25049  37.591   4.228  10.682
53324W        W25050  20.646  43.457  12.611
53325W        W25051  37.373  36.791   0.259
53326W        W25052   3.792   4.405  14.453
53327W        W25053   7.741  18.184  11.624
53328W        W25054  36.963  19.510  13.849
53329W        W25055  38.339  20.113  13.253
53330W        W25056  40.407   4.941  13.851
53331W        W25057  24.188  33.526  14.536
53332W        W25058  40.512  33.629   4.961
53333W        W25059  39.075  28.630   4.493
53334W        W25060  19.937   2.057  12.179
53335W        W25061   9.478  29.432  10.786
53336W        W25062  26.430  32.266  11.238
53337W        W25063  16.658  17.730   0.324
53338W        W25064  18.195  34.432  13.064
53339W        W25065  12.841  24.014  12.194
53340W        W25066  36.324  42.014   4.753
53341W        W25067  29.297  41.899   2.462
53342W        W25068  42.408  12.287  12.605
53343W        W25069  33.730   2.482   2.204
53344W        W25070  20.691   6.145  11.532
53345W        W25071   1.323  14.426   3.405
53346W        W25072  13.279  30.145  13.292
53347W        W25073  21.100  25.521  14.207
53348W        W25074  34.122  18.674  14.812
53349W        W25075   6.236  27.053   3.336
53350W        W25076  24.931   7.758  11.385
53351W        W25077  24.753   2.007   1.334
53352W        W25078  38.795  27.964  12.018
53353W        W25079  28.062  13.344   2.414
53354W        W25080  26.544  37.097  14.598
53355W        W25081  27.558  43.882   1.754
53356W        W25082  27.484  44.044  12.505
53357W        W25083  19.070  17.728   0.867
53358W        W25084  37.728  15.214   3.159
53359W        W25085  19.568  27.081  10.472
53360W        W25086   7.383  35.487  10.514
53361W        W25087  10.808  22.569   2.806
53362W        W25088  29.207   1.882  14.909
53363W        W25089  31.917  24.557   3.634
53364W        W25090  33.497  42.881  11.641
53365W        W25091  41.355   1.823  13.919
53366W        W25092   7.376  15.165  13.424
53367W        W25093  27.344  20.358   3.978
53368W        W25094  36.589  10.742   1.343
53369W        W25095   0.664  11.619   2.122
53370W        W25096  33.428   0.476   0.489
53371W        W25097  10.486   2.501  10.446
53372W        W25098  26.582  31.960   4.633
53373W        W25099  43.458  40.452  10.711
53374W        W25100  10.804  29.213   0.254
53375W        W25101  43.530  13.773   5.054
53376W        W25102  40.584   2.842  11.956
53377W        W25103  40.879  12.289   1.756
53378W        W25104  43.871  31.114  14.205
53379W        W25105   4.819  12.670  12.948
53380W        W25106   5.845   7.334  10.729
53381W        W25107  16.784  29.440   2.958
53382W        W25108   2.969   9.455   2.386
53383W        W25109  39.184  21.904   2.713
53384W        W25110  26.975  19.170  13.345
53385W        W25111  20.792  33.669  13.713
53386W        W25112   3.644  21.764  11.053
53387W        W25113  44.978  12.105  11.120
53388W        W25114  11.598  33.428  11.003
53389W        W25115  42.759   5.510   1.180
53390W        W25116  30.624  33.425  10.939
53391W        W25117   3.899  23.945   1.119
53392W        W25118   6.798   2.823   0.292
53393W        W25119  36.812  23.132   0.411
53394W        W25120  20.241  41.321   4.655
53395W        W25121   7.945  12.856  13.302
53396W        W25122   1.900  24.920   3.142
53397W        W25123  22.198   7.779   1.852
53398W        W25124   4.868  15.533  13.325
53399W        W25125  27.052  22.237   3.236
53400W        W25126  24.909  20.114  14.738
53401W        W25127  10.277  33.578   1.343
53402W        W25128  39.022  18.623   3.789
53403W        W25129  25.214  36.873  13.905
53404W        W25130  22.218   6.516   4.082
53405W        W25131  25.126   1.364  14.351
53406W        W25132   2.402  28.109   0.637
53407W        W25133  29.930  20.494   3.542
53408W        W25134  25.576  30.666  14.322
53409W        W25135  40.361  20.454   2.398
53410W        W25136  44.727  11.892   1.834
53411W        W25137  25.826  16.366  10.626
53412W        W25138   7.220  25.016  13.321
53413W        W25139  26.140  12.634   3.727
53414W        W25140  21.204  30.681  10.799
53415W        W25141  37.955  34.448  13.185
53416W        W25142  20.573  34.372  11.426
53417W        W25143   6.738   7.647  12.498
53418W        W25144  14.378   7.618   2.623
53419W        W25145  36.830  21.849  11.860
53420W        W25146  33.725  39.057  12.775
53421W        W25147  32.036  39.369  12.405
53422W        W25148  42.524  40.009  13.133
53423W        W25149  38.894  16.188  14.888
53424W        W25150  39.697  42.762  11.988
53425W        W25151  11.237  20.528   2.780
53426W        W25152  44.618  35.067  11.586
53427W        W25153  28.795  44.991  10.562
53428W        W25154  29.286   0.407   4.602
53429W        W25155  30.354  18.337  12.667
53430W        W25156  19.639  40.856  11.613
53431W        W25157  18.088  42.627   4.411
53432W        W25158  15.650  24.133   2.153
53433W        W25159  25.638  15.741   1.762
53434W        W25160  12.265  17.146  10.719
53435W        W25161  27.452  31.018   2.763
53436W        W25162  33.479  21.189  10.642
53437W        W25163   0.300   2.259   0.848
53438W        W25164  26.433  15.298   0.496
53439W        W25165  24.931  24.709   4.097
53440W        W25166  10.364  32.811   1.661
53441W        W25167  11.767  19.329   2.348
53442W        W25168  29.169  15.358  11.818
53443W        W25169  16.637  44.598  14.273
53444W        W25170   1.869  33.612  11.892
53445W        W25171  14.808  40.276   3.723
53446W        W25172  43.188  21.295   1.932
53447W        W25173  23.834   8.109   2.870
53448W        W25174   2.937  40.470   1.732
53449W        W25175  43.754  37.893   1.673
53450W        W25176   7.718  33.427   3.793
53451W        W25177  40.289   1.028   5.127
53452W        W25178  34.094  37.467  11.636
53453W        W25179  38.300  38.880  14.306
53454W        W25180  36.809   8.772  14.776
53455W        W25181   3.039  31.455   1.339
53456W        W25182  12.368  19.501  12.414
53457W        W25183   8.787  10.371  10.411
53458W        W25184  29.908  25.806  12.521
53459W        W25185  20.598  27.532  12.965
53460W        W25186  34.176  32.723  14.371
53461W        W25187  42.237   4.860  11.069
53462W        W25188  29.924   5.737  12.140
53463W        W25189  33.599  32.252   3.663
53464W        W25190  19.502  39.380  12.645
53465W        W25191  30.542  23.108  10.494
53466W        W25192   5.751  32.842  12.533
53467W        W25193  14.846  42.435   4.602
53468W        W25194   2.271  22.027  11.663
53469W        W25195  18.370  39.430   1.443
53470W        W25196  15.180  10.144   1.354
53471W        W25197  23.553  35.519  13.010
53472W        W25198  37.954  33.599  11.095
53473W        W25199   5.954  15.647   1.287
53474W        W25200   9.418   7.091  14.291
53475W        W25201  40.628   7.689   4.578
53476W        W25202  36.922   0.899   4.202
53477W        W25203  37.101  13.951   3.369
53478W        W25204  23.603   9.144   4.165
53479W        W25205  23.089  14.628  10.691
53480W        W25206  35.065   7.905  14.892
53481W        W25207   3.380  13.641  12.099
53482W        W25208   2.863  33.332  10.539
53483W        W25209  16.444   6.867  11.918
53484W        W25210  20.633  30.542  12.373
53485W        W25211   8.875   7.201   1.803
53486W        W25212  44.758  42.823   2.310
53487W        W25213  43.955  27.773   1.597
53488W        W25214  12.100  16.040  14.996
53489W        W25215  26.454  30.132   3.290
53490W        W25216   7.457  37.594   1.487
53491W        W25217  41.883  42.241   4.583
53492W        W25218  38.175   2.185   3.019
53493W        W25219   7.433  24.916  14.738
53494W        W25220  25.255  10.648  14.100
53495W        W25221  32.027  31.724  14.016
53496W        W25222  25.684  27.552   2.747
53497W        W25223  41.079  38.865   2.886
53498W        W25224  18.598  35.453  14.992
53499W        W25225  23.617  27.185   4.977
53500W        W25226  24.376  33.538  10.657
53501W        W25227   6.975  37.589   1.289
53502W        W25228  23.516  30.631  11.951
53503W        W25229  37.491  27.541  12.470
53504W        W25230  21.535  27.486  13.388
53505W        W25231  22.658  27.580   2.708
53506W        W25232  14.665  19.321   2.411
53507W        W25233  19.565  14.826  11.681
53508W        W25234  32.942  42.273   4.904
53509W        W25235  31.089  14.756  10.695
53510W        W25236   6.481  12.640   2.921
53511W        W25237  25.481  20.240   0.909
53512W        W25238  18.600  36.542  14.839
53513W        W25239  33.219  34.862   3.344
53514W        W25240  42.943  35.950  11.211
53515W        W25241  32.386  20.526   1.201
53516W        W25242  44.916   2.872   4.658
53517W        W25243  13.143  14.750  14.469
53518W        W25244  29.481  10.199  14.022
53519W        W25245   0.469  33.320  14.819
53520W        W25246  37.498  19.668   0.963
53521W        W25247  42.016  38.884  13.326
53522W        W25248  36.573  44.755   1.354
53523W        W25249  35.439  33.097   0.323
53524W        W25250  23.756   5.828   1.795
53525W        W25251  21.083   0.410  13.007
53526W        W25252  36.398  38.908  13.133
53527W        W25253  37.526  29.635  13.337
53528W        W25254  29.054  37.935   3.197
53529W        W25255  35.758  43.245   2.798
53530W        W25256   5.430  10.603   3.816
53531W        W25257  35.791   4.430  12.342
53532W        W25258  19.773   9.399  11.904
53533W        W25259  34.922   2.955   3.112
53534W        W25260   9.681  11.588  13.115
53535W        W25261  19.745  23.989  14.017
53536W        W25262  44.334  24.160  14.755
53537W        W25263   4.870  21.418  14.050
53538W        W25264  34.079  44.200   1.745
53539W        W25265  42.639  12.229  14.151
53540W        W25266  31.343  21.140  10.503
53541W        W25267  30.430  41.605  11.862
53542W        W25268   5.690   2.015   4.104
53543W        W25269  12.797  21.146  14.830
53544W        W25270  36.066  39.598   0.529
53545W        W25271  36.086  27.713  12.863
53546W        W25272  26.989  12.120   3.747
53547W        W25273  16.678   6.106  13.955
53548W        W25274  11.114  26.999   1.200
53549W        W25275  21.235  32.949   0.874
53550W        W25276  36.289  21.240   1.852
53551W        W25277   4.801  13.265  10.789
53552W        W25278  42.840  19.516   0.731
53553W        W25279  20.803  37.086   1.292
53554W        W25280   3.037   9.784   2.836
53555W        W25281   1.053  40.298   1.840
53556W        W25282  41.951  10.120  11.113
53557W        W25283  19.912   1.288  11.722
53558W        W25284  33.522  24.616  11.412
53559W        W25285  21.347  41.791   2.400
53560W        W25286  25.807  38.621   2.624
53561W        W25287   1.959   6.196  10.739
53562W        W25288  28.462   9.319  11.673
53563W        W25289  38.462  23.480  14.479
53564W        W25290  37.284  25.276   3.924
53565W        W25291  37.730  24.993   4.070
53566W        W25292  23.402   7.868  14.267
53567W        W25293  18.175  37.392  14.311
53568W        W25294  18.257  16.978  12.391
53569W        W25295  29.539   7.592   4.497
53570W        W25296  44.039  37.865  14.737
53571W        W25297   8.337   3.484  13.986
53572W        W25298  40.944  19.419  11.550
53573W        W25299  14.635  25.887   2.819
53574W        W25300   2.277  43.353   0.904
53575W        W25301  21.099  32.374  14.005
53576W        W25302  22.911  18.255   4.403
53577W        W25303  20.255  25.904  12.452
53578W        W25304  20.648   1.275  14.937
53579W        W25305  34.690  24.707   0.741
53580W        W25306   0.463  38.511  13.159
53581W        W25307  19.514  10.180  13.440
53582W        W25308  30.836  34.092   3.281
53583W        W25309   9.613  13.403   2.888
53584W        W25310  22.648  30.903  14.816
53585W        W25311  29.638  33.777  13.487
53586W        W25312  33.383  43.465  10.942
53587W        W25313   8.094  26.713   1.301
53588W        W25314   9.264  32.114  13.383
53589W        W25315  14.880  29.045  11.311
53590W        W25316   6.190  15.544   0.350
53591W        W25317  38.070  30.380  14.329
53592W        W25318  24.515  43.841  14.913
53593W        W25319  24.911  14.629   3.886
53594W        W25320   2.957  20.445  14.009
53595W        W25321  35.922  13.365   4.708
53596W        W25322  16.961  10.928   0.276
53597W        W25323  10.154   7.598  14.334
53598W        W25324  22.779  41.983   0.817
53599W        W25325   2.455   9.769   4.517
53600W        W25326  31.172  12.750  11.447
53601W        W25327  18.349  21.808   0.598
53602W        W25328   5.302  30.070   1.029
53603W        W25329  26.335  36.396  13.550
53604W        W25330   8.415   2.684  10.664
53605W        W25331  25.920  28.950  11.367
53606W        W25332  44.692  33.315  11.170
53607W        W25333  42.987  44.528   0.344
53608W        W25334  38.839  42.011  12.657
53609W        W25335  34.335   0.061  14.433
53610W        W25336  14.646   4.180   3.300
53611W        W25337  12.665  35.493  11.237
53612W        W25338  11.621  23.006   2.638
53613W        W25339   8.102  11.385  12.178
53614W        W25340  35.422  15.511  13.054
53615W        W25341  21.324  11.615  11.056
53616W        W25342  40.362  31.347   0.467
53617W        W25343  25.632  34.949  12.605
53618W        W25344   2.310   2.231  14.936
53619W        W25345  19.644  34.640  12.886
53620W        W25346  43.162   9.615   3.154
53621W        W25347  24.024   0.440   5.090
53622W        W25348  29.216  25.305   4.968
53623W        W25349  10.705  26.610   3.200
53624W        W25350  27.038   1.463   3.193
53625W        W25351  21.096  44.485  11.975
53626W        W25352  26.742   5.392  10.702
53627W        W25353  31.610  18.305   3.291
53628W        W25354  21.616  15.086   9.725
53629W        W25355  28.380   4.329  14.527
53630W        W25356  34.065   3.089   3.656
53631W        W25357  23.587   6.863   0.338
53632W        W25358  33.577  17.169   2.689
53633W        W25359  31.519  12.812  10.622
53634W        W25360  41.220  18.529  13.792
53635W        W25361   8.727  36.398  11.428
53636W        W25362  28.508  31.740   1.853
53637W        W25363  19.624   4.710   2.769
53638W        W25364   0.531  11.026  12.449
53639W        W25365  33.089  14.074  12.959
53640W        W25366  38.752  34.437  14.939
53641W        W25367  18.758  43.753   4.242
53642W        W25368  29.469  32.639  11.891
53643W        W25369  28.035  16.438   0.353
53644W        W25370  43.050  17.061   2.399
53645W        W25371  28.849   7.610  12.390
53646W        W25372  13.754  27.845   4.982
53647W        W25373  33.655  10.308  10.882
53648W        W25374  43.339   7.725   0.653
53649W        W25375  27.714  32.328   4.657
53650W        W25376  24.094  21.948  11.114
53651W        W25377  12.889   6.918  12.178
53652W        W25378   8.898  23.545   0.698
53653W        W25379  20.485  33.312  11.093
53654W        W25380   4.004   1.910  14.392
53655W        W25381   9.497  10.547   2.151
53656W        W25382  27.990  43.997  10.561
53657W        W25383  30.086  10.664   4.521
53658W        W25384  11.866  43.434  11.992
53659W        W25385  37.957  17.532   0.302
53660W        W25386  35.156  23.498   3.219
53661W        W25387   6.452  33.183   3.170
53662W        W25388  36.274   1.955   1.888
53663W        W25389  18.782  19.818  13.366
53664W        W25390   5.354  15.028   1.856
53665W        W25391  18.736  31.157  13.333
53666W        W25392  30.468  31.862   0.336
53667W        W25393  38.456  14.237   0.966
53668W        W25394   6.577   4.825  12.336
53669W        W25395  14.258  34.589   3.234
53670W        W25396  43.006  42.700   4.146
53671W        W25397  20.687   7.966   3.665
53672W        W25398  31.000  23.248  10.215
53673W        W25399  22.933   3.772  11.962
53674W        W25400  13.702  38.455   3.076
53675W        W25401  17.919  43.325   3.860
53676W        W25402  15.886  30.706  11.146
53677W        W25403  31.415  13.378   4.578
53678W        W25404  13.018  30.957   1.295
53679W        W25405   3.215  15.234  10.461
53680W        W25406   6.334   2.590   0.154
53681W        W25407  37.081  31.520   0.762
53682W        W25408  23.179  23.287  13.338
53683W        W25409  30.455  24.717   3.758
53684W        W25410  25.563  25.761  13.969
53685W        W25411  32.475  19.612   4.952
53686W        W25412   2.776   4.763   1.926
53687W        W25413  30.679  17.777   1.923
53688W        W25414  25.919  33.799   1.853
53689W        W25415  15.070   5.277  12.306
53690W        W25416  30.048  16.342   1.657
53691W        W25417   5.175  26.940  13.492
53692W        W25418  38.100  44.565   4.185
53693W        W25419  30.351  14.768   1.339
53694W        W25420  14.151  30.595  12.205
53695W        W25421  19.237  18.018  14.461
53696W        W25422  24.145  14.695  13.352
53697W        W25423  23.274  24.370   4.758
53698W        W25424  29.649   2.273   1.098
53699W        W25425  42.130  11.633  11.925
53700W        W25426  13.340  23.431   2.920
53701W        W25427  26.522   9.661  12.824
53702W        W25428  16.252   1.444  13.933
53703W        W25429  41.405   5.353  12.414
53704W        W25430  43.420  17.949  11.943
53705W        W25431  15.179  19.610  14.597
53706W        W25432  25.690   3.860  12.053
53707W        W25433  29.687  10.967  10.865
53708W        W25434   0.022   5.405  11.164
53709W        W25435   0.574   0.454   3.123
53710W        W25436  39.361  37.326  10.792
53711W        W25437   3.226  37.908   1.948
53712W        W25438  15.237  20.052   0.788
53713W        W25439  23.290   1.928  11.290
53714W        W25440  19.035   2.907   2.424
53715W        W25441  38.869  39.506   0.887
53716W        W25442  29.629  27.998   1.024
53717W        W25443  42.909  44.066  12.174
53718W        W25444   3.802  16.733  11.138
53719W        W25445  35.996  23.264   2.169
53720W        W25446  13.702   2.411   2.311
53721W        W25447  15.304  11.646  12.433
53722W        W25448  39.827  32.709   0.394
53723W        W25449   9.440   9.402  12.026
53724W        W25450  12.365  30.700  12.993
53725W        W25451  10.187  38.542  13.459
53726W        W25452  25.825  21.772   1.364
53727W        W25453  21.966   1.251  12.109
53728W        W25454   2.310  25.640   3.632
53729W        W25455   5.732  36.446   0.846
53730W        W25456  13.162  16.214   0.455
53731W        W25457  15.610  10.619  14.957
53732W        W25458  33.119  22.697  14.345
53733W        W25459   6.539  16.089  13.862
53734W        W25460   4.423   9.164  14.920
53735W        W25461  13.165   3.962  14.758
53736W        W25462   2.363   0.408   1.600
53737W        W25463  14.797   5.103  11.433
53738W        W25464  32.890  29.302  13.880
53739W        W25465  16.160  44.765   0.552
53740W        W25466  21.792   5.379  11.937
53741W        W25467   7.825  21.494   2.365
53742W        W25468  28.442  29.694  11.548
53743W        W25469  44.983  18.657  13.053
53744W        W25470  40.411  36.644  14.808
53745W        W25471  34.596  23.518  12.288
53746W        W25472   8.462  18.719   3.547
53747W        W25473   6.633  24.367  11.082
53748W        W25474  27.203  39.978   4.071
53749W        W25475  44.325   2.355   2.603
53750W        W25476  37.164   6.293   0.204
53751W        W25477  14.705  36.838  14.789
53752W        W25478  44.485   9.472  12.478
53753W        W25479  21.593  32.001   1.560
53754W        W25480   8.809   1.882   4.620
53755W        W25481  19.708  21.015   1.223
53756W        W25482  30.134  38.961  13.375
53757W        W25483  33.767   4.968  10.588
53758W        W25484   8.126  30.080  11.093
53759W        W25485  32.422  16.022   3.646
53760W        W25486  13.427  41.674  11.556
53761W        W25487  30.449  39.398   2.840
53762W        W25488  41.741  20.235  14.396
53763W        W25489  21.145  31.586   2.229
53764W        W25490  20.373  12.151   0.772
53765W        W25491  28.661  26.780  11.592
53766W        W25492  35.771  14.052   1.814
53767W        W25493  43.572  39.078   3.902
53768W        W25494   7.253   8.940   3.476
53769W        W25495  16.614  26.482   4.584
53770W        W25496  24.629  41.998  14.473
53771W        W25497   5.165  18.461  12.098
53772W        W25498  21.529   3.698  12.987
53773W        W25499  24.981  27.547   2.350
53774W        W25500  33.210  43.308   4.740
53775W        W25501  19.597  12.925  14.531
53776W        W25502  17.790  10.434  11.162
53777W        W25503  19.053   4.242   4.538
53778W        W25504  24.674  15.298   0.872
53779W        W25505  11.272  30.600   2.162
53780W        W25506  12.835   9.789  10.594
53781W        W25507  39.298  27.637  12.841
53782W        W25508  43.886   7.361   3.238
53783W        W25509   1.106   2.257   1.382
53784W        W25510  15.852  41.606   4.258
53785W        W25511  22.450  19.248   2.558
53786W        W25512  21.036   9.163   2.133
53787W        W25513  29.556  26.092   4.712
53788W        W25514  15.044  27.555   1.302
53789W        W25515  38.991  35.070   1.012
53790W        W25516  15.556   2.980   1.330
53791W        W25517  35.501  27.638   3.943
53792W        W25518   2.475  39.678  14.810
53793W        W25519  26.233  29.610   4.590
53794W        W25520  32.091  33.100  11.209
53795W        W25521  40.827   0.719  10.790
53796W        W25522  42.688   7.985   2.752
53797W        W25523  21.691  16.369   1.390
53798W        W25524   5.680  34.796   4.499
53799W        W25525  15.750   2.882   3.131
53800W        W25526   5.853  24.660  10.924
53801W        W25527   1.673   2.244  10.651
53802W        W25528  30.868  22.227  10.805
53803W        W25529  17.147   7.216   3.154
53804W        W25530  30.104   4.087   1.710
53805W        W25531  20.839  35.931  10.686
53806W        W25532  27.132  14.014  10.273
53807W        W25533  26.030   1.837   3.355
53808W        W25534   7.965  35.870   1.394
53809W        W25535  31.837   1.921   3.068
53810W        W25536  44.195  32.106   5.189
53811W        W25537  43.575  40.445  13.480
53812W        W25538   8.844  44.010   3.545
53813W        W25539  21.002   9.430  13.628
53814W        W25540   0.773  35.336  13.116
53815W        W25541  35.409  28.519   2.539
53816W        W25542   4.279  41.407   0.394
53817W        W25543  12.324  22.801  13.930
53818W        W25544  19.279  17.632  13.895
53819W        W25545  28.401  17.627  14.790
53820W        W25546   0.162  14.903   1.254
53821W        W25547  14.274  43.751  14.927
53822W        W25548  31.989   6.333  11.437
53823W        W25549  32.653  13.674   4.542
53824W        W25550  41.555   1.769  14.880
53825W        W25551  38.310  37.693   3.758
53826W        W25552  31.390  41.755  11.608
53827W        W25553  42.250  12.729   1.734
53828W        W25554  20.073   4.939  14.014
53829W        W25555   0.441  19.359   3.439
53830W        W25556  19.096  13.530  13.084
53831W        W25557   6.283  24.202   4.524
53832W        W25558  22.553  18.791   0.925
53833W        W25559  15.155  22.945   2.660
53834W        W25560  22.959   0.319   1.000
53835W        W25561  30.571  41.300  12.424
53836W        W25562  34.220  11.269   3.062
53837W        W25563  42.257  21.721  14.014
53838W        W25564  44.301  13.672   4.277
53839W        W25565  20.727  10.274   2.076
53840W        W25566  41.120   9.397  12.515
53841W        W25567  11.701  34.883   1.231
53842W        W25568  11.386  20.521   4.193
53843W        W25569  11.562   4.096   4.133
53844W        W25570  17.151  32.995   1.675
53845W        W25571  31.473  44.759   2.356
53846W        W25572  23.049   8.743  12.057
53847W        W25573  34.963  17.281  11.241
53848W        W25574  16.877  14.763  12.275
53849W        W25575  30.996  11.892   1.271
53850W        W25576  21.896  12.341  14.663
53851W        W25577  28.646  35.941  13.220
53852W        W25578   4.300   9.668  10.741
53853W        W25579  42.328  30.946   1.155
53854W        W25580   5.256  14.819  10.680
53855W        W25581  26.010  25.937  14.189
53856W        W25582  33.014  27.703  12.364
53857W        W25583  12.023  25.137   4.474
53858W        W25584  41.780   7.004   4.651
53859W        W25585  36.057  24.522   0.953
53860W        W25586  20.387  18.130   1.772
53861W        W25587  44.546   1.869   2.669
53862W        W25588   2.827  17.487   3.208
53863W        W25589  42.686   0.137  11.200
53864W        W25590  40.548  13.872  14.358
53865W        W25591  16.245  39.787  13.521
53866W        W25592  44.764   6.649  14.325
53867W        W25593   8.293  26.347  10.673
53868W        W25594   3.781   0.467  12.010
53869W        W25595  26.467  24.131   0.684
53870W        W25596  24.966  22.557  10.439
53871W        W25597  33.471  15.229  10.537
53872W        W25598  20.613  20.293  10.675
53873W        W25599  38.934   9.920   1.766
53874W        W25600   9.242   0.413   1.827
53875W        W25601  13.666  29.863  13.486
53876W        W25602  33.008  30.522  12.047
53877W        W25603  17.736   7.494   2.819
53878W        W25604  19.571   8.059  12.013
53879W        W25605  43.258  22.594  12.564
53880W        W25606  18.334  39.563   2.218
53881W        W25607  34.948  24.084   4.225
53882W        W25608   9.822   2.906  12.117
53883W        W25609  38.884  14.263  10.978
53884W        W25610  18.062   1.725  14.509
53885W        W25611  24.196  22.223  10.691
53886W        W25612  22.258   5.967   4.176
53887W        W25613   6.486  27.439  11.643
53888W        W25614  39.346  40.469   1.017
53889W        W25615   9.298  41.969  13.866
53890W        W25616   2.283  25.919  13.988
53891W        W25617  28.138  17.232  12.159
53892W        W25618  43.723  11.343  12.520
53893W        W25619  42.884   0.945   4.711
53894W        W25620  43.374  22.340  13.499
53895W        W25621  24.384  37.373  13.268
53896W        W25622  13.249   6.372   0.871
53897W        W25623   1.769  30.079   0.289
53898W        W25624  39.315   6.864  13.966
53899W        W25625  31.000   3.910   1.279
53900W        W25626  24.181  36.928  14.593
53901W        W25627  42.085  25.099   2.979
53902W        W25628  32.293  30.578  14.852
53903W        W25629  25.167  19.782   0.037
53904W        W25630  26.348   0.399   5.412
53905W        W25631  32.485  17.149  13.153
53906W        W25632  14.029  11.375   2.025
53907W        W25633   5.256  14.831   2.814
53908W        W25634   1.469  29.405  13.853
53909W        W25635  15.703  38.668  14.492
53910W        W25636   8.772  31.494  10.685
53911W        W25637  26.172  21.732  13.835
53912W        W25638   8.619   0.164   2.688
53913W        W25639  24.192  29.730   4.115
53914W        W25640   4.253   2.406  14.349
53915W        W25641  34.591  32.178  14.962
53916W        W25642  44.407  11.654   2.207
53917W        W25643  31.364   8.742   1.370
53918W        W25644  34.120  22.146  12.989
53919W        W25645  17.089  10.584   1.501
53920W        W25646  22.344  30.373  14.361
53921W        W25647  31.615  13.034   3.719
53922W        W25648  43.283   4.276   1.102
53923W        W25649   1.426  22.091  14.318
53924W        W25650  34.816  12.438  14.167
53925W        W25651  23.205  16.103   1.325
53926W        W25652   8.000  42.233  12.514
53927W        W25653  15.575  11.854  13.412
53928W        W25654  32.868  43.979  12.809
53929W        W25655  25.962  16.361   2.243
53930W        W25656  35.880  18.490   0.613
53931W        W25657  29.722   7.199   2.303
53932W        W25658  30.721  34.558  12.556
53933W        W25659  13.192   5.370   0.681
53934W        W25660  13.613  42.336   1.908
53935W        W25661  19.282  21.588  12.692
53936W        W25662  42.489  30.333   4.801
53937W        W25663  38.938  12.270  11.839
53938W        W25664  23.132  16.060   0.435
53939W        W25665  34.737  29.299   1.158
53940W        W25666   9.203  40.967  12.970
53941W        W25667   8.768  12.440   1.248
53942W        W25668  27.515  10.217   4.496
53943W        W25669  21.087  20.710  10.663
53944W        W25670  11.731  30.675   1.593
53945W        W25671   7.694   0.051   2.876
53946W        W25672  21.289  31.925   0.183
53947W        W25673  31.371   9.848  13.730
53948W        W25674   6.373  14.094   3.302
53949W        W25675  23.340  32.663  12.317
53950W        W25676  32.559  22.221  12.110
53951W        W25677  19.624  17.171   0.215
53952W        W25678   4.521  39.182   2.211
53953W        W25679  36.041  43.566  12.077
53954W        W25680  39.312  25.790  12.356
53955W        W25681  30.735  13.081   2.201
53956W        W25682  13.246   0.657   4.685
53957W        W25683  14.185  35.095  13.460
53958W        W25684   5.090  40.000   2.373
53959W        W25685  41.343  38.274   4.505
53960W        W25686   2.725  15.307  11.170
53961W        W25687  16.296  22.636   4.140
53962W        W25688  22.606  37.639  14.806
53963W        W25689  27.480   5.219  12.478
53964W        W25690  34.903  15.779  11.092
53965W        W25691  10.587  12.435   2.831
53966W        W25692  22.431  25.983  10.369
53967W        W25693   5.823  19.280  11.876
53968W        W25694  43.233  27.426  13.067
53969W        W25695  29.598  31.671  11.172
53970W        W25696  12.331  10.977   2.387
53971W        W25697  39.903  18.466   0.706
53972W        W25698  10.137  40.529   4.121
53973W        W25699  34.355  14.293   3.778
53974W        W25700  18.157  12.239  12.339
53975W        W25701   4.522  39.606   1.763
53976W        W25702  42.989  17.145   0.227
53977W        W25703   4.415  23.754  14.463
53978W        W25704  22.174   8.383   1.248
53979W        W25705  19.507   6.606  11.146
53980W        W25706  23.568  39.268  14.681
53981W        W25707  30.792  11.333  14.511
53982W        W25708  33.563  11.347  10.390
53983W        W25709  32.151  42.501   2.595
53984W        W25710  24.140   0.096  10.639
53985W        W25711  35.830  36.924   3.229
53986W        W25712  26.603  40.031  12.981
53987W        W25713  27.166  33.999   2.703
53988W        W25714  16.723  38.735   3.058
53989W        W25715  19.038  34.061  10.587
53990W        W25716  15.271  15.164  13.141
53991W        W25717  24.914   3.860  12.363
53992W        W25718   8.874   8.949  12.018
53993W        W25719  31.487  29.441  11.417
53994W        W25720  28.112  37.640   1.762
53995W        W25721  16.924   0.248   4.705
53996W        W25722  19.232  24.334   2.328
53997W        W25723  11.840  24.741  12.586
53998W        W25724  26.471  20.055   0.490
53999W        W25725   2.817  20.200   2.259
54000W        W25726  44.755  24.702   0.263
54001W        W25727  40.439   3.480   5.027
54002W        W25728  29.457  43.541  11.669
54003W        W25729  20.444  33.459  12.390
54004W        W25730   4.632   4.360   0.037
54005W        W25731   5.855   1.294  11.802
54006W        W25732  13.766  27.121  12.534
54007W        W25733  41.732  16.159  11.937
54008W        W25734   1.909  37.582   0.839
54009W        W25735  23.272  16.670  13.978
54010W        W25736  17.037  18.576  13.981
54011W        W25737  19.762  43.721  14.913
54012W        W25738  15.066  43.170   0.333
54013W        W25739  37.876  21.912  13.430
54014W        W25740  20.762  20.733   0.548
54015W        W25741  40.881   9.623   3.112
54016W        W25742  43.805   2.980   1.279
54017W        W25743  21.196  30.199  11.633
54018W        W25744  23.162  11.944   1.289
54019W        W25745  26.986  28.124  13.363
54020W        W25746  21.780  14.809   2.662
54021W        W25747  29.167  23.487   1.244
54022W        W25748  11.670  11.389  10.657
54023W        W25749   8.829   2.994  10.523
54024W        W25750  22.944   7.910  14.522
54025W        W25751  26.180   2.431  14.459
54026W        W25752  14.934  20.231  11.632
54027W        W25753  14.918  13.266   3.231
54028W        W25754  32.517  21.670  11.629
54029W        W25755   3.855   9.190  12.935
54030W        W25756  36.868  36.597  12.904
54031W        W25757  19.969  29.208  14.318
54032W        W25758  18.994  17.287  14.891
54033W        W25759  38.288   1.897   4.830
54034W        W25760   1.789  23.176  12.443
54035W        W25761   9.209   8.624   2.612
54036W        W25762  36.782  14.415  12.508
54037W        W25763  34.345  40.415   1.226
54038W        W25764  35.605   6.155   0.317
54039W        W25765  20.227  19.832   3.840
54040W        W25766  38.107   5.357   2.225
54041W        W25767   9.902  25.422   1.413
54042W        W25768   1.738  30.478   2.241
54043W        W25769  23.606   7.772   1.425
54044W        W25770  13.674   2.848   3.346
54045W        W25771  10.398  12.734  14.003
54046W        W25772   8.276   4.376  12.644
54047W        W25773  35.189  29.439   3.232
54048W        W25774   1.365  23.219   3.217
54049W        W25775  44.106   2.760   2.252
54050W        W25776  31.476   9.862  14.699
54051W        W25777   1.301  14.632   4.868
54052W        W25778  27.494  12.846   0.968
54053W        W25779  40.281  13.515   1.871
54054W        W25780  34.093   0.239  12.161
54055W        W25781   1.117  42.689   1.929
54056W        W25782  12.542  42.948  13.907
54057W        W25783  25.713  18.121  10.712
54058W        W25784  26.484  17.462  12.544
54059W        W25785  37.358  21.530   4.279
54060W        W25786  21.970  25.951  11.997
54061W        W25787   2.791  37.604  13.450
54062W        W25788  26.553  18.301   0.773
54063W        W25789   4.748   5.938   3.585
54064W        W25790   6.543   6.179   5.065
54065W        W25791   3.983  32.502   1.761
54066W        W25792   9.758  18.850   0.242
54067W        W25793   8.328  37.924  12.978
54068W        W25794  25.235  44.896   2.205
54069W        W25795   1.135   4.201   1.210
54070W        W25796  21.141   1.227  11.677
54071W        W25797   1.961   7.802   3.555
54072W        W25798  20.761  26.708   4.327
54073W        W25799  26.032   2.748   3.948
54074W        W25800  22.557  39.525  14.826
54075W        W25801   6.384  30.692  13.917
54076W        W25802  44.262  33.302   0.333
54077W        W25803  16.210  15.052  14.051
54078W        W25804  12.294  31.095   2.156
54079W        W25805   5.777   7.630   3.225
54080W        W25806  28.545  22.932   4.578
54081W        W25807  32.024  28.110   3.742
54082W        W25808   9.546  24.560   1.826
54083W        W25809  24.532  12.560   1.419
54084W        W25810  21.075  40.086  14.996
54085W        W25811  33.497  19.274  14.348
54086W        W25812  40.453  25.629  13.605
54087W        W25813   5.725  42.452  14.261
54088W        W25814  38.601  42.895   0.372
54089W        W25815  22.280  16.576  14.031
54090W        W25816  35.516  23.482  14.413
54091W        W25817  18.437  31.360  11.196
54092W        W25818   5.648   4.126  10.385
54093W        W25819   3.725  16.790  12.044
54094W        W25820   5.854  22.209  12.036
54095W        W25821  36.570  42.821  13.854
54096W        W25822  22.963  37.551   0.642
54097W        W25823   6.799  35.516   2.315
54098W        W25824  15.033   0.545   1.397
54099W        W25825  31.946  37.696  10.148
54100W        W25826  19.790   5.651   0.270
54101W        W25827  23.690   8.419   3.686
54102W        W25828   3.392  25.652   3.714
54103W        W25829  10.420  20.784   3.178
54104W        W25830   1.437  40.725   2.219
54105W        W25831  25.665  11.600   1.467
54106W        W25832  21.287  38.981   3.759
54107W        W25833  26.771  31.971  11.514
54108W        W25834   4.056  11.218   2.345
54109W        W25835  39.756  12.151  12.552
54110W        W25836  38.331   5.280   0.865
54111W        W25837  35.210  38.908   0.087
54112W        W25838   7.054  32.167  14.825
54113W        W25839  16.333  41.735  11.528
54114W        W25840  39.465  15.994  14.759
54115W        W25841   3.366  15.634  13.331
54116W        W25842  22.733  22.320   2.660
54117W        W25843  29.696  38.429  13.930
54118W        W25844  32.354   4.800  14.476
54119W        W25845  13.008  14.830  13.591
54120W        W25846  14.137  32.047   2.258
54121W        W25847   8.364   9.427  12.038
54122W        W25848  12.823  29.660   0.476
54123W        W25849  35.886  41.247  11.180
54124W        W25850  21.719  13.190   4.886
54125W        W25851  37.582  24.583  14.573
54126W        W25852  39.061  40.296  14.665
54127W        W25853   8.967  34.568   3.237
54128W        W25854   7.935   6.421   2.737
54129W        W25855  40.795  39.537   1.065
54130W        W25856  26.477  28.653  11.105
54131W        W25857   6.304   5.704  11.399
54132W        W25858   2.608   6.807  12.896
54133W        W25859  24.958  21.568  13.532
54134W        W25860   4.643  40.793   4.335
54135W        W25861   5.504   5.382   0.529
54136W        W25862  36.463  33.417   3.194
54137W        W25863  19.632  30.318   0.225
54138W        W25864  25.665  30.842  12.376
54139W        W25865   6.392  31.537  10.487
54140W        W25866   7.910  38.740   2.849
54141W        W25867  15.798  30.113  14.023
54142W        W25868  28.911  34.854  11.444
54143W        W25869  39.471   0.735  13.493
54144W        W25870   5.273  12.091   1.938
54145W        W25871   4.305  29.080   0.788
54146W        W25872   6.343  42.189   3.810
54147W        W25873  35.701   3.296   0.945
54148W        W25874  20.272  44.484   1.474
54149W        W25875   8.335  27.629  10.664
54150W        W25876  13.208  41.420   3.652
54151W        W25877  22.506   8.246   2.313
54152W        W25878   6.651   9.175   3.173
54153W        W25879   6.447  10.845  12.436
54154W        W25880   8.254   2.896   1.737
54155W        W25881  13.761  19.736  13.355
54156W        W25882  31.373   2.774  14.885
54157W        W25883  40.218   3.362  11.380
54158W        W25884  22.612   4.889   2.233
54159W        W25885  32.816  12.431  13.414
54160W        W25886  32.087  28.915  13.439
54161W        W25887   5.052  15.696   2.381
54162W        W25888   2.779  34.152  10.626
54163W        W25889   8.174  12.155  12.665
54164W        W25890  29.576   6.775  10.808
54165W        W25891  30.928  16.710   1.863
54166W        W25892  42.892  16.216  12.480
54167W        W25893  32.304  24.711  12.487
54168W        W25894  36.872   2.775   4.229
54169W        W25895  10.153   4.503   1.762
54170W        W25896   6.208  39.787  10.005
54171W        W25897  22.750   9.349   0.236
54172W        W25898  31.458  30.941  14.031
54173W        W25899  24.699  14.787  14.015
54174W        W25900  22.479   0.859   1.419
54175W        W25901   0.764  10.116   3.665
54176W        W25902  29.440  30.365   3.289
54177W        W25903  33.586  20.090  11.886
54178W        W25904  21.605  41.536   3.195
54179W        W25905  32.635  17.325   1.878
54180W        W25906  23.898  15.218  10.706
54181W        W25907  16.121  33.690  11.504
54182W        W25908   1.348  30.385   1.922
54183W        W25909  13.388   2.430  11.161
54184W        W25910  23.674   0.589   0.569
54185W        W25911  34.966   8.900   9.576
54186W        W25912   2.699  24.651   4.277
54187W        W25913  30.386   7.756  10.610
54188W        W25914  37.390  20.529   0.836
54189W        W25915  12.718  14.583   2.434
54190W        W25916   6.329   1.430  11.650
54191W        W25917  23.299  34.558  13.417
54192W        W25918   0.856  24.192   1.883
54193W        W25919   7.661   7.411  13.988
54194W        W25920   1.948  37.606   2.965
54195W        W25921  42.008  23.917   5.236
54196W        W25922  38.913  40.788  12.399
54197W        W25923  37.394  26.128   1.037
54198W        W25924   7.169  37.227  11.882
54199W        W25925  19.853  25.229   4.344
54200W        W25926  38.026  22.082  14.885
54201W        W25927  36.896   7.899   0.444
54202W        W25928   8.211  34.679  11.898
54203W        W25929  39.782  39.021  14.470
54204W        W25930  11.256   6.522  14.485
54205W        W25931  38.947  32.568  13.820
54206W        W25932   7.633  19.676  11.709
54207W        W25933  36.036  38.993   4.505
54208W        W25934  25.236  33.153  12.460
54209W        W25935  42.390  17.615   2.358
54210W        W25936  41.615  38.302   0.377
54211W        W25937  23.112  20.485   0.695
54212W        W25938   6.781  42.222  14.977
54213W        W25939  12.366  39.111  13.453
54214W        W25940  16.204  43.737   3.451
54215W        W25941  41.424   1.482  13.529
54216W        W25942  16.565  18.237   0.360
54217W        W25943  15.129  29.635   3.752
54218W        W25944  36.042  31.037  12.403
54219W        W25945  19.226  25.283  11.379
54220W        W25946  22.088  25.686  10.680
54221W        W25947  37.808  32.554  14.392
54222W        W25948  23.976  35.558  10.484
54223W        W25949   8.794  21.359   4.204
54224W        W25950  14.160  40.579  14.749
54225W        W25951  38.297  24.780   4.718
54226W        W25952  15.425  34.988  12.061
54227W        W25953   1.755  15.151  14.737
54228W        W25954  24.110  33.067   3.256
54229W        W25955   3.449  10.137   0.313
54230W        W25956  25.524  22.381   0.451
54231W        W25957  33.021  29.635   1.796
54232W        W25958  24.396  25.082   4.439
54233W        W25959  42.796  35.637   3.291
54234W        W25960   8.174  34.994   4.310
54235W        W25961   1.288  41.616   0.459
54236W        W25962  38.873  14.687   3.607
54237W        W25963  44.044  36.556   2.041
54238W        W25964  10.785  29.635  10.197
54239W        W25965  12.121  13.316  14.628
54240W        W25966  44.461  34.485   0.714
54241W        W25967  44.648  35.416  14.215
54242W        W25968  30.407  30.925   1.527
54243W        W25969  41.466  19.722  12.948
54244W        W25970  17.590  21.020   0.849
54245W        W25971  20.704  12.303   1.965
54246W        W25972  21.849  22.798  14.504
54247W        W25973   4.424  26.095  14.838
54248W        W25974   4.389  40.233  12.293
54249W        W25975  40.806  41.346  14.015
54250W        W25976  32.061   9.252   3.321
54251W        W25977   4.446   6.096  11.183
54252W        W25978  37.422  15.205   1.726
54253W        W25979  31.878   9.840   0.898
54254W        W25980  34.336  35.241  12.969
54255W        W25981   8.156   0.940  13.826
54256W        W25982  23.652  41.322  13.704
54257W        W25983  44.408  31.908   1.725
54258W        W25984  12.448  33.976   0.789
54259W        W25985   4.458  18.556   4.668
54260W        W25986  37.264  28.420   0.747
54261W        W25987  28.544   6.706  14.771
54262W        W25988   2.537  17.352  10.286
54263W        W25989  28.714  44.974   4.140
54264W        W25990  35.607  43.366  14.323
54265W        W25991  24.444  15.244   3.093
54266W        W25992  40.843  35.601  13.812
54267W        W25993  13.349   8.630   4.207
54268W        W25994  41.965  43.314  12.926
54269W        W25995  21.804  21.809   2.755
54270W        W25996  26.621  25.155   0.780
54271W        W25997   7.086  18.129  11.101
54272W        W25998  11.223  40.066   4.582
54273W        W25999  37.557  33.143   2.606
54274W        W26000   0.017  25.069   3.197
54275W        W26001   0.228  33.810  11.540
54276W        W26002   2.275  15.161   1.812
54277W        W26003  37.487  33.065  14.641
54278W        W26004  42.389   8.253   3.907
54279W        W26005  13.664  36.022  10.686
54280W        W26006  11.463  18.602   3.352
54281W        W26007  10.917  12.717  12.037
54282W        W26008  35.943  37.811   2.210
54283W        W26009  20.754  23.597  13.558
54284W        W26010   6.145  11.597  13.047
54285W        W26011   2.984  16.036   3.324
54286W        W26012   8.687  29.845   2.677
54287W        W26013  22.173  34.900   4.394
54288W        W26014   9.169  16.195   0.805
54289W        W26015  30.165  22.795  11.041
54290W        W26016  40.966   5.312   0.822
54291W        W26017  33.832   1.126   1.913
54292W        W26018  21.725  15.343   0.286
54293W        W26019  26.968  44.927   0.242
54294W        W26020   7.412  42.817  10.735
54295W        W26021  23.326  20.894   1.323
54296W        W26022  20.113  18.606  11.004
54297W        W26023  34.953  20.738  14.120
54298W        W26024  16.170  27.433  13.903
54299W        W26025  43.526   6.714   4.061
54300W        W26026  23.057  18.643   0.816
54301W        W26027  26.810  33.492   3.832
54302W        W26028   2.925   9.130  12.958
54303W        W26029   7.538  43.895  12.576
54304W        W26030  17.692   7.164  10.583
54305W        W26031  33.550  30.479   0.882
54306W        W26032  19.567  37.467  14.024
54307W        W26033  16.142  37.427  12.049
54308W        W26034  15.061  27.110  13.597
54309W        W26035   4.717  15.308   3.663
54310W        W26036  34.872   7.328   2.627
54311W        W26037  18.112  38.450   4.631
54312W        W26038  44.955  31.392   3.150
54313W        W26039  36.567  30.341  11.425
54314W        W26040  32.530   6.599  14.514
54315W        W26041  24.295   4.464   2.503
54316W        W26042   7.870  14.015   2.242
54317W        W26043  33.000  11.681   3.643
54318W        W26044  27.573   2.036   1.967
54319W        W26045  25.619   4.734   4.302
54320W        W26046  32.487  11.436   4.103
54321W        W26047  31.140   9.648  11.069
54322W        W26048  37.320  29.179   4.560
54323W        W26049  33.050  37.348  14.392
54324W        W26050   1.712  14.656   3.134
54325W        W26051  15.087  21.039  14.481
54326W        W26052  39.433  13.917  14.395
54327W        W26053  39.920  24.133  10.656
54328W        W26054  11.779  43.701   0.999
54329W        W26055  21.338   0.242   1.836
54330W        W26056  21.030  38.537  10.722
54331W        W26057  40.606  43.005  11.044
54332W        W26058   3.750  11.749  10.950
54333W        W26059  37.116  38.451   2.321
54334W        W26060   5.499  16.066  12.925
54335W        W26061  20.699  27.618   2.141
54336W        W26062   2.731  21.131  11.597
54337W        W26063  23.564  16.443  10.653
54338W        W26064   6.842  30.256  10.869
54339W        W26065  14.881  24.635   3.718
54340W        W26066  23.071   1.401  11.212
54341W        W26067  27.111  31.413   2.858
54342W        W26068  25.471  25.084  14.327
54343W        W26069  23.692  21.098   1.003
54344W        W26070  44.940  27.475   1.472
54345W        W26071  31.664  14.340  11.579
54346W        W26072   2.647  40.861  11.238
54347W        W26073  26.934  34.414   4.038
54348W        W26074  20.795   5.429   1.866
54349W        W26075   7.334  41.421  13.838
54350W        W26076  41.830  34.488   4.247
54351W        W26077   7.967   1.448  12.996
54352W        W26078   5.137  43.304   3.554
54353W        W26079   5.741  20.530   2.454
54354W        W26080  39.093  41.781  13.568
54355W        W26081  41.012  19.243   2.840
54356W        W26082   9.692  21.607  14.787
54357W        W26083  17.847  43.480  14.959
54358W        W26084   4.611  22.200  11.075
54359W        W26085  20.247  37.856   0.051
54360W        W26086  34.315  23.175   2.724
54361W        W26087   4.867  19.123  12.464
54362W        W26088  27.556   0.046   3.819
54363W        W26089  31.436  29.446   9.946
54364W        W26090  16.553  10.286  12.884
54365W        W26091  44.282   8.044   1.335
54366W        W26092  40.787  26.211   1.799
54367W        W26093  15.495  23.138   4.107
54368W        W26094  15.365  16.640   1.671
54369W        W26095  41.479  33.917   3.134
54370W        W26096  35.435  24.117  13.942
54371W        W26097   5.124   5.336   1.489
54372W        W26098  13.680  41.616   0.899
54373W        W26099  44.492   7.463   4.152
54374W        W26100  43.458   0.565   4.574
54375W        W26101  43.084  27.122   2.381
54376W        W26102  16.257   8.913  14.987
54377W        W26103  24.306  19.111  12.162
54378W        W26104  10.769  37.791  14.258
54379W        W26105  32.874   9.325  12.971
54380W        W26106   6.134  24.024  12.966
54381W        W26107  42.368  11.501  13.552
54382W        W26108   8.318  19.830   4.569
54383W        W26109  42.574  13.698  15.000
54384W        W26110  40.314  14.236  14.668
54385W        W26111  34.053  34.671   1.445
54386W        W26112  11.928   3.681  11.651
54387W        W26113  42.953  43.476   3.615
54388W        W26114  15.268   9.513   3.800
54389W        W26115  21.530  44.364   4.540
54390W        W26116   3.413  29.480  12.689
54391W        W26117  39.992  43.263  13.124
54392W        W26118  16.620  18.284  11.639
54393W        W26119  40.930  38.924  11.509
54394W        W26120  39.596  34.445   3.034
54395W        W26121  16.090  31.784   0.372
54396W        W26122  10.765   8.129   1.194
54397W        W26123   4.260  42.820   2.169
54398W        W26124   8.397  44.363   3.075
54399W        W26125  12.621  30.832   0.334
54400W        W26126  25.129  36.135   0.321
54401W        W26127  37.764  16.201   0.725
54402W        W26128  24.669   3.693  13.535
54403W        W26129  33.623  34.029  12.950
54404W        W26130  12.418  40.390  11.112
54405W        W26131  11.376   1.515   1.218
54406W        W26132   8.730   4.812  13.312
54407W        W26133  18.669   4.174  10.350
54408W        W26134  33.451   0.474  14.214
54409W        W26135  16.090  16.874  11.996
54410W        W26136  24.207  14.674  12.453
54411W        W26137  25.511  24.568  14.514
54412W        W26138   9.824  33.077   4.102
54413W        W26139  24.879   8.446  10.900
54414W        W26140  31.821  32.907   3.077
54415W        W26141  28.147   8.464   4.300
54416W        W26142  28.610   6.393   0.181
54417W        W26143  36.452   5.789  13.270
54418W        W26144  14.328   4.024   2.896
54419W        W26145   5.280  24.058  12.612
54420W        W26146  24.469  25.099  11.215
54421W        W26147  19.265  18.817   3.758
54422W        W26148   2.360  28.169  10.210
54423W        W26149  13.216  21.344  14.598
54424W        W26150   9.885   2.463   4.861
54425W        W26151  28.911   7.885   1.363
54426W        W26152   4.414  16.623  10.345
54427W        W26153  13.672  34.533  10.474
54428W        W26154  21.792  13.257  10.665
54429W        W26155  42.307  19.067   1.030
54430W        W26156  19.968  34.457  11.222
54431W        W26157   8.183  16.893  11.216
54432W        W26158  20.923  11.716   4.567
54433W        W26159  40.323   1.128   3.534
54434W        W26160  17.162  33.689   0.451
54435W        W26161  44.710   8.687  11.232
54436W        W26162  40.077  20.963   3.794
54437W        W26163  36.031  14.776   2.316
54438W        W26164  32.605  24.592   5.133
54439W        W26165   0.269  10.346  12.522
54440W        W26166  22.034  40.056  12.291
54441W        W26167  30.598  39.584   1.851
54442W        W26168  40.892  44.879   4.135
54443W        W26169  10.444  27.410   2.721
54444W        W26170  39.117  31.873   1.778
54445W        W26171  22.136  10.646  14.814
54446W        W26172  17.219  42.477   1.961
54447W        W26173  16.275  31.505  12.409
54448W        W26174  31.852   5.178  11.993
54449W        W26175   9.343  39.376  14.892
54450W        W26176  36.602  35.679   0.699
54451W        W26177  35.999   5.708   1.924
54452W        W26178  29.114  11.844   0.695
54453W        W26179  28.896  29.105   3.607
54454W        W26180  39.445   4.131   0.160
54455W        W26181  28.897  27.226   0.047
54456W        W26182   7.713  38.047   1.349
54457W        W26183  17.297  21.982   0.794
54458W        W26184  21.522   1.925  10.670
54459W        W26185  35.499  44.266  13.718
54460W        W26186   8.261  22.276   1.318
54461W        W26187  34.823  11.213   4.572
54462W        W26188  44.755  24.716  14.220
54463W        W26189  31.496  22.758  10.496
54464W        W26190  29.368  14.058   2.763
54465W        W26191   5.214  15.189   1.386
54466W        W26192  25.105  24.237   4.656
54467W        W26193   6.036  37.338  10.327
54468W        W26194  17.175  22.189   3.859
54469W        W26195   5.881  15.698  13.354
54470W        W26196  33.526   1.916  10.108
54471W        W26197  17.845  29.213  11.468
54472W        W26198  28.531  22.130  10.741
54473W        W26199  41.458  18.864  13.439
54474W        W26200   5.214  23.516   4.145
54475W        W26201  39.979  14.456  11.574
54476W        W26202  33.930   9.657  14.842
54477W        W26203  35.042   5.499  12.708
54478W        W26204  28.174   6.712   1.388
54479W        W26205  18.586  32.479   2.837
54480W        W26206  31.909  13.264  14.832
54481W        W26207  24.168  43.309   4.956
54482W        W26208   6.472  40.727  12.301
54483W        W26209  37.117  28.167   1.175
54484W        W26210  12.014  34.271  11.159
54485W        W26211  14.655  32.523  13.096
54486W        W26212  30.047  12.364   0.878
54487W        W26213   2.269  40.810  12.061
54488W        W26214  43.356  44.508  12.514
54489W        W26215   8.684   7.624  14.492
54490W        W26216  44.295  43.738  13.844
54491W        W26217   9.843   6.771   1.212
54492W        W26218  21.385  37.647   3.385
54493W        W26219  12.300  19.837  11.112
54494W        W26220   7.420   1.741   2.204
54495W        W26221  38.926  20.790   4.279
54496W        W26222  14.208  13.817  11.696
54497W        W26223   4.539  32.802  14.593
54498W        W26224  44.427   0.264  12.287
54499W        W26225   7.131  29.230  12.970
54500W        W26226  41.074   0.001  13.839
54501W        W26227  14.369  33.586  14.449
54502W        W26228   6.674  31.519  14.095
54503W        W26229   3.735  39.568  11.484
54504W        W26230  30.255  21.411  14.867
54505W        W26231   9.648  26.555   3.191
54506W        W26232  39.034  27.528   1.221
54507W        W26233  21.408  35.048  13.999
54508W        W26234  25.466  17.134   1.683
54509W        W26235  22.385  25.150   3.514
54510W        W26236  10.000  37.027   1.017
54511W        W26237  34.775  12.070  11.556
54512W        W26238   5.268   1.398  13.138
54513W        W26239  37.244  31.751   3.439
54514W        W26240   0.563  11.368   4.234
54515W        W26241   4.868   3.729   3.847
54516W        W26242  28.944   3.221   2.039
54517W        W26243  37.017   8.166   4.507
54518W        W26244  21.257  21.264   3.049
54519W        W26245  31.149  10.982  10.547
54520W        W26246  18.747  38.895  11.720
54521W        W26247  31.273  15.622  11.179
54522W        W26248   9.254  28.407  11.590
54523W        W26249  18.069  41.304  12.108
54524W        W26250  38.441  25.459   0.474
54525W        W26251  38.372  26.505  11.117
54526W        W26252  44.470  35.966  14.435
54527W        W26253  27.352  37.883  11.703
54528W        W26254   3.376  44.710  12.813
54529W        W26255  17.252  37.103   0.247
54530W        W26256  28.073  32.824   1.399
54531W        W26257  42.061  27.656  12.921
54532W        W26258  19.985  44.470   3.237
54533W        W26259  43.571  13.897  11.200
54534W        W26260  12.119  12.345  14.309
54535W        W26261  14.666  16.781  11.183
54536W        W26262   3.429   4.738  14.255
54537W        W26263  18.238  17.749  13.029
54538W        W26264  14.694  33.370   1.774
54539W        W26265  41.489  33.461  14.883
54540W        W26266  29.448  30.388   5.216
54541W        W26267  21.637  27.512   5.107
54542W        W26268  25.539  37.639   3.744
54543W        W26269  33.826   4.438  13.983
54544W        W26270  17.225  35.645  11.908
54545W        W26271  22.526   1.743  13.003
54546W        W26272  31.019  36.448   0.269
54547W        W26273  19.682  34.589  11.960
54548W        W26274  24.585  31.634  12.959
54549W        W26275  35.909   2.878   3.251
54550W        W26276  31.640  32.419   1.281
54551W        W26277  36.310  28.149   2.184
54552W        W26278  39.866  30.824   1.909
54553W        W26279  25.131  34.816  11.542
54554W        W26280  20.489  11.727   2.691
54555W        W26281   6.575  30.875  11.769
54556W        W26282   5.274  18.534   1.501
54557W        W26283   9.360  39.450  11.179
54558W        W26284  13.571  16.840   1.172
54559W        W26285  24.679   6.459  14.927
54560W        W26286  13.149  40.328   1.826
54561W        W26287  31.127  23.214  13.230
54562W        W26288  33.832  41.119  11.199
54563W        W26289  13.811   4.492   1.733
54564W        W26290   0.364  37.489   4.890
54565W        W26291   8.015  33.228  13.936
54566W        W26292   0.094  13.812  11.148
54567W        W26293  27.496  10.905  12.430
54568W        W26294   9.312  19.309   2.492
54569W        W26295   0.772  27.814  12.085
54570W        W26296  16.303   7.349  10.771
54571W        W26297   1.973  28.177   4.136
54572W        W26298  39.138   1.105  13.543
54573W        W26299  24.462  11.888  12.130
54574W        W26300   6.151   7.757   3.661
54575W        W26301  35.214  13.392   4.144
54576W        W26302  13.292  30.929  12.289
54577W        W26303  13.136  12.437  11.209
54578W        W26304  34.133  23.129   1.503
54579W        W26305  34.597  15.674  10.691
54580W        W26306  12.010  35.771  12.891
54581W        W26307  17.945  12.133   4.122
54582W        W26308  27.437   0.491   3.596
54583W        W26309  33.107  33.336   4.308
54584W        W26310  40.318  43.482  12.232
54585W        W26311   2.826  37.533   0.856
54586W        W26312  22.523  19.912  10.806
54587W        W26313  22.575  29.913  11.875
54588W        W26314   2.217   0.978   3.162
54589W        W26315  38.923   4.876  12.021
54590W        W26316  27.477  18.585   1.824
54591W        W26317  30.454  41.602   1.312
54592W        W26318  30.348   6.255   0.142
54593W        W26319  20.810  28.623  13.534
54594W        W26320  21.229  44.540   1.352
54595W        W26321  34.647  34.579  14.033
54596W        W26322  22.194  17.886  12.462
54597W        W26323  37.673  31.439  14.921
54598W        W26324  33.802  29.973   4.381
54599W        W26325  24.732  36.003  13.009
54600W        W26326  38.650  39.452  11.152
54601W        W26327  40.192  22.539  14.915
54602W        W26328   0.408   6.443   1.792
54603W        W26329  27.238  17.065  14.216
54604W        W26330   3.880  44.389   0.708
54605W        W26331  22.696  19.118  13.429
54606W        W26332  43.522  43.948   2.425
54607W        W26333  27.353  40.842  12.815
54608W        W26334  40.870  24.918   1.880
54609W        W26335   4.151  33.365   1.453
54610W        W26336  35.044   2.797   0.343
54611W        W26337   1.240  18.909  13.774
54612W        W26338  22.665  39.854  13.970
54613W        W26339   6.473  27.602  14.465
54614W        W26340  44.822  21.138   3.606
54615W        W26341   4.421  23.454   2.677
54616W        W26342  19.302  27.624   0.847
54617W        W26343  37.814  43.895   3.627
54618W        W26344  36.968  35.586  12.910
54619W        W26345  36.324  42.075   2.925
54620W        W26346  14.146  37.986   1.413
54621W        W26347  14.228   5.771   1.938
54622W        W26348  39.986  20.068  11.033
54623W        W26349  19.262  42.893   1.763
54624W        W26350  36.023  16.395   3.316
54625W        W26351  25.869   4.020  14.463
54626W        W26352  31.160  21.587  10.700
54627W        W26353  16.678  33.074  11.137
54628W        W26354  18.700  29.003  12.448
54629W        W26355  43.986   7.671   4.223
54630W        W26356  20.284  15.314   1.985
54631W        W26357  11.132   1.313  11.610
54632W        W26358  25.218   8.553  12.503
54633W        W26359  25.721  28.508  11.539
54634W        W26360  35.548  26.685  13.859
54635W        W26361  23.066  41.437  14.946
54636W        W26362  34.414  19.795  12.993
54637W        W26363  24.953  26.186   4.820
54638W        W26364  25.843  15.597   2.723
54639W        W26365  11.932  32.185  10.439
54640W        W26366  27.501  29.968   3.020
54641W        W26367  18.120  21.946  13.294
54642W        W26368   2.208  13.262   2.871
54643W        W26369   0.723   9.812   4.079
54644W        W26370  10.270  28.174  12.924
54645W        W26371  29.463  35.608  11.663
54646W        W26372  12.370  32.012  11.578
54647W        W26373  33.169  37.955   2.181
54648W        W26374  26.064  23.125  14.031
54649W        W26375   7.739   2.476   4.504
54650W        W26376   3.283  11.191  13.571
54651W        W26377  12.799  34.088  13.719
54652W        W26378   4.343   7.412  12.537
54653W        W26379   8.702  38.918  13.627
54654W        W26380   9.700  24.228  12.686
54655W        W26381  31.620   4.984   0.349
54656W        W26382  14.317  33.132  11.938
54657W        W26383   0.476  44.842   4.600
54658W        W26384   9.317  15.163   3.585
54659W        W26385  41.548   0.429  11.623
54660W        W26386  33.019  27.640   3.329
54661W        W26387  37.555  30.824  13.126
54662W        W26388  43.068  15.223   0.327
54663W        W26389  31.501  44.865  10.721
54664W        W26390  36.400  23.756  11.064
54665W        W26391  32.624  14.474   4.056
54666W        W26392  22.290  24.199  14.466
54667W        W26393   2.408  16.849   3.730
54668W        W26394   2.454  26.520   0.293
54669W        W26395  42.072  39.141  11.985
54670W        W26396  18.551   3.225  12.580
54671W        W26397  14.661  30.425   4.239
54672W        W26398  15.366  18.079  11.977
54673W        W26399  21.590  22.219   1.837
54674W        W26400  12.891  19.576  14.815
54675W        W26401  10.203  35.893   2.328
54676W        W26402  17.668  19.276  14.042
54677W        W26403  22.967  44.479   3.199
54678W        W26404  44.313  31.942  11.360
54679W        W26405  13.929  35.230   5.248
54680W        W26406   2.422  20.162   4.526
54681W        W26407  33.004  42.856  11.413
54682W        W26408  23.004  37.291   3.477
54683W        W26409  14.333  15.705  12.721
54684W        W26410  33.582  32.985  12.702
54685W        W26411   1.575   4.787  13.318
54686W        W26412  40.541   9.357  14.451
54687W        W26413  21.682  41.472   2.686
54688W        W26414  25.219   6.481  14.888
54689W        W26415   1.761  33.997  14.046
54690W        W26416   3.536  27.720   2.801
54691W        W26417   4.358  20.821   4.050
54692W        W26418  40.575   4.748   4.141
54693W        W26419  32.164  23.199  14.798
54694W        W26420  21.055  13.570   2.845
54695W        W26421  22.458  39.384  13.815
54696W        W26422  30.088   8.427   4.653
54697W        W26423  13.121  21.093  12.432
54698W        W26424  30.203  25.945   0.869
54699W        W26425  38.068   4.864   2.737
54700W        W26426  38.315   1.867   1.838
54701W        W26427  13.435  30.322  10.500
54702W        W26428  16.160   4.835   1.328
54703W        W26429  37.224  21.000   0.980
54704W        W26430  31.461   1.436  11.040
54705W        W26431  35.504  31.477  11.371
54706W        W26432   8.229  44.064   1.303
54707W        W26433  25.161  41.622   0.263
54708W        W26434   2.492  40.364  12.868
54709W        W26435  40.548  10.781  14.032
54710W        W26436  44.566  21.693  14.821
54711W        W26437  19.306  27.139  12.992
54712W        W26438  20.612  21.545   0.858
54713W        W26439  16.774   9.044  12.498
54714W        W26440  12.894  17.039  14.417
54715W        W26441  38.967  16.205   2.666
54716W        W26442  43.084  29.058  10.475
54717W        W26443  37.290  36.542   1.327
54718W        W26444  12.657  15.719  12.353
54719W        W26445   7.852  29.241   0.822
54720W        W26446  24.731  23.719  13.122
54721W        W26447  33.012  34.574  14.010
54722W        W26448  16.198  12.039   2.735
54723W        W26449  40.288   0.701   2.232
54724W        W26450  41.443  14.752  13.355
54725W        W26451  24.642  44.937   2.489
54726W        W26452  37.578  28.033   1.853
54727W        W26453  43.087  39.954   0.760
54728W        W26454  40.333  29.955  14.299
54729W        W26455  34.339  29.153   0.148
54730W        W26456  27.989   5.792   0.282
54731W        W26457  16.841  19.324  12.993
54732W        W26458  34.318  24.121  14.501
54733W        W26459  37.592  44.719   4.092
54734W        W26460   0.214   6.108  12.878
54735W        W26461  13.151  28.124   1.591
54736W        W26462  25.169  15.523  11.320
54737W        W26463  10.169  36.408   3.059
54738W        W26464  32.226  36.581  12.618
54739W        W26465  43.007  13.156   4.980
54740W        W26466  43.210  41.561  10.771
54741W        W26467  31.758  31.023   4.352
54742W        W26468  35.194  31.905   2.317
54743W        W26469  30.191  32.052   0.750
54744W        W26470  16.760  34.992  11.485
54745W        W26471  24.266  25.582  14.344
54746W        W26472  39.773   5.000  11.159
54747W        W26473  26.422  21.341   1.851
54748W        W26474  10.952   5.604  12.440
54749W        W26475   7.760  35.808   2.716
54750W        W26476  22.020   1.295  13.075
54751W        W26477  39.362  18.215   4.513
54752W        W26478   8.664  11.123   1.317
54753W        W26479  15.178  36.563   2.452
54754W        W26480  18.592  27.977  11.737
54755W        W26481  30.423  25.888  12.521
54756W        W26482  24.553  43.720  13.679
54757W        W26483  33.970  37.435  12.132
54758W        W26484  16.565  25.607  13.054
54759W        W26485  33.949  34.377   0.030
54760W        W26486   9.749   0.259   0.886
54761W        W26487  36.495  43.650  14.762
54762W        W26488   6.244  31.249  11.591
54763W        W26489   2.197   1.721  11.987
54764W        W26490  44.998   2.687   2.851
54765W        W26491   7.773  12.668   2.022
54766W        W26492  40.617  28.952  13.477
54767W        W26493  26.151  21.598  14.920
54768W        W26494  11.593  38.387  11.553
54769W        W26495  42.840   8.494  14.453
54770W        W26496  27.719  18.589  11.511
54771W        W26497   9.146  36.053  13.943
54772W        W26498   8.297   1.982   2.842
54773W        W26499   5.664   4.980  13.527
54774W        W26500  22.848  10.751   3.691
54775W        W26501  25.375   7.190  10.775
54776W        W26502  12.828  37.057  12.652
54777W        W26503  43.731   1.346   3.553
54778W        W26504  21.627  33.424   4.885
54779W        W26505  18.063  30.068   1.687
54780W        W26506  34.487  13.225   0.818
54781W        W26507   2.963  44.366   2.746
54782W        W26508  31.515  12.381  11.579
54783W        W26509  39.612  42.311   1.523
54784W        W26510   3.401  23.241  13.588
54785W        W26511   2.887  39.983  14.900
54786W        W26512   8.615  29.006   2.682
54787W        W26513  11.641  20.643  12.910
54788W        W26514  25.541  24.732   0.540
54789W        W26515  22.458  28.500   1.474
54790W        W26516  26.584  40.956   1.194
54791W        W26517  43.488  15.756  12.515
54792W        W26518  12.066  14.640   0.269
54793W        W26519   8.446   6.944   3.997
54794W        W26520  33.853  22.799   3.409
54795W        W26521  25.505  30.116   4.633
54796W        W26522  12.466  31.952   1.870
54797W        W26523  22.591   1.925  10.703
54798W        W26524  43.495  17.079   4.446
54799W        W26525  35.914  23.278  14.125
54800W        W26526  33.480  40.444   2.281
54801W        W26527  36.171   1.410   4.090
54802W        W26528  19.181  26.378   1.036
54803W        W26529  24.391  20.881   3.791
54804W        W26530  35.825  17.731  13.667
54805W        W26531  10.190  33.201  10.098
54806W        W26532  21.729  17.664   0.774
54807W        W26533  35.527   9.879   0.931
54808W        W26534  31.663  35.106  13.958
54809W        W26535  39.321  14.828  13.522
54810W        W26536  12.297  15.767   2.772
54811W        W26537   2.175   5.903  12.587
54812W        W26538   6.871  15.368  13.521
54813W        W26539  15.839  29.813   1.250
54814W        W26540   4.809  30.911   0.754
54815W        W26541  37.775  18.365   2.834
54816W        W26542   4.258  25.061  11.416
54817W        W26543   9.110  41.537  13.587
54818W        W26544   4.841  35.816  11.555
54819W        W26545  33.538  21.663  11.537
54820W        W26546  28.145  37.897  14.386
54821W        W26547  26.530  31.411  13.043
54822W        W26548  44.702  12.245  11.559
54823W        W26549   5.210  11.333  11.633
54824W        W26550  24.637   2.684  14.711
54825W        W26551   0.001  22.286  11.090
54826W        W26552   0.730  12.086   1.920
54827W        W26553  15.167  41.064   5.052
54828W        W26554  28.014  40.777   3.315
54829W        W26555  19.751  42.575   3.174
54830W        W26556  10.881   0.193  14.927
54831W        W26557   6.355   9.214  12.084
54832W        W26558  38.940  40.891  13.720
54833W        W26559  16.994  11.279  12.223
54834W        W26560   5.699  23.585  14.774
54835W        W26561   0.465  15.197   0.964
54836W        W26562   1.494  43.025  12.692
54837W        W26563  14.097  17.256   0.483
54838W        W26564  44.329  36.487   1.210
54839W        W26565  27.504  23.007  14.871
54840W        W26566  26.134   0.753  13.677
54841W        W26567  40.332  20.925   2.204
54842W        W26568  38.956  21.339   0.929
54843W        W26569  31.630   0.332   4.176
54844W        W26570  21.726  41.241   0.269
54845W        W26571   4.423  38.541  11.855
54846W        W26572  34.992  32.734  11.167
54847W        W26573  41.721  19.626  13.987
54848W        W26574  29.622  44.683   0.786
54849W        W26575  35.404  31.198  13.001
54850W        W26576   0.648  16.661  13.985
54851W        W26577  28.290  25.927   3.292
54852W        W26578  32.575  36.337   4.315
54853W        W26579   7.706  41.395   3.044
54854W        W26580  28.982  39.491   1.143
54855W        W26581  40.860   6.822  12.840
54856W        W26582  27.646  18.089  14.378
54857W        W26583  13.632  15.518   0.378
54858W        W26584  14.443   2.897  10.710
54859W        W26585  15.566  40.289   4.924
54860W        W26586   6.271  20.573   3.219
54861W        W26587  33.409  41.540   0.404
54862W        W26588   8.649  14.613   0.954
54863W        W26589   8.701  15.127   4.862
54864W        W26590  42.324  32.003   1.241
54865W        W26591  22.882  34.366  12.630
54866W        W26592  30.921   6.238   2.259
54867W        W26593  38.954  40.366   0.220
54868W        W26594  43.473  16.150   1.959
54869W        W26595  17.169  30.322   4.270
54870W        W26596  15.574  20.999   2.227
54871W        W26597  19.485   7.723   1.433
54872W        W26598  39.539  10.700   2.852
54873W        W26599  13.221   0.913  14.141
54874W        W26600  29.050  28.987   1.648
54875W        W26601  41.583  11.189  13.016
54876W        W26602  14.521  24.224  11.160
54877W        W26603   4.109  38.024   0.496
54878W        W26604   0.731   5.292   1.439
54879W        W26605   4.234  40.733   4.642
54880W        W26606  15.763   0.459  11.170
54881W        W26607  19.039  28.761  10.516
54882W        W26608  29.172  20.693   0.878
54883W        W26609  28.216  35.899   1.255
54884W        W26610   9.632   0.388   4.347
54885W        W26611  10.220  25.024   3.781
54886W        W26612  10.347  14.701  12.952
54887W        W26613  25.242  24.102  14.447
54888W        W26614   6.424  40.852   4.309
54889W        W26615  10.409  20.734  10.538
54890W        W26616  19.923  10.159  13.076
54891W        W26617  26.352  30.631   5.028
54892W        W26618  20.509  33.852   0.489
54893W        W26619  24.412   4.780   2.902
54894W        W26620  16.503  29.941   1.800
54895W        W26621   5.773  14.423   1.705
54896W        W26622  37.402  44.910  13.266
54897W        W26623  16.318  40.903   0.865
54898W        W26624  20.781  40.539   3.698
54899W        W26625   7.419  20.424  12.832
54900W        W26626   5.252  27.195  11.168
54901W        W26627  18.762  24.701   2.305
54902W        W26628  43.672   3.249   2.811
54903W        W26629  31.929  19.469  12.245
54904W        W26630  19.055  13.941  13.889
54905W        W26631  25.518  32.598   2.218
54906W        W26632  44.777   7.148  11.409
54907W        W26633  40.050  13.768   0.149
54908W        W26634  38.967   9.163   2.193
54909W        W26635  44.446  33.768  11.168
54910W        W26636  18.849  32.898   2.236
54911W        W26637  13.316  22.432  13.954
54912W        W26638   1.774  33.891  11.475
54913W        W26639  30.514  12.105   4.127
54914W        W26640  39.876  20.310  11.483
54915W        W26641  30.002  31.845  14.217
54916W        W26642  38.982  30.506   3.815
54917W        W26643  20.647  11.673   1.649
54918W        W26644  12.939  34.291   1.453
54919W        W26645  28.904   9.860   3.320
54920W        W26646   3.501   1.730  12.480
54921W        W26647  27.040  15.539   4.081
54922W        W26648  15.256  31.441  14.986
54923W        W26649  35.197   3.878   1.872
54924W        W26650  23.278   8.989   2.873
54925W        W26651  38.496  35.419   4.745
54926W        W26652   5.142  35.472  10.590
54927W        W26653  42.734  37.860   4.639
54928W        W26654  38.361  34.336  10.595
54929W        W26655  13.531  12.761   2.896
54930W        W26656  13.762   8.771   2.820
54931W        W26657   7.838  17.782   2.846
54932W        W26658  20.179  12.594  13.771
54933W        W26659   9.634  23.447  13.242
54934W        W26660  30.178  38.964  14.214
54935W        W26661  34.466  37.262   0.204
54936W        W26662  41.921  11.370   3.647
54937W        W26663  23.247  18.549  13.157
54938W        W26664  20.102  29.244   4.527
54939W        W26665  20.068   3.652  10.760
54940W        W26666  35.343  17.063   4.170
54941W        W26667  42.339  41.111  10.431
54942W        W26668  33.901   1.489  13.340
54943W        W26669   9.473  35.829   4.031
54944W        W26670  16.087   5.307  12.037
54945W        W26671  22.677   4.936  14.453
54946W        W26672  20.981  19.756  12.433
54947W        W26673  35.388  15.502   0.787
54948W        W26674  30.879  16.589  13.553
54949W        W26675  41.810  14.865  11.552
54950W        W26676  35.331  34.532   4.367
54951W        W26677  34.455  10.306  12.798
54952W        W26678  31.388   4.810   0.900
54953W        W26679  22.015  33.690   1.761
54954W        W26680  32.161  43.971   1.162
54955W        W26681  20.187  25.073   0.713
54956W        W26682  13.837  30.974   0.891
54957W        W26683  16.518  40.800  13.717
54958W        W26684  14.825  13.316  10.764
54959W        W26685  23.052  13.718   1.686
54960W        W26686  29.614  38.185   2.283
54961W        W26687  15.097  22.592  11.443
54962W        W26688  34.434  24.680   4.674
54963W        W26689  22.787  19.650  12.991
54964W        W26690  37.166  18.796  10.890
54965W        W26691   3.565  27.361  13.795
54966W        W26692  23.362  26.641   3.333
54967W        W26693  34.926  29.053   4.485
54968W        W26694  25.562   1.315  14.840
54969W        W26695   4.696  26.808  10.245
54970W        W26696  40.768  43.507  13.772
54971W        W26697   5.904  44.862  10.272
54972W        W26698  34.000  21.524  12.501
54973W        W26699  15.096  27.041  11.891
54974W        W26700   8.965  43.838  13.320
54975W        W26701  38.509  35.067  14.361
54976W        W26702  26.653  32.028   2.214
54977W        W26703   5.466  10.734  12.841
54978W        W26704  29.556  41.805  10.036
54979W        W26705   3.852  37.873  12.447
54980W        W26706  23.521   3.754   0.529
54981W        W26707  28.432  15.735  14.666
54982W        W26708  27.082  37.474  12.567
54983W        W26709  27.787  18.160   2.282
54984W        W26710  31.852  25.553  11.604
54985W        W26711  25.894  30.669   1.008
54986W        W26712  25.439   9.912   0.222
54987W        W26713  34.521  36.628  12.014
54988W        W26714  40.427  43.720   1.152
54989W        W26715  39.325  44.052  11.154
54990W        W26716  25.036  23.469   3.246
54991W        W26717  11.331  16.176   2.808
54992W        W26718   0.217  22.692  13.018
54993W        W26719  28.828  34.435  12.137
54994W        W26720   9.126   7.862   3.145
54995W        W26721   9.679  34.836  10.642
54996W        W26722  41.004  37.949   3.187
54997W        W26723   3.274   1.562   2.181
54998W        W26724  40.336   2.686   2.287
54999W        W26725   4.695  12.258  12.025
55000W        W26726  38.352  25.896   0.822
55001W        W26727  30.980  13.670   4.659
55002W        W26728  32.051  44.515   4.049
55003W        W26729  41.509   9.591  11.867
55004W        W26730  33.167   4.776  13.050
55005W        W26731  29.887   3.053  10.607
55006W        W26732   8.782  23.177   1.110
55007W        W26733  36.111  16.714   1.335
55008W        W26734  28.309  24.287   4.128
55009W        W26735   0.340  12.426   1.806
55010W        W26736  13.575  19.554   4.824
55011W        W26737  19.737   7.289   1.241
55012W        W26738  22.602  29.499   2.174
55013W        W26739  12.218  37.256  14.816
55014W        W26740  31.277   6.620   2.225
55015W        W26741  37.563   1.508   2.799
55016W        W26742  29.696   4.678  13.153
55017W        W26743  28.341  35.429   3.186
55018W        W26744  35.001   3.159   1.305
55019W        W26745  30.277   3.412   1.181
55020W        W26746   3.519  31.476  14.086
55021W        W26747  20.203  30.420   0.778
55022W        W26748   0.486  33.170  13.935
55023W        W26749  20.515  16.707  11.155
55024W        W26750   9.417  36.949  14.046
55025W        W26751   3.991   8.214   4.281
55026W        W26752  22.401  26.870  14.376
55027W        W26753  35.891  30.515   0.432
55028W        W26754  23.082  32.682   3.784
55029W        W26755  16.565  10.230  14.478
55030W        W26756  30.835  43.837   2.325
55031W        W26757   8.075  42.923   4.517
55032W        W26758  30.632  10.767  13.356
55033W        W26759  20.744  38.302   0.849
55034W        W26760   5.312  10.486  13.851
55035W        W26761  29.498   9.353  12.451
55036W        W26762  40.857  27.209  11.637
55037W        W26763  16.231  35.167  12.381
55038W        W26764   5.505  15.085  11.116
55039W        W26765  35.494   4.885   0.800
55040W        W26766  19.626  34.067   2.845
55041W        W26767  34.996  29.481  14.266
55042W        W26768  22.085  23.573   2.044
55043W        W26769   0.725  33.852  11.476
55044W        W26770  36.721  30.937   4.317
55045W        W26771  13.587  41.113  12.438
55046W        W26772  20.065  36.832   2.309
55047W        W26773  12.063  18.320  11.963
55048W        W26774  36.521  33.865  11.596
55049W        W26775  28.054  14.101  13.781
55050W        W26776  22.603  27.458  10.433
55051W        W26777  43.433  12.222  10.405
55052W        W26778  22.168  44.769   1.064
55053W        W26779   5.677   2.097   5.018
55054W        W26780  22.527  14.026   0.272
55055W        W26781  36.477   1.408  13.021
55056W        W26782   8.413   6.462   0.556
55057W        W26783  15.671  38.775   3.760
55058W        W26784  30.696  10.785  11.449
55059W        W26785   6.273  19.131   9.915
55060W        W26786  40.402   8.901   3.107
55061W        W26787  11.998  28.202   3.341
55062W        W26788  28.704   2.313   4.721
55063W        W26789  26.464  17.306  14.056
55064W        W26790  27.829  31.549  12.585
55065W        W26791  41.412  31.647  10.604
55066W        W26792  29.608   5.140  14.558
55067W        W26793  18.566  42.112  10.671
55068W        W26794  12.599  31.666  12.980
55069W        W26795  13.728   5.966  13.894
55070W        W26796  28.653  16.977  13.914
55071W        W26797  37.093  31.316   3.171
55072W        W26798   7.619  22.776  12.165
55073W        W26799  20.551  25.357   1.364
55074W        W26800  11.784  11.372  12.399
55075W        W26801  41.441  34.345   3.928
55076W        W26802  25.731  21.030   3.658
55077W        W26803   5.611  43.283  13.894
55078W        W26804  15.519  32.879  10.449
55079W        W26805   2.477  25.715   0.743
55080W        W26806  11.467  35.345   1.246
55081W        W26807  25.592  23.815   3.929
55082W        W26808  12.798  16.383  10.992
55083W        W26809  18.191  26.361  10.423
55084W        W26810   4.960  10.196   2.125
55085W        W26811   9.415  37.057  10.562
55086W        W26812  26.546   1.466  12.112
55087W        W26813  11.805  25.592  11.526
55088W        W26814  25.427   1.370   2.364
55089W        W26815   3.219  30.998   5.205
55090W        W26816   0.492  34.475   3.685
55091W        W26817  28.605  21.043  14.888
55092W        W26818  31.522  39.545  14.816
55093W        W26819  13.067  38.192  11.554
55094W        W26820   5.760  25.102   1.199
55095W        W26821   1.004  36.784   0.870
55096W        W26822  17.541  37.495   1.426
55097W        W26823  43.693  43.141  14.127
55098W        W26824   7.200  14.644   3.179
55099W        W26825  42.420  26.966  10.658
55100W        W26826   2.325  11.974   2.151
55101W        W26827  38.914  38.014  12.361
55102W        W26828  30.805  21.552  12.397
55103W        W26829  32.921  10.368   1.321
55104W        W26830  25.984  15.559  12.445
55105W        W26831  18.541  25.590  10.721
55106W        W26832   3.868  29.038   4.651
55107W        W26833   1.751  26.622  11.628
55108W        W26834  13.883  14.942   1.881
55109W        W26835  34.566  17.618   4.182
55110W        W26836   3.209  27.426   0.865
55111W        W26837  11.881  20.718  13.391
55112W        W26838  35.293  36.912  13.356
55113W        W26839  25.207   2.435  14.007
55114W        W26840  38.488  15.159   1.052
55115W        W26841  22.566  28.899  10.702
55116W        W26842  11.631   8.167  12.372
55117W        W26843  15.817  33.665  12.278
55118W        W26844  10.728  40.529   1.509
55119W        W26845  20.988  19.108  13.029
55120W        W26846   5.500  37.599  13.909
55121W        W26847  22.249  41.214  11.514
55122W        W26848  38.905  10.836  12.045
55123W        W26849  20.747  20.578   2.327
55124W        W26850  24.612  11.817  14.462
55125W        W26851   8.819  44.828   0.447
55126W        W26852  31.626  20.653  12.671
55127W        W26853  20.066  16.112  11.539
55128W        W26854   9.435  36.958   3.193
55129W        W26855  22.152  19.006  11.577
55130W        W26856   4.493  36.432  11.892
55131W        W26857  30.374   0.816  12.901
55132W        W26858  37.834  39.911  11.672
55133W        W26859  41.635  23.020  14.771
55134W        W26860  34.446  30.730  14.513
55135W        W26861  19.313  23.617  10.699
55136W        W26862   9.235  18.352  10.727
55137W        W26863   4.366  43.001  13.645
55138W        W26864  32.687  22.669   0.317
55139W        W26865  13.289   7.107  14.036
55140W        W26866  14.020  34.842  14.919
55141W        W26867  24.302  28.513  14.727
55142W        W26868  36.575  12.685  14.099
55143W        W26869  40.297  22.702  11.104
55144W        W26870  37.246   8.396   4.102
55145W        W26871  17.749  11.399   2.319
55146W        W26872  36.217  16.732  12.571
55147W        W26873  15.803   7.146  13.285
55148W        W26874   6.906  15.152   2.388
55149W        W26875  42.030   7.370  12.145
55150W        W26876  28.671  35.348  12.127
55151W        W26877   7.163  15.724   2.214
55152W        W26878   4.695  17.099  12.054
55153W        W26879  27.821  36.521  14.325
55154W        W26880   6.927  23.640  10.663
55155W        W26881   4.372  20.071  12.830
55156W        W26882   8.094  16.205   0.967
55157W        W26883  19.657  32.015  10.463
55158W        W26884  31.580  23.787  14.638
55159W        W26885  12.170   9.068   4.133
55160W        W26886  21.733  26.577   4.739
55161W        W26887  41.390  15.851   4.126
55162W        W26888   5.064  35.576   4.193
55163W        W26889  14.584  15.569  11.121
55164W        W26890   0.681  11.780  12.494
55165W        W26891  17.800   8.043  11.598
55166W        W26892   0.016  33.133   4.035
55167W        W26893  25.512  44.464  11.078
55168W        W26894  42.020  38.271  12.615
55169W        W26895  13.254  36.831  10.452
55170W        W26896   6.165  41.259   4.553
55171W        W26897  15.233  40.079  11.040
55172W        W26898   2.520  18.605  13.079
55173W        W26899  34.783   8.782   1.358
55174W        W26900  22.323  38.410   3.902
55175W        W26901  29.558  13.145   4.093
55176W        W26902  14.783  39.326  12.103
55177W        W26903  19.149  26.447   2.489
55178W        W26904  30.888  19.373  10.408
55179W        W26905  32.007  35.806  10.416
55180W        W26906  43.116  30.659   3.364
55181W        W26907  16.469  36.194   0.180
55182W        W26908  36.572  40.317  11.555
55183W        W26909  14.612  21.299   1.807
55184W        W26910  18.620  13.802  13.059
55185W        W26911   6.842   6.807  14.718
55186W        W26912  37.274  27.642  11.160
55187W        W26913  31.082  28.679  11.156
55188W        W26914   9.120  14.581   2.962
55189W        W26915  26.524   1.938   3.610
55190W        W26916  21.531   6.468  14.317
55191W        W26917  38.072  24.611   2.866
55192W        W26918  34.406  23.984  12.114
55193W        W26919   0.794  29.563   4.647
55194W        W26920  20.308   3.600   3.312
55195W        W26921  13.014  19.498  12.981
55196W        W26922   7.289   0.362   1.465
55197W        W26923  20.139  32.542  14.747
55198W        W26924  40.405  22.357  12.072
55199W        W26925  11.845   5.425  14.965
55200W        W26926  13.221  19.058  12.815
55201W        W26927  21.273  25.659  11.585
55202W        W26928  41.058  25.128   3.173
55203W        W26929  42.469   1.702   0.909
55204W        W26930   8.415   2.402   1.882
55205W        W26931  22.134  19.332  11.187
55206W        W26932  36.153   9.290  11.070
55207W        W26933  13.749  18.118   1.704
55208W        W26934  15.845  22.226   2.789
55209W        W26935  33.490   3.033  13.829
55210W        W26936  29.949  38.451  13.464
55211W        W26937   2.262  28.137  12.380
55212W        W26938  12.501  32.071  13.292
55213W        W26939   2.696   5.312   1.290
55214W        W26940  17.756  27.733  11.380
55215W        W26941  28.514  41.213  13.492
55216W        W26942  41.525  18.808  14.653
55217W        W26943  16.290   5.833  11.354
55218W        W26944  43.958  35.658  11.579
55219W        W26945  28.128  42.531  12.651
55220W        W26946  16.254  27.498   2.307
55221W        W26947   3.600  25.101   4.600
55222W        W26948  21.311  33.537  10.379
55223W        W26949   1.393  40.466  13.023
55224W        W26950  35.292  38.365   1.776
55225W        W26951  16.718   0.741   4.604
55226W        W26952  11.326  43.465  14.963
55227W        W26953  19.815  40.230   2.195
55228W        W26954  24.735  26.554   3.652
55229W        W26955  34.516  25.670   4.658
55230W        W26956   6.675  21.034  14.461
55231W        W26957  26.499  42.390   1.011
55232W        W26958  16.206  13.614  10.679
55233W        W26959  15.490   7.347   4.073
55234W        W26960   9.373  38.047  10.751
55235W        W26961   0.280   4.766  12.018
55236W        W26962  35.863   3.328  12.931
55237W        W26963  21.258  31.090   3.134
55238W        W26964  25.585  40.041   1.012
55239W        W26965  10.549  37.918  12.064
55240W        W26966  34.852  14.758  11.189
55241W        W26967   4.871  29.421   1.381
55242W        W26968  19.693  15.271  14.896
55243W        W26969  33.958  28.988   2.970
55244W        W26970   8.623  34.800  10.684
55245W        W26971  31.606  12.859  14.960
55246W        W26972  29.554  22.020  12.502
55247W        W26973   2.980  44.502   0.667
55248W        W26974  11.213   0.342   2.605
55249W        W26975  33.619   0.934   1.408
55250W        W26976  19.669  17.574   2.275
55251W        W26977  40.759   0.826  11.630
55252W        W26978  33.092  14.637  11.653
55253W        W26979  19.603   4.768   1.835
55254W        W26980  27.597  28.019   3.198
55255W        W26981  23.168  44.863   1.158
55256W        W26982  34.132  43.437  12.127
55257W        W26983  41.810  34.674   3.749
55258W        W26984  13.729  11.654   3.561
55259W        W26985   8.100  24.618  12.010
55260W        W26986  27.494  38.635  13.878
55261W        W26987  40.601  37.153   2.853
55262W        W26988  12.572  18.513  10.649
55263W        W26989  35.488   9.095   1.426
55264W        W26990   1.043  28.259  12.055
55265W        W26991  36.261  25.282  13.675
55266W        W26992  21.771   1.953   0.276
55267W        W26993   9.134  24.827  11.047
55268W        W26994  30.772  37.672   2.675
55269W        W26995  20.745  40.874   0.897
55270W        W26996  11.240  38.990  14.549
55271W        W26997  32.632   6.157   2.838
55272W        W26998   4.440  24.702  14.466
55273W        W26999  11.947  40.743   2.754
55274W        W27000  40.972  21.410   0.324
55275W        W27001   1.882  24.161  12.545
55276W        W27002   0.538  18.242   2.022
55277W        W27003  19.643   3.395  11.640
55278W        W27004   7.881  25.225   4.101
55279W        W27005  44.817  42.467   4.268
55280W        W27006  28.395  11.021  13.416
55281W        W27007  39.750  29.599   0.050
55282W        W27008  31.058  24.285   4.637
55283W        W27009   6.075   5.362  13.860
55284W        W27010  41.509  44.288  12.082
55285W        W27011  37.062  12.732  10.493
55286W        W27012  33.364  23.232   1.905
55287W        W27013  27.519   2.810  14.057
55288W        W27014  42.854   7.112   3.630
55289W        W27015  31.462   9.139  11.677
55290W        W27016   5.956  35.378   1.653
55291W        W27017   3.657   1.447  12.051
55292W        W27018  12.117  41.019   1.431
55293W        W27019  27.490   7.921  11.200
55294W        W27020   6.687  24.548  13.891
55295W        W27021  34.053  35.438  10.401
55296W        W27022  12.580  13.322  13.845
55297W        W27023   3.002   4.874  14.505
55298W        W27024  23.200  27.916   1.851
55299W        W27025  44.513   0.538   1.796
55300W        W27026  12.159  11.120   3.348
55301W        W27027   8.927  44.082  10.768
55302W        W27028  21.727   8.933  13.761
55303W        W27029  41.475  18.063   2.890
55304W        W27030   7.591  33.059  12.505
55305W        W27031   0.918   5.331   4.046
55306W        W27032  41.992   3.565  13.956
55307W        W27033   3.665  24.737  12.439
55308W        W27034  28.946   5.210   0.348
55309W        W27035   8.966   4.713  14.844
55310W        W27036  32.031  39.406  14.487
55311W        W27037   2.479   4.223  12.855
55312W        W27038  44.361  11.688  14.337
55313W        W27039  26.961   7.127  12.486
55314W        W27040  20.157  20.064   0.345
55315W        W27041  31.887  42.661  11.902
55316W        W27042   5.372  14.237   1.349
55317W        W27043  10.097   3.447  11.644
55318W        W27044  31.418  30.518   0.925
55319W        W27045  20.996  28.682   4.650
55320W        W27046  38.030   4.359   1.094
55321W        W27047  34.124  21.019   4.606
55322W        W27048  42.764   9.348   0.257
55323W        W27049  10.707   3.738   0.736
55324W        W27050  31.027  13.226   3.194
55325W        W27051  17.223  41.092  11.614
55326W        W27052   4.152  17.662  14.732
55327W        W27053   5.834  43.894  13.992
55328W        W27054  10.878  13.609  13.909
55329W        W27055  13.030  36.365   3.178
55330W        W27056  31.678  13.826   0.842
55331W        W27057   0.833  19.208  11.954
55332W        W27058  34.757  16.813  12.550
55333W        W27059  26.594  16.887   1.783
55334W        W27060  23.550  22.690  13.983
55335W        W27061  38.979   6.813  12.004
55336W        W27062  13.652  24.493  11.056
55337W        W27063  44.410  30.065  10.988
55338W        W27064  33.940  40.846   4.203
55339W        W27065  33.195  30.371  14.577
55340W        W27066   3.696  31.643   1.776
55341W        W27067   9.668  22.483  13.784
55342W        W27068  22.272   6.802   1.750
55343W        W27069   6.311  18.080   4.743
55344W        W27070  29.149  23.700   2.078
55345W        W27071  13.796  35.220   2.647
55346W        W27072  44.964  24.117  10.373
55347W        W27073  31.969  42.509   2.105
55348W        W27074  22.983  40.761  12.581
55349W        W27075  16.514   5.713   0.686
55350W        W27076  17.973  12.262   0.740
55351W        W27077  23.210   6.796  10.988
55352W        W27078  32.178  42.278   4.130
55353W        W27079  13.221   2.782   2.166
55354W        W27080  15.004  32.954   3.401
55355W        W27081  34.006  24.503  10.705
55356W        W27082   9.889  33.243  11.509
55357W        W27083   2.877  13.640  13.498
55358W        W27084  41.556  24.923  10.601
55359W        W27085  29.134  23.722  11.134
55360W        W27086   6.958   7.674   2.405
55361W        W27087  43.453  22.973  10.889
55362W        W27088  20.033  26.269  13.959
55363W        W27089   2.641  37.211   0.483
55364W        W27090  39.813  27.077  13.944
55365W        W27091  40.464   6.282  13.606
55366W        W27092  35.901  35.553   2.803
55367W        W27093  26.576  40.083  13.849
55368W        W27094  20.543  11.397   3.245
55369W        W27095  35.321  11.139  12.963
55370W        W27096   2.951   7.194   0.754
55371W        W27097  38.739   9.396   4.657
55372W        W27098  13.336  29.461  13.588
55373W        W27099   2.840  38.086  10.424
55374W        W27100  13.696  34.443   0.031
55375W        W27101   6.367  37.595  11.602
55376W        W27102   4.391  11.349  12.068
55377W        W27103  31.379  33.857  13.103
55378W        W27104  29.041   7.947  13.959
55379W        W27105  36.417  11.836   0.374
55380W        W27106  29.076  22.276   4.627
55381W        W27107   2.331  19.992   1.271
55382W        W27108  30.017  30.657  13.606
55383W        W27109   0.280   5.156   4.632
55384W        W27110  32.931   4.310   3.089
55385W        W27111  36.319  18.604   0.886
55386W        W27112  20.750  37.387  12.011
55387W        W27113  20.235  39.027  14.882
55388W        W27114  42.608  38.538   9.910
55389W        W27115  15.612  15.220  14.366
55390W        W27116  32.126   7.287   2.293
55391W        W27117  18.680   8.346  13.277
55392W        W27118   9.194  23.094  11.706
55393W        W27119  37.102   8.124  12.610
55394W        W27120  13.640  28.980  10.585
55395W        W27121   4.970  30.537  10.614
55396W        W27122   5.079   6.679   4.506
55397W        W27123  17.531  35.860  13.082
55398W        W27124  21.317  17.708  12.947
55399W        W27125  23.157  43.275  10.697
55400W        W27126  18.597   4.042   3.186
55401W        W27127  14.630  38.553   0.737
55402W        W27128  12.319  15.124  14.569
55403W        W27129  31.994   5.185   3.396
55404W        W27130   3.521  31.922  11.484
55405W        W27131  28.604  18.740   2.327
55406W        W27132  40.592  39.934  14.328
55407W        W27133  21.957  25.975   3.319
55408W        W27134  44.690  26.933  11.051
55409W        W27135  35.764  43.882   4.541
55410W        W27136  44.096  17.135   2.176
55411W        W27137  12.171  17.328  13.633
55412W        W27138  35.822  16.973  10.812
55413W        W27139  30.238  20.583  14.909
55414W        W27140  17.207  35.467   4.416
55415W        W27141  25.088  42.131   0.388
55416W        W27142  20.223  26.530   0.864
55417W        W27143  18.512   1.379  13.450
55418W        W27144   0.585  24.589   2.193
55419W        W27145  41.208  29.154  11.123
55420W        W27146  21.064  13.474  12.673
55421W        W27147   6.411  18.593   3.623
55422W        W27148  44.423  44.716   1.196
55423W        W27149  40.665  12.928  14.360
55424W        W27150  13.167  36.573   1.123
55425W        W27151  29.690  31.822  13.415
55426W        W27152  42.814  22.282   1.766
55427W        W27153  27.362  18.711  11.147
55428W        W27154  20.811  25.697   5.013
55429W        W27155  35.451  42.912  14.754
55430W        W27156  24.060   4.785   2.122
55431W        W27157  21.112  22.142  14.676
55432W        W27158   3.324  33.393   0.438
55433W        W27159  16.079  16.040   0.743
55434W        W27160  28.682  26.104  12.890
55435W        W27161  16.102  37.804  12.462
55436W        W27162  23.257  31.924   0.551
55437W        W27163  20.567  23.221   3.778
55438W        W27164   9.691  13.908  14.393
55439W        W27165   7.453  25.441  13.578
55440W        W27166  21.624  21.383  13.510
55441W        W27167  26.065  37.328  12.151
55442W        W27168  29.122  26.042  14.337
55443W        W27169  40.353   0.560   2.810
55444W        W27170  28.626   0.802  12.912
55445W        W27171  26.742   8.590   2.829
55446W        W27172  40.590  25.074   5.060
55447W        W27173  33.425   0.168   2.256
55448W        W27174  42.389   0.342   3.539
55449W        W27175   7.719  12.285   3.144
55450W        W27176  20.509  19.636  12.132
55451W        W27177  24.667  19.300   4.789
55452W        W27178  14.502  33.581   3.598
55453W        W27179  13.766  10.771   3.629
55454W        W27180  39.375  40.136  11.226
55455W        W27181   4.909  18.268  11.197
55456W        W27182  38.903  39.911  14.960
55457W        W27183  44.752  42.498   4.789
55458W        W27184  29.713   3.112   4.994
55459W        W27185  40.765   7.001   0.766
55460W        W27186  19.798  30.990   2.209
55461W        W27187  33.806  31.651  12.938
55462W        W27188  39.488  23.075  11.432
55463W        W27189   3.844  11.892  13.359
55464W        W27190  10.592  43.469  11.530
55465W        W27191  27.594   0.477  10.796
55466W        W27192  13.434   0.083   2.473
55467W        W27193  20.067  29.531   3.681
55468W        W27194  32.144  44.744   1.865
55469W        W27195  38.099  37.703   1.248
55470W        W27196   0.746  24.053  11.919
55471W        W27197  38.339  38.049  14.468
55472W        W27198   3.589  32.141   1.675
55473W        W27199  12.792  38.830  13.380
55474W        W27200   9.302  31.094   4.460
55475W        W27201   9.943  37.829   1.853
55476W        W27202  30.035  35.063  14.790
55477W        W27203  41.859  12.083  11.987
55478W        W27204  15.347  21.500  10.684
55479W        W27205  29.732  25.941   0.508
55480W        W27206  26.568  39.565  13.861
55481W        W27207  19.625   7.696  12.485
55482W        W27208   0.757  15.848  12.927
55483W        W27209  35.681  36.153   4.677
55484W        W27210  43.816  41.028   3.491
55485W        W27211  18.025  26.191   2.781
55486W        W27212  11.312  27.428  10.911
55487W        W27213  44.009  10.269  14.510
55488W        W27214  10.689   4.450   0.366
55489W        W27215  36.414  39.766   3.093
55490W        W27216  18.669  12.167  10.714
55491W        W27217   9.753  21.793   1.429
55492W        W27218   2.328  24.133   0.183
55493W        W27219  15.599   9.794   1.757
55494W        W27220   0.379   8.437  12.342
55495W        W27221  42.497  32.015   1.742
55496W        W27222  20.524  40.614  14.473
55497W        W27223  40.049  23.732  14.368
55498W        W27224  10.239  21.274   3.247
55499W        W27225  23.679  22.652   0.924
55500W        W27226  33.061  16.772  11.063
55501W        W27227  29.549  42.794  14.311
55502W        W27228  22.505  40.964  12.492
55503W        W27229  38.073  26.707   4.668
55504W        W27230  24.407   7.720  11.277
55505W        W27231   1.202  31.034   1.379
55506W        W27232   9.771  36.611  14.390
55507W        W27233  29.564  39.054   1.691
55508W        W27234  29.558  24.599   1.424
55509W        W27235  39.243  35.493   0.855
55510W        W27236  26.234  23.465   3.796
55511W        W27237  15.742  13.839  10.691
55512W        W27238  14.756   7.621   1.664
55513W        W27239  27.893  41.218   1.861
55514W        W27240  22.594  20.211   3.802
55515W        W27241  31.787  23.241  13.987
55516W        W27242  30.046  21.090  11.895
55517W        W27243   0.083   5.977   4.196
55518W        W27244  35.522  39.707  10.916
55519W        W27245  39.178   0.906   4.447
55520W        W27246  25.825  22.101   0.792
55521W        W27247  28.343  44.456   3.183
55522W        W27248  20.692  11.271   4.736
55523W        W27249  31.627  20.082   2.403
55524W        W27250  30.000  18.464   2.840
55525W        W27251   3.429  33.701  13.328
55526W        W27252  20.187   8.637  10.647
55527W        W27253  26.534  42.917  10.266
55528W        W27254   7.346   2.773   4.751
55529W        W27255  25.589   3.356  12.195
55530W        W27256  24.098  25.454   2.335
55531W        W27257  40.429   3.971  10.570
55532W        W27258  12.179  42.844   1.257
55533W        W27259  29.134  39.128  13.363
55534W        W27260  42.824  28.621   0.565
55535W        W27261  28.645   7.206   1.266
55536W        W27262  31.219  11.868   1.733
55537W        W27263  42.801   2.909  14.411
55538W        W27264  29.966  32.466   0.517
55539W        W27265   7.619  25.100   1.014
55540W        W27266  36.837   7.856   1.735
55541W        W27267  10.640  10.442   1.792
55542W        W27268   8.876  33.840   4.858
55543W        W27269  21.648  19.841  10.466
55544W        W27270  26.575  10.780  13.289
55545W        W27271  19.485  14.642  12.564
55546W        W27272   9.724  28.208   0.895
55547W        W27273  22.537  20.048   0.349
55548W        W27274   0.847  29.257   4.221
55549W        W27275  38.179  18.739  12.513
55550W        W27276   1.634  40.398  13.476
55551W        W27277  18.630  24.494  14.713
55552W        W27278   8.070   5.216  11.452
55553W        W27279  16.102  16.161  14.689
55554W        W27280   1.772   0.442  12.017
55555W        W27281  33.314  29.413  11.117
55556W        W27282  33.227  16.113   3.869
55557W        W27283  41.829  42.211   5.097
55558W        W27284   9.591  32.064  10.825
55559W        W27285  44.810   8.244  13.002
55560W        W27286  41.273  28.047  12.988
55561W        W27287  24.907  25.972  11.542
55562W        W27288  23.360  27.350   4.562
55563W        W27289  32.196  43.381  12.430
55564W        W27290  28.555  23.208   1.843
55565W        W27291  31.119   8.157   3.267
55566W        W27292  42.061  17.755  10.165
55567W        W27293  19.775  35.370  13.690
55568W        W27294   5.836  15.879  10.956
55569W        W27295  32.075   9.430  10.541
55570W        W27296  33.490   2.243  11.489
55571W        W27297   1.024   9.340  13.600
55572W        W27298  18.586  44.572   4.155
55573W        W27299  28.819  20.748  14.150
55574W        W27300  14.547   3.321   2.111
55575W        W27301   1.843  26.089  10.789
55576W        W27302  17.799   8.897   3.236
55577W        W27303  37.878   3.825   2.752
55578W        W27304   2.314  35.630  12.501
55579W        W27305  17.474  43.849  14.948
55580W        W27306  40.051   7.353  14.751
55581W        W27307  12.308  15.731   3.746
55582W        W27308  32.307  30.504   1.384
55583W        W27309  39.870  28.041   0.880
55584W        W27310  33.788  40.436  10.738
55585W        W27311  18.766  14.118  12.635
55586W        W27312  12.704  27.521  14.260
55587W        W27313  37.665   6.205   0.001
55588W        W27314   4.455  36.160   2.256
55589W        W27315   7.637  12.767  12.019
55590W        W27316   5.318  21.291   3.590
55591W        W27317  22.644  10.692  14.659
55592W        W27318  37.056  28.489   3.242
55593W        W27319  19.494   7.218   0.757
55594W        W27320  13.124  31.480   1.304
55595W        W27321  25.481  11.311  12.699
55596W        W27322  11.809  30.921  11.337
55597W        W27323  38.873   3.841   1.898
55598W        W27324  15.267  18.164   4.667
55599W        W27325  17.619  36.581   3.398
55600W        W27326  32.020  10.764   3.422
55601W        W27327   8.916   4.012  12.158
55602W        W27328  23.092  40.016  14.945
55603W        W27329   8.787   2.432  11.658
55604W        W27330   5.186  29.127  12.824
55605W        W27331  22.573  11.357  11.478
55606W        W27332  32.536  26.861   0.408
55607W        W27333  21.627  44.726  11.061
55608W        W27334  24.165  28.215  13.402
55609W        W27335  38.808  23.663   4.065
55610W        W27336  39.349  38.768  14.705
55611W        W27337  31.907   0.966  11.639
55612W        W27338  36.141   5.962  12.391
55613W        W27339   4.340  29.859  13.587
55614W        W27340  19.107  29.540  12.898
55615W        W27341  19.151  32.144  12.298
55616W        W27342  28.832  24.907  11.211
55617W        W27343  19.944   5.973   0.927
55618W        W27344  15.658   4.276   2.954
55619W        W27345  42.825  26.675  13.032
55620W        W27346  22.769  39.427   1.948
55621W        W27347  29.592  42.059  11.393
55622W        W27348  37.127  23.577  12.637
55623W        W27349  35.920  36.565   1.922
55624W        W27350  42.427  22.737  13.344
55625W        W27351  36.840  39.803   0.942
55626W        W27352  32.528  32.609   2.848
55627W        W27353  13.114  43.209  14.850
55628W        W27354  13.399  22.030  13.416
55629W        W27355   4.267  28.973  14.390
55630W        W27356  13.695   9.224   3.140
55631W        W27357  28.028  22.936   3.696
55632W        W27358   2.843  11.111  14.362
55633W        W27359  20.816  19.777  10.805
55634W        W27360  29.559  27.222  13.477
55635W        W27361   1.992  10.740  13.967
55636W        W27362  31.356   8.383   2.346
55637W        W27363   5.244  43.825  14.840
55638W        W27364   6.502   3.267   3.918
55639W        W27365  26.468   4.297  12.238
55640W        W27366   7.798   7.899   2.965
55641W        W27367  40.314  36.338  12.150
55642W        W27368   1.387  40.687  11.747
55643W        W27369   1.947   1.350   3.704
55644W        W27370   7.824   4.723  12.200
55645W        W27371  13.756  35.481   3.460
55646W        W27372  25.978  28.447   2.175
55647W        W27373  28.003  14.177   1.818
55648W        W27374  25.456   4.302  11.434
55649W        W27375  23.568  22.732  10.997
55650W        W27376  27.693  41.885  14.017
55651W        W27377  32.176  24.322   3.248
55652W        W27378  29.753   3.769  12.013
55653W        W27379  16.550  16.298  14.918
55654W        W27380  29.661  20.165   2.344
55655W        W27381  37.330  31.080   4.942
55656W        W27382  38.898  23.052   0.243
55657W        W27383  38.016  34.954  13.133
55658W        W27384  17.703   7.501   0.596
55659W        W27385  26.489   4.627  14.262
55660W        W27386   7.140  16.248   4.488
55661W        W27387  15.767  37.849   3.356
55662W        W27388  38.046  44.742  14.325
55663W        W27389  16.383  19.550  12.855
55664W        W27390  29.668  13.349  14.525
55665W        W27391   5.936  12.168   0.399
55666W        W27392  12.665  43.704  12.383
55667W        W27393   3.535   9.314   4.047
55668W        W27394  19.965  26.666   0.399
55669W        W27395  13.792  40.687   3.373
55670W        W27396  12.392  29.584   4.089
55671W        W27397  12.242  33.662   0.427
55672W        W27398  13.867   7.279  13.481
55673W        W27399  37.363   6.113   2.976
55674W        W27400  22.076  11.231  13.131
55675W        W27401   7.617  35.849   1.806
55676W        W27402  29.159  11.122  13.689
55677W        W27403  27.466   9.272   3.625
55678W        W27404  22.122  13.309  11.097
55679W        W27405  16.721   0.955  13.377
55680W        W27406  25.934  11.218  13.397
55681W        W27407  32.587  31.375   4.732
55682W        W27408   2.859   4.837   0.507
55683W        W27409  37.993  16.615  10.463
55684W        W27410  26.444  29.884  12.676
55685W        W27411  31.483  36.119   4.337
55686W        W27412  21.625  13.078  11.115
55687W        W27413   6.461   2.822   3.168
55688W        W27414   9.149  39.395   3.002
55689W        W27415  29.563  12.600   0.862
55690W        W27416  36.024   0.724  13.331
55691W        W27417   8.779  21.197  11.510
55692W        W27418  38.634  32.072   1.453
55693W        W27419  28.952   8.339   2.248
55694W        W27420   4.187  37.522   2.897
55695W        W27421  10.599  18.399  14.912
55696W        W27422  42.949   1.831   4.569
55697W        W27423  31.451  41.433   2.326
55698W        W27424  28.912  26.967  10.366
55699W        W27425   8.347  40.578  12.774
55700W        W27426  35.877  26.527   4.493
55701W        W27427   5.138  13.188   1.282
55702W        W27428  24.725  36.476  13.731
55703W        W27429   5.296  41.485   2.759
55704W        W27430  17.104  41.834   3.932
55705W        W27431  41.771  41.319   2.737
55706W        W27432   2.830   2.002   4.737
55707W        W27433  31.962  40.672  12.060
55708W        W27434  39.002   1.732   2.247
55709W        W27435   1.491   8.911   2.254
55710W        W27436  22.552  41.706  13.673
55711W        W27437  29.917   4.644  12.063
55712W        W27438  43.019  10.565   4.078
55713W        W27439  13.563  36.950   3.602
55714W        W27440   7.469  23.230  13.788
55715W        W27441  14.259  11.787  12.472
55716W        W27442  42.528  17.127   0.459
55717W        W27443  43.284  13.356   3.205
55718W        W27444   7.269   7.713  12.823
55719W        W27445   2.559   1.590   1.875
55720W        W27446  39.907  13.803   4.537
55721W        W27447  22.462  43.001  13.150
55722W        W27448  33.998  40.014   1.301
55723W        W27449  22.681   6.278   4.114
55724W        W27450  27.052  31.996   3.580
55725W        W27451   0.049  36.341   0.869
55726W        W27452  38.581   8.708  13.281
55727W        W27453   9.901  12.725   2.107
55728W        W27454  35.725   7.203   0.896
55729W        W27455  21.830   1.804  12.416
55730W        W27456  40.487  32.368  13.862
55731W        W27457   3.844  18.644   0.336
55732W        W27458  25.701  22.407  14.572
55733W        W27459  18.109  11.742   1.915
55734W        W27460  29.072   3.847   2.685
55735W        W27461  22.919  19.631  13.495
55736W        W27462  17.242  32.522   1.932
55737W        W27463  19.051  42.377  11.537
55738W        W27464  18.813  42.980  12.667
55739W        W27465  40.581  30.001   4.719
55740W        W27466  16.120  16.810  13.986
55741W        W27467  42.648  38.893   0.945
55742W        W27468  37.834  18.060   2.404
55743W        W27469   7.528  19.558   3.508
55744W        W27470  25.817  10.357   2.607
55745W        W27471  33.098  30.839  14.280
55746W        W27472  21.090  38.633  11.585
55747W        W27473  23.679  25.071  13.873
55748W        W27474  25.834  19.491   3.160
55749W        W27475   6.135  19.863  11.297
55750W        W27476   6.104  29.204   1.460
55751W        W27477  15.223   6.846  12.636
55752W        W27478  19.128  28.490   1.101
55753W        W27479  38.546  32.307   4.674
55754W        W27480   0.706  17.742   2.070
55755W        W27481  17.318  42.982   0.611
55756W        W27482  15.813  14.670   3.035
55757W        W27483  38.016  11.179   2.401
55758W        W27484  29.944  44.024   3.830
55759W        W27485  36.100  27.341  13.244
55760W        W27486  25.196  22.636  11.488
55761W        W27487  15.219  13.456   1.132
55762W        W27488  36.928  21.420   4.933
55763W        W27489  35.889   6.918   1.383
55764W        W27490  41.417  42.949   0.676
55765W        W27491   1.848  33.589   4.078
55766W        W27492  30.311  42.801   1.392
55767W        W27493   2.829  19.933   4.257
55768W        W27494  43.395  22.773  11.593
55769W        W27495  33.914  19.901  13.083
55770W        W27496  20.725  32.562   1.767
55771W        W27497  44.227  32.536   4.901
55772W        W27498   5.171  28.032  14.310
55773W        W27499   6.168  27.998   5.070
55774W        W27500  12.196  25.032   0.994
55775W        W27501  25.988   5.836   3.676
55776W        W27502  27.210  35.783   1.297
55777W        W27503  23.316  26.724  12.888
55778W        W27504  12.197   7.322   1.482
55779W        W27505  22.552   3.062  12.235
55780W        W27506  16.213   2.950   5.047
55781W        W27507   9.819  25.596  10.243
55782W        W27508  11.849  31.891   4.271
55783W        W27509  21.328  26.480   3.284
55784W        W27510  26.461  31.091   2.271
55785W        W27511  21.212  41.000   1.864
55786W        W27512  33.980  12.431   2.217
55787W        W27513  21.564  27.618   2.079
55788W        W27514  25.457  32.663  13.040
55789W        W27515  39.422  26.565   0.853
55790W        W27516  36.204  28.680   4.182
55791W        W27517  14.709  17.365   4.902
55792W        W27518  12.467   8.612  11.297
55793W        W27519  21.116  22.320  11.685
55794W        W27520  23.003  44.457  11.099
55795W        W27521  32.988  21.646   0.796
55796W        W27522  17.352  36.651   1.248
55797W        W27523  33.788  13.228   4.865
55798W        W27524  13.844  43.984   3.708
55799W        W27525   4.840   0.800   2.384
55800W        W27526  34.165  14.116  14.859
55801W        W27527  19.859   2.916   0.521
55802W        W27528  17.278  40.582  13.874
55803W        W27529   8.302  24.128  12.362
55804W        W27530   0.206  30.996   1.173
55805W        W27531  11.456  41.625  13.892
55806W        W27532  21.353  37.815   4.087
55807W        W27533  15.694  37.527   0.425
55808W        W27534  44.450  19.970  12.472
55809W        W27535  15.583   9.333   2.933
55810W        W27536  11.862  10.935   0.386
55811W        W27537  20.524  37.422  14.858
55812W        W27538  40.384   8.890  12.603
55813W        W27539  12.705  44.813  13.339
55814W        W27540  21.284  30.704  13.019
55815W        W27541  40.613  13.154  13.897
55816W        W27542  21.015  31.537   0.013
55817W        W27543   5.181   7.714  13.323
55818W        W27544  13.866  31.375  12.076
55819W        W27545  32.260  17.093   5.006
55820W        W27546   9.840  26.676  14.128
55821W        W27547   3.880  43.040  11.560
55822W        W27548   3.749  35.067   1.165
55823W        W27549  24.262  17.592  13.781
55824W        W27550  17.792  32.152  10.614
55825W        W27551  18.095  10.357  14.016
55826W        W27552  20.553   1.477   0.841
55827W        W27553  18.121  36.905  11.221
55828W        W27554  15.131  24.932   4.697
55829W        W27555  23.989  33.483  13.120
55830W        W27556  27.644  22.211  14.428
55831W        W27557  11.167  34.693   2.292
55832W        W27558  34.045  12.692   0.750
55833W        W27559  13.298  27.000  11.618
55834W        W27560   3.494  14.765   0.337
55835W        W27561  19.957   9.493  10.974
55836W        W27562   0.845   3.897  11.220
55837W        W27563  24.117  21.039  13.785
55838W        W27564  29.546   4.958   4.261
55839W        W27565  35.878   7.271   4.656
55840W        W27566   8.166  44.258  13.389
55841W        W27567   2.924  24.661  11.088
55842W        W27568  28.455  38.279   0.470
55843W        W27569   3.148  36.928   4.341
55844W        W27570  38.491  23.534  12.298
55845W        W27571   1.744  21.282   0.469
55846W        W27572  44.951  35.746   3.622
55847W        W27573   8.132  25.856  11.449
55848W        W27574   6.480   3.065  13.818
55849W        W27575  22.537   8.156   4.430
55850W        W27576  36.984  27.450   3.261
55851W        W27577  13.488  36.627   3.196
55852W        W27578  13.044   1.784  12.399
55853W        W27579  15.581  43.224   2.159
55854W        W27580   6.167  17.971  11.508
55855W        W27581  28.662  10.260  11.429
55856W        W27582  12.897  25.725   2.840
55857W        W27583  26.537  44.979   1.751
55858W        W27584  36.580  31.106  13.444
55859W        W27585  42.306  10.390   4.590
55860W        W27586  22.753   0.990   0.726
55861W        W27587   1.910  14.716  13.876
55862W        W27588  25.469   7.721   1.657
55863W        W27589  14.652  12.964  14.406
55864W        W27590  31.517  31.130  14.814
55865W        W27591   2.182  21.571  13.381
55866W        W27592  43.880   2.964  13.759
55867W        W27593  10.887  11.176   3.251
55868W        W27594  36.574  34.097  12.982
55869W        W27595  20.767  38.484  13.729
55870W        W27596  13.536  42.831  12.061
55871W        W27597  17.325  28.950   4.105
55872W        W27598   3.793  40.841   4.917
55873W        W27599  12.543  28.858  11.097
55874W        W27600  33.674  27.185  12.047
55875W        W27601  13.399  21.561   3.604
55876W        W27602   1.184  17.830   4.154
55877W        W27603   0.455  42.058  12.848
55878W        W27604  39.541   6.216  13.368
55879W        W27605   6.851  31.527  10.726
55880W        W27606  11.922  34.014   0.801
55881W        W27607  40.341  13.379   2.854
55882W        W27608  10.381  40.451  11.139
55883W        W27609  13.844  24.992  11.119
55884W        W27610  34.522  23.222  10.719
55885W        W27611  37.717  23.729  11.170
55886W        W27612  32.314  11.043   1.393
55887W        W27613  35.771  22.603   0.812
55888W        W27614  32.142   6.236  11.958
55889W        W27615  34.817  39.630   0.324
55890W        W27616  27.388   7.105   3.706
55891W        W27617   7.776  25.367  14.454
55892W        W27618   5.379  18.050  11.191
55893W        W27619   4.312  18.374  12.510
55894W        W27620  11.243  35.851   3.748
55895W        W27621  15.771  11.079   1.438
55896W        W27622   4.663  22.172  14.210
55897W        W27623  34.629  41.991  11.100
55898W        W27624   2.983  20.926  10.956
55899W        W27625  26.145  38.039   0.377
55900W        W27626  31.348   3.621  12.107
55901W        W27627  29.502  22.005   4.672
55902W        W27628  17.383  35.507   0.295
55903W        W27629  15.324  35.394   1.328
55904W        W27630  27.233  35.514   1.736
55905W        W27631  25.252  44.187   3.825
55906W        W27632  35.097  19.350  14.021
55907W        W27633  35.052   5.476   1.282
55908W        W27634  22.746  22.736  14.435
55909W        W27635  27.221  40.375  13.124
55910W        W27636  25.822   6.644  10.687
55911W        W27637  24.710   7.377   4.401
55912W        W27638   7.174  14.626  10.564
55913W        W27639   7.775  42.533   1.754
55914W        W27640  29.151  41.263   2.201
55915W        W27641  12.654   0.348   0.280
55916W        W27642  11.810  13.367  12.865
55917W        W27643   8.200  22.242   2.321
55918W        W27644  29.482  43.867   1.713
55919W        W27645  22.031  21.269  12.780
55920W        W27646  30.201  41.862  14.992
55921W        W27647  31.947   3.956  13.999
55922W        W27648   8.787  41.214  12.760
55923W        W27649  39.820  15.007  13.531
55924W        W27650  43.778   2.666  13.340
55925W        W27651  20.919  12.742  11.887
55926W        W27652  40.715   2.319  12.017
55927W        W27653   5.459   7.393   2.804
55928W        W27654   7.286   3.631  12.862
55929W        W27655  44.295  15.631   2.654
55930W        W27656  34.627   5.477   1.001
55931W        W27657  15.293   7.732   2.863
55932W        W27658  21.116   4.238  12.330
55933W        W27659  13.640  42.007   1.277
55934W        W27660  13.753  42.059  11.636
55935W        W27661  23.624  11.424   4.599
55936W        W27662  31.097  21.046  13.658
55937W        W27663   6.468  30.086   3.882
55938W        W27664  16.707  32.468   2.882
55939W        W27665  36.140  14.124  13.983
55940W        W27666  18.796  41.353   1.780
55941W        W27667  23.696  25.593   2.038
55942W        W27668  25.451  42.354   3.131
55943W        W27669  30.716  20.184   2.442
55944W        W27670  36.843  28.766  12.218
55945W        W27671  23.823  24.066   3.608
55946W        W27672  29.640  15.624  12.439
55947W        W27673  43.518  14.190  14.035
55948W        W27674  12.164  43.517  10.731
55949W        W27675  20.772  42.551   4.716
55950W        W27676   0.206  41.284   0.836
55951W        W27677  25.689  15.085   4.781
55952W        W27678  37.564  41.552   3.855
55953W        W27679  16.690  20.579  10.438
55954W        W27680   5.664  22.290  10.366
55955W        W27681  44.241  39.802  10.968
55956W        W27682  44.162  30.271  14.233
55957W        W27683  21.030  40.076   2.820
55958W        W27684  44.506  31.064   3.196
55959W        W27685  35.680  26.788   3.642
55960W        W27686  27.617   7.395  10.858
55961W        W27687  12.407  35.467   4.409
55962W        W27688  10.380  30.346   3.963
55963W        W27689  11.775  28.347  14.267
55964W        W27690  11.706  44.152   5.155
55965W        W27691  37.797  34.023   3.271
55966W        W27692   0.071   1.409   1.374
55967W        W27693  32.578  25.124   3.244
55968W        W27694  32.868   3.382   2.603
55969W        W27695  39.238  43.901  13.963
55970W        W27696  15.451  29.070  11.423
55971W        W27697   0.734  40.278   2.616
55972W        W27698  24.705  25.759   2.279
55973W        W27699  11.345  15.532   3.729
55974W        W27700  20.626   2.473  13.928
55975W        W27701  33.035  31.183   1.261
55976W        W27702  37.006  40.969  10.747
55977W        W27703  23.120  15.850   2.926
55978W        W27704  33.679   2.021   1.951
55979W        W27705   8.296  33.401  13.050
55980W        W27706   0.242  33.557   0.630
55981W        W27707   5.646   0.449  12.121
55982W        W27708   8.237  33.256  12.010
55983W        W27709  18.430  10.825   4.867
55984W        W27710   0.942  36.979  14.887
55985W        W27711  24.778  25.584  14.303
55986W        W27712  33.717  42.909   1.593
55987W        W27713  20.976  40.438  10.683
55988W        W27714   9.204   9.216  12.473
55989W        W27715  44.955  35.055  12.921
55990W        W27716  32.344   0.958  14.042
55991W        W27717  36.857  25.524   4.102
55992W        W27718  16.290  34.852   2.368
55993W        W27719  38.873  19.743   4.059
55994W        W27720   2.902  37.623  11.636
55995W        W27721  27.934   0.841  14.542
55996W        W27722  20.484  12.696  13.003
55997W        W27723  33.526  18.210   4.597
55998W        W27724  27.444  20.344   0.349
55999W        W27725  15.288  28.475   1.075
56000W        W27726  33.006   0.009   3.210
56001W        W27727  40.265   0.282   4.518
56002W        W27728  26.564   1.417  10.140
56003W        W27729   3.991  12.910  10.667
56004W        W27730  29.106   3.377   3.557
56005W        W27731   5.807  11.386   2.195
56006W        W27732  19.645  22.026  11.590
56007W        W27733   7.915  18.253  12.102
56008W        W27734  10.644  44.544   4.133
56009W        W27735  35.796   9.618   3.096
56010W        W27736   0.803   6.907   0.731
56011W        W27737  30.624  32.303   1.855
56012W        W27738  19.123  17.636  12.954
56013W        W27739   0.987  30.994   3.131
56014W        W27740   4.338   2.951   4.510
56015W        W27741  15.008  38.345   2.795
56016W        W27742   6.147  13.778   4.119
56017W        W27743  38.020  10.101  14.129
56018W        W27744  41.833  14.799   3.369
56019W        W27745  40.731  36.962  13.378
56020W        W27746  25.837  29.031   3.115
56021W        W27747  31.870  24.378  12.328
56022W        W27748  14.184   3.010  12.046
56023W        W27749  14.093   6.654   0.309
56024W        W27750  31.346  29.595   1.477
56025W        W27751  14.674  24.725  11.090
56026W        W27752  16.204   4.749   2.313
56027W        W27753  18.030  23.602  12.602
56028W        W27754  40.306  10.708  13.054
56029W        W27755   4.740  27.438   3.297
56030W        W27756   5.848  17.045   0.989
56031W        W27757  22.194  39.362   3.654
56032W        W27758  27.149  37.607   3.358
56033W        W27759  10.899  29.540   1.211
56034W        W27760  24.081   2.637   0.378
56035W        W27761  20.001   1.392   2.637
56036W        W27762  39.819   7.834   4.178
56037W        W27763  13.475   8.832   4.671
56038W        W27764  10.160  16.458  10.921
56039W        W27765  26.558  38.787  10.853
56040W        W27766  37.058  21.117  10.683
56041W        W27767  33.793  29.521   4.664
56042W        W27768  18.299  12.539  14.782
56043W        W27769  30.874  25.967  12.824
56044W        W27770  36.654  34.604   3.914
56045W        W27771   4.955   9.539  11.069
56046W        W27772  19.812  24.530  12.586
56047W        W27773  33.124  43.039  12.538
56048W        W27774   3.949  14.309   4.888
56049W        W27775  38.260  17.858  10.457
56050W        W27776  28.468  18.646  12.027
56051W        W27777   3.349  11.830  14.791
56052W        W27778  42.806  25.542   1.115
56053W        W27779  26.002   8.217   4.628
56054W        W27780  24.460  30.841  14.066
56055W        W27781  42.804  11.720   0.833
56056W        W27782   9.083  30.684  13.496
56057W        W27783  20.227  40.334   0.310
56058W        W27784  25.477  42.360   4.266
56059W        W27785  22.274  16.177   3.186
56060W        W27786  18.248   9.971   0.566
56061W        W27787  40.996  37.882  14.760
56062W        W27788  11.516  36.425   4.029
56063W        W27789   4.208  27.936  13.145
56064W        W27790  10.154  36.277  12.488
56065W        W27791  14.040  30.196  13.428
56066W        W27792   4.236  18.148   4.930
56067W        W27793  31.093  39.027  14.232
56068W        W27794  34.400  13.811   4.462
56069W        W27795   9.272  26.191   3.379
56070W        W27796  12.774  36.827  10.719
56071W        W27797  12.607  32.681  12.513
56072W        W27798  30.321  39.768  11.605
56073W        W27799  11.054  37.368   4.569
56074W        W27800  27.001  44.004   4.289
56075W        W27801  42.364  10.756   3.152
56076W        W27802  29.034  23.627  10.635
56077W        W27803  15.068  21.669   4.353
56078W        W27804  36.623   7.114   4.211
56079W        W27805  40.809  18.628  10.942
56080W        W27806  10.538  35.108   1.878
56081W        W27807   9.350  18.531   4.181
56082W        W27808  27.919   3.758   0.113
56083W        W27809  44.957  38.104  14.863
56084W        W27810  28.437  18.803  14.312
56085W        W27811   9.207  19.945  14.216
56086W        W27812  34.865  13.177   4.473
56087W        W27813  37.630  11.184  12.339
56088W        W27814   1.716  28.075   1.837
56089W        W27815  39.505  42.413   2.014
56090W        W27816   8.420  42.371  12.230
56091W        W27817   4.622  23.879  11.863
56092W        W27818   5.387  22.488  11.165
56093W        W27819  25.118  41.217   1.268
56094W        W27820  37.452  21.112  11.025
56095W        W27821  23.053  12.317   4.565
56096W        W27822   3.788  28.235  13.096
56097W        W27823  38.984  12.399  13.045
56098W        W27824  16.043  41.573  12.960
56099W        W27825  31.023  10.712   3.323
56100W        W27826  16.214  17.312  13.914
56101W        W27827   0.916  36.290   0.757
56102W        W27828  26.816  31.138   4.212
56103W        W27829  44.207  19.564  14.472
56104W        W27830  10.886  25.360   0.226
56105W        W27831  35.891  41.516  11.632
56106W        W27832  18.083  33.560  12.793
56107W        W27833  23.095  20.596  13.331
56108W        W27834  43.406  20.156  13.695
56109W        W27835   9.167  34.612   4.649
56110W        W27836  22.397   5.741  13.361
56111W        W27837  42.472   1.748  11.184
56112W        W27838  29.906  34.013  14.794
56113W        W27839  11.713  41.652   2.757
56114W        W27840  10.958  43.519   2.357
56115W        W27841  33.545  17.973   0.256
56116W        W27842   3.684  20.043  11.152
56117W        W27843  40.331  20.115  13.226
56118W        W27844  32.614  29.378   3.663
56119W        W27845  42.783  38.912   4.198
56120W        W27846  24.760  34.319  12.387
56121W        W27847   9.741  37.990   1.387
56122W        W27848   6.804   3.230   3.151
56123W        W27849   5.267   2.790   2.235
56124W        W27850   6.848   7.129  12.465
56125W        W27851  22.155   4.246  10.623
56126W        W27852  25.153  39.224  12.730
56127W        W27853  36.069  30.700   2.172
56128W        W27854  27.691   2.300  12.933
56129W        W27855  39.830  22.657  12.840
56130W        W27856  33.097   3.408  11.172
56131W        W27857  16.518  28.113  14.469
56132W        W27858  38.440  12.701  14.351
56133W        W27859  15.033  30.535  12.050
56134W        W27860  19.519  43.753   1.582
56135W        W27861  17.448  10.309  12.902
56136W        W27862  13.458   5.912  13.333
56137W        W27863   2.646  38.790   3.243
56138W        W27864  22.042  39.430   1.717
56139W        W27865  21.995  19.256   4.211
56140W        W27866  27.218  36.094  12.976
56141W        W27867   3.820  22.236   1.898
56142W        W27868   1.694  26.720   4.197
56143W        W27869  40.430   0.700   1.492
56144W        W27870  32.006  25.116  11.890
56145W        W27871   4.328  14.115   0.368
56146W        W27872   3.737  32.834  13.571
56147W        W27873  33.592  21.275   9.903
56148W        W27874  41.996   6.856   1.644
56149W        W27875  11.568  13.527  11.529
56150W        W27876  44.559  37.530   2.730
56151W        W27877  26.603  16.057  12.925
56152W        W27878  26.390  44.313   3.151
56153W        W27879   6.302  28.474  14.723
56154W        W27880  18.802  35.287  14.024
56155W        W27881  14.237   7.675  12.322
56156W        W27882   1.523  24.470  14.032
56157W        W27883  40.781  10.864   2.325
56158W        W27884  15.392  22.718  13.429
56159W        W27885  26.921   0.994  14.424
56160W        W27886  10.845  15.190  11.720
56161W        W27887  29.852  37.185   3.361
56162W        W27888  27.786  31.388  12.015
56163W        W27889  19.755  22.677  14.848
56164W        W27890  13.566  26.984  14.758
56165W        W27891  16.758  35.021   2.594
56166W        W27892  18.190  26.059  12.170
56167W        W27893  42.354  29.962  11.560
56168W        W27894   2.947  37.632  10.715
56169W        W27895  22.236  26.549   4.843
56170W        W27896  35.937  31.464  12.118
56171W        W27897  12.292  19.011   3.178
56172W        W27898  36.297  26.191  12.567
56173W        W27899  10.328  28.146   3.797
56174W        W27900  40.067  43.060  11.117
56175W        W27901  15.912  26.973  12.074
56176W        W27902   6.071  16.420   1.697
56177W        W27903  38.117   4.234  14.665
56178W        W27904   8.170  42.058   0.809
56179W        W27905  18.287   1.621   2.232
56180W        W27906  24.563  30.143  12.281
56181W        W27907  25.406   0.366  10.725
56182W        W27908  35.913  18.760   2.112
56183W        W27909  10.834  19.275   4.388
56184W        W27910   3.407  41.459   4.695
56185W        W27911   6.845  42.511   1.613
56186W        W27912   2.793   3.092   3.661
56187W        W27913  22.500  23.744   1.752
56188W        W27914  36.131  44.977  10.661
56189W        W27915   3.018  23.548   0.741
56190W        W27916  36.328  32.333  11.162
56191W        W27917   6.642  42.565   1.166
56192W        W27918   2.117  29.151  13.569
56193W        W27919   8.756  32.873  14.893
56194W        W27920  41.243  30.209  13.413
56195W        W27921  16.743   7.111  13.812
56196W        W27922  29.838  31.642  11.650
56197W        W27923   7.943  19.505  12.504
56198W        W27924  14.495  35.568  12.188
56199W        W27925  35.588  36.543  14.761
56200W        W27926  13.761  27.850   0.194
56201W        W27927  11.571  25.755   5.001
56202W        W27928   4.898  17.387  11.071
56203W        W27929   5.506   2.270  14.698
56204W        W27930   6.154  18.696  12.399
56205W        W27931  27.557   7.421  13.924
56206W        W27932  37.793  42.483  13.784
56207W        W27933  31.985  25.105  13.374
56208W        W27934  17.530  39.213   2.642
56209W        W27935  13.729   7.895   3.212
56210W        W27936  25.802  19.614  13.091
56211W        W27937  21.464  22.985  11.082
56212W        W27938  25.651  12.340   1.759
56213W        W27939  25.433   8.304   3.725
56214W        W27940  30.788   5.423   1.173
56215W        W27941  34.425  12.482   2.871
56216W        W27942  29.597  27.539   1.300
56217W        W27943   9.195   9.901  11.947
56218W        W27944  13.538   3.860  13.534
56219W        W27945  12.301  42.564   4.227
56220W        W27946  41.601  17.217  11.559
56221W        W27947  40.413  23.524   4.163
56222W        W27948  13.636  35.087  12.569
56223W        W27949   8.867  27.609   1.009
56224W        W27950  44.319  37.322   4.113
56225W        W27951  44.846  25.041  11.967
56226W        W27952  37.939  31.722  14.149
56227W        W27953  40.795   2.218   4.146
56228W        W27954  27.903  38.889   3.230
56229W        W27955  11.125  38.330  12.423
56230W        W27956  38.332  21.786   3.644
56231W        W27957  33.559  34.341   0.390
56232W        W27958  37.519  27.584   4.633
56233W        W27959  12.817  15.596  10.401
56234W        W27960  21.550  20.750  10.898
56235W        W27961  20.805  44.319   0.407
56236W        W27962   0.188  35.752   1.200
56237W        W27963  13.413  26.589  14.358
56238W        W27964  37.927   6.247   4.741
56239W        W27965  26.651  31.624   4.233
56240W        W27966  36.160  36.384   4.836
56241W        W27967  11.401  39.962   0.373
56242W        W27968  33.507  17.099  14.774
56243W        W27969  24.742  21.140  13.266
56244W        W27970  36.127  12.793  10.659
56245W        W27971  18.734  22.570   2.692
56246W        W27972   2.003  28.200  13.077
56247W        W27973  28.586  20.614  10.605
56248W        W27974  41.334  24.753   3.893
56249W        W27975  30.180  32.144  10.632
56250W        W27976  25.667  11.812  12.861
56251W        W27977  31.471  10.528   2.827
56252W        W27978  21.357  34.100  11.585
56253W        W27979  27.893   8.657   2.351
56254W        W27980  42.989  10.262  11.320
56255W        W27981  35.661   4.482  11.632
56256W        W27982  25.478   8.757  14.204
56257W        W27983  11.560  42.378  14.485
56258W        W27984  44.177  27.529   2.687
56259W        W27985  38.526   3.693   2.618
56260W        W27986  14.994  40.901  10.692
56261W        W27987   6.762  30.060  13.862
56262W        W27988  39.834  28.473  12.548
56263W        W27989   9.867   4.953   4.311
56264W        W27990  28.957  40.413   3.308
56265W        W27991   6.908  38.876   1.241
56266W        W27992  14.769  44.727  13.947
56267W        W27993  23.583  16.579  13.560
56268W        W27994  23.214  32.199  14.652
56269W        W27995  12.359   4.165   4.575
56270W        W27996  14.531  41.991   4.675
56271W        W27997  19.532  28.055  11.668
56272W        W27998  27.029  15.406  10.522
56273W        W27999   6.629  16.197   5.040
56274W        W28000  31.458  42.519  10.105
56275W        W28001  14.223  27.358  12.533
56276W        W28002  42.156  16.026  13.406
56277W        W28003  37.119  23.048   0.814
56278W        W28004   4.243   5.080   4.652
56279W        W28005  37.016   9.642  14.817
56280W        W28006  16.186  37.986  14.445
56281W        W28007  11.397  25.120   5.196
56282W        W28008  37.560  12.371  12.605
56283W        W28009  36.079  33.865   1.414
56284W        W28010  40.342  42.851   0.861
56285W        W28011  21.078  19.285   2.269
56286W        W28012  13.446  15.568  13.705
56287W        W28013   5.226   4.004   1.772
56288W        W28014   4.822  11.910  14.403
56289W        W28015  11.469  14.137  11.890
56290W        W28016   5.290  36.969   2.900
56291W        W28017  32.985  17.152   0.428
56292W        W28018  24.069  23.474  12.047
56293W        W28019  26.767   9.763   3.837
56294W        W28020   7.360  40.193  11.258
56295W        W28021   3.722  42.777  11.152
56296W        W28022   3.505  29.238  12.225
56297W        W28023   1.964  40.615  11.075
56298W        W28024  33.092  24.163   3.301
56299W        W28025  43.231  11.003   3.895
56300W        W28026  20.585  28.107  13.783
56301W        W28027  25.777  21.000   2.784
56302W        W28028   8.110   2.372  11.997
56303W        W28029  31.734  28.644  11.980
56304W        W28030  35.841  37.570   0.407
56305W        W28031  31.987  18.833   5.160
56306W        W28032  32.953   5.256   0.310
56307W        W28033  39.424  18.721  14.044
56308W        W28034  24.107  18.904  12.636
56309W        W28035  28.642  11.717  13.013
56310W        W28036  23.708   4.739   1.167
56311W        W28037  14.282  43.787   1.269
56312W        W28038  43.949  31.971   0.421
56313W        W28039  12.409  33.998   4.807
56314W        W28040  44.246  18.561  11.923
56315W        W28041  34.019  22.941  11.462
56316W        W28042  13.285  17.180   2.813
56317W        W28043  26.952  30.418  10.771
56318W        W28044  39.487  27.679  13.835
56319W        W28045  39.786  35.960  13.393
56320W        W28046  37.241  12.001  10.553
56321W        W28047  34.997  41.334   1.761
56322W        W28048  23.963   7.027  11.445
56323W        W28049  29.103  24.272  12.611
56324W        W28050   1.578  34.266   0.988
56325W        W28051  34.380  25.729   1.356
56326W        W28052  31.078  22.629   4.075
56327W        W28053   0.387  34.160   3.288
56328W        W28054  17.985  43.763  11.045
56329W        W28055  27.604  17.929  11.485
56330W        W28056  36.813  42.909   1.262
56331W        W28057  28.777  21.044  12.976
56332W        W28058  19.712  32.516  10.630
56333W        W28059  20.993   1.822  12.937
56334W        W28060  36.300  10.240   1.468
56335W        W28061  42.977  17.286   4.184
56336W        W28062  39.917  20.124   4.765
56337W        W28063   3.387   1.913   0.196
56338W        W28064   3.047  19.809  12.934
56339W        W28065  35.008  14.992  11.609
56340W        W28066  42.673  35.019   4.093
56341W        W28067  39.446  17.294   0.437
56342W        W28068  39.353  12.114  12.160
56343W        W28069  28.104  15.017  11.609
56344W        W28070  29.691   0.408  12.001
56345W        W28071  37.002  36.499   3.645
56346W        W28072  19.182  30.680   1.466
56347W        W28073  42.424  15.122   3.830
56348W        W28074  38.962   2.922  12.444
56349W        W28075   1.390  26.086   0.791
56350W        W28076  30.343  12.242   1.838
56351W        W28077  25.019   4.599   1.819
56352W        W28078  26.145   8.887  13.987
56353W        W28079  35.459   5.521   3.399
56354W        W28080  21.158   4.991   4.533
56355W        W28081  12.935  15.240   1.962
56356W        W28082  10.925  12.294   0.445
56357W        W28083  33.557  19.126   1.905
56358W        W28084   9.715  36.656   2.278
56359W        W28085   1.605   2.647  11.896
56360W        W28086  33.423  20.676   2.700
56361W        W28087  25.846  14.381   3.300
56362W        W28088   9.860  32.350  14.816
56363W        W28089  10.725  15.321   0.842
56364W        W28090  10.661  25.194   3.584
56365W        W28091  44.689  16.305  13.654
56366W        W28092   0.991  12.802   2.391
56367W        W28093  26.985   8.476  14.275
56368W        W28094  31.441   8.413   0.954
56369W        W28095  22.183  13.846  11.081
56370W        W28096  12.523  27.253  12.029
56371W        W28097  21.131  11.177  14.555
56372W        W28098  42.320  29.976   0.964
56373W        W28099   0.806  13.203  12.177
56374W        W28100  25.741  43.423   4.243
56375W        W28101   2.774  22.117   0.392
56376W        W28102  13.748  14.732  10.577
56377W        W28103  23.148  37.432   1.675
56378W        W28104   2.078   2.910   2.707
56379W        W28105   9.070  14.401  14.034
56380W        W28106  24.123  37.301   2.772
56381W        W28107  18.242   3.928  11.862
56382W        W28108   0.028   7.738  14.901
56383W        W28109  33.086  44.914   1.762
56384W        W28110  44.529  38.901   0.369
56385W        W28111   6.640  33.625  14.863
56386W        W28112  12.328  40.917  11.933
56387W        W28113  16.324   4.501  11.205
56388W        W28114  38.841  11.708  13.904
56389W        W28115  17.630  28.542   3.611
56390W        W28116  33.299  33.648  12.834
56391W        W28117  10.443  24.659  12.992
56392W        W28118   4.997  35.363   0.356
56393W        W28119  30.083  30.248   0.411
56394W        W28120  35.282  10.604   0.305
56395W        W28121  21.792  24.438   4.159
56396W        W28122  13.804  18.562   2.357
56397W        W28123   8.250  26.876  10.600
56398W        W28124  40.048  43.826   3.240
56399W        W28125   0.753  42.577   1.558
56400W        W28126  37.013  23.115   2.135
56401W        W28127  22.282  34.955   2.902
56402W        W28128   6.268  15.615   2.188
56403W        W28129   7.895  40.462   1.513
56404W        W28130  22.089  26.449  14.407
56405W        W28131  38.420   8.843   2.341
56406W        W28132   0.780  42.750  13.708
56407W        W28133  41.453  17.257  13.801
56408W        W28134  29.912  36.362  14.477
56409W        W28135   4.281  18.549   2.117
56410W        W28136  14.729  34.425   4.597
56411W        W28137  26.648  33.263   1.819
56412W        W28138   9.900  35.441  14.616
56413W        W28139  20.106  16.779   0.874
56414W        W28140  35.541  20.889  12.928
56415W        W28141  29.456  35.039  12.503
56416W        W28142  41.317  42.777   2.952
56417W        W28143  38.084  40.815  13.389
56418W        W28144  16.717  33.992  13.389
56419W        W28145  35.601  25.471   0.914
56420W        W28146   7.457   3.446  14.329
56421W        W28147  41.394   9.879   3.004
56422W        W28148  20.039  29.509  13.335
56423W        W28149  33.425  40.327  11.096
56424W        W28150  36.566  30.600  10.453
56425W        W28151  30.098  22.158  12.595
56426W        W28152   0.376  18.780  14.368
56427W        W28153  36.580  15.716  11.669
56428W        W28154  10.158  40.022   3.280
56429W        W28155  42.787  40.836  14.872
56430W        W28156  42.854   5.646  12.993
56431W        W28157  39.164  11.157   4.134
56432W        W28158  36.323  19.123  14.598
56433W        W28159  22.655  21.808  14.549
56434W        W28160  29.545  12.102   9.831
56435W        W28161  22.011  38.068  12.655
56436W        W28162  12.392  39.849   1.692
56437W        W28163  20.612  36.596   1.153
56438W        W28164  22.956  20.471   1.189
56439W        W28165  15.093  17.555  10.886
56440W        W28166   5.812  19.263   0.773
56441W        W28167  34.614  10.436  11.053
56442W        W28168  25.015  30.042  12.530
56443W        W28169  22.511  18.042  12.089
56444W        W28170  10.307  24.462   4.341
56445W        W28171  15.310  40.383  10.627
56446W        W28172  10.681  30.170  14.977
56447W        W28173  28.890  29.967   3.789
56448W        W28174  35.113  17.004  10.291
56449W        W28175  10.713   1.899   5.054
56450W        W28176   6.809   7.863  13.013
56451W        W28177  21.767  19.829  10.969
56452W        W28178  25.831  39.480  13.532
56453W        W28179   6.709  43.182   4.424
56454W        W28180  24.195  22.422  12.899
56455W        W28181   0.756  35.806   0.674
56456W        W28182  27.768  27.147   3.204
56457W        W28183  14.697   0.412  12.530
56458W        W28184  12.186  19.626   0.281
56459W        W28185  32.405  11.304  13.989
56460W        W28186  44.235  21.401   2.789
56461W        W28187   2.539   2.420  11.956
56462W        W28188  30.618  10.695   1.933
56463W        W28189   1.060   9.647   2.262
56464W        W28190  11.394   5.860  12.425
56465W        W28191   9.420  22.274   0.806
56466W        W28192  40.503  40.245  11.599
56467W        W28193   3.796  15.224  11.615
56468W        W28194  26.716  39.510   3.401
56469W        W28195   2.264   7.379   3.502
56470W        W28196  36.536   6.181  10.709
56471W        W28197   3.306  34.239  10.660
56472W        W28198  30.976   5.727  10.651
56473W        W28199  37.617   5.652  12.639
56474W        W28200   0.359  34.999   1.694
56475W        W28201  16.520  37.538   0.082
56476W        W28202  43.380  40.055  14.832
56477W        W28203   4.259  30.753  12.040
56478W        W28204  34.483  16.377  12.584
56479W        W28205  34.869  32.607   2.248
56480W        W28206   9.156   7.697   1.654
56481W        W28207  27.156  13.815  12.463
56482W        W28208  21.204  14.112  12.498
56483W        W28209  12.460  24.280   0.374
56484W        W28210   0.278  24.611   4.274
56485W        W28211  39.433  20.574  11.509
56486W        W28212  44.798  16.725  13.392
56487W        W28213  42.728  37.908  13.965
56488W        W28214  33.395  18.740   4.562
56489W        W28215  30.113  35.555   3.698
56490W        W28216  25.002  15.398  13.002
56491W        W28217  14.872  35.317   2.250
56492W        W28218   8.321  29.005   0.676
56493W        W28219  27.069  27.421   4.744
56494W        W28220  18.618  24.225   2.474
56495W        W28221   6.819  17.525  14.841
56496W        W28222  22.109  37.593  13.958
56497W        W28223  17.104  38.773  12.389
56498W        W28224  24.167  39.896   0.982
56499W        W28225   7.188  13.729  12.313
56500W        W28226   9.435  20.655  12.091
56501W        W28227  26.966  41.430  13.603
56502W        W28228  11.320  15.284  14.330
56503W        W28229   6.417  30.170   2.143
56504W        W28230  40.349  40.396   3.273
56505W        W28231   9.329  20.879  12.750
56506W        W28232  22.923  10.136  14.579
56507W        W28233  34.052   1.439   3.280
56508W        W28234   3.027   5.717   0.172
56509W        W28235  16.688  43.761   3.641
56510W        W28236  15.148  12.834  12.155
56511W        W28237  25.440  19.865  13.988
56512W        W28238   6.647  10.304  13.304
56513W        W28239  16.142  11.067   3.744
56514W        W28240  28.969  28.019  14.792
56515W        W28241   9.924  33.303   9.664
56516W        W28242  14.695  15.680   3.780
56517W        W28243  32.879  12.895   2.423
56518W        W28244   2.525   0.345   1.101
56519W        W28245  32.849  16.880   1.712
56520W        W28246  12.323  36.471  13.859
56521W        W28247  42.817  21.604  14.137
56522W        W28248   6.778  31.421  13.603
56523W        W28249   4.363  19.993   2.382
56524W        W28250  28.205   5.492   2.727
56525W        W28251   7.730  21.990  12.605
56526W        W28252  29.079  36.824  14.166
56527W        W28253  28.159  20.076   2.183
56528W        W28254  21.228  34.162   2.258
56529W        W28255  21.767  42.731  11.214
56530W        W28256   1.841  31.980  12.103
56531W        W28257  28.191  42.379   2.323
56532W        W28258   8.326  12.282  11.598
56533W        W28259  22.254  16.141  11.385
56534W        W28260  10.681   3.911  13.525
56535W        W28261  34.388   5.582  12.090
56536W        W28262  34.049  12.795   2.637
56537W        W28263   4.672   4.668  11.452
56538W        W28264   0.645  17.454   4.988
56539W        W28265   7.176  25.230   4.562
56540W        W28266  26.557  36.047   2.853
56541W        W28267  30.499  15.202  10.984
56542W        W28268  12.401   5.208  11.088
56543W        W28269  20.235  16.668   1.663
56544W        W28270   9.889  23.789   3.312
56545W        W28271  39.210  20.227  13.443
56546W        W28272  39.283  34.386  10.457
56547W        W28273   0.835  15.176  13.582
56548W        W28274   3.511  23.514   4.720
56549W        W28275  19.581  40.058  14.432
56550W        W28276   1.739  23.181  11.536
56551W        W28277  10.819  34.041  12.867
56552W        W28278  27.207  28.745   4.677
56553W        W28279  38.711  22.055   2.484
56554W        W28280   6.005  39.533  14.791
56555W        W28281  13.321  36.428   3.655
56556W        W28282   5.689  26.306  12.209
56557W        W28283  10.702  27.085   3.413
56558W        W28284   6.830  15.577   3.344
56559W        W28285  13.489  31.943  14.024
56560W        W28286  23.123  35.039  11.443
56561W        W28287  16.912  38.549  13.971
56562W        W28288   7.666  39.602   2.370
56563W        W28289  13.107  38.699  11.586
56564W        W28290  30.748   8.575   2.361
56565W        W28291  15.583  10.108  14.851
56566W        W28292  27.015  20.366   3.148
56567W        W28293  38.313  31.688  11.264
56568W        W28294  31.760  30.956  13.627
56569W        W28295  21.332  26.581   5.086
56570W        W28296  37.805  32.515  12.927
56571W        W28297  15.588  27.138  11.716
56572W        W28298  40.971  19.378   3.431
56573W        W28299  43.382  30.671  10.757
56574W        W28300  31.275  22.004  11.643
56575W        W28301  30.540  38.874   0.526
56576W        W28302  20.669  32.376  12.444
56577W        W28303  14.929  27.707  10.999
56578W        W28304   2.162  16.387   3.832
56579W        W28305  34.765  13.404   2.859
56580W        W28306  27.986  44.827  14.798
56581W        W28307  28.935   3.378  14.894
56582W        W28308  36.094   9.929   2.187
56583W        W28309  42.711  33.123  11.910
56584W        W28310  19.091   4.838   1.902
56585W        W28311  38.818   6.667  13.866
56586W        W28312  28.870  14.105   4.158
56587W        W28313   2.445   5.760   4.207
56588W        W28314   1.403  25.270  10.652
56589W        W28315  14.162  32.775   0.825
56590W        W28316  12.834  33.161  11.150
56591W        W28317   1.273  17.141   4.569
56592W        W28318  38.303  17.833   2.324
56593W        W28319  23.490  23.587   4.361
56594W        W28320  18.533  24.304   1.512
56595W        W28321  33.459  26.982  13.846
56596W        W28322   1.713  44.273   3.236
56597W        W28323  15.999  29.087   4.648
56598W        W28324   4.409  15.882  11.543
56599W        W28325   7.166  34.794  10.134
56600W        W28326   0.907  37.280   0.929
56601W        W28327  19.036   0.857   4.052
56602W        W28328   9.645  35.718  13.376
56603W        W28329  10.719  32.552  11.134
56604W        W28330  44.413  37.551  14.437
56605W        W28331  38.413  35.894  11.895
56606W        W28332  41.320  22.528   4.128
56607W        W28333  43.792  34.999  11.111
56608W        W28334  38.470   9.585   0.773
56609W        W28335  33.538  42.060   1.304
56610W        W28336  38.002  37.836   4.150
56611W        W28337  27.728  20.519   1.945
56612W        W28338  22.136  40.504   2.422
56613W        W28339  19.635  24.566   4.478
56614W        W28340  25.854  31.337   4.250
56615W        W28341   3.238   3.167   2.905
56616W        W28342  24.675   7.252  12.495
56617W        W28343  20.640  32.424  13.205
56618W        W28344  25.060  27.924   2.027
56619W        W28345  22.492  21.990  11.426
56620W        W28346   1.440  31.395   3.757
56621W        W28347  33.797  20.604  12.016
56622W        W28348  17.336  18.944  14.244
56623W        W28349   6.351   9.740   3.176
56624W        W28350  39.303  16.232  10.650
56625W        W28351  18.625  36.612   3.663
56626W        W28352  41.855  13.737  11.314
56627W        W28353   5.110   8.091  10.532
56628W        W28354  18.798   2.489  13.122
56629W        W28355  16.832  28.916   2.779
56630W        W28356  20.243  42.897  13.967
56631W        W28357  22.047  27.826   5.610
56632W        W28358  32.741  28.370  11.116
56633W        W28359  42.447  38.501  12.444
56634W        W28360  29.826   8.749   4.995
56635W        W28361  38.367  14.672   4.230
56636W        W28362  30.449  35.925   4.498
56637W        W28363   7.624   1.936  13.963
56638W        W28364  26.317  21.207   0.816
56639W        W28365  21.212  44.406  13.580
56640W        W28366  33.431  39.824  11.124
56641W        W28367  28.911   1.822  13.500
56642W        W28368   6.190  16.520   4.535
56643W        W28369  36.960  40.336  13.874
56644W        W28370  28.090   8.794  14.411
56645W        W28371  22.667   2.801  11.477
56646W        W28372   5.695  13.589   2.728
56647W        W28373  16.269  43.685   0.932
56648W        W28374  37.936   1.543  11.492
56649W        W28375  26.774  39.062   4.138
56650W        W28376  33.063  42.965  14.484
56651W        W28377  37.872  23.488   4.532
56652W        W28378  25.639  21.704  12.051
56653W        W28379  37.470  30.666  11.848
56654W        W28380  26.770  41.851   1.288
56655W        W28381  19.499  32.387   4.690
56656W        W28382  42.245   7.837  14.675
56657W        W28383  25.456  22.747  14.232
56658W        W28384   9.226   2.911  14.739
56659W        W28385  10.110  36.925  11.907
56660W        W28386  30.623  33.590   3.248
56661W        W28387  43.619  42.315  10.366
56662W        W28388  13.594   9.855  13.925
56663W        W28389  23.983  15.797   2.942
56664W        W28390  25.710   2.513   3.406
56665W        W28391  32.063  43.456  14.491
56666W        W28392  35.141  24.683   2.632
56667W        W28393  23.781  17.693   0.117
56668W        W28394  38.084  12.889  14.692
56669W        W28395  44.907  13.316   4.570
56670W        W28396  10.276  38.275   9.914
56671W        W28397   0.095  20.852   4.994
56672W        W28398  15.310  32.879  14.125
56673W        W28399  35.943   2.381  14.823
56674W        W28400   2.950  21.084  13.038
56675W        W28401  31.852   3.696  12.024
56676W        W28402   4.404  41.979   1.161
56677W        W28403  28.686   9.054   2.863
56678W        W28404   6.611  11.298   3.758
56679W        W28405  23.762  31.551   1.482
56680W        W28406  27.027  43.652   3.721
56681W        W28407  23.771  24.562  11.584
56682W        W28408  36.040   4.006   0.407
56683W        W28409  43.581  33.610  13.851
56684W        W28410   8.123  35.074   1.813
56685W        W28411   2.830  42.001   2.304
56686W        W28412  17.132  15.208  12.009
56687W        W28413  34.854  19.708  11.222
56688W        W28414  31.616   6.822  11.006
56689W        W28415  13.444  13.339   0.347
56690W        W28416   5.327  21.269   4.952
56691W        W28417   6.885   7.342  12.939
56692W        W28418  16.218  37.354   1.013
56693W        W28419  38.916  43.908   2.831
56694W        W28420  43.018  20.751   0.497
56695W        W28421  12.166  17.613  14.276
56696W        W28422   8.725  37.060  14.930
56697W        W28423  11.904  34.079   4.998
56698W        W28424  35.031  44.723   1.912
56699W        W28425  19.627   1.209   1.447
56700W        W28426   8.811  29.911   3.800
56701W        W28427  23.204  16.326   2.713
56702W        W28428  23.816  17.317   0.479
56703W        W28429  11.640  12.488  14.421
56704W        W28430  27.544   9.430  14.768
56705W        W28431   4.256  18.677  12.071
56706W        W28432  22.306  31.740   1.423
56707W        W28433  31.652  11.777  14.917
56708W        W28434  15.839  10.123   3.305
56709W        W28435  36.113  35.056   2.778
56710W        W28436  37.069  22.013  14.914
56711W        W28437  31.051  28.033   0.211
56712W        W28438   6.529  33.435  11.588
56713W        W28439  18.640  28.073  14.575
56714W        W28440  16.426  10.385   1.408
56715W        W28441  11.366  24.170  11.669
56716W        W28442  36.333   0.756   2.810
56717W        W28443  14.211   2.324  12.789
56718W        W28444   6.065  18.830  14.820
56719W        W28445  43.186  23.281  14.193
56720W        W28446  44.035  38.227   3.022
56721W        W28447  30.033  11.871   3.730
56722W        W28448   9.285  30.051   3.618
56723W        W28449   2.581  13.611   3.663
56724W        W28450   1.957  43.996   0.404
56725W        W28451   6.860  33.438   1.330
56726W        W28452   4.430   1.977  11.010
56727W        W28453   3.960  42.389   3.712
56728W        W28454  11.327   3.035   1.339
56729W        W28455  34.319  35.997  14.083
56730W        W28456  15.393  25.702  10.741
56731W        W28457   5.753   5.990  14.937
56732W        W28458  25.526   7.404   2.422
56733W        W28459  34.077  18.803   1.874
56734W        W28460  33.636  38.909   3.284
56735W        W28461  35.337  29.217   1.245
56736W        W28462  10.902  12.628   2.140
56737W        W28463  39.930  37.432  13.935
56738W        W28464   2.294  14.032   2.403
56739W        W28465   2.476  12.872  14.991
56740W        W28466  41.289   9.194  12.978
56741W        W28467  13.304  43.303  12.216
56742W        W28468  16.605  22.449   3.316
56743W        W28469   0.758  13.868   1.426
56744W        W28470  37.086   2.514   1.296
56745W        W28471  34.430  11.721   3.248
56746W        W28472  26.919  37.941  11.436
56747W        W28473  43.726  39.944  13.541
56748W        W28474  10.444  43.285  14.854
56749W        W28475  12.123  40.362   1.749
56750W        W28476  29.426  16.808  14.485
56751W        W28477  10.887  37.059   4.976
56752W        W28478  20.038  22.998   3.057
56753W        W28479   7.137   8.311  11.821
56754W        W28480  27.607  22.159   0.257
56755W        W28481  44.586   7.280   1.663
56756W        W28482  12.156   9.797   3.715
56757W        W28483  35.381  13.909  14.450
56758W        W28484  11.837  11.043   2.621
56759W        W28485  12.575  27.695  11.792
56760W        W28486  39.898  10.612  14.733
56761W        W28487  20.688  27.207   1.795
56762W        W28488  30.274   9.284   0.818
56763W        W28489  25.685  10.000   3.623
56764W        W28490  20.908   0.417   2.721
56765W        W28491  28.328  15.819  12.137
56766W        W28492  20.273  34.591   1.443
56767W        W28493   3.675   4.323   3.247
56768W        W28494  40.827  29.229   2.259
56769W        W28495  21.057  37.917   2.548
56770W        W28496  43.392  42.753  12.834
56771W        W28497   5.855  39.715   0.255
56772W        W28498  32.674  43.117   4.924
56773W        W28499  39.325  29.964   0.816
56774W        W28500  15.680   3.321  11.141
56775W        W28501  41.058  23.410   0.537
56776W        W28502   6.819  11.014   3.319
56777W        W28503   6.131  31.603   0.707
56778W        W28504  15.042   0.130  10.286
56779W        W28505  34.662  26.968  14.248
56780W        W28506  25.201  18.568   4.272
56781W        W28507  33.544  12.790   3.717
56782W        W28508  43.014  18.534   1.470
56783W        W28509  19.007  34.070  11.902
56784W        W28510  25.124   1.006  14.745
56785W        W28511  24.957   8.835   3.232
56786W        W28512  21.633  17.312  10.593
56787W        W28513  16.176   0.739  11.142
56788W        W28514  26.873  22.560   3.647
56789W        W28515  44.308   5.757   2.886
56790W        W28516  23.799  28.464  10.372
56791W        W28517  38.650  16.754   1.497
56792W        W28518  34.996  18.290   1.769
56793W        W28519  10.281  10.381   1.413
56794W        W28520  42.813  16.222   4.689
56795W        W28521  43.809  28.382   0.728
56796W        W28522  31.921  16.323   1.469
56797W        W28523  44.888  36.284  14.406
56798W        W28524  26.684  22.668   1.856
56799W        W28525  20.059   4.474  14.274
56800W        W28526  43.405  34.877   4.968
56801W        W28527   7.154  12.197  12.487
56802W        W28528  23.661  10.186   1.195
56803W        W28529  10.848  25.903  12.992
56804W        W28530  16.123  35.108  11.504
56805W        W28531   9.447  31.444   1.757
56806W        W28532  10.974   8.409  13.468
56807W        W28533  22.170   9.321  10.603
56808W        W28534  21.257   8.319  14.297
56809W        W28535  39.103  41.921   3.895
56810W        W28536  16.332  28.167  11.206
56811W        W28537   3.329  29.373   0.677
56812W        W28538  14.631  33.396  14.879
56813W        W28539  34.392  26.674   3.290
56814W        W28540  21.198  36.644  13.506
56815W        W28541  20.107  28.552   0.704
56816W        W28542   0.234   9.390   3.666
56817W        W28543  35.755   1.489   0.870
56818W        W28544  31.356  38.021   3.637
56819W        W28545  35.576  31.003  11.162
56820W        W28546  31.121  14.863   1.389
56821W        W28547  21.653  40.294   1.725
56822W        W28548  32.515  25.537   5.568
56823W        W28549  25.704  15.987  12.461
56824W        W28550  37.085   6.238   4.238
56825W        W28551  35.320  43.952   0.895
56826W        W28552  18.596   2.953   2.676
56827W        W28553  26.074  42.940   2.723
56828W        W28554  13.899  19.739  10.937
56829W        W28555  17.806  39.515  14.270
56830W        W28556  27.046   3.045   2.198
56831W        W28557   6.312  38.884  12.122
56832W        W28558   8.232  10.216  12.494
56833W        W28559  39.400   7.169   1.670
56834W        W28560  15.657  29.724  13.711
56835W        W28561  30.259  33.411  13.032
56836W        W28562  34.422  24.582   3.719
56837W        W28563   5.580  10.885   4.737
56838W        W28564  10.242  33.651  10.893
56839W        W28565  43.837   2.253   3.408
56840W        W28566  11.846  29.563   3.383
56841W        W28567  13.822  22.169   1.269
56842W        W28568  15.790  25.676   3.266
56843W        W28569  22.683   6.957  10.580
56844W        W28570   3.731  30.268  11.167
56845W        W28571  40.722  12.531  11.106
56846W        W28572  33.972  11.896   0.249
56847W        W28573  33.559  39.522  10.693
56848W        W28574  23.978  32.642   4.511
56849W        W28575  44.809   4.390  11.629
56850W        W28576   2.569   7.377  14.377
56851W        W28577  27.097  18.289   4.299
56852W        W28578  37.039  13.108  12.577
56853W        W28579   8.702  44.252  14.524
56854W        W28580  10.725  10.104   0.900
56855W        W28581  25.613  12.517   3.680
56856W        W28582  42.340  41.961   2.644
56857W        W28583  41.523  37.008  14.984
56858W        W28584  12.431   0.403  12.005
56859W        W28585  15.028  26.474  11.065
56860W        W28586  23.623  13.394   1.142
56861W        W28587  30.567  18.253   5.074
56862W        W28588  15.398  43.090  13.872
56863W        W28589  13.554   0.938  11.509
56864W        W28590  25.068  17.246  14.910
56865W        W28591  36.895  31.513  11.802
56866W        W28592   0.487  28.237  11.990
56867W        W28593  33.459  41.940   1.809
56868W        W28594  12.578  14.297  11.287
56869W        W28595   8.268   9.420   1.773
56870W        W28596   3.497  39.566   3.850
56871W        W28597  16.981  27.422   1.230
56872W        W28598   6.188  10.452  14.855
56873W        W28599  36.650  23.136   3.360
56874W        W28600  23.519  38.205  14.816
56875W        W28601  40.515  43.352   0.768
56876W        W28602  39.165  13.190   1.345
56877W        W28603  21.039  19.919   0.327
56878W        W28604  13.900  22.713   3.792
56879W        W28605  34.029  21.471  11.466
56880W        W28606  34.097  33.114   0.942
56881W        W28607   1.284  10.682   4.081
56882W        W28608   7.298   2.360  14.096
56883W        W28609   2.170   6.629   2.112
56884W        W28610  32.007  42.952  12.861
56885W        W28611  37.684   7.727   2.735
56886W        W28612  17.074  32.771   0.248
56887W        W28613   7.710  23.683  12.222
56888W        W28614  30.376  38.445   2.875
56889W        W28615  21.964  12.089  11.566
56890W        W28616  12.391  35.353   1.409
56891W        W28617  12.257  35.944   1.505
56892W        W28618  33.849   0.240  14.434
56893W        W28619  44.563  31.799  10.432
56894W        W28620  15.325   9.805   2.906
56895W        W28621  16.527  44.036   1.211
56896W        W28622   4.486  27.427   2.557
56897W        W28623  11.302  16.764  13.403
56898W        W28624  13.640  21.122  13.835
56899W        W28625  43.828  25.967  11.547
56900W        W28626  21.329  27.137  13.057
56901W        W28627  36.003  18.916   1.611
56902W        W28628  13.792  17.057   2.893
56903W        W28629  12.914  21.284  12.860
56904W        W28630  32.904  38.618  12.138
56905W        W28631  23.446  40.936   3.554
56906W        W28632   3.234  44.497   2.341
56907W        W28633  13.805  22.561  10.647
56908W        W28634  13.291   9.196   3.453
56909W        W28635   1.363  37.363   2.175
56910W        W28636  12.858   2.035  11.953
56911W        W28637  19.448  36.016   1.862
56912W        W28638  34.589   0.428   1.749
56913W        W28639  16.204  24.088   4.519
56914W        W28640  14.563  40.097  12.641
56915W        W28641  29.453  12.103   2.164
56916W        W28642   7.401   9.132   4.524
56917W        W28643   9.549   6.624  14.849
56918W        W28644  23.016  28.160  13.471
56919W        W28645  35.884  15.027  14.465
56920W        W28646  44.482  34.906   1.928
56921W        W28647  15.255   4.227   2.604
56922W        W28648  12.881  25.735  13.290
56923W        W28649  28.397  25.012   2.684
56924W        W28650  20.071  10.129   1.832
56925W        W28651  29.903  36.565  12.427
56926W        W28652  42.251  19.031   1.538
56927W        W28653  32.872  31.898  13.498
56928W        W28654  40.209  41.834  11.949
56929W        W28655  16.256  22.553  14.491
56930W        W28656  29.240  22.721   0.271
56931W        W28657  31.987   8.172   0.339
56932W        W28658  38.586  17.147  10.939
56933W        W28659  18.483  24.508  12.061
56934W        W28660   9.564  44.257   4.757
56935W        W28661   1.390  29.989   3.410
56936W        W28662   4.701   8.930  12.605
56937W        W28663   1.893  42.137   2.089
56938W        W28664  20.043  18.118  13.976
56939W        W28665  41.049  18.429  11.501
56940W        W28666   7.245  34.951   1.491
56941W        W28667  25.188  25.271  12.463
56942W        W28668  43.263   1.998  11.291
56943W        W28669  44.514   4.174   4.356
56944W        W28670   8.616   1.206   1.753
56945W        W28671  27.086  25.611   1.368
56946W        W28672  14.300  30.509   4.657
56947W        W28673  27.914   0.506   2.680
56948W        W28674   0.854  38.860  11.590
56949W        W28675  14.841  22.806  14.949
56950W        W28676  41.737  32.098  13.487
56951W        W28677   6.633  17.909  11.080
56952W        W28678   7.079  14.655  11.444
56953W        W28679  37.470  32.684  11.455
56954W        W28680  34.157  44.977  10.565
56955W        W28681   3.738  15.808   5.070
56956W        W28682  32.653  25.957   0.171
56957W        W28683  36.622   4.454  11.538
56958W        W28684  10.142  36.989   0.151
56959W        W28685   4.443  13.380  14.836
56960W        W28686  13.638  30.932   3.470
56961W        W28687   5.838   6.492   4.779
56962W        W28688  23.040   6.561  13.054
56963W        W28689  36.331  42.240  10.586
56964W        W28690  28.106  33.320  10.680
56965W        W28691  25.000  43.593  13.397
56966W        W28692  15.652   6.369   3.156
56967W        W28693   8.126   3.224  13.497
56968W        W28694  22.120  34.889  12.845
56969W        W28695  17.212   8.617   2.178
56970W        W28696  10.410   1.288   4.507
56971W        W28697  17.054  43.350  12.729
56972W        W28698  23.701  38.354   0.348
56973W        W28699  26.649  37.881  10.529
56974W        W28700  31.448  38.556   0.761
56975W        W28701   0.726   3.822   4.896
56976W        W28702  26.203  24.312   0.288
56977W        W28703  25.244  17.182   4.102
56978W        W28704  17.108  35.567  12.391
56979W        W28705   0.218   9.535  11.485
56980W        W28706  44.883  31.879   0.260
56981W        W28707  25.740  35.913  12.865
56982W        W28708  31.292  17.019  11.091
56983W        W28709   3.383  13.929  10.237
56984W        W28710  21.547  27.967   1.260
56985W        W28711   4.282  41.783  11.779
56986W        W28712  19.724  21.334   3.850
56987W        W28713  14.812  37.245  12.132
56988W        W28714  20.006  17.800   0.345
56989W        W28715  22.246  40.516  12.137
56990W        W28716  21.465  18.461   2.413
56991W        W28717  34.687  43.383   3.320
56992W        W28718   5.131  30.606  13.329
56993W        W28719  15.609  34.635   2.417
56994W        W28720   8.356  18.576   4.035
56995W        W28721  31.949  20.673   3.815
56996W        W28722  33.307  40.573  10.642
56997W        W28723   4.967  10.906   3.223
56998W        W28724  21.607  41.357  11.245
56999W        W28725  32.483  35.310  12.114
57000W        W28726   0.110   0.567  10.517
57001W        W28727  35.067  19.633   1.937
57002W        W28728   2.986  23.768  14.261
57003W        W28729  35.513   9.330   0.932
57004W        W28730  25.521  18.239   1.924
57005W        W28731  43.203  41.258   5.128
57006W        W28732  40.887  24.677   2.336
57007W        W28733  20.228  31.216  14.455
57008W        W28734   0.005   7.675  14.049
57009W        W28735  42.463   3.044  13.195
57010W        W28736   6.924  26.369  13.577
57011W        W28737  29.941  43.173   1.416
57012W        W28738  24.258  35.315   2.769
57013W        W28739   5.146  20.221   2.847
57014W        W28740   7.362   8.248  12.775
57015W        W28741  40.240  23.501  10.525
57016W        W28742  32.031  34.103   0.782
57017W        W28743  22.483  36.608   3.269
57018W        W28744  22.659  36.373  14.503
57019W        W28745   0.930  43.598  14.783
57020W        W28746  28.168  39.767   1.424
57021W        W28747  32.000  35.028  13.571
57022W        W28748  26.587  24.564  11.380
57023W        W28749  20.707  42.964  12.802
57024W        W28750   7.783  30.999  13.636
57025W        W28751  41.537  43.817  11.863
57026W        W28752   1.830  25.719   3.844
57027W        W28753  44.885  14.452   2.697
57028W        W28754  33.331  18.150  11.102
57029W        W28755  39.367  40.543   1.532
57030W        W28756  31.967   3.706  12.918
57031W        W28757  29.812  38.022   1.807
57032W        W28758   9.807  31.838  14.813
57033W        W28759  24.178  28.247   4.755
57034W        W28760  24.927   3.952  10.647
57035W        W28761   7.920   8.910   1.301
57036W        W28762  23.172  28.445   2.722
57037W        W28763  20.518  27.023  10.739
57038W        W28764  31.513  25.064   2.261
57039W        W28765  35.634  42.783  12.154
57040W        W28766  33.739  15.419  12.172
57041W        W28767  34.815  32.434   4.104
57042W        W28768  31.172  29.502  13.754
57043W        W28769   0.103   7.796  13.138
57044W        W28770  26.259   5.913  12.415
57045W        W28771   7.509   1.704  12.948
57046W        W28772  34.401   4.856  14.886
57047W        W28773  23.511  16.697   3.087
57048W        W28774  23.595  33.914   3.396
57049W        W28775  12.019  22.234   4.613
57050W        W28776  28.941  26.905   2.921
57051W        W28777  20.619  26.525  12.058
57052W        W28778   3.671  39.637  12.189
57053W        W28779   2.990  14.153  12.283
57054W        W28780  35.595  10.865  14.003
57055W        W28781  16.836  23.101  12.601
57056W        W28782  19.207   9.547   1.685
57057W        W28783  30.679  22.897  10.013
57058W        W28784  34.122  11.960   1.953
57059W        W28785  11.929  26.485  14.554
57060W        W28786  33.950  35.189   0.392
57061W        W28787  24.178  35.402  12.474
57062W        W28788  26.179  10.852  13.653
57063W        W28789  38.154   9.895  12.010
57064W        W28790  11.164  41.475   0.846
57065W        W28791   9.372   7.419   3.787
57066W        W28792  13.287  16.300   1.870
57067W        W28793  44.146   7.199  12.070
57068W        W28794  19.169   8.906   2.888
57069W        W28795  19.485   3.359  13.707
57070W        W28796  27.593  36.062  11.524
57071W        W28797  25.366  30.613  10.332
57072W        W28798  36.815   9.784   1.773
57073W        W28799  17.776  37.048   3.549
57074W        W28800  31.501  29.575   0.479
57075W        W28801   5.227  24.492  14.971
57076W        W28802  19.763  37.095  10.393
57077W        W28803   9.755  26.859  10.460
57078W        W28804  33.134  19.624   3.361
57079W        W28805  19.760  41.602   0.452
57080W        W28806   4.771  23.648   5.038
57081W        W28807  39.370  17.308   1.341
57082W        W28808  17.346  39.393   3.150
57083W        W28809  29.665  14.264   3.163
57084W        W28810  11.134  32.069   4.140
57085W        W28811  31.638   3.753  11.123
57086W        W28812  32.668  18.214   2.582
57087W        W28813  12.895  37.394   2.405
57088W        W28814  37.546  17.607  13.860
57089W        W28815  11.686  40.835  12.893
57090W        W28816  15.827   1.831   3.231
57091W        W28817  20.676  21.193  11.213
57092W        W28818  42.940  26.696  13.937
57093W        W28819  14.030  21.171  12.372
57094W        W28820  27.368  10.816  11.932
57095W        W28821  15.837  27.520   0.801
57096W        W28822  13.594   8.328  12.997
57097W        W28823  16.443  17.100  14.800
57098W        W28824  21.477  44.962  10.617
57099W        W28825  10.222  29.039  11.060
57100W        W28826  32.554  44.284  12.172
57101W        W28827   8.668   9.540  11.128
57102W        W28828  10.189  31.149   0.749
57103W        W28829  24.352  40.670   4.570
57104W        W28830  38.704  20.092   2.792
57105W        W28831  11.303  40.344   4.164
57106W        W28832  13.227  13.796   1.444
57107W        W28833  15.823  12.556   2.317
57108W        W28834  42.771  14.549  13.106
57109W        W28835  21.660  38.913  14.896
57110W        W28836  36.572  31.660  13.086
57111W        W28837  27.165   5.338  14.924
57112W        W28838  41.985  33.968  14.417
57113W        W28839   1.869   5.665   2.332
57114W        W28840  21.237  15.840   0.752
57115W        W28841  34.492  39.028  13.450
57116W        W28842  43.795  28.948  13.898
57117W        W28843  27.070  12.146  10.741
57118W        W28844   8.786  26.535  13.196
57119W        W28845  27.693   7.151  12.976
57120W        W28846  14.834  41.989  12.536
57121W        W28847  13.633  32.699  13.687
57122W        W28848  25.680  11.653   3.213
57123W        W28849  10.455  35.519  11.974
57124W        W28850   2.127  13.172  13.447
57125W        W28851  24.033  22.365  14.549
57126W        W28852  26.062  15.076  13.337
57127W        W28853  24.596  18.787  13.997
57128W        W28854  17.311  29.798   4.218
57129W        W28855  40.751  43.067   3.402
57130W        W28856  28.417  26.516   2.036
57131W        W28857  29.410  24.695   3.771
57132W        W28858  30.988   7.299   4.861
57133W        W28859   9.749  17.941  11.515
57134W        W28860  22.558  36.607   4.123
57135W        W28861  32.066  38.506  11.783
57136W        W28862  20.810  28.806   0.243
57137W        W28863  31.862   8.628  12.094
57138W        W28864   3.160   6.426   2.864
57139W        W28865   5.884  18.231  13.935
57140W        W28866   9.256  18.822   3.746
57141W        W28867  37.327  42.950  11.124
57142W        W28868   6.341  13.204   1.926
57143W        W28869  17.709  10.825   3.182
57144W        W28870  26.315  24.908   3.489
57145W        W28871  37.815  15.712   0.449
57146W        W28872  31.441  17.298   2.308
57147W        W28873  19.740  12.223  12.926
57148W        W28874   3.437  34.556  11.040
57149W        W28875  20.683  28.931  11.407
57150W        W28876  23.044   6.765  11.840
57151W        W28877  40.019  17.565  12.921
57152W        W28878  37.626   5.643  11.207
57153W        W28879   0.892   1.034  13.556
57154W        W28880   5.363  24.456   4.844
57155W        W28881   9.179  17.979   2.726
57156W        W28882  23.758  14.355  12.406
57157W        W28883  39.055  39.417   2.889
57158W        W28884  28.981  39.286  11.135
57159W        W28885  10.900  29.219  12.852
57160W        W28886  21.811  12.026   5.416
57161W        W28887  40.957   9.597  14.771
57162W        W28888  31.345  15.131   3.751
57163W        W28889  40.200  30.702  11.236
57164W        W28890  18.434   1.321   3.639
57165W        W28891  44.560  17.163   1.948
57166W        W28892  19.596  17.669   3.401
57167W        W28893   2.273   8.622   4.710
57168W        W28894  13.172  20.594   0.853
57169W        W28895  17.252  44.003   9.611
57170W        W28896   3.254  27.076   4.707
57171W        W28897  19.123   8.893   4.855
57172W        W28898  14.328  34.014   3.320
57173W        W28899   4.616  21.663   4.437
57174W        W28900  32.767  16.011   2.661
57175W        W28901   5.648  26.113   2.446
57176W        W28902  18.312  21.029   3.623
57177W        W28903   0.083  43.870  11.880
57178W        W28904  13.525  17.302   1.410
57179W        W28905   0.816   9.132   0.502
57180W        W28906  36.489   0.473  11.231
57181W        W28907  18.828  16.023   0.910
57182W        W28908  17.577  41.035  12.539
57183W        W28909  33.840  16.594  14.913
57184W        W28910   5.349  32.846   1.042
57185W        W28911  22.661  42.944  11.648
57186W        W28912  11.434  24.799  13.040
57187W        W28913  20.253  11.166   4.386
57188W        W28914  27.947  11.247  13.502
57189W        W28915  15.867  28.180   1.909
57190W        W28916  39.828  28.100   1.415
57191W        W28917   5.762  24.017  13.379
57192W        W28918  37.683  18.719  12.481
57193W        W28919  40.639  18.231   0.926
57194W        W28920  11.315  24.119  13.437
57195W        W28921  28.423  34.358   4.594
57196W        W28922  18.002   1.288  13.468
57197W        W28923  30.089   9.924   3.672
57198W        W28924  25.806  41.553   3.600
57199W        W28925  37.623  40.568  13.360
57200W        W28926  35.739  29.862   3.807
57201W        W28927   0.979  22.576   2.319
57202W        W28928  20.772  32.559   3.518
57203W        W28929  17.341  44.311   0.753
57204W        W28930  20.089  43.555   1.200
57205W        W28931  39.038  20.674   2.262
57206W        W28932  44.233  33.141  14.215
57207W        W28933  24.430  17.637  10.778
57208W        W28934  19.317  24.601  10.949
57209W        W28935  19.497  18.076  14.965
57210W        W28936  28.188  38.852  14.495
57211W        W28937  41.928  15.879   1.957
57212W        W28938  20.043  12.397  14.816
57213W        W28939  31.142  33.898   3.657
57214W        W28940   4.357   6.171   3.176
57215W        W28941  11.200  30.369  13.097
57216W        W28942  28.126   5.170  13.798
57217W        W28943  42.218   3.818   2.188
57218W        W28944  24.074  12.864  10.635
57219W        W28945  43.883   7.332  10.738
57220W        W28946  42.083  41.920   1.656
57221W        W28947  22.380  32.581   0.461
57222W        W28948  40.805  41.963  13.342
57223W        W28949   0.434  26.154  13.255
57224W        W28950  22.724  26.455  11.962
57225W        W28951   8.139   5.730   2.414
57226W        W28952  10.920  36.826   3.642
57227W        W28953  25.267  13.153   2.933
57228W        W28954  22.128  14.935  11.896
57229W        W28955   1.941  26.851  12.644
57230W        W28956   2.317  35.498   3.246
57231W        W28957   9.879   8.855   0.388
57232W        W28958  29.923  10.652   0.459
57233W        W28959  30.126  20.064   4.238
57234W        W28960  17.113   2.711  14.859
57235W        W28961   4.218  32.486   1.294
57236W        W28962  33.675  27.563  14.456
57237W        W28963  24.613  23.248   0.116
57238W        W28964  16.257  31.988  12.148
57239W        W28965   9.195  17.650   4.340
57240W        W28966  32.824   7.882   1.629
57241W        W28967   9.652   2.669  14.896
57242W        W28968   3.422  25.899   4.171
57243W        W28969  35.310   7.622   0.260
57244W        W28970  28.398   6.863  11.581
57245W        W28971  10.285  12.777   4.396
57246W        W28972   7.514  31.038  14.616
57247W        W28973  10.263   7.827  14.828
57248W        W28974  26.529  42.364  14.991
57249W        W28975  25.058  32.167   2.316
57250W        W28976  26.984   6.838   3.892
57251W        W28977  20.964  28.242  11.142
57252W        W28978   5.642  25.212   3.723
57253W        W28979  29.022  29.851   2.744
57254W        W28980   1.999  37.008  13.893
57255W        W28981  19.275  44.029   1.210
57256W        W28982   7.400  12.782   4.633
57257W        W28983  43.957   2.314  14.289
57258W        W28984  16.654  13.301   3.632
57259W        W28985  32.422  40.442   1.811
57260W        W28986  36.085   0.275   4.598
57261W        W28987   3.947  10.610  12.044
57262W        W28988  30.657   1.495  11.736
57263W        W28989  15.180  15.084  14.938
57264W        W28990  10.360   5.853   1.726
57265W        W28991  44.737  19.397   0.370
57266W        W28992  37.920   7.375  14.013
57267W        W28993   1.375  39.598  11.546
57268W        W28994   1.236   7.362  13.984
57269W        W28995  36.028  27.772   0.952
57270W        W28996  19.631  21.545   2.174
57271W        W28997  33.881  44.975   0.386
57272W        W28998  24.705  20.575  12.858
57273W        W28999  27.536   4.391  11.407
57274W        W29000   4.047  29.867  11.136
57275W        W29001  12.914  12.574  14.500
57276W        W29002  12.714  25.523  13.757
57277W        W29003  33.137  17.124   3.244
57278W        W29004   5.236  40.089  14.873
57279W        W29005  44.348  31.518  12.067
57280W        W29006  34.359   0.881  14.042
57281W        W29007  44.830   5.247   3.265
57282W        W29008  35.841  21.734  12.471
57283W        W29009   3.860   5.707  14.073
57284W        W29010   6.681  26.558  13.112
57285W        W29011  25.185  22.995  13.852
57286W        W29012  15.734  25.029   3.709
57287W        W29013   1.062  40.258  13.359
57288W        W29014  13.113  33.702  13.507
57289W        W29015   2.698   6.808  12.381
57290W        W29016  43.053  26.203  13.027
57291W        W29017  43.086  38.087   2.700
57292W        W29018  41.092   1.374   3.751
57293W        W29019  25.561  39.339   2.234
57294W        W29020  28.455  16.182   1.027
57295W        W29021  26.607  20.823   0.977
57296W        W29022  25.184   5.014   0.034
57297W        W29023   5.783  31.352   4.580
57298W        W29024  22.197   7.965  12.372
57299W        W29025   0.795  29.509   0.940
57300W        W29026  37.503  16.300  11.203
57301W        W29027  23.113  19.764   0.427
57302W        W29028  43.317  43.268  13.771
57303W        W29029  13.675   8.676  14.804
57304W        W29030   6.055  13.226  12.994
57305W        W29031  19.143  15.538   4.271
57306W        W29032  32.772  10.200   0.453
57307W        W29033   3.571  28.076  14.396
57308W        W29034  12.832  15.042  13.084
57309W        W29035  19.300  28.969   1.837
57310W        W29036  39.284  27.015  11.496
57311W        W29037   5.175  17.557  11.903
57312W        W29038  35.985  15.959  14.809
57313W        W29039  24.504  22.578  14.492
57314W        W29040  26.458  32.453   2.011
57315W        W29041  22.427  27.537  14.897
57316W        W29042  38.766   0.830  13.813
57317W        W29043  22.248  13.283  12.967
57318W        W29044  38.858  20.125  12.197
57319W        W29045  31.744   4.409   0.991
57320W        W29046   4.996  16.393   4.591
57321W        W29047  20.358  15.556  14.465
57322W        W29048  37.594  19.049   1.809
57323W        W29049   8.359  25.203   2.382
57324W        W29050   7.480  26.094   1.972
57325W        W29051   8.378   5.785  12.495
57326W        W29052   5.144  13.405   2.583
57327W        W29053  35.315  27.146   2.751
57328W        W29054  13.113  10.224  10.628
57329W        W29055  12.481   7.805  13.372
57330W        W29056  19.543  17.275  11.648
57331W        W29057  22.723  35.367  14.491
57332W        W29058  26.583  38.393  10.436
57333W        W29059  16.202  14.736  10.533
57334W        W29060  15.417  13.837   2.660
57335W        W29061  20.263  26.953   0.016
57336W        W29062  38.660  42.025   1.894
57337W        W29063  17.107  44.478  10.704
57338W        W29064  20.515   7.943   4.182
57339W        W29065   8.312  27.538  13.431
57340W        W29066   9.962  42.589   0.382
57341W        W29067  18.539  21.664  13.062
57342W        W29068   5.879  10.415   3.128
57343W        W29069  44.757   4.787  11.984
57344W        W29070  38.052  28.254   4.092
57345W        W29071  22.645  21.119  14.961
57346W        W29072  22.527  14.177  13.311
57347W        W29073  18.145  12.746   4.486
57348W        W29074  24.582  13.107   2.268
57349W        W29075   6.282  31.602   3.361
57350W        W29076  18.772  17.622  11.781
57351W        W29077  10.307  11.321  10.670
57352W        W29078  15.073  17.049  13.855
57353W        W29079  33.012  13.282  11.981
57354W        W29080  37.885  10.322  12.122
57355W        W29081   4.958  16.525   2.879
57356W        W29082  12.272  22.685   3.331
57357W        W29083  13.378  20.361  11.082
57358W        W29084  44.825  21.098  10.081
57359W        W29085  27.685  17.185  11.113
57360W        W29086  24.194   0.440   3.755
57361W        W29087  21.526  33.867   4.612
57362W        W29088  36.061  16.666  11.995
57363W        W29089  35.557  20.835  14.926
57364W        W29090  29.683  27.068  13.004
57365W        W29091   9.899   2.055   1.669
57366W        W29092  29.923   6.693   0.558
57367W        W29093  23.814  31.895   1.870
57368W        W29094  19.078   9.859   0.403
57369W        W29095  23.066  34.159  10.862
57370W        W29096  28.464  21.710  13.013
57371W        W29097  32.337   1.814   4.171
57372W        W29098  23.334  32.584  12.805
57373W        W29099  38.042  18.536   0.274
57374W        W29100  10.710   4.407  10.652
57375W        W29101  30.627  29.702  12.089
57376W        W29102  10.800  18.990  14.327
57377W        W29103  20.019  16.847   3.767
57378W        W29104  42.788  41.843  11.609
57379W        W29105  38.150  43.312   4.235
57380W        W29106   5.629  26.723  13.098
57381W        W29107  21.476  12.106  10.205
57382W        W29108  15.191  35.380   2.661
57383W        W29109  18.844   4.504   2.312
57384W        W29110  37.369  30.900  12.660
57385W        W29111  10.861  34.565   2.725
57386W        W29112  29.883  35.734  11.369
57387W        W29113   2.830  44.609  13.843
57388W        W29114  42.198   8.908   0.991
57389W        W29115  22.791   4.877   0.454
57390W        W29116  22.159   2.694   3.828
57391W        W29117   7.931   1.023   4.965
57392W        W29118   6.826   3.876   1.316
57393W        W29119  44.408  44.243  11.996
57394W        W29120   2.925  39.140  12.324
57395W        W29121  21.345   0.768   0.975
57396W        W29122  30.632  41.322   0.883
57397W        W29123   6.433  19.160  12.452
57398W        W29124  14.313  41.985  12.522
57399W        W29125   8.397  11.861   0.208
57400W        W29126  38.486  10.290   2.445
57401W        W29127  10.945  16.206  11.439
57402W        W29128  38.230  24.986  11.103
57403W        W29129   0.523  32.030  10.706
57404W        W29130   8.939  17.361  14.499
57405W        W29131  12.140  18.301  13.471
57406W        W29132   6.885  18.784  12.883
57407W        W29133  19.036   0.754   0.790
57408W        W29134   7.085  35.907  10.577
57409W        W29135  44.996  12.412  14.756
57410W        W29136   3.312  17.856  11.635
57411W        W29137  16.320  37.177  13.828
57412W        W29138  28.162  32.516  12.360
57413W        W29139  39.999   9.184   0.431
57414W        W29140  43.446  19.178   3.709
57415W        W29141  38.958  26.085  10.852
57416W        W29142  44.040  21.679  14.761
57417W        W29143  34.206   6.926   1.521
57418W        W29144  26.913  26.693   2.169
57419W        W29145  43.557   1.911   2.658
57420W        W29146  36.363   4.925   0.441
57421W        W29147  39.549  16.203  14.287
57422W        W29148  28.408  41.965  12.607
57423W        W29149  15.925  29.994   4.132
57424W        W29150  43.084  42.414  10.998
57425W        W29151  27.167  13.444  11.221
57426W        W29152  30.809  21.439   1.774
57427W        W29153  10.065  40.765   2.141
57428W        W29154  25.766  13.628   2.245
57429W        W29155  27.127  18.214  10.428
57430W        W29156  33.526  21.461   4.742
57431W        W29157  31.481  17.822   2.261
57432W        W29158  30.606  37.167  10.757
57433W        W29159  29.407  29.482  13.498
57434W        W29160  35.991  10.745   4.894
57435W        W29161  29.612  34.892   4.943
57436W        W29162  24.889  28.490   1.261
57437W        W29163  16.770  31.356  12.455
57438W        W29164  22.718  18.251  11.666
57439W        W29165  35.980   2.867   1.037
57440W        W29166  32.399  28.003  14.798
57441W        W29167  16.694  28.523  11.164
57442W        W29168   1.159  41.985   3.257
57443W        W29169  40.833  32.902   2.598
57444W        W29170  29.680  14.188   1.288
57445W        W29171  44.926  15.872   3.252
57446W        W29172  23.525   1.997   4.002
57447W        W29173   1.357  41.201  11.926
57448W        W29174   6.284   6.978   2.978
57449W        W29175  19.570   1.812   0.793
57450W        W29176  14.267  40.556  11.038
57451W        W29177   2.956   9.767   4.696
57452W        W29178  35.735  44.255  11.158
57453W        W29179   3.026   6.245   2.409
57454W        W29180  20.806  42.744   0.731
57455W        W29181  36.687  32.356   0.706
57456W        W29182  14.128  21.540   4.643
57457W        W29183  22.145  29.777   2.262
57458W        W29184   8.327  32.351  13.861
57459W        W29185  20.083  30.072   3.566
57460W        W29186  13.389  21.249   4.011
57461W        W29187   0.858  16.357  14.686
57462W        W29188   5.992   8.748   4.672
57463W        W29189  37.345  44.521   3.679
57464W        W29190  23.249  23.118  10.737
57465W        W29191  17.796  13.314   0.855
57466W        W29192  11.145  12.568  10.507
57467W        W29193  44.832   9.888   1.256
57468W        W29194  20.319  11.498  11.346
57469W        W29195  43.469  34.411   4.062
57470W        W29196  40.360  29.999   0.711
57471W        W29197  44.530  28.184   2.401
57472W        W29198  19.476   3.113  11.181
57473W        W29199  20.847   2.221   3.119
57474W        W29200  41.724  41.283   2.205
57475W        W29201   4.803  35.586  11.000
57476W        W29202   1.500  22.515  11.074
57477W        W29203  28.046  20.990   2.323
57478W        W29204  23.608  32.035   4.483
57479W        W29205   5.476  34.893  14.203
57480W        W29206   1.417  41.366  14.490
57481W        W29207  29.407   5.934   0.218
57482W        W29208  27.211  39.869  12.420
57483W        W29209   3.734   5.039   0.973
57484W        W29210  36.508   8.659   0.215
57485W        W29211   7.330  36.338  10.804
57486W        W29212  15.661  43.908   4.285
57487W        W29213  16.114  17.631  13.262
57488W        W29214   0.396   0.027  12.489
57489W        W29215  16.268   7.080  13.545
57490W        W29216  39.064  40.300   3.786
57491W        W29217  40.981  26.590  14.040
57492W        W29218  37.589  25.723   1.316
57493W        W29219   6.699  42.554  11.127
57494W        W29220  14.221   2.821  11.181
57495W        W29221  21.595  31.011  12.404
57496W        W29222  24.899   3.644  14.510
57497W        W29223  37.965  43.382   3.755
57498W        W29224  32.609  26.973  11.889
57499W        W29225  44.761  31.025  14.814
57500W        W29226  39.939  16.323   4.027
57501W        W29227   6.149  20.311   4.180
57502W        W29228  23.925  37.341   0.988
57503W        W29229  13.978  13.358  14.025
57504W        W29230  15.993  39.900   2.225
57505W        W29231  10.602  20.386   1.733
57506W        W29232  31.962  12.255  13.909
57507W        W29233  11.972  12.868  14.892
57508W        W29234  14.228  17.537  10.579
57509W        W29235  23.328   9.637   0.773
57510W        W29236  30.186  12.404   2.425
57511W        W29237  17.313  16.731   1.435
57512W        W29238  26.145  39.518   3.397
57513W        W29239  35.676  38.618   0.885
57514W        W29240  23.562  40.063   1.803
57515W        W29241  21.755  42.318   1.706
57516W        W29242   9.759  30.485   1.452
57517W        W29243  22.078  30.817  14.392
57518W        W29244  43.969  21.689   2.455
57519W        W29245  39.785   2.805   0.879
57520W        W29246  20.265   9.869  14.387
57521W        W29247  16.318  37.984   0.827
57522W        W29248  12.659  34.290   1.895
57523W        W29249  23.968  12.441   2.981
57524W        W29250  24.265  23.409   1.772
57525W        W29251  28.959  19.593   2.803
57526W        W29252  16.856  35.447   1.479
57527W        W29253  15.781  24.637   0.344
57528W        W29254  36.952  23.759  11.675
57529W        W29255   7.426  16.131   1.424
57530W        W29256  32.431  24.853   4.732
57531W        W29257  23.113  28.590  13.813
57532W        W29258  35.655  30.413  12.499
57533W        W29259  35.127   9.296  13.485
57534W        W29260  30.863  44.738  12.060
57535W        W29261  10.420  25.293   1.869
57536W        W29262  19.794  14.555   2.149
57537W        W29263  24.571  15.846  12.506
57538W        W29264  22.614  11.065   4.124
57539W        W29265  23.140   8.252  14.041
57540W        W29266  42.364  24.172  13.789
57541W        W29267  16.355  33.201  11.544
57542W        W29268  10.750  17.921   3.296
57543W        W29269   4.675  34.877   5.150
57544W        W29270  42.846  43.555  12.020
57545W        W29271  26.743  33.059  12.943
57546W        W29272  29.943   1.712  14.571
57547W        W29273  34.097  26.142  12.522
57548W        W29274  37.079  25.507  13.374
57549W        W29275  30.206  16.915  11.021
57550W        W29276   4.226  21.236   3.069
57551W        W29277  28.148  33.412   4.100
57552W        W29278   9.912   8.286   2.143
57553W        W29279   8.691  12.599  10.747
57554W        W29280  37.451  36.307   4.767
57555W        W29281  15.187   1.450  13.919
57556W        W29282  25.109   5.234   4.126
57557W        W29283   6.683  20.115   1.327
57558W        W29284  12.092  28.223  11.160
57559W        W29285  19.149  34.884   1.318
57560W        W29286  18.059  42.361   2.009
57561W        W29287  13.152  35.831  10.746
57562W        W29288  23.197  19.578   2.817
57563W        W29289   6.248  28.460   0.974
57564W        W29290  31.431  43.917  14.898
57565W        W29291   6.107  35.786  10.730
57566W        W29292  40.884  40.389  14.313
57567W        W29293   1.677  10.351  10.699
57568W        W29294  38.812   5.114   0.823
57569W        W29295  32.186  20.251   0.326
57570W        W29296  43.837  39.276   1.312
57571W        W29297   0.215  30.193  11.995
57572W        W29298  36.544  38.859   4.585
57573W        W29299  40.582  16.281  11.276
57574W        W29300  41.958   1.792   3.630
57575W        W29301   5.506  36.013  12.947
57576W        W29302   5.678   4.699  12.556
57577W        W29303  27.742  25.025   1.880
57578W        W29304  31.883  23.631   3.349
57579W        W29305  32.007  33.607   0.496
57580W        W29306  37.316  30.666  14.446
57581W        W29307   0.487  31.435   1.339
57582W        W29308   7.271  11.641  11.652
57583W        W29309   2.244  20.053  11.157
57584W        W29310   1.743  44.982  12.300
57585W        W29311  24.951  32.403   0.466
57586W        W29312  40.409  38.218  11.528
57587W        W29313  41.979  36.904  13.404
57588W        W29314  18.384  19.669   1.263
57589W        W29315  36.301  19.476   4.145
57590W        W29316  25.547   7.598   2.899
57591W        W29317  30.064  32.869   0.209
57592W        W29318  34.670  20.383   1.481
57593W        W29319   4.218  28.455  13.266
57594W        W29320  13.372   0.816  11.973
57595W        W29321  22.101  13.206   3.956
57596W        W29322   9.588  21.494   1.046
57597W        W29323  23.001  24.020   0.665
57598W        W29324  16.233   0.226  11.151
57599W        W29325   6.864  43.761   4.650
57600W        W29326  32.050  29.178   2.721
57601W        W29327  36.315  22.553   2.187
57602W        W29328  28.139  38.920  12.050
57603W        W29329  44.338   9.756   3.072
57604W        W29330  20.189  17.310   0.300
57605W        W29331  16.784  16.575  13.429
57606W        W29332   1.130  13.992  11.136
57607W        W29333  13.542  28.085  12.983
57608W        W29334  18.588  20.543  10.663
57609W        W29335  21.245   2.773  11.652
57610W        W29336  42.547   2.758  14.961
57611W        W29337   4.547  25.462   0.834
57612W        W29338   3.392  39.132   1.043
57613W        W29339   4.215  20.697   1.202
57614W        W29340  41.329  41.857  13.420
57615W        W29341  15.513   9.857  11.190
57616W        W29342  21.493  29.130   0.812
57617W        W29343  18.703  39.762  11.118
57618W        W29344  35.045  11.057   0.933
57619W        W29345  20.198   0.360   2.057
57620W        W29346   3.343  20.978   3.217
57621W        W29347  41.954  27.721   3.236
57622W        W29348   0.984  27.066  12.853
57623W        W29349  37.447  30.125  10.983
57624W        W29350  44.924  39.973  12.129
57625W        W29351  11.690  29.372  11.027
57626W        W29352  19.118  21.165  13.047
57627W        W29353  14.203  39.832  12.392
57628W        W29354  19.779  25.527  12.783
57629W        W29355  15.265  23.455  11.150
57630W        W29356  11.628  19.242  11.105
57631W        W29357   2.220  43.739  13.989
57632W        W29358  29.426  34.010  11.628
57633W        W29359  11.130  34.456  10.529
57634W        W29360  14.801  29.887  13.902
57635W        W29361  33.961  40.560  14.446
57636W        W29362  15.316   7.696   4.607
57637W        W29363  43.857  17.874  11.648
57638W        W29364  12.120   3.685   3.605
57639W        W29365  24.102  10.730  14.921
57640W        W29366  34.502  35.426   4.724
57641W        W29367  27.622  35.087   0.075
57642W        W29368  17.585  15.288   4.150
57643W        W29369  40.812  43.761   2.155
57644W        W29370   5.863  14.237  14.539
57645W        W29371   0.021  30.019  14.838
57646W        W29372  27.986  14.280  12.265
57647W        W29373  13.227  24.817   0.779
57648W        W29374   3.173  19.643   3.630
57649W        W29375  28.624  30.992  10.661
57650W        W29376   1.162  40.756   4.581
57651W        W29377   2.929  32.158  11.239
57652W        W29378  29.809  28.154  13.554
57653W        W29379  18.296  33.837   3.383
57654W        W29380  10.323  13.814   0.829
57655W        W29381  24.923  10.286  10.209
57656W        W29382  26.562  32.939   2.223
57657W        W29383  30.595  11.694  10.690
57658W        W29384  17.685   1.772  11.454
57659W        W29385  15.383  33.277  14.465
57660W        W29386  10.894  12.855  14.888
57661W        W29387  33.952  28.646  13.648
57662W        W29388  42.294  20.539  13.519
57663W        W29389  15.861  35.897   0.871
57664W        W29390  29.929  28.861  12.641
57665W        W29391   7.051  19.217  10.755
57666W        W29392  11.818  27.039   0.538
57667W        W29393  18.897  35.783   0.295
57668W        W29394   2.180  37.006   3.286
57669W        W29395  21.545  37.452   0.291
57670W        W29396   6.782   8.695  11.726
57671W        W29397  27.506   2.883  10.787
57672W        W29398  44.282   2.925   2.752
57673W        W29399  13.289  18.692  12.236
57674W        W29400   0.976  44.829   0.540
57675W        W29401  43.283  14.283  13.601
57676W        W29402  42.547  40.065   4.078
57677W        W29403  35.514  13.224  12.098
57678W        W29404  23.001  19.061   1.602
57679W        W29405  39.400  18.036  14.286
57680W        W29406  36.245  38.455  12.986
57681W        W29407  38.899   3.300   2.635
57682W        W29408  15.347  32.024   3.047
57683W        W29409  31.451   4.587   4.718
57684W        W29410  40.438  20.123   0.210
57685W        W29411  20.077  20.593   3.398
57686W        W29412  31.421  25.957  14.857
57687W        W29413  26.039   2.251   4.150
57688W        W29414   4.278  11.650  10.847
57689W        W29415  23.060  23.326   4.523
57690W        W29416  13.847  19.676  10.430
57691W        W29417   2.356  30.716  14.607
57692W        W29418   2.217  40.296   1.029
57693W        W29419  14.205  44.675   3.267
57694W        W29420   0.371  25.155  14.975
57695W        W29421  43.446   9.907  13.330
57696W        W29422  23.985   7.069   3.728
57697W        W29423  11.901  20.223  11.199
57698W        W29424  18.268  31.341  13.514
57699W        W29425  18.364  36.065   0.825
57700W        W29426  34.983  39.410   3.655
57701W        W29427  43.647   7.122  12.155
57702W        W29428   2.499   7.884   0.452
57703W        W29429  37.858  20.052   1.851
57704W        W29430  43.286  26.050   2.169
57705W        W29431  36.017   9.279  14.306
57706W        W29432  20.343  26.073   3.257
57707W        W29433  43.534   8.909  14.821
57708W        W29434   0.314  31.525   1.815
57709W        W29435  11.274   7.978  11.419
57710W        W29436  27.529   4.616  14.440
57711W        W29437  30.673  18.032  12.949
57712W        W29438  29.513  23.497  10.828
57713W        W29439  44.754  41.098   4.582
57714W        W29440  23.839  18.566  12.960
57715W        W29441  39.962  11.554  12.117
57716W        W29442   0.807  37.788  13.383
57717W        W29443   7.330  21.690  11.514
57718W        W29444  22.179   1.930   1.703
57719W        W29445  23.146  42.229  12.560
57720W        W29446  39.138   4.908   4.219
57721W        W29447  34.487  26.541   0.741
57722W        W29448   3.844  38.705   2.544
57723W        W29449  33.881  34.428  13.701
57724W        W29450  36.422  23.077   1.439
57725W        W29451  37.618  42.445  11.912
57726W        W29452  19.283  25.492   0.856
57727W        W29453   1.703  44.306   2.247
57728W        W29454  29.967   5.322   2.157
57729W        W29455  36.304  21.020  14.531
57730W        W29456  23.045  13.279  12.521
57731W        W29457  27.434   3.865  11.622
57732W        W29458  14.748  25.135   3.706
57733W        W29459  15.827  35.569  14.571
57734W        W29460  42.919  25.692   3.353
57735W        W29461  15.583   3.797   2.166
57736W        W29462   4.918   9.645  13.523
57737W        W29463  21.278  21.246  14.826
57738W        W29464  20.218   7.398  12.127
57739W        W29465  36.287   0.365  14.500
57740W        W29466  18.388  13.911   3.578
57741W        W29467  41.270  21.563  11.167
57742W        W29468   7.705  36.121  14.961
57743W        W29469  26.757   2.428   3.383
57744W        W29470  39.013  16.039  12.594
57745W        W29471  16.260   6.327   0.424
57746W        W29472  36.329  13.223   1.222
57747W        W29473   3.702  20.516  14.928
57748W        W29474  27.754  10.062  14.525
57749W        W29475  36.543  28.086  10.373
57750W        W29476  43.863  14.576  12.140
57751W        W29477  13.159   3.385   1.191
57752W        W29478  23.802  44.419  13.938
57753W        W29479  34.330   8.723   1.110
57754W        W29480  36.925  34.366   0.712
57755W        W29481  19.701  13.202   2.220
57756W        W29482  41.339   3.260  13.578
57757W        W29483  42.377  28.793   3.702
57758W        W29484   3.781  15.353   4.238
57759W        W29485   0.153  25.553  12.878
57760W        W29486  44.089  27.000  12.982
57761W        W29487   1.396  43.770  11.996
57762W        W29488   5.820  31.042   0.407
57763W        W29489   7.698   0.461   4.593
57764W        W29490   8.625   4.598   9.959
57765W        W29491  29.916  42.263   1.759
57766W        W29492  17.738   2.804  11.451
57767W        W29493  30.145   0.391  12.231
57768W        W29494  36.320  37.416   3.723
57769W        W29495  17.997  29.087  11.981
57770W        W29496  27.568  44.698  10.924
57771W        W29497   2.996  36.005   2.568
57772W        W29498  31.855   1.268   4.574
57773W        W29499  19.079   9.204   2.165
57774W        W29500   5.664   4.302  12.938
57775W        W29501  17.672   8.877   4.803
57776W        W29502   1.139   2.239  10.693
57777W        W29503  12.049  19.294   2.796
57778W        W29504  16.574   1.441   0.547
57779W        W29505  10.014  29.327   0.191
57780W        W29506  38.015  11.712   4.493
57781W        W29507  32.703  18.732   1.922
57782W        W29508  11.698   4.192  14.929
57783W        W29509   0.849  39.744   2.827
57784W        W29510   9.569  25.291   5.332
57785W        W29511  38.474  29.757   4.180
57786W        W29512  34.682  25.479  14.428
57787W        W29513  22.996  11.090  14.487
57788W        W29514  17.081  17.722   1.133
57789W        W29515  30.707  32.444   1.080
57790W        W29516  21.472  32.779  13.516
57791W        W29517  22.466  34.452   0.771
57792W        W29518  16.363  18.225   1.254
57793W        W29519   3.667  39.289  13.540
57794W        W29520  37.806  33.464   1.262
57795W        W29521   4.987   0.739   0.385
57796W        W29522  33.489  35.447   4.968
57797W        W29523  26.000  28.859   0.441
57798W        W29524  28.654  27.461   1.431
57799W        W29525  36.448  21.112  11.943
57800W        W29526   5.732  28.460  11.518
57801W        W29527  15.675  30.117  11.749
57802W        W29528  39.879   8.692  12.502
57803W        W29529   8.328  24.479   4.180
57804W        W29530  20.754   6.819   0.254
57805W        W29531  27.969   9.320   1.133
57806W        W29532  24.043  21.696  11.586
57807W        W29533  25.018  17.721  13.158
57808W        W29534  37.543  36.802   5.043
57809W        W29535  21.209  37.457  11.778
57810W        W29536   5.865  38.443  10.464
57811W        W29537  37.628  22.274  11.810
57812W        W29538  33.460  13.212  13.651
57813W        W29539  42.010  36.471  13.688
57814W        W29540  35.159  11.101   1.969
57815W        W29541  30.089  28.192   0.425
57816W        W29542  23.571   1.967  14.998
57817W        W29543  18.611  12.736   5.373
57818W        W29544  33.092  11.226   3.191
57819W        W29545  39.855  38.640  12.921
57820W        W29546   7.428  24.584   0.476
57821W        W29547  44.079  44.471  13.152
57822W        W29548   5.177  40.792   1.756
57823W        W29549  39.973  44.736   3.215
57824W        W29550  12.199   8.499   0.978
57825W        W29551   6.192   4.624   5.134
57826W        W29552   6.103   2.731  13.901
57827W        W29553  43.174  30.598  14.968
57828W        W29554  42.306  41.433  12.706
57829W        W29555  23.142   5.851   4.837
57830W        W29556  26.165   5.428   1.994
57831W        W29557  37.821  22.651   4.265
57832W        W29558  40.256  21.326   4.099
57833W        W29559  13.975  11.670  12.061
57834W        W29560  21.810   0.516   0.486
57835W        W29561  26.019  24.719   2.830
57836W        W29562  24.219  24.228  14.512
57837W        W29563  17.617   9.718   4.906
57838W        W29564   6.079  40.103  12.724
57839W        W29565  17.594  13.619   1.763
57840W        W29566  43.988  44.842   3.657
57841W        W29567  16.619   6.394   1.734
57842W        W29568  15.672   2.275  14.007
57843W        W29569  27.734  35.329   1.726
57844W        W29570  28.564  36.404  13.005
57845W        W29571  43.267  15.717   2.123
57846W        W29572  16.879  18.196   1.234
57847W        W29573  26.320  40.268  11.063
57848W        W29574  25.031  32.618   2.006
57849W        W29575  18.743   4.337   3.656
57850W        W29576  15.111  30.460   2.701
57851W        W29577  24.156   3.588  13.408
57852W        W29578   2.174  35.346   0.323
57853W        W29579  24.553   7.134  10.679
57854W        W29580  11.688  44.861  14.787
57855W        W29581   6.440  34.361  11.510
57856W        W29582  12.135   7.615  13.011
57857W        W29583   6.964  29.777   0.904
57858W        W29584  17.989  26.031  13.875
57859W        W29585  24.209  22.675  12.445
57860W        W29586  11.182  12.223  11.739
57861W        W29587  28.153  10.378   2.350
57862W        W29588  17.121  23.615   4.443
57863W        W29589  23.178  13.370  14.979
57864W        W29590  30.742   6.129  14.834
57865W        W29591  42.611   4.223  14.013
57866W        W29592  23.072  36.102  14.765
57867W        W29593   6.164  23.531  10.300
57868W        W29594  28.023  37.787  10.777
57869W        W29595  38.005  21.248   1.245
57870W        W29596  43.900  19.743  14.072
57871W        W29597   7.965  43.097  11.187
57872W        W29598  19.330   1.776  14.876
57873W        W29599  25.464  20.831  11.984
57874W        W29600  33.677  44.297  13.688
57875W        W29601   1.896  38.719  12.325
57876W        W29602  32.259  41.944   3.752
57877W        W29603  44.969  39.544   1.813
57878W        W29604  12.663   6.387  14.423
57879W        W29605  38.130  17.107  11.643
57880W        W29606  15.028  33.525   4.621
57881W        W29607  22.791   0.390  14.077
57882W        W29608   7.914  28.932  13.408
57883W        W29609  15.869  36.444  10.478
57884W        W29610   7.779  20.598  11.460
57885W        W29611  24.510  16.520   4.938
57886W        W29612  43.608   4.858  11.131
57887W        W29613   8.405  42.794  11.873
57888W        W29614  13.548  29.439  12.206
57889W        W29615  19.092  23.728  12.125
57890W        W29616  16.836  30.720   1.427
57891W        W29617  26.822  14.595  11.677
57892W        W29618  22.102   3.789  10.326
57893W        W29619  13.953  31.650  14.283
57894W        W29620   9.319  38.798   0.748
57895W        W29621  38.289  13.488   4.243
57896W        W29622  28.610  37.923   4.127
57897W        W29623  32.014   1.784  10.763
57898W        W29624  36.693  34.142   2.582
57899W        W29625  10.467   5.410  10.770
57900W        W29626   2.228  17.804  10.419
57901W        W29627  27.488   0.267   3.133
57902W        W29628   2.941  27.985   3.237
57903W        W29629  36.912   6.341   0.672
57904W        W29630  14.292  32.563   1.707
57905W        W29631  19.457  27.042  10.976
57906W        W29632  18.772  15.302   4.552
57907W        W29633  18.155  17.350   4.294
57908W        W29634  40.511  39.263  12.394
57909W        W29635  37.482   4.547   1.873
57910W        W29636  12.663  16.204  12.481
57911W        W29637   6.727  37.676  11.017
57912W        W29638  38.780  25.033   2.422
57913W        W29639  24.259  23.281   2.625
57914W        W29640  29.054  12.553  13.850
57915W        W29641  16.883  38.100  12.903
57916W        W29642  22.659  43.433  12.925
57917W        W29643  24.460  42.280   3.300
57918W        W29644  43.548  30.731  14.055
57919W        W29645  24.153  30.791  14.497
57920W        W29646  30.889  22.921   2.707
57921W        W29647  10.723  11.925   3.712
57922W        W29648   4.408  43.477  10.981
57923W        W29649  31.845  11.280   1.962
57924W        W29650  33.959  37.412   4.077
57925W        W29651  42.394  35.318   3.221
57926W        W29652  25.545  38.559  12.422
57927W        W29653  19.485  40.491   4.130
57928W        W29654  16.340   4.769   0.824
57929W        W29655  14.257  25.540  12.996
57930W        W29656  12.215  24.658  14.244
57931W        W29657  36.401  27.772   4.155
57932W        W29658  32.642  27.930   1.370
57933W        W29659   3.828  29.699   4.325
57934W        W29660  29.185   0.771  14.502
57935W        W29661  33.887  41.534  10.862
57936W        W29662  14.494  39.498   0.939
57937W        W29663  42.437  32.303  11.925
57938W        W29664  25.176  23.920  12.964
57939W        W29665  14.653  40.033   0.836
57940W        W29666  38.857   9.891   2.683
57941W        W29667  29.893  16.717   4.908
57942W        W29668  42.836  15.229  14.352
57943W        W29669   8.254  18.246   3.618
57944W        W29670  41.816  13.453   2.214
57945W        W29671  36.897   6.780  12.659
57946W        W29672  39.359  33.024  12.812
57947W        W29673  40.841  16.622   0.312
57948W        W29674  27.539  21.507  10.737
57949W        W29675  37.485  34.848  12.496
57950W        W29676  43.815   1.892   1.666
57951W        W29677  36.956  19.116  10.499
57952W        W29678  26.960  24.553   1.821
57953W        W29679  39.089  13.783  13.178
57954W        W29680   8.153   7.664   4.507
57955W        W29681   7.770  18.240  14.603
57956W        W29682   2.332  19.633   0.863
57957W        W29683   8.870   0.862   4.544
57958W        W29684  38.639  40.300   4.428
57959W        W29685  26.291  14.155   0.898
57960W        W29686   9.619  13.360  11.618
57961W        W29687  43.146  10.009   5.071
57962W        W29688  34.244  28.586  11.705
57963W        W29689  42.810  22.586   2.293
57964W        W29690  28.447  31.507  11.285
57965W        W29691  27.310  14.836   4.138
57966W        W29692  19.389   5.550   2.769
57967W        W29693  28.552  37.766   3.328
57968W        W29694  36.068  30.393  11.224
57969W        W29695  34.198  29.548   3.269
57970W        W29696  18.540  16.618   2.706
57971W        W29697   5.795  19.625   4.086
57972W        W29698  35.931  10.483  13.387
57973W        W29699  41.089  44.758   0.815
57974W        W29700  23.808  12.328   2.480
57975W        W29701  21.020  11.942   3.738
57976W        W29702  38.570   5.328  13.631
57977W        W29703  14.094  16.830   3.759
57978W        W29704  18.123  16.510   3.108
57979W        W29705  32.860  17.796   0.969
57980W        W29706  29.678  26.964  13.925
57981W        W29707  20.644  30.884  14.518
57982W        W29708  12.931  31.574   2.741
57983W        W29709  28.050  38.063   4.202
57984W        W29710  19.325  10.490  11.806
57985W        W29711  10.711  28.199  12.394
57986W        W29712  12.795  30.005  14.069
57987W        W29713   1.085  31.740   0.498
57988W        W29714   4.373  41.903   3.141
57989W        W29715  17.064  41.258  10.246
57990W        W29716  18.770  19.243  11.070
57991W        W29717  10.252  19.582   2.537
57992W        W29718  14.323   8.136  14.848
57993W        W29719  19.589  18.122   3.661
57994W        W29720  40.541  41.189  13.452
57995W        W29721  33.427  25.649  11.148
57996W        W29722  13.224  33.194   5.057
57997W        W29723  28.180  29.899   0.752
57998W        W29724  39.027   6.885  10.444
57999W        W29725  11.073  12.227  12.246
58000W        W29726  15.059  22.307  14.929
58001W        W29727  21.022  38.364  14.640
58002W        W29728  12.823   3.380   4.718
58003W        W29729   9.838   8.695  13.083
58004W        W29730  31.394  41.343   0.373
58005W        W29731  16.648  18.843   4.644
58006W        W29732   0.370   0.505   0.342
58007W        W29733  38.881   1.590  11.516
58008W        W29734  24.939  16.636   2.289
58009W        W29735   9.211  26.681  13.468
58010W        W29736  38.314   8.262  11.047
58011W        W29737   0.553  19.620   1.479
58012W        W29738  34.595  10.823   0.860
58013W        W29739  40.996  15.890   1.901
58014W        W29740  34.423   1.795   3.314
58015W        W29741   5.879  28.389   1.389
58016W        W29742  21.981  10.640  11.400
58017W        W29743  20.097  23.250  14.248
58018W        W29744   6.129  32.908  11.565
58019W        W29745  20.082  19.174   0.815
58020W        W29746  37.818  27.691   2.872
58021W        W29747   6.808  44.826  11.827
58022W        W29748  16.904  44.424  13.023
58023W        W29749  37.328  22.451  14.753
58024W        W29750  40.303  44.697   3.650
58025W        W29751  20.284  42.384  11.029
58026W        W29752  30.030  15.791   3.865
58027W        W29753  17.241  17.596   4.597
58028W        W29754  22.561  22.566  13.856
58029W        W29755  35.064   5.123  13.156
58030W        W29756   3.321  33.007   2.543
58031W        W29757  38.039  44.353  13.418
58032W        W29758  23.726   1.498   2.803
58033W        W29759   2.161  42.855  13.748
58034W        W29760   7.106  12.417  11.149
58035W        W29761  33.460  42.135   2.702
58036W        W29762  25.609  43.001  12.942
58037W        W29763   1.652   0.259  11.003
58038W        W29764  31.566  44.399   3.597
58039W        W29765  42.801   8.440   1.289
58040W        W29766   2.921  26.732   2.902
58041W        W29767   5.334  25.131   1.462
58042W        W29768   8.026  30.543  12.580
58043W        W29769  30.110  10.153  11.588
58044W        W29770  36.968   8.300  12.138
58045W        W29771  32.140  41.502   9.979
58046W        W29772  20.840  43.771  11.464
58047W        W29773  32.759   5.183   2.702
58048W        W29774  15.841  18.605  11.456
58049W        W29775  18.086  11.763  12.499
58050W        W29776  18.345  14.097   1.584
58051W        W29777   4.337  42.829   3.316
58052W        W29778   1.833  30.412   1.254
58053W        W29779  36.628   8.664  13.738
58054W        W29780  33.586   4.340   2.388
58055W        W29781  13.668   5.572   0.833
58056W        W29782   0.839  36.413   2.947
58057W        W29783  18.260  30.087  12.132
58058W        W29784   8.666  22.868  12.926
58059W        W29785   3.644   8.580   3.350
58060W        W29786  42.615   5.804   4.541
58061W        W29787  24.385  32.432   1.381
58062W        W29788  19.452  35.433   2.767
58063W        W29789   6.691  40.446  13.702
58064W        W29790   2.482  16.638   4.656
58065W        W29791  28.084  26.471   0.421
58066W        W29792  42.300  34.069  10.941
58067W        W29793  13.090   7.827   2.347
58068W        W29794  38.145  21.730  14.236
58069W        W29795  14.178   5.579   3.251
58070W        W29796  39.893  41.763  13.359
58071W        W29797  29.640  40.826  14.945
58072W        W29798  12.924  27.670  13.247
58073W        W29799   7.901  18.802  12.032
58074W        W29800  36.414   5.385  14.539
58075W        W29801  33.098  15.105   4.745
58076W        W29802   5.469  31.547   1.821
58077W        W29803  30.934   2.459  14.796
58078W        W29804  25.616  44.777   0.033
58079W        W29805   6.944  37.840  13.226
58080W        W29806  23.712  31.430  14.053
58081W        W29807  39.444  24.115  10.391
58082W        W29808  25.740   1.046  11.109
58083W        W29809  27.017  32.623  10.847
58084W        W29810   8.891  32.973   2.771
58085W        W29811  38.167  42.540  11.949
58086W        W29812  27.593  15.531  12.793
58087W        W29813  31.969   9.746   2.709
58088W        W29814  30.940   6.353  10.155
58089W        W29815  11.599  35.527   4.938
58090W        W29816  12.804  10.792   3.515
58091W        W29817   1.318  11.184   1.851
58092W        W29818   4.167  29.868  12.392
58093W        W29819  26.529   9.079   2.750
58094W        W29820  18.242  31.956  14.846
58095W        W29821  31.255  26.396  10.668
58096W        W29822  35.359  44.387   3.351
58097W        W29823  32.262   7.912  12.596
58098W        W29824   4.855  20.096  13.465
58099W        W29825  33.986  29.067   4.498
58100W        W29826  10.514  40.076   2.783
58101W        W29827   9.364  40.336  10.610
58102W        W29828  36.469  24.605   0.446
58103W        W29829  26.395  11.170  10.746
58104W        W29830  24.495  16.498  13.511
58105W        W29831  44.538  12.668   4.250
58106W        W29832  41.803  16.248  14.816
58107W        W29833  14.772  37.056   4.266
58108W        W29834  32.218  17.193   1.591
58109W        W29835   8.221   0.539   0.394
58110W        W29836  41.431  32.428  14.045
58111W        W29837  42.014  29.968  11.176
58112W        W29838   8.196   9.772  11.096
58113W        W29839  20.790  41.316   4.802
58114W        W29840  20.986  40.213   4.225
58115W        W29841   8.782  23.185   1.628
58116W        W29842  22.398  11.161   0.394
58117W        W29843   8.601  10.605   2.908
58118W        W29844  18.013  36.467   3.085
58119W        W29845   0.879  37.284   3.148
58120W        W29846  34.091  11.908   3.679
58121W        W29847  34.413  31.434   1.823
58122W        W29848  35.971  21.831  11.995
58123W        W29849  42.268   4.679   4.551
58124W        W29850  43.572  36.300   4.707
58125W        W29851   0.919   5.428  13.859
58126W        W29852  14.302  19.597  13.186
58127W        W29853  29.898  39.828   3.275
58128W        W29854  42.351   5.219  11.447
58129W        W29855  13.982   6.688  10.791
58130W        W29856  38.764  17.339  11.927
58131W        W29857  29.547  40.035   4.563
58132W        W29858  41.185  14.886   1.766
58133W        W29859  26.947  20.612  11.509
58134W        W29860   1.926   4.885   1.697
58135W        W29861  33.909  20.449   2.671
58136W        W29862   4.268  28.151  12.200
58137W        W29863  10.697  29.901   2.659
58138W        W29864  11.426   2.500   2.823
58139W        W29865  38.303  29.524   2.811
58140W        W29866  11.311  29.122   3.537
58141W        W29867  21.506   8.650  11.279
58142W        W29868  30.241  36.110   0.799
58143W        W29869  26.440  26.560   3.111
58144W        W29870  14.158  10.769  13.299
58145W        W29871  43.460  40.979   3.882
58146W        W29872  21.061  29.392  12.973
58147W        W29873  42.382  39.917   3.604
58148W        W29874  43.825   8.666  11.256
58149W        W29875  28.890  28.539   2.416
58150W        W29876  17.944  21.511  11.967
58151W        W29877  11.082  37.270   0.341
58152W        W29878   5.296  41.258  12.543
58153W        W29879  26.433  26.213   1.384
58154W        W29880  31.986  40.416  10.736
58155W        W29881  38.026   6.638   4.366
58156W        W29882   0.759   5.827  13.532
58157W        W29883  11.344  44.203   4.150
58158W        W29884  32.885  24.962   4.495
58159W        W29885   6.362  21.793   2.229
58160W        W29886  18.550   5.763  11.672
58161W        W29887  19.712  15.730   2.241
58162W        W29888  24.015  22.469  11.129
58163W        W29889  33.921  30.790  14.326
58164W        W29890  32.309  26.725   5.229
58165W        W29891  39.808  40.526   0.306
58166W        W29892  34.260  37.546  13.912
58167W        W29893  20.690  10.252   4.084
58168W        W29894  37.886  30.844  14.432
58169W        W29895   7.163  15.890  11.020
58170W        W29896  22.283  19.594  14.961
58171W        W29897  40.993  39.500   2.049
58172W        W29898  33.120  31.359  14.558
58173W        W29899  14.833  23.267  11.882
58174W        W29900  18.350   7.827  10.789
58175W        W29901  31.121   3.716   4.424
58176W        W29902  22.629  24.171   4.958
58177W        W29903   0.618  43.372   1.331
58178W        W29904  41.278  25.537  13.940
58179W        W29905  11.378   0.325   0.891
58180W        W29906  13.201  32.007   2.649
58181W        W29907  21.107  23.195   0.875
58182W        W29908   8.771   5.258   1.443
58183W        W29909  28.923  27.278   4.793
58184W        W29910  11.652  25.428  11.988
58185W        W29911  40.596  32.357   2.134
58186W        W29912  36.859  28.980   2.056
58187W        W29913   2.462  10.873  13.098
58188W        W29914  20.287  40.259   2.456
58189W        W29915   9.688  22.734   1.965
58190W        W29916  16.596  16.432  11.385
58191W        W29917  26.680  35.795  10.274
58192W        W29918  10.430  10.409  11.802
58193W        W29919  32.453  19.413   1.179
58194W        W29920   8.687  21.991   1.326
58195W        W29921  24.972  10.653   4.890
58196W        W29922  16.060  40.983   2.637
58197W        W29923  23.717  11.692  10.842
58198W        W29924  36.461  22.392  14.377
58199W        W29925  40.275  15.736  14.461
58200W        W29926  40.883  23.490  10.246
58201W        W29927  37.791  31.523  11.271
58202W        W29928  25.299   1.044  13.970
58203W        W29929  20.510  33.449  13.350
58204W        W29930  21.709  11.158   4.306
58205W        W29931  22.275  38.940  14.045
58206W        W29932   2.416   5.801  12.046
58207W        W29933   9.688   0.955   4.588
58208W        W29934  16.567  35.281  12.964
58209W        W29935   2.529  34.103  12.543
58210W        W29936   0.110  41.418  14.915
58211W        W29937  24.579  27.646   0.922
58212W        W29938  32.085  22.703   4.228
58213W        W29939  43.264  31.833   1.383
58214W        W29940  24.174   7.414  11.720
58215W        W29941   8.828   4.680   3.698
58216W        W29942  44.021  33.619  10.464
58217W        W29943  15.189  14.165  14.068
58218W        W29944   4.235  37.970  14.973
58219W        W29945  10.922  23.280   4.719
58220W        W29946  19.193  11.540  13.032
58221W        W29947  11.504  15.128  11.136
58222W        W29948  40.805   8.682   4.302
58223W        W29949  21.286   5.143   0.411
58224W        W29950  35.354   2.916  13.561
58225W        W29951  31.336   5.438   0.264
58226W        W29952  40.513  17.153  11.984
58227W        W29953  29.179   1.366   3.230
58228W        W29954  12.811   1.331  12.541
58229W        W29955   8.744  10.341  14.728
58230W        W29956  30.612  25.089   4.725
58231W        W29957   8.710  43.307   0.420
58232W        W29958  29.084  10.895   3.784
58233W        W29959  17.565  19.848   3.646
58234W        W29960   1.460   1.988  14.117
58235W        W29961  30.575  26.684   0.970
58236W        W29962  37.088  16.543   1.337
58237W        W29963  13.875  12.278  14.801
58238W        W29964   1.659  16.142   0.752
58239W        W29965   7.111  39.035  13.225
58240W        W29966   0.598  26.555   2.215
58241W        W29967  11.123  22.311   4.730
58242W        W29968  38.901  42.766   2.357
58243W        W29969  14.108  36.173   0.317
58244W        W29970  15.303   7.144  11.932
58245W        W29971  11.308  41.437  10.497
58246W        W29972  34.005  33.478   2.678
58247W        W29973  13.849   4.845  12.256
58248W        W29974  16.918  28.844  10.249
58249W        W29975  20.557  19.695  11.252
58250W        W29976   4.469  41.586  10.801
58251W        W29977   8.928  33.595  13.836
58252W        W29978   8.855   1.152  14.849
58253W        W29979  18.725  33.064   0.304
58254W        W29980   3.248  31.993   4.165
58255W        W29981  24.710  17.581   4.323
58256W        W29982  37.764  41.541   4.419
58257W        W29983  34.572  43.341  13.880
58258W        W29984  14.380   7.227  13.437
58259W        W29985   0.761  14.583   4.534
58260W        W29986  33.509   7.114  12.298
58261W        W29987  39.057  35.123   0.508
58262W        W29988  38.357  23.486  13.784
58263W        W29989   7.319  33.159   4.559
58264W        W29990  14.888  42.327  13.979
58265W        W29991  21.172   8.684   2.341
58266W        W29992  39.822  37.837   2.871
58267W        W29993   9.786  43.385   4.501
58268W        W29994  44.412  41.729  12.807
58269W        W29995  36.948   9.909   4.635
58270W        W29996   4.488  35.459   0.336
58271W        W29997  36.764  14.704   4.427
58272W        W29998  29.457  21.483   4.576
58273W        W29999  24.669  35.323  12.567
58274W        W30000  10.085  43.431  11.536
58275W        W30001  16.894  36.930   3.252
58276W        W30002   9.884  40.983   1.686
58277W        W30003  42.828  43.314   2.248
58278W        W30004  20.887   3.254   4.610
58279W        W30005  24.600  43.567   2.233
58280W        W30006  16.811  10.062  10.180
58281W        W30007   1.971  33.268  14.421
58282W        W30008  40.991  27.692   2.356
58283W        W30009  31.463   3.141   1.244
58284W        W30010  30.015   7.949   0.902
58285W        W30011  28.715  16.809  13.422
58286W        W30012  11.805   8.717   1.298
58287W        W30013  40.332  32.876  11.487
58288W        W30014  31.995  11.881   2.593
58289W        W30015  40.107  24.661   4.532
58290W        W30016  25.399  18.327  13.328
58291W        W30017  21.517  23.020  13.155
58292W        W30018  44.806   5.992   2.791
58293W        W30019  33.944  33.608  10.583
58294W        W30020   9.290  44.316  13.991
58295W        W30021   5.889  43.457  14.284
58296W        W30022  29.439  40.924   4.329
58297W        W30023  17.116  24.931   4.153
58298W        W30024  22.632  20.504   4.248
58299W        W30025  44.713  33.153   4.473
58300W        W30026  34.141  24.280  14.024
58301W        W30027  36.109  12.839  13.577
58302W        W30028  44.845  43.288   0.227
58303W        W30029  44.860   5.186  13.496
58304W        W30030  20.134  35.985   3.327
58305W        W30031   0.558   9.590  13.996
58306W        W30032  24.009  14.316   5.498
58307W        W30033  33.499  22.829  10.722
58308W        W30034  22.423  40.837   4.628
58309W        W30035  15.384  42.742   4.214
58310W        W30036  38.551  32.970  12.077
58311W        W30037  29.374  31.473   3.207
58312W        W30038  11.696  15.819  10.380
58313W        W30039  40.075  29.991  13.778
58314W        W30040  16.360   7.249   3.791
58315W        W30041   5.887  12.337  14.882
58316W        W30042  43.492  31.649   2.781
58317W        W30043  30.728   8.842  11.087
58318W        W30044  19.979  25.492   2.141
58319W        W30045   5.131  23.862  11.984
58320W        W30046  17.663  37.432   2.934
58321W        W30047  27.606   5.985   3.164
58322W        W30048  26.428  24.540   1.919
58323W        W30049  17.648  28.068   1.391
58324W        W30050  23.880   3.930  10.708
58325W        W30051  40.880   1.036  14.739
58326W        W30052  19.477   4.313  14.558
58327W        W30053  30.022  19.780   2.494
58328W        W30054  36.627   7.225  11.223
58329W        W30055  20.616  15.728  14.979
58330W        W30056  24.477   8.828   1.853
58331W        W30057   3.310  22.093   3.169
58332W        W30058  41.610   7.316   4.218
58333W        W30059  34.397  42.419  12.465
58334W        W30060  23.235  18.581  14.500
58335W        W30061  22.412  33.963   4.747
58336W        W30062  36.494  37.129  14.692
58337W        W30063  44.253  19.022  13.824
58338W        W30064  16.513  36.893   1.888
58339W        W30065  14.792  15.562  12.049
58340W        W30066  30.572  34.067  12.466
58341W        W30067   6.726  44.607   1.982
58342W        W30068  14.114  24.588  13.593
58343W        W30069   1.805  27.319   0.992
58344W        W30070  37.060  19.875  14.719
58345W        W30071  35.096   7.303  10.733
58346W        W30072  43.841  18.894   2.323
58347W        W30073  44.481  15.366  11.689
58348W        W30074  20.985  10.773   1.272
58349W        W30075   8.751   7.528  13.089
58350W        W30076  33.498  17.022   4.110
58351W        W30077  13.266   4.134   2.869
58352W        W30078  44.032  34.690   0.260
58353W        W30079  36.416  25.488  14.633
58354W        W30080  26.990  28.527   2.101
58355W        W30081  44.522  44.514  12.440
58356W        W30082   8.010  31.113  14.488
58357W        W30083   1.757  29.167  14.896
58358W        W30084  29.221  21.564   3.320
58359W        W30085   4.734  36.127  14.992
58360W        W30086  30.592   9.742   2.629
58361W        W30087   7.086   8.782   5.253
58362W        W30088  21.640  15.628  11.689
58363W        W30089   1.785  19.336   1.637
58364W        W30090  39.506  36.258  11.161
58365W        W30091   6.807  37.831  14.221
58366W        W30092  26.227  42.610  12.363
58367W        W30093  28.282  35.975  12.826
58368W        W30094  44.509  44.016   0.651
58369W        W30095  24.637  44.486   4.533
58370W        W30096  18.627  32.053   3.157
58371W        W30097  15.137  28.845  11.759
58372W        W30098  26.530  19.573   0.223
58373W        W30099  20.213  40.584   2.852
58374W        W30100  38.448  25.645  14.310
58375W        W30101  36.771   6.196  13.023
58376W        W30102  35.431   0.440  12.172
58377W        W30103  21.786  40.837  14.923
58378W        W30104  12.653   2.434  12.860
58379W        W30105  43.240  31.534   3.608
58380W        W30106  37.563  21.842  11.517
58381W        W30107  35.784  42.814   4.941
58382W        W30108  10.391   2.504  13.884
58383W        W30109  33.506  24.234  13.387
58384W        W30110  19.571  40.848   2.795
58385W        W30111   2.620  14.342   4.125
58386W        W30112  40.153   7.763  12.638
58387W        W30113  26.722  16.654  13.478
58388W        W30114  18.092  28.514   1.749
58389W        W30115  12.796  41.231   4.464
58390W        W30116  29.217  12.167  12.094
58391W        W30117  35.534  43.304  13.805
58392W        W30118   4.374  14.862   1.771
58393W        W30119  27.526  27.468   2.062
58394W        W30120  33.714  42.386  10.185
58395W        W30121   8.370  40.663   2.811
58396W        W30122  38.100  17.539  12.058
58397W        W30123   0.360  41.389   2.400
58398W        W30124  28.154   6.695  12.009
58399W        W30125  34.772  18.434   3.555
58400W        W30126  28.523  11.964  12.491
58401W        W30127   3.462  10.148   2.528
58402W        W30128  12.133   5.368  12.442
58403W        W30129  15.484  21.783   0.689
58404W        W30130   7.933  24.128  12.010
58405W        W30131  13.294  37.979   2.973
58406W        W30132   2.313  44.389   1.197
58407W        W30133  39.916  34.363   1.837
58408W        W30134  30.784  22.079  11.539
58409W        W30135   6.193  38.857  11.209
58410W        W30136  20.232  34.357   2.948
58411W        W30137   3.434   2.887  12.109
58412W        W30138  20.205  18.312  12.231
58413W        W30139  30.401  28.114   1.935
58414W        W30140  21.578  23.570  10.959
58415W        W30141  34.018   8.387  14.362
58416W        W30142  42.270   2.531  11.646
58417W        W30143  10.506  36.594  10.683
58418W        W30144  14.828   2.463   0.279
58419W        W30145  19.837  41.303  12.433
58420W        W30146  33.377  36.366   0.110
58421W        W30147  21.510  19.109  14.977
58422W        W30148  20.002  28.065  11.423
58423W        W30149   7.890  16.382   1.477
58424W        W30150   5.301   0.397  11.343
58425W        W30151  23.916   3.797   3.815
58426W        W30152  38.277   5.741   1.098
58427W        W30153  36.944  33.684   1.775
58428W        W30154  40.191  43.067   4.127
58429W        W30155  33.220  10.722   4.757
58430W        W30156  16.299   9.116  13.771
58431W        W30157  29.474  36.294  14.851
58432W        W30158  40.693  10.850  14.983
58433W        W30159  37.605   9.922   2.148
58434W        W30160  18.618  19.546   4.580
58435W        W30161  43.015  42.276  11.951
58436W        W30162   5.785  10.370  11.969
58437W        W30163   2.801   4.433  14.675
58438W        W30164   2.896  32.432  10.812
58439W        W30165  26.521   6.707   2.263
58440W        W30166  10.848   9.664  11.830
58441W        W30167  36.022  20.356  13.879
58442W        W30168  36.181  18.635  12.498
58443W        W30169   5.679  13.093   2.808
58444W        W30170  11.723  21.155   0.349
58445W        W30171  26.758  39.643  11.316
58446W        W30172  12.649  39.005   0.350
58447W        W30173  12.918  31.988  11.499
58448W        W30174  40.711  37.565  11.204
58449W        W30175  14.975  21.101   5.123
58450W        W30176  10.593  22.565  12.932
58451W        W30177  19.150   0.030   4.667
58452W        W30178  16.156   6.202   0.954
58453W        W30179  11.129  34.357  11.425
58454W        W30180  33.589   0.948   4.621
58455W        W30181   2.431  29.412   4.635
58456W        W30182  26.799  18.112   2.231
58457W        W30183  33.564  34.808  10.972
58458W        W30184  17.079  39.472   2.707
58459W        W30185  11.024  24.585   0.364
58460W        W30186  17.543  20.876   3.678
58461W        W30187   5.397  16.050   2.209
58462W        W30188  38.357  11.905   0.852
58463W        W30189   3.005  44.838  11.136
58464W        W30190   3.564  34.564   3.223
58465W        W30191   1.487  28.237  10.777
58466W        W30192  12.900  14.850  14.910
58467W        W30193  16.067  43.383   0.260
58468W        W30194  36.600  36.391  12.487
58469W        W30195  40.639   0.917   2.551
58470W        W30196   8.266  13.526   2.815
58471W        W30197  33.912  35.830  12.424
58472W        W30198  32.859   1.462   4.598
58473W        W30199   0.052   8.461  14.430
58474W        W30200  13.876   7.203  14.832
58475W        W30201  42.041  23.297  12.508
58476W        W30202  10.450   7.867   4.951
58477W        W30203  26.504  21.790   2.099
58478W        W30204  38.626  28.202  14.524
58479W        W30205  20.682  40.541   1.855
58480W        W30206  35.129  22.147  14.357
58481W        W30207   0.470  37.496  10.213
58482W        W30208  27.585  15.180  11.390
58483W        W30209  36.896   6.347   3.765
58484W        W30210   1.205   9.811  13.403
58485W        W30211  33.622  13.627   1.678
58486W        W30212   6.272   4.075   4.208
58487W        W30213  24.426  33.631   2.732
58488W        W30214  31.560  43.328   2.501
58489W        W30215  16.805  23.995  14.739
58490W        W30216   0.435   4.253   4.152
58491W        W30217  39.462  24.935   1.634
58492W        W30218  25.765  38.279  11.499
58493W        W30219   7.187  40.471   4.104
58494W        W30220   2.813  15.162   1.756
58495W        W30221  12.042  33.089  10.582
58496W        W30222   7.356  35.353   5.250
58497W        W30223  33.209   4.163   3.951
58498W        W30224  25.689   1.730  10.283
58499W        W30225  37.375  25.426  14.789
58500W        W30226  43.081   4.425   0.619
58501W        W30227  29.910  17.127  12.604
58502W        W30228   5.225  12.409   2.804
58503W        W30229   6.152  40.144  11.514
58504W        W30230  14.168  21.373  14.268
58505W        W30231  44.929  26.685  10.119
58506W        W30232   8.160   8.249  11.221
58507W        W30233  33.919  16.153   0.750
58508W        W30234  37.424  39.006  10.496
58509W        W30235  21.261  19.866   4.208
58510W        W30236  30.982   1.854   3.714
58511W        W30237  27.245  24.477  10.764
58512W        W30238  36.934   9.763   0.897
58513W        W30239  30.707  37.829  11.546
58514W        W30240  20.056  41.072   2.751
58515W        W30241  12.748  30.831  11.034
58516W        W30242  21.163   4.809  10.652
58517W        W30243  20.296  14.161  12.378
58518W        W30244   2.824  24.624   4.759
58519W        W30245   5.385  42.393   4.145
58520W        W30246  24.064  11.580   0.085
58521W        W30247  18.822  29.051  12.948
58522W        W30248   9.316   7.805   4.134
58523W        W30249  12.849  34.017   4.387
58524W        W30250  32.665  26.606  11.514
58525W        W30251  26.113  40.841   4.584
58526W        W30252   8.949  33.157  12.771
58527W        W30253  23.935  18.084   1.686
58528W        W30254  16.474  22.828  11.514
58529W        W30255   7.251  27.003   1.593
58530W        W30256  14.449  37.024   0.224
58531W        W30257   9.839  28.191  13.915
58532W        W30258  21.203  36.446   5.200
58533W        W30259  44.951  19.752   1.521
58534W        W30260  27.663  30.516   4.301
58535W        W30261  20.317  19.252   4.634
58536W        W30262  33.305  31.088   2.065
58537W        W30263   3.526  38.817  13.319
58538W        W30264   3.888  14.408   0.334
58539W        W30265  31.939  37.141   0.314
58540W        W30266  20.807  12.446   4.188
58541W        W30267  12.863  28.485   2.278
58542W        W30268  19.604   3.151  12.081
58543W        W30269   1.395   8.712  14.734
58544W        W30270  29.530  35.923   5.019
58545W        W30271  43.424  30.723  12.075
58546W        W30272   8.956  17.105   2.194
58547W        W30273  20.213  39.554  14.850
58548W        W30274  28.161  10.704   3.671
58549W        W30275   6.331   5.177  11.030
58550W        W30276  23.510  38.084  11.998
58551W        W30277  12.851  14.671   1.316
58552W        W30278  40.982  18.015   3.741
58553W        W30279  31.668  37.444   0.931
58554W        W30280  12.220  22.571  10.950
58555W        W30281  21.130  43.544  10.997
58556W        W30282   8.638  20.080  13.941
58557W        W30283   0.799  13.755  13.559
58558W        W30284  20.268  17.170  12.951
58559W        W30285   6.834   5.030   2.711
58560W        W30286  37.924  42.503   1.890
58561W        W30287  29.927  40.588   2.578
58562W        W30288   6.254  27.108   4.184
58563W        W30289  42.241  27.192  13.089
58564W        W30290  21.301   4.008  13.362
58565W        W30291  23.739  13.864   5.205
58566W        W30292  27.084  38.316   1.202
58567W        W30293  38.576  38.324   3.061
58568W        W30294  21.561  14.066   2.281
58569W        W30295  25.671  25.033   1.849
58570W        W30296  15.863  44.230  10.701
58571W        W30297  17.055  11.416   4.370
58572W        W30298  17.993   7.760   3.391
58573W        W30299   9.895  30.657  12.033
58574W        W30300  15.281  29.479  11.665
58575W        W30301   3.430   2.281   1.429
58576W        W30302  11.125  11.453   4.168
58577W        W30303  24.595   9.878  14.827
58578W        W30304  29.472  30.595  11.178
58579W        W30305  23.729   9.644   1.865
58580W        W30306  32.029  33.641  13.163
58581W        W30307  12.317  38.517  12.048
58582W        W30308  27.992  14.164  12.774
58583W        W30309   2.887   1.026  12.523
58584W        W30310  24.328  21.405  10.351
58585W        W30311  25.065  26.849  11.865
58586W        W30312  12.010  17.586  10.745
58587W        W30313  30.676  34.371   2.428
58588W        W30314  34.900   7.947  13.991
58589W        W30315  29.073   8.852  14.816
58590W        W30316  40.071   7.885   3.723
58591W        W30317   4.792  24.813  14.071
58592W        W30318  16.589  17.790   1.877
58593W        W30319  16.373  36.564  10.579
58594W        W30320  24.275  35.415   1.313
58595W        W30321  26.970  44.236   1.858
58596W        W30322  41.031  23.472   1.724
58597W        W30323  11.382  10.063  13.460
58598W        W30324   5.198  22.140  12.488
58599W        W30325  37.639  40.577  11.128
58600W        W30326  18.212  32.176  11.493
58601W        W30327   0.377  36.033  13.369
58602W        W30328  11.646  35.928   3.063
58603W        W30329  28.663   8.211  13.015
58604W        W30330  24.251  12.597   3.715
58605W        W30331   5.202  26.198  12.982
58606W        W30332   7.766  22.724  11.227
58607W        W30333  26.599   1.383   3.615
58608W        W30334  30.804  11.559  13.800
58609W        W30335  25.724   7.179   0.485
58610W        W30336  16.781  42.460  10.488
58611W        W30337  42.658  26.431   2.911
58612W        W30338  17.716   7.052   4.851
58613W        W30339  20.280   1.670  11.670
58614W        W30340  32.210  13.556   4.017
58615W        W30341  35.780  38.456   2.669
58616W        W30342  30.738   1.945   4.795
58617W        W30343  35.377  20.580  12.088
58618W        W30344  41.060  15.548  11.638
58619W        W30345  19.110   7.820  14.915
58620W        W30346  11.557   7.210  12.443
58621W        W30347  42.482  33.944  14.248
58622W        W30348   2.389  26.721  14.807
58623W        W30349  10.958  20.801   0.021
58624W        W30350  28.572  21.170   1.453
58625W        W30351  34.014  13.963  11.027
58626W        W30352  30.661   7.935   3.190
58627W        W30353   6.445  30.109  13.118
58628W        W30354  31.481  29.695   4.130
58629W        W30355  21.231  30.607  14.946
58630W        W30356  40.073   9.188  14.279
58631W        W30357   7.559   1.542  14.294
58632W        W30358  41.532  31.172  13.452
58633W        W30359   9.318  42.506   0.695
58634W        W30360   9.396  32.751   0.566
58635W        W30361  21.457  25.859  11.138
58636W        W30362  32.351  19.461  13.372
58637W        W30363  23.527  24.109  11.456
58638W        W30364  24.038  30.674   5.054
58639W        W30365  11.159  29.182  12.401
58640W        W30366  24.115  44.377   4.598
58641W        W30367   9.666  42.951   2.321
58642W        W30368  39.461  31.422   3.678
58643W        W30369   2.549   3.040   0.854
58644W        W30370  14.147  10.438   4.403
58645W        W30371  19.646  25.606   2.556
58646W        W30372  12.600  28.353  11.174
58647W        W30373   8.828   6.379  12.484
58648W        W30374  42.760  38.432   4.390
58649W        W30375  10.372   1.773  13.369
58650W        W30376  16.017  18.638  10.777
58651W        W30377  39.899  14.081   4.044
58652W        W30378  42.288  22.276   1.739
58653W        W30379  42.767  43.819  14.950
58654W        W30380  43.926   1.265  10.700
58655W        W30381  17.312  18.939  13.716
58656W        W30382  34.486   7.686   2.429
58657W        W30383  29.089  31.207  13.337
58658W        W30384   0.323   0.470   2.166
58659W        W30385  41.476  12.333  12.178
58660W        W30386  24.300   0.344  13.474
58661W        W30387   7.517  40.941  13.903
58662W        W30388  43.482  28.582   0.206
58663W        W30389  10.621  41.313   0.802
58664W        W30390  18.684   0.032  11.045
58665W        W30391  42.860   9.776  14.913
58666W        W30392   5.832   3.537  13.425
58667W        W30393  40.969  13.260   3.188
58668W        W30394  11.348   6.542   3.907
58669W        W30395   7.460  10.710  11.515
58670W        W30396  18.591  10.533   0.379
58671W        W30397   8.600  23.258  10.355
58672W        W30398  24.054  36.490   4.678
58673W        W30399  28.976  35.110   3.701
58674W        W30400  24.133   8.692  14.813
58675W        W30401  37.360   5.795   0.155
58676W        W30402  15.889  10.570   1.362
58677W        W30403  16.110  30.618   2.849
58678W        W30404   6.431  12.359   0.612
58679W        W30405  21.059  35.804  13.841
58680W        W30406   4.018  35.087  12.200
58681W        W30407  10.025   1.869   2.156
58682W        W30408  37.822   9.261   0.053
58683W        W30409  44.980  22.350   1.250
58684W        W30410  23.189   2.960   0.240
58685W        W30411  29.104  21.294   2.894
58686W        W30412  24.420  15.633  10.791
58687W        W30413  41.097  27.197   2.152
58688W        W30414  20.837  36.405   1.920
58689W        W30415   7.374  21.994   3.629
58690W        W30416   0.257  22.467  14.771
58691W        W30417   9.197  19.662  13.390
58692W        W30418  41.304  32.968  13.933
58693W        W30419  29.964  19.705  13.325
58694W        W30420  36.559   4.440   2.032
58695W        W30421   4.716   1.681   2.765
58696W        W30422  40.833  29.529  11.073
58697W        W30423  33.881   1.713   4.172
58698W        W30424  39.376  23.948  13.016
58699W        W30425  41.853  10.296  13.514
58700W        W30426  38.092  38.589  13.438
58701W        W30427   4.150  40.742  11.164
58702W        W30428  24.971  33.874  14.054
58703W        W30429  36.012  32.992  12.200
58704W        W30430  34.239  26.004  13.338
58705W        W30431  30.460   6.718   2.805
58706W        W30432   7.514  30.719  12.544
58707W        W30433  22.812  17.187  14.046
58708W        W30434  33.367  20.668   3.577
58709W        W30435  21.715  24.710  12.401
58710W        W30436  20.056  33.441   4.476
58711W        W30437  43.625  44.852  13.872
58712W        W30438  16.044   3.361   2.644
58713W        W30439  43.768  41.980   0.290
58714W        W30440  44.379  33.966   4.241
58715W        W30441  22.541  43.074   4.158
58716W        W30442  23.725  13.344   2.167
58717W        W30443  31.151  40.477  11.618
58718W        W30444  34.195  14.563   3.344
58719W        W30445  10.039  41.929  10.436
58720W        W30446   0.490  40.357   1.847
58721W        W30447  35.661  11.443  12.029
58722W        W30448   5.651  40.599  13.381
58723W        W30449  35.877  25.289  11.883
58724W        W30450  43.434   2.681  14.020
58725W        W30451  29.576  28.426   0.714
58726W        W30452  32.169  32.067  10.626
58727W        W30453  29.586  39.369  10.530
58728W        W30454   9.104  33.145   0.159
58729W        W30455  35.357   7.382   3.691
58730W        W30456  32.208  35.366  11.135
58731W        W30457  20.151  40.890  11.490
58732W        W30458  19.479  21.591  13.522
58733W        W30459  12.143  44.404  11.834
58734W        W30460  28.474  36.892  13.917
58735W        W30461  41.918   4.355  10.738
58736W        W30462  32.548  41.392  11.734
58737W        W30463  43.689  28.409  13.934
58738W        W30464   8.690  17.003  12.771
58739W        W30465   6.680  28.234  11.162
58740W        W30466  23.820  28.999   5.066
58741W        W30467  26.878  41.744   2.679
58742W        W30468  29.414  38.500  12.997
58743W        W30469  33.089  35.513   0.724
58744W        W30470  36.021  21.331  12.122
58745W        W30471  18.326  40.417  12.620
58746W        W30472   1.361   7.969  14.047
58747W        W30473  17.040  35.109   4.046
58748W        W30474  27.096  19.535   4.934
58749W        W30475  11.479  31.908  13.088
58750W        W30476  32.413  37.433  12.018
58751W        W30477   8.370  26.423   0.564
58752W        W30478  39.961  18.365  13.484
58753W        W30479  23.941  33.309   3.953
58754W        W30480  16.789  40.933  11.378
58755W        W30481  26.654   8.979   5.073
58756W        W30482  25.581   3.985   2.156
58757W        W30483   3.019  27.199  13.901
58758W        W30484  11.509  17.269   4.792
58759W        W30485   4.377  23.157  13.520
58760W        W30486  40.902  27.658  11.415
58761W        W30487  18.120  13.414   2.729
58762W        W30488   8.693  25.180   0.155
58763W        W30489   7.932  37.311  12.591
58764W        W30490   4.052  21.684  11.436
58765W        W30491  29.014  42.532  10.694
58766W        W30492  39.440  30.897   4.924
58767W        W30493  19.512  32.437   2.330
58768W        W30494   2.978  39.565   3.711
58769W        W30495   6.362  23.219   3.452
58770W        W30496  17.682  42.558   1.733
58771W        W30497   2.016  11.624  14.506
58772W        W30498   8.894  15.156   4.358
58773W        W30499  37.890   8.339  10.695
58774W        W30500  39.013  20.056  10.719
58775W        W30501  24.572  40.049  14.363
58776W        W30502  27.131  43.596   0.675
58777W        W30503  10.343  43.925   0.382
58778W        W30504   4.366   5.254   1.776
58779W        W30505  29.222  11.400   0.954
58780W        W30506  14.188  40.076  13.849
58781W        W30507  29.190  31.796   1.171
58782W        W30508  43.879  38.994  14.301
58783W        W30509  12.842  12.848  10.503
58784W        W30510  41.039  15.768   0.831
58785W        W30511  21.616   7.302  13.445
58786W        W30512  33.005  39.613  14.996
58787W        W30513  16.302  12.831   2.327
58788W        W30514  42.333   7.077   4.607
58789W        W30515  26.591  42.996   2.782
58790W        W30516  21.993  12.821  13.862
58791W        W30517  40.350  12.743   4.078
58792W        W30518  12.056  18.643   4.979
58793W        W30519  23.655  43.899   4.750
58794W        W30520  19.542  16.354  10.804
58795W        W30521  19.606  16.802  11.038
58796W        W30522  38.109   2.907  10.954
58797W        W30523  16.250  12.641   0.250
58798W        W30524  29.614  36.009   3.056
58799W        W30525  16.330  17.854   3.245
58800W        W30526  31.987  15.149  13.550
58801W        W30527  34.841  39.971   0.781
58802W        W30528  20.449   9.370  11.110
58803W        W30529  19.597  11.769   0.907
58804W        W30530  21.102  33.336   2.669
58805W        W30531   1.786  22.754   0.505
58806W        W30532  18.944  39.967  10.361
58807W        W30533  40.285  41.443  13.016
58808W        W30534  28.873  22.463  13.960
58809W        W30535  40.339  12.154   0.902
58810W        W30536  40.078  40.522  11.659
58811W        W30537  26.439  41.337   0.322
58812W        W30538  41.087  21.139  13.609
58813W        W30539  41.820  18.131   1.751
58814W        W30540  36.066  33.299  10.997
58815W        W30541  25.061  14.003   1.705
58816W        W30542  24.482   8.430  12.962
58817W        W30543  31.749  37.215   4.607
58818W        W30544  11.171  32.571   2.254
58819W        W30545  36.205  40.027  11.373
58820W        W30546  10.925   0.821   2.727
58821W        W30547  17.759   4.759  14.075
58822W        W30548  25.090  30.436   4.591
58823W        W30549  15.704  13.351   2.716
58824W        W30550  36.298  40.432   9.730
58825W        W30551  22.633  40.905  14.317
58826W        W30552  11.288   5.310   4.124
58827W        W30553  23.604  32.833   2.195
58828W        W30554  16.055  42.245  11.553
58829W        W30555  41.427  12.213   3.836
58830W        W30556  37.873  35.647   2.183
58831W        W30557  18.234  23.941   3.802
58832W        W30558  36.987  41.071   0.713
58833W        W30559  33.946  11.931   1.452
58834W        W30560  12.859  38.568  11.161
58835W        W30561   1.254  24.312  12.480
58836W        W30562   0.219   7.339   2.306
58837W        W30563   1.603   3.255  11.107
58838W        W30564  14.557  18.469  12.627
58839W        W30565  32.927  25.227   5.463
58840W        W30566  41.002  10.261  13.455
58841W        W30567  37.924   8.790  11.641
58842W        W30568   8.523  44.357   2.117
58843W        W30569   9.325  11.549   2.274
58844W        W30570   4.757  14.596   4.097
58845W        W30571  32.601  19.150   4.591
58846W        W30572  42.322   5.294   1.301
58847W        W30573   6.523  36.391  12.050
58848W        W30574   9.603  36.309   1.353
58849W        W30575  33.948  29.930  13.513
58850W        W30576  33.947  42.895  12.885
58851W        W30577  20.251  10.113  12.683
58852W        W30578  34.490  11.707  12.441
58853W        W30579  23.077  44.447   0.845
58854W        W30580  12.572  15.502   4.165
58855W        W30581   7.285  23.645  11.024
58856W        W30582  36.502  30.409  10.924
58857W        W30583   8.370  14.210  11.544
58858W        W30584  12.954  35.539  13.076
58859W        W30585   0.400  43.752   3.244
58860W        W30586  34.980  24.555  11.996
58861W        W30587  21.187  25.249  11.907
58862W        W30588  39.822  44.618  12.969
58863W        W30589  21.682  12.543   0.954
58864W        W30590  36.409  17.605   2.049
58865W        W30591  11.408   1.748  14.218
58866W        W30592  13.679  27.609  10.540
58867W        W30593  22.550  44.841   3.232
58868W        W30594   9.502  21.114   4.601
58869W        W30595  34.268   4.437   3.054
58870W        W30596  13.301  26.127  12.937
58871W        W30597  40.675  25.748  13.103
58872W        W30598  13.300   6.771   2.412
58873W        W30599  39.580  38.471  12.522
58874W        W30600   7.503   6.050  14.197
58875W        W30601  11.499  26.931  14.008
58876W        W30602  17.345  32.915   3.353
58877W        W30603   3.434  18.203  12.107
58878W        W30604  26.647  25.704   3.199
58879W        W30605  29.526  34.575   4.064
58880W        W30606  23.758  40.088   4.396
58881W        W30607  28.223  26.254  13.046
58882W        W30608  20.506   0.983   3.229
58883W        W30609  23.563  19.552   0.393
58884W        W30610  13.566  20.689   1.893
58885W        W30611   3.397  13.715  13.391
58886W        W30612  32.666  35.742   0.942
58887W        W30613  37.338  32.717  14.207
58888W        W30614   1.490   8.916   4.210
58889W        W30615  27.620  40.553   2.848
58890W        W30616   4.859  31.388   0.996
58891W        W30617  43.100  25.845  14.318
58892W        W30618  31.716  44.289  13.265
58893W        W30619  13.282  36.149  10.322
58894W        W30620   5.944   3.840  11.137
58895W        W30621  37.779  13.613   0.149
58896W        W30622   4.253   8.637   0.940
58897W        W30623  39.446   6.840   4.665
58898W        W30624  25.267   3.748   3.332
58899W        W30625  20.892  38.299   2.899
58900W        W30626   3.679   7.327   3.471
58901W        W30627  20.919  20.285   4.160
58902W        W30628   1.799  38.330  10.399
58903W        W30629  27.754  44.004  14.901
58904W        W30630  10.401  29.666  11.865
58905W        W30631   3.115   0.880   0.095
58906W        W30632  43.055  17.842  14.240
58907W        W30633  34.376  23.610  11.102
58908W        W30634  17.199  20.179   0.542
58909W        W30635  12.861  18.066   3.718
58910W        W30636  18.056  44.032  10.612
58911W        W30637  20.537   7.730  11.122
58912W        W30638  37.531  13.495  13.950
58913W        W30639  12.349   3.276   3.796
58914W        W30640  15.768   5.457   3.712
58915W        W30641  36.642   7.283   3.330
58916W        W30642  29.100  26.111   1.690
58917W        W30643  33.326   8.348   4.604
58918W        W30644  26.156  29.945   0.752
58919W        W30645  23.303  25.195   0.768
58920W        W30646   2.896  21.504   2.677
58921W        W30647   1.749  16.102  14.725
58922W        W30648  27.848   4.830  12.557
58923W        W30649   4.420  25.638  11.109
58924W        W30650  16.076  26.973   4.688
58925W        W30651   1.895  23.216   0.924
58926W        W30652  13.025  25.582   2.369
58927W        W30653  32.719   5.667   2.841
58928W        W30654  10.642  36.041  12.109
58929W        W30655   5.739   8.579   3.416
58930W        W30656   7.841  16.196   3.232
58931W        W30657   0.461  16.628  11.970
58932W        W30658  22.609  12.899  12.900
58933W        W30659  30.146  14.701  12.711
58934W        W30660  35.772  18.182   4.496
58935W        W30661  44.867  13.063  12.278
58936W        W30662  38.339  26.814   2.942
58937W        W30663  21.633  31.602  14.371
58938W        W30664  16.852  36.049   4.226
58939W        W30665  22.028   9.583   1.836
58940W        W30666  44.455  43.532   0.814
58941W        W30667   7.202   0.743   2.161
58942W        W30668   7.746  34.643  10.199
58943W        W30669   1.169   5.400   4.508
58944W        W30670  15.794   6.504   3.627
58945W        W30671   4.313  42.786  11.507
58946W        W30672  32.705  23.106  11.558
58947W        W30673  27.427  20.225   2.257
58948W        W30674  10.972  26.265   1.340
58949W        W30675  44.491  10.924   0.454
58950W        W30676   4.363   9.861  13.445
58951W        W30677  13.607  37.282  13.506
58952W        W30678   2.423  26.568   3.746
58953W        W30679   9.632  38.019  11.205
58954W        W30680  23.994  11.036  12.008
58955W        W30681  36.309  32.144   3.759
58956W        W30682   1.885  32.349   1.445
58957W        W30683  35.934  36.231   1.522
58958W        W30684  26.907  31.591  12.659
58959W        W30685  21.040  33.401   1.816
58960W        W30686   2.378  32.101  11.379
58961W        W30687  24.391  10.161  13.879
58962W        W30688   2.339  14.157   1.881
58963W        W30689   3.938  33.423  11.577
58964W        W30690   0.199  32.244   4.205
58965W        W30691  10.094  11.111   3.727
58966W        W30692  40.430  42.762  12.106
58967W        W30693  35.532  33.826  11.560
58968W        W30694  22.186  21.216   4.058
58969W        W30695   1.237  43.209   1.983
58970W        W30696  13.649  24.336   4.975
58971W        W30697  37.352  34.999  14.767
58972W        W30698  31.582  37.776   3.243
58973W        W30699  36.397  26.381  13.869
58974W        W30700  15.216   9.972   4.621
58975W        W30701  17.013   8.012   4.539
58976W        W30702   3.210  10.298  11.640
58977W        W30703   6.396  18.403  14.804
58978W        W30704  40.918  32.891  14.262
58979W        W30705   3.392  11.661  13.433
58980W        W30706  43.459  24.482   4.483
58981W        W30707   5.715  15.307   4.628
58982W        W30708   5.008  44.405   1.862
58983W        W30709  44.070  43.843   1.678
58984W        W30710  44.953  23.220   4.883
58985W        W30711  14.850  32.678  13.965
58986W        W30712  36.457  25.294  11.260
58987W        W30713  15.011  27.713   2.836
58988W        W30714   3.105  44.041  11.996
58989W        W30715  16.468   8.485   0.228
58990W        W30716  39.466  40.290  14.057
58991W        W30717   4.644  43.930  11.040
58992W        W30718   5.326   5.850   3.741
58993W        W30719  33.583  40.249  10.281
58994W        W30720   3.456  34.899   2.832
58995W        W30721  25.568   4.264  10.949
58996W        W30722   4.684  12.207   1.169
58997W        W30723  22.576  27.349  13.270
58998W        W30724  13.815  43.271  12.116
58999W        W30725  10.164  18.683   2.728
59000W        W30726   4.456  11.687   0.398
59001W        W30727  40.563  21.971   4.819
59002W        W30728   3.986  22.595   0.283
59003W        W30729  30.078  20.935   2.013
59004W        W30730  21.620  39.127   0.882
59005W        W30731  38.708  19.202   3.812
59006W        W30732  27.949  44.969  12.113
59007W        W30733   7.267  28.857   1.750
59008W        W30734   5.747  18.185  10.868
59009W        W30735  42.494   0.490   2.673
59010W        W30736  24.111  14.577   0.261
59011W        W30737  40.312  37.640  14.857
59012W        W30738  26.389  14.394   3.339
59013W        W30739  31.365  22.327   1.955
59014W        W30740   4.991  18.649   0.221
59015W        W30741   7.972  30.093  14.319
59016W        W30742   5.352  22.304   3.619
59017W        W30743  17.786   7.860   4.074
59018W        W30744  20.687  12.734   0.844
59019W        W30745   5.688   6.312  11.847
59020W        W30746  32.108  32.915   3.611
59021W        W30747  29.434   6.435   0.046
59022W        W30748   0.219  24.740  12.163
59023W        W30749  30.196  27.571   3.006
59024W        W30750   4.135  21.998  11.021
59025W        W30751   5.853  29.391  13.356
59026W        W30752  34.027   1.937  12.184
59027W        W30753  25.445   6.278   3.209
59028W        W30754  36.538  37.066   0.722
59029W        W30755  13.336  25.722   4.582
59030W        W30756   9.156  42.957   0.183
59031W        W30757   1.775  22.707  12.221
59032W        W30758   0.277  27.539   1.896
59033W        W30759  12.374  17.764   0.703
59034W        W30760  17.780  23.960  14.967
59035W        W30761  42.886  30.545   2.470
59036W        W30762   3.273  17.054  11.156
59037W        W30763   1.244  27.060   2.353
59038W        W30764  17.661  29.700   3.837
59039W        W30765   5.271   3.993   0.209
59040W        W30766  42.216  44.951   0.468
59041W        W30767  29.712  35.150   1.579
59042W        W30768  13.522  30.628  14.408
59043W        W30769   6.191   3.206   4.637
59044W        W30770  10.463   7.824   4.197
59045W        W30771  31.357   5.355  13.019
59046W        W30772   6.374  23.458   0.289
59047W        W30773   7.430  40.161   3.654
59048W        W30774  11.297   6.799  13.393
59049W        W30775  24.017   8.851   4.940
59050W        W30776  16.334  38.316   1.234
59051W        W30777  12.199  44.386   0.410
59052W        W30778   9.353  43.009  10.844
59053W        W30779  36.662  33.093  10.885
59054W        W30780   6.669  16.204  14.352
59055W        W30781  19.037   7.902   4.647
59056W        W30782  11.993  40.630  12.499
59057W        W30783   6.716  23.102   3.109
59058W        W30784  17.145  13.043   2.732
59059W        W30785  23.935  35.953   1.027
59060W        W30786  25.589  32.665  11.169
59061W        W30787   1.390  25.247   4.764
59062W        W30788  34.946  39.046   3.297
59063W        W30789   6.848  15.416  10.192
59064W        W30790  20.511   9.849   3.728
59065W        W30791   4.522  21.225  14.416
59066W        W30792   2.549  32.541  12.110
59067W        W30793   7.637  34.220   5.499
59068W        W30794  10.161  38.037   4.944
59069W        W30795   0.374   8.215   3.382
59070W        W30796   6.840  36.377   4.424
59071W        W30797  34.567  15.165  11.299
59072W        W30798  29.489   1.349   4.566
59073W        W30799  17.348   4.188  13.343
59074W        W30800   8.235   4.240  13.582
59075W        W30801   1.850   8.126  14.577
59076W        W30802  26.470  22.450   3.944
59077W        W30803  27.941  25.768   2.940
59078W        W30804  16.802  25.379   3.285
59079W        W30805  43.047  10.631  13.821
59080W        W30806  44.365  12.790   3.734
59081W        W30807  26.009  25.644   0.667
59082W        W30808  14.255   3.441   3.806
59083W        W30809   8.687   5.994  14.997
59084W        W30810  31.072  43.578  10.286
59085W        W30811  34.995  17.848   2.055
59086W        W30812  10.795  24.505   4.153
59087W        W30813   1.026  11.125   4.309
59088W        W30814  37.914  14.965   0.971
59089W        W30815  20.185  33.012  12.713
59090W        W30816  11.602  38.700   3.710
59091W        W30817   7.441  15.637  11.375
59092W        W30818  36.803  21.572  13.994
59093W        W30819  13.847  38.961   2.870
59094W        W30820  12.118  16.692  14.336
59095W        W30821  44.367   9.380   4.014
59096W        W30822  19.253  37.489  11.555
59097W        W30823  41.763  30.573   0.043
59098W        W30824  30.965  24.071  11.586
59099W        W30825   9.031  28.944  13.459
59100W        W30826  35.980  13.657  13.056
59101W        W30827  38.657   7.315  12.678
59102W        W30828  33.651  24.951   1.401
59103W        W30829  41.892   2.962  12.449
59104W        W30830  32.811  31.535   0.449
59105W        W30831  20.974  14.368   5.011
59106W        W30832   2.977  21.587  13.874
59107W        W30833   8.946  10.357  10.912
59108W        W30834  25.132  18.730  11.649
59109W        W30835  23.474  18.228   1.926
59110W        W30836  37.575  42.844   0.937
59111W        W30837  18.284  35.408  13.232
59112W        W30838  36.442  40.249  10.442
59113W        W30839   4.616  14.968  12.668
59114W        W30840  10.770  10.409  10.634
59115W        W30841   9.364  23.545  14.925
59116W        W30842  31.946   4.825  14.832
59117W        W30843  16.632  27.793   3.257
59118W        W30844  40.066   4.791   1.308
59119W        W30845  29.201  32.875  11.156
59120W        W30846  29.119  33.144   0.955
59121W        W30847  18.529  20.478  11.539
59122W        W30848  31.608  42.629  12.902
59123W        W30849  34.563  10.821   4.922
59124W        W30850  31.104  35.626  11.113
59125W        W30851   8.810   9.887  10.749
59126W        W30852  25.104  42.019  14.850
59127W        W30853  32.167  44.223  10.205
59128W        W30854  20.067  26.957   3.505
59129W        W30855  20.217   2.819  13.967
59130W        W30856  24.136   3.020   2.335
59131W        W30857  30.557  36.642   0.360
59132W        W30858  10.995  22.042  13.764
59133W        W30859  21.181   2.376   2.009
59134W        W30860  24.752  35.157  11.619
59135W        W30861  10.059  37.394  12.553
59136W        W30862  38.869  20.725  10.390
59137W        W30863  11.629  22.474  13.060
59138W        W30864  27.685  23.365  11.510
59139W        W30865  40.856   9.145  12.122
59140W        W30866  14.015  30.733  11.181
59141W        W30867  11.225  42.071   0.323
59142W        W30868  30.590  12.712   1.818
59143W        W30869  30.998   2.853   4.782
59144W        W30870  40.067   3.977  13.569
59145W        W30871  23.736   7.658  12.016
59146W        W30872   4.483  30.339   0.526
59147W        W30873  12.394  42.806  10.920
59148W        W30874  34.773  30.966  13.902
59149W        W30875  13.831  19.842  11.445
59150W        W30876  22.019  22.682   2.309
59151W        W30877   3.465  28.320   0.813
59152W        W30878  35.242  42.207   2.228
59153W        W30879  40.275  34.571   0.927
59154W        W30880  23.031  24.505  10.448
59155W        W30881  42.501   2.825   2.339
59156W        W30882  31.400  22.879  13.907
59157W        W30883   3.754  44.382   0.200
59158W        W30884   4.767   1.015   4.554
59159W        W30885  21.959  38.021  13.689
59160W        W30886  18.868  30.388   3.863
59161W        W30887  11.358  41.359   1.316
59162W        W30888  38.824  33.787   0.723
59163W        W30889  14.739  40.910   4.364
59164W        W30890  32.643  35.582   4.007
59165W        W30891  11.950  21.543  12.595
59166W        W30892   0.441  12.876  10.949
59167W        W30893  24.669  28.086   4.861
59168W        W30894  20.169  38.965   1.180
59169W        W30895  29.559  24.026  12.667
59170W        W30896  16.667  13.348  10.433
59171W        W30897  13.799  44.742   4.560
59172W        W30898  17.227  25.633   3.138
59173W        W30899  21.437  20.073   0.018
59174W        W30900  16.025  24.013  13.502
59175W        W30901  14.400  44.746  12.936
59176W        W30902  11.947  37.748   3.628
59177W        W30903  32.472  36.546   1.655
59178W        W30904  27.870  19.037  13.525
59179W        W30905  31.889  23.142   0.228
59180W        W30906   0.952   1.454   3.351
59181W        W30907  30.554  35.631  11.895
59182W        W30908  22.698  34.329  14.472
59183W        W30909   7.210  13.381   0.389
59184W        W30910  31.372  25.024   1.026
59185W        W30911  25.981  10.433   1.850
59186W        W30912   8.665  42.935  14.981
59187W        W30913  40.160  19.402  13.582
59188W        W30914  31.933  27.717  13.808
59189W        W30915   0.817  16.120   1.721
59190W        W30916   6.355  11.322  14.702
59191W        W30917   2.387  36.904   3.745
59192W        W30918  21.512  27.843   4.320
59193W        W30919  25.120   0.445   2.866
59194W        W30920   5.850  13.831  11.009
59195W        W30921  34.027   7.322  12.421
59196W        W30922   0.747  38.102   2.364
59197W        W30923  23.735   6.164   1.385
59198W        W30924  30.312   5.286   0.233
59199W        W30925  13.033   0.852   4.260
59200W        W30926   1.220  14.159  12.861
59201W        W30927   4.631  27.053  10.758
59202W        W30928  44.386  35.221   9.913
59203W        W30929  11.705  41.591  13.445
59204W        W30930  40.853   8.303  12.097
59205W        W30931  30.977   1.993  12.503
59206W        W30932  26.010  22.280  12.455
59207W        W30933   7.361  11.353   4.655
59208W        W30934   4.000  12.891  11.669
59209W        W30935  25.456   0.361   5.036
59210W        W30936  43.873   0.350  14.325
59211W        W30937  36.819  12.238  14.317
59212W        W30938  33.934  34.488   4.262
59213W        W30939  18.153  40.236  14.615
59214W        W30940  26.998  33.035  11.161
59215W        W30941  13.568  33.841  12.898
59216W        W30942   1.184  23.567   2.687
59217W        W30943  34.109  37.062   1.201
59218W        W30944   2.168  24.927   5.061
59219W        W30945   5.790   5.897   1.689
59220W        W30946   0.005   3.248  13.961
59221W        W30947   6.262  23.611  11.218
59222W        W30948  17.658  38.167   0.906
59223W        W30949   4.834   7.362  14.578
59224W        W30950  42.964  24.005  12.632
59225W        W30951  44.727  31.018   2.247
59226W        W30952  22.023   9.442  12.581
59227W        W30953  44.008   5.410   4.301
59228W        W30954  11.119  13.211   0.881
59229W        W30955  21.080  15.256  12.502
59230W        W30956   3.986   1.849  12.904
59231W        W30957  14.377  20.102   3.357
59232W        W30958   5.931  40.519   4.640
59233W        W30959  22.245  23.206   1.161
59234W        W30960  38.776   6.183  10.640
59235W        W30961  42.002  18.780  11.203
59236W        W30962  14.730  24.083   2.294
59237W        W30963  34.592  11.700   4.542
59238W        W30964  38.992  27.800  14.483
59239W        W30965   8.899   6.814   2.751
59240W        W30966  38.512  44.402  11.223
59241W        W30967  24.490  41.528  11.589
59242W        W30968  39.337  10.339   1.074
59243W        W30969  16.548  17.080  12.070
59244W        W30970  29.195   5.412   4.188
59245W        W30971  42.749   9.825  11.479
59246W        W30972  11.680  13.212  13.896
59247W        W30973  17.161   3.775   3.867
59248W        W30974  15.513  26.091  13.976
59249W        W30975  10.874  15.714  11.654
59250W        W30976   0.102  27.098  12.031
59251W        W30977  21.778  18.195  11.600
59252W        W30978  40.072  30.638  12.086
59253W        W30979  23.790  30.029  14.043
59254W        W30980  29.430   3.347  11.941
59255W        W30981  25.194  20.602  11.626
59256W        W30982   3.305   0.706  14.490
59257W        W30983  34.313  22.564   2.273
59258W        W30984  26.882  29.064   0.741
59259W        W30985   4.563  38.313   0.287
59260W        W30986   6.639   0.579  13.592
59261W        W30987   2.455   6.312  12.312
59262W        W30988  32.464   0.391  13.068
59263W        W30989  42.887  15.612   3.230
59264W        W30990  42.426  35.953  11.211
59265W        W30991   0.266  30.551  13.606
59266W        W30992   6.828  20.368   0.881
59267W        W30993  11.611  27.903  10.442
59268W        W30994  30.333   2.573  13.792
59269W        W30995  23.224   0.324   0.515
59270W        W30996  17.487  24.522   2.719
59271W        W30997  25.651   1.355  12.536
59272W        W30998  15.816  30.605  11.643
59273W        W30999  13.134  40.925  13.075
59274W        W31000  21.627  27.397   4.062
59275W        W31001   5.279  33.467  12.934
59276W        W31002  37.463   5.042   1.797
59277W        W31003   5.266  36.071  11.677
59278W        W31004  39.381  31.223  13.889
59279W        W31005  20.106  10.881  10.783
59280W        W31006  17.608  32.521   3.690
59281W        W31007   6.691   3.653   5.374
59282W        W31008   9.933  11.751  12.111
59283W        W31009  35.788  20.213   3.715
59284W        W31010  21.147  35.263   4.132
59285W        W31011  41.566  35.935   2.229
59286W        W31012  11.828  29.961  11.439
59287W        W31013  15.425  12.139   1.431
59288W        W31014  30.837   6.056   3.244
59289W        W31015   3.771   4.156  14.941
59290W        W31016  32.114  11.744  13.909
59291W        W31017  44.980  12.290   2.184
59292W        W31018  10.701   7.444   2.099
59293W        W31019  38.807   0.315  10.170
59294W        W31020  37.676  31.009   1.397
59295W        W31021  14.313   7.645   5.312
59296W        W31022  44.502  44.561   1.973
59297W        W31023  26.380  14.945  14.763
59298W        W31024  20.880   1.364   3.161
59299W        W31025  33.670  22.013  13.859
59300W        W31026   2.053  10.187   4.160
59301W        W31027  30.004   4.982  11.092
59302W        W31028  31.158  10.089   1.954
59303W        W31029  29.075   0.899   4.552
59304W        W31030  30.787  35.328  13.585
59305W        W31031   2.141   0.444   0.772
59306W        W31032  23.923  12.859   4.627
59307W        W31033  41.574  31.456   2.631
59308W        W31034  14.662   0.244  11.573
59309W        W31035  40.716  41.394  11.152
59310W        W31036  13.534  25.550   2.431
59311W        W31037  28.201  17.344   2.746
59312W        W31038  16.327  32.006   2.104
59313W        W31039  16.272  44.215  14.284
59314W        W31040  30.433  16.885   2.335
59315W        W31041  28.184   7.835   2.819
59316W        W31042  29.219  10.232   2.261
59317W        W31043  36.316  37.394   0.394
59318W        W31044  39.199  35.556  13.320
59319W        W31045  23.141  43.980   0.509
59320W        W31046  22.999   9.842   2.520
59321W        W31047  21.253  37.065   0.073
59322W        W31048  13.145  16.026  10.884
59323W        W31049  23.698  24.692  11.095
59324W        W31050   9.105   5.774  10.489
59325W        W31051  12.321  29.187  13.992
59326W        W31052  36.449  34.070   1.733
59327W        W31053  21.804   5.780   2.587
59328W        W31054  30.425  28.958  12.630
59329W        W31055  38.096  37.791  12.139
59330W        W31056  36.368  34.234  13.447
59331W        W31057  23.194  28.163  11.929
59332W        W31058  30.011  33.105   4.477
59333W        W31059  29.990  26.926  13.398
59334W        W31060  25.221  14.195  11.192
59335W        W31061  43.110  36.941   4.298
59336W        W31062   7.708  29.946   1.243
59337W        W31063  30.435  10.195   0.691
59338W        W31064  24.708  10.160  12.548
59339W        W31065  38.488  19.257   0.241
59340W        W31066  32.538  16.250   3.079
59341W        W31067  16.666  23.585  12.786
59342W        W31068  26.753  18.654   2.883
59343W        W31069   6.888  12.790   4.605
59344W        W31070   7.621  34.858   1.845
59345W        W31071  18.169  10.741  14.801
59346W        W31072  26.101  24.252   1.628
59347W        W31073  22.171  32.150   3.674
59348W        W31074   4.253  35.206   2.370
59349W        W31075   8.240  24.923   1.757
59350W        W31076   7.194   8.316   5.030
59351W        W31077  24.492  35.814  12.583
59352W        W31078  27.865  23.313  13.829
59353W        W31079  17.946   4.176   2.412
59354W        W31080  20.972  33.382  12.459
59355W        W31081   6.179  27.170  14.422
59356W        W31082  16.207  33.941   3.207
59357W        W31083   4.915  40.401  12.269
59358W        W31084   8.413  36.689   0.442
59359W        W31085  14.877  27.954  12.361
59360W        W31086   2.843  26.962  10.644
59361W        W31087   0.844  20.557   2.188
59362W        W31088  24.626  30.721   0.733
59363W        W31089  18.619  16.946   3.697
59364W        W31090  24.131   3.885   1.731
59365W        W31091  16.191  11.180  12.016
59366W        W31092  19.749  11.173  13.430
59367W        W31093  19.238  13.197  11.946
59368W        W31094  14.559  26.358   2.598
59369W        W31095  17.135  36.075  14.032
59370W        W31096  21.667   6.706  12.842
59371W        W31097  39.132  25.102  11.954
59372W        W31098  38.936   5.395   1.729
59373W        W31099  27.594  24.692  14.427
59374W        W31100   7.101   5.936   3.216
59375W        W31101   9.853  13.782  14.890
59376W        W31102  16.957  22.874   0.896
59377W        W31103  12.419   5.729   2.648
59378W        W31104  38.666   8.323   4.302
59379W        W31105  16.957  29.764  13.158
59380W        W31106   2.921  15.322  13.409
59381W        W31107   4.813   9.870   4.716
59382W        W31108  24.292  35.468  11.482
59383W        W31109  25.485  19.353  13.868
59384W        W31110   4.910  43.853  13.538
59385W        W31111   0.578  22.601  14.393
59386W        W31112  44.343   7.376   2.944
59387W        W31113  29.648  42.773   9.933
59388W        W31114  20.396  38.416   2.772
59389W        W31115  38.526  33.707   0.017
59390W        W31116  43.005  44.973   2.235
59391W        W31117  44.846  27.218  12.461
59392W        W31118   9.384  34.051   2.647
59393W        W31119  31.938  44.805   2.686
59394W        W31120  24.102  40.402   2.223
59395W        W31121  42.214  31.422   0.415
59396W        W31122  42.011  37.422   0.273
59397W        W31123  25.498  16.755  11.590
59398W        W31124   3.161   3.659   1.164
59399W        W31125  30.370  23.495  14.403
59400W        W31126  42.394  30.410   1.249
59401W        W31127  32.995  40.550  12.007
59402W        W31128  43.917  36.281   5.087
59403W        W31129   7.758  28.990   0.367
59404W        W31130   9.118  39.929   1.393
59405W        W31131  39.416   3.646  14.974
59406W        W31132   8.797  34.706   2.574
59407W        W31133  20.618   0.560  11.351
59408W        W31134  15.763  40.496  11.530
59409W        W31135   4.363   3.692  11.551
59410W        W31136  38.848  16.158  13.482
59411W        W31137  43.272  11.370  14.953
59412W        W31138  21.577   4.298   0.905
59413W        W31139   3.224  14.027   0.828
59414W        W31140  30.633  21.478  11.196
59415W        W31141  20.765  22.013   2.339
59416W        W31142   0.973   4.981   1.761
59417W        W31143  22.962  41.286  14.470
59418W        W31144   9.988   0.118   4.099
59419W        W31145  28.294  42.865  12.276
59420W        W31146  41.743   3.587   2.232
59421W        W31147   3.224  30.553  14.792
59422W        W31148  10.250  31.715   5.020
59423W        W31149  40.333  21.467  13.901
59424W        W31150  18.586  15.717  10.885
59425W        W31151   5.253  26.025   3.907
59426W        W31152  21.129  13.067   9.815
59427W        W31153   5.425  25.997  12.575
59428W        W31154  34.944  15.626   2.210
59429W        W31155  28.461   1.533  12.403
59430W        W31156  21.894  29.593   4.038
59431W        W31157  22.748  29.217   1.663
59432W        W31158  16.012   3.901  13.831
59433W        W31159  38.440   3.657   2.100
59434W        W31160  29.280  24.129  13.485
59435W        W31161  12.402  29.941   2.648
59436W        W31162  20.962  41.376  14.721
59437W        W31163  41.451  35.618   1.829
59438W        W31164   4.249  21.292   1.775
59439W        W31165  41.292  38.439   0.769
59440W        W31166  21.600   8.574  11.792
59441W        W31167  28.053  21.130  12.491
59442W        W31168  36.393  24.277   0.024
59443W        W31169  34.882  17.169   0.313
59444W        W31170  25.551  23.011   1.210
59445W        W31171   6.288  26.767   2.002
59446W        W31172  31.011  20.051   3.138
59447W        W31173  22.001  21.956  14.858
59448W        W31174   9.897   7.298   2.758
59449W        W31175  39.860  23.154  10.627
59450W        W31176   9.364  30.433  12.923
59451W        W31177  10.124   9.144  14.474
59452W        W31178  18.591  18.607   4.093
59453W        W31179   3.869  10.192  10.703
59454W        W31180  19.515  30.416  13.072
59455W        W31181  14.517  37.960   4.541
59456W        W31182  21.260   1.054   3.033
59457W        W31183  18.459  24.368   2.008
59458W        W31184  19.750   7.707   0.529
59459W        W31185   6.153   4.382   0.564
59460W        W31186   6.124   0.524  11.933
59461W        W31187   1.125  25.172  13.966
59462W        W31188  30.723  32.928  11.684
59463W        W31189  13.825  35.347   1.551
59464W        W31190   7.994  14.977  14.443
59465W        W31191  25.249  28.626   2.558
59466W        W31192  23.150  35.159  10.952
59467W        W31193  32.390  13.345   0.735
59468W        W31194  25.969  17.112   1.639
59469W        W31195  19.205  31.652   4.130
59470W        W31196  11.358  12.114  14.638
59471W        W31197  20.721  22.648  12.053
59472W        W31198  27.583   6.876   4.628
59473W        W31199   1.659  22.597  13.578
59474W        W31200  31.710   9.631  12.461
59475W        W31201  32.972   0.462   2.373
59476W        W31202  23.474  37.122   2.431
59477W        W31203  21.073  15.390   3.754
59478W        W31204  44.389  30.656   4.129
59479W        W31205   6.945   3.597  11.189
59480W        W31206   3.845  10.095  12.032
59481W        W31207  30.712  44.321   2.939
59482W        W31208  11.395  23.299   0.898
59483W        W31209  14.576  10.766   1.786
59484W        W31210  22.095  35.043   1.832
59485W        W31211  42.897   6.148  13.133
59486W        W31212   1.890  27.932  10.928
59487W        W31213  42.229  18.670  12.122
59488W        W31214   5.353  21.577   0.305
59489W        W31215  32.854   1.759  14.822
59490W        W31216   5.874  20.073   2.681
59491W        W31217   3.373  28.786  12.394
59492W        W31218  24.537  14.295  12.989
59493W        W31219  27.835  43.895   4.304
59494W        W31220  19.996   3.114   4.942
59495W        W31221  33.323  13.675  12.026
59496W        W31222  34.523  19.720  14.850
59497W        W31223  44.468  15.205   2.368
59498W        W31224  13.363  14.253   0.529
59499W        W31225  10.217  22.849  10.254
59500W        W31226  13.045  14.696   1.799
59501W        W31227  27.740  18.294   0.508
59502W        W31228  35.407  13.188   4.602
59503W        W31229   8.865  40.690   1.026
59504W        W31230  31.149  24.191  10.182
59505W        W31231  19.054  42.717   0.696
59506W        W31232  34.397  28.662  13.059
59507W        W31233   0.676  10.425   2.867
59508W        W31234  22.446  33.912   0.914
59509W        W31235  39.013  43.128  11.195
59510W        W31236   6.739   5.863  10.586
59511W        W31237  14.098  41.457   1.865
59512W        W31238  35.547  43.716  11.983
59513W        W31239   3.832  23.546   1.450
59514W        W31240  33.185  28.449  11.976
59515W        W31241  25.743  27.390   3.577
59516W        W31242  30.589  21.100  12.505
59517W        W31243  17.138  14.391   2.132
59518W        W31244  34.805  34.152  11.091
59519W        W31245  41.440  10.225  11.233
59520W        W31246  33.545  32.541  13.976
59521W        W31247  25.270  41.911   1.016
59522W        W31248  14.623   5.582  11.365
59523W        W31249   6.845  12.605   0.456
59524W        W31250   1.791  36.837   1.494
59525W        W31251  10.924  29.493   3.606
59526W        W31252   2.967  23.060  13.810
59527W        W31253  22.807  10.607  11.163
59528W        W31254   3.275  16.319  13.974
59529W        W31255  29.888   1.557   1.706
59530W        W31256  27.755  44.273   1.514
59531W        W31257  38.610  35.954  14.340
59532W        W31258  37.085  26.906  13.532
59533W        W31259   1.292  21.328  10.355
59534W        W31260  33.592  17.581   1.458
59535W        W31261  34.628  21.089  13.493
59536W        W31262  42.520  42.264  14.770
59537W        W31263  17.586  13.809  13.884
59538W        W31264  18.130  31.137   0.924
59539W        W31265  33.458   2.719   2.906
59540W        W31266   9.317  30.686   1.260
59541W        W31267  29.726  35.112  10.758
59542W        W31268  23.084  35.638  10.734
59543W        W31269   4.259  34.569   4.354
59544W        W31270  21.864   6.866  10.956
59545W        W31271  37.333  35.526   1.270
59546W        W31272  38.852  38.965  12.251
59547W        W31273  38.586  16.015   1.823
59548W        W31274  44.478   4.361   2.396
59549W        W31275   6.644  40.733   1.813
59550W        W31276  40.496  18.287   4.648
59551W        W31277  38.104  18.717   2.252
59552W        W31278  32.835  25.904   5.346
59553W        W31279  31.871  41.925  11.528
59554W        W31280  33.816  21.157  13.317
59555W        W31281  44.288  19.631   3.752
59556W        W31282   5.767  37.849   4.687
59557W        W31283  10.056  40.295   3.685
59558W        W31284  16.589  25.883  11.610
59559W        W31285  21.707  31.153   1.918
59560W        W31286   6.149  11.404   4.056
59561W        W31287  34.624   2.189   2.476
59562W        W31288   3.415  44.412   1.505
59563W        W31289   8.875  13.828   1.336
59564W        W31290   4.287  40.609   1.833
59565W        W31291   0.969  25.600   3.998
59566W        W31292  25.975  19.988  10.667
59567W        W31293  37.333  27.991  14.814
59568W        W31294  16.331  42.897   3.326
59569W        W31295  10.395  36.755   5.059
59570W        W31296  32.195  34.567  14.426
59571W        W31297   0.287  18.743  12.581
59572W        W31298  17.274  26.664   0.361
59573W        W31299  25.050  27.912   0.682
59574W        W31300  44.536  13.767  11.159
59575W        W31301  18.840  24.708   1.367
59576W        W31302  30.205   4.239  11.841
59577W        W31303  36.337  36.531  13.864
59578W        W31304  34.002  41.916   2.659
59579W        W31305  24.250  42.954   1.707
59580W        W31306  10.012  24.268   0.988
59581W        W31307  33.408  41.464  13.386
59582W        W31308   0.319  18.969  13.875
59583W        W31309  34.731  37.498   1.682
59584W        W31310  33.764  21.728   4.350
59585W        W31311  41.003  27.493  14.069
59586W        W31312  31.563   0.702  12.493
59587W        W31313  14.176  27.016  11.104
59588W        W31314   1.178  16.987  12.376
59589W        W31315   0.246  38.976   4.060
59590W        W31316   0.055  13.836   0.721
59591W        W31317   0.329  32.163   0.427
59592W        W31318  16.924  39.168   3.866
59593W        W31319   3.329  24.583  14.922
59594W        W31320  25.893  33.054  14.457
59595W        W31321  12.149   0.285   2.173
59596W        W31322  36.493   9.982  14.062
59597W        W31323  27.114  39.566  12.018
59598W        W31324  32.579   3.310   5.062
59599W        W31325  43.296  40.993  11.541
59600W        W31326   2.730  29.185  14.829
59601W        W31327  11.269  35.456  10.773
59602W        W31328  39.721  34.990  12.027
59603W        W31329  42.218  17.654   4.293
59604W        W31330   3.561  16.233  10.890
59605W        W31331  18.361   9.714   2.566
59606W        W31332  36.381   7.817   1.950
59607W        W31333  10.263  40.870  12.882
59608W        W31334   6.850   4.220  14.003
59609W        W31335  27.774  31.269  13.043
59610W        W31336  26.409  28.156  14.877
59611W        W31337   8.014  36.121  12.064
59612W        W31338  36.584  35.447  11.661
59613W        W31339  24.294  34.938  11.677
59614W        W31340   3.819  10.181   4.429
59615W        W31341  20.694  31.563   1.944
59616W        W31342  33.008  15.404  12.610
59617W        W31343  25.981  44.502   4.578
59618W        W31344   0.755  10.733   4.089
59619W        W31345   9.526  39.255  13.835
59620W        W31346  29.893   7.054  11.147
59621W        W31347  41.564  39.037  13.076
59622W        W31348  21.420  30.625  14.378
59623W        W31349  33.999  41.248  13.822
59624W        W31350  41.786  11.131   4.672
59625W        W31351  33.614  37.844   3.101
59626W        W31352  41.810   9.255   0.940
59627W        W31353  18.354  24.104  12.471
59628W        W31354  38.791   1.337   1.336
59629W        W31355   0.934  33.119   1.761
59630W        W31356   4.260   6.331  13.851
59631W        W31357   2.999   2.729  14.909
59632W        W31358   5.602  10.496  10.598
59633W        W31359  14.513  17.019   1.316
59634W        W31360  13.322  27.270  10.735
59635W        W31361  23.969  37.367  12.498
59636W        W31362  24.211  27.691   2.816
59637W        W31363  15.193  23.786   2.179
59638W        W31364  10.788  40.997  12.914
59639W        W31365  40.139  20.568  11.127
59640W        W31366  19.178  41.109  14.874
59641W        W31367  21.199  17.634  14.208
59642W        W31368  21.701  33.648  13.978
59643W        W31369   4.840  21.579   2.227
59644W        W31370   2.806  25.466  10.770
59645W        W31371  38.235   1.962  10.410
59646W        W31372  38.299  11.262  14.445
59647W        W31373  19.530   0.786   0.122
59648W        W31374   6.132  25.581  13.832
59649W        W31375  27.545   1.053  12.513
59650W        W31376   0.371  29.720  11.105
59651W        W31377  40.393  16.287   2.804
59652W        W31378  10.788  29.009   3.420
59653W        W31379   3.821  29.525   2.855
59654W        W31380   1.516  31.251   2.220
59655W        W31381  41.890  43.035  11.456
59656W        W31382  15.246  38.514   3.899
59657W        W31383  13.766  40.004   0.552
59658W        W31384  12.347  34.258  13.082
59659W        W31385   0.806  39.845   1.697
59660W        W31386  19.432  25.594  12.402
59661W        W31387   5.867  25.705  14.565
59662W        W31388  16.096  30.699   4.296
59663W        W31389   0.285  32.675   3.267
59664W        W31390   2.340  39.031   2.831
59665W        W31391  25.549  32.681  12.133
59666W        W31392   7.626   5.158   5.284
59667W        W31393   4.205  30.854  13.958
59668W        W31394   3.660  28.462  12.131
59669W        W31395   8.367  43.290  12.049
59670W        W31396   5.716  21.318   2.750
59671W        W31397   3.601  37.379   3.092
59672W        W31398   8.904  23.133   3.200
59673W        W31399   1.831  15.305  10.741
59674W        W31400  32.331   8.270  13.956
59675W        W31401  14.570   9.036  14.265
59676W        W31402  24.073  39.055   4.775
59677W        W31403   8.733   4.351  13.540
59678W        W31404  27.232  20.059  13.957
59679W        W31405  23.807  44.553   0.469
59680W        W31406   7.794  31.660   2.800
59681W        W31407  41.487  21.476   1.969
59682W        W31408  25.934   1.378   2.556
59683W        W31409   3.801  25.395   1.317
59684W        W31410  39.615   7.815  12.545
59685W        W31411  31.380  38.247  13.496
59686W        W31412  23.606   5.405   3.099
59687W        W31413  32.702  31.626   4.279
59688W        W31414   7.412  15.852   0.354
59689W        W31415  38.631  12.338   2.790
59690W        W31416  26.305  19.530  12.918
59691W        W31417   2.399   4.830   0.254
59692W        W31418   6.400  29.773  14.091
59693W        W31419  28.968   8.837   3.453
59694W        W31420  20.975  38.864  12.798
59695W        W31421   2.224  14.583   3.851
59696W        W31422  34.213  33.023   2.831
59697W        W31423   6.908   9.156   2.710
59698W        W31424   9.983   2.362   3.112
59699W        W31425  26.518  30.131  10.682
59700W        W31426  37.901  44.520  13.889
59701W        W31427  25.368   7.468   3.824
59702W        W31428  25.488  29.731  11.483
59703W        W31429  33.187   9.357   3.894
59704W        W31430   5.430  39.974   0.375
59705W        W31431  41.516  37.912  10.726
59706W        W31432   3.326  13.491  11.623
59707W        W31433  14.354  31.921   3.212
59708W        W31434  43.386  41.395   4.642
59709W        W31435  24.444   6.319   4.626
59710W        W31436  43.949  33.633  12.936
59711W        W31437  32.555  43.752  12.083
59712W        W31438  25.444  19.385  14.799
59713W        W31439  34.585  39.073   2.911
59714W        W31440  20.625   0.504  10.830
59715W        W31441  25.382  34.573  13.949
59716W        W31442  21.300  22.612  14.542
59717W        W31443   6.625  43.427   1.832
59718W        W31444  41.552  29.657  12.458
59719W        W31445  14.754   0.806   2.203
59720W        W31446  34.358   4.414  11.410
59721W        W31447  13.411  14.293  14.445
59722W        W31448  33.563  36.797  13.866
59723W        W31449   5.269  12.782   4.194
59724W        W31450  30.514  32.551  10.860
59725W        W31451  20.184   5.371   4.197
59726W        W31452   3.911  21.478   0.814
59727W        W31453  11.292  10.576  12.517
59728W        W31454  32.889  26.393   0.383
59729W        W31455  17.647  13.149   3.786
59730W        W31456  39.592  38.893  11.665
59731W        W31457   9.451   2.880   3.641
59732W        W31458  44.362   7.736   4.575
59733W        W31459  29.994   2.430  12.335
59734W        W31460   0.928  14.620  11.990
59735W        W31461  10.626  13.155  11.890
59736W        W31462  38.357  13.061  10.501
59737W        W31463  39.382   6.746  10.803
59738W        W31464  11.833  28.404  11.655
59739W        W31465  24.529  11.091  13.527
59740W        W31466  32.922  25.516  13.390
59741W        W31467  21.730  23.646  13.378
59742W        W31468  39.988  29.860  10.791
59743W        W31469  16.544  14.792  13.054
59744W        W31470  23.670  24.706   1.623
59745W        W31471  11.734  25.559   4.532
59746W        W31472  19.037  30.635  10.999
59747W        W31473  17.713  37.806   0.552
59748W        W31474  35.943  15.433  14.793
59749W        W31475  21.602   9.606   0.848
59750W        W31476  13.077  33.011  14.785
59751W        W31477  19.164  28.114   4.904
59752W        W31478  30.375  43.978  10.201
59753W        W31479  31.352  13.689  12.411
59754W        W31480  15.198  22.672   4.136
59755W        W31481  10.622  14.510   0.213
59756W        W31482   0.293  42.479   1.329
59757W        W31483  11.715  12.260  13.951
59758W        W31484   3.735  17.809  11.971
59759W        W31485  20.718   3.409  13.585
59760W        W31486  20.401  27.708   9.869
59761W        W31487  35.011  27.950  12.931
59762W        W31488  30.383  36.349   2.945
59763W        W31489  19.233  31.642  12.433
59764W        W31490  10.343  17.153   1.884
59765W        W31491  36.846   9.674  12.438
59766W        W31492  44.261  32.147   1.281
59767W        W31493  35.951   0.037  13.794
59768W        W31494   6.814  21.741   1.966
59769W        W31495   5.091  39.552  10.149
59770W        W31496  17.722   1.521  10.996
59771W        W31497  26.486   6.918  12.493
59772W        W31498  13.337  15.384   2.282
59773W        W31499  38.491  40.329  14.340
59774W        W31500  13.545  39.939  10.656
59775W        W31501  31.032   6.323  11.676
59776W        W31502  12.707  20.970  13.230
59777W        W31503  32.472  29.557   0.667
59778W        W31504  12.120  16.818   3.795
59779W        W31505  38.263  21.103  11.142
59780W        W31506  16.596  11.660  13.455
59781W        W31507  23.141  43.492   1.699
59782W        W31508  43.250  44.975   0.425
59783W        W31509  32.580  28.862  11.076
59784W        W31510  19.994  38.435   1.305
59785W        W31511  19.117  40.071  11.159
59786W        W31512  37.763  29.862  13.754
59787W        W31513  32.639   3.022  12.006
59788W        W31514   3.906  19.320   4.202
59789W        W31515  36.886  16.362   0.882
59790W        W31516  22.936   1.034  10.241
59791W        W31517   4.001   9.157   3.908
59792W        W31518  28.115  38.591  12.998
59793W        W31519   5.848  15.077  14.733
59794W        W31520  40.496   2.320   2.833
59795W        W31521  12.693  25.397  11.994
59796W        W31522  35.018  21.672  14.106
59797W        W31523  41.278  40.836  11.292
59798W        W31524  10.304  23.478   2.549
59799W        W31525  34.350  31.164   0.764
59800W        W31526   7.320  38.501  11.882
59801W        W31527  43.429   4.885  14.918
59802W        W31528  42.023   1.721  14.352
59803W        W31529  30.039  21.433   3.673
59804W        W31530   8.126   4.285   4.750
59805W        W31531  17.968  27.145   1.385
59806W        W31532  40.237  35.912   4.549
59807W        W31533  41.095  35.046   3.156
59808W        W31534  16.529  22.550   0.987
59809W        W31535  32.079  21.124   5.140
59810W        W31536  42.082  19.145  10.821
59811W        W31537  20.876  37.302  10.528
59812W        W31538  38.029  22.719  13.157
59813W        W31539   3.271  15.821  11.134
59814W        W31540  27.574  31.647  14.640
59815W        W31541  15.994   7.229   4.185
59816W        W31542  12.069  38.605  11.597
59817W        W31543  37.115  30.088  14.528
59818W        W31544  26.553  38.048   4.170
59819W        W31545   2.744  27.235   1.071
59820W        W31546   8.320  39.926  13.524
59821W        W31547   2.709  33.995  13.389
59822W        W31548  30.254  34.492  12.320
59823W        W31549  36.136  40.752  14.258
59824W        W31550  37.903  12.787  10.548
59825W        W31551   8.862  38.870  11.988
59826W        W31552  40.731   4.822   4.599
59827W        W31553  41.062  10.606  11.998
59828W        W31554  21.868   4.361   3.700
59829W        W31555  23.132  32.619   0.855
59830W        W31556  37.227  34.396  13.466
59831W        W31557   5.627  12.671  13.580
59832W        W31558  35.905  23.651  13.159
59833W        W31559  27.671  36.395  13.835
59834W        W31560  13.274  35.092   0.948
59835W        W31561   7.929  15.997  13.728
59836W        W31562  44.218  16.544  12.548
59837W        W31563  28.103  37.735  10.281
59838W        W31564  17.571  10.746   4.041
59839W        W31565   2.314   9.608  12.467
59840W        W31566  38.649  11.693  10.887
59841W        W31567  22.804   2.761  13.906
59842W        W31568  25.026  24.431  12.079
59843W        W31569   5.608  24.697  13.815
59844W        W31570  18.968  31.978  14.533
59845W        W31571  33.858   4.729   2.139
59846W        W31572  44.932  32.433   0.229
59847W        W31573  30.931   4.505   1.263
59848W        W31574  41.529   0.339   4.969
59849W        W31575   9.759  20.733   1.440
59850W        W31576  16.086  32.847   0.655
59851W        W31577  13.604  17.396   0.430
59852W        W31578  32.891  31.608   3.666
59853W        W31579  20.635  43.526  10.697
59854W        W31580  35.549   1.025   0.747
59855W        W31581  18.476  28.889  11.998
59856W        W31582   6.813  22.040   2.381
59857W        W31583   7.366  15.059  12.889
59858W        W31584   9.704  10.374   0.881
59859W        W31585  26.772  29.597  12.943
59860W        W31586  32.805  10.270   3.545
59861W        W31587   3.245  34.543   1.892
59862W        W31588  41.751   8.756  12.073
59863W        W31589  33.161   3.853   3.290
59864W        W31590  40.531  33.891   3.689
59865W        W31591  15.532  39.946  12.535
59866W        W31592  25.392   3.438   1.307
59867W        W31593  38.606  36.647  14.758
59868W        W31594  11.372  31.142  11.731
59869W        W31595   4.877  18.207  12.544
59870W        W31596   1.036   4.404  11.114
59871W        W31597  43.298  37.921  10.725
59872W        W31598  21.830  37.394   2.666
59873W        W31599  26.412  30.421  13.984
59874W        W31600  41.012  37.950  11.938
59875W        W31601  31.680  28.524   3.649
59876W        W31602  17.240   0.853   4.337
59877W        W31603  15.115  30.039  14.921
59878W        W31604  16.482  19.809   5.037
59879W        W31605  31.085   3.686   3.396
59880W        W31606  30.494  22.276   1.625
59881W        W31607   1.863  37.785   1.844
59882W        W31608  16.957  19.572   4.990
59883W        W31609  41.917  11.415   0.958
59884W        W31610  31.656  11.192  12.471
59885W        W31611   8.213  11.121  12.604
59886W        W31612  38.864  43.816  14.963
59887W        W31613  38.612   9.196   0.452
59888W        W31614   8.456  42.016   2.107
59889W        W31615  34.959  10.215  14.038
59890W        W31616  21.255  24.744   2.311
59891W        W31617  16.595  40.993   1.284
59892W        W31618  29.727  32.420  11.497
59893W        W31619  45.000  40.688   0.412
59894W        W31620  10.383   5.186   3.134
59895W        W31621  38.051  29.174  12.320
59896W        W31622  40.720  28.541  13.050
59897W        W31623  34.298  19.300  12.325
59898W        W31624  30.025  38.006  14.486
59899W        W31625  15.689   1.033  12.406
59900W        W31626  13.053  15.223  10.706
59901W        W31627  31.523   6.823   0.734
59902W        W31628  19.721  19.093   3.868
59903W        W31629   4.341  25.945   0.809
59904W        W31630  44.200  43.437  11.713
59905W        W31631  21.618  25.616   1.392
59906W        W31632  38.785  20.528  10.859
59907W        W31633   1.812  10.658   4.095
59908W        W31634  26.821  32.565  13.441
59909W        W31635  35.400  10.133  10.714
59910W        W31636  44.380   9.942  13.342
59911W        W31637  30.179   1.189   4.364
59912W        W31638  40.252  32.195   3.310
59913W        W31639  39.834  23.778   0.947
59914W        W31640   9.856  29.568   2.935
59915W        W31641  18.718  27.222  14.292
59916W        W31642  21.678  28.564  14.089
59917W        W31643  27.992  11.166   4.418
59918W        W31644   2.380  42.337   2.402
59919W        W31645   1.772   4.854  13.815
59920W        W31646  18.692  40.948  14.793
59921W        W31647  41.773   1.754   2.342
59922W        W31648  36.437  43.303  13.745
59923W        W31649  13.382  25.090   3.682
59924W        W31650  23.739  10.747   3.570
59925W        W31651  20.995  11.695   2.457
59926W        W31652  26.234   8.278   4.148
59927W        W31653  12.354  40.432   2.519
59928W        W31654  15.527  41.259   3.297
59929W        W31655   9.357  17.673  14.556
59930W        W31656  32.889  20.520   4.661
59931W        W31657  43.811  37.233  12.466
59932W        W31658  43.216  36.896   0.924
59933W        W31659  22.938  32.422  11.547
59934W        W31660   7.421  41.981   0.374
59935W        W31661  15.052  27.921  11.455
59936W        W31662  10.116  26.728   2.296
59937W        W31663  29.235  25.511   3.373
59938W        W31664  24.181   8.849  12.876
59939W        W31665  43.773  34.021  10.672
59940W        W31666  44.290   3.720   4.498
59941W        W31667  33.558  42.145  12.142
59942W        W31668  14.003   6.671   3.858
59943W        W31669  12.031  42.360  13.474
59944W        W31670  30.236  10.427   2.257
59945W        W31671  33.914  42.804   5.315
59946W        W31672  16.179   9.375   0.248
59947W        W31673  39.410   4.489   4.295
59948W        W31674   7.757  35.881  13.293
59949W        W31675  37.047  10.143  14.965
59950W        W31676  26.919  24.647  12.147
59951W        W31677   9.007   3.386   0.941
59952W        W31678  15.736  32.015  10.946
59953W        W31679   8.889   9.842  13.232
59954W        W31680  36.597  28.232   0.286
59955W        W31681  35.484  18.740   0.395
59956W        W31682  19.246  14.083  10.773
59957W        W31683  19.566   0.702   2.318
59958W        W31684  24.045   7.788  13.497
59959W        W31685  33.368  38.884  14.759
59960W        W31686   2.024   7.488  11.076
59961W        W31687  10.267  27.221  14.005
59962W        W31688   3.766   1.364   4.131
59963W        W31689  13.806  39.515   1.887
59964W        W31690  26.209  21.142   4.067
59965W        W31691  22.951   3.897  10.373
59966W        W31692  33.601  27.461  11.563
59967W        W31693   7.811  12.225  14.050
59968W        W31694  39.833  20.565   3.563
59969W        W31695  11.424  33.349   1.898
59970W        W31696  34.957  38.912  11.600
59971W        W31697   8.891   7.182   3.784
59972W        W31698  17.541  40.258  11.461
59973W        W31699  20.650  18.261   2.671
59974W        W31700   0.038   3.762   1.776
59975W        W31701   3.386  20.189  12.924
59976W        W31702  23.949  25.894   1.287
59977W        W31703  10.422  19.524  14.934
59978W        W31704   2.936  22.491  13.369
59979W        W31705  29.807  14.170   0.116
59980W        W31706   5.661  44.991   3.231
59981W        W31707  35.132   1.037   2.186
59982W        W31708  38.529  40.205  13.813
59983W        W31709   2.158  32.956  12.772
59984W        W31710  38.464  16.903   4.567
59985W        W31711  44.483   7.981   4.080
59986W        W31712  22.128  13.390  14.717
59987W        W31713  35.593   2.837  12.641
59988W        W31714  14.428  25.502  12.527
59989W        W31715   8.325  13.355   0.324
59990W        W31716  26.222   4.843  11.456
59991W        W31717  38.397  36.046   2.811
59992W        W31718  30.569   3.160  11.131
59993W        W31719   4.421  43.966  10.580
59994W        W31720  35.961  32.552   1.937
59995W        W31721   9.268  29.243  12.058
59996W        W31722  10.727  14.881   3.879
59997W        W31723   5.197  11.673  10.418
59998W        W31724   2.790  25.698  14.023
59999W        W31725  42.197   9.102   2.347
60000W        W31726  36.354  17.059   4.015
60001W        W31727   6.890  29.089   2.772
60002W        W31728   2.478  18.545   0.050
60003W        W31729  23.716  25.644   4.849
60004W        W31730  17.574  10.191   4.724
60005W        W31731   9.195   7.924  12.943
60006W        W31732  25.171  21.906  12.010
60007W        W31733  34.444  22.726  10.529
60008W        W31734  11.345  43.363  12.006
60009W        W31735  15.709  41.271  10.844
60010W        W31736  41.225  44.449  13.563
60011W        W31737  21.816  23.060   0.344
60012W        W31738   9.585  30.552  14.715
60013W        W31739  29.496  11.942  11.192
60014W        W31740  32.547  29.514  11.509
60015W        W31741  25.271  27.649   3.692
60016W        W31742  41.755   7.283  12.575
60017W        W31743   2.896  34.210   3.133
60018W        W31744   0.766  30.669  13.780
60019W        W31745  35.011  41.074  11.999
60020W        W31746  20.263  25.679   1.693
60021W        W31747  33.898  37.204   2.287
60022W        W31748   1.653  21.324  12.094
60023W        W31749  26.700   6.676  12.094
60024W        W31750  13.832  33.809  12.053
60025W        W31751   8.646  27.892   4.952
60026W        W31752  32.878  44.695   0.387
60027W        W31753  24.402  26.105  11.682
60028W        W31754  14.368  11.748   2.157
60029W        W31755   9.402   5.454   2.732
60030W        W31756  23.713  19.275   4.739
60031W        W31757   6.897   9.455  12.923
60032W        W31758  26.887   2.719   4.875
60033W        W31759   0.522  19.053   3.858
60034W        W31760  21.316  43.312   2.619
60035W        W31761  43.727   7.424  14.072
60036W        W31762  28.682  32.554  12.344
60037W        W31763  30.455   7.125   1.865
60038W        W31764  41.024  22.457   1.823
60039W        W31765  20.332  43.742   2.958
60040W        W31766   8.575  13.695  14.287
60041W        W31767   1.413  23.412   2.216
60042W        W31768  19.133  40.563   1.140
60043W        W31769  13.447   7.135  11.477
60044W        W31770  10.134   7.407   1.010
60045W        W31771  39.820  21.056   4.235
60046W        W31772  29.780  11.714  11.534
60047W        W31773   9.923  19.348   0.180
60048W        W31774  29.292   0.378   2.395
60049W        W31775  25.036   5.642   1.833
60050W        W31776   1.773  39.555  13.212
60051W        W31777  28.594  21.646   2.027
60052W        W31778  12.712  13.699  10.805
60053W        W31779  17.977   5.509  14.427
60054W        W31780  39.328  23.595   3.158
60055W        W31781  27.613   0.966   4.536
60056W        W31782  26.772  35.769  11.109
60057W        W31783  11.494  35.959   5.246
60058W        W31784  37.115  36.967   3.844
60059W        W31785   9.468  41.434  12.693
60060W        W31786  28.594  28.351  12.557
60061W        W31787  26.963   0.755  14.912
60062W        W31788  35.181   3.400   3.059
60063W        W31789  35.596  21.383  13.285
60064W        W31790  39.934  44.360   3.616
60065W        W31791   1.959  19.063   4.358
60066W        W31792  39.320  35.890  14.975
60067W        W31793  43.983  31.289   4.858
60068W        W31794  22.695  15.372  12.973
60069W        W31795  28.742   3.806  13.315
60070W        W31796  23.012   6.680   3.542
60071W        W31797  14.114  34.338   2.234
60072W        W31798  16.295  25.499   1.740
60073W        W31799   7.313   3.182  11.233
60074W        W31800   2.764   8.221  13.810
60075W        W31801   1.239  18.470  13.470
60076W        W31802  38.381  13.758   4.670
60077W        W31803  42.989  10.708  11.607
60078W        W31804  38.801  27.555  11.104
60079W        W31805  17.032   9.674   2.319
60080W        W31806  27.420  22.229   2.331
60081W        W31807  37.461  17.786   0.278
60082W        W31808   8.586  39.436   0.640
60083W        W31809  36.070  41.853  13.619
60084W        W31810  27.636  32.444   2.289
60085W        W31811   3.872  27.640  11.594
60086W        W31812  22.056   8.727  10.548
60087W        W31813  44.427  20.991  14.032
60088W        W31814   2.381  25.961   1.199
60089W        W31815   4.122  10.266   1.211
60090W        W31816   0.884  24.774   4.359
60091W        W31817   6.641  17.366   3.615
60092W        W31818  29.086  32.900   0.472
60093W        W31819   3.820  21.898  11.844
60094W        W31820  24.725  32.006  13.453
60095W        W31821   6.207  35.802   1.791
60096W        W31822   3.489   9.922   1.678
60097W        W31823   5.010   6.087   0.366
60098W        W31824  43.395  38.713  12.548
60099W        W31825  14.310  37.870  11.507
60100W        W31826   5.396  16.994   0.049
60101W        W31827  25.429   5.324  11.445
60102W        W31828  24.825  20.231  12.506
60103W        W31829   8.515  39.943   4.096
60104W        W31830  24.639  21.041  10.076
60105W        W31831  13.864  17.569   1.702
60106W        W31832  33.401  30.710  13.858
60107W        W31833  24.866  44.545  10.688
60108W        W31834  41.115  14.153   3.183
60109W        W31835  41.370  14.909  11.319
60110W        W31836  41.617  14.783   2.828
60111W        W31837  37.518  21.214   1.393
60112W        W31838  25.700  16.785   2.969
60113W        W31839  18.831  26.363  12.959
60114W        W31840  19.267  14.775   1.369
60115W        W31841  25.428  35.508  14.485
60116W        W31842   8.916  36.961   2.198
60117W        W31843  23.212  42.055  14.414
60118W        W31844   7.435  18.609   1.661
60119W        W31845  14.395  25.493  10.701
60120W        W31846  36.147  28.190   3.895
60121W        W31847  32.022  25.883   4.146
60122W        W31848   1.658  40.877   4.699
60123W        W31849  16.067  18.284  13.919
60124W        W31850   4.920   4.044   2.376
60125W        W31851  44.790   4.004  12.939
60126W        W31852  14.610  20.645  11.476
60127W        W31853  41.550  12.620  11.768
60128W        W31854  25.481  20.282  12.025
60129W        W31855  14.189  20.519  13.791
60130W        W31856  12.335   4.154   3.575
60131W        W31857  41.456  29.959   3.579
60132W        W31858   2.220  29.185  14.393
60133W        W31859   5.299  42.915  13.724
60134W        W31860  32.183   7.370  12.883
60135W        W31861  24.664  21.194   0.351
60136W        W31862  22.140  17.651   4.554
60137W        W31863  12.282  22.068   1.494
60138W        W31864  21.770  11.663   3.592
60139W        W31865  39.022   1.283   3.490
60140W        W31866  21.049  10.297  14.604
60141W        W31867  17.647  28.551  10.717
60142W        W31868  14.856  10.737  11.579
60143W        W31869  42.411  44.233   2.442
60144W        W31870   2.945  11.656  11.683
60145W        W31871  11.431  30.451   0.351
60146W        W31872  25.198   6.162  13.181
60147W        W31873  15.054   9.513   0.181
60148W        W31874   5.190  38.172   3.260
60149W        W31875  29.475  17.640   4.488
60150W        W31876   3.235  43.549  13.634
60151W        W31877  35.495  42.398   3.044
60152W        W31878  12.349  17.179  12.656
60153W        W31879  39.608   1.835  11.101
60154W        W31880  36.460  29.805   2.139
60155W        W31881  11.934  10.230  11.535
60156W        W31882   5.924   5.479   4.989
60157W        W31883  21.618   6.798   4.501
60158W        W31884  17.548   5.818  11.705
60159W        W31885  28.248  39.773  14.459
60160W        W31886   6.894  12.051  12.904
60161W        W31887  43.982  27.683  10.763
60162W        W31888  31.001  32.527  13.281
60163W        W31889  31.392  43.861   5.402
60164W        W31890  43.316  20.632  13.513
60165W        W31891  11.815  28.479   1.341
60166W        W31892   7.764  24.440  12.372
60167W        W31893  12.019  36.773  14.870
60168W        W31894  16.832  10.407   0.983
60169W        W31895   4.671  36.956  14.986
60170W        W31896  33.903   2.913  12.502
60171W        W31897  13.133  34.605   0.752
60172W        W31898   5.170  41.241   0.917
60173W        W31899   2.067  28.174  13.595
60174W        W31900   6.398  15.148  10.916
60175W        W31901   1.980  17.072  14.098
60176W        W31902  35.649  21.536  10.755
60177W        W31903   6.548  30.278   4.356
60178W        W31904  17.748   7.424  12.966
60179W        W31905  12.898  23.035   0.640
60180W        W31906  22.105   2.718   4.696
60181W        W31907   7.955   3.424   0.744
60182W        W31908  21.152   1.314  10.731
60183W        W31909  44.275   8.990   1.342
60184W        W31910  36.863  17.480   1.276
60185W        W31911  30.207  23.972   0.899
60186W        W31912  39.451  10.587  14.971
60187W        W31913  22.292  40.894  13.320
60188W        W31914  18.847  23.238  14.096
60189W        W31915  27.659  16.819  10.730
60190W        W31916  32.831  15.834   3.139
60191W        W31917  29.270  34.917   1.349
60192W        W31918  39.075  36.470   3.733
60193W        W31919  21.267  11.644  14.748
60194W        W31920  32.086  22.967  10.181
60195W        W31921  40.347   5.762  10.671
60196W        W31922  25.869   7.420   3.717
60197W        W31923   0.721  37.611   1.505
60198W        W31924  33.915  11.230   1.693
60199W        W31925  19.234  32.042  10.159
60200W        W31926  34.936   2.913  11.640
60201W        W31927   2.874  11.163  12.995
60202W        W31928  28.632   1.910  10.651
60203W        W31929  43.887  39.948   0.357
60204W        W31930  37.924   1.492  13.852
60205W        W31931  30.209  17.101  13.025
60206W        W31932   5.029  14.238   3.196
60207W        W31933   8.413   5.202  10.249
60208W        W31934  40.004   4.274   1.291
60209W        W31935   0.935  16.747   0.477
60210W        W31936  41.278  30.538   4.247
60211W        W31937  19.764   0.472  12.808
60212W        W31938  25.559  39.759  12.164
60213W        W31939  43.782  44.284   0.739
60214W        W31940  44.980  22.410   4.203
60215W        W31941  10.682  32.907  14.358
60216W        W31942   1.796  42.401  14.521
60217W        W31943  41.034  11.856  12.624
60218W        W31944  37.759  29.443  14.533
60219W        W31945   0.429  38.108  14.605
60220W        W31946   0.821  43.059   1.712
60221W        W31947   3.976  24.012  12.759
60222W        W31948  35.328  35.967  13.121
60223W        W31949   1.718  14.314  11.971
60224W        W31950  35.014  15.984  10.110
60225W        W31951   1.954  28.197   3.231
60226W        W31952  25.516   6.967   4.604
60227W        W31953  10.958  38.369  13.343
60228W        W31954  44.336  33.563   0.802
60229W        W31955  26.655  33.452  11.999
60230W        W31956  40.311  16.481   0.023
60231W        W31957  27.392  16.481  11.648
60232W        W31958  34.378  40.890   0.983
60233W        W31959  42.212  19.535   3.442
60234W        W31960  30.148  24.593  10.678
60235W        W31961  21.008   8.259   3.287
60236W        W31962   5.926  28.472   2.690
60237W        W31963  26.312  42.132  12.137
60238W        W31964  15.037  34.489  12.583
60239W        W31965   7.411  30.678   0.620
60240W        W31966   7.831  27.764  10.828
60241W        W31967  31.089  20.292  11.575
60242W        W31968  43.747  28.887   0.759
60243W        W31969  20.256  27.028   2.007
60244W        W31970  29.864  19.139   3.482
60245W        W31971  16.717  16.487   0.383
60246W        W31972  41.447  13.142   3.399
60247W        W31973   8.775  11.273   2.325
60248W        W31974  25.421  17.425  13.021
60249W        W31975  42.802   2.920  10.890
60250W        W31976  40.017  34.263   2.714
60251W        W31977  35.307  19.172   3.801
60252W        W31978   1.680  16.142   1.262
60253W        W31979   4.835  20.115   1.166
60254W        W31980  21.288  31.855   4.672
60255W        W31981  20.645  27.009   4.708
60256W        W31982  35.943   0.251   1.764
60257W        W31983  41.716  30.378   3.372
60258W        W31984  28.042  14.585  10.295
60259W        W31985  27.920  19.946  11.047
60260W        W31986   3.085  43.745  14.588
60261W        W31987  11.867  34.970  10.659
60262W        W31988  35.431  23.551   0.923
60263W        W31989  23.698  33.087   3.583
60264W        W31990  12.353  10.007   0.578
60265W        W31991  31.022   2.883   2.595
60266W        W31992   2.284  39.368   1.055
60267W        W31993  10.177  42.423   0.955
60268W        W31994  27.557  26.666   3.228
60269W        W31995   2.807  36.473  14.848
60270W        W31996  26.013  21.055   1.687
60271W        W31997  36.934  28.005   0.701
60272W        W31998  15.181  34.486  12.090
60273W        W31999   1.952  28.850  12.025
60274W        W32000   3.901  44.857  10.647
60275W        W32001  12.779   3.957   0.395
60276W        W32002  16.815  29.896   2.732
60277W        W32003  28.956  31.898   4.643
60278W        W32004  38.571  40.838  14.436
60279W        W32005  25.648  37.640  12.917
60280W        W32006  29.981  39.985   0.127
60281W        W32007  37.623  44.506   2.347
60282W        W32008  42.756  15.518  12.941
60283W        W32009  10.932   2.541   2.690
60284W        W32010  19.225  43.972   2.210
60285W        W32011   7.266  34.589   3.355
60286W        W32012   8.124  38.081   0.448
60287W        W32013  30.369  31.513  10.695
60288W        W32014  28.623  39.076  12.035
60289W        W32015  34.334   6.143  14.488
60290W        W32016  38.820  10.045  14.463
60291W        W32017  41.089  19.226  13.339
60292W        W32018  22.311   5.978  12.520
60293W        W32019  44.906   7.893  11.615
60294W        W32020  13.185   8.181  11.698
60295W        W32021  36.130  43.849   4.903
60296W        W32022  36.534  40.704  10.704
60297W        W32023  19.149  16.825   3.844
60298W        W32024  41.914  27.713  10.488
60299W        W32025   9.756  25.493  12.404
60300W        W32026   9.145  26.659   3.147
60301W        W32027  19.834   6.102  14.328
60302W        W32028  22.647  41.759  10.713
60303W        W32029  28.427  18.812  10.651
60304W        W32030  37.344  28.020   3.567
60305W        W32031  43.835   3.536  12.618
60306W        W32032  13.789  39.390  12.536
60307W        W32033   8.380  42.513   2.253
60308W        W32034  40.273  38.997   0.248
60309W        W32035  18.576   3.762   1.924
60310W        W32036  18.639  32.524   4.804
60311W        W32037  18.605  39.983   2.370
60312W        W32038  22.639  29.044  14.453
60313W        W32039  20.909  23.515   4.560
60314W        W32040  10.135  42.878  14.716
60315W        W32041  42.720  13.736   2.639
60316W        W32042  17.353  35.182  11.703
60317W        W32043   6.863  18.579  14.964
60318W        W32044  20.039  27.505   2.822
60319W        W32045  44.835  13.614  11.553
60320W        W32046  43.894  15.108   0.357
60321W        W32047  39.929  38.127   3.286
60322W        W32048  37.416  39.885  12.800
60323W        W32049   5.419  38.385  11.137
60324W        W32050   3.277   1.129   1.915
60325W        W32051  18.696  28.677   1.377
60326W        W32052  31.948  14.665  12.943
60327W        W32053  41.560   8.742  13.060
60328W        W32054   8.931  23.207   5.127
60329W        W32055  18.546  42.418   2.402
60330W        W32056  23.141  36.345  12.874
60331W        W32057  36.566   5.686   4.400
60332W        W32058  22.690  30.869   3.721
60333W        W32059   6.901  40.169  11.026
60334W        W32060  20.241  20.715   0.944
60335W        W32061  31.062  41.544   4.815
60336W        W32062  14.112  16.107  11.562
60337W        W32063   9.882   8.723   0.898
60338W        W32064  44.592  44.892   0.344
60339W        W32065   3.263  37.380  11.906
60340W        W32066  10.414  39.994  13.370
60341W        W32067  17.967   2.882  13.396
60342W        W32068  34.429  31.913   2.732
60343W        W32069  11.579  44.283   4.631
60344W        W32070   4.071   1.333   0.870
60345W        W32071  31.900   1.720  14.404
60346W        W32072  11.621  15.662  14.142
60347W        W32073  42.816  42.791   2.255
60348W        W32074  19.621  12.231  12.012
60349W        W32075  30.930  21.039  14.430
60350W        W32076   0.447  30.544   0.416
60351W        W32077   9.259  26.052   0.350
60352W        W32078  18.191  36.951   4.409
60353W        W32079  28.973  36.577   3.442
60354W        W32080   5.714  28.889   1.315
60355W        W32081   7.131  44.017  13.412
60356W        W32082  41.061  19.788  12.603
60357W        W32083  30.521  10.186   3.580
60358W        W32084  23.858  19.261  14.402
60359W        W32085  16.646   4.752  12.602
60360W        W32086  17.759   3.439   2.408
60361W        W32087  22.604  15.623  13.438
60362W        W32088   9.152  29.610  12.438
60363W        W32089  43.357  17.081   1.503
60364W        W32090   2.567  12.033   2.613
60365W        W32091   8.383  38.331   2.086
60366W        W32092  30.059  15.954  14.493
60367W        W32093  18.741   2.603   4.166
60368W        W32094  37.514  26.191   1.529
60369W        W32095  31.794  18.240   2.363
60370W        W32096  26.027   0.928   3.853
60371W        W32097  23.187   3.432  11.071
60372W        W32098  42.272  39.265   2.288
60373W        W32099  39.717  22.467  14.692
60374W        W32100  32.650  21.769   4.277
60375W        W32101  36.415   7.853  11.830
60376W        W32102  28.709  26.580  13.866
60377W        W32103  23.370  16.030  12.876
60378W        W32104   5.334  20.143   0.967
60379W        W32105  38.243  41.214  12.042
60380W        W32106  29.431  30.882   3.180
60381W        W32107  27.256  22.601   3.985
60382W        W32108   8.854  21.357  14.895
60383W        W32109  10.832   6.650  11.618
60384W        W32110  29.578  13.384   0.354
60385W        W32111  30.180  11.603   4.144
60386W        W32112  37.532  17.023   0.862
60387W        W32113  37.482   1.504  12.003
60388W        W32114  18.213  25.248   1.279
60389W        W32115   3.878   9.700   0.286
60390W        W32116  20.538  20.105  11.597
60391W        W32117  14.649  14.526  13.524
60392W        W32118  21.279  22.241  13.320
60393W        W32119  20.249   8.810  13.442
60394W        W32120   4.818  24.345  13.823
60395W        W32121  44.883  16.264   0.617
60396W        W32122  27.393  10.273  12.951
60397W        W32123  37.119  26.537   1.584
60398W        W32124  11.273  39.336   4.154
60399W        W32125   4.183  22.398   4.943
60400W        W32126  30.600  19.641  11.796
60401W        W32127   3.048  11.168   2.243
60402W        W32128  32.850  10.876   1.432
60403W        W32129   3.311  19.484   5.033
60404W        W32130  42.890  39.117  11.303
60405W        W32131  42.763   9.812  13.811
60406W        W32132  29.568  42.788  12.418
60407W        W32133   6.876  39.947   3.342
60408W        W32134  40.368  22.462   1.318
60409W        W32135  40.548  34.935  12.345
60410W        W32136  13.261   8.361  14.931
60411W        W32137  26.057  36.854  11.416
60412W        W32138  14.270  14.750  10.710
60413W        W32139  43.803  10.301   0.500
60414W        W32140  30.182  14.281   1.323
60415W        W32141  41.851  36.854   0.364
60416W        W32142   1.478  18.503   4.716
60417W        W32143  23.686  13.260  13.102
60418W        W32144  15.003  24.816  12.873
60419W        W32145  29.889   7.162   0.299
60420W        W32146  10.691   9.672   1.534
60421W        W32147  18.873  39.926   0.659
60422W        W32148  24.197  19.342   4.589
60423W        W32149  44.704  34.914  10.800
60424W        W32150  20.012  42.647   1.234
60425W        W32151   4.314  33.720   4.716
60426W        W32152  28.379  26.968   1.657
60427W        W32153  38.915  17.609  12.434
60428W        W32154  42.735  41.090   1.777
60429W        W32155  40.253  35.333  10.706
60430W        W32156  12.262  28.535   1.628
60431W        W32157  39.496   2.244  11.441
60432W        W32158  27.301   4.743  12.598
60433W        W32159  18.475  13.904  14.916
60434W        W32160  20.633  13.273   2.619
60435W        W32161   8.671  35.578   2.811
60436W        W32162  40.451  41.565   2.434
60437W        W32163  27.212   4.540   2.135
60438W        W32164  29.459  19.067  10.733
60439W        W32165   3.844  26.268   2.112
60440W        W32166  18.790  26.257  13.475
60441W        W32167  16.404   3.984  11.207
60442W        W32168  18.127  43.732  13.460
60443W        W32169   8.495  35.623  14.570
60444W        W32170  41.550  42.001   0.778
60445W        W32171  42.691  43.028   0.321
60446W        W32172  18.719  43.335   0.952
60447W        W32173   5.016  42.347   2.316
60448W        W32174  44.084  44.682  14.015
60449W        W32175   7.411  40.009   4.153
60450W        W32176  28.176   6.038   0.829
60451W        W32177  44.053  42.256  14.955
60452W        W32178  20.252  29.574   0.274
60453W        W32179  13.866  19.324  14.056
60454W        W32180  23.830  22.609  12.034
60455W        W32181   0.018  25.963  10.971
60456W        W32182   0.374  42.479  14.293
60457W        W32183  36.002   9.151   0.776
60458W        W32184  18.680   8.820  11.258
60459W        W32185  23.294  13.696  12.335
60460W        W32186  40.385   4.881  10.100
60461W        W32187  25.764  37.521  14.808
60462W        W32188   8.937  16.578   3.825
60463W        W32189   4.923  32.327   4.123
60464W        W32190   3.753  22.475  14.459
60465W        W32191  25.453  15.239   0.356
60466W        W32192   4.448   1.909   3.166
60467W        W32193  38.248  28.980   3.606
60468W        W32194   4.252  43.339   1.476
60469W        W32195   7.293  38.355   2.219
60470W        W32196  28.963  28.047   1.774
60471W        W32197  10.232  17.804  12.698
60472W        W32198  42.414  44.871   4.345
60473W        W32199  20.259  33.414  11.546
60474W        W32200  43.968  43.043  13.028
60475W        W32201  37.139  22.725   0.338
60476W        W32202  15.720   1.940  11.495
60477W        W32203   2.648  16.957   0.472
60478W        W32204   6.240   1.499   3.217
60479W        W32205  36.371  10.329  11.672
60480W        W32206  42.812   2.855   1.923
60481W        W32207  10.126  12.675   0.374
60482W        W32208   7.595   3.871  12.510
60483W        W32209  25.622  34.610  10.504
60484W        W32210  12.834  36.033   4.910
60485W        W32211  20.568  32.097   2.330
60486W        W32212  14.014  19.179  11.559
60487W        W32213  16.753  27.647  11.418
60488W        W32214  22.109  29.981  12.161
60489W        W32215  40.463  17.479  12.463
60490W        W32216   5.549  30.158  11.144
60491W        W32217  11.809  26.590   4.648
60492W        W32218  33.010  19.307   3.773
60493W        W32219  29.995  42.860   0.988
60494W        W32220  10.774  16.259   1.918
60495W        W32221  24.115   2.810   4.687
60496W        W32222  23.000  39.729  13.146
60497W        W32223  19.593   4.180   4.449
60498W        W32224  42.417  39.353  12.303
60499W        W32225  39.979  36.509   0.094
60500W        W32226  13.131   0.872   2.907
60501W        W32227  40.870  26.103  14.295
60502W        W32228   1.906  19.377  13.574
60503W        W32229  29.151  34.552   0.710
60504W        W32230  43.267  11.454  13.495
60505W        W32231  23.600  35.973  13.326
60506W        W32232  24.129  14.983   3.727
60507W        W32233  28.012  28.945   4.688
60508W        W32234  40.321   6.347  14.501
60509W        W32235  12.827  38.608  12.027
60510W        W32236   3.661  31.394   2.761
60511W        W32237  33.322  28.000  14.671
60512W        W32238  26.091  33.237   2.148
60513W        W32239  12.767  23.524  12.521
60514W        W32240  25.185  31.843  11.124
60515W        W32241   5.970   0.214  14.893
60516W        W32242   7.300  43.537  11.598
60517W        W32243  33.134  18.763  11.625
60518W        W32244   3.047   7.578  14.331
60519W        W32245  32.467  38.327  11.508
60520W        W32246  10.593  39.087  11.398
60521W        W32247  37.030  11.592   0.363
60522W        W32248  19.016  15.651   2.663
60523W        W32249  29.498  13.652   1.279
60524W        W32250   4.681  29.135  11.623
60525W        W32251  10.771  38.911  11.852
60526W        W32252   6.360  17.620  13.581
60527W        W32253  13.411   5.928   2.795
60528W        W32254   2.498  34.331   3.753
60529W        W32255  26.530  37.341  13.285
60530W        W32256  21.480  22.079   0.955
60531W        W32257   8.409  30.511  13.867
60532W        W32258  16.762  12.822   4.759
60533W        W32259  21.301  26.317  13.083
60534W        W32260  39.391  30.895   0.282
60535W        W32261  26.577   8.388  12.374
60536W        W32262  27.943   8.329  10.511
60537W        W32263  29.236  41.929  14.924
60538W        W32264  20.874  32.495   2.527
60539W        W32265  44.620  25.183  14.453
60540W        W32266   6.994   6.300  12.042
60541W        W32267  29.773   9.875  12.472
60542W        W32268   0.230   7.288   3.436
60543W        W32269  26.029  30.337  11.117
60544W        W32270  24.536  21.812  11.322
60545W        W32271  42.575  21.805  13.045
60546W        W32272   9.538  37.543   4.538
60547W        W32273  26.155  24.267  11.444
60548W        W32274  32.369  12.749   2.279
60549W        W32275  21.646   3.970  10.535
60550W        W32276  13.711  27.660   0.893
60551W        W32277   4.075   3.599   2.778
60552W        W32278  36.007  43.529  13.981
60553W        W32279  38.472  43.831   2.504
60554W        W32280  36.856  29.147   0.354
60555W        W32281  18.541  26.403   3.259
60556W        W32282   9.233  41.864   5.095
60557W        W32283   7.373  39.009   1.021
60558W        W32284   5.940  15.149  12.609
60559W        W32285  44.819  27.420   4.059
60560W        W32286  32.096   0.340   3.630
60561W        W32287  41.933  42.535  11.522
60562W        W32288  13.169  44.060   0.876
60563W        W32289  25.716  12.202   2.255
60564W        W32290   1.951  19.986  10.757
60565W        W32291  19.672  44.504  12.531
60566W        W32292  16.710  40.808   3.042
60567W        W32293  30.439  44.343  11.449
60568W        W32294  37.000  19.528  11.471
60569W        W32295  29.068  39.483  10.648
60570W        W32296  19.519  40.479   3.174
60571W        W32297  41.911  13.958   2.209
60572W        W32298  23.568  12.368  13.107
60573W        W32299  43.544  20.461   3.147
60574W        W32300  28.016  12.355   2.093
60575W        W32301  18.062  22.251  11.515
60576W        W32302  17.687  30.610   0.002
60577W        W32303  15.683  31.099  12.438
60578W        W32304  29.219  25.669   1.435
60579W        W32305  19.759  42.110  12.832
60580W        W32306  44.939  40.453  11.898
60581W        W32307  35.034  18.579   0.206
60582W        W32308  35.439   2.470  11.963
60583W        W32309  20.583  13.229   4.532
60584W        W32310   2.456  42.850  11.841
60585W        W32311   8.693  14.225   2.290
60586W        W32312  40.979  16.808   2.194
60587W        W32313  22.283  14.677   2.673
60588W        W32314   1.986  26.003   0.868
60589W        W32315  38.404  11.965   4.787
60590W        W32316  38.458  36.809   2.415
60591W        W32317  13.841  30.923  14.125
60592W        W32318  23.460   4.322  11.925
60593W        W32319  33.201   8.784   0.411
60594W        W32320  17.587  17.221  13.908
60595W        W32321  43.282  12.163  12.095
60596W        W32322   7.438  16.591  14.166
60597W        W32323  29.746  22.542  10.843
60598W        W32324  32.012  23.075   1.740
60599W        W32325  40.244   9.410   0.951
60600W        W32326  38.076  34.062   4.615
60601W        W32327  25.458  15.333   3.329
60602W        W32328   7.756   3.805   3.873
60603W        W32329  23.653  44.246  14.398
60604W        W32330   4.352  40.511   2.362
60605W        W32331   8.242  22.313  10.531
60606W        W32332  38.683  18.109  13.479
60607W        W32333  23.576  24.200  11.954
60608W        W32334   4.794  26.732   0.914
60609W        W32335  35.110  39.714  12.101
60610W        W32336   2.690  31.500  14.443
60611W        W32337  33.573  22.989  14.254
60612W        W32338  16.646  10.337   4.672
60613W        W32339  38.419  14.641  13.117
60614W        W32340  30.876   3.257   2.918
60615W        W32341  27.206   0.982  13.725
60616W        W32342  10.785  26.238   4.909
60617W        W32343  33.585  15.305  14.982
60618W        W32344  31.825  42.515  10.916
60619W        W32345   8.666   4.729  12.802
60620W        W32346  16.318  18.759   0.814
60621W        W32347  30.275  15.793   4.781
60622W        W32348   1.804  20.772  11.244
60623W        W32349   2.756   3.930   1.347
60624W        W32350  26.210  27.198   1.649
60625W        W32351  41.927  17.574   1.550
60626W        W32352  28.957  16.234   0.213
60627W        W32353  26.828  32.454  12.928
60628W        W32354  38.333  15.794  13.392
60629W        W32355  34.479  43.508  12.477
60630W        W32356  32.468   6.300  12.551
60631W        W32357  36.330  23.540   4.817
60632W        W32358   8.364  11.281  13.056
60633W        W32359   3.859  40.415  13.582
60634W        W32360  22.184  17.953   0.749
60635W        W32361   2.263  11.109  10.777
60636W        W32362  19.367  34.527  10.567
60637W        W32363  41.066  20.205   0.813
60638W        W32364  33.166  18.753   0.088
60639W        W32365  41.026   4.960   1.184
60640W        W32366   4.917   7.692   1.380
60641W        W32367   7.759   6.216  12.455
60642W        W32368  36.568  37.023  13.875
60643W        W32369   5.205   1.452   3.170
60644W        W32370  44.082  22.082   1.372
60645W        W32371  29.187  32.485  13.256
60646W        W32372  41.660  14.388   1.384
60647W        W32373  37.036  29.042   2.700
60648W        W32374  23.584  29.665  10.961
60649W        W32375  28.211  32.793  11.463
60650W        W32376  18.744  15.776   1.376
60651W        W32377  32.675  12.073  12.663
60652W        W32378  33.443   5.958   2.203
60653W        W32379  15.587  43.210   0.287
60654W        W32380  37.150  22.126   0.947
60655W        W32381  31.943  36.106   0.427
60656W        W32382  31.882   9.917   3.314
60657W        W32383  31.092  13.212   0.655
60658W        W32384  10.256  28.025  10.749
60659W        W32385   3.461  34.079   4.745
60660W        W32386  10.136  22.132   1.363
60661W        W32387  40.566  22.275   0.346
60662W        W32388  25.883  11.150  10.760
60663W        W32389  39.559  39.364   2.792
60664W        W32390  12.417   1.295  12.146
60665W        W32391  38.887  12.878  11.208
60666W        W32392  13.130  25.418  12.919
60667W        W32393  19.036  34.801  13.002
60668W        W32394  10.168  42.715  12.849
60669W        W32395   2.952   4.165  13.760
60670W        W32396  33.819   5.572  14.981
60671W        W32397  19.031  36.594   2.367
60672W        W32398  33.481  35.389   0.390
60673W        W32399   4.649  16.621  13.855
60674W        W32400  11.376  27.299   0.848
60675W        W32401  17.747   1.082  14.064
60676W        W32402  38.923  38.621   3.273
60677W        W32403  27.528  25.091  14.780
60678W        W32404  10.233  26.917  12.536
60679W        W32405  25.516   9.931  11.240
60680W        W32406  28.584  21.189  14.336
60681W        W32407  36.346  21.762   1.156
60682W        W32408  30.237  43.889  11.545
60683W        W32409  42.758  39.950  11.583
60684W        W32410   5.751  43.618  13.544
60685W        W32411  36.328   2.788   1.422
60686W        W32412  29.379  36.959  13.762
60687W        W32413  26.306   1.348   2.172
60688W        W32414   2.884   7.064  11.027
60689W        W32415   8.094  15.209   1.767
60690W        W32416  12.897  40.321   0.842
60691W        W32417  32.858   0.962   3.728
60692W        W32418  14.276  21.941  12.143
60693W        W32419   0.798  19.244  13.813
60694W        W32420  12.912  31.577  14.464
60695W        W32421  18.032  22.357  13.845
60696W        W32422   9.091  10.652   0.337
60697W        W32423  17.770   4.741  10.732
60698W        W32424  28.517  14.229   1.862
60699W        W32425   6.596  17.027   4.570
60700W        W32426  27.101   0.935   0.849
60701W        W32427   3.470  43.424   4.049
60702W        W32428  22.759  40.402   4.653
60703W        W32429  37.808  12.112  11.306
60704W        W32430  42.227  11.097  11.538
60705W        W32431   9.508  36.742   9.747
60706W        W32432  25.694  15.900  13.252
60707W        W32433   3.644  22.728   1.854
60708W        W32434   9.721  43.326   0.830
60709W        W32435  31.357   5.939  10.933
60710W        W32436  27.031   4.897  12.002
60711W        W32437  24.902  17.752  11.613
60712W        W32438   1.914  38.566  13.631
60713W        W32439  15.679  32.577  12.852
60714W        W32440  32.089  24.637   2.753
60715W        W32441  34.529  33.981   1.264
60716W        W32442  18.109  12.888  11.648
60717W        W32443  15.162  37.774   4.580
60718W        W32444   5.591   1.879   0.897
60719W        W32445  21.589  15.987  13.482
60720W        W32446  10.863  10.144  11.614
60721W        W32447  23.400  11.885   4.531
60722W        W32448  29.315  33.732   3.852
60723W        W32449   9.349  40.956   1.633
60724W        W32450   4.394  18.687   2.647
60725W        W32451  37.095  27.714  13.026
60726W        W32452  35.038  19.856  14.079
60727W        W32453  38.005  39.510  11.935
60728W        W32454   9.480   0.447   2.801
60729W        W32455  26.985   3.780   2.840
60730W        W32456  38.347  20.092  12.318
60731W        W32457   0.820  37.392  14.499
60732W        W32458  39.979  14.845   3.642
60733W        W32459  19.657   4.275  13.475
60734W        W32460  41.970  41.486   3.587
60735W        W32461  34.063  33.134  13.860
60736W        W32462  27.392  43.733   4.103
60737W        W32463  19.075   0.252   0.840
60738W        W32464  44.973   8.706  13.981
60739W        W32465  29.768  26.721   2.629
60740W        W32466  28.533  17.048  11.152
60741W        W32467  20.298   5.299   1.969
60742W        W32468  42.328  11.354   1.418
60743W        W32469   7.783   7.122   4.606
60744W        W32470  10.645  36.350   1.359
60745W        W32471  38.808  19.653   3.543
60746W        W32472  20.213   3.737  12.488
60747W        W32473  25.171  23.662  11.505
60748W        W32474  24.947  11.953  10.737
60749W        W32475  39.895   7.139  13.424
60750W        W32476  17.608   5.668  14.059
60751W        W32477   9.596  14.281  14.940
60752W        W32478  44.813   5.082   1.804
60753W        W32479  22.156  26.579   0.883
60754W        W32480   9.893  20.115   1.271
60755W        W32481  31.656  31.934  11.611
60756W        W32482  21.000  38.914  11.068
60757W        W32483   9.695   9.177   3.300
60758W        W32484  35.538  22.314  13.052
60759W        W32485  24.540  26.100  12.711
60760W        W32486  20.140  29.399   2.843
60761W        W32487   2.483  21.160   2.686
60762W        W32488  40.573  10.279  11.591
60763W        W32489  38.777  19.663   2.504
60764W        W32490  35.124  15.498   1.219
60765W        W32491  40.653  14.203   1.335
60766W        W32492  40.416  35.861  14.719
60767W        W32493   4.502  10.876  12.646
60768W        W32494  22.646  10.534   4.143
60769W        W32495  40.368  40.299   0.961
60770W        W32496  26.732   2.313  12.097
60771W        W32497  14.362  22.983   3.129
60772W        W32498  13.186  25.474   0.049
60773W        W32499   7.139  25.580  12.013
60774W        W32500  11.803  10.823  12.436
60775W        W32501  16.562  34.786  12.269
60776W        W32502  25.644   8.943   5.080
60777W        W32503   8.784  28.583  10.440
60778W        W32504  17.984  38.822  10.601
60779W        W32505  35.515  33.645  14.396
60780W        W32506  39.319  32.381  12.221
60781W        W32507  31.283  44.580   5.516
60782W        W32508   6.124   6.302  13.595
60783W        W32509   6.249  11.424   2.467
60784W        W32510  34.532   5.403   0.483
60785W        W32511   2.465  12.771   2.776
60786W        W32512   9.664  29.936  10.846
60787W        W32513  20.206  14.614   0.913
60788W        W32514  24.717   5.304  10.760
60789W        W32515  40.424  30.440   0.441
60790W        W32516  43.109  27.662   2.302
60791W        W32517  42.083  10.434   1.886
60792W        W32518  25.545  39.511   1.755
60793W        W32519  39.062   6.353   1.793
60794W        W32520  36.027   2.927   4.587
60795W        W32521  33.937  29.892  12.557
60796W        W32522  15.126   6.578  13.965
60797W        W32523   9.730  44.307  13.727
60798W        W32524  26.625   0.201   2.197
60799W        W32525  42.535  19.102   3.448
60800W        W32526  43.773  24.009  12.547
60801W        W32527  34.483  12.841  14.002
60802W        W32528  37.336  38.841   3.226
60803W        W32529   0.105   7.379   1.797
60804W        W32530   2.917  21.692  12.987
60805W        W32531  16.282  38.296  12.470
60806W        W32532  34.529  33.596  14.349
60807W        W32533   5.920   2.510  13.442
60808W        W32534   2.326  38.083   4.554
60809W        W32535  29.889  10.076  12.030
60810W        W32536  42.996  30.922  14.539
60811W        W32537   3.873  41.204  14.752
60812W        W32538   4.366  22.653  13.709
60813W        W32539  13.781   7.881   0.444
60814W        W32540   1.498  16.387   4.755
60815W        W32541  12.945   7.668  10.825
60816W        W32542  34.518  37.644  11.910
60817W        W32543  26.791   1.677  14.319
60818W        W32544  42.977  42.203  12.477
60819W        W32545  21.949   8.229   3.279
60820W        W32546  27.922  13.689  14.752
60821W        W32547  18.734  10.661   0.846
60822W        W32548  30.145  15.714   1.467
60823W        W32549  12.432  30.748  12.018
60824W        W32550  40.603  41.516   3.662
60825W        W32551  37.214  10.815   2.328
60826W        W32552  36.497  19.242  10.697
60827W        W32553  14.238  22.755  10.422
60828W        W32554  36.677   8.180  11.362
60829W        W32555   5.236  23.039   3.235
60830W        W32556   5.678  27.671  13.802
60831W        W32557  14.719   0.994   1.705
60832W        W32558  29.932   7.365   3.713
60833W        W32559  14.655  18.364  11.520
60834W        W32560  13.660  42.563  11.593
60835W        W32561  16.113  40.861  13.407
60836W        W32562  29.012  31.897   2.869
60837W        W32563   4.221  15.223   3.800
60838W        W32564  39.711  19.286   2.919
60839W        W32565  27.717  19.295   4.693
60840W        W32566  36.366   1.460  12.054
60841W        W32567  25.046  14.431  14.934
60842W        W32568  21.687  34.914   4.651
60843W        W32569  37.539  44.864  12.329
60844W        W32570  27.744  33.056  10.102
60845W        W32571   0.488  39.454   1.841
60846W        W32572  28.537  38.307   4.484
60847W        W32573   9.798  19.258  12.672
60848W        W32574  28.515   4.919   0.279
60849W        W32575  24.923  34.138  14.516
60850W        W32576  19.657  34.375   4.626
60851W        W32577  34.477  40.446  11.376
60852W        W32578  33.870  18.044  14.039
60853W        W32579   7.904   2.021   0.781
60854W        W32580  35.574  27.415   0.021
60855W        W32581  36.545  26.904  13.937
60856W        W32582  21.456   3.766   0.235
60857W        W32583  41.017  15.190   3.289
60858W        W32584  39.017   5.382   0.040
60859W        W32585  14.699  17.139   3.895
60860W        W32586   4.281  27.571   4.516
60861W        W32587  15.337   7.267   4.955
60862W        W32588  24.027  13.753  13.900
60863W        W32589  11.812  34.207   2.672
60864W        W32590  33.349   4.230   1.340
60865W        W32591  10.887   4.945   1.950
60866W        W32592  20.073  20.033   2.837
60867W        W32593   0.842  29.995  11.578
60868W        W32594   4.419  23.219  14.502
60869W        W32595   9.322   7.767  10.539
60870W        W32596   8.734  29.096  13.857
60871W        W32597  18.297  26.927  12.120
60872W        W32598  29.986  41.788   1.479
60873W        W32599  25.783  39.127   2.634
60874W        W32600  33.685   5.440  13.384
60875W        W32601  15.483  18.249   3.275
60876W        W32602   9.468  22.973  13.568
60877W        W32603  28.543  26.628   3.118
60878W        W32604  38.932  43.968   4.430
60879W        W32605  17.128   3.683  14.767
60880W        W32606  24.949  19.073   1.822
60881W        W32607   7.401  36.348   4.063
60882W        W32608  18.226   7.342  13.259
60883W        W32609   3.449  38.478  12.515
60884W        W32610  14.221  33.831   4.257
60885W        W32611  15.728  13.305   1.812
60886W        W32612  36.578  34.453   2.163
60887W        W32613  11.797   8.854  13.018
60888W        W32614  39.764  34.537   3.574
60889W        W32615  32.922  14.122   2.779
60890W        W32616  11.813  36.992   3.350
60891W        W32617  40.859  35.214   2.242
60892W        W32618  28.664   3.817   1.885
60893W        W32619   4.679  12.071   4.164
60894W        W32620  32.088  34.317   2.299
60895W        W32621   9.669  42.921  13.942
60896W        W32622  25.711   6.861  14.465
60897W        W32623  33.072   8.193  10.457
60898W        W32624   9.843  29.075   4.608
60899W        W32625  21.065  28.999   1.237
60900W        W32626  32.006  27.740  12.463
60901W        W32627  31.553  21.498  14.382
60902W        W32628  37.260  14.097   1.447
60903W        W32629  24.997  11.460  10.564
60904W        W32630  17.456   4.319   2.208
60905W        W32631   9.985  20.315   3.743
60906W        W32632  11.540  16.072  14.519
60907W        W32633  43.877  10.136  12.516
60908W        W32634  38.204  33.350  10.587
60909W        W32635  13.281  26.919  12.466
60910W        W32636  20.569   7.884   2.202
60911W        W32637   0.923   4.342  12.380
60912W        W32638   9.330  27.229   4.622
60913W        W32639  23.342  26.233   3.661
60914W        W32640  35.145  32.656   1.238
60915W        W32641  34.442  39.915   1.861
60916W        W32642  44.982  21.561  11.529
60917W        W32643  13.787  22.679   1.349
60918W        W32644  23.962   9.842  10.637
60919W        W32645  43.279  29.965   2.318
60920W        W32646  32.100  43.706  10.241
60921W        W32647  10.945  42.853  11.486
60922W        W32648  36.537  11.378   1.193
60923W        W32649  22.301  40.523  14.159
60924W        W32650  42.493   2.373   1.427
60925W        W32651  25.765  34.800   0.261
60926W        W32652   5.737  22.274   0.312
60927W        W32653  26.166  10.104  14.380
60928W        W32654   9.110   8.125  11.020
60929W        W32655  13.172  43.145  11.753
60930W        W32656   6.840   7.186  11.484
60931W        W32657  34.649  20.607   0.077
60932W        W32658   4.768  16.684   2.313
60933W        W32659  11.846   0.044  10.373
60934W        W32660  36.486   0.982  13.319
60935W        W32661  20.018  17.695   0.856
60936W        W32662  33.556  22.493  14.085
60937W        W32663  23.310  24.629   2.032
60938W        W32664  31.317  44.787   1.176
60939W        W32665  29.460  27.614   4.560
60940W        W32666  18.323   7.973   2.479
60941W        W32667  34.340  28.154  12.431
60942W        W32668  31.620  13.251  12.557
60943W        W32669  21.013  40.386  14.576
60944W        W32670  40.777   5.707  12.951
60945W        W32671   6.347   2.278  12.669
60946W        W32672   6.873  43.710   2.216
60947W        W32673   1.790   5.181  11.405
60948W        W32674  42.186  26.848   4.818
60949W        W32675  19.673  24.127   4.225
60950W        W32676  36.802  28.174   2.356
60951W        W32677  33.982  25.513  13.387
60952W        W32678  11.911  35.578   1.393
60953W        W32679  43.673   2.707   0.858
60954W        W32680  42.294  31.880   3.757
60955W        W32681   3.846   4.033  12.256
60956W        W32682  39.274  33.455  13.480
60957W        W32683  12.663  41.239   1.912
60958W        W32684  43.839  44.920  12.992
60959W        W32685  16.341  23.013   4.535
60960W        W32686  33.051  12.691   4.280
60961W        W32687  34.946  31.472  10.732
60962W        W32688  20.195  32.952  11.717
60963W        W32689  26.120  40.254   4.900
60964W        W32690   1.825  41.516   3.180
60965W        W32691  19.724   9.718   3.464
60966W        W32692  41.792  34.515  12.591
60967W        W32693  30.488  15.284   1.268
60968W        W32694  36.841  15.695   4.194
60969W        W32695  40.416  29.411  14.422
60970W        W32696  31.265   1.906  11.223
60971W        W32697   3.773  16.680  12.534
60972W        W32698  31.681  36.113  10.683
60973W        W32699   5.282  20.496  12.952
60974W        W32700  37.876  20.568   1.876
60975W        W32701   7.643  42.858   2.703
60976W        W32702   8.762  40.779  10.641
60977W        W32703  19.076  29.269  10.621
60978W        W32704  21.692  43.068   2.307
60979W        W32705  17.249  25.873  11.997
60980W        W32706  35.948  24.532  11.443
60981W        W32707  42.988  38.298   0.364
60982W        W32708   5.803  44.770   1.879
60983W        W32709  30.838  23.546  11.057
60984W        W32710   2.565   7.279  12.177
60985W        W32711   3.638  32.216  12.931
60986W        W32712  35.502  17.748   2.319
60987W        W32713  17.730   2.822  12.879
60988W        W32714  10.891  24.698  12.310
60989W        W32715  32.577  25.067   0.354
60990W        W32716  24.991   9.881   0.474
60991W        W32717  10.016  44.709  12.115
60992W        W32718  20.551  24.065  13.618
60993W        W32719  35.318  39.000   0.999
60994W        W32720  22.757  29.859  13.985
60995W        W32721  31.554   8.934   4.343
60996W        W32722  25.773   2.268   1.784
60997W        W32723  41.317  26.213   1.421
60998W        W32724   7.212  38.907   4.628
60999W        W32725  23.608  35.362  14.467
61000W        W32726  39.816  24.700   0.738
61001W        W32727  27.015  42.270   0.921
61002W        W32728  28.436  28.977   3.424
61003W        W32729  20.732  43.785   1.016
61004W        W32730  25.622   5.544  14.824
61005W        W32731  19.343  23.303   0.429
61006W        W32732  40.363  20.513   3.765
61007W        W32733   6.699  19.600  10.642
61008W        W32734   7.101  38.272  12.712
61009W        W32735  41.277  37.395   5.029
61010W        W32736  39.761   0.695   2.156
61011W        W32737  39.343  42.904   2.022
61012W        W32738  14.816   3.893  10.521
61013W        W32739  38.381  18.709   2.708
61014W        W32740  29.895   8.747  11.344
61015W        W32741  17.714   2.278  12.520
61016W        W32742  13.231  43.503  11.397
61017W        W32743  20.750   0.626   1.812
61018W        W32744  30.563  42.472  11.512
61019W        W32745   2.996   8.343  11.565
61020W        W32746  14.879  17.748  11.339
61021W        W32747  26.165  19.744   4.537
61022W        W32748  12.257   9.367   4.549
61023W        W32749  44.868  31.594  14.826
61024W        W32750   7.906  12.901   2.476
61025W        W32751  10.944  10.827  10.887
61026W        W32752  27.005   9.703  10.726
61027W        W32753   1.765   3.382   0.937
61028W        W32754  33.033  41.625  11.056
61029W        W32755  33.377  39.440   1.049
61030W        W32756  10.145   3.863   3.752
61031W        W32757  22.501  42.346   4.625
61032W        W32758   1.710  37.421   3.758
61033W        W32759  30.413  31.075   4.159
61034W        W32760  23.501  25.197   5.508
61035W        W32761   0.050  37.371   2.824
61036W        W32762   5.342  17.721   3.378
61037W        W32763  17.522  37.917  14.143
61038W        W32764  21.439  40.989  11.999
61039W        W32765  39.282  20.537  10.676
61040W        W32766   1.505  20.823   4.105
61041W        W32767  17.681  19.862  12.350
61042W        W32768   6.652  44.849   3.845
61043W        W32769   1.755  35.936   0.986
61044W        W32770  17.896   8.855   2.736
61045W        W32771  21.097   8.666  12.015
61046W        W32772  31.343  37.455   2.427
61047W        W32773  36.712  40.340   3.715
61048W        W32774  31.844   0.849  14.131
61049W        W32775  33.754   0.826  10.111
61050W        W32776  11.106  27.015  11.131
61051W        W32777  43.651  16.782   0.702
61052W        W32778  11.663   4.101  11.739
61053W        W32779   9.351  38.915  10.668
61054W        W32780  29.076  13.096   0.228
61055W        W32781  41.114  34.178   2.363
61056W        W32782  22.173  30.973   4.239
61057W        W32783  39.202  38.669  11.990
61058W        W32784  16.727   2.541  13.637
61059W        W32785   1.475  32.167  11.147
61060W        W32786  17.258  42.770  11.107
61061W        W32787   6.857  25.592  11.553
61062W        W32788  12.332  34.495  14.932
61063W        W32789  20.190  44.721  10.978
61064W        W32790  40.503   4.952  12.517
61065W        W32791  38.728   1.177  11.223
61066W        W32792  30.654  42.226   3.690
61067W        W32793  12.666  38.361  10.738
61068W        W32794   9.758  15.742  14.979
61069W        W32795  10.109  38.769  13.932
61070W        W32796   1.068  40.409   4.937
61071W        W32797   1.358  28.926   2.847
61072W        W32798  10.282  10.302  10.808
61073W        W32799   5.578  29.204   0.705
61074W        W32800   3.903  43.795  13.730
61075W        W32801   1.953  41.093   2.887
61076W        W32802  29.227  22.626  10.658
61077W        W32803   5.341   9.165   1.588
61078W        W32804   8.232   7.165   2.858
61079W        W32805  31.539  37.999  13.936
61080W        W32806  27.060  18.744  14.485
61081W        W32807   4.687  31.986  14.744
61082W        W32808  31.084   6.723   3.572
61083W        W32809  43.958   7.607   1.387
61084W        W32810  26.663  28.559   1.692
61085W        W32811  12.807  34.532  14.505
61086W        W32812  28.428   5.784   1.829
61087W        W32813  24.697  32.856   2.348
61088W        W32814  38.079  20.983   3.716
61089W        W32815  24.757   3.869   0.454
61090W        W32816  37.966  22.094   0.406
61091W        W32817  26.075  15.471   3.647
61092W        W32818   1.912   0.118  10.554
61093W        W32819  32.671  34.595   4.094
61094W        W32820  19.680  37.932   1.758
61095W        W32821   0.413   4.897   0.203
61096W        W32822  31.150  28.701   2.765
61097W        W32823  19.170  27.349  13.460
61098W        W32824  15.572  18.073   3.774
61099W        W32825  15.683  42.748  10.039
61100W        W32826  44.471  44.035   2.710
61101W        W32827   1.043   6.913  13.820
61102W        W32828  15.158  41.650  11.568
61103W        W32829   6.498  17.701   2.182
61104W        W32830  11.054  25.166   1.093
61105W        W32831   0.445   4.715   2.541
61106W        W32832  13.353  10.201   4.983
61107W        W32833  29.667  25.981   4.227
61108W        W32834  33.357   9.437  12.801
61109W        W32835  26.720   1.031  13.574
61110W        W32836  33.205  36.549   2.706
61111W        W32837  22.170   6.760  11.390
61112W        W32838   8.684  14.585  14.945
61113W        W32839  21.964  37.590  12.917
61114W        W32840  16.822  16.496  12.913
61115W        W32841  43.313  42.723  11.902
61116W        W32842   6.316   7.939  12.444
61117W        W32843  41.486  39.627   1.842
61118W        W32844  35.113   3.692  13.099
61119W        W32845  38.247  10.705   2.225
61120W        W32846  32.663   0.240   0.982
61121W        W32847  44.326  38.631  13.438
61122W        W32848  24.020  29.786   2.750
61123W        W32849  28.429   6.791   2.813
61124W        W32850  11.226  12.066  11.224
61125W        W32851  34.711  15.115  13.918
61126W        W32852  30.445  41.767   2.219
61127W        W32853  31.461  26.916  14.037
61128W        W32854  36.914   0.293   2.460
61129W        W32855  16.017  34.779  10.177
61130W        W32856  19.339  32.464  13.437
61131W        W32857   1.972  14.233  14.528
61132W        W32858  26.922   3.581  13.817
61133W        W32859  30.810  32.878   2.787
61134W        W32860   8.171  37.459   3.315
61135W        W32861  23.454   5.865   3.308
61136W        W32862  14.721  38.907  10.672
61137W        W32863  24.012  12.319   0.761
61138W        W32864  39.327  43.200  10.732
61139W        W32865  40.032  14.006  12.337
61140W        W32866  31.432  42.507  12.071
61141W        W32867  19.535  12.744   1.939
61142W        W32868  28.136  23.504   1.908
61143W        W32869  27.964   8.981  12.948
61144W        W32870  29.993  43.994  10.582
61145W        W32871  40.014  41.995   1.464
61146W        W32872   4.867  40.075  13.517
61147W        W32873  41.260  17.348   0.074
61148W        W32874  29.244   2.837  14.437
61149W        W32875  36.437  38.107   1.442
61150W        W32876   1.836  22.688   2.791
61151W        W32877  23.555  13.582  10.949
61152W        W32878  39.441  32.889   4.675
61153W        W32879  23.987  30.367   1.837
61154W        W32880  38.280  14.286   0.491
61155W        W32881  43.297  22.676   4.423
61156W        W32882   2.334  42.583   0.380
61157W        W32883  12.051  25.822   4.848
61158W        W32884  40.066   6.795  14.403
61159W        W32885  16.378  16.183  10.643
61160W        W32886  16.404  34.985   0.931
61161W        W32887  37.556  33.546   3.279
61162W        W32888  20.968  13.159   4.181
61163W        W32889  28.863  10.625   1.270
61164W        W32890  24.692  18.022   0.866
61165W        W32891  29.665  18.250  14.304
61166W        W32892   1.573  40.440   4.949
61167W        W32893  35.071  22.288  13.376
61168W        W32894  28.371  39.514   4.768
61169W        W32895   2.268  27.294   2.222
61170W        W32896  27.662  26.538   1.431
61171W        W32897   4.393  19.138  10.688
61172W        W32898  34.648  21.398   1.394
61173W        W32899   3.417   5.888  10.673
61174W        W32900   1.818  38.107  11.192
61175W        W32901  35.414   1.485   2.435
61176W        W32902  31.873  40.849   5.275
61177W        W32903  30.332   1.180   0.033
61178W        W32904   0.319  20.014   1.232
61179W        W32905   8.967  20.056  11.652
61180W        W32906   1.776  42.025   3.507
61181W        W32907   8.980  10.214   1.213
61182W        W32908  30.698  41.779  11.038
61183W        W32909   9.925  37.176  10.609
61184W        W32910  13.430  27.637  11.981
61185W        W32911  16.513   8.098   1.024
61186W        W32912  12.232  28.071  11.640
61187W        W32913  15.959  17.257  14.885
61188W        W32914  20.168  37.502   4.077
61189W        W32915  43.168  15.921  14.776
61190W        W32916  27.265  24.600   0.315
61191W        W32917   9.716  11.224   1.429
61192W        W32918  40.725  25.636  12.584
61193W        W32919  31.932  39.897   4.323
61194W        W32920   0.194  18.003   1.738
61195W        W32921  44.212  28.630  10.227
61196W        W32922  15.816  35.988  14.069
61197W        W32923  15.520  11.925  14.857
61198W        W32924  34.773   2.181   3.432
61199W        W32925  10.286   7.089  14.474
61200W        W32926  17.066  27.121  10.771
61201W        W32927  35.439  27.991  10.593
61202W        W32928  31.898   3.923   0.262
61203W        W32929  16.988  36.900  11.476
61204W        W32930  42.416  20.651   4.697
61205W        W32931  27.941  11.920   0.358
61206W        W32932  18.902  32.572   0.517
61207W        W32933  21.216  43.754   2.201
61208W        W32934  22.448  15.318  11.719
61209W        W32935  18.359  27.156  12.968
61210W        W32936  20.995  29.584  12.512
61211W        W32937  18.647  15.574   4.099
61212W        W32938  10.649  12.687   1.624
61213W        W32939  10.616  39.981  12.006
61214W        W32940  17.348  40.449   2.539
61215W        W32941   4.842  42.858   2.334
61216W        W32942  21.605  34.377   4.811
61217W        W32943   1.522  35.022  12.070
61218W        W32944  19.218  40.570   3.696
61219W        W32945   7.679  33.849   1.721
61220W        W32946  39.461  43.286   3.935
61221W        W32947  25.400  21.684  11.598
61222W        W32948  25.363  18.723   4.725
61223W        W32949  33.960  18.191  13.565
61224W        W32950  42.961  20.524  13.886
61225W        W32951  41.919   0.055   1.423
61226W        W32952  42.335  22.430   4.282
61227W        W32953   6.774  42.568  13.465
61228W        W32954  44.954   4.844   1.329
61229W        W32955  11.158  27.477   1.987
61230W        W32956  10.776  32.399  14.412
61231W        W32957  23.973  30.609  14.986
61232W        W32958   9.811  32.743  11.571
61233W        W32959  12.245   3.293   3.276
61234W        W32960  33.923  11.335   4.375
61235W        W32961   9.827  26.672   0.793
61236W        W32962  41.521  37.675  14.331
61237W        W32963  38.853   1.276  12.982
61238W        W32964  26.688  43.798   0.493
61239W        W32965  26.087  38.838   0.856
61240W        W32966  32.956  13.620   3.741
61241W        W32967  19.573  20.641   2.593
61242W        W32968  26.500  22.942   3.737
61243W        W32969  11.160  33.127   1.232
61244W        W32970  27.207  33.976   0.885
61245W        W32971   0.174  16.735   2.732
61246W        W32972  44.306  36.774   4.085
61247W        W32973   3.941  25.625   1.759
61248W        W32974  19.943  32.480   3.739
61249W        W32975  14.599   8.125  11.588
61250W        W32976  23.948  11.270   1.079
61251W        W32977  26.675  28.360   3.691
61252W        W32978  40.158   6.515   1.097
61253W        W32979  34.072  11.656   0.725
61254W        W32980  39.003   9.266  13.954
61255W        W32981  15.219  42.010   3.683
61256W        W32982  32.324  20.768  14.230
61257W        W32983  19.572  18.198  11.567
61258W        W32984   2.374   1.387   4.053
61259W        W32985  13.665  17.556  12.505
61260W        W32986  15.258  19.797   3.887
61261W        W32987  17.655  13.184   2.808
61262W        W32988  27.124   3.873  12.914
61263W        W32989  34.849  19.584   0.567
61264W        W32990   2.383  30.658   4.763
61265W        W32991  33.146  10.718  13.321
61266W        W32992  30.378  34.769   0.787
61267W        W32993  31.339   7.829   4.587
61268W        W32994  31.831  26.888  11.379
61269W        W32995  42.180   3.963   4.065
61270W        W32996   5.841  39.646   1.934
61271W        W32997  12.907  24.023   3.793
61272W        W32998  38.989  26.883  13.550
61273W        W32999   1.821  33.989  13.108
61274W        W33000   8.928  24.708   3.353
61275W        W33001  13.589  28.945   1.263
61276W        W33002  41.996   6.344  12.828
61277W        W33003   0.899  24.713   1.260
61278W        W33004  38.042  28.748   0.510
61279W        W33005  13.989  10.284   2.705
61280W        W33006  37.955  30.620   0.301
61281W        W33007  41.912   0.455   1.747
61282W        W33008  14.892   8.821   1.280
61283W        W33009  35.977   5.639  14.441
61284W        W33010   3.318   4.800   4.260
61285W        W33011  19.494  43.014  14.373
61286W        W33012  39.022  29.337   1.887
61287W        W33013  25.286  17.602   1.790
61288W        W33014  20.566  17.293  11.157
61289W        W33015   2.203  29.549  10.697
61290W        W33016  15.301  43.375   4.595
61291W        W33017  27.308  35.087   4.739
61292W        W33018  13.350   6.441  14.925
61293W        W33019  27.857  36.857   1.345
61294W        W33020  34.175  37.560  12.887
61295W        W33021   6.461  44.892   4.358
61296W        W33022   2.652  27.542  14.023
61297W        W33023   9.804  16.726  14.841
61298W        W33024   0.418  36.386   1.877
61299W        W33025   1.848  18.142  11.936
61300W        W33026  40.622  10.635  12.302
61301W        W33027  29.681  20.499  11.674
61302W        W33028  37.347  37.444   3.765
61303W        W33029  21.133  18.419   5.075
61304W        W33030  19.525  15.108   0.370
61305W        W33031   3.340  42.815   1.809
61306W        W33032   5.201  23.109  14.386
61307W        W33033  44.431  13.536   4.793
61308W        W33034   9.135   8.652  10.979
61309W        W33035  33.571  24.600  10.380
61310W        W33036  34.402   2.016  10.641
61311W        W33037   6.776  44.296   4.670
61312W        W33038  17.677   5.549   2.915
61313W        W33039  10.293  15.219   2.147
61314W        W33040   2.283  43.533  13.101
61315W        W33041   6.848  27.064   4.457
61316W        W33042  34.787  44.689   0.442
61317W        W33043  36.155  29.988   4.711
61318W        W33044   6.168  18.567  10.664
61319W        W33045  36.903  23.485   3.068
61320W        W33046  20.948  38.293   0.143
61321W        W33047  15.029  37.461   4.983
61322W        W33048  44.966   0.913   2.662
61323W        W33049  34.666  25.749   3.648
61324W        W33050  41.946  41.336   4.090
61325W        W33051  19.950  16.307   0.054
61326W        W33052  38.599  33.460   1.051
61327W        W33053  39.087   8.210   0.860
61328W        W33054   3.223  29.664   1.633
61329W        W33055  27.065  36.522   1.761
61330W        W33056  42.472   4.322  11.435
61331W        W33057   0.760   5.246  11.551
61332W        W33058  20.014   9.092   3.910
61333W        W33059   2.858  43.536  12.438
61334W        W33060  15.095  15.851   2.710
61335W        W33061  32.335  32.258  14.233
61336W        W33062  44.361  17.189   0.926
61337W        W33063   3.357  12.268  10.457
61338W        W33064  41.349  15.262   2.897
61339W        W33065  25.785  26.350   3.584
61340W        W33066  23.754   1.572   1.923
61341W        W33067   9.199  32.196   4.190
61342W        W33068  37.640  29.880   3.237
61343W        W33069  21.401  30.004   4.119
61344W        W33070  18.093  21.534  11.128
61345W        W33071  13.185  22.465  11.617
61346W        W33072  37.765  28.374   4.796
61347W        W33073  16.664  22.052   0.945
61348W        W33074  21.067  21.044   4.495
61349W        W33075  16.608   1.419  12.949
61350W        W33076  17.601  25.540   2.739
61351W        W33077  21.360  26.259   4.602
61352W        W33078  34.826   2.451  13.856
61353W        W33079   4.031  41.651  13.115
61354W        W33080  32.494   8.496   2.731
61355W        W33081  32.391  37.602  13.608
61356W        W33082   5.123  13.105  12.124
61357W        W33083  27.429  25.089  12.928
61358W        W33084  19.257  30.889   2.297
61359W        W33085  13.630  13.211   2.687
61360W        W33086  15.190   7.530   1.392
61361W        W33087  32.299  28.145   1.015
61362W        W33088  17.091  20.628   3.561
61363W        W33089  39.139  19.224   3.015
61364W        W33090  22.785  22.217   0.868
61365W        W33091  41.879  27.035   3.403
61366W        W33092  10.890  32.108  14.000
61367W        W33093  21.645  32.554   4.707
61368W        W33094  17.268  28.398   3.270
61369W        W33095  12.644   2.959  11.201
61370W        W33096   1.870   2.393   1.778
61371W        W33097  11.843  22.948  14.135
61372W        W33098  37.035   9.089  11.623
61373W        W33099  11.781  39.091   0.247
61374W        W33100   7.182  10.674  14.265
61375W        W33101  11.781   1.961  12.007
61376W        W33102  23.324  29.553   3.613
61377W        W33103  41.384  40.392   2.445
61378W        W33104  13.098   2.852   3.651
61379W        W33105   1.353  13.854   1.964
61380W        W33106  20.085  30.618   2.867
61381W        W33107   0.209   6.636  12.984
61382W        W33108  16.782  12.929  12.961
61383W        W33109  39.067  43.456  13.432
61384W        W33110  15.678  36.991  10.291
61385W        W33111  31.517  25.200  12.088
61386W        W33112  25.691  33.575   4.173
61387W        W33113   2.122  37.487   3.439
61388W        W33114   8.887   5.297  13.946
61389W        W33115  12.450  21.739  10.408
61390W        W33116  43.831  28.268   1.733
61391W        W33117   2.141   5.227   2.401
61392W        W33118  30.967  16.159  11.936
61393W        W33119  14.577  31.077   0.320
61394W        W33120  20.690  36.504  12.335
61395W        W33121  32.333   7.733   0.353
61396W        W33122  24.190   6.971  13.480
61397W        W33123   4.799  11.383   0.746
61398W        W33124   7.186  21.129  14.453
61399W        W33125  33.811   0.879   3.804
61400W        W33126  14.543  32.215  12.444
61401W        W33127  34.802  22.892   0.458
61402W        W33128  33.353   3.860   2.411
61403W        W33129   5.854  34.092  14.188
61404W        W33130  40.214  38.946  12.111
61405W        W33131  13.662  30.093   4.247
61406W        W33132  25.609  42.321  13.692
61407W        W33133  29.223  27.475  11.639
61408W        W33134  41.508  28.060   4.227
61409W        W33135  40.671  23.278   3.323
61410W        W33136   4.314  11.045   2.857
61411W        W33137  11.063   7.243   0.663
61412W        W33138  21.299  29.001   0.292
61413W        W33139  15.217  31.055   3.315
61414W        W33140  20.535   3.038   1.308
61415W        W33141  22.004  14.354   0.901
61416W        W33142  20.077   9.069   1.692
61417W        W33143   4.649   4.794   1.020
61418W        W33144  31.380  36.900  13.066
61419W        W33145  10.659   0.875  11.249
61420W        W33146  33.845  35.834   2.234
61421W        W33147  44.548  12.730   1.401
61422W        W33148   7.279  41.321   3.319
61423W        W33149  23.637  18.550  12.000
61424W        W33150  39.638  30.980  10.440
61425W        W33151  33.482  22.673  11.726
61426W        W33152  44.226  31.445  13.419
61427W        W33153  42.925  43.186   4.042
61428W        W33154  43.708  38.724   0.962
61429W        W33155   9.183  42.317  10.745
61430W        W33156  28.044   6.437   4.016
61431W        W33157  16.290  31.557   2.365
61432W        W33158  20.767   3.461   0.525
61433W        W33159  28.132  13.810  12.401
61434W        W33160  32.644  15.148   3.483
61435W        W33161   9.795  16.688   4.393
61436W        W33162   2.792   6.638   0.168
61437W        W33163  44.432  18.475  11.135
61438W        W33164  22.571   4.498  12.414
61439W        W33165  36.991  42.891   0.754
61440W        W33166  14.367  43.260  13.041
61441W        W33167  19.345  24.263  12.579
61442W        W33168  33.518  40.932  13.568
61443W        W33169   5.919  36.325   4.281
61444W        W33170  39.444  42.616   0.178
61445W        W33171  38.910  40.003  14.276
61446W        W33172  15.509  24.751  12.823
61447W        W33173   4.938  39.993   0.272
61448W        W33174  32.062  14.657   4.129
61449W        W33175  19.550  38.610   3.110
61450W        W33176  40.288  30.547  12.555
61451W        W33177  20.482  16.088   3.807
61452W        W33178  28.987  25.611  14.085
61453W        W33179   4.284  37.761  13.591
61454W        W33180  17.822  14.727  13.831
61455W        W33181   5.934  26.190  14.424
61456W        W33182  13.835  38.417  11.128
61457W        W33183  17.981   6.921  14.596
61458W        W33184  35.844  43.498  10.603
61459W        W33185  40.388   2.427  10.841
61460W        W33186  17.951  31.181   2.744
61461W        W33187  31.202   5.976  14.421
61462W        W33188  24.131  35.064  14.922
61463W        W33189  39.405   5.780  11.736
61464W        W33190   0.062  30.620   2.155
61465W        W33191  20.222  30.924  14.906
61466W        W33192  10.324  20.069  14.084
61467W        W33193   2.536  34.897  13.532
61468W        W33194  12.004  27.908   1.248
61469W        W33195   6.114  41.225   5.069
61470W        W33196  22.551  35.357  11.590
61471W        W33197   1.400  10.081  12.993
61472W        W33198  27.576  21.250  14.877
61473W        W33199  16.144  14.137   1.787
61474W        W33200  35.407  15.676  11.114
61475W        W33201  38.061  41.460   3.984
61476W        W33202  24.552  28.129  14.990
61477W        W33203  34.092  29.111   2.479
61478W        W33204   1.073  37.681   0.646
61479W        W33205   3.358  24.676   3.662
61480W        W33206  44.410  18.897  14.787
61481W        W33207  31.662  15.813  10.927
61482W        W33208  44.858  19.267  10.781
61483W        W33209  26.721  28.475  12.526
61484W        W33210  38.134  22.073  12.624
61485W        W33211  16.040  41.876   2.071
61486W        W33212  20.722  19.297   1.802
61487W        W33213  12.655  10.832  11.540
61488W        W33214  35.491   4.456   1.310
61489W        W33215  29.628  28.523  10.596
61490W        W33216  30.065  20.787  11.472
61491W        W33217  17.198  33.429   1.966
61492W        W33218   9.082   6.274  14.786
61493W        W33219  20.022  13.800  12.676
61494W        W33220   0.328  22.999  14.583
61495W        W33221  10.528  20.708  11.499
61496W        W33222  12.382  23.238  14.883
61497W        W33223  15.671  32.947  10.949
61498W        W33224  30.646   2.205   5.230
61499W        W33225  28.069  15.026  12.660
61500W        W33226  29.520  36.470   1.761
61501W        W33227  38.447  27.520  12.406
61502W        W33228  33.271   9.296   4.913
61503W        W33229  43.511  32.127   1.799
61504W        W33230  32.548  10.573  12.419
61505W        W33231   6.665  29.381   3.155
61506W        W33232   8.753  38.600  14.671
61507W        W33233  14.273  27.699  13.483
61508W        W33234  24.134  13.396   1.417
61509W        W33235  16.967  16.500   3.582
61510W        W33236  30.082   4.196  13.710
61511W        W33237   1.382  32.631  13.590
61512W        W33238  27.813  16.257   4.813
61513W        W33239   7.333   9.907   1.815
61514W        W33240  30.031   0.003  10.620
61515W        W33241  30.768  19.096  11.199
61516W        W33242  40.018  17.432   1.454
61517W        W33243  38.534  28.393   4.335
61518W        W33244  18.048   7.423  14.730
61519W        W33245   2.283  22.043   0.587
61520W        W33246  18.791  19.026  10.604
61521W        W33247   8.189  18.886  13.784
61522W        W33248  36.243  31.179   0.964
61523W        W33249   4.830  38.562  12.620
61524W        W33250  29.654   5.390   3.984
61525W        W33251  32.956  17.389  12.377
61526W        W33252  22.424  27.575   2.217
61527W        W33253  35.992  16.033  14.290
61528W        W33254  14.266  11.954   0.881
61529W        W33255  40.720   5.269   4.168
61530W        W33256  35.554  37.057  13.829
61531W        W33257   8.998   6.393   1.262
61532W        W33258   4.900   8.718   1.370
61533W        W33259  41.898   5.596   1.259
61534W        W33260  32.623  30.421   3.728
61535W        W33261  35.127   2.004   4.623
61536W        W33262  11.582  24.629   2.644
61537W        W33263  37.099  27.613  12.134
61538W        W33264  24.647   7.724   1.403
61539W        W33265  30.056  44.155  11.092
61540W        W33266  24.669   9.284  12.103
61541W        W33267  30.345  23.200  13.952
61542W        W33268  43.328   3.981   1.551
61543W        W33269   9.414  24.427   4.194
61544W        W33270  12.876  33.628   0.841
61545W        W33271   4.941  44.546   3.105
61546W        W33272  16.238  29.496   1.146
61547W        W33273  25.653   1.920   2.197
61548W        W33274  10.380  14.496  14.260
61549W        W33275   5.458  11.019   2.343
61550W        W33276   5.873  31.108  11.944
61551W        W33277  39.770  29.508  12.816
61552W        W33278  31.025  11.076   0.913
61553W        W33279  27.643  14.482  14.462
61554W        W33280   7.375  28.894   2.895
61555W        W33281  14.385  26.619   3.309
61556W        W33282  26.729  14.275  13.444
61557W        W33283  43.432  18.408   4.186
61558W        W33284  16.097  20.331  11.641
61559W        W33285  22.888  10.363   0.037
61560W        W33286  39.510  16.439  13.832
61561W        W33287  17.876   4.311  13.296
61562W        W33288  30.501  43.304   1.422
61563W        W33289  43.851  34.381   2.969
61564W        W33290   6.962   9.764  13.345
61565W        W33291   4.370  24.129   1.348
61566W        W33292  34.566  12.097  13.847
61567W        W33293  36.021  34.966   4.806
61568W        W33294  27.765  20.357   0.765
61569W        W33295  29.035  38.612  13.466
61570W        W33296   1.454   9.663  10.605
61571W        W33297  27.479  10.136  14.086
61572W        W33298  13.256  23.798   0.754
61573W        W33299   4.150  22.644   1.932
61574W        W33300  23.085  10.682   4.344
61575W        W33301  21.738  26.014  12.931
61576W        W33302  34.423  10.235  11.558
61577W        W33303  35.125  37.352  14.804
61578W        W33304  31.467   1.263   0.876
61579W        W33305  13.143  26.639   3.209
61580W        W33306  26.928   9.548   1.914
61581W        W33307  30.872  43.789  12.422
61582W        W33308  20.999  19.108   0.932
61583W        W33309  37.071  10.343   3.239
61584W        W33310  39.337  25.054   4.582
61585W        W33311  13.249   5.249  10.734
61586W        W33312   9.974  18.248   1.335
61587W        W33313  29.935  35.859   2.271
61588W        W33314  36.882  30.038   2.330
61589W        W33315   8.838  25.000   4.655
61590W        W33316   7.642  13.346  13.329
61591W        W33317  15.275  25.863   3.278
61592W        W33318   9.870   5.892  13.309
61593W        W33319  21.186  38.543   0.977
61594W        W33320  15.188   2.792  12.454
61595W        W33321  18.512  19.018   3.366
61596W        W33322  26.624  27.016  12.562
61597W        W33323  28.210  20.607   3.308
61598W        W33324  32.243  20.209   1.630
61599W        W33325  27.398  29.071   4.133
61600W        W33326  34.440  39.513  11.568
61601W        W33327  40.413   1.075  10.299
61602W        W33328   1.567  19.230   2.567
61603W        W33329  31.864  37.865   2.817
61604W        W33330   3.686  34.964  13.932
61605W        W33331  17.560  42.404  11.995
61606W        W33332  29.336  25.952  13.832
61607W        W33333  26.441   7.000   4.505
61608W        W33334  22.155   3.936   3.230
61609W        W33335  24.128  32.905  13.745
61610W        W33336   5.411  30.281   3.627
61611W        W33337  21.470  40.450  12.164
61612W        W33338  35.987  30.600  12.144
61613W        W33339  23.716  35.186  12.504
61614W        W33340  26.990  44.286  13.997
61615W        W33341  39.255  27.470  11.955
61616W        W33342  42.914   4.634  14.036
61617W        W33343  19.843  23.199  12.207
61618W        W33344  40.806  33.295  14.591
61619W        W33345   2.810  19.622   5.081
61620W        W33346  28.946  15.117  10.411
61621W        W33347  31.512  23.502   3.743
61622W        W33348   2.279   4.696  11.941
61623W        W33349  18.545   5.362  13.800
61624W        W33350  17.914   2.998  14.241
61625W        W33351  39.345  33.640   0.809
61626W        W33352   2.765  36.856   2.867
61627W        W33353   6.670  30.460  12.149
61628W        W33354  18.843  42.327   0.969
61629W        W33355  27.491  18.982  10.687
61630W        W33356   5.388  21.664  12.505
61631W        W33357  17.349   5.455   3.769
61632W        W33358   3.830  33.968   4.042
61633W        W33359  38.173   7.590   2.814
61634W        W33360  29.433  41.431   3.107
61635W        W33361  11.766  13.264  11.893
61636W        W33362  38.970  39.475  14.291
61637W        W33363   1.434  19.402  13.848
61638W        W33364  12.770  35.233   1.789
61639W        W33365  18.258  40.990  13.400
61640W        W33366  28.719  26.535  10.572
61641W        W33367  32.860  20.551  11.591
61642W        W33368  18.480  39.023   3.175
61643W        W33369  12.387  17.060   4.184
61644W        W33370  29.860   5.876  10.846
61645W        W33371  27.554  23.296   4.477
61646W        W33372   0.556  32.989  14.444
61647W        W33373   3.784  29.001   1.387
61648W        W33374  25.721  35.077  10.693
61649W        W33375  38.151  11.907  10.832
61650W        W33376  15.686  10.691   2.328
61651W        W33377  11.552  26.046  11.574
61652W        W33378   3.073  34.385   1.423
61653W        W33379   4.447  41.969   1.669
61654W        W33380  43.320  27.930  12.800
61655W        W33381  37.448  33.523  12.423
61656W        W33382  42.911  26.429   4.094
61657W        W33383   3.694   5.961  14.513
61658W        W33384  35.446  14.617  13.782
61659W        W33385  41.004  31.924   1.883
61660W        W33386  38.361  14.810   3.599
61661W        W33387  30.071  41.519  13.719
61662W        W33388  21.583  29.651  12.037
61663W        W33389  43.559  24.901   2.315
61664W        W33390  25.187  18.212   1.031
61665W        W33391  12.439  17.165  14.592
61666W        W33392  37.039   8.053  11.673
61667W        W33393  12.882  26.171   1.319
61668W        W33394  38.387  20.384   4.115
61669W        W33395  26.168  16.768   3.207
61670W        W33396  10.870  34.718  12.236
61671W        W33397  44.166  11.858   4.020
61672W        W33398  37.469   6.975   4.664
61673W        W33399   4.465  37.289  13.844
61674W        W33400  10.713   8.297  11.172
61675W        W33401  29.700  29.643  12.858
61676W        W33402   0.374  29.000  10.894
61677W        W33403   4.618  36.081  10.160
61678W        W33404  23.544  28.774   2.823
61679W        W33405   5.247   6.244   1.522
61680W        W33406  17.321  42.913  12.939
61681W        W33407  25.520  43.405  14.811
61682W        W33408  42.696   2.961  10.391
61683W        W33409  14.842  39.539  11.629
61684W        W33410  15.064  29.644  14.296
61685W        W33411  39.395  44.777   0.887
61686W        W33412  29.662  19.204   3.950
61687W        W33413   1.342  44.884   0.935
61688W        W33414  22.308   0.955  12.412
61689W        W33415  11.733  21.013   2.799
61690W        W33416  14.065  16.713   1.367
61691W        W33417   0.451  29.034  12.851
61692W        W33418   4.524  16.327  12.578
61693W        W33419   6.701  13.185  10.137
61694W        W33420  34.181  25.005  13.465
61695W        W33421  14.196   8.795  14.000
61696W        W33422  30.462  36.500  11.723
61697W        W33423  40.572   1.357   0.051
61698W        W33424  25.102   8.747   1.561
61699W        W33425  25.085   3.485  11.526
61700W        W33426  28.972  35.933  14.179
61701W        W33427  37.269  16.246  14.216
61702W        W33428  35.387  33.372   1.741
61703W        W33429  16.401  42.922  13.874
61704W        W33430  28.140   7.037   0.979
61705W        W33431  26.697  37.768   9.991
61706W        W33432   6.984   7.829  11.994
61707W        W33433   3.642  15.342   0.260
61708W        W33434  39.471   5.967   3.462
61709W        W33435  10.173  37.063   1.664
61710W        W33436   6.217  14.427  12.610
61711W        W33437  37.404  38.343   0.132
61712W        W33438  23.192  19.933   1.191
61713W        W33439  17.541  14.093  14.440
61714W        W33440  14.594  37.100   2.370
61715W        W33441   8.636  22.575   0.771
61716W        W33442  18.634  40.701   2.688
61717W        W33443  17.586   7.198  14.904
61718W        W33444  33.576  17.155   4.593
61719W        W33445  33.549  29.835   3.707
61720W        W33446  41.801  21.720   2.384
61721W        W33447   2.099  29.871   4.619
61722W        W33448  33.103  12.456  12.591
61723W        W33449  22.263  14.644  13.360
61724W        W33450  11.991  19.334   3.780
61725W        W33451  16.587  38.356  11.612
61726W        W33452   6.601   9.187  11.622
61727W        W33453  15.660  10.377  10.339
61728W        W33454  12.635  44.448   0.725
61729W        W33455  15.638  10.385  13.906
61730W        W33456  13.818  25.160   2.230
61731W        W33457   6.211   3.809  11.584
61732W        W33458  38.972  37.452   0.821
61733W        W33459  19.066  33.180   4.619
61734W        W33460  21.034  27.967   4.435
61735W        W33461  28.259  28.959  12.878
61736W        W33462  41.279   9.727  13.057
61737W        W33463  22.148  34.656   2.159
61738W        W33464   8.214  41.027  11.523
61739W        W33465   3.692  17.286   4.763
61740W        W33466  44.866  38.635   4.164
61741W        W33467  26.489   3.804   4.473
61742W        W33468   2.394   9.842  14.036
61743W        W33469  24.720  18.590   1.821
61744W        W33470  31.140   1.790  12.977
61745W        W33471  28.704  29.897   0.809
61746W        W33472  26.600  13.618  14.361
61747W        W33473   6.766  13.040   0.740
61748W        W33474   4.960  18.587   4.859
61749W        W33475  37.271  28.073  14.056
61750W        W33476   9.919  37.111   2.454
61751W        W33477  44.114   3.404   9.866
61752W        W33478   7.314  43.420   4.598
61753W        W33479  20.453  41.907  11.970
61754W        W33480  12.111  17.627  11.596
61755W        W33481   9.606   7.259  10.787
61756W        W33482  13.905  19.787   0.003
61757W        W33483   4.880  27.728  13.451
61758W        W33484   0.797  27.465   2.083
61759W        W33485   2.898  34.777  13.892
61760W        W33486   0.069  35.468   4.509
61761W        W33487   0.753  12.787   1.472
61762W        W33488  35.514  32.315  14.827
61763W        W33489  29.944  23.780   3.763
61764W        W33490  42.450   8.004   0.109
61765W        W33491  42.751  19.076  11.428
61766W        W33492   1.749  42.041  14.876
61767W        W33493   3.611  22.679  10.167
61768W        W33494   9.522  26.177   1.351
61769W        W33495   4.099  20.312   1.792
61770W        W33496  33.365  24.529   1.226
61771W        W33497  18.243  42.895   3.116
61772W        W33498  24.059  18.872   4.739
61773W        W33499  43.494  14.220  12.165
61774W        W33500   0.615   1.830   0.772
61775W        W33501   5.494  34.816   0.865
61776W        W33502   5.705   3.502  14.359
61777W        W33503   6.892  14.278  14.619
61778W        W33504  22.996  19.543  11.681
61779W        W33505  23.208  13.634  12.853
61780W        W33506  26.251  21.764   2.909
61781W        W33507   6.321  12.704   4.319
61782W        W33508  35.838   2.960   2.734
61783W        W33509  21.634  27.905  11.584
61784W        W33510  27.637   8.401  14.908
61785W        W33511  39.410  32.872   1.220
61786W        W33512  43.209  41.602  14.276
61787W        W33513  19.065   6.261  12.604
61788W        W33514  35.037  13.659   3.228
61789W        W33515  15.028  18.809   3.896
61790W        W33516  43.194  38.255   3.955
61791W        W33517  37.463  10.075  13.232
61792W        W33518  19.255  16.724  13.114
61793W        W33519  44.600  35.066  12.547
61794W        W33520  32.139  14.809   0.284
61795W        W33521   1.876  31.978  14.187
61796W        W33522   0.770  30.650  12.899
61797W        W33523  43.200   6.729   3.640
61798W        W33524   6.399  28.855   0.066
61799W        W33525  40.370  40.507   2.422
61800W        W33526  19.830   5.414  11.626
61801W        W33527  22.701  11.272   1.628
61802W        W33528  35.819  11.142  12.930
61803W        W33529  31.429  12.807  13.927
61804W        W33530   9.854  11.427   0.953
61805W        W33531  11.891  40.925  10.998
61806W        W33532  43.784  32.882   3.287
61807W        W33533  13.292   9.962  14.320
61808W        W33534  25.989  30.905   2.379
61809W        W33535  31.569  34.501   0.337
61810W        W33536   5.743   9.683  11.639
61811W        W33537   4.275   3.373  10.714
61812W        W33538  15.887  34.186   3.624
61813W        W33539  32.056  38.212   4.089
61814W        W33540  26.415  37.399   1.204
61815W        W33541  41.805  12.026  10.679
61816W        W33542  14.821  33.549   1.273
61817W        W33543  35.872  24.453  13.988
61818W        W33544  44.987  26.952   4.195
61819W        W33545  39.996   4.476  11.676
61820W        W33546  14.259  39.540  12.832
61821W        W33547  43.269  13.215   2.221
61822W        W33548  11.643  38.442  14.492
61823W        W33549  24.976   8.994   2.005
61824W        W33550  15.670  40.811  12.505
61825W        W33551  35.148  21.099  11.976
61826W        W33552  16.524  32.056   0.696
61827W        W33553  10.417   0.327   1.742
61828W        W33554  30.995  23.632   0.994
61829W        W33555  13.360   0.668   1.014
61830W        W33556   0.311  23.371  10.882
61831W        W33557  10.856  39.526  11.290
61832W        W33558  15.838  22.241   1.756
61833W        W33559  25.375  43.872   0.013
61834W        W33560  32.976  44.482  12.975
61835W        W33561  36.805  30.901   1.850
61836W        W33562  29.179   8.781   4.433
61837W        W33563  11.412  37.405   1.592
61838W        W33564   7.446  32.204  11.508
61839W        W33565  44.304  40.444  14.703
61840W        W33566   6.814  39.823  12.000
61841W        W33567  43.920  13.847  10.746
61842W        W33568  35.068  36.455  13.090
61843W        W33569  21.321  19.612  10.818
61844W        W33570  19.135   9.759  11.142
61845W        W33571   5.951  31.990   0.402
61846W        W33572  16.657   5.224   4.126
61847W        W33573  42.933  26.977   1.458
61848W        W33574  29.092  39.145   4.715
61849W        W33575  39.963  34.894   3.891
61850W        W33576   5.920  20.558  12.343
61851W        W33577  22.149   5.258   0.204
61852W        W33578  33.892  42.818  10.422
61853W        W33579   5.485   3.848   3.147
61854W        W33580  11.177   0.475  13.144
61855W        W33581  10.850  39.421  11.953
61856W        W33582  16.702  23.870   4.765
61857W        W33583  24.204  43.044   0.836
61858W        W33584  44.996   6.131   1.896
61859W        W33585  28.909   6.647  12.476
61860W        W33586   2.183  15.290  11.139
61861W        W33587  24.803  44.908  12.888
61862W        W33588   6.647  12.255  12.437
61863W        W33589   4.916  31.540   3.617
61864W        W33590  10.696   9.165  11.188
61865W        W33591  33.384  17.783  12.514
61866W        W33592  13.569  15.663   4.164
61867W        W33593  26.054  19.960  11.490
61868W        W33594  23.655  15.794   2.118
61869W        W33595  25.955  42.479  13.274
61870W        W33596  13.137   5.182  13.743
61871W        W33597   1.446   9.336   0.079
61872W        W33598   9.700  28.016  10.693
61873W        W33599  10.378  29.940   3.165
61874W        W33600  38.532  44.274   0.033
61875W        W33601   9.202  24.022  14.261
61876W        W33602  40.226  29.034   1.725
61877W        W33603   3.567   3.373  11.892
61878W        W33604  42.372  11.894   4.487
61879W        W33605  26.489  14.059  12.594
61880W        W33606  11.473  12.297   0.843
61881W        W33607  16.013   5.255  13.897
61882W        W33608  40.277  20.952   0.813
61883W        W33609  41.765  40.752  11.142
61884W        W33610  37.461   6.713  13.422
61885W        W33611  25.316  21.135   0.989
61886W        W33612  43.234  29.739  12.871
61887W        W33613  39.609   3.408   1.709
61888W        W33614  15.114  33.988   1.323
61889W        W33615  37.775  24.127  14.314
61890W        W33616  34.273  16.767   1.967
61891W        W33617   2.805   8.485   1.251
61892W        W33618  22.310  21.555   0.546
61893W        W33619   9.591  20.710  13.883
61894W        W33620  41.729  17.168   1.825
61895W        W33621  17.174   7.955  14.511
61896W        W33622  38.809  19.803  14.418
61897W        W33623  41.456  10.385   2.781
61898W        W33624  12.402  43.990  13.962
61899W        W33625  16.346  20.504   0.537
61900W        W33626   3.957  35.920   3.711
61901W        W33627  40.807  22.201   1.146
61902W        W33628  15.315  25.017  13.256
61903W        W33629  30.398  16.814  12.586
61904W        W33630  21.816  11.604  13.866
61905W        W33631  42.411  30.989   3.644
61906W        W33632  29.632   2.148  14.800
61907W        W33633  20.719   8.386   1.334
61908W        W33634   7.744  30.860   4.157
61909W        W33635  44.834  12.918  14.014
61910W        W33636  10.411  12.893   0.773
61911W        W33637  29.657  30.885  13.338
61912W        W33638  10.420  37.102  10.743
61913W        W33639  11.475  30.341   4.627
61914W        W33640  40.117   0.997   2.617
61915W        W33641   8.920   9.697  11.550
61916W        W33642  22.084   6.128   1.306
61917W        W33643  31.949  24.047   0.636
61918W        W33644  35.380  34.634  14.354
61919W        W33645  22.628  44.791  10.643
61920W        W33646  41.333  25.662   1.192
61921W        W33647   3.628  17.604  14.630
61922W        W33648   6.647  18.297   1.897
61923W        W33649  12.282  30.483  14.711
61924W        W33650  43.762  26.959  14.510
61925W        W33651  13.613  12.419  13.362
61926W        W33652  36.613   4.965   2.159
61927W        W33653  21.977  43.993  13.419
61928W        W33654  26.110  20.483   2.167
61929W        W33655   4.777  37.075   3.309
61930W        W33656  15.268  19.494  12.154
61931W        W33657  19.702  28.973  12.956
61932W        W33658  35.481  33.358   0.778
61933W        W33659  38.322  32.501  11.935
61934W        W33660   3.297  44.439  14.019
61935W        W33661   7.794   9.784  10.734
61936W        W33662  15.891  17.261  10.542
61937W        W33663  36.550  13.372   1.915
61938W        W33664  42.956  40.178   0.302
61939W        W33665  21.204  26.724   9.740
61940W        W33666  22.132  12.550   1.766
61941W        W33667  22.394  11.893   0.951
61942W        W33668   3.188  35.579   0.665
61943W        W33669  19.497  30.847   1.828
61944W        W33670  13.836  38.374   5.128
61945W        W33671  40.861   6.646  10.903
61946W        W33672  30.459  14.625  13.953
61947W        W33673   7.975   1.848  10.980
61948W        W33674  42.554   6.841  14.692
61949W        W33675  25.758  10.580  13.430
61950W        W33676  25.633  41.005   3.582
61951W        W33677  21.282  33.808  12.442
61952W        W33678  29.233  15.134   0.422
61953W        W33679  38.949  23.989   1.409
61954W        W33680  25.154  41.066   3.399
61955W        W33681  28.098  31.411   3.774
61956W        W33682  10.424  13.201   3.193
61957W        W33683  29.987  14.094   0.876
61958W        W33684  18.645   6.684  10.256
61959W        W33685  19.192  32.844   0.188
61960W        W33686  15.271  39.805   0.376
61961W        W33687   6.135  15.369   1.751
61962W        W33688  34.411  32.082  12.092
61963W        W33689  38.481  22.710   0.369
61964W        W33690  27.351  35.431   0.381
61965W        W33691  11.385  42.324   1.265
61966W        W33692  41.055  35.541  10.703
61967W        W33693  31.112  37.620  12.822
61968W        W33694  33.990   5.731  14.502
61969W        W33695  17.812  31.482  12.600
61970W        W33696  17.249  29.711   2.952
61971W        W33697  19.499  25.119  13.079
61972W        W33698  23.187  13.873   3.256
61973W        W33699  20.982  22.238   2.741
61974W        W33700  17.527  23.069  10.863
61975W        W33701   4.553   2.475  11.038
61976W        W33702   7.686  15.960  12.592
61977W        W33703  34.095  19.368  13.813
61978W        W33704  10.741   8.666  11.545
61979W        W33705  37.586  26.115  12.097
61980W        W33706  36.449  11.971   3.648
61981W        W33707  18.517   6.396   0.403
61982W        W33708  41.722  13.072  12.026
61983W        W33709  22.158  42.422  11.046
61984W        W33710  11.259  28.566  13.646
61985W        W33711   5.962  13.968   1.831
61986W        W33712  13.067  28.017  12.044
61987W        W33713   7.016   8.614   1.623
61988W        W33714  22.262   1.788   0.349
61989W        W33715  16.739   8.778  10.757
61990W        W33716  36.435  21.216  12.949
61991W        W33717  39.457  42.316   3.968
61992W        W33718   4.730  28.630  11.507
61993W        W33719  30.273  33.556   2.786
61994W        W33720   8.674  33.719   2.759
61995W        W33721  25.517  18.865  14.036
61996W        W33722   9.659   7.820  14.855
61997W        W33723  25.617  42.088   1.376
61998W        W33724   4.869  30.478   2.472
61999W        W33725  24.899  31.892   1.422
62000W        W33726  16.681  20.524  13.970
62001W        W33727  23.967  25.501  12.997
62002W        W33728  41.148  31.567  12.377
62003W        W33729  36.555  31.376   2.296
62004W        W33730  27.503  20.010   3.638
62005W        W33731  37.213  32.473   2.387
62006W        W33732  38.480  31.423  11.690
62007W        W33733  26.050  42.371  14.811
62008W        W33734  16.643  11.579  11.210
62009W        W33735  25.663   4.037  14.945
62010W        W33736  37.488   2.811   3.155
62011W        W33737  15.146   1.219  14.392
62012W        W33738  11.593  23.288   1.770
62013W        W33739  10.306   2.996  13.730
62014W        W33740   1.728  36.783  12.919
62015W        W33741  15.863  17.937  11.945
62016W        W33742  17.030  40.454   5.074
62017W        W33743  30.701  36.970   3.319
62018W        W33744   1.974  19.111   2.879
62019W        W33745  39.676  16.311   0.546
62020W        W33746  33.895   1.415   4.612
62021W        W33747  21.688  24.631   3.139
62022W        W33748  38.472  40.320  12.069
62023W        W33749  26.883  34.172   3.098
62024W        W33750   6.743  42.374   4.691
62025W        W33751  33.173  18.744  13.190
62026W        W33752  43.300  29.257  12.541
62027W        W33753  22.651  17.185   2.203
62028W        W33754   1.303   7.717   4.686
62029W        W33755  20.574  35.962   1.934
62030W        W33756  31.240  35.150  13.126
62031W        W33757   7.107  25.460   2.740
62032W        W33758   4.908  33.324   4.238
62033W        W33759  36.588  27.495  13.059
62034W        W33760  38.804  39.712  13.850
62035W        W33761  28.232  37.780   0.362
62036W        W33762   4.155  12.070  11.105
62037W        W33763  18.847  26.878  12.964
62038W        W33764  10.662  43.349  12.392
62039W        W33765  12.831  41.428  14.353
62040W        W33766   0.653  25.578  12.996
62041W        W33767  22.115  29.910  14.922
62042W        W33768  37.148  12.157  13.942
62043W        W33769  30.611   9.582   4.293
62044W        W33770   4.712  41.400   0.113
62045W        W33771   1.964  26.920  13.827
62046W        W33772   1.836  34.365  12.414
62047W        W33773  33.067  27.100   0.914
62048W        W33774  27.989   2.104  10.704
62049W        W33775  42.339   4.835  12.098
62050W        W33776  34.754  11.751  14.829
62051W        W33777  14.526  21.962   0.751
62052W        W33778  21.057  39.165   1.788
62053W        W33779   0.232  26.158   1.681
62054W        W33780  40.378  44.532   0.254
62055W        W33781   2.783  39.293   3.319
62056W        W33782   6.191  26.913  13.415
62057W        W33783  11.154   9.748   2.802
62058W        W33784   5.023  15.584  11.946
62059W        W33785   9.291  10.659  11.527
62060W        W33786  29.582  19.163   2.214
62061W        W33787  30.678  20.051   1.930
62062W        W33788  37.771   1.877   3.099
62063W        W33789  19.186  44.929  14.764
62064W        W33790  32.838  38.386   2.640
62065W        W33791   1.407  15.629   0.225
62066W        W33792  15.242  39.307  14.364
62067W        W33793  42.727  31.381   0.413
62068W        W33794   1.708  17.299   3.679
62069W        W33795  28.489   2.512  11.446
62070W        W33796  34.615   7.909  13.549
62071W        W33797  34.847  39.285   1.697
62072W        W33798  21.371  15.156   4.128
62073W        W33799  37.766  27.135   4.640
62074W        W33800  17.368   9.327   1.772
62075W        W33801  23.026   4.213  11.673
62076W        W33802   5.131   7.692  11.169
62077W        W33803  41.430   6.414  14.552
62078W        W33804   9.667  14.208   4.605
62079W        W33805  40.985  29.815   0.150
62080W        W33806  27.071  17.827  11.678
62081W        W33807  17.463  27.355   4.175
62082W        W33808  19.280  37.997   2.172
62083W        W33809  27.724   5.370  12.909
62084W        W33810  30.027  41.709  12.978
62085W        W33811  29.976   6.332  11.040
62086W        W33812  29.394   2.374  11.250
62087W        W33813  12.491   0.465   0.760
62088W        W33814  10.416  41.490  12.097
62089W        W33815  32.483  40.209  13.864
62090W        W33816   8.920  29.042  11.653
62091W        W33817  33.559  14.446  11.751
62092W        W33818  11.773   2.396  14.362
62093W        W33819  19.472  36.967   0.428
62094W        W33820  35.867   5.670   1.406
62095W        W33821  12.642  37.358   1.941
62096W        W33822  35.974  33.382  13.127
62097W        W33823  12.634  31.577  11.633
62098W        W33824  34.064  12.686  11.666
62099W        W33825  25.683  40.508  13.805
62100W        W33826  10.915  24.427  13.098
62101W        W33827  34.576   4.538  10.588
62102W        W33828   0.500   2.388  11.365
62103W        W33829  29.528  39.025  11.871
62104W        W33830  13.568   8.339   0.343
62105W        W33831  20.262  22.158  13.359
62106W        W33832  15.099  15.792   4.125
62107W        W33833  20.894  18.551  13.995
62108W        W33834  22.315  32.983   2.857
62109W        W33835  35.110   5.518  13.526
62110W        W33836  18.099  38.259   3.385
62111W        W33837  30.594   4.205   3.292
62112W        W33838   6.198  28.466   4.855
62113W        W33839  22.794  37.773   1.926
62114W        W33840  27.897  18.395   1.235
62115W        W33841  32.034   3.784   2.154
62116W        W33842  15.955  13.778   2.639
62117W        W33843   2.668  40.090  10.797
62118W        W33844  37.548  44.037   0.405
62119W        W33845  10.411  35.183  10.657
62120W        W33846   7.645   4.546   3.035
62121W        W33847  20.141  28.422   1.767
62122W        W33848   7.404  11.767   2.274
62123W        W33849  17.530   2.982   3.797
62124W        W33850  22.123  44.722   4.261
62125W        W33851  38.957   4.753  13.817
62126W        W33852   6.260  17.852  12.618
62127W        W33853  29.899  20.809   1.360
62128W        W33854  19.466   2.855  12.505
62129W        W33855   2.844  34.882   0.815
62130W        W33856  15.018  18.743  10.758
62131W        W33857  30.412  44.012  13.941
62132W        W33858  40.246  33.546   4.534
62133W        W33859  30.982  19.164  14.470
62134W        W33860   2.352   4.061   3.391
62135W        W33861  21.699  42.020   4.377
62136W        W33862  33.337  12.101  11.814
62137W        W33863  10.042  40.853  14.516
62138W        W33864  38.923   1.322  13.959
62139W        W33865  39.152  25.118  13.844
62140W        W33866  20.296   5.180  11.618
62141W        W33867  30.867  13.688   1.528
62142W        W33868  15.326  22.325  14.443
62143W        W33869  17.828  25.783  13.069
62144W        W33870   1.646  22.054   3.845
62145W        W33871  23.503  29.123   1.232
62146W        W33872  23.556  28.682   3.851
62147W        W33873  11.581  35.005   2.167
62148W        W33874  30.174  43.348   0.945
62149W        W33875  15.523  22.773   0.973
62150W        W33876  31.657   3.880  12.473
62151W        W33877  27.880  24.226  10.987
62152W        W33878  34.689  41.889  12.935
62153W        W33879  39.297  21.161  12.054
62154W        W33880  11.880  20.768   4.222
62155W        W33881  14.829  36.403   3.529
62156W        W33882  38.997  35.598   3.128
62157W        W33883   4.974  44.389  14.362
62158W        W33884  39.892  25.022  10.966
62159W        W33885  32.594  24.034   3.212
62160W        W33886  26.462  24.921  12.159
62161W        W33887  41.395  13.336  10.711
62162W        W33888  23.990  18.487  10.698
62163W        W33889  17.755   8.692  12.419
62164W        W33890  13.332  19.843  11.135
62165W        W33891  43.461  25.179  12.126
62166W        W33892  29.546  44.304  11.119
62167W        W33893  37.557   3.293   1.039
62168W        W33894  14.874  39.878   4.585
62169W        W33895  28.622   9.742  11.418
62170W        W33896  20.841   3.998  14.541
62171W        W33897  29.995  18.684   4.917
62172W        W33898  30.686  43.270  13.495
62173W        W33899  14.184  36.222   1.883
62174W        W33900  20.220  39.959  11.601
62175W        W33901  41.365  42.241   1.290
62176W        W33902  18.613   6.368  10.685
62177W        W33903  35.392  42.023   1.284
62178W        W33904  28.111   6.959   4.016
62179W        W33905  26.089  35.569   2.648
62180W        W33906  38.571  24.121   4.149
62181W        W33907  41.773  38.782  10.661
62182W        W33908  31.105  19.105  10.809
62183W        W33909  37.581  36.462   2.321
62184W        W33910  44.875  14.219   1.675
62185W        W33911   7.196  29.080   4.373
62186W        W33912  28.113  28.680   3.783
62187W        W33913  16.063  13.246  13.549
62188W        W33914   2.917  19.169  12.412
62189W        W33915  38.442  22.279  10.893
62190W        W33916  14.551  35.778   1.166
62191W        W33917  38.917  16.037   4.448
62192W        W33918  42.980  10.230  12.127
62193W        W33919  19.020  22.557  14.555
62194W        W33920   9.374  28.783  13.009
62195W        W33921  21.202  13.246   1.067
62196W        W33922  39.630  16.728  11.076
62197W        W33923  29.065  13.680  11.965
62198W        W33924   7.836  43.709   1.292
62199W        W33925  14.106   8.871  14.519
62200W        W33926  17.296  43.268  11.161
62201W        W33927   0.241  11.626   1.194
62202W        W33928  19.674   7.529  11.992
62203W        W33929  38.522  22.762   2.773
62204W        W33930  14.095  36.352  12.457
62205W        W33931   5.522  27.868   2.226
62206W        W33932  30.508   4.709   3.299
62207W        W33933   7.294  42.358   3.799
62208W        W33934  43.195  44.349  14.405
62209W        W33935  28.722   6.365  14.422
62210W        W33936   4.169  23.969  14.081
62211W        W33937  25.809  13.933   0.921
62212W        W33938  38.035   1.963  12.405
62213W        W33939  33.111   1.348   0.017
62214W        W33940   4.881  44.527   0.760
62215W        W33941  27.984  30.151  10.790
62216W        W33942  30.173  21.886  13.970
62217W        W33943   7.201  24.990   0.213
62218W        W33944   1.386  20.668  10.969
62219W        W33945   9.643   0.053   1.881
62220W        W33946  18.212  36.405  11.968
62221W        W33947  13.351   4.883   4.415
62222W        W33948  19.276  15.716   1.329
62223W        W33949  39.959  22.242   2.101
62224W        W33950  27.962  33.542  12.135
62225W        W33951  31.670  27.195  10.706
62226W        W33952   7.127  21.314  13.588
62227W        W33953  27.025   9.430  12.024
62228W        W33954   3.719  13.683  14.215
62229W        W33955  17.794  28.980  11.019
62230W        W33956  26.352  38.313   4.589
62231W        W33957  28.421  25.189   4.126
62232W        W33958   0.577  33.924  12.375
62233W        W33959  14.625   4.467   0.639
62234W        W33960  13.624  19.189   2.688
62235W        W33961  28.323  29.158   0.362
62236W        W33962  40.764  10.666   1.801
62237W        W33963  23.721  34.312   3.085
62238W        W33964  32.113   2.972  12.356
62239W        W33965   8.910   4.313  13.057
62240W        W33966   7.824  14.359   2.765
62241W        W33967   9.350  31.992   4.629
62242W        W33968   3.132  10.283  13.572
62243W        W33969   1.914   6.410  14.909
62244W        W33970  10.604  43.210  13.648
62245W        W33971  28.644  27.842  12.673
62246W        W33972  17.209  42.079  14.751
62247W        W33973  37.069  16.561  14.769
62248W        W33974  28.253   5.266  10.516
62249W        W33975  16.032  31.078   3.943
62250W        W33976  41.906  42.384   1.822
62251W        W33977  21.441  40.794  14.030
62252W        W33978  26.585  39.958   3.184
62253W        W33979  32.587  26.068   3.069
62254W        W33980  23.510   2.295  11.647
62255W        W33981  42.789  12.268   1.178
62256W        W33982   0.377  14.769  12.790
62257W        W33983  40.905   2.685   3.245
62258W        W33984  18.102  34.392   0.519
62259W        W33985  15.159  36.013   0.281
62260W        W33986  35.554  19.620   4.619
62261W        W33987   5.470  31.685   2.325
62262W        W33988  34.846  35.514   3.908
62263W        W33989  29.079  25.141   2.131
62264W        W33990  35.252  12.642  14.455
62265W        W33991  10.691  12.202   2.394
62266W        W33992   4.613   7.608  11.104
62267W        W33993  24.566  20.064  12.938
62268W        W33994  17.319  28.682   2.833
62269W        W33995  28.836  15.952  12.295
62270W        W33996  18.134  22.449   1.449
62271W        W33997  43.939  13.772   0.829
62272W        W33998   6.195  13.010   5.068
62273W        W33999  30.202  24.404  14.870
62274W        W34000   9.249  28.127   2.431
62275W        W34001  19.847  26.071   2.349
62276W        W34002   7.113   3.173   3.622
62277W        W34003  41.748  25.954  10.768
62278W        W34004   3.264  27.698   3.741
62279W        W34005  19.010  30.628   0.222
62280W        W34006  28.204  15.800   1.762
62281W        W34007  16.379  28.057   1.767
62282W        W34008  33.660  25.993   0.463
62283W        W34009  13.082  15.494   4.134
62284W        W34010  16.206   0.392  13.768
62285W        W34011  16.173  26.008   1.913
62286W        W34012  14.647  21.848   4.082
62287W        W34013  18.720  29.340  11.588
62288W        W34014  23.722  17.227  14.272
62289W        W34015  41.962   5.206   0.810
62290W        W34016  39.969   9.403   2.281
62291W        W34017   0.288  42.728   4.264
62292W        W34018   6.624  41.825  13.805
62293W        W34019   7.858  14.086   3.285
62294W        W34020  30.515   7.224   4.646
62295W        W34021  24.300   2.253   2.883
62296W        W34022  37.930  37.758  14.565
62297W        W34023  24.394  14.181  10.634
62298W        W34024  32.873  22.161  14.419
62299W        W34025   1.308  30.132   2.937
62300W        W34026  24.108  41.932  14.059
62301W        W34027   8.350  20.240  14.594
62302W        W34028   9.377  29.978  13.144
62303W        W34029  17.925  17.255  10.476
62304W        W34030   7.953  18.997  10.840
62305W        W34031  18.666   3.745  14.454
62306W        W34032  22.181   4.636  14.362
62307W        W34033  43.752  44.391  13.540
62308W        W34034  34.963  15.038  12.411
62309W        W34035   5.807  37.224  12.986
62310W        W34036  35.180  34.859   3.177
62311W        W34037  33.675  25.525   3.613
62312W        W34038  16.293  28.086  13.456
62313W        W34039   6.267  42.954   3.126
62314W        W34040   3.617   2.256  13.647
62315W        W34041  32.919   1.311  14.534
62316W        W34042  42.837   1.903   2.204
62317W        W34043   2.051  29.097  12.589
62318W        W34044  21.357  18.056   4.176
62319W        W34045  11.636  32.873  11.632
62320W        W34046   9.249  43.362  13.072
62321W        W34047   9.344   0.301  13.937
62322W        W34048  10.158  30.202   4.836
62323W        W34049  37.903  20.499   3.807
62324W        W34050  30.420  32.098   2.583
62325W        W34051  24.458  14.085  10.135
62326W        W34052   6.562  33.620   1.685
62327W        W34053  32.844  38.317  11.156
62328W        W34054  31.954  18.716   2.529
62329W        W34055  33.697  18.204   0.720
62330W        W34056  39.942  32.023  12.356
62331W        W34057  44.451  42.228  12.800
62332W        W34058  36.960  24.592   2.190
62333W        W34059  19.150  26.606  10.915
62334W        W34060   9.737   3.188   3.286
62335W        W34061  28.505  21.581   1.015
62336W        W34062  25.825  31.839  14.987
62337W        W34063  10.163  31.866   1.466
62338W        W34064   6.918   8.816  11.253
62339W        W34065   4.766  21.356  13.089
62340W        W34066  28.138  15.188  11.125
62341W        W34067  24.690  18.979  13.465
62342W        W34068  36.008   5.448  12.431
62343W        W34069   8.746  40.261   1.520
62344W        W34070  44.969  39.386  10.863
62345W        W34071   1.086  27.886   2.253
62346W        W34072  30.814  37.089   3.812
62347W        W34073  11.604  27.560  12.233
62348W        W34074   2.271  34.416  14.427
62349W        W34075  32.661   4.667  11.476
62350W        W34076   7.718  25.943  12.554
62351W        W34077   1.182  13.994  13.837
62352W        W34078   4.413  42.298   3.472
62353W        W34079   0.314  19.743  14.328
62354W        W34080  23.475  25.747  14.959
62355W        W34081   8.780   6.305   2.495
62356W        W34082  34.969   0.914  13.400
62357W        W34083  15.212   2.256   1.154
62358W        W34084  21.564   5.655  13.962
62359W        W34085  39.027  37.531  13.121
62360W        W34086  22.141  41.719  11.579
62361W        W34087  35.667  15.040   2.069
62362W        W34088  37.143  16.110  11.569
62363W        W34089  11.908  37.492   4.115
62364W        W34090  38.054  15.411   0.785
62365W        W34091  18.975  10.337  14.168
62366W        W34092  33.971  41.752   0.589
62367W        W34093  17.881  13.869   2.577
62368W        W34094  21.057   2.684   0.527
62369W        W34095   4.408   5.441  12.859
62370W        W34096  35.922  13.387  11.613
62371W        W34097  30.057  30.617   0.801
62372W        W34098  10.413  30.500  13.409
62373W        W34099  13.554  28.862   2.737
62374W        W34100  35.829  23.424   2.630
62375W        W34101  25.291  43.582   0.763
62376W        W34102  16.437  39.922   3.096
62377W        W34103  37.575  13.995   2.696
62378W        W34104  35.638   8.651   3.357
62379W        W34105  31.457  20.384  11.245
62380W        W34106  24.050   8.402  10.612
62381W        W34107   3.767  37.138  12.868
62382W        W34108   2.457  28.895  11.746
62383W        W34109  36.853  42.277  11.558
62384W        W34110  17.243  11.644  10.114
62385W        W34111   3.814   8.697   5.181
62386W        W34112  33.017  21.320  12.305
62387W        W34113  34.666  34.075   1.766
62388W        W34114  14.390  21.262  11.458
62389W        W34115  14.625  40.868  13.920
62390W        W34116   2.355   7.145   2.219
62391W        W34117  20.071  35.614   3.681
62392W        W34118   8.225  15.852  12.502
62393W        W34119  12.889  33.400   1.338
62394W        W34120  34.679   1.660   2.868
62395W        W34121  38.498  34.284   1.439
62396W        W34122   3.905   0.676   3.588
62397W        W34123  39.318   4.604   0.385
62398W        W34124  38.934   4.631   0.742
62399W        W34125   6.682  31.075  10.432
62400W        W34126  11.932  34.426   1.375
62401W        W34127   3.009   0.904   0.625
62402W        W34128  32.457  40.980   1.876
62403W        W34129  12.048  14.288   2.529
62404W        W34130  20.282  34.170  13.425
62405W        W34131  12.291  29.166   0.912
62406W        W34132  43.177   5.249   1.318
62407W        W34133  15.361  33.145   9.993
62408W        W34134  44.469  43.735   2.277
62409W        W34135  41.384  31.982  12.640
62410W        W34136  21.023  19.200  13.541
62411W        W34137   8.535   5.172   0.456
62412W        W34138  17.219   0.326   1.850
62413W        W34139   5.764  42.569   3.221
62414W        W34140  17.746   7.020  13.922
62415W        W34141   5.001  23.338   0.155
62416W        W34142   7.935  11.681  13.828
62417W        W34143  11.075   0.792  11.590
62418W        W34144   7.305  30.608  14.799
62419W        W34145   0.340  11.152  10.764
62420W        W34146  15.100  37.542   9.764
62421W        W34147   1.502  22.423   3.521
62422W        W34148  40.412   8.218  13.841
62423W        W34149  23.464  16.608   2.182
62424W        W34150  12.195  18.026   1.478
62425W        W34151  30.766  17.653  10.529
62426W        W34152   4.620  39.734   3.217
62427W        W34153  28.473  26.651   0.707
62428W        W34154  35.226   4.226  11.434
62429W        W34155  14.734  22.746  14.004
62430W        W34156  22.108  31.992   1.877
62431W        W34157  28.138  31.432   4.321
62432W        W34158   6.297  28.620   2.321
62433W        W34159   3.788  33.124   0.465
62434W        W34160   3.705   6.092   3.677
62435W        W34161  32.454  41.278  14.073
62436W        W34162   8.608  20.130   0.355
62437W        W34163   8.086   6.254  14.565
62438W        W34164   3.332  37.520   2.658
62439W        W34165  27.150  40.833  11.030
62440W        W34166  39.483  41.392  13.410
62441W        W34167  39.134  17.252  11.536
62442W        W34168   4.995  38.801  10.411
62443W        W34169  30.638  35.938  12.872
62444W        W34170   2.799  10.947  13.474
62445W        W34171   4.643  23.746  10.146
62446W        W34172  10.269   3.686   0.453
62447W        W34173  42.127  12.306  14.971
62448W        W34174  21.482  34.592  12.830
62449W        W34175   5.340  40.326  11.384
62450W        W34176  22.207  15.933   1.814
62451W        W34177  39.061  18.571  12.687
62452W        W34178   0.210  23.146  11.772
62453W        W34179  44.246   8.634  13.522
62454W        W34180  34.183   1.929  13.119
62455W        W34181  16.372   5.908   3.068
62456W        W34182   6.890  27.552   4.702
62457W        W34183  25.806   1.540   0.776
62458W        W34184  21.216  37.065  14.486
62459W        W34185  31.537  42.096  14.840
62460W        W34186   3.106  16.582   1.757
62461W        W34187  18.288  27.577   0.203
62462W        W34188  33.937  44.379   2.757
62463W        W34189  24.716   0.347   3.777
62464W        W34190  25.206  22.196   3.641
62465W        W34191   0.001  20.982   2.698
62466W        W34192  27.629  15.492   2.805
62467W        W34193  14.220  30.317   2.792
62468W        W34194  21.095  18.143  11.036
62469W        W34195   0.207  12.074  10.634
62470W        W34196  24.501  35.920  13.465
62471W        W34197  30.591  36.577  10.407
62472W        W34198  17.865  18.354  13.416
62473W        W34199  14.183  27.926   4.166
62474W        W34200  30.526  10.217   1.724
62475W        W34201  32.459  32.844   0.393
62476W        W34202  17.830  14.056   1.455
62477W        W34203  12.134  15.562   0.231
62478W        W34204   4.794  13.292  10.274
62479W        W34205   7.678  31.916   1.450
62480W        W34206   9.511  28.079  14.367
62481W        W34207   8.691  31.891   1.684
62482W        W34208  24.512  28.744  13.433
62483W        W34209  31.861   6.753   2.919
62484W        W34210  14.718  15.205  14.674
62485W        W34211  32.814  39.621  12.103
62486W        W34212   1.395  42.371   2.348
62487W        W34213  16.524   0.814  11.519
62488W        W34214  29.563  24.314  10.128
62489W        W34215  17.764  33.551  10.636
62490W        W34216  17.156  15.066  10.575
62491W        W34217   0.257  30.086   1.436
62492W        W34218  31.700   7.634  11.950
62493W        W34219  34.821  10.145   3.787
62494W        W34220   2.178  15.796  11.232
62495W        W34221  17.376  24.741  11.105
62496W        W34222  28.185  31.663  12.206
62497W        W34223  36.123  44.770   0.477
62498W        W34224  44.721  41.242  12.472
62499W        W34225  17.389  13.284   2.338
62500W        W34226   6.726  15.555  12.535
62501W        W34227  15.026   3.290  12.433
62502W        W34228  15.291   0.250  13.617
62503W        W34229  24.443  24.999  13.502
62504W        W34230  12.654  13.895  14.476
62505W        W34231  42.987   5.775   3.537
62506W        W34232   9.140   6.798   0.087
62507W        W34233  29.428   1.465  13.738
62508W        W34234  40.294  10.016   0.016
62509W        W34235   5.888  39.950   0.714
62510W        W34236  35.499  20.277   1.937
62511W        W34237   4.435   5.265  10.894
62512W        W34238  40.314   3.399  14.369
62513W        W34239  25.093  23.411  11.972
62514W        W34240  15.708  26.178   3.187
62515W        W34241  27.118  40.417   2.918
62516W        W34242  10.167  10.246  12.883
62517W        W34243  22.795  14.118   3.042
62518W        W34244  44.465  18.772   4.653
62519W        W34245  40.909  27.199   0.695
62520W        W34246  12.658  12.210  13.542
62521W        W34247  22.502   5.320   4.537
62522W        W34248   3.802  29.644   2.341
62523W        W34249  36.026  42.684  13.539
62524W        W34250  44.791   9.494   3.183
62525W        W34251  42.064  28.556  12.871
62526W        W34252  10.268  35.960  13.997
62527W        W34253   0.577  24.894  14.340
62528W        W34254  30.127  26.601  14.762
62529W        W34255   4.729  27.078  11.574
62530W        W34256  19.011  33.050   3.739
62531W        W34257  34.032  30.944  14.802
62532W        W34258  19.560  27.895   2.313
62533W        W34259   1.985  21.663   2.600
62534W        W34260  19.341   6.780   3.751
62535W        W34261  29.209  43.797  13.231
62536W        W34262   1.294  15.786  14.209
62537W        W34263  19.259  12.963  13.865
62538W        W34264  26.221  29.005  11.771
62539W        W34265   5.677  15.245  13.475
62540W        W34266  20.952  30.794   1.198
62541W        W34267  37.654  33.630   3.774
62542W        W34268   8.787  37.955   2.832
62543W        W34269  44.306  26.257   3.357
62544W        W34270  18.121  24.878   0.907
62545W        W34271  11.118  18.236  12.862
62546W        W34272   9.281   8.613   1.585
62547W        W34273   0.513  20.198  11.597
62548W        W34274  11.669  24.305  14.957
62549W        W34275  36.415  36.599   4.193
62550W        W34276   7.372  36.662  13.281
62551W        W34277  37.008   1.301  14.509
62552W        W34278  26.995  38.210   0.279
62553W        W34279  29.733  42.330  10.942
62554W        W34280  38.548  41.491   1.674
62555W        W34281   3.962   1.634  11.663
62556W        W34282  23.953  25.505  14.976
62557W        W34283  32.897  36.511  14.844
62558W        W34284  23.059  41.661  11.476
62559W        W34285  39.697  39.291   1.188
62560W        W34286  37.950   7.821   3.197
62561W        W34287  20.507  32.344   2.896
62562W        W34288   3.315  44.282  10.005
62563W        W34289  28.849  42.288  14.961
62564W        W34290  39.074  10.259  14.054
62565W        W34291  26.567  25.600  10.595
62566W        W34292  17.596  33.674  13.384
62567W        W34293  39.411  23.772   1.363
62568W        W34294  16.315  11.792   3.256
62569W        W34295  19.234   1.659  13.972
62570W        W34296  22.158  14.598   2.139
62571W        W34297   5.245  32.130  12.434
62572W        W34298  17.178  14.123   3.619
62573W        W34299  40.891  31.531   3.320
62574W        W34300  39.783   7.627  11.070
62575W        W34301  42.164  31.036  14.279
62576W        W34302  34.040  11.651  12.862
62577W        W34303  34.953   1.756  11.430
62578W        W34304   6.636  17.275  10.745
62579W        W34305   2.856   3.269  13.636
62580W        W34306  35.040  10.752  14.878
62581W        W34307  27.809   0.113  10.491
62582W        W34308  12.384   4.798  11.670
62583W        W34309  25.007   9.078   2.762
62584W        W34310  42.286  41.103   2.788
62585W        W34311  42.369  41.437   4.401
62586W        W34312   6.436  36.742  12.437
62587W        W34313  26.695  33.573  12.973
62588W        W34314  13.771  38.390  13.419
62589W        W34315  10.770  10.004   2.552
62590W        W34316  26.818   6.278  10.826
62591W        W34317  21.280  39.940  11.487
62592W        W34318  22.074  14.169  13.029
62593W        W34319   8.595  20.756  14.264
62594W        W34320  12.287  13.594   3.681
62595W        W34321   7.646   2.408   1.353
62596W        W34322  36.102  14.488   2.724
62597W        W34323  36.133  29.557   4.156
62598W        W34324  13.872  38.401   1.327
62599W        W34325   8.211  20.957  13.849
62600W        W34326  34.893  31.118   2.637
62601W        W34327  36.198   9.775  12.975
62602W        W34328  12.992  35.565   5.096
62603W        W34329  20.442  19.589   1.447
62604W        W34330  30.064  32.361  14.233
62605W        W34331  38.553  16.019  10.433
62606W        W34332  25.004  13.052  12.614
62607W        W34333  31.427  40.412  13.838
62608W        W34334  28.038  14.672  11.205
62609W        W34335  39.594  35.919  12.075
62610W        W34336  33.523  29.718   0.510
62611W        W34337  36.556  11.758   1.817
62612W        W34338  13.329  14.042  13.990
62613W        W34339  43.903  27.973  14.734
62614W        W34340  29.163   2.258   1.314
62615W        W34341   0.418  30.319  14.023
62616W        W34342  26.591  21.386  12.625
62617W        W34343  44.899  36.401   1.874
62618W        W34344   9.501   2.336   2.839
62619W        W34345  20.805   6.340  13.997
62620W        W34346  10.342  34.689  14.363
62621W        W34347  12.425   9.648   4.145
62622W        W34348   3.297  11.323   1.810
62623W        W34349   6.811  43.242  14.992
62624W        W34350  39.424  20.060  11.516
62625W        W34351  28.028  15.625  14.980
62626W        W34352  32.988  19.156   1.727
62627W        W34353   9.553  21.277   3.797
62628W        W34354  42.555   3.476  11.595
62629W        W34355  39.011   2.320  10.000
62630W        W34356  21.930  34.900   2.546
62631W        W34357  14.156  23.554   4.469
62632W        W34358  44.725   1.784   1.275
62633W        W34359  12.825  35.199  11.623
62634W        W34360  11.421  27.595   2.422
62635W        W34361  39.805  16.065  13.597
62636W        W34362   6.358  43.341   2.287
62637W        W34363  44.290   9.175  12.065
62638W        W34364  30.179   9.676  12.205
62639W        W34365   5.436   0.492  10.331
62640W        W34366   5.441  41.340  13.067
62641W        W34367  37.602  34.457   1.886
62642W        W34368  14.118  43.392  12.534
62643W        W34369  28.034  15.530   3.128
62644W        W34370  44.063  29.946  13.781
62645W        W34371  39.518  18.232   3.156
62646W        W34372  31.229  20.493   0.015
62647W        W34373  10.812  32.698  14.823
62648W        W34374  12.739  37.133   3.101
62649W        W34375  37.417  22.796   5.035
62650W        W34376  40.999   2.378  11.149
62651W        W34377  42.373  26.707  13.250
62652W        W34378  20.327  26.660  10.044
62653W        W34379  27.864  21.305  12.037
62654W        W34380  20.074  19.094  11.597
62655W        W34381   6.926  20.396   1.742
62656W        W34382   9.217  13.265  11.240
62657W        W34383   2.653   7.894  12.057
62658W        W34384  40.991  21.090   1.369
62659W        W34385  20.777  15.665  13.059
62660W        W34386  44.875   9.925   4.274
62661W        W34387  16.577  22.859  13.862
62662W        W34388  29.448  22.142  10.673
62663W        W34389  40.587  35.744  10.576
62664W        W34390  29.017  13.265   2.354
62665W        W34391   4.206  26.961   0.282
62666W        W34392  17.328  41.529   3.176
62667W        W34393  40.913  26.437   2.823
62668W        W34394   7.586   8.505   0.409
62669W        W34395  14.435   1.621   0.887
62670W        W34396   1.651  13.772  14.780
62671W        W34397   6.400  39.099  13.430
62672W        W34398  22.703   1.288   1.166
62673W        W34399   3.385  37.483  12.804
62674W        W34400  38.803   9.129   0.918
62675W        W34401  22.583  16.729   3.677
62676W        W34402  37.471   2.379  10.424
62677W        W34403   7.940  10.757  13.268
62678W        W34404  40.107   8.695   3.745
62679W        W34405  40.885   4.502   2.541
62680W        W34406  44.293   7.628  10.630
62681W        W34407  15.904  22.061  13.293
62682W        W34408   9.275  31.670   2.732
62683W        W34409   6.384   0.396   1.670
62684W        W34410   3.264  36.491  13.602
62685W        W34411  14.626   0.950  13.376
62686W        W34412  25.676  38.019  14.305
62687W        W34413  38.469  40.512  10.716
62688W        W34414  19.242   2.180  14.066
62689W        W34415  43.797  36.076   1.302
62690W        W34416  12.908   2.665  11.555
62691W        W34417   1.056  28.460  14.304
62692W        W34418  14.875  16.041  11.916
62693W        W34419  41.365  21.237   3.209
62694W        W34420   7.368  12.608  10.741
62695W        W34421  24.535  11.351  13.013
62696W        W34422   5.848   5.877  11.615
62697W        W34423  22.533   0.255  12.599
62698W        W34424  24.663  16.259   0.806
62699W        W34425  16.352  36.399   1.429
62700W        W34426   6.096  41.833   4.077
62701W        W34427  30.947  17.083   0.553
62702W        W34428  33.341  13.239  12.624
62703W        W34429  39.436  26.042   4.541
62704W        W34430  42.413  23.734  14.099
62705W        W34431  39.470  23.511  13.526
62706W        W34432   2.066  37.888  12.560
62707W        W34433  29.803  10.120   0.472
62708W        W34434  44.274  44.690   3.282
62709W        W34435   7.992   0.804  14.890
62710W        W34436   9.573  35.196  13.382
62711W        W34437  29.290  25.041  11.886
62712W        W34438  12.723  39.064   1.330
62713W        W34439  27.535  12.882   3.842
62714W        W34440  13.782  35.401   0.210
62715W        W34441  28.917   3.453  12.972
62716W        W34442   2.207  13.630  10.463
62717W        W34443   7.675  42.381  10.851
62718W        W34444  11.912   9.691   3.273
62719W        W34445  21.995   9.826   0.332
62720W        W34446  44.916  23.042  14.290
62721W        W34447  36.006   0.216   4.081
62722W        W34448  26.119  17.031  11.899
62723W        W34449  13.026  20.093  12.031
62724W        W34450   0.840  34.850  12.799
62725W        W34451  19.512  33.757   0.968
62726W        W34452  17.272  33.484  13.926
62727W        W34453  17.199  14.324   3.088
62728W        W34454  10.296  44.788   3.363
62729W        W34455  16.645  24.896   4.688
62730W        W34456   9.196  36.591  12.584
62731W        W34457  11.430   0.860  13.442
62732W        W34458  43.751  26.564   3.782
62733W        W34459  18.654  14.808  13.133
62734W        W34460   2.408  14.979  11.500
62735W        W34461  25.868  18.327   1.207
62736W        W34462  25.122   1.558   5.358
62737W        W34463  20.742  24.478   3.259
62738W        W34464  22.972  28.638  10.509
62739W        W34465   5.112  37.987  13.942
62740W        W34466  18.057  44.887   1.493
62741W        W34467  38.042   7.582  14.892
62742W        W34468  10.696  23.577   3.965
62743W        W34469  16.992  18.670  14.517
62744W        W34470  37.373   4.456   4.343
62745W        W34471  18.135  12.866  10.531
62746W        W34472  33.847  30.676   3.551
62747W        W34473   9.945  41.294  12.855
62748W        W34474  37.000  21.141  14.979
62749W        W34475  10.741   1.777  12.491
62750W        W34476  29.938  29.707   2.220
62751W        W34477  30.659  31.679  11.969
62752W        W34478  28.474  41.578  14.419
62753W        W34479  17.622  40.720   0.355
62754W        W34480   7.360  28.652   4.616
62755W        W34481   1.394  22.760  11.502
62756W        W34482  28.955  14.963  12.127
62757W        W34483  14.861   2.449  10.729
62758W        W34484  20.487  28.710  12.521
62759W        W34485  44.876  33.689  14.579
62760W        W34486   9.630  21.803  10.955
62761W        W34487  21.772  12.359  14.132
62762W        W34488   0.521  38.951   1.346
62763W        W34489  33.762  16.559   3.281
62764W        W34490  34.978  12.121  14.556
62765W        W34491   0.418  37.972   4.616
62766W        W34492  19.386   2.546   1.742
62767W        W34493  40.720  32.542  12.444
62768W        W34494  18.365  44.874  13.043
62769W        W34495  17.433  12.519   1.716
62770W        W34496  14.280  31.950  10.657
62771W        W34497  19.123  14.083  11.765
62772W        W34498   6.880  17.469   4.363
62773W        W34499  26.036   0.935   2.881
62774W        W34500  21.143  28.459   0.449
62775W        W34501  10.402  44.982  14.969
62776W        W34502   8.744  15.829   1.579
62777W        W34503  11.803  32.643   3.628
62778W        W34504  23.944  21.018  12.892
62779W        W34505  24.574  10.198  10.857
62780W        W34506  43.726  33.443  13.360
62781W        W34507  43.994   5.149   3.862
62782W        W34508  34.301  43.787   0.830
62783W        W34509  29.586  24.979   3.352
62784W        W34510   8.870   6.857  12.319
62785W        W34511  35.125  41.350  12.842
62786W        W34512  32.519  40.760   2.922
62787W        W34513  32.574   1.242   3.380
62788W        W34514  23.489  40.426  13.419
62789W        W34515  10.274   5.557  10.310
62790W        W34516  10.795  19.120   3.462
62791W        W34517  35.142  25.862   2.416
62792W        W34518  36.369  26.705   0.878
62793W        W34519  19.729  17.870   2.706
62794W        W34520  43.140  18.292   3.327
62795W        W34521  12.900  33.200  12.980
62796W        W34522  31.435   0.697   3.295
62797W        W34523  32.822  26.170   2.636
62798W        W34524   5.463   0.104  14.815
62799W        W34525  39.853  27.017   2.862
62800W        W34526  24.305  44.867   4.492
62801W        W34527  40.531   5.328  11.450
62802W        W34528   4.732  34.383   4.305
62803W        W34529   4.806  32.619  10.640
62804W        W34530  43.783  31.957  13.902
62805W        W34531   5.312  11.248  12.137
62806W        W34532  25.679  38.234   0.577
62807W        W34533   0.263  23.981  12.637
62808W        W34534  35.068  21.624  12.146
62809W        W34535  17.337  23.232   4.765
62810W        W34536   8.299  30.555  13.023
62811W        W34537  43.264  34.961  13.939
62812W        W34538   4.254  32.999   1.076
62813W        W34539  37.103   6.817   4.135
62814W        W34540  34.997  19.738   2.816
62815W        W34541  22.863  24.978   2.377
62816W        W34542  28.314  23.662  13.834
62817W        W34543  14.134  38.409   1.806
62818W        W34544   7.713  26.188  13.426
62819W        W34545  19.928  14.719  12.802
62820W        W34546  34.956  43.008  11.910
62821W        W34547   9.777  28.025  12.878
62822W        W34548  23.612   1.089   0.414
62823W        W34549  15.789  41.339   3.769
62824W        W34550   1.810   7.657   4.524
62825W        W34551   3.277   6.424  14.200
62826W        W34552   9.168  12.325  14.101
62827W        W34553  21.524  16.793   3.749
62828W        W34554  38.385  33.826  11.449
62829W        W34555  22.023  39.613  13.677
62830W        W34556  36.725   8.598  11.054
62831W        W34557  35.289  29.477   4.644
62832W        W34558  30.318  37.542   4.619
62833W        W34559  38.775   5.873  14.964
62834W        W34560  28.512   9.133   1.878
62835W        W34561  43.225  35.449  14.453
62836W        W34562   4.046  13.125   4.435
62837W        W34563   6.677  14.327  11.451
62838W        W34564  12.203   9.638  13.903
62839W        W34565  35.624  37.071  14.803
62840W        W34566   6.129  36.363  13.018
62841W        W34567   4.168  36.393   3.679
62842W        W34568  25.055  24.851   0.305
62843W        W34569   5.749   2.964   4.530
62844W        W34570  37.477  21.562  13.366
62845W        W34571   4.748   7.294  11.519
62846W        W34572  12.979  44.456   3.768
62847W        W34573  13.592  39.523   0.698
62848W        W34574  27.389   3.090  12.630
62849W        W34575   4.966   9.179  14.896
62850W        W34576   2.177  15.270  13.790
62851W        W34577   8.436  34.079  11.722
62852W        W34578  10.339  15.348   1.653
62853W        W34579   3.347   6.386   1.736
62854W        W34580  16.083   5.661  13.297
62855W        W34581  13.389   4.675  11.532
62856W        W34582  17.156  19.674  10.774
62857W        W34583  32.788  40.827  10.606
62858W        W34584  40.590  34.326   3.200
62859W        W34585  11.184  44.518  12.442
62860W        W34586  13.855  34.908  12.127
62861W        W34587  17.617  39.688   2.797
62862W        W34588  35.281   6.057   2.335
62863W        W34589  31.010  27.149  13.889
62864W        W34590  23.165  38.889   4.277
62865W        W34591   2.447  35.976  14.220
62866W        W34592  17.350  33.928   4.842
62867W        W34593   4.009  42.168  14.871
62868W        W34594  37.627  41.798   2.211
62869W        W34595  32.820  20.675   2.151
62870W        W34596  21.071   7.810  10.563
62871W        W34597   1.158  37.556   1.257
62872W        W34598  10.285  27.900  13.881
62873W        W34599  30.984  18.928   3.744
62874W        W34600  33.499  25.881  10.048
62875W        W34601  33.598   7.696   4.655
62876W        W34602  18.809  15.639  14.586
62877W        W34603  17.555  18.542  13.960
62878W        W34604  34.726  39.639   4.349
62879W        W34605  17.686  21.201   0.334
62880W        W34606  16.194  17.448   2.199
62881W        W34607  22.565  24.037  13.351
62882W        W34608   8.683  13.059  14.005
62883W        W34609  40.140  37.390  14.417
62884W        W34610  41.214  21.348   0.915
62885W        W34611  41.866   5.411  12.662
62886W        W34612   9.607  42.006  10.691
62887W        W34613  20.977  39.004  13.490
62888W        W34614   6.694   2.291   0.366
62889W        W34615  33.703  40.481  13.333
62890W        W34616  27.400  43.192  11.826
62891W        W34617  42.885  32.674  13.104
62892W        W34618   4.094  27.790   0.388
62893W        W34619   5.631  24.880   2.881
62894W        W34620  16.099  13.757   2.148
62895W        W34621   7.222  12.157  14.947
62896W        W34622  10.740  30.590  11.655
62897W        W34623  11.715  42.868  14.469
62898W        W34624  20.242  32.973   0.009
62899W        W34625   2.477  38.053   4.064
62900W        W34626  38.051  13.710  14.727
62901W        W34627  17.981  13.180   4.184
62902W        W34628  19.120  41.028   4.778
62903W        W34629  29.077  11.872   3.725
62904W        W34630  40.489   5.267  12.929
62905W        W34631  14.009  44.346   0.565
62906W        W34632  40.470   9.471  12.027
62907W        W34633  41.055  20.222  10.871
62908W        W34634  33.831  11.551  10.798
62909W        W34635  37.484  40.731   5.030
62910W        W34636  25.173  35.786  12.016
62911W        W34637  28.563  25.978   1.938
62912W        W34638  17.158  38.349   0.987
62913W        W34639  25.698  22.653   4.121
62914W        W34640  11.776  10.169   3.393
62915W        W34641  16.808   3.742  14.023
62916W        W34642  26.057  25.965  12.848
62917W        W34643   8.769  10.268   0.228
62918W        W34644  32.732  17.789   1.656
62919W        W34645   9.511  24.316   0.843
62920W        W34646  16.469  32.506  11.177
62921W        W34647  11.190  43.447   3.654
62922W        W34648  23.014  19.157   4.045
62923W        W34649  22.047   1.743  10.720
62924W        W34650  39.467  24.157  10.902
62925W        W34651  16.860  42.026  13.947
62926W        W34652   8.096   0.743   2.464
62927W        W34653  11.353  37.114  10.409
62928W        W34654  10.782  17.076  12.895
62929W        W34655  41.882   8.161   1.357
62930W        W34656  34.226  33.054   3.789
62931W        W34657  29.465   2.315   3.366
62932W        W34658   4.191  27.613   2.176
62933W        W34659  13.891  23.558   2.677
62934W        W34660  19.564  19.733  12.921
62935W        W34661  27.542   0.692  13.474
62936W        W34662  32.078  42.389  12.914
62937W        W34663   1.400   1.406   3.589
62938W        W34664  34.234  33.908   2.491
62939W        W34665  24.028   5.447  11.652
62940W        W34666  12.666  34.400   0.533
62941W        W34667   9.226  42.365   2.869
62942W        W34668  44.291  17.484  10.600
62943W        W34669  32.182  31.648   4.323
62944W        W34670  14.779  24.518  14.486
62945W        W34671  33.002  23.976   3.788
62946W        W34672  38.956  15.666  12.233
62947W        W34673   3.293  42.775  13.353
62948W        W34674  23.643  25.494   0.997
62949W        W34675  36.473  24.504   2.371
62950W        W34676  20.634  39.468   1.717
62951W        W34677  30.605  19.438   0.377
62952W        W34678   5.418  17.365   2.448
62953W        W34679  41.115  12.317  14.848
62954W        W34680   2.829  20.446   4.349
62955W        W34681  44.228  16.453   3.337
62956W        W34682  23.574  35.439  10.798
62957W        W34683  20.240  43.841   4.637
62958W        W34684  25.263   8.507   1.980
62959W        W34685  28.271   1.458  12.871
62960W        W34686   8.045  12.982  10.245
62961W        W34687  35.028  40.309   4.170
62962W        W34688  25.660  13.665   0.407
62963W        W34689  27.991  36.556  12.044
62964W        W34690  17.761   5.762  13.560
62965W        W34691   3.811  29.117  11.202
62966W        W34692  19.067   5.346  12.422
62967W        W34693  35.422  26.973   0.990
62968W        W34694  41.548  15.067   3.815
62969W        W34695   3.688  23.221  11.393
62970W        W34696  18.945  22.088   2.627
62971W        W34697  36.769  15.082  14.995
62972W        W34698  34.600  17.237   0.755
62973W        W34699  25.888  41.591  13.292
62974W        W34700  13.189  16.670   0.825
62975W        W34701   7.875  44.684  11.065
62976W        W34702  19.792  30.144  14.762
62977W        W34703  29.400  28.006   2.777
62978W        W34704  44.209  11.151  13.894
62979W        W34705   5.859  15.617  12.334
62980W        W34706  27.092  42.857  13.143
62981W        W34707  33.017  18.140  14.472
62982W        W34708  10.886  15.836   1.630
62983W        W34709  22.076   2.456  14.962
62984W        W34710  36.459  10.618  13.508
62985W        W34711  39.327   8.727  12.391
62986W        W34712  12.352  10.958  11.104
62987W        W34713  10.627  16.526  11.130
62988W        W34714  37.974   9.003  12.609
62989W        W34715  24.213  33.013  13.250
62990W        W34716   5.736  30.120  13.793
62991W        W34717   2.918  44.084  13.891
62992W        W34718   8.394  21.603  12.410
62993W        W34719  42.765  21.168   3.193
62994W        W34720   7.198   1.390  14.652
62995W        W34721  11.733  44.237   1.023
62996W        W34722  31.846  16.748   1.785
62997W        W34723  21.276   9.050   9.911
62998W        W34724   6.473  33.636   2.422
62999W        W34725  32.567  33.374  10.427
63000W        W34726  42.527  24.214   2.724
63001W        W34727  26.794  44.248   1.359
63002W        W34728  29.511   8.441   2.737
63003W        W34729   5.781  24.490  14.919
63004W        W34730  28.528  31.221   1.783
63005W        W34731  14.670  23.050  10.466
63006W        W34732  12.786  20.287   3.363
63007W        W34733  13.694  40.665   4.755
63008W        W34734  31.540  25.097  10.654
63009W        W34735   2.954   1.287  14.803
63010W        W34736  16.670   4.345   1.979
63011W        W34737  10.423  30.592  12.069
63012W        W34738  20.818   6.868   1.157
63013W        W34739  40.510  27.962   2.191
63014W        W34740   6.375  13.600  14.615
63015W        W34741  18.635  39.584  12.113
63016W        W34742  34.630  30.513  11.065
63017W        W34743  28.460  43.338  13.061
63018W        W34744  23.650  21.986   4.973
63019W        W34745   8.416   3.851  11.278
63020W        W34746  24.742  35.556   3.601
63021W        W34747  18.220  31.527   1.889
63022W        W34748  38.835  27.080  14.922
63023W        W34749  41.101  16.676   3.062
63024W        W34750  11.378  42.396  12.838
63025W        W34751  29.556  21.585   3.692
63026W        W34752  43.974  41.002   4.719
63027W        W34753   1.191  40.391  12.531
63028W        W34754  18.263  34.943   1.388
63029W        W34755   8.854  15.518  13.022
63030W        W34756   4.325  26.169  12.334
63031W        W34757   9.337  28.506  12.548
63032W        W34758  20.004  31.652   1.367
63033W        W34759  24.309  39.423  11.135
63034W        W34760  36.762  26.448   4.254
63035W        W34761  15.178   7.044   3.784
63036W        W34762  30.643  29.223   1.964
63037W        W34763  34.452  28.356   3.859
63038W        W34764  15.200  15.098   4.715
63039W        W34765  40.418   7.002   0.366
63040W        W34766  27.302  41.694  12.100
63041W        W34767  25.565  29.213   1.284
63042W        W34768  17.016  16.651  13.905
63043W        W34769  18.557   5.718   3.692
63044W        W34770  36.092  21.283  13.445
63045W        W34771   4.731  32.459  11.204
63046W        W34772   8.809  15.046  12.864
63047W        W34773  14.753  26.958  12.640
63048W        W34774  20.052  13.529  14.014
63049W        W34775  16.763   4.299  10.701
63050W        W34776  18.692  24.062  12.924
63051W        W34777   4.866  24.004   1.228
63052W        W34778   9.944  31.944  14.005
63053W        W34779  22.019  17.489  14.433
63054W        W34780  21.809  21.149   1.416
63055W        W34781   8.807  20.695   1.966
63056W        W34782  21.093   6.120  12.037
63057W        W34783  26.166  30.208  13.562
63058W        W34784  22.535   4.392  13.555
63059W        W34785  20.515   4.906  14.851
63060W        W34786  19.682   9.391  11.408
63061W        W34787  33.797  14.892  12.110
63062W        W34788   0.477   9.501   0.300
63063W        W34789  10.738  20.806   1.470
63064W        W34790  33.240  21.422   3.142
63065W        W34791  32.421  24.036  14.250
63066W        W34792   5.799   4.037   2.485
63067W        W34793  22.512   8.912   0.435
63068W        W34794  41.313   9.302  10.695
63069W        W34795   4.456  16.626   5.127
63070W        W34796   5.666  17.889   0.229
63071W        W34797  15.577  40.768   1.303
63072W        W34798   5.301  43.327   0.894
63073W        W34799  22.144  31.336   3.321
63074W        W34800  36.722   9.950   3.172
63075W        W34801  44.417   9.667  14.887
63076W        W34802   1.593   5.869   4.111
63077W        W34803   8.908  36.145   4.198
63078W        W34804  21.707  35.571   3.371
63079W        W34805   2.408  18.169   1.890
63080W        W34806  32.066  17.574  14.499
63081W        W34807  23.687  42.445  11.020
63082W        W34808  38.909   2.994   1.284
63083W        W34809  20.893  26.211   3.249
63084W        W34810  30.119  30.678  10.675
63085W        W34811  42.338   5.767   4.086
63086W        W34812  12.681  35.912  14.619
63087W        W34813  38.639  36.137   3.680
63088W        W34814  15.864  24.199   3.626
63089W        W34815  18.754  40.071  12.000
63090W        W34816  33.609  26.222   0.925
63091W        W34817  26.290  24.079   1.167
63092W        W34818  26.132  17.335   0.348
63093W        W34819  23.158  19.809  13.913
63094W        W34820  39.337  10.261  12.153
63095W        W34821  38.499  15.294  11.136
63096W        W34822  24.389  21.553   1.642
63097W        W34823  15.802  36.615   0.371
63098W        W34824  34.002   5.419  10.629
63099W        W34825  38.503  26.732   1.260
63100W        W34826  40.649  43.959  14.098
63101W        W34827   6.219   8.961   4.248
63102W        W34828  20.535  42.535  10.581
63103W        W34829  19.599  25.533  11.083
63104W        W34830  37.657   2.363   2.937
63105W        W34831  32.607  11.054  12.588
63106W        W34832  22.233  34.483  14.339
63107W        W34833  10.263  20.327   4.685
63108W        W34834  28.825   9.610   1.543
63109W        W34835   9.424  23.675   0.768
63110W        W34836   0.904  14.854  12.895
63111W        W34837   7.881  33.495   1.418
63112W        W34838  44.087  22.673  11.007
63113W        W34839   3.184  12.789   1.776
63114W        W34840  20.750  29.082   4.024
63115W        W34841  24.466  37.395   3.652
63116W        W34842  21.611  18.663   0.196
63117W        W34843  25.621  37.264   2.171
63118W        W34844  30.976   0.259  12.090
63119W        W34845   0.365  37.090  12.777
63120W        W34846  34.646   8.110   0.914
63121W        W34847  32.549  20.048   4.672
63122W        W34848  38.196   2.431   0.295
63123W        W34849  17.497  32.977   2.655
63124W        W34850  24.509   7.694   4.758
63125W        W34851   1.479  29.993   4.693
63126W        W34852   2.355  36.385   0.059
63127W        W34853  40.307  10.409   1.878
63128W        W34854  32.706   7.648  12.578
63129W        W34855  44.943  41.474  12.030
63130W        W34856  34.021  41.873   1.088
63131W        W34857   3.461  19.589  12.397
63132W        W34858  22.526   4.458   2.887
63133W        W34859   2.032   2.186   1.309
63134W        W34860  23.848  31.079   0.354
63135W        W34861   2.022  34.820  12.274
63136W        W34862  31.124  31.131  11.281
63137W        W34863  32.357  41.054   5.431
63138W        W34864  39.196   9.336  13.465
63139W        W34865  31.554  35.605  10.625
63140W        W34866  31.426  12.413  12.987
63141W        W34867  27.646  28.229   1.120
63142W        W34868   1.983   8.891  12.926
63143W        W34869  12.169  16.850   0.312
63144W        W34870  43.469  36.051  13.549
63145W        W34871   5.541  25.177  11.649
63146W        W34872  25.130  36.852  14.801
63147W        W34873   5.392  13.387   5.054
63148W        W34874   9.214   7.441  11.524
63149W        W34875  10.753  28.598   4.686
63150W        W34876  16.671  40.082  11.880
63151W        W34877  31.070  37.304  13.303
63152W        W34878   8.272  38.465  14.712
63153W        W34879  34.450  30.076  13.378
63154W        W34880  27.009   5.908   0.381
63155W        W34881  41.021  32.434   2.784
63156W        W34882  31.789   4.341  14.977
63157W        W34883  35.880  31.420   2.779
63158W        W34884  40.921   7.696  13.300
63159W        W34885  42.381  30.630   1.875
63160W        W34886   4.554  37.801   0.349
63161W        W34887  37.544  17.059   1.706
63162W        W34888  35.139  33.501   2.212
63163W        W34889  28.574  23.780  13.353
63164W        W34890   3.279   3.969   3.161
63165W        W34891   9.199  31.502   0.928
63166W        W34892  13.530  32.887   2.264
63167W        W34893  40.165  24.916   1.478
63168W        W34894  39.865  32.170   0.423
63169W        W34895  11.785  18.478  12.364
63170W        W34896  22.664   6.203  13.320
63171W        W34897   0.245   0.455   0.859
63172W        W34898  15.707  14.247   3.799
63173W        W34899  21.778  16.599  14.923
63174W        W34900  15.826  37.700   5.246
63175W        W34901  40.766  27.040  14.261
63176W        W34902  34.900  33.641  11.142
63177W        W34903  15.217  17.831  12.813
63178W        W34904  38.638  36.312  12.497
63179W        W34905   0.846  18.042   0.965
63180W        W34906  11.104   1.433   0.188
63181W        W34907  33.440  21.023  12.052
63182W        W34908  14.221  37.335   4.666
63183W        W34909  31.548  41.390   1.251
63184W        W34910  28.346  26.978  13.843
63185W        W34911  14.694  18.778  13.988
63186W        W34912  42.782  25.078  12.489
63187W        W34913  14.082   9.313  10.629
63188W        W34914   3.025  36.814  14.007
63189W        W34915  18.228   9.628  12.667
63190W        W34916  37.892   8.192   0.703
63191W        W34917   5.197  37.124   1.437
63192W        W34918  35.591   4.238   1.799
63193W        W34919   7.262  35.015   4.292
63194W        W34920  20.915  17.282   3.546
63195W        W34921  40.837  40.418   4.108
63196W        W34922  35.145  33.336  14.964
63197W        W34923  30.608  29.509  11.145
63198W        W34924  30.340  18.755   4.244
63199W        W34925  20.766   4.018  12.001
63200W        W34926  36.563   0.398  14.925
63201W        W34927   2.320   6.380  12.809
63202W        W34928  23.958  29.604  13.796
63203W        W34929  41.404  22.938  12.940
63204W        W34930  37.702  36.089  11.948
63205W        W34931   1.251  23.944   4.167
63206W        W34932   2.168  20.080  14.905
63207W        W34933  44.567  38.172   3.043
63208W        W34934   4.853  24.896  13.339
63209W        W34935   1.804  42.985  13.406
63210W        W34936  26.288  16.524  14.910
63211W        W34937  25.762  12.344  13.504
63212W        W34938   4.737  35.182  10.698
63213W        W34939  26.602   2.013  10.408
63214W        W34940  29.579  37.927   3.249
63215W        W34941  30.626  41.535  14.882
63216W        W34942   9.866   5.496  10.796
63217W        W34943   0.052  22.534  14.299
63218W        W34944  39.409  27.293   0.265
63219W        W34945  34.369  22.830   4.084
63220W        W34946  38.819   9.737  11.452
63221W        W34947  11.228  19.526   0.264
63222W        W34948  40.249  31.156  12.438
63223W        W34949  10.486  29.526   4.094
63224W        W34950  37.589  14.683   3.328
63225W        W34951  41.481   8.701   4.038
63226W        W34952  32.462  11.604   0.370
63227W        W34953  24.499  32.027   1.076
63228W        W34954   3.806  32.973  11.161
63229W        W34955  34.765  31.964  14.021
63230W        W34956  42.553  30.356  12.871
63231W        W34957  30.059  43.526  10.355
63232W        W34958  34.890  10.042  11.555
63233W        W34959  23.468   1.306  12.049
63234W        W34960  10.642  27.949   3.429
63235W        W34961  38.343  24.723   1.512
63236W        W34962  21.532  38.963  13.499
63237W        W34963  34.308  32.559   3.956
63238W        W34964  16.820  23.056   3.159
63239W        W34965  35.448   5.445   1.594
63240W        W34966  26.073   8.337  11.146
63241W        W34967  11.137  42.857  12.862
63242W        W34968  32.671  43.106   4.051
63243W        W34969   0.870  41.285  11.180
63244W        W34970  17.724  18.554   1.268
63245W        W34971  21.586  29.513   2.737
63246W        W34972   3.323  27.065  10.874
63247W        W34973  43.538  36.948  13.360
63248W        W34974   3.214   4.408   3.464
63249W        W34975  40.513   4.289  14.441
63250W        W34976  30.110  33.832   0.660
63251W        W34977  19.367   7.800   3.711
63252W        W34978  27.914  38.281  11.002
63253W        W34979   2.932  36.962   3.823
63254W        W34980  43.517   3.638   1.905
63255W        W34981  38.864   5.425   3.062
63256W        W34982   6.407  22.813   3.762
63257W        W34983   1.000  38.288  12.508
63258W        W34984  34.860  16.081  14.224
63259W        W34985  37.994  26.210   4.704
63260W        W34986  25.462  31.419   3.850
63261W        W34987  29.870  40.271  12.914
63262W        W34988   7.660  24.555  11.009
63263W        W34989   3.926  18.110  13.931
63264W        W34990  35.652  36.081   2.748
63265W        W34991  16.568  38.547  12.846
63266W        W34992  14.556  30.948   4.550
63267W        W34993  32.139   6.337   2.805
63268W        W34994  44.406  10.415   2.697
63269W        W34995  20.612  31.843  12.393
63270W        W34996  35.879   6.373  14.938
63271W        W34997  11.046  40.615   4.555
63272W        W34998  36.665  17.800   1.646
63273W        W34999  28.255  39.311  13.354
63274W        W35000  23.054  20.967   2.706
63275W        W35001  40.382  23.520   1.322
63276W        W35002  31.031  36.907  10.624
63277W        W35003  40.860  27.476  13.565
63278W        W35004  11.793  41.887   3.207
63279W        W35005  32.789   0.002   2.182
63280W        W35006  34.296  23.776   4.564
63281W        W35007  26.457   0.770   0.059
63282W        W35008   2.377   1.592   2.760
63283W        W35009  31.678   9.089   3.865
63284W        W35010  39.787  29.126   4.126
63285W        W35011   5.409  44.983  13.035
63286W        W35012  29.366  44.747   2.082
63287W        W35013   7.825   1.351   0.174
63288W        W35014   2.783  43.207  12.006
63289W        W35015  30.443  22.148   3.238
63290W        W35016  19.501  31.299   0.525
63291W        W35017  17.270  18.887  11.207
63292W        W35018  39.763   1.269  10.943
63293W        W35019  10.729  13.247  10.885
63294W        W35020  31.090  33.634  11.137
63295W        W35021  25.977   7.280   4.606
63296W        W35022  43.438   6.247  13.802
63297W        W35023  33.924  13.189   1.589
63298W        W35024  24.355  39.956   2.323
63299W        W35025   2.220  12.116   4.992
63300W        W35026  38.035  23.703  12.494
63301W        W35027   4.717   3.171  14.309
63302W        W35028   4.674  37.058   2.275
63303W        W35029  28.879  19.679  11.829
63304W        W35030   9.391  16.683  12.422
63305W        W35031  13.040  44.408  13.341
63306W        W35032  20.614   4.869   3.167
63307W        W35033  38.942  30.669  10.279
63308W        W35034  22.205  29.709  10.482
63309W        W35035   8.141  14.575   4.204
63310W        W35036  18.260  10.390   0.890
63311W        W35037  34.752   9.244  14.901
63312W        W35038  36.497   9.130  13.528
63313W        W35039  18.592  13.224  14.343
63314W        W35040  32.323  24.632   1.268
63315W        W35041  19.951  10.742   4.519
63316W        W35042  38.115   3.011  13.851
63317W        W35043   3.666   3.434   4.192
63318W        W35044  18.588   2.818  11.255
63319W        W35045  30.211  13.874  11.154
63320W        W35046  15.740   8.554  14.415
63321W        W35047   4.183   7.711   3.421
63322W        W35048  44.754  44.771  14.868
63323W        W35049  33.414  43.883  13.509
63324W        W35050  15.040  41.772  14.913
63325W        W35051  30.773   1.033   4.314
63326W        W35052  23.647  12.189   5.415
63327W        W35053  21.961  39.119   4.078
63328W        W35054  33.329  40.152   4.610
63329W        W35055   7.895   1.949   2.262
63330W        W35056  33.468  24.597  14.418
63331W        W35057   8.908  14.195  12.342
63332W        W35058  11.213  39.010  12.082
63333W        W35059  12.634  38.185   3.921
63334W        W35060  19.565  29.478  14.097
63335W        W35061  17.728   3.916  11.745
63336W        W35062  16.830  40.808   0.847
63337W        W35063  25.647  11.366  13.776
63338W        W35064  23.618  15.884   0.249
63339W        W35065  15.959  24.616   5.205
63340W        W35066  35.398   6.889  14.748
63341W        W35067  21.025   6.101  13.429
63342W        W35068   0.508  26.285  10.897
63343W        W35069   0.636   2.455   1.347
63344W        W35070  17.226   3.622  13.341
63345W        W35071  16.968   8.980  11.989
63346W        W35072  33.992  29.430   0.719
63347W        W35073  37.070  29.123  13.182
63348W        W35074  26.785  16.747  12.018
63349W        W35075  35.674   7.756   1.499
63350W        W35076   6.013  26.720  10.174
63351W        W35077  28.418  44.988  12.419
63352W        W35078  42.270   5.188   1.849
63353W        W35079   7.847  35.823   3.605
63354W        W35080   4.464  29.945  11.986
63355W        W35081  38.864  39.628  12.957
63356W        W35082   8.186  15.741   2.258
63357W        W35083  17.163  30.430   0.220
63358W        W35084  22.540  11.413   0.831
63359W        W35085   8.098  35.660   1.837
63360W        W35086   9.186  20.513  11.638
63361W        W35087   7.708   6.346  13.830
63362W        W35088  23.448  28.777  10.573
63363W        W35089   1.235  42.088  14.744
63364W        W35090  35.344   0.479   0.384
63365W        W35091  22.132  27.667   5.131
63366W        W35092  12.690  33.922   0.282
63367W        W35093  20.052   0.993   2.254
63368W        W35094  43.794  44.025   3.973
63369W        W35095  37.463  32.997   4.155
63370W        W35096   8.840   0.929   3.525
63371W        W35097  16.291  24.154   2.734
63372W        W35098  12.731  28.781  14.401
63373W        W35099  23.927  10.306   3.312
63374W        W35100  15.612  22.970   0.519
63375W        W35101  32.633   3.671  12.447
63376W        W35102  35.525  37.177  12.587
63377W        W35103  31.538   4.745   2.787
63378W        W35104   8.860  18.827  13.352
63379W        W35105   6.416  44.446   2.391
63380W        W35106   9.153  20.225  12.100
63381W        W35107   4.610  27.683  13.915
63382W        W35108  30.591   0.903   2.738
63383W        W35109  19.772  40.014   1.696
63384W        W35110   9.304  42.545  12.179
63385W        W35111  31.192   1.496  11.568
63386W        W35112  28.102   7.453  13.115
63387W        W35113  43.892  42.620  11.650
63388W        W35114  21.599  29.104  12.034
63389W        W35115  33.401   8.732  14.897
63390W        W35116  11.770  42.481  12.412
63391W        W35117  21.451   8.932   0.257
63392W        W35118   6.405  43.884   1.712
63393W        W35119  10.285  20.875  11.927
63394W        W35120  39.801   2.287   4.117
63395W        W35121  33.506  35.531  10.314
63396W        W35122  20.947  25.224  12.354
63397W        W35123  29.934  25.901  10.566
63398W        W35124  13.739  16.009   3.661
63399W        W35125  36.241  35.378   3.695
63400W        W35126  20.784   4.513  14.588
63401W        W35127  39.420  14.253   4.098
63402W        W35128  32.173  42.119  14.285
63403W        W35129   6.082  30.338  13.466
63404W        W35130  22.711   1.177   2.170
63405W        W35131  26.268  37.196  11.107
63406W        W35132  39.875  44.577  10.982
63407W        W35133  27.587   1.695  13.373
63408W        W35134  43.833  12.300   3.133
63409W        W35135  29.620  11.089  14.035
63410W        W35136  16.086  34.657  12.387
63411W        W35137   5.165  13.375  11.509
63412W        W35138  19.960  31.376  12.901
63413W        W35139  15.762  27.680   2.148
63414W        W35140  40.398  19.761  10.950
63415W        W35141  21.799  11.882  13.410
63416W        W35142   3.286  37.441  13.350
63417W        W35143   5.855   7.237  14.409
63418W        W35144  15.321  39.799   2.677
63419W        W35145   6.151  21.011   2.903
63420W        W35146   0.756   1.981  14.325
63421W        W35147   4.166  21.988  12.656
63422W        W35148  33.561  10.913  14.267
63423W        W35149  10.904  38.529  12.840
63424W        W35150  21.197   7.279   2.346
63425W        W35151  15.232  21.010  10.988
63426W        W35152   2.939  29.844   2.330
63427W        W35153  31.945  38.420  14.550
63428W        W35154  32.183  13.798   0.977
63429W        W35155  19.163  27.940  11.005
63430W        W35156  34.846   4.344  13.782
63431W        W35157  15.751  24.178  10.976
63432W        W35158   5.758  12.803  14.566
63433W        W35159  33.549  14.574  13.139
63434W        W35160  35.873  44.854   4.880
63435W        W35161  37.910  35.006   3.172
63436W        W35162  13.332  41.817  13.416
63437W        W35163  31.612   9.195   1.335
63438W        W35164  12.808  24.552   4.120
63439W        W35165   5.905  10.584   3.607
63440W        W35166  11.939  37.391  11.527
63441W        W35167   4.051  14.065   3.199
63442W        W35168   8.321   5.599   3.658
63443W        W35169   1.952  13.103   1.260
63444W        W35170   2.813  13.243  14.840
63445W        W35171  19.973  20.875   3.827
63446W        W35172  28.086  43.374   0.756
63447W        W35173   1.037  13.970  14.481
63448W        W35174  28.180  36.809   0.383
63449W        W35175  25.023  26.905  13.423
63450W        W35176  33.050  14.886  12.538
63451W        W35177  36.568  24.872  10.367
63452W        W35178   1.085  29.131  12.122
63453W        W35179  20.011   1.427   4.469
63454W        W35180  33.447   4.351  11.020
63455W        W35181  30.941   7.704  13.928
63456W        W35182  42.676   4.781   2.862
63457W        W35183  10.951  18.264   3.662
63458W        W35184  32.580  44.513   2.787
63459W        W35185  12.589  36.475   2.383
63460W        W35186  40.007  15.269  11.120
63461W        W35187  19.073  31.588  13.265
63462W        W35188  41.133  13.129  13.857
63463W        W35189  43.334   2.962  14.445
63464W        W35190   2.505   6.386  11.605
63465W        W35191   4.882  16.055  13.417
63466W        W35192  27.615  22.258  13.547
63467W        W35193  37.304  12.317  11.173
63468W        W35194   0.173   2.166   3.615
63469W        W35195  43.448   2.702   2.328
63470W        W35196  44.483  39.329  11.113
63471W        W35197  37.211  17.694   4.448
63472W        W35198  35.888  37.459  14.548
63473W        W35199  32.433   5.362   0.216
63474W        W35200  18.517   5.704   0.881
63475W        W35201  11.243  42.521   0.809
63476W        W35202   6.946  11.709   3.703
63477W        W35203  21.458  17.044  12.007
63478W        W35204  21.404  38.764   5.095
63479W        W35205   6.884   3.292   0.548
63480W        W35206  40.830  31.151  11.263
63481W        W35207  33.959   0.723  10.612
63482W        W35208   2.739  44.153   0.950
63483W        W35209  36.508  37.384  11.512
63484W        W35210  19.952  41.069   5.211
63485W        W35211   9.307  11.129   0.270
63486W        W35212  30.074   0.368  14.528
63487W        W35213  23.687  29.696   3.238
63488W        W35214  44.986  29.959   4.862
63489W        W35215  14.180  26.717   3.774
63490W        W35216  32.624  39.046  10.610
63491W        W35217  23.980  28.708  13.405
63492W        W35218   6.889   9.714  10.726
63493W        W35219  39.882   5.778  10.932
63494W        W35220   8.611   9.429   3.419
63495W        W35221  28.500  22.240   2.186
63496W        W35222  30.099   9.103   0.374
63497W        W35223   7.138  31.043   3.172
63498W        W35224  42.176  24.988   1.261
63499W        W35225  29.637  39.410  12.654
63500W        W35226  40.785   2.374  13.332
63501W        W35227  22.758  16.616  11.478
63502W        W35228  29.512  33.603  12.497
63503W        W35229  11.106  18.634   1.711
63504W        W35230  42.335  27.151  13.976
63505W        W35231  12.714  34.966  11.171
63506W        W35232  32.125  35.852   0.012
63507W        W35233  11.409  23.677  11.514
63508W        W35234  31.991   3.776  10.732
63509W        W35235  25.714   9.884   1.077
63510W        W35236   5.877  21.097  14.047
63511W        W35237  11.626  13.841  12.501
63512W        W35238  41.413  19.694  11.457
63513W        W35239  38.339  19.253  10.706
63514W        W35240  22.110  38.435   3.418
63515W        W35241  39.211   6.205  12.978
63516W        W35242   0.394  13.128  10.506
63517W        W35243   9.635  14.838   0.886
63518W        W35244  17.176  16.637  12.530
63519W        W35245   2.317   8.308   1.332
63520W        W35246   0.701  26.926  11.689
63521W        W35247  33.587  21.616   3.879
63522W        W35248  22.155  22.617  10.368
63523W        W35249  21.024  16.786  13.067
63524W        W35250  39.227  14.382  11.919
63525W        W35251  18.258  28.414   0.212
63526W        W35252  17.084  22.626  10.782
63527W        W35253  35.053  28.645  12.036
63528W        W35254  34.014  15.308  11.237
63529W        W35255  42.556  22.290  12.060
63530W        W35256  36.454  30.497  11.904
63531W        W35257  26.454  22.478   0.420
63532W        W35258  14.191  29.225  14.334
63533W        W35259  29.193   5.202   0.795
63534W        W35260  11.547  38.021  11.970
63535W        W35261  30.444  32.603  13.982
63536W        W35262  32.975   2.827  13.904
63537W        W35263  33.923   5.716   2.172
63538W        W35264  44.425  29.392  10.370
63539W        W35265  25.998  31.245  13.068
63540W        W35266  22.145   3.832  12.439
63541W        W35267   8.298  35.592   3.654
63542W        W35268  42.341  31.885  11.140
63543W        W35269  37.770   5.728  14.811
63544W        W35270  18.052   5.700  14.941
63545W        W35271  27.493  34.472   3.657
63546W        W35272  17.625  37.494  13.836
63547W        W35273  16.645   6.920  12.411
63548W        W35274  44.267   0.963   3.858
63549W        W35275  20.613  27.658   4.067
63550W        W35276  14.773   7.280  11.738
63551W        W35277  18.276  11.376   3.759
63552W        W35278  29.749  23.122  11.135
63553W        W35279  20.963  35.968   3.741
63554W        W35280  32.101  17.733   2.771
63555W        W35281  28.047  27.438   2.293
63556W        W35282   8.920  31.621  11.992
63557W        W35283  20.457  16.546   2.378
63558W        W35284  21.609  39.999  11.932
63559W        W35285   4.034  26.098   3.030
63560W        W35286  30.037   8.908   1.717
63561W        W35287  18.268  26.395  10.921
63562W        W35288  15.349  42.921  11.646
63563W        W35289  15.658  11.402  12.116
63564W        W35290  44.974  11.219   0.448
63565W        W35291   2.319  25.434  13.267
63566W        W35292  27.037  36.960  13.831
63567W        W35293  31.626  25.785  11.148
63568W        W35294  17.738  28.678   4.455
63569W        W35295  42.836  19.139  13.449
63570W        W35296  29.394  27.099   4.614
63571W        W35297  16.610   6.468  12.189
63572W        W35298   6.200   5.234  10.049
63573W        W35299  41.478  35.543   4.313
63574W        W35300   8.652  38.515  12.882
63575W        W35301   0.984  15.401  11.609
63576W        W35302  30.585  16.046  12.252
63577W        W35303  10.110  17.363  12.420
63578W        W35304   0.313   5.656   3.864
63579W        W35305  38.407  37.954  13.585
63580W        W35306   6.997  40.386  11.568
63581W        W35307  19.492  26.450   3.123
63582W        W35308  21.906  43.252  12.470
63583W        W35309  41.215  13.306   4.377
63584W        W35310  10.280  36.745   4.559
63585W        W35311  32.431  22.597   3.037
63586W        W35312  18.625  37.856   0.924
63587W        W35313  32.708   6.800  11.802
63588W        W35314   8.534  35.489  12.977
63589W        W35315  23.974  31.743   3.665
63590W        W35316  12.354  30.940   3.129
63591W        W35317  40.554  28.406   3.409
63592W        W35318  10.531  23.086  12.820
63593W        W35319  28.906  13.986   5.057
63594W        W35320  14.669  11.884   1.740
63595W        W35321  35.005  17.171   2.881
63596W        W35322  24.408   3.896  12.110
63597W        W35323   6.682  37.918   1.551
63598W        W35324  31.421   1.721  14.978
63599W        W35325   7.684  34.827   5.505
63600W        W35326  35.061  16.259   1.976
63601W        W35327  24.681  24.701   3.630
63602W        W35328  25.504   0.324   4.161
63603W        W35329  22.601  37.143   1.150
63604W        W35330  15.899  16.648   1.568
63605W        W35331  29.440  17.062   0.444
63606W        W35332  12.199   7.306   0.953
63607W        W35333  14.076  22.255   0.847
63608W        W35334  16.184  44.899  13.989
63609W        W35335   3.967   2.816  10.754
63610W        W35336  37.048  35.110  12.671
63611W        W35337  32.657  14.218   1.442
63612W        W35338   7.056   6.005  12.970
63613W        W35339  30.149  13.610   0.826
63614W        W35340  33.413  43.988  10.990
63615W        W35341  21.717  22.880  10.219
63616W        W35342  21.571  19.177   0.905
63617W        W35343  11.819  18.183   4.952
63618W        W35344  11.750  34.847  13.241
63619W        W35345   5.045   4.439   3.672
63620W        W35346  24.147   6.330   3.063
63621W        W35347   3.297  19.402  14.738
63622W        W35348   1.730   7.478  11.898
63623W        W35349  14.035  19.169  12.166
63624W        W35350  14.348  30.878  12.597
63625W        W35351  17.215   6.197  12.983
63626W        W35352  19.262  26.407   1.577
63627W        W35353  42.375   0.841   3.703
63628W        W35354  41.732  35.874   0.453
63629W        W35355  29.986   3.555   1.600
63630W        W35356  26.197  30.694  12.444
63631W        W35357   9.494  22.060   5.385
63632W        W35358  27.247  36.868  11.607
63633W        W35359  31.776   4.161  13.558
63634W        W35360  12.243  13.170  12.029
63635W        W35361  12.061  30.065  10.445
63636W        W35362  30.884  31.427   3.227
63637W        W35363  40.797   9.828  13.298
63638W        W35364  10.847  10.663  13.065
63639W        W35365  25.714  14.861  14.222
63640W        W35366  12.271  35.137  14.226
63641W        W35367  44.074  10.251   0.040
63642W        W35368  15.280  26.660   1.458
63643W        W35369  40.933   8.199   2.211
63644W        W35370  40.506   6.408   1.954
63645W        W35371  24.691  38.998  12.858
63646W        W35372  33.522  25.189   0.903
63647W        W35373   7.301  38.855  13.995
63648W        W35374  43.877  37.444   1.959
63649W        W35375  18.263  44.760  12.566
63650W        W35376  22.346   0.444   1.810
63651W        W35377  12.313  40.960   4.148
63652W        W35378  43.883   4.529  12.850
63653W        W35379  40.779  31.933  13.878
63654W        W35380  23.986  31.148  14.856
63655W        W35381  27.488  11.227   4.283
63656W        W35382  28.527  24.778  14.450
63657W        W35383  36.485  28.915  10.671
63658W        W35384   9.375   7.208   4.625
63659W        W35385  29.914  18.033  12.615
63660W        W35386  32.494  31.874  11.939
63661W        W35387  11.731  21.851  14.995
63662W        W35388  36.423  21.065  10.351
63663W        W35389  39.961  44.278  13.556
63664W        W35390  18.369  26.593   3.685
63665W        W35391  38.990  19.397   9.737
63666W        W35392  39.791  36.150   0.434
63667W        W35393  23.648  27.697   5.787
63668W        W35394  22.027  27.302   0.125
63669W        W35395  34.541  42.376   3.389
63670W        W35396  19.211  22.680  11.522
63671W        W35397  23.207   7.681   0.993
63672W        W35398  23.559  29.450  12.821
63673W        W35399  32.631  20.012   2.393
63674W        W35400  21.169   1.428  13.712
63675W        W35401  25.695  44.351   1.393
63676W        W35402  23.133  40.052  14.048
63677W        W35403  33.559  43.476  12.336
63678W        W35404  11.637  35.063  14.835
63679W        W35405  31.432   6.340  13.625
63680W        W35406  22.759  24.716  12.486
63681W        W35407  29.478  13.121  11.699
63682W        W35408  17.705  32.848   0.783
63683W        W35409  24.539  22.223   3.215
63684W        W35410  14.437  27.081  10.628
63685W        W35411  40.435  11.278   4.226
63686W        W35412  13.082  11.485   3.117
63687W        W35413  29.427   3.480   2.724
63688W        W35414  37.579  34.843   0.237
63689W        W35415  21.775  29.068   1.728
63690W        W35416  40.220  10.081   3.839
63691W        W35417  10.900  44.098  12.056
63692W        W35418  36.644  17.329  13.734
63693W        W35419  31.036  18.680  11.103
63694W        W35420  34.804   7.686   1.795
63695W        W35421  23.219  20.787  13.850
63696W        W35422  37.574  26.996   4.112
63697W        W35423  30.563  38.382   0.712
63698W        W35424   2.710  31.088   0.337
63699W        W35425  33.981   9.872   5.104
63700W        W35426   2.142  40.255   0.513
63701W        W35427  31.443  25.740   0.326
63702W        W35428  34.144  23.328   2.265
63703W        W35429  26.004   4.487   2.957
63704W        W35430  33.599  24.269  14.790
63705W        W35431  10.569   2.441   0.784
63706W        W35432  18.226  41.510  13.444
63707W        W35433  31.067  23.432   1.463
63708W        W35434  31.883   4.878   0.778
63709W        W35435  40.803  39.359   3.339
63710W        W35436  21.579  39.415  14.758
63711W        W35437  12.658  31.537   3.158
63712W        W35438  10.613  17.032  14.018
63713W        W35439  29.946   8.406  14.347
63714W        W35440  24.014   6.754  11.886
63715W        W35441  18.689  43.271   1.976
63716W        W35442  36.695  19.237   0.533
63717W        W35443  18.643  37.508  13.526
63718W        W35444   9.478  41.476  13.923
63719W        W35445  13.561  27.139  12.053
63720W        W35446  21.774  35.651  12.817
63721W        W35447  15.719  22.102   3.645
63722W        W35448   4.317  17.249   1.102
63723W        W35449   4.470  26.008   3.325
63724W        W35450  38.550  17.124   0.816
63725W        W35451  35.622   3.936  13.976
63726W        W35452  24.560   5.408   1.871
63727W        W35453  44.439  34.647  13.936
63728W        W35454  37.903  34.041   1.878
63729W        W35455  14.829  35.521  11.555
63730W        W35456  33.295  27.539  11.969
63731W        W35457   5.574  44.216  14.681
63732W        W35458   1.683  40.066  12.869
63733W        W35459  26.459  31.601  11.916
63734W        W35460  12.079  37.351   2.729
63735W        W35461  37.560  33.513   0.027
63736W        W35462  35.514  35.486  13.833
63737W        W35463  23.094  26.100  11.641
63738W        W35464   8.800  38.034  12.772
63739W        W35465  16.371  10.232  12.050
63740W        W35466  23.885   0.316  10.241
63741W        W35467  32.404  34.372  13.155
63742W        W35468  13.661  15.630  11.502
63743W        W35469  22.654  20.786   1.863
63744W        W35470  30.874  33.928   2.251
63745W        W35471  10.608   6.866   3.143
63746W        W35472   0.907   8.682  12.393
63747W        W35473  39.697  30.624  11.181
63748W        W35474  43.442  24.763   0.302
63749W        W35475  37.031   9.481   1.375
63750W        W35476  17.238  34.938   0.284
63751W        W35477  39.183   5.852   0.889
63752W        W35478  10.285   3.941  10.892
63753W        W35479   5.507  12.291   2.354
63754W        W35480   1.966  35.517  10.687
63755W        W35481  25.096  25.502  12.915
63756W        W35482   5.731  25.037  13.408
63757W        W35483   5.289   6.709   1.307
63758W        W35484  25.096  27.582   4.196
63759W        W35485  26.903  14.447  11.181
63760W        W35486  31.514  30.478   2.458
63761W        W35487  16.558   8.868  13.378
63762W        W35488  15.160  35.336   4.120
63763W        W35489  16.992   6.032   5.004
63764W        W35490  27.013  33.969  12.995
63765W        W35491  19.690  11.895  14.290
63766W        W35492  40.837  28.631  14.484
63767W        W35493  13.715  26.218  14.069
63768W        W35494  31.011  42.461  11.789
63769W        W35495  31.875  16.542   4.428
63770W        W35496   6.398   2.504   0.797
63771W        W35497  44.335  39.125  14.958
63772W        W35498  31.071   4.709  12.851
63773W        W35499   6.945  25.281   4.086
63774W        W35500  40.892  42.115  12.514
63775W        W35501   6.501  36.130   1.475
63776W        W35502  19.306  27.480  10.223
63777W        W35503  22.234  29.719   1.265
63778W        W35504   4.313  41.022  12.480
63779W        W35505   5.302  34.551   0.429
63780W        W35506   0.270   5.500  13.526
63781W        W35507  19.634  24.602  14.876
63782W        W35508  19.040  43.354  13.006
63783W        W35509  22.044  14.041   0.493
63784W        W35510   1.441  18.608   1.886
63785W        W35511  12.698  26.070  14.382
63786W        W35512  27.609  26.719   4.613
63787W        W35513  25.283  35.602  11.151
63788W        W35514  36.865   7.935  14.523
63789W        W35515   6.447  21.163  11.575
63790W        W35516  35.092   1.518  13.895
63791W        W35517  24.755  21.651  12.166
63792W        W35518  43.016  14.332   2.840
63793W        W35519   4.840   5.245   0.814
63794W        W35520  24.585  11.383  12.138
63795W        W35521  10.738  22.315  11.610
63796W        W35522  16.917  36.465  10.656
63797W        W35523  11.594   1.244   0.310
63798W        W35524  35.328   9.298  12.131
63799W        W35525   0.836  11.405  10.750
63800W        W35526  30.004  43.508   0.467
63801W        W35527   9.195  31.483  11.580
63802W        W35528  41.525  34.099  12.489
63803W        W35529   8.422  29.742   4.800
63804W        W35530  16.670  18.781   1.851
63805W        W35531  35.353  28.172   4.350
63806W        W35532  25.593  25.712  12.952
63807W        W35533  40.620  23.453  13.141
63808W        W35534   8.847  29.058   0.478
63809W        W35535  14.768   8.123  12.993
63810W        W35536  12.304  40.943  13.812
63811W        W35537  42.151  35.975   2.829
63812W        W35538  43.936  42.069   3.334
63813W        W35539  28.340  32.426  11.093
63814W        W35540   7.617  32.042  12.047
63815W        W35541  17.743  43.334   3.358
63816W        W35542  38.072  36.913   0.878
63817W        W35543   3.251  25.471  14.193
63818W        W35544  32.572  15.074  12.437
63819W        W35545  36.856  11.754   1.383
63820W        W35546  27.630   7.747  13.375
63821W        W35547   5.336   5.722   0.186
63822W        W35548  20.576  28.570   4.327
63823W        W35549  39.032   2.652  11.338
63824W        W35550  32.643  35.510   2.690
63825W        W35551   0.057   6.755  11.202
63826W        W35552   1.163   9.217   1.988
63827W        W35553   3.832  19.515   5.038
63828W        W35554   1.004  31.072  13.521
63829W        W35555   5.640  33.584   4.922
63830W        W35556  17.728  36.422  14.998
63831W        W35557  26.745  22.167  14.249
63832W        W35558  11.336  21.061  11.490
63833W        W35559   6.324  26.402   4.671
63834W        W35560   2.859  10.742   2.462
63835W        W35561  26.019  44.888   0.341
63836W        W35562  14.036  30.940   0.087
63837W        W35563  37.086  14.906   2.472
63838W        W35564   8.382  38.893   3.240
63839W        W35565  44.358  17.986   0.406
63840W        W35566  23.194  24.496   3.446
63841W        W35567  23.749  41.752   3.016
63842W        W35568  21.691  39.987   3.059
63843W        W35569  44.260  34.883  10.318
63844W        W35570   3.491  39.074   2.243
63845W        W35571   6.410  24.253   2.050
63846W        W35572   5.389  16.870  12.485
63847W        W35573  31.584  25.679   1.305
63848W        W35574  39.687   2.462   4.604
63849W        W35575  31.171  19.724   1.218
63850W        W35576  30.654  19.126   0.794
63851W        W35577  31.653  41.500  10.307
63852W        W35578  12.352  22.059   0.534
63853W        W35579  44.020   5.798   1.646
63854W        W35580  44.867  31.867   4.913
63855W        W35581   7.232  44.059   3.490
63856W        W35582  18.765  29.034   1.774
63857W        W35583  34.967  43.703   0.492
63858W        W35584  39.931  18.238   2.731
63859W        W35585  33.789  20.264  12.745
63860W        W35586  14.274   4.757  12.951
63861W        W35587   6.288  16.093  13.402
63862W        W35588  29.210  28.967  11.602
63863W        W35589  40.673  21.650   3.838
63864W        W35590  30.461  18.038   4.603
63865W        W35591  21.511   6.252  11.110
63866W        W35592  10.162  18.144   2.648
63867W        W35593   2.731  22.669  14.742
63868W        W35594  32.965  23.389   3.853
63869W        W35595   0.038  11.168  11.212
63870W        W35596  37.363   7.276   2.750
63871W        W35597  18.020  27.310  11.215
63872W        W35598   6.872  41.595   1.335
63873W        W35599  43.695   2.056  11.557
63874W        W35600  41.814  24.492  10.722
63875W        W35601  29.496  34.157  14.472
63876W        W35602   8.482  31.684   3.133
63877W        W35603   2.366  39.443  14.347
63878W        W35604  30.137   4.826  14.901
63879W        W35605  14.628   7.236  12.219
63880W        W35606  11.850  15.126   0.494
63881W        W35607  36.641  35.526  10.772
63882W        W35608   6.840  43.338  14.077
63883W        W35609  39.906  26.186   1.434
63884W        W35610  31.556  34.877  11.183
63885W        W35611   3.884  11.146  12.896
63886W        W35612   7.737  25.063  11.572
63887W        W35613  18.160   3.340  10.675
63888W        W35614   8.806  27.800  14.920
63889W        W35615   4.961   4.846   1.434
63890W        W35616  13.717  17.921   0.263
63891W        W35617   6.768   5.730  14.092
63892W        W35618  19.711  33.023  10.455
63893W        W35619   2.575  21.074   3.600
63894W        W35620  33.324   2.009   0.949
63895W        W35621  40.787   7.372   0.417
63896W        W35622  17.711   9.844  12.019
63897W        W35623   1.238  36.443  11.083
63898W        W35624  25.082  39.219  11.445
63899W        W35625  44.807  28.611  10.892
63900W        W35626   5.817  18.580   0.211
63901W        W35627  15.710  30.948   2.596
63902W        W35628  29.037  24.024   5.190
63903W        W35629  37.547  35.592  11.995
63904W        W35630   6.908  24.996  12.482
63905W        W35631  24.550  41.800  11.145
63906W        W35632   6.291  13.692  12.084
63907W        W35633  25.697  17.529  12.090
63908W        W35634  41.917  19.205   2.669
63909W        W35635  23.071  28.522   0.450
63910W        W35636  24.054  30.288  14.407
63911W        W35637  25.488  36.074   3.593
63912W        W35638  44.027  11.619   0.673
63913W        W35639  43.503  11.389   2.698
63914W        W35640   3.652  18.250  13.513
63915W        W35641  12.454  40.846   2.822
63916W        W35642  20.474  33.923   3.183
63917W        W35643  14.505  34.996   2.423
63918W        W35644  33.434  27.748  11.139
63919W        W35645  31.319  22.217   0.584
63920W        W35646  24.850  10.394   4.073
63921W        W35647  39.337  42.860  12.887
63922W        W35648   2.171  24.954  13.120
63923W        W35649  43.455  41.783   3.265
63924W        W35650  29.099  33.830   3.385
63925W        W35651  21.721   1.466  14.300
63926W        W35652  13.780  22.825  12.120
63927W        W35653   6.311  41.474  12.942
63928W        W35654   3.863   1.188   0.412
63929W        W35655   9.909  33.047  11.999
63930W        W35656  12.723  19.582  13.407
63931W        W35657  41.457  18.855  11.142
63932W        W35658   5.489   8.640  12.951
63933W        W35659  44.527  34.056   2.780
63934W        W35660  38.234  29.596  15.000
63935W        W35661   8.751  35.422  12.510
63936W        W35662  35.001  38.351   4.558
63937W        W35663   9.201  38.101   1.336
63938W        W35664  27.495  18.638  14.113
63939W        W35665   6.118  16.587   3.157
63940W        W35666  30.365  43.834   0.820
63941W        W35667   5.395  36.112   2.629
63942W        W35668  40.891  38.023   4.494
63943W        W35669  29.916  39.656   4.568
63944W        W35670   6.461  20.179  13.363
63945W        W35671   8.281  39.917   3.181
63946W        W35672  40.761  33.466   3.351
63947W        W35673  16.010   6.735   4.080
63948W        W35674  43.452  32.084  14.795
63949W        W35675  30.042  33.102   1.265
63950W        W35676  24.068  10.647   4.721
63951W        W35677  41.147  26.410   4.985
63952W        W35678  28.501  36.499  13.523
63953W        W35679  41.616  33.299  10.292
63954W        W35680   3.391  39.633   0.830
63955W        W35681   1.701  37.011   2.366
63956W        W35682  43.201  17.530   1.305
63957W        W35683   9.566  32.519  11.978
63958W        W35684  14.692  17.981   0.403
63959W        W35685   6.962  16.371  12.985
63960W        W35686  41.607   5.858   2.118
63961W        W35687  12.038  22.484  14.473
63962W        W35688  32.946  43.956  11.282
63963W        W35689  19.681  26.114  14.946
63964W        W35690  37.862  31.820   1.866
63965W        W35691  14.341   1.836  12.109
63966W        W35692  27.449   5.806  12.940
63967W        W35693  44.065   8.871   3.196
63968W        W35694   0.248  18.114   4.506
63969W        W35695  31.660  34.350  14.402
63970W        W35696  36.127  13.581  14.000
63971W        W35697  13.461   6.282   1.731
63972W        W35698  30.007  25.488   0.738
63973W        W35699   4.263  12.370   4.391
63974W        W35700  21.241  40.972   0.786
63975W        W35701   9.205  17.210  11.509
63976W        W35702  27.161  34.840   3.838
63977W        W35703   1.787  27.693  14.358
63978W        W35704   1.420  21.506  11.210
63979W        W35705  22.075   9.092   4.925
63980W        W35706  37.270   2.000  10.755
63981W        W35707   9.649  14.536   0.440
63982W        W35708   8.820  26.009   2.052
63983W        W35709  36.335   3.990  13.480
63984W        W35710  30.774  27.667  14.492
63985W        W35711  39.486   8.655   0.071
63986W        W35712  24.683   3.274   3.679
63987W        W35713  31.101   7.139   0.763
63988W        W35714  32.913  25.090   0.779
63989W        W35715  32.342  21.799  13.943
63990W        W35716  16.960   9.612   0.950
63991W        W35717  22.088  15.299   0.997
63992W        W35718  26.709   4.984  11.570
63993W        W35719  39.574  36.557   4.649
63994W        W35720   6.668  26.055  13.263
63995W        W35721  44.373  41.531   4.431
63996W        W35722  20.205  17.219   4.155
63997W        W35723  41.837  33.079  11.179
63998W        W35724  22.791  42.607  12.550
63999W        W35725  33.864  26.966   4.537
64000W        W35726  42.917  27.536  12.217
64001W        W35727   9.966  29.049  11.500
64002W        W35728  10.141  12.369  14.951
64003W        W35729  27.168  13.479  12.065
64004W        W35730  31.160  35.163   2.471
64005W        W35731   5.285  30.500  12.853
64006W        W35732  14.916  37.142   0.414
64007W        W35733   9.242  37.083   4.560
64008W        W35734  21.025   9.903  13.406
64009W        W35735  23.104   8.397  10.607
64010W        W35736  27.623  15.039   1.708
64011W        W35737  20.427  27.492   0.794
64012W        W35738  28.867  38.611  14.082
64013W        W35739   4.349  36.374  10.999
64014W        W35740  27.140   5.140   2.181
64015W        W35741   0.816   2.318   0.848
64016W        W35742  32.489   1.323  11.244
64017W        W35743  43.592   9.832  11.866
64018W        W35744  24.143  31.440   1.812
64019W        W35745  21.110  36.940   4.863
64020W        W35746  30.638  18.862   1.242
64021W        W35747  40.439   1.020   3.018
64022W        W35748   5.197   6.537   4.027
64023W        W35749  21.776  15.747  13.040
64024W        W35750  28.536   5.988  11.845
64025W        W35751   6.201  44.380   0.409
64026W        W35752   6.478  23.807   4.251
64027W        W35753  17.239  10.788  12.934
64028W        W35754  36.990   6.444  13.469
64029W        W35755  21.070  43.321  11.484
64030W        W35756  25.322  43.930   2.633
64031W        W35757  28.387   3.519  13.086
64032W        W35758   4.444   1.068  11.035
64033W        W35759  41.088  30.363  12.912
64034W        W35760  36.940   3.729  12.313
64035W        W35761   7.479  29.514  14.226
64036W        W35762  36.958   8.833  13.375
64037W        W35763  33.168  33.620  11.778
64038W        W35764  32.337   5.344  11.936
64039W        W35765  28.629   5.462  14.442
64040W        W35766  10.384  25.701  13.083
64041W        W35767  38.952  17.275  10.613
64042W        W35768   2.389  19.015   3.211
64043W        W35769  23.328   4.967   4.579
64044W        W35770  38.068   0.440  14.793
64045W        W35771  17.236  20.926  14.408
64046W        W35772  16.060  37.431   9.786
64047W        W35773  20.279   7.328  13.920
64048W        W35774  21.627  37.558  12.518
64049W        W35775  40.504  39.219  11.451
64050W        W35776  28.970  35.000   0.907
64051W        W35777  18.257  15.689  12.141
64052W        W35778  16.180  19.028   0.382
64053W        W35779  13.211   3.888  13.078
64054W        W35780   7.261  20.167  12.412
64055W        W35781  35.334  38.967   3.739
64056W        W35782   5.591  28.482  10.654
64057W        W35783  11.706  25.946   0.503
64058W        W35784   2.204  41.559   2.825
64059W        W35785  13.340  14.417  13.527
64060W        W35786  41.785   9.803  13.325
64061W        W35787  34.987   8.954   4.061
64062W        W35788   0.198  25.700   0.884
64063W        W35789  17.514  11.499   0.958
64064W        W35790  39.289  25.648   2.860
64065W        W35791  31.355   6.931  12.998
64066W        W35792   0.144  35.975   1.659
64067W        W35793   8.753  19.258  11.233
64068W        W35794  13.881  37.895  10.413
64069W        W35795   4.460   5.994   4.131
64070W        W35796   6.672   4.789   1.658
64071W        W35797  12.851  43.825   4.882
64072W        W35798   2.770   7.407   3.951
64073W        W35799  25.406   8.885   2.303
64074W        W35800  25.887   8.283   2.775
64075W        W35801  25.595  26.279  14.057
64076W        W35802  15.392  15.940  14.885
64077W        W35803   5.929  10.748  12.562
64078W        W35804  23.487   1.935   1.439
64079W        W35805  32.546  35.160  12.668
64080W        W35806  26.980  20.069  10.653
64081W        W35807  14.734  42.100   1.263
64082W        W35808  24.466  25.063   1.249
64083W        W35809  17.520   8.374   0.890
64084W        W35810   9.687   1.597  11.668
64085W        W35811   7.515   6.754  13.076
64086W        W35812  16.112  22.523   3.161
64087W        W35813   0.991  41.992   2.320
64088W        W35814  15.128  31.414   2.854
64089W        W35815  31.063  18.066   2.091
64090W        W35816  42.262  14.036  12.085
64091W        W35817  29.962   2.142   4.119
64092W        W35818  31.187  30.146  14.866
64093W        W35819  19.191  36.477  11.924
64094W        W35820   0.227  26.145   3.281
64095W        W35821  27.706   9.487  11.523
64096W        W35822  33.073   3.472  12.567
64097W        W35823  31.227  37.937  11.473
64098W        W35824  30.531  23.503  13.549
64099W        W35825  40.857   8.955  10.008
64100W        W35826  20.729  13.735  14.545
64101W        W35827  43.329  41.919   0.562
64102W        W35828  13.045   4.482  12.019
64103W        W35829  34.976  23.035  14.976
64104W        W35830  39.339  25.690  13.266
64105W        W35831   9.236  23.106   1.368
64106W        W35832  30.624  16.098   4.547
64107W        W35833  19.521  18.136  14.015
64108W        W35834  36.039  13.278   3.320
64109W        W35835  28.600  39.849   2.727
64110W        W35836  24.094  12.311  13.914
64111W        W35837  11.215   3.225   0.338
64112W        W35838  25.055   1.657   0.439
64113W        W35839  16.898  32.602  14.726
64114W        W35840  17.094  38.678   3.816
64115W        W35841  37.123  37.347  13.412
64116W        W35842   0.377  27.026  10.576
64117W        W35843  24.889   6.908  14.799
64118W        W35844  39.235  34.578  14.978
64119W        W35845  11.156   1.762   2.867
64120W        W35846  26.095   0.287   1.643
64121W        W35847  41.105   2.996  11.641
64122W        W35848   4.155   9.225  14.468
64123W        W35849   9.702  40.622   1.315
64124W        W35850  10.199  25.138   3.276
64125W        W35851  10.214  26.464  13.498
64126W        W35852  41.696  35.007   4.241
64127W        W35853  11.472  23.175   3.113
64128W        W35854  10.771   3.466   5.036
64129W        W35855  27.874  39.620  13.185
64130W        W35856  35.646  20.325   0.024
64131W        W35857  23.925  24.187  11.097
64132W        W35858  21.054  37.766  12.761
64133W        W35859  23.800   2.801   1.467
64134W        W35860  39.601  25.462   1.920
64135W        W35861  22.493  33.990   3.671
64136W        W35862  19.763  37.103   0.013
64137W        W35863   7.671  16.242  14.527
64138W        W35864  35.331  14.699   4.609
64139W        W35865   7.772  25.176   1.860
64140W        W35866  11.209  11.079  13.464
64141W        W35867   3.683  32.453  13.990
64142W        W35868  44.558  28.303  14.174
64143W        W35869  43.731  43.282  12.577
64144W        W35870  10.285  23.543   3.068
64145W        W35871   2.631  15.011   0.429
64146W        W35872  10.872  20.061  11.150
64147W        W35873   3.842  29.104   0.409
64148W        W35874  32.533   5.693  14.791
64149W        W35875  33.913  10.747   3.112
64150W        W35876  15.335  15.816   3.167
64151W        W35877  42.329   5.191   4.088
64152W        W35878  16.546  15.264  11.622
64153W        W35879  14.174  33.281   0.762
64154W        W35880   9.198  10.965  12.628
64155W        W35881  32.463   9.290  11.093
64156W        W35882  42.459  39.487  13.175
64157W        W35883  31.909   7.221   2.755
64158W        W35884  38.965  40.223  12.489
64159W        W35885  24.802  23.142  11.087
64160W        W35886  27.993  37.322  11.015
64161W        W35887   5.907  13.907   0.961
64162W        W35888  40.921  27.644   4.811
64163W        W35889  14.815   0.438  13.431
64164W        W35890  25.291  36.461   2.316
64165W        W35891  27.002  44.880  14.722
64166W        W35892  15.538  26.593   2.353
64167W        W35893  14.355  43.282  13.924
64168W        W35894  27.953  33.561  13.206
64169W        W35895  23.289  39.771  11.545
64170W        W35896  39.783   2.031   2.683
64171W        W35897  34.324  11.466   0.301
64172W        W35898  37.020  15.531   1.756
64173W        W35899  10.048  43.800   4.824
64174W        W35900  37.042  24.796   0.286
64175W        W35901  10.832  35.583  13.328
64176W        W35902  11.852  13.913   1.728
64177W        W35903  21.236  27.082  11.493
64178W        W35904  41.197  24.690   4.387
64179W        W35905   5.111  17.224  10.634
64180W        W35906  32.363  11.063  11.490
64181W        W35907  24.622  28.168   2.224
64182W        W35908  36.876  35.088  10.536
64183W        W35909  26.736  38.453   3.300
64184W        W35910  20.762  14.355  11.443
64185W        W35911  34.047  16.529   2.363
64186W        W35912  24.796  44.438   0.394
64187W        W35913  22.766  44.235  12.434
64188W        W35914  35.634  38.823   1.844
64189W        W35915   4.576  44.355   5.079
64190W        W35916   7.365  44.978   0.224
64191W        W35917  12.693  18.778   4.386
64192W        W35918  14.422   5.300   1.762
64193W        W35919   6.928  14.849   0.278
64194W        W35920  33.985   8.008   3.204
64195W        W35921  17.742  40.027  11.961
64196W        W35922  27.259  34.558   3.193
64197W        W35923   3.291  15.087  11.488
64198W        W35924  23.511  10.173   4.102
64199W        W35925  24.448  37.884  13.314
64200W        W35926  20.076   0.628   3.789
64201W        W35927  37.741   8.404   0.244
64202W        W35928  41.602  20.631  12.108
64203W        W35929  13.048   9.093  13.129
64204W        W35930   3.164   2.118  12.371
64205W        W35931  42.061  38.271  11.209
64206W        W35932   5.958  17.874  11.995
64207W        W35933  17.253   4.266  14.557
64208W        W35934   0.049  23.730   4.735
64209W        W35935  38.830   3.421  10.626
64210W        W35936  15.013  22.657   3.632
64211W        W35937  12.835  40.270   3.969
64212W        W35938  13.325  35.783   3.406
64213W        W35939  30.112  26.048   5.440
64214W        W35940  36.978   5.375   2.705
64215W        W35941  26.602  22.519  11.195
64216W        W35942  44.565   2.855   4.271
64217W        W35943  20.709  42.056  10.555
64218W        W35944  42.988  28.361  11.140
64219W        W35945  27.039  43.491   4.377
64220W        W35946   0.002  18.537   0.849
64221W        W35947  14.907  11.848   2.252
64222W        W35948   7.346  14.538   2.670
64223W        W35949  20.856  36.891  13.085
64224W        W35950   6.702  32.919   0.760
64225W        W35951  13.869  17.475  14.980
64226W        W35952  18.217  37.673   0.478
64227W        W35953  13.725   8.853  13.810
64228W        W35954  29.697  13.264  13.111
64229W        W35955  32.349   8.708  14.464
64230W        W35956  22.705  39.138  11.879
64231W        W35957  11.148  28.858  10.512
64232W        W35958  25.164  28.193   1.613
64233W        W35959  44.332  29.052   9.974
64234W        W35960   4.707  23.276  13.912
64235W        W35961  37.818  42.006  10.932
64236W        W35962  30.329  28.408   2.359
64237W        W35963  21.239   2.702  14.463
64238W        W35964  28.444  22.832  10.138
64239W        W35965  33.559  19.186  10.736
64240W        W35966  16.707  23.818  13.764
64241W        W35967  16.162  30.547  10.735
64242W        W35968  34.939  23.408   0.342
64243W        W35969  34.140   3.127   2.750
64244W        W35970  10.315   7.333   2.429
64245W        W35971  10.378  38.808  12.549
64246W        W35972   1.726  11.965  12.982
64247W        W35973  12.576  34.111   3.386
64248W        W35974  10.260  28.109  14.873
64249W        W35975  14.038  36.975   0.912
64250W        W35976  17.712  43.375  10.904
64251W        W35977  37.806  18.187   4.740
64252W        W35978  43.487   1.231  14.979
64253W        W35979  22.620  14.531   1.870
64254W        W35980  43.834  26.783   0.388
64255W        W35981  36.907   4.336   4.090
64256W        W35982   2.479   7.261   1.322
64257W        W35983  21.933  26.107   0.393
64258W        W35984  34.928  24.581   4.440
64259W        W35985  10.782   0.900   4.660
64260W        W35986  21.883  19.928  14.816
64261W        W35987  24.893  40.770  10.813
64262W        W35988  22.099   3.411   3.288
64263W        W35989   7.745  41.855  13.033
64264W        W35990   8.781  10.165   1.717
64265W        W35991   6.705  17.079   4.064
64266W        W35992   9.175  13.791   3.429
64267W        W35993  43.952   8.911  13.860
64268W        W35994   3.254  44.783   2.906
64269W        W35995   6.219  28.010  11.101
64270W        W35996   2.977  15.581  10.775
64271W        W35997  28.041   7.285  10.176
64272W        W35998  38.595   1.346   3.821
64273W        W35999  14.364  43.752   2.691
64274W        W36000  28.562  20.568  12.881
64275W        W36001  24.775  12.464   3.714
64276W        W36002  24.479  37.911  14.908
64277W        W36003   8.804  37.516  10.282
64278W        W36004  25.119  18.220   0.506
64279W        W36005  14.584  21.257  13.471
64280W        W36006  39.097  34.596   9.968
64281W        W36007  22.705  28.807   5.056
64282W        W36008   2.505  28.382  12.779
64283W        W36009   1.391  22.124   1.658
64284W        W36010  30.085  10.692   1.765
64285W        W36011  42.491   3.269  11.123
64286W        W36012  16.420  25.109   3.638
64287W        W36013  32.596  43.443  14.604
64288W        W36014  33.184  43.666  13.947
64289W        W36015  43.755  23.322   1.829
64290W        W36016  37.487  44.738   2.852
64291W        W36017  41.528  27.152  14.722
64292W        W36018   5.042  38.016  11.037
64293W        W36019  28.618  33.071   4.631
64294W        W36020  27.660   4.258   0.799
64295W        W36021  25.746  26.028   3.155
64296W        W36022  23.094   8.032   0.543
64297W        W36023  23.447  10.042   2.703
64298W        W36024  33.172  25.693  12.453
64299W        W36025  35.349  13.735   1.929
64300W        W36026  35.805  32.618   2.411
64301W        W36027  29.987  41.890   0.473
64302W        W36028  39.283  28.482  11.227
64303W        W36029  21.114  29.191  14.413
64304W        W36030   2.207  38.566  14.246
64305W        W36031  39.987  35.884   1.827
64306W        W36032  18.942   6.680   0.456
64307W        W36033  21.697  22.117  10.763
64308W        W36034  10.380  11.262   3.336
64309W        W36035   2.375  31.510  12.913
64310W        W36036  14.079  40.243   3.313
64311W        W36037   3.140  25.074  10.254
64312W        W36038  18.207  28.775  12.586
64313W        W36039  31.482  29.425   3.223
64314W        W36040  38.738   0.751   0.696
64315W        W36041  25.554   5.512   1.248
64316W        W36042   0.776  33.000   0.128
64317W        W36043   9.464  22.243  14.805
64318W        W36044  24.735  27.576   3.676
64319W        W36045  13.941   8.044  12.544
64320W        W36046  20.185  30.983   0.792
64321W        W36047  25.604  42.576  11.130
64322W        W36048  43.556   0.765  13.249
64323W        W36049   3.854   5.123   1.849
64324W        W36050  30.914  23.565   3.764
64325W        W36051   7.115  29.613   3.018
64326W        W36052  10.674  12.686  13.104
64327W        W36053  42.391  43.131  10.525
64328W        W36054  31.521  44.538   0.752
64329W        W36055  18.562  20.991  11.567
64330W        W36056  42.582  38.859  14.742
64331W        W36057   1.878  28.691   4.137
64332W        W36058   3.940  40.254   1.679
64333W        W36059  30.864  26.199   1.121
64334W        W36060   1.915  42.895  14.749
64335W        W36061  28.223   2.891   0.869
64336W        W36062  14.766   8.090   0.754
64337W        W36063  31.085   5.829   2.866
64338W        W36064  42.172  10.845  14.920
64339W        W36065  11.686  15.185   2.890
64340W        W36066   5.168  12.223   3.681
64341W        W36067   6.440  24.151   4.998
64342W        W36068  10.266   5.933  11.571
64343W        W36069  23.855   2.356  14.338
64344W        W36070   2.717  37.963   2.151
64345W        W36071  21.200  12.770   0.914
64346W        W36072  35.804  41.968   3.074
64347W        W36073  12.199  26.693   4.315
64348W        W36074  14.756  37.355  10.694
64349W        W36075  16.112   8.489   3.770
64350W        W36076   4.008  38.041   4.724
64351W        W36077  17.559  24.084   4.611
64352W        W36078  37.258   6.456  12.986
64353W        W36079  32.561  31.458  13.804
64354W        W36080  18.155   6.975   1.286
64355W        W36081  18.297  31.101  14.007
64356W        W36082   3.518  38.958   4.048
64357W        W36083  22.231  30.715  11.085
64358W        W36084  16.023  33.562  13.570
64359W        W36085  14.427  16.137  14.735
64360W        W36086  37.970  10.780  13.571
64361W        W36087   5.995  37.719   2.125
64362W        W36088  22.519  10.255   4.572
64363W        W36089  23.565   9.655   4.148
64364W        W36090  20.462  41.547   2.007
64365W        W36091  40.012  11.408  13.821
64366W        W36092  23.292   7.002  13.001
64367W        W36093  21.302  14.784   9.449
64368W        W36094  41.355   3.190   1.352
64369W        W36095  18.751  29.554   3.446
64370W        W36096  14.089  16.820  11.974
64371W        W36097  39.642  41.951   4.739
64372W        W36098   5.152  38.997  10.857
64373W        W36099   8.863  26.525  11.378
64374W        W36100  40.550   3.660   1.177
64375W        W36101  42.464   0.001  10.721
64376W        W36102  13.319  20.195   4.698
64377W        W36103   5.735   9.220  13.358
64378W        W36104  44.738  39.375  12.970
64379W        W36105  42.061  30.445  12.842
64380W        W36106  27.969  44.236  11.653
64381W        W36107  43.277  12.074   3.781
64382W        W36108  40.150  10.699  12.540
64383W        W36109  42.396  29.622  11.951
64384W        W36110  41.299  44.528  14.536
64385W        W36111  15.771   4.413   3.449
64386W        W36112   8.000  31.608   4.145
64387W        W36113   3.455  26.509   0.557
64388W        W36114  14.552   2.807  13.914
64389W        W36115   6.908  23.004  12.463
64390W        W36116  24.721   1.247   1.832
64391W        W36117  20.258  12.256  12.906
64392W        W36118  42.486   2.637  12.849
64393W        W36119  26.520  44.666   3.853
64394W        W36120  38.573  11.822   2.722
64395W        W36121   9.286  27.951   1.006
64396W        W36122  41.300   3.303   2.266
64397W        W36123  19.054  29.527   0.313
64398W        W36124  40.916   3.453   1.485
64399W        W36125  17.387   8.749  12.798
64400W        W36126  26.962  41.760  14.472
64401W        W36127  40.934  32.941   1.795
64402W        W36128  34.340  27.291   0.013
64403W        W36129   6.262  27.679  10.706
64404W        W36130  16.986   6.928   0.766
64405W        W36131   8.715  15.900  13.599
64406W        W36132  18.027  29.622  12.087
64407W        W36133  10.673  27.082  14.337
64408W        W36134   8.153  39.173  12.494
64409W        W36135  20.592  15.115  14.355
64410W        W36136  24.656  10.892   3.917
64411W        W36137  14.616  18.137  14.895
64412W        W36138  31.898   6.330   1.481
64413W        W36139  37.079   6.790  10.712
64414W        W36140   1.323   3.397   0.656
64415W        W36141  44.642  43.814   3.662
64416W        W36142   9.414   4.445   2.860
64417W        W36143  14.545  16.964   0.401
64418W        W36144  36.360  32.617   1.003
64419W        W36145  39.824  38.017  10.988
64420W        W36146   5.166  43.718   4.320
64421W        W36147  38.031  16.580  14.937
64422W        W36148  35.072   0.546   4.888
64423W        W36149  32.110  37.994  11.989
64424W        W36150   6.017  38.880   2.913
64425W        W36151  33.774   1.418   1.392
64426W        W36152  15.233  27.610   1.885
64427W        W36153  41.892   2.353   2.848
64428W        W36154   8.196  43.255  10.671
64429W        W36155   3.683   9.104  12.362
64430W        W36156  17.774  16.152  13.813
64431W        W36157  17.665   4.287  13.759
64432W        W36158  25.179  25.297   2.791
64433W        W36159  37.209  35.412   3.293
64434W        W36160  32.625  44.482  10.103
64435W        W36161   2.758  10.220  14.033
64436W        W36162  32.030  14.734   1.115
64437W        W36163  22.567   3.356  14.897
64438W        W36164  14.804  20.701  10.964
64439W        W36165  24.442  35.313   2.278
64440W        W36166  18.981  37.483   3.291
64441W        W36167   2.053  33.007  10.940
64442W        W36168  41.573   4.224  12.828
64443W        W36169  24.954   6.509  14.451
64444W        W36170  13.297  27.479   4.265
64445W        W36171  17.899  32.338  12.404
64446W        W36172  18.988  11.268   4.940
64447W        W36173   0.623  19.791  11.059
64448W        W36174  11.714  13.213  11.150
64449W        W36175  29.838  30.144   0.876
64450W        W36176  30.570   4.497  11.556
64451W        W36177  20.219   8.442  14.409
64452W        W36178  29.098  13.575   1.937
64453W        W36179  29.355   7.559   2.242
64454W        W36180  14.518  26.214   3.748
64455W        W36181   0.262  11.245   3.713
64456W        W36182  40.907   2.715   4.134
64457W        W36183  22.642  41.309   3.729
64458W        W36184   2.039  30.105  14.675
64459W        W36185  43.528   5.308   0.947
64460W        W36186  14.573  27.429   2.792
64461W        W36187   2.754  43.045   2.223
64462W        W36188  27.907  40.846  12.043
64463W        W36189  42.507  40.842   3.673
64464W        W36190   6.277  30.035  14.509
64465W        W36191  16.875  27.431   2.952
64466W        W36192  35.130   7.773  13.560
64467W        W36193  43.853   7.759  13.395
64468W        W36194  43.248  24.632   1.695
64469W        W36195   0.100  38.184  13.879
64470W        W36196  28.845  18.191  12.922
64471W        W36197  11.261  29.186  13.748
64472W        W36198  15.244  10.013   3.754
64473W        W36199  37.672   1.511  11.048
64474W        W36200  26.000  34.030   3.290
64475W        W36201  32.813  35.870   0.452
64476W        W36202  27.701  36.970  14.572
64477W        W36203  29.610  22.614   3.111
64478W        W36204  28.915   5.221  13.507
64479W        W36205  26.192   7.364   3.151
64480W        W36206   4.329  37.922  12.619
64481W        W36207   1.158  14.734   2.469
64482W        W36208  42.679  36.641   3.471
64483W        W36209  14.338  24.059   3.766
64484W        W36210   6.318  17.384  12.423
64485W        W36211  28.088  23.481  14.272
64486W        W36212  18.800  14.868  14.755
64487W        W36213  31.960  22.642   3.257
64488W        W36214  42.472   1.184   0.887
64489W        W36215   3.100  13.149   2.902
64490W        W36216  33.068   8.266   1.955
64491W        W36217  40.290  37.791  14.087
64492W        W36218   5.779  43.404  12.548
64493W        W36219  14.361  38.457  10.244
64494W        W36220  22.152  23.302   3.383
64495W        W36221   2.163  34.923   1.608
64496W        W36222  31.968  43.494   2.185
64497W        W36223  44.291  22.966   2.704
64498W        W36224  44.052  16.058  12.924
64499W        W36225  13.641  42.233   3.173
64500W        W36226  27.658  17.263  11.948
64501W        W36227  25.656  38.143   2.685
64502W        W36228  38.433  17.563   2.772
64503W        W36229  21.219  31.626  11.610
64504W        W36230  23.100  33.140   0.900
64505W        W36231  16.241  34.564   3.702
64506W        W36232  26.662  32.937   1.399
64507W        W36233  44.095  27.263  11.985
64508W        W36234  43.346  18.977   2.172
64509W        W36235   2.411  32.020  13.380
64510W        W36236  24.547  21.525   0.755
64511W        W36237   4.722  25.162  12.894
64512W        W36238  36.978  23.433  13.109
64513W        W36239  37.990  10.820  12.042
64514W        W36240  16.474  21.253  14.873
64515W        W36241  24.020  37.551  14.492
64516W        W36242  19.214  35.514  10.723
64517W        W36243  10.359   7.342   4.332
64518W        W36244   8.888  32.393   0.038
64519W        W36245  16.164  38.621   3.886
64520W        W36246  37.332  24.772  11.987
64521W        W36247  28.276  44.968  10.639
64522W        W36248   3.832   9.246  10.345
64523W        W36249   2.255   0.355   0.187
64524W        W36250  39.860  16.203   1.780
64525W        W36251  25.895  29.998   3.258
64526W        W36252  18.236  27.104  14.830
64527W        W36253  44.922  24.000   3.266
64528W        W36254   8.645  37.471  13.963
64529W        W36255  10.324  15.957  10.817
64530W        W36256  30.173  39.554   4.116
64531W        W36257   5.727  43.363   4.547
64532W        W36258   8.157  26.760  11.933
64533W        W36259  33.378  41.964  11.684
64534W        W36260   8.452  36.869   3.098
64535W        W36261   5.462  14.733   0.408
64536W        W36262  37.940  25.519  13.970
64537W        W36263  43.267  40.592   1.223
64538W        W36264  23.520  42.975  12.971
64539W        W36265  22.054  40.022  13.352
64540W        W36266  13.183  16.312  14.870
64541W        W36267  38.742  22.581   4.127
64542W        W36268  11.929   5.941   2.710
64543W        W36269  33.498  34.058  14.972
64544W        W36270  32.828  27.808  14.518
64545W        W36271   1.824  29.466   4.803
64546W        W36272  29.753   3.856  13.464
64547W        W36273  42.000  13.894   4.690
64548W        W36274  30.062   4.733   0.424
64549W        W36275  26.106  25.959   2.284
64550W        W36276  30.470  26.977  10.050
64551W        W36277  20.183  10.737  10.298
64552W        W36278  21.811  31.703  11.103
64553W        W36279  41.704  34.146   0.809
64554W        W36280  43.056  22.703  14.401
64555W        W36281  17.087  20.664   4.063
64556W        W36282  37.292  23.498   1.739
64557W        W36283  12.560  20.768  11.635
64558W        W36284  37.880   4.851  14.215
64559W        W36285  16.008   4.341   0.803
64560W        W36286  16.754   6.303   4.057
64561W        W36287   9.738   8.337  14.766
64562W        W36288  19.211  10.163   0.847
64563W        W36289   2.723  17.004  14.442
64564W        W36290  17.734  20.887   2.790
64565W        W36291  20.345  43.912  11.581
64566W        W36292  20.726  24.789  13.316
64567W        W36293  43.433   6.399  14.952
64568W        W36294  39.779   9.334  10.536
64569W        W36295  36.293   1.677  13.427
64570W        W36296  24.401  36.782  11.564
64571W        W36297  34.010  41.613  12.598
64572W        W36298  40.309  35.896   2.244
64573W        W36299   3.421  33.508   0.960
64574W        W36300  16.125  26.162   4.786
64575W        W36301   3.271  12.598  11.177
64576W        W36302   7.744  19.824  10.671
64577W        W36303  31.152  18.244   0.987
64578W        W36304  31.838  18.786   4.570
64579W        W36305   9.403  25.535  12.784
64580W        W36306  38.328  37.554   1.702
64581W        W36307  34.954  26.413   4.148
64582W        W36308  27.708   3.836  12.078
64583W        W36309  19.642  11.312  11.143
64584W        W36310   7.615  12.329   4.772
64585W        W36311  34.521   2.072   0.252
64586W        W36312   8.677   1.331   4.329
64587W        W36313  30.462  11.209   1.930
64588W        W36314  44.118  43.265  11.211
64589W        W36315   8.191   0.266   0.895
64590W        W36316   6.524   4.302   3.722
64591W        W36317  28.845   8.056  12.026
64592W        W36318  37.657   8.803  14.885
64593W        W36319  24.167  11.419  13.376
64594W        W36320  44.538   8.238   1.727
64595W        W36321  39.592  17.644   1.666
64596W        W36322  10.945  28.733   1.836
64597W        W36323  43.764  13.371   1.295
64598W        W36324  27.145  13.520   0.900
64599W        W36325  26.446  28.210   4.540
64600W        W36326  31.759  21.646   3.282
64601W        W36327   4.469  39.815   4.138
64602W        W36328  37.637   3.911   2.293
64603W        W36329   2.588   0.101  12.301
64604W        W36330  44.722  39.951   2.045
64605W        W36331  19.621  36.621   1.544
64606W        W36332  18.790  21.932   0.324
64607W        W36333  24.996  36.167  13.418
64608W        W36334  28.377  13.572  14.419
64609W        W36335  18.755  39.614   3.656
64610W        W36336  36.706   7.667  11.464
64611W        W36337   4.635  21.071   2.714
64612W        W36338  11.377  20.320  11.101
64613W        W36339   8.718   8.645  14.455
64614W        W36340  20.046   7.471  14.388
64615W        W36341  21.577  33.037  11.972
64616W        W36342  27.560  20.998  10.862
64617W        W36343  30.842  39.609  11.525
64618W        W36344  18.774  32.759  12.279
64619W        W36345  21.037  41.023   3.701
64620W        W36346  38.797  19.314  13.808
64621W        W36347   9.620  26.974   2.880
64622W        W36348  44.330  20.793  13.284
64623W        W36349  14.992  14.615   4.787
64624W        W36350  25.888  31.419   0.380
64625W        W36351  35.023   0.015   0.758
64626W        W36352   8.383  31.972  14.745
64627W        W36353  39.138  37.569   1.801
64628W        W36354  37.723  44.242   2.784
64629W        W36355  16.767  41.849   0.960
64630W        W36356  38.288  18.919   4.264
64631W        W36357  27.168   4.351  14.704
64632W        W36358  33.476  11.790  13.590
64633W        W36359  36.381  14.828  11.568
64634W        W36360  19.847  16.300   0.816
64635W        W36361  19.299  41.471   1.213
64636W        W36362  17.824  17.587  11.664
64637W        W36363  26.183  20.159  11.931
64638W        W36364   5.680  36.944   2.218
64639W        W36365  37.413   3.828   3.678
64640W        W36366  41.398  34.046  10.873
64641W        W36367  17.852  23.775   4.284
64642W        W36368   3.429  35.997   3.765
64643W        W36369  42.255  16.860  12.547
64644W        W36370  20.687   4.778   4.582
64645W        W36371  30.478  18.497  10.425
64646W        W36372  11.213   4.302  14.832
64647W        W36373  19.293  44.745  12.845
64648W        W36374  16.650   0.523  11.125
64649W        W36375   6.723  19.678   2.319
64650W        W36376  22.783  27.025   2.787
64651W        W36377  32.393  30.364  11.284
64652W        W36378  43.897  21.612  13.230
64653W        W36379   0.511  23.952   0.344
64654W        W36380  36.517  12.063  11.047
64655W        W36381  36.908  37.135  12.997
64656W        W36382  44.330   6.215   1.435
64657W        W36383  20.211  24.051  12.140
64658W        W36384  42.874  34.103   2.563
64659W        W36385  27.687  40.451  12.899
64660W        W36386  15.099  14.279   3.131
64661W        W36387  25.184  25.885   1.724
64662W        W36388  17.188   5.825   2.839
64663W        W36389  44.187  36.206   2.925
64664W        W36390  18.769   5.727   4.173
64665W        W36391  19.712   5.724  12.501
64666W        W36392  22.696  17.816   0.029
64667W        W36393  23.158  28.121   2.326
64668W        W36394  32.552  44.772   3.255
64669W        W36395  10.722  28.428  10.814
64670W        W36396  28.973   6.851  11.511
64671W        W36397   7.205  15.127  14.902
64672W        W36398  14.826   6.433   4.756
64673W        W36399  20.006  21.091  13.819
64674W        W36400  41.353  25.694   4.359
64675W        W36401  20.136   0.501  10.062
64676W        W36402  19.527  37.108  13.140
64677W        W36403  14.171  40.987   1.389
64678W        W36404  35.657   8.806   4.627
64679W        W36405  40.806  35.011   1.345
64680W        W36406  10.145   4.169  12.458
64681W        W36407  27.910  28.785   3.271
64682W        W36408  11.852   6.247  12.885
64683W        W36409  14.284  15.636   2.350
64684W        W36410  44.429  37.026   4.556
64685W        W36411  27.373  21.978  14.838
64686W        W36412   9.398  23.985   1.239
64687W        W36413  34.144  40.753  12.395
64688W        W36414  38.734  34.121   2.870
64689W        W36415  24.469  20.566  14.489
64690W        W36416   7.768   1.985   2.786
64691W        W36417  14.430  15.507  13.824
64692W        W36418  18.399  39.838   4.610
64693W        W36419  30.986   4.281   3.627
64694W        W36420  17.323  25.470   0.884
64695W        W36421  35.028  23.407   2.162
64696W        W36422  12.431  19.361   3.561
64697W        W36423  27.585   8.383   0.764
64698W        W36424  27.900  30.475   2.420
64699W        W36425  16.214   1.794   0.650
64700W        W36426  24.231  39.455   3.204
64701W        W36427  42.446  30.986   0.640
64702W        W36428   4.834  26.587   2.260
64703W        W36429   1.555  43.561   2.164
64704W        W36430  18.975  44.433   3.257
64705W        W36431   7.363  14.386  14.421
64706W        W36432  29.091  26.930  11.355
64707W        W36433   4.718   7.572   3.299
64708W        W36434  25.475  35.061   2.206
64709W        W36435   5.236   4.968  12.304
64710W        W36436  11.874  21.984   1.806
64711W        W36437   3.591  19.601   4.539
64712W        W36438  20.975   4.752  14.137
64713W        W36439  27.791   9.670   3.665
64714W        W36440   2.798  22.140   1.411
64715W        W36441  28.746  33.343   2.258
64716W        W36442  30.172  21.132   1.041
64717W        W36443  10.619  11.280  10.246
64718W        W36444  14.146  16.792  13.371
64719W        W36445  12.584  28.900   4.203
64720W        W36446  11.094  18.535   0.620
64721W        W36447   4.069   9.683  13.850
64722W        W36448   8.656  30.621  14.404
64723W        W36449   0.747  30.727  14.746
64724W        W36450  14.578   5.375  13.828
64725W        W36451  33.876  14.626   4.864
64726W        W36452  21.109  25.686   9.790
64727W        W36453  43.626   6.511   4.925
64728W        W36454  41.965  14.848   4.581
64729W        W36455  37.385  36.490  11.948
64730W        W36456  20.793  19.044   3.740
64731W        W36457  17.498  17.444   1.911
64732W        W36458  35.424  11.200   2.414
64733W        W36459  27.054  30.957   3.102
64734W        W36460   7.348  16.168  14.939
64735W        W36461  40.403  13.379  14.353
64736W        W36462  20.199  13.940   2.257
64737W        W36463  18.986  24.461  13.529
64738W        W36464  31.823   1.782   4.053
64739W        W36465  43.041   5.276   3.461
64740W        W36466   9.667   5.259   4.697
64741W        W36467   7.706   5.810   0.190
64742W        W36468   3.386  36.956  14.383
64743W        W36469  10.925  23.107  14.302
64744W        W36470  43.700   4.834   0.362
64745W        W36471  18.997  30.573   3.414
64746W        W36472  18.127   6.199   4.934
64747W        W36473  22.251  26.393  11.139
64748W        W36474  43.362   1.754  14.985
64749W        W36475  22.021  37.883   2.643
64750W        W36476  26.018  43.843   2.174
64751W        W36477   8.170  36.346  11.231
64752W        W36478  21.559  35.514   3.875
64753W        W36479   9.411  37.081   2.287
64754W        W36480   7.303   6.918  11.500
64755W        W36481  37.013   6.376  11.445
64756W        W36482  40.977   9.096   3.339
64757W        W36483  24.156  25.462   0.946
64758W        W36484  11.787   1.655   2.243
64759W        W36485  12.753   8.472  11.700
64760W        W36486  14.541  12.522  10.535
64761W        W36487   8.788  10.138   2.846
64762W        W36488  27.527  25.592  14.951
64763W        W36489  18.019  37.785   5.640
64764W        W36490  29.878  14.606  10.766
64765W        W36491  16.791  36.536  13.575
64766W        W36492  37.391   8.938   3.120
64767W        W36493  18.522  33.127  13.477
64768W        W36494   5.283  13.309   0.338
64769W        W36495  27.501   3.742   2.404
64770W        W36496   0.358   0.501  11.505
64771W        W36497   3.414  13.875  12.553
64772W        W36498   4.853  36.569   3.143
64773W        W36499  20.236  10.272   0.249
64774W        W36500  43.382  31.098  14.913
64775W        W36501  40.765   2.807  13.001
64776W        W36502  33.956   7.724   3.647
64777W        W36503  37.546  38.570   0.858
64778W        W36504   5.995   5.349  13.350
64779W        W36505  27.655  15.170  10.379
64780W        W36506   6.067  39.855   3.420
64781W        W36507  40.238  10.278  12.251
64782W        W36508   1.102  32.845   0.937
64783W        W36509  25.548   4.705   2.772
64784W        W36510   8.326  32.191   4.668
64785W        W36511   4.208  17.336  11.949
64786W        W36512   9.146  24.441   1.476
64787W        W36513  18.690  33.847   0.759
64788W        W36514  30.092   1.554  11.628
64789W        W36515  17.736  33.283  14.823
64790W        W36516  25.156  31.053  12.419
64791W        W36517  33.770  40.569   0.368
64792W        W36518   6.369  40.883   0.776
64793W        W36519  28.070  41.265  14.492
64794W        W36520   6.481   5.612   4.975
64795W        W36521  30.489  35.397   4.504
64796W        W36522  38.399   1.001  13.006
64797W        W36523  30.583  41.216   3.604
64798W        W36524   6.869  35.956   4.731
64799W        W36525  20.493   3.087   0.798
64800W        W36526  23.312  26.957  11.620
64801W        W36527  43.852  10.056  10.883
64802W        W36528  31.163  12.468  12.537
64803W        W36529  34.461  39.600  13.480
64804W        W36530  37.532  29.578   2.241
64805W        W36531  13.240  15.745  14.552
64806W        W36532   8.550  33.394  13.503
64807W        W36533  16.585  37.334  14.606
64808W        W36534  37.996  11.750  10.151
64809W        W36535  23.086  42.416  13.402
64810W        W36536   6.338  15.917  10.485
64811W        W36537  18.701  33.853   2.238
64812W        W36538  19.609   1.239   2.274
64813W        W36539  34.841  22.219   4.787
64814W        W36540  39.835  35.904   3.997
64815W        W36541  24.989   7.237  11.156
64816W        W36542  43.840   8.209   0.386
64817W        W36543  32.477  13.607  14.465
64818W        W36544  16.084  19.532   0.365
64819W        W36545  11.597  33.090   1.479
64820W        W36546  39.883  33.172   4.712
64821W        W36547  37.132  44.541   3.195
64822W        W36548  27.308   3.999  11.151
64823W        W36549   0.304   8.269  12.826
64824W        W36550  34.010  40.269  12.183
64825W        W36551  40.300  20.813  10.687
64826W        W36552  23.110  30.197  11.541
64827W        W36553  28.605  15.665  10.702
64828W        W36554  36.134  18.303   0.196
64829W        W36555  23.937   3.154  13.176
64830W        W36556   9.685  27.898  11.994
64831W        W36557   6.893  26.093  11.413
64832W        W36558  37.530  38.973  12.797
64833W        W36559  38.357  18.861  12.037
64834W        W36560  23.202  30.323   0.810
64835W        W36561  27.763  13.704   2.742
64836W        W36562  40.484   6.474   0.086
64837W        W36563  38.642   8.386   0.025
64838W        W36564  20.656  11.469  11.994
64839W        W36565   4.369  33.480  12.408
64840W        W36566  24.105  13.373  10.706
64841W        W36567  22.998  35.035   0.420
64842W        W36568  23.200   8.945   1.510
64843W        W36569  44.769  35.253  12.061
64844W        W36570  12.490  28.091  12.090
64845W        W36571  44.243  39.757   3.720
64846W        W36572   9.044  13.497  10.794
64847W        W36573   6.470  32.552  12.973
64848W        W36574  17.956  19.809  14.933
64849W        W36575  39.344  24.073  12.489
64850W        W36576  35.851   3.712  14.434
64851W        W36577  22.398  38.903  12.225
64852W        W36578  29.382  21.247   5.022
64853W        W36579  22.105  28.634  13.253
64854W        W36580   1.013  14.083   3.663
64855W        W36581  37.862  23.172   4.102
64856W        W36582  35.937  35.071  12.621
64857W        W36583  21.963  38.874  14.458
64858W        W36584   4.198  41.777  14.403
64859W        W36585   1.676  42.856   1.142
64860W        W36586  38.404   8.836  12.341
64861W        W36587  30.693  30.969   4.594
64862W        W36588  14.612  42.444   3.054
64863W        W36589  37.415   4.559  10.290
64864W        W36590  36.709  38.968  11.100
64865W        W36591  21.419  43.573   0.407
64866W        W36592  26.288  37.559  10.737
64867W        W36593   5.035  18.801   1.112
64868W        W36594  14.340  43.573   2.183
64869W        W36595   8.090   7.228   4.221
64870W        W36596   8.676  11.142  13.836
64871W        W36597  16.049  38.280  11.444
64872W        W36598   1.268  15.687  12.915
64873W        W36599   7.761  27.494   0.516
64874W        W36600  20.310  12.883  11.622
64875W        W36601  38.378  30.971   2.929
64876W        W36602  31.374   5.834   1.842
64877W        W36603  29.062  15.740  13.739
64878W        W36604  14.195  44.696  14.740
64879W        W36605  30.522  13.183   4.092
64880W        W36606   8.732   0.294  14.669
64881W        W36607  25.610  33.469   2.220
64882W        W36608  37.786  39.829   3.393
64883W        W36609   4.903  34.986  12.209
64884W        W36610  16.171  21.752  12.242
64885W        W36611   8.615  29.175  12.607
64886W        W36612  14.127  14.822  14.391
64887W        W36613  27.065   2.743  13.445
64888W        W36614  15.785  17.827   3.219
64889W        W36615   7.880  32.072   9.991
64890W        W36616  40.298  14.296   2.835
64891W        W36617  43.458   0.465   1.859
64892W        W36618  18.853  18.658   4.616
64893W        W36619  14.656  30.214  12.203
64894W        W36620  12.879  12.879  11.505
64895W        W36621   8.402   5.487   4.152
64896W        W36622  10.259   6.903   2.679
64897W        W36623  37.336  38.030  13.458
64898W        W36624  29.540   5.922   4.792
64899W        W36625  44.972  17.535  12.331
64900W        W36626  17.640  38.422   5.492
64901W        W36627  35.112  43.970   4.614
64902W        W36628  41.987   8.202  14.970
64903W        W36629  43.309  20.456   1.547
64904W        W36630  32.959  40.531  11.024
64905W        W36631  23.883   5.419  12.537
64906W        W36632  33.712  32.544   4.542
64907W        W36633  27.598  38.368  11.391
64908W        W36634  28.554  36.736   3.171
64909W        W36635  43.139  32.257  11.472
64910W        W36636  25.162   9.603   2.864
64911W        W36637  20.000  29.988  13.523
64912W        W36638  21.649  43.826  11.874
64913W        W36639   3.799  15.205  12.463
64914W        W36640  28.163  42.905   0.955
64915W        W36641  16.748  20.113   2.368
64916W        W36642  12.664  14.595  13.311
64917W        W36643  30.176  13.325  11.193
64918W        W36644  22.204  18.495  11.615
64919W        W36645  17.749  40.928   4.674
64920W        W36646  17.485  31.394   2.893
64921W        W36647  19.068  33.936  13.927
64922W        W36648  18.990  17.536   0.376
64923W        W36649   1.780  17.772   2.947
64924W        W36650  19.797   6.683  11.602
64925W        W36651  28.180   6.822   2.357
64926W        W36652  35.187  34.541   2.238
64927W        W36653  42.426   7.660  13.391
64928W        W36654  11.401  27.739  14.985
64929W        W36655  11.007  27.412   0.037
64930W        W36656   0.630   4.293   1.324
64931W        W36657  27.711  35.499  12.010
64932W        W36658  31.400  18.030   3.716
64933W        W36659  37.970   2.864  12.313
64934W        W36660  35.986  24.682  14.434
64935W        W36661  41.477  16.850  11.142
64936W        W36662  18.761  14.714  14.198
64937W        W36663  42.976  11.130   1.820
64938W        W36664  41.590  22.490  14.783
64939W        W36665  14.184  12.889   3.634
64940W        W36666  44.782  41.199   3.707
64941W        W36667  44.088  44.065   0.349
64942W        W36668  33.435  26.125  12.052
64943W        W36669  27.804  39.755  11.414
64944W        W36670  42.318  17.543   0.707
64945W        W36671  15.576  27.215  14.958
64946W        W36672  28.746  23.072   3.250
64947W        W36673  15.156  37.945   2.144
64948W        W36674  28.700   6.353   2.723
64949W        W36675  11.064   9.894  11.164
64950W        W36676  16.123  32.895  12.954
64951W        W36677  11.315  18.622   2.837
64952W        W36678  32.787  28.819   2.114
64953W        W36679  12.358  15.555   1.233
64954W        W36680  14.423  20.042   4.085
64955W        W36681  23.212  42.790   4.151
64956W        W36682  38.256  24.829  11.985
64957W        W36683  14.070   3.422   0.202
64958W        W36684  15.641  31.137  10.980
64959W        W36685  22.212   0.926  14.962
64960W        W36686  32.177  28.454  14.684
64961W        W36687  24.557  34.397   3.162
64962W        W36688  31.293  23.678   5.541
64963W        W36689  36.020  41.015   3.395
64964W        W36690  10.858   2.038   1.927
64965W        W36691   6.598   1.251  11.216
64966W        W36692   1.810  20.792  14.472
64967W        W36693  38.903  28.681  14.487
64968W        W36694  44.809  30.597   2.726
64969W        W36695  41.914  11.017   2.102
64970W        W36696  33.698  30.438   5.082
64971W        W36697  13.349  10.808   4.246
64972W        W36698  11.868   3.416  11.201
64973W        W36699  41.350   7.399  13.452
64974W        W36700   4.739   6.369   3.842
64975W        W36701  10.876   7.901   4.669
64976W        W36702  33.785  19.051  12.124
64977W        W36703   1.881  33.529   0.873
64978W        W36704  43.905  42.852  13.547
64979W        W36705  18.208  23.190  10.258
64980W        W36706  21.873  26.684   2.468
64981W        W36707  39.823  27.605   0.279
64982W        W36708  34.981  22.528   1.943
64983W        W36709  21.784  11.244   1.945
64984W        W36710  18.589  16.810   4.482
64985W        W36711  11.790  44.546  10.584
64986W        W36712  10.126   7.735   4.614
64987W        W36713  28.709   7.086  13.328
64988W        W36714  20.519  43.883  11.065
64989W        W36715  42.534   6.638  12.401
64990W        W36716  11.394  21.060  14.880
64991W        W36717  17.622  41.501   4.448
64992W        W36718  38.095  10.781  11.018
64993W        W36719  44.285  44.581   5.310
64994W        W36720  21.000  29.652  11.157
64995W        W36721   8.160  28.616   3.369
64996W        W36722   1.465  24.334   0.406
64997W        W36723  22.005  19.486   3.662
64998W        W36724  33.940  26.356  13.007
64999W        W36725   6.437  13.180  12.007
65000W        W36726  38.284  24.007  14.522
65001W        W36727   9.695   7.329   1.240
65002W        W36728  11.892  34.827   4.574
65003W        W36729  28.676  28.120   0.314
65004W        W36730  35.020  22.721  12.174
65005W        W36731  17.263   4.741  14.313
65006W        W36732  28.860  31.911   0.451
65007W        W36733   5.472   4.898   1.445
65008W        W36734   8.642  22.612  11.150
65009W        W36735  35.297  33.978  11.139
65010W        W36736   7.771  40.050  10.963
65011W        W36737  16.053  10.615  12.847
65012W        W36738   5.780  15.699   2.043
65013W        W36739   7.640   5.693  10.163
65014W        W36740  42.695  33.477  13.303
65015W        W36741  28.901  30.184  12.086
65016W        W36742  24.581  14.371   0.431
65017W        W36743  42.828   3.410  10.160
65018W        W36744   6.102  19.058   2.892
65019W        W36745  26.026  12.862   4.178
65020W        W36746  31.385  16.769   4.055
65021W        W36747  16.740  13.884  12.951
65022W        W36748  15.077  36.854  14.333
65023W        W36749  17.508  20.144  13.695
65024W        W36750  28.376  25.105   1.308
65025W        W36751  42.692  26.706  14.733
65026W        W36752  28.381   9.366  14.432
65027W        W36753  28.687  26.616   1.169
65028W        W36754  34.982  41.994   0.940
65029W        W36755  28.553  32.704   0.216
65030W        W36756  34.254  27.633  12.522
65031W        W36757   3.843   9.724  11.582
65032W        W36758  29.051  27.031  11.865
65033W        W36759   8.178  16.233   1.892
65034W        W36760  40.004  12.241   4.561
65035W        W36761  23.640  43.460  12.916
65036W        W36762  20.122  25.673   4.382
65037W        W36763  11.259  17.186   0.769
65038W        W36764   5.842  29.095  11.156
65039W        W36765   9.350  16.429   2.186
65040W        W36766  38.347  24.156   2.788
65041W        W36767   6.189  26.155   4.219
65042W        W36768  12.237  22.059  13.444
65043W        W36769  14.271   9.954   4.578
65044W        W36770   7.453   6.152   3.533
65045W        W36771  38.909  40.811  11.584
65046W        W36772  13.797   8.888   4.246
65047W        W36773  37.580   0.248  14.801
65048W        W36774   3.674  12.518   1.896
65049W        W36775  17.031  39.332   1.792
65050W        W36776  17.581   2.072  12.020
65051W        W36777  29.640  17.871   3.426
65052W        W36778  39.716  40.883  10.532
65053W        W36779  37.708  21.132  13.539
65054W        W36780  14.409  16.656   2.373
65055W        W36781   7.132  35.050  10.585
65056W        W36782  17.087  28.551   4.333
65057W        W36783  20.259  21.965   2.209
65058W        W36784  42.420  11.361   4.386
65059W        W36785  44.280  14.858  13.512
65060W        W36786  31.337  29.100  12.524
65061W        W36787   6.782  42.260   2.588
65062W        W36788  22.273  42.283  13.042
65063W        W36789  36.428  43.053   4.132
65064W        W36790  19.628   1.947   0.274
65065W        W36791   0.277  10.120  10.668
65066W        W36792  29.082  24.128   1.809
65067W        W36793  20.170  18.800  12.405
65068W        W36794   4.876   2.875   4.040
65069W        W36795  38.627  17.169  11.445
65070W        W36796  37.471  44.845  13.846
65071W        W36797  20.960  39.819  12.568
65072W        W36798  17.579  40.756   1.345
65073W        W36799   6.168  24.324   1.064
65074W        W36800  44.713  10.137   4.721
65075W        W36801  36.428  40.823  14.908
65076W        W36802  36.083  20.613   2.672
65077W        W36803  20.033  15.465  12.621
65078W        W36804   2.383  21.089   4.709
65079W        W36805   1.209  26.751  11.672
65080W        W36806  15.123  22.119   0.505
65081W        W36807  23.510  17.993  13.233
65082W        W36808  12.286  26.206  14.865
65083W        W36809  32.920  24.940  11.039
65084W        W36810   1.030  20.057   0.811
65085W        W36811  43.676  28.997  14.744
65086W        W36812  37.775  10.770   3.186
65087W        W36813  12.867  27.064   4.341
65088W        W36814  26.876   9.486  14.453
65089W        W36815  16.100   9.295   2.910
65090W        W36816  35.965  23.478  13.642
65091W        W36817  38.831  27.801  12.936
65092W        W36818  24.020  21.647   4.378
65093W        W36819  31.469   3.957  10.687
65094W        W36820  26.072  25.026  14.011
65095W        W36821   5.128  28.552  14.129
65096W        W36822   9.206   1.059   0.223
65097W        W36823  10.257  25.019  10.222
65098W        W36824  22.160  32.736   2.436
65099W        W36825  42.677  19.572  10.776
65100W        W36826   7.484  37.461   4.792
65101W        W36827  14.212  10.851  12.795
65102W        W36828  16.637   3.443  11.909
65103W        W36829  30.543  29.511   3.873
65104W        W36830  22.018  28.348   0.612
65105W        W36831   7.031  43.382  13.513
65106W        W36832   6.416  10.330   2.343
65107W        W36833  42.006  12.186  11.114
65108W        W36834  24.460  18.689  10.906
65109W        W36835  22.067   4.976   3.368
65110W        W36836  33.394  12.727   0.362
65111W        W36837   7.972   3.341   4.023
65112W        W36838  28.669  15.662   2.455
65113W        W36839  34.095  22.726  10.101
65114W        W36840   3.499   3.368   2.504
65115W        W36841   0.040   5.580  12.929
65116W        W36842   4.759  35.535  10.217
65117W        W36843  24.300  34.110   1.376
65118W        W36844  20.702   2.053   0.755
65119W        W36845   6.098  44.048  11.840
65120W        W36846  27.699  22.243   0.979
65121W        W36847  16.715  14.035   0.012
65122W        W36848  21.498   7.270   0.771
65123W        W36849  25.632  12.790   2.839
65124W        W36850   5.355  33.805  14.864
65125W        W36851  32.390  27.095   1.788
65126W        W36852  16.441  34.425   4.180
65127W        W36853   8.497   1.876   4.173
65128W        W36854   1.403  39.307  14.045
65129W        W36855  17.134  11.425   0.224
65130W        W36856  34.638  13.184  11.149
65131W        W36857  27.505  31.917   4.381
65132W        W36858  10.310  37.878  12.545
65133W        W36859  27.878  19.392   2.643
65134W        W36860  34.245  30.346  14.246
65135W        W36861  23.133  41.479  11.938
65136W        W36862  43.576  14.664  10.696
65137W        W36863   8.355  18.577   1.715
65138W        W36864   2.715  31.037   1.434
65139W        W36865  23.052   1.465   0.797
65140W        W36866   7.167  40.619   2.721
65141W        W36867   2.165   0.228   4.690
65142W        W36868  38.414  43.188   3.404
65143W        W36869   4.715   6.840   2.053
65144W        W36870  21.193  14.126   0.177
65145W        W36871   6.474  34.149  12.031
65146W        W36872  35.065  35.184  10.718
65147W        W36873  41.659   6.801  13.250
65148W        W36874   5.236  25.130  12.981
65149W        W36875  22.691  28.596  11.105
65150W        W36876  23.534   5.267  12.944
65151W        W36877  15.975  15.519   0.858
65152W        W36878  42.031  27.084   0.325
65153W        W36879  24.078  17.127   0.073
65154W        W36880   1.151  22.119   3.759
65155W        W36881  28.553  34.798  13.625
65156W        W36882  20.709  30.128  10.718
65157W        W36883   8.839   1.563  10.470
65158W        W36884  24.552  13.844   0.427
65159W        W36885  15.958  18.580   4.092
65160W        W36886  19.264  35.905   4.016
65161W        W36887  41.730   2.830   2.799
65162W        W36888  41.920   0.260   3.756
65163W        W36889  32.391  41.986   0.994
65164W        W36890  41.690  31.342  10.918
65165W        W36891   4.826  30.766   4.228
65166W        W36892  10.659  13.726   2.246
65167W        W36893  16.392  31.465  13.394
65168W        W36894   1.423  26.886  13.830
65169W        W36895  30.026  25.248   3.543
65170W        W36896  33.424  17.262  12.536
65171W        W36897  44.821   6.232   0.434
65172W        W36898  29.127  30.535  13.951
65173W        W36899  29.887   8.742   1.258
65174W        W36900  23.691  32.649   0.756
65175W        W36901  41.056  40.872  14.168
65176W        W36902  40.996  11.782   1.783
65177W        W36903   8.686  38.061  10.946
65178W        W36904  40.588  20.074   3.199
65179W        W36905  28.054  15.774   2.675
65180W        W36906  21.108   2.800  12.144
65181W        W36907   0.388  22.118  14.374
65182W        W36908  31.655  22.696   0.309
65183W        W36909   9.204   0.314  12.506
65184W        W36910  37.143   7.732   2.713
65185W        W36911   9.324  19.144  11.339
65186W        W36912   1.306  42.890   2.398
65187W        W36913   3.415   0.410   2.684
65188W        W36914  21.473  33.558  13.096
65189W        W36915  15.844  17.809   4.161
65190W        W36916  30.258  25.128   1.511
65191W        W36917  21.603   0.887  11.631
65192W        W36918   5.179  18.213  11.634
65193W        W36919  12.901  10.566   4.313
65194W        W36920  28.664  12.227  12.929
65195W        W36921  31.634  26.279   9.909
65196W        W36922  18.603  42.032   4.848
65197W        W36923  27.889  37.043   2.206
65198W        W36924  37.349  22.603  13.323
65199W        W36925   7.982  39.025   4.093
65200W        W36926  39.518   9.795  10.920
65201W        W36927  17.275   3.238   1.667
65202W        W36928  38.168  16.573   2.188
65203W        W36929  43.731  43.541   0.464
65204W        W36930  40.965  25.059  14.454
65205W        W36931  19.425   5.507  11.999
65206W        W36932  39.449  44.492   3.739
65207W        W36933  12.155   5.188   4.724
65208W        W36934  16.845  36.789   0.426
65209W        W36935  12.346  34.220  14.474
65210W        W36936  35.957  31.390  11.098
65211W        W36937  43.372  36.481  13.242
65212W        W36938  14.336  42.623   2.449
65213W        W36939   2.059  14.699  11.849
65214W        W36940  19.739   7.547  11.099
65215W        W36941  11.210  35.969  13.355
65216W        W36942  38.048  29.476   4.240
65217W        W36943  16.250  43.972   2.326
65218W        W36944  11.300  10.197   2.575
65219W        W36945  26.993   3.053   1.306
65220W        W36946  10.446  21.733   3.858
65221W        W36947   7.748  21.978   3.237
65222W        W36948  38.069  42.611  10.131
65223W        W36949  18.391   3.287  11.134
65224W        W36950   5.147   6.124   3.297
65225W        W36951   6.812  20.986  12.632
65226W        W36952  33.336   2.287   0.503
65227W        W36953   8.387  38.338  14.235
65228W        W36954  26.458  36.613  14.889
65229W        W36955   3.767  22.129  11.389
65230W        W36956   7.131  13.257  13.343
65231W        W36957  24.090   7.883  10.488
65232W        W36958  28.987  21.528  14.448
65233W        W36959   9.330  30.997  13.866
65234W        W36960  19.305  41.063   3.911
65235W        W36961  40.583  18.544   1.340
65236W        W36962  22.168  39.784  10.614
65237W        W36963  23.318  19.776  14.941
65238W        W36964  27.743  23.635  12.478
65239W        W36965  40.285  44.299   3.249
65240W        W36966   5.669   2.826  12.481
65241W        W36967  32.299   4.257  13.698
65242W        W36968  16.828   5.867  10.626
65243W        W36969  36.402  28.090   0.752
65244W        W36970  40.383   1.486   3.174
65245W        W36971   6.896  12.586   1.681
65246W        W36972  17.563  13.960   4.443
65247W        W36973   5.782  28.503   4.069
65248W        W36974   4.292   0.749  11.402
65249W        W36975   9.240  41.232   4.797
65250W        W36976  12.642  21.677  14.346
65251W        W36977  13.758  21.982  12.273
65252W        W36978  31.841  39.974   0.319
65253W        W36979  20.711  38.755  14.886
65254W        W36980  34.998  32.339   0.281
65255W        W36981  34.096  16.296   4.410
65256W        W36982   0.538  15.544  13.374
65257W        W36983  14.672  23.701   0.295
65258W        W36984   5.282  17.621   0.460
65259W        W36985  27.489   2.305  14.198
65260W        W36986  17.759  39.282   0.235
65261W        W36987  10.452   5.758  12.432
65262W        W36988  15.787   5.219   4.711
65263W        W36989  16.029  14.343  11.892
65264W        W36990  43.409  14.132  12.655
65265W        W36991  38.955  42.467   0.334
65266W        W36992   5.295   2.922   1.635
65267W        W36993   6.686   4.379  12.017
65268W        W36994  20.545   7.424  13.465
65269W        W36995  13.173  44.730   3.355
65270W        W36996  29.249  40.274  13.004
65271W        W36997  13.702  40.765   2.422
65272W        W36998  29.760   8.629  14.808
65273W        W36999  33.179  38.841  13.435
65274W        W37000  17.592  40.876   2.208
65275W        W37001  28.007   1.499   0.895
65276W        W37002  13.365   5.510  11.173
65277W        W37003  29.940   8.920   3.741
65278W        W37004  40.629  36.423   3.803
65279W        W37005   1.306  30.224   2.417
65280W        W37006  37.845  41.544  12.078
65281W        W37007   8.645   9.689   1.480
65282W        W37008  16.578  42.555   0.241
65283W        W37009  39.279  29.016   4.144
65284W        W37010  24.692   9.101  14.413
65285W        W37011  10.716  11.793   0.406
65286W        W37012  23.547  37.967  13.441
65287W        W37013  44.084  29.608   1.936
65288W        W37014  13.100  24.416  14.978
65289W        W37015  23.542  30.769   1.860
65290W        W37016  14.307   4.496  10.814
65291W        W37017  15.798   3.301  10.306
65292W        W37018   9.232  19.796   4.739
65293W        W37019   0.781  11.953  13.958
65294W        W37020  27.201   3.935  12.079
65295W        W37021  37.349  30.620   1.386
65296W        W37022  23.800  19.171   0.714
65297W        W37023  27.917   6.251   4.496
65298W        W37024  15.106   3.005  11.985
65299W        W37025  38.658  23.178  14.085
65300W        W37026   6.562  30.418  14.337
65301W        W37027  22.712  11.763   2.847
65302W        W37028  21.530  11.270   3.840
65303W        W37029   5.987  34.871   2.758
65304W        W37030   0.725  40.036   2.174
65305W        W37031   6.620  41.441   0.470
65306W        W37032  20.720   0.940   4.639
65307W        W37033  11.721  36.831   2.863
65308W        W37034  25.986  20.535   1.658
65309W        W37035   8.766  26.620   0.287
65310W        W37036  44.410  26.527   1.582
65311W        W37037  21.746  44.341   3.601
65312W        W37038   5.246  38.525  12.950
65313W        W37039   6.827   1.689  14.472
65314W        W37040   8.853   0.137  12.870
65315W        W37041  15.373  39.307  13.565
65316W        W37042  34.455  29.361   3.732
65317W        W37043  33.533  28.828   3.761
65318W        W37044   0.871  24.596  12.693
65319W        W37045  42.442  15.903   3.307
65320W        W37046  42.050  31.109  13.387
65321W        W37047  32.347  41.874   1.938
65322W        W37048   8.908  37.116  10.615
65323W        W37049  28.639  17.331   0.520
65324W        W37050  16.278   9.176   4.293
65325W        W37051  17.690  14.554  11.653
65326W        W37052  26.232  31.497   1.783
65327W        W37053   8.178  36.247   4.662
65328W        W37054  36.526  17.648   3.301
65329W        W37055  24.941  43.770   3.737
65330W        W37056  25.235  26.062   0.957
65331W        W37057   6.990  13.858  10.754
65332W        W37058   2.364   9.622  10.625
65333W        W37059  36.603  20.452   4.137
65334W        W37060  30.376   5.412  14.337
65335W        W37061   0.803   0.462   3.633
65336W        W37062  12.770  22.530   0.468
65337W        W37063   0.497   7.536   9.766
65338W        W37064  37.192  18.715  12.547
65339W        W37065  44.249  40.766  11.196
65340W        W37066   8.214  38.251   1.248
65341W        W37067  24.973   4.141  12.781
65342W        W37068  26.715  14.141  14.425
65343W        W37069  37.566  27.556   3.660
65344W        W37070  24.038  24.460  14.044
65345W        W37071  38.002  40.377   0.470
65346W        W37072  27.127  44.906   3.264
65347W        W37073  15.288  21.197  11.508
65348W        W37074  38.462  16.662   1.026
65349W        W37075  20.527  21.696  13.349
65350W        W37076  10.571  21.275   3.656
65351W        W37077  10.994  22.953   0.876
65352W        W37078  11.086  12.547   1.219
65353W        W37079   4.633  13.944  14.185
65354W        W37080  37.560   7.753  12.605
65355W        W37081  24.322  22.448  11.980
65356W        W37082  25.001  43.740  10.734
65357W        W37083  13.764  44.547  13.051
65358W        W37084   3.991  36.719  11.074
65359W        W37085  12.828   8.291   3.225
65360W        W37086  38.934  19.264  14.397
65361W        W37087   8.938  29.950  11.572
65362W        W37088  35.051  11.831   2.601
65363W        W37089  21.198   2.235  10.436
65364W        W37090  13.015   9.715  12.761
65365W        W37091  42.083  21.108  14.113
65366W        W37092  11.762  35.990  10.669
65367W        W37093   6.993  40.265   1.131
65368W        W37094  11.407  36.888   3.798
65369W        W37095  16.144   8.161   0.007
65370W        W37096  39.907  44.849  13.423
65371W        W37097   1.447   2.721   3.972
65372W        W37098  33.107  33.884  10.921
65373W        W37099  29.808  33.387   1.707
65374W        W37100  32.002  18.556  12.542
65375W        W37101   9.736  30.023   1.710
65376W        W37102  41.554  12.707   2.079
65377W        W37103  41.959  18.338   4.610
65378W        W37104  18.872  26.773   3.710
65379W        W37105  24.643  11.889   2.846
65380W        W37106  33.388  11.783  10.652
65381W        W37107  11.713  22.209  12.591
65382W        W37108  32.028  14.249   1.626
65383W        W37109  13.570  16.309   3.262
65384W        W37110  30.875   2.218  12.954
65385W        W37111  30.548  30.969  12.441
65386W        W37112  34.535   8.725   4.197
65387W        W37113  29.700  35.504   0.930
65388W        W37114   8.689  21.988  11.948
65389W        W37115  10.167  13.870  13.563
65390W        W37116   4.192  15.352   2.383
65391W        W37117  24.668  29.444   0.381
65392W        W37118  32.825  43.702   1.819
65393W        W37119  29.260  39.256   2.061
65394W        W37120   3.363  44.446   0.993
65395W        W37121  20.750  26.619   0.891
65396W        W37122  24.556   1.420   0.452
65397W        W37123  19.738  21.280  10.500
65398W        W37124   8.291   8.000   2.196
65399W        W37125  27.573  42.861   3.350
65400W        W37126  16.226  38.145   1.732
65401W        W37127  36.960   5.822   3.912
65402W        W37128  35.502  44.517  12.865
65403W        W37129  27.644   1.816  14.340
65404W        W37130  18.525  26.915   3.276
65405W        W37131  27.911  31.855   9.971
65406W        W37132  21.222   8.612   0.934
65407W        W37133   5.317  30.543   0.827
65408W        W37134   8.094  16.762  12.984
65409W        W37135  27.784  29.998   4.297
65410W        W37136   4.469  39.982   0.459
65411W        W37137  42.435  19.218  14.031
65412W        W37138  33.479  32.885   1.425
65413W        W37139  34.690   0.453  13.974
65414W        W37140  16.058  18.190  13.399
65415W        W37141  15.202   1.338   3.676
65416W        W37142  13.519   4.978  14.958
65417W        W37143  37.639  33.278   4.617
65418W        W37144   1.901  36.601   0.846
65419W        W37145   2.186  44.059  14.449
65420W        W37146  41.507   3.422  14.059
65421W        W37147  30.634  42.055  10.565
65422W        W37148  32.059  42.048  13.786
65423W        W37149  16.066  33.199   2.776
65424W        W37150  18.760  27.273   3.630
65425W        W37151  39.397  21.995   1.447
65426W        W37152   3.644  43.494  12.808
65427W        W37153  23.172   8.767   1.992
65428W        W37154  30.733  25.869  13.754
65429W        W37155   5.987  12.436   3.199
65430W        W37156  17.014  23.705   2.378
65431W        W37157  42.319  26.500  12.318
65432W        W37158  11.190  41.925  12.855
65433W        W37159   1.830   5.824   3.657
65434W        W37160  32.302  19.013  12.385
65435W        W37161  37.382  26.455   3.284
65436W        W37162  18.380   8.808   2.942
65437W        W37163  35.145  13.710  14.030
65438W        W37164  31.340  34.522   4.517
65439W        W37165  35.809  31.057  10.714
65440W        W37166   1.744  35.311   3.815
65441W        W37167   1.284  16.813   2.308
65442W        W37168  21.247   7.630  12.076
65443W        W37169  31.607  24.787  11.120
65444W        W37170   8.322  34.761  12.395
65445W        W37171  33.385   8.292  13.888
65446W        W37172   8.090  42.698   3.673
65447W        W37173  39.160  27.951   2.527
65448W        W37174  16.725  21.573   4.413
65449W        W37175   8.601  28.976   1.541
65450W        W37176   3.544  14.189  13.547
65451W        W37177  13.633  37.052   0.551
65452W        W37178  15.288  16.148  11.414
65453W        W37179   2.616  42.265   1.918
65454W        W37180  27.149   1.627   9.602
65455W        W37181  17.802  25.969  14.390
65456W        W37182  21.562  14.510  12.606
65457W        W37183  32.108  12.044   2.104
65458W        W37184   3.724  11.769   3.296
65459W        W37185  35.151  19.339  12.134
65460W        W37186  18.273  33.344   2.955
65461W        W37187  17.677  41.846  14.717
65462W        W37188  14.847  23.606   4.560
65463W        W37189  37.138  23.644  12.129
65464W        W37190  20.681   0.995  14.114
65465W        W37191  29.463  38.399  11.555
65466W        W37192  12.178   6.127   3.158
65467W        W37193  42.106  32.022  11.592
65468W        W37194  20.256   7.679  11.679
65469W        W37195  17.233  36.175   2.173
65470W        W37196  12.389  43.910   2.247
65471W        W37197  41.257  33.619   2.243
65472W        W37198  38.123   6.188   1.361
65473W        W37199  15.256   5.478   0.045
65474W        W37200   5.398  43.526  10.665
65475W        W37201  29.159  41.198  13.933
65476W        W37202  11.307  24.175   5.172
65477W        W37203  28.661  15.579  13.471
65478W        W37204  19.061  19.285   4.425
65479W        W37205  11.346  31.862  13.980
65480W        W37206  44.415  11.292   2.797
65481W        W37207  42.391  32.344   2.702
65482W        W37208  20.153  27.434   3.327
65483W        W37209  32.121  33.688   1.495
65484W        W37210   1.019  44.910  13.048
65485W        W37211   4.762  41.587   0.995
65486W        W37212  14.994   1.959  12.194
65487W        W37213  21.976   7.837  10.402
65488W        W37214  26.435  18.238  13.530
65489W        W37215  27.072  15.393  11.994
65490W        W37216  17.525   8.258   3.702
65491W        W37217  11.617   3.257  10.730
65492W        W37218   0.331  26.956   0.296
65493W        W37219  27.915  30.123   3.777
65494W        W37220  22.416  33.490  12.586
65495W        W37221  33.618   8.061  14.343
65496W        W37222  33.076  30.302  14.087
65497W        W37223  35.465  28.656   1.286
65498W        W37224  28.558  28.366   1.852
65499W        W37225  39.405  31.199  12.925
65500W        W37226  16.387  37.870  13.383
65501W        W37227  21.832  15.664   4.685
65502W        W37228  42.553   0.224   2.233
65503W        W37229  36.343   5.895  11.534
65504W        W37230  40.097  25.259  10.573
65505W        W37231   9.234  27.106   2.111
65506W        W37232  19.715  30.463   2.100
65507W        W37233  22.172  41.358  13.547
65508W        W37234  35.394  25.787  13.826
65509W        W37235  13.112  42.349   3.084
65510W        W37236  32.494  25.091  13.523
65511W        W37237  27.765  16.877  12.349
65512W        W37238  30.999  28.422  12.372
65513W        W37239  38.544  42.106  11.224
65514W        W37240  15.843   4.776  13.910
65515W        W37241  33.886  14.828   0.317
65516W        W37242   9.507  29.100  14.342
65517W        W37243  34.696  38.630  11.115
65518W        W37244  36.087   8.261   1.836
65519W        W37245   1.958  31.842   1.449
65520W        W37246   4.669  37.156   1.336
65521W        W37247  34.597  27.390  14.560
65522W        W37248  37.599  21.374   0.905
65523W        W37249  38.865   8.898  12.633
65524W        W37250  10.256  35.086  12.970
65525W        W37251   6.212  39.884   1.517
65526W        W37252  42.233  40.470   3.956
65527W        W37253   4.020  24.286   3.264
65528W        W37254   0.939  26.692  13.957
65529W        W37255  18.273  42.309   0.996
65530W        W37256  39.794   7.214   4.587
65531W        W37257  27.014  42.896   3.119
65532W        W37258  30.696   2.100  11.225
65533W        W37259  39.756  27.637   1.643
65534W        W37260  26.194   5.668   1.515
65535W        W37261  11.406  35.955   2.620
65536W        W37262   4.435  44.799   4.832
65537W        W37263  28.210   5.903  13.206
65538W        W37264  35.975  44.030  13.855
65539W        W37265  40.112  26.143   4.276
65540W        W37266  22.177   3.666   0.783
65541W        W37267  13.362   3.080   2.809
65542W        W37268  15.341  12.184   2.392
65543W        W37269  11.216  32.965  10.663
65544W        W37270  44.449   0.054  13.660
65545W        W37271  34.078  18.358  13.088
65546W        W37272  28.572  39.552  11.885
65547W        W37273  30.201  36.901   1.204
65548W        W37274  28.562  31.643   2.768
65549W        W37275  36.804   9.184   4.318
65550W        W37276  29.397   4.738  12.164
65551W        W37277  13.064  13.138  13.811
65552W        W37278   9.832  13.035  13.365
65553W        W37279  33.008  37.027   4.669
65554W        W37280  38.574  31.863   3.637
65555W        W37281   9.797  37.151  14.345
65556W        W37282  44.947   9.437   0.963
65557W        W37283  18.630  29.986  13.338
65558W        W37284  17.167  35.559   3.827
65559W        W37285  16.103  39.563  14.348
65560W        W37286   3.432  18.783  11.324
65561W        W37287   6.692   0.821  12.315
65562W        W37288   2.388  25.491   0.281
65563W        W37289   2.204  21.946   4.129
65564W        W37290  28.975  43.066   3.744
65565W        W37291  40.336  15.936  10.968
65566W        W37292  22.316  13.478   3.560
65567W        W37293   3.265   9.864  10.809
65568W        W37294  25.474  30.464   1.885
65569W        W37295  39.524  39.276   1.895
65570W        W37296   3.972  11.665  11.902
65571W        W37297  25.667  22.703  12.313
65572W        W37298  10.630  18.080  12.014
65573W        W37299  10.853  35.707  14.889
65574W        W37300  10.170   0.877  12.551
65575W        W37301  41.875  13.633  13.856
65576W        W37302  24.562  26.540   2.680
65577W        W37303  28.161   7.685   4.978
65578W        W37304   6.246  37.354  11.143
65579W        W37305   7.780   4.333  14.020
65580W        W37306   6.718  18.235   3.356
65581W        W37307   1.030  38.925   2.233
65582W        W37308  25.723  32.042   5.187
65583W        W37309  11.900  20.194   2.284
65584W        W37310   6.167   8.757   0.095
65585W        W37311  30.071  42.505   4.522
65586W        W37312  15.901  12.278  10.690
65587W        W37313  42.372  12.350   4.829
65588W        W37314  11.818  24.652   3.239
65589W        W37315   1.890  16.057  12.931
65590W        W37316  40.955  18.969  11.279
65591W        W37317   7.618  19.197  13.520
65592W        W37318  21.148   2.768  11.142
65593W        W37319  28.342  24.287  10.708
65594W        W37320  34.179  12.854  12.931
65595W        W37321  40.558  18.315   3.752
65596W        W37322  11.432  39.891  12.478
65597W        W37323  23.434  35.218   4.716
65598W        W37324   0.282  16.269   2.342
65599W        W37325   6.766  15.521   5.417
65600W        W37326  41.402  19.585  10.540
65601W        W37327  12.185  12.112   2.142
65602W        W37328  21.621   5.245   4.332
65603W        W37329  21.543  31.561   3.219
65604W        W37330   9.820  42.455   2.201
65605W        W37331  22.974  13.410  12.038
65606W        W37332  21.178  20.489  12.899
65607W        W37333  29.112  22.263  12.404
65608W        W37334   1.357  25.681   3.660
65609W        W37335  44.384  31.643   4.992
65610W        W37336  20.938  35.950   0.577
65611W        W37337  19.079  23.597   2.927
65612W        W37338  30.363  39.895  10.705
65613W        W37339  12.233  25.179  11.114
65614W        W37340  38.506  11.912   1.848
65615W        W37341  10.336   9.424  13.919
65616W        W37342   9.073  42.908   4.723
65617W        W37343  17.623  24.291   2.282
65618W        W37344  30.658  25.458   1.414
65619W        W37345  22.779  18.507  12.113
65620W        W37346  27.056  27.509  12.644
65621W        W37347  38.464  34.457  13.113
65622W        W37348  29.064  43.869   3.277
65623W        W37349  11.412  30.955  12.198
65624W        W37350  13.375  14.204  13.042
65625W        W37351  19.252  41.949  12.921
65626W        W37352   7.766   2.396  13.796
65627W        W37353  28.069  26.995   4.369
65628W        W37354  17.124  42.289  11.131
65629W        W37355  41.412  13.636   1.453
65630W        W37356  13.725  32.145  10.962
65631W        W37357  13.355   4.943  11.106
65632W        W37358  26.704  20.605   4.444
65633W        W37359  17.166  44.158  13.398
65634W        W37360  14.286  27.872   2.749
65635W        W37361  34.029  35.910   3.120
65636W        W37362  10.199   2.366   3.674
65637W        W37363  18.997   8.546  14.101
65638W        W37364  33.475  40.016  13.427
65639W        W37365  15.031  12.684  10.650
65640W        W37366   8.211  23.569   0.214
65641W        W37367  27.380  37.933  12.622
65642W        W37368  27.232  26.534  12.288
65643W        W37369  29.992   3.283   3.349
65644W        W37370  10.422  30.836  10.639
65645W        W37371  33.084   6.140  13.303
65646W        W37372  16.703  38.952   4.731
65647W        W37373  11.884  37.492   0.689
65648W        W37374  18.577  32.670  14.372
65649W        W37375  31.683   7.828  11.080
65650W        W37376   4.990  43.896   1.211
65651W        W37377  26.111  24.085  13.461
65652W        W37378  42.079   3.497  11.400
65653W        W37379  38.325  14.712   0.799
65654W        W37380   7.659  42.945   0.037
65655W        W37381  38.314   9.100  13.025
65656W        W37382   5.969  24.317   3.705
65657W        W37383  20.480  14.855   1.822
65658W        W37384  18.278  13.910  11.672
65659W        W37385   6.357   9.597   0.813
65660W        W37386  33.315  27.328   3.699
65661W        W37387  35.960   4.948   2.718
65662W        W37388  24.769  27.376   1.900
65663W        W37389  38.917  36.425   1.986
65664W        W37390  43.348   3.342  10.255
65665W        W37391  41.942  15.121   0.749
65666W        W37392  44.355  35.841  12.718
65667W        W37393  32.715  21.283  11.219
65668W        W37394  26.169  11.616   3.691
65669W        W37395   0.668  34.322  11.296
65670W        W37396   4.090  15.269  12.944
65671W        W37397  39.737   9.463   0.778
65672W        W37398   0.937  43.264  13.780
65673W        W37399  35.802  44.546  12.018
65674W        W37400  42.933  20.828  12.806
65675W        W37401  43.282  17.760  13.005
65676W        W37402   4.444   8.328   0.185
65677W        W37403  25.221  27.442  12.323
65678W        W37404  32.928  44.276   0.080
65679W        W37405  35.976  28.559   1.196
65680W        W37406  34.417   9.896   2.636
65681W        W37407  22.552  36.181  14.961
65682W        W37408  23.247  13.319  14.034
65683W        W37409   3.852  14.052   4.451
65684W        W37410  33.908  39.120   1.289
65685W        W37411  44.321  26.915   5.015
65686W        W37412  36.243  19.670   1.799
65687W        W37413  18.711  23.112   0.123
65688W        W37414  32.359  19.760  13.931
65689W        W37415   3.218  24.932  12.809
65690W        W37416  18.940  36.267  10.340
65691W        W37417  17.744  24.745  14.467
65692W        W37418   9.538  11.301  11.346
65693W        W37419  22.161   5.500   0.690
65694W        W37420   9.761   3.694  13.851
65695W        W37421  24.321   1.522  10.317
65696W        W37422  41.570  30.635  13.509
65697W        W37423  22.677  10.132  12.642
65698W        W37424   9.478  23.137  11.149
65699W        W37425  34.812  11.221  10.733
65700W        W37426   0.192  34.361   1.321
65701W        W37427   2.278   8.447  13.868
65702W        W37428  37.615  14.426   4.662
65703W        W37429  39.235  28.295  10.352
65704W        W37430   2.896  23.870   2.803
65705W        W37431  36.062   1.896   0.002
65706W        W37432   6.377  37.152   0.860
65707W        W37433  18.058   0.627   0.804
65708W        W37434  39.101  32.881   2.566
65709W        W37435   9.672  17.421  11.521
65710W        W37436  36.762   5.446  11.473
65711W        W37437  15.549   3.753  13.993
65712W        W37438  14.827  26.733   1.217
65713W        W37439   3.340  30.192  13.377
65714W        W37440  34.573   6.942   3.759
65715W        W37441  10.141  18.895   1.910
65716W        W37442  10.141  41.143   4.578
65717W        W37443  13.711  20.267  13.759
65718W        W37444  41.457   5.341   0.602
65719W        W37445  21.287  12.786   5.107
65720W        W37446  33.945  15.344   0.355
65721W        W37447  39.426  37.986   1.625
65722W        W37448  13.839   8.341  11.209
65723W        W37449  37.334  34.469  10.373
65724W        W37450  22.134  43.977   0.344
65725W        W37451  35.947   1.736  11.146
65726W        W37452  42.417  21.801   1.686
65727W        W37453  12.100  30.595  11.631
65728W        W37454  30.664  24.589  10.665
65729W        W37455  29.884  38.708  13.008
65730W        W37456  10.802   4.964  13.382
65731W        W37457  22.170   4.817  12.393
65732W        W37458  42.240  31.390   3.313
65733W        W37459  37.592  23.462  12.450
65734W        W37460  19.160  19.332   0.897
65735W        W37461  40.539  32.103  14.341
65736W        W37462  22.313  12.685  13.424
65737W        W37463  19.642  39.591   0.326
65738W        W37464  11.262  33.859   1.865
65739W        W37465  26.645  26.469  11.560
65740W        W37466  35.025  24.937  13.266
65741W        W37467   5.756  44.509   0.635
65742W        W37468  33.021  10.408  12.461
65743W        W37469   6.388  20.518   0.469
65744W        W37470  28.550   5.811   4.445
65745W        W37471   2.163  10.586  13.384
65746W        W37472  36.915   1.895  11.120
65747W        W37473  39.774  32.227  13.261
65748W        W37474  11.399   4.510  11.855
65749W        W37475  32.961  38.316  11.700
65750W        W37476  22.992  37.363  11.575
65751W        W37477  12.385   5.927  14.513
65752W        W37478   3.777  33.076   3.899
65753W        W37479   1.812   8.295  12.419
65754W        W37480  30.518  26.862   0.031
65755W        W37481  15.584  37.033   2.521
65756W        W37482  14.850  25.296   0.474
65757W        W37483  23.036  16.319   1.772
65758W        W37484   4.180  35.807  12.507
65759W        W37485  29.673  21.074   3.609
65760W        W37486  41.768  32.825  12.171
65761W        W37487  35.494  14.600   1.222
65762W        W37488   6.895  20.864   3.212
65763W        W37489  11.773  11.780   0.503
65764W        W37490  10.615  41.285   4.256
65765W        W37491  38.109   4.433   0.559
65766W        W37492  32.353  42.874  13.262
65767W        W37493   7.026  12.920  10.446
65768W        W37494  42.524   7.833  13.869
65769W        W37495  30.176  15.261  13.895
65770W        W37496  40.909  44.031   1.270
65771W        W37497  40.595  25.207  10.433
65772W        W37498  29.480  26.246  13.221
65773W        W37499  29.504  33.139   1.353
65774W        W37500  12.266  24.183  14.496
65775W        W37501  34.050  28.810   1.947
65776W        W37502   8.190  34.679   0.874
65777W        W37503  24.635  23.285   1.428
65778W        W37504   2.426  35.260  11.584
65779W        W37505  34.873  29.122   2.975
65780W        W37506  43.860  13.227  14.843
65781W        W37507  28.100  15.249   2.651
65782W        W37508  34.832  22.503  10.820
65783W        W37509  14.811  38.142  10.257
65784W        W37510  21.689  27.119  13.739
65785W        W37511  42.043   1.461  13.894
65786W        W37512  39.610  13.779   0.519
65787W        W37513  28.708   0.231  14.200
65788W        W37514  34.097  19.397  13.053
65789W        W37515   5.794  27.631  10.468
65790W        W37516  27.035  17.580   3.310
65791W        W37517  19.084  34.767  11.217
65792W        W37518  32.529  10.148   1.949
65793W        W37519  38.075  30.897  11.879
65794W        W37520  19.087  24.714  12.407
65795W        W37521  13.001  39.490  13.884
65796W        W37522   1.824  17.828   1.602
65797W        W37523  16.264  26.619   0.377
65798W        W37524  10.919  14.926  12.154
65799W        W37525   6.848  21.095   1.251
65800W        W37526  35.581  12.201   0.593
65801W        W37527  29.936  23.039  12.877
65802W        W37528  43.798  19.242  13.984
65803W        W37529  19.541  24.710  12.173
65804W        W37530   2.374  20.369   0.305
65805W        W37531   3.956  31.000   0.173
65806W        W37532  32.158  43.365  11.583
65807W        W37533   3.961  18.253  12.092
65808W        W37534   0.833  17.122   1.271
65809W        W37535  22.529  23.193   0.687
65810W        W37536   7.347  23.269   4.097
65811W        W37537  31.083  42.852  14.920
65812W        W37538   1.896  12.398  13.856
65813W        W37539   9.800  22.970  13.977
65814W        W37540  35.942  41.324   3.804
65815W        W37541  12.322  30.191  14.278
65816W        W37542   0.130   7.440  10.859
65817W        W37543   3.321  27.488  11.164
65818W        W37544   6.303  13.244   9.803
65819W        W37545  41.504   9.208   2.243
65820W        W37546  32.092   2.914  10.603
65821W        W37547  24.264  31.867  13.638
65822W        W37548  32.184   0.402  14.898
65823W        W37549  18.026  14.219  12.059
65824W        W37550  20.087  33.418  14.824
65825W        W37551  15.743  20.032  13.140
65826W        W37552   7.419   8.398  13.596
65827W        W37553  23.253   2.854  14.742
65828W        W37554  40.792  41.456  13.060
65829W        W37555  36.299  19.714  10.688
65830W        W37556  30.561  32.139   3.086
65831W        W37557  39.802  14.062  13.309
65832W        W37558   1.382  32.032   4.642
65833W        W37559  36.120  18.817  10.746
65834W        W37560   6.972  25.210   3.201
65835W        W37561   2.982   1.581  12.454
65836W        W37562  12.235  41.905  14.824
65837W        W37563  15.099  14.298   0.256
65838W        W37564  32.481  43.026   3.217
65839W        W37565  28.224  29.007   2.428
65840W        W37566  32.922   9.206  13.996
65841W        W37567   3.934  28.570   2.426
65842W        W37568   1.251  20.139  11.025
65843W        W37569   1.397   6.956   1.957
65844W        W37570   6.913  31.885  14.376
65845W        W37571  13.693   2.918   2.420
65846W        W37572   7.938  35.433   4.078
65847W        W37573  42.291  12.709   2.783
65848W        W37574  37.115  17.012   0.132
65849W        W37575  28.919  19.449  11.065
65850W        W37576  36.317  32.696   2.322
65851W        W37577   3.919   1.922   3.284
65852W        W37578  42.155  35.305   0.952
65853W        W37579  39.023   0.291   0.477
65854W        W37580  30.166  41.085  14.009
65855W        W37581  21.586  18.256  13.029
65856W        W37582  18.422  41.274   5.240
65857W        W37583  34.383  42.621  11.547
65858W        W37584  13.133  32.811  13.809
65859W        W37585  36.521  20.959  13.394
65860W        W37586  24.730  10.677   3.431
65861W        W37587  20.614   7.748   0.255
65862W        W37588  33.489  11.155  10.855
65863W        W37589  19.653  18.839  13.367
65864W        W37590  29.997  11.795  11.081
65865W        W37591  28.491  41.026  13.000
65866W        W37592  37.959  42.885  12.562
65867W        W37593   0.201  21.800  13.436
65868W        W37594  32.913  42.404   1.805
65869W        W37595   8.813  41.399   4.203
65870W        W37596  31.919  19.296   0.329
65871W        W37597  20.969  33.026  14.435
65872W        W37598  14.952  29.422   1.430
65873W        W37599  36.256  35.866  10.911
65874W        W37600   2.924  40.549   4.122
65875W        W37601  33.878  21.305   3.237
65876W        W37602  28.223  19.758  11.473
65877W        W37603  25.902  26.109   4.447
65878W        W37604  40.030   6.533   2.745
65879W        W37605  34.008  28.558   2.405
65880W        W37606   3.255  20.141   4.037
65881W        W37607  18.220   0.416   2.909
65882W        W37608  25.723   9.460  11.068
65883W        W37609  26.406  16.043   2.199
65884W        W37610  15.393  32.143  12.883
65885W        W37611  12.534   1.761   2.681
65886W        W37612   2.419  29.430   0.413
65887W        W37613  42.832  19.836  12.983
65888W        W37614  21.109   6.144  14.382
65889W        W37615  39.529  12.385  12.977
65890W        W37616   6.795  26.322   1.359
65891W        W37617  16.684  12.261  12.012
65892W        W37618  26.577  41.827  13.495
65893W        W37619  42.538  41.086  14.471
65894W        W37620  19.290  29.984   0.891
65895W        W37621   1.546   5.699  13.991
65896W        W37622  14.526  26.516  12.865
65897W        W37623  11.083  25.572  14.807
65898W        W37624  22.804   4.281  13.065
65899W        W37625  17.785  31.089  14.789
65900W        W37626   7.126  34.071   4.179
65901W        W37627   1.750  39.551  13.725
65902W        W37628  19.670  15.342   0.843
65903W        W37629  18.436  40.993  12.888
65904W        W37630  26.974  14.168   4.634
65905W        W37631  30.441  39.816   0.455
65906W        W37632   8.707   6.752  14.280
65907W        W37633   2.801  31.435   4.537
65908W        W37634  33.534   0.692  13.427
65909W        W37635  29.077   6.672   0.766
65910W        W37636  25.451  13.092  10.783
65911W        W37637  34.967  33.660  13.953
65912W        W37638  39.949  30.746   4.946
65913W        W37639  16.142   4.737   3.858
65914W        W37640   9.210  41.253  14.380
65915W        W37641   3.719   3.528  12.374
65916W        W37642   5.667  12.073  12.322
65917W        W37643  28.019  35.410   3.621
65918W        W37644  18.282  16.713  11.626
65919W        W37645  31.344  12.466  10.243
65920W        W37646   8.543  40.750  13.955
65921W        W37647  39.438  23.046  12.499
65922W        W37648  22.538  18.492   4.674
65923W        W37649   5.704  14.079   3.929
65924W        W37650   1.231  42.630   0.387
65925W        W37651  25.266  19.615  13.035
65926W        W37652   6.163  36.270   0.576
65927W        W37653  17.566  15.637   0.940
65928W        W37654  42.102   2.766   3.149
65929W        W37655   3.009  12.284  13.030
65930W        W37656  23.632   4.320  12.423
65931W        W37657  39.441  43.289   4.583
65932W        W37658  27.786  22.680  12.302
65933W        W37659   2.469  21.658   2.379
65934W        W37660   4.384   9.286   0.902
65935W        W37661  26.505  18.190   2.732
65936W        W37662  22.673  20.036   1.307
65937W        W37663  11.274  10.800  11.269
65938W        W37664  32.500  34.882  11.776
65939W        W37665  44.571  33.523  14.969
65940W        W37666  44.225  37.806  13.078
65941W        W37667  32.128  42.880   1.781
65942W        W37668  34.505  37.140  12.919
65943W        W37669  37.761  34.473  14.881
65944W        W37670  41.409  19.203  11.592
65945W        W37671  41.549  24.158   1.694
65946W        W37672  14.244  41.799   0.998
65947W        W37673  37.532  13.662  13.428
65948W        W37674   9.877  35.942   1.097
65949W        W37675  30.776  36.530  12.538
65950W        W37676  27.331  42.360  11.147
65951W        W37677  44.981  18.553  13.925
65952W        W37678   7.177  20.951   2.789
65953W        W37679   3.434  38.425  14.968
65954W        W37680  14.693  12.702   1.306
65955W        W37681   4.233  42.024   4.475
65956W        W37682  38.786  18.012   3.316
65957W        W37683  28.957  41.884  13.000
65958W        W37684  16.668  15.870   2.312
65959W        W37685   4.840  43.069  11.541
65960W        W37686   8.316   2.025   0.471
65961W        W37687  43.595  18.524   3.288
65962W        W37688   9.729  39.911   3.594
65963W        W37689  37.107  10.882  11.178
65964W        W37690  12.711  31.572  12.485
65965W        W37691   3.139  29.756   1.004
65966W        W37692   4.705  11.445  11.586
65967W        W37693   1.251  10.060   0.293
65968W        W37694  11.633   7.238  10.609
65969W        W37695  32.163  33.215   0.165
65970W        W37696  26.704   0.320  12.953
65971W        W37697  40.020   9.755  12.584
65972W        W37698  42.244  24.621  14.590
65973W        W37699  35.050  36.882   3.695
65974W        W37700  19.045  22.348   0.439
65975W        W37701  16.007   4.349  12.468
65976W        W37702  17.096  23.318   4.049
65977W        W37703  42.684  26.164  12.027
65978W        W37704  23.141  18.243   0.489
65979W        W37705  29.705   5.917   1.198
65980W        W37706  34.303  13.916  12.077
65981W        W37707  15.823  30.649  13.564
65982W        W37708  29.061  30.005  14.061
65983W        W37709   1.409  38.327  13.676
65984W        W37710  20.492  20.853  13.777
65985W        W37711  28.567   2.201   3.836
65986W        W37712  23.148   2.963  11.230
65987W        W37713   6.912  19.785  12.932
65988W        W37714  16.232  23.659   4.107
65989W        W37715   2.676  30.770   0.962
65990W        W37716   6.450  39.825   3.068
65991W        W37717  36.868  42.084  14.410
65992W        W37718  22.424  20.587  14.990
65993W        W37719  23.578  31.047   1.437
65994W        W37720   0.373   2.331  14.460
65995W        W37721  15.761  37.773   3.879
65996W        W37722   0.254  36.685  14.023
65997W        W37723  12.104   5.690   4.584
65998W        W37724  14.077  13.133  12.442
65999W        W37725  21.221  28.686  14.334
66000W        W37726  43.667   3.848   3.644
66001W        W37727  41.675  31.134  14.361
66002W        W37728  21.771  25.641  12.387
66003W        W37729   1.421  37.798  11.094
66004W        W37730  13.313   6.378   4.761
66005W        W37731  11.370  39.769  11.565
66006W        W37732  41.038  38.581  14.148
66007W        W37733   4.686  19.572   2.348
66008W        W37734   2.802   3.837   3.268
66009W        W37735  27.964  27.040  11.201
66010W        W37736  42.839  25.020   4.044
66011W        W37737  29.477  11.206   4.547
66012W        W37738   8.888  24.663  14.273
66013W        W37739  44.242  19.099   0.853
66014W        W37740  21.161  33.473   4.637
66015W        W37741  34.871  34.910  12.711
66016W        W37742  17.061  18.144   0.243
66017W        W37743  44.449  17.039  10.847
66018W        W37744   2.970  21.222   1.316
66019W        W37745   8.252  18.312  11.694
66020W        W37746   9.506  29.584  13.926
66021W        W37747  10.830  31.454  13.575
66022W        W37748  22.899  42.700  14.702
66023W        W37749  18.635  12.193  14.036
66024W        W37750  17.829   4.415  12.790
66025W        W37751  33.154  34.094  11.995
66026W        W37752  22.720  34.959   0.961
66027W        W37753  36.984  37.807   0.787
66028W        W37754  17.756  16.525   0.080
66029W        W37755  22.216  22.048  14.353
66030W        W37756  17.050  15.341  13.464
66031W        W37757  18.282   8.616  10.661
66032W        W37758  39.162  12.456   2.700
66033W        W37759  30.028  44.510  10.439
66034W        W37760  41.512  10.923  12.547
66035W        W37761   9.717  22.909   1.203
66036W        W37762  12.342  31.912   3.358
66037W        W37763   4.490  35.998   2.784
66038W        W37764  27.383  22.088   4.196
66039W        W37765  31.637   8.718  12.546
66040W        W37766  26.843  43.581  14.685
66041W        W37767  16.213  17.648   4.832
66042W        W37768  27.921  38.646   1.613
66043W        W37769  28.062  40.764  11.165
66044W        W37770   6.867  38.680   0.341
66045W        W37771  37.404  37.454  13.824
66046W        W37772  24.064  19.714  10.643
66047W        W37773  17.041  38.019  11.440
66048W        W37774  10.407  10.414  12.416
66049W        W37775  26.544  40.351  13.385
66050W        W37776  18.581  33.635  13.503
66051W        W37777  32.765  14.822  13.438
66052W        W37778  35.643  42.826   1.694
66053W        W37779  18.850  21.098   3.741
66054W        W37780  31.224   5.168   3.662
66055W        W37781   6.144  10.265  13.390
66056W        W37782  14.962   2.144   0.681
66057W        W37783  27.140  41.769   3.122
66058W        W37784   0.950  27.499   4.774
66059W        W37785  11.589  37.344   4.523
66060W        W37786  14.065   1.940  13.996
66061W        W37787  11.752   7.233   1.782
66062W        W37788   3.410   0.408  10.646
66063W        W37789  11.324  23.249  12.988
66064W        W37790  22.802  11.459   0.377
66065W        W37791  41.403   8.931  14.319
66066W        W37792  14.363   8.289  14.046
66067W        W37793   2.406   3.250  11.304
66068W        W37794  28.035  21.398   4.595
66069W        W37795  38.076  10.102   4.242
66070W        W37796  15.115  24.468   0.833
66071W        W37797   8.913   2.884  11.942
66072W        W37798  10.767  41.281   3.318
66073W        W37799   4.237  41.574  14.890
66074W        W37800  18.669  15.243  11.134
66075W        W37801  43.976   0.274  13.830
66076W        W37802   2.820  36.637   1.361
66077W        W37803   3.839  36.286  10.780
66078W        W37804  31.633  42.068  11.119
66079W        W37805  14.770   2.971   0.939
66080W        W37806  15.832  37.189   5.210
66081W        W37807  34.034   7.335   4.162
66082W        W37808   6.537   6.914  12.086
66083W        W37809  31.356   2.181  13.288
66084W        W37810   5.760  20.308   3.405
66085W        W37811  39.361  25.444  14.223
66086W        W37812  39.922  43.739  13.431
66087W        W37813  43.979  31.801   4.681
66088W        W37814  14.192  29.576  14.915
66089W        W37815  20.737  23.249  13.962
66090W        W37816  35.835  28.977   3.471
66091W        W37817  19.790  17.127  10.691
66092W        W37818   4.119  23.095  11.672
66093W        W37819  25.878  19.078   1.218
66094W        W37820  15.120  29.486   4.249
66095W        W37821  24.612  11.649  13.537
66096W        W37822  28.025  18.220  14.032
66097W        W37823   4.800  42.976  12.046
66098W        W37824  14.115  41.937   0.021
66099W        W37825  33.013  24.483   3.694
66100W        W37826  23.947   1.176  12.920
66101W        W37827  28.512  16.522   2.359
66102W        W37828  27.567   8.720  11.817
66103W        W37829  35.347  11.832  13.795
66104W        W37830   5.319  38.051   1.498
66105W        W37831   9.224  15.675  11.295
66106W        W37832  18.266  44.463  14.268
66107W        W37833  30.417  15.765   0.250
66108W        W37834   3.295   6.884  11.569
66109W        W37835  18.565  31.486  12.153
66110W        W37836  36.531   3.227   4.550
66111W        W37837  30.362  43.810   4.590
66112W        W37838  14.058  11.508   3.197
66113W        W37839   9.636  14.744  14.605
66114W        W37840  32.383  18.470  13.544
66115W        W37841  36.049  25.980   2.698
66116W        W37842  10.228  26.408  14.346
66117W        W37843   7.739  41.577  12.091
66118W        W37844   8.565  22.441  13.819
66119W        W37845  27.174  16.215  11.212
66120W        W37846  33.029  43.364   0.400
66121W        W37847  29.409  36.671  12.608
66122W        W37848  32.561   5.907   2.381
66123W        W37849   5.620  41.555   3.182
66124W        W37850  24.312  29.674  13.422
66125W        W37851  42.470  33.209  12.853
66126W        W37852  42.800  20.581  13.401
66127W        W37853  12.108   1.149   1.848
66128W        W37854  17.385  42.038  14.066
66129W        W37855  29.805  27.318   4.258
66130W        W37856  29.733  39.769  12.314
66131W        W37857  30.080  11.353  13.286
66132W        W37858   4.753  37.485   1.974
66133W        W37859   9.382  27.688  10.390
66134W        W37860  17.993  31.906   3.752
66135W        W37861  18.123  26.526   4.153
66136W        W37862  32.342   1.470   4.580
66137W        W37863  12.816  32.984  13.441
66138W        W37864  40.101   5.494   3.622
66139W        W37865  27.695  29.435  11.080
66140W        W37866  26.363  16.356  10.628
66141W        W37867   4.831  40.344  13.972
66142W        W37868  24.452   9.027  11.630
66143W        W37869  24.224  14.822  13.857
66144W        W37870  18.392  44.093   4.103
66145W        W37871  14.562   5.315  11.833
66146W        W37872   9.101  39.249  14.438
66147W        W37873  24.496   8.252   1.105
66148W        W37874  26.878  39.977   3.643
66149W        W37875  28.587  16.669  12.572
66150W        W37876  41.069   5.083   0.386
66151W        W37877  43.573  12.168  14.546
66152W        W37878  19.309   8.721  13.118
66153W        W37879  43.508  36.520  11.601
66154W        W37880  28.443  17.565  12.436
66155W        W37881   5.221  10.375   4.320
66156W        W37882   9.212  32.922   4.101
66157W        W37883   0.821  12.802  10.575
66158W        W37884  10.647  27.652  13.133
66159W        W37885   5.578  18.522  14.326
66160W        W37886  21.772  43.279   3.722
66161W        W37887  28.393   9.116   4.616
66162W        W37888  30.585  14.806   3.924
66163W        W37889  32.186   2.742  11.915
66164W        W37890  30.426  42.815  14.370
66165W        W37891  31.642  25.550  13.965
66166W        W37892  15.554  26.347  10.257
66167W        W37893  36.797   1.629   3.305
66168W        W37894  31.480  16.259  10.679
66169W        W37895  24.684  12.268   1.946
66170W        W37896  33.567  29.499   4.160
66171W        W37897  29.942  14.609   0.989
66172W        W37898  34.017  38.374   3.714
66173W        W37899  16.192  36.633  12.931
66174W        W37900  38.634  37.033   0.487
66175W        W37901  31.966   6.685  13.845
66176W        W37902   3.086  15.418  12.932
66177W        W37903  23.538  36.629  12.111
66178W        W37904  30.220  34.981  13.006
66179W        W37905  39.826  37.931   0.512
66180W        W37906  22.113  12.793  12.030
66181W        W37907  12.292   5.688   0.959
66182W        W37908  43.363  16.199  11.189
66183W        W37909  24.214  34.361  13.451
66184W        W37910  22.463  34.332  12.947
66185W        W37911  32.622  23.969  14.755
66186W        W37912   0.358  38.049  11.079
66187W        W37913  20.508  10.361   1.189
66188W        W37914  38.409   4.442   4.415
66189W        W37915  35.415  43.802  14.552
66190W        W37916  16.304  42.910   0.509
66191W        W37917  38.944   6.269  14.670
66192W        W37918  15.252  37.838  10.166
66193W        W37919  34.432  35.950   4.922
66194W        W37920  11.650  28.168  13.786
66195W        W37921   8.378   0.834   3.801
66196W        W37922  42.068  31.533  14.012
66197W        W37923  40.032  43.300  14.565
66198W        W37924  28.156  30.892   3.697
66199W        W37925   4.473  14.272   5.042
66200W        W37926  28.647   0.706   1.650
66201W        W37927  44.588  36.633  10.808
66202W        W37928  30.214   6.230   0.674
66203W        W37929  22.704   8.817   1.736
66204W        W37930  12.566  38.574   3.591
66205W        W37931   4.411  22.749   0.512
66206W        W37932  16.715  31.870   2.411
66207W        W37933  39.464   1.811   1.437
66208W        W37934  35.977  36.529   2.895
66209W        W37935  31.415  21.647  11.301
66210W        W37936  10.069  13.733  10.719
66211W        W37937  10.237  28.343  13.396
66212W        W37938  34.041  35.071   2.724
66213W        W37939  40.462  36.405   2.257
66214W        W37940  42.277  38.890  10.617
66215W        W37941  43.355  28.502  10.706
66216W        W37942  44.512  24.528  13.799
66217W        W37943   4.443   6.997  12.945
66218W        W37944  33.138   5.993  12.706
66219W        W37945  32.347  20.509  11.663
66220W        W37946  44.847   3.530  14.385
66221W        W37947  37.632  31.060  13.579
66222W        W37948  19.578  36.213  12.126
66223W        W37949  39.730   7.178  14.364
66224W        W37950   4.283  40.282   4.344
66225W        W37951  29.099  10.296  10.640
66226W        W37952  22.565  13.017  11.122
66227W        W37953  24.505  38.271   4.850
66228W        W37954   9.150  38.744   3.722
66229W        W37955  23.766  37.756   3.283
66230W        W37956  30.854   9.784  13.806
66231W        W37957   9.602  28.584   0.522
66232W        W37958  23.171  12.156   0.796
66233W        W37959  17.161  42.234   4.263
66234W        W37960  34.200  18.398   2.180
66235W        W37961  16.730  20.945  12.028
66236W        W37962  30.737  14.812  13.549
66237W        W37963  22.672   3.027  10.481
66238W        W37964   6.204  40.258   3.104
66239W        W37965  13.703   5.493  14.063
66240W        W37966  35.872   7.758   1.956
66241W        W37967  23.201   1.946   2.705
66242W        W37968  21.510   1.519   0.481
66243W        W37969   8.837   0.869   4.034
66244W        W37970  22.305  24.106  13.851
66245W        W37971  11.773   4.381  12.274
66246W        W37972  36.459   0.490  13.042
66247W        W37973  42.347  29.830   4.642
66248W        W37974  27.982  29.502  14.573
66249W        W37975  40.801  42.336  11.498
66250W        W37976   2.945  11.291   3.840
66251W        W37977   7.064   3.426   2.706
66252W        W37978  30.669  30.893   2.396
66253W        W37979  28.965  17.707  14.817
66254W        W37980  38.925  14.868   3.105
66255W        W37981  18.639  20.774   3.120
66256W        W37982  36.474  32.995  14.320
66257W        W37983  35.789   9.894   0.280
66258W        W37984  21.036   3.273  14.030
66259W        W37985  33.695  21.619  13.508
66260W        W37986   7.557  14.293  11.976
66261W        W37987  10.196  15.725   3.895
66262W        W37988  17.448  39.045   3.774
66263W        W37989  25.439  34.671   3.317
66264W        W37990  38.375  35.804   2.353
66265W        W37991  36.688  35.459  12.498
66266W        W37992  14.259  40.347  13.382
66267W        W37993  24.973  22.543  11.000
66268W        W37994  23.168  21.486   2.719
66269W        W37995  19.670  20.083   1.272
66270W        W37996  12.255  10.151   2.525
66271W        W37997  26.034   4.945  12.021
66272W        W37998  39.701  28.107   0.326
66273W        W37999  11.523  19.305   3.588
66274W        W38000   4.476  35.037  14.366
66275W        W38001  30.845  22.268   2.034
66276W        W38002  39.877  33.040   3.207
66277W        W38003  14.341  21.416  14.835
66278W        W38004  26.560  31.007   2.927
66279W        W38005  35.690   6.302   2.564
66280W        W38006   7.188  20.821  13.392
66281W        W38007   5.981  30.041   3.200
66282W        W38008   5.231  34.171  12.539
66283W        W38009  44.656  22.152   2.056
66284W        W38010  28.655  25.650  10.716
66285W        W38011  15.526   2.727  12.068
66286W        W38012  16.112  37.371  11.125
66287W        W38013  27.583  16.707  14.009
66288W        W38014  35.128  43.088   4.692
66289W        W38015   6.955   9.767   0.204
66290W        W38016  15.695  32.532   2.222
66291W        W38017  43.614   8.854  12.777
66292W        W38018  28.139   9.339  11.265
66293W        W38019  34.877  14.258   3.659
66294W        W38020  34.952  29.048   1.960
66295W        W38021  28.632   0.678  12.052
66296W        W38022   1.502  27.040  11.341
66297W        W38023  29.305  18.843   4.072
66298W        W38024  10.216  10.334  14.772
66299W        W38025   2.886  29.617   2.893
66300W        W38026  10.833  11.000   2.737
66301W        W38027   9.380  17.865   0.073
66302W        W38028   6.162   9.270  10.923
66303W        W38029  44.937  41.853  14.259
66304W        W38030  42.889  12.610  11.049
66305W        W38031   0.192  26.609   3.543
66306W        W38032   5.952  12.546   1.451
66307W        W38033  31.204  36.520   4.436
66308W        W38034   4.831  24.212  12.814
66309W        W38035  18.121   3.131   4.678
66310W        W38036   6.372  24.002   0.680
66311W        W38037  32.560  24.147   1.329
66312W        W38038  13.774  34.250   1.844
66313W        W38039  17.593  12.079  10.748
66314W        W38040  39.549  39.723  12.047
66315W        W38041  42.820   9.144   4.567
66316W        W38042  21.090  35.944   2.789
66317W        W38043  23.482  15.727   4.168
66318W        W38044  40.380  37.104   1.982
66319W        W38045  24.181  32.049   0.145
66320W        W38046   0.436  18.240   3.523
66321W        W38047  27.704  21.436  14.093
66322W        W38048  36.375   2.504  14.488
66323W        W38049   4.223  29.033  12.560
66324W        W38050  32.377   1.706   0.675
66325W        W38051  44.429  19.183   2.367
66326W        W38052  12.656  35.834  10.540
66327W        W38053   8.382   9.663   4.581
66328W        W38054  35.997   3.987   4.711
66329W        W38055   5.522  15.504   1.029
66330W        W38056  30.128   2.400   0.775
66331W        W38057  37.128  12.817  11.018
66332W        W38058   3.205   3.922   4.144
66333W        W38059   2.071   0.837   3.637
66334W        W38060  28.131  19.267   1.825
66335W        W38061  18.326   9.130  12.520
66336W        W38062   7.573  39.522   1.528
66337W        W38063  21.719  16.646  14.009
66338W        W38064  36.018  36.350   2.400
66339W        W38065   8.691  12.977   1.672
66340W        W38066  11.598   0.679  10.124
66341W        W38067  32.327  39.334  13.874
66342W        W38068  36.741  29.970   3.843
66343W        W38069  18.616  34.980   2.856
66344W        W38070   4.691   5.557   9.604
66345W        W38071  19.772  10.432   2.675
66346W        W38072  43.507  19.364  12.477
66347W        W38073  39.142  37.644   1.279
66348W        W38074   0.278  10.913   4.131
66349W        W38075  40.563   6.990   3.783
66350W        W38076  22.213  43.790   2.108
66351W        W38077  20.461  39.059   4.942
66352W        W38078  14.838  11.115  11.208
66353W        W38079  23.101  12.127   1.865
66354W        W38080  35.503  35.393  14.883
66355W        W38081   4.618  25.677  14.531
66356W        W38082  29.195   7.318   3.182
66357W        W38083  14.884  32.114  12.811
66358W        W38084   5.417  34.366  11.548
66359W        W38085  44.859   6.850   1.603
66360W        W38086  43.737  29.306  11.689
66361W        W38087  43.934  25.247  10.651
66362W        W38088  27.077   1.348   0.448
66363W        W38089  43.741  24.368  12.945
66364W        W38090  39.611  18.836   0.482
66365W        W38091   7.902   5.270   1.988
66366W        W38092  15.244  16.876  12.871
66367W        W38093   9.630   6.840  13.869
66368W        W38094  44.022  36.102   2.429
66369W        W38095   8.865  17.535   4.782
66370W        W38096  10.899  15.817   3.670
66371W        W38097   2.803  33.954   1.422
66372W        W38098  24.063   0.910   5.278
66373W        W38099   4.034   6.920  10.932
66374W        W38100  24.663  35.596  11.845
66375W        W38101  42.942  27.926  11.883
66376W        W38102  11.233   7.251  13.147
66377W        W38103   6.508  34.544   4.688
66378W        W38104   4.118  22.566   4.398
66379W        W38105  19.639   2.325   3.201
66380W        W38106  24.674  41.754  14.944
66381W        W38107  21.903  18.353   2.733
66382W        W38108  15.519  32.930   3.360
66383W        W38109   2.885  18.243  14.916
66384W        W38110  13.297  10.983  13.224
66385W        W38111  21.852  27.884   4.737
66386W        W38112  24.612  38.758   3.731
66387W        W38113  34.833   5.167   3.166
66388W        W38114  20.150   3.200  11.590
66389W        W38115  20.451  42.823  14.618
66390W        W38116  35.128  26.442  13.604
66391W        W38117  36.138  16.044   2.780
66392W        W38118   4.792  30.163  14.245
66393W        W38119  38.333  12.244   1.399
66394W        W38120  16.308  44.950   4.547
66395W        W38121  16.729   6.788   1.412
66396W        W38122  10.939  35.126  13.576
66397W        W38123  30.566  20.190   5.122
66398W        W38124  31.543  21.786   0.229
66399W        W38125  33.469  42.074   3.261
66400W        W38126  25.534   4.707  12.620
66401W        W38127  21.613   2.712  14.820
66402W        W38128  33.446  22.093  13.394
66403W        W38129  19.497   8.224   1.964
66404W        W38130  42.587  42.041   1.729
66405W        W38131   1.812  39.485   1.242
66406W        W38132  21.288  12.631  12.484
66407W        W38133  23.187   0.812   0.320
66408W        W38134   8.789  10.297   2.333
66409W        W38135   1.695   3.808  12.465
66410W        W38136  35.423   8.349   4.602
66411W        W38137  13.982  33.143   0.309
66412W        W38138   9.265  29.149   2.408
66413W        W38139  31.974   1.381   2.715
66414W        W38140  43.179  25.068   3.646
66415W        W38141  14.224  26.605   1.844
66416W        W38142  27.116  33.484  14.259
66417W        W38143   1.341  22.204  14.815
66418W        W38144  29.502  23.525  11.414
66419W        W38145  32.429  34.215  14.776
66420W        W38146   0.676   0.154  14.797
66421W        W38147  32.766  43.008  13.560
66422W        W38148  24.167   5.850   4.470
66423W        W38149  20.621  12.159   4.671
66424W        W38150  29.156  26.297  14.814
66425W        W38151  44.116  26.933  10.927
66426W        W38152  25.071  11.819   5.029
66427W        W38153  33.532  30.176  11.423
66428W        W38154  36.083  10.693  13.857
66429W        W38155  41.567  23.021  12.211
66430W        W38156   1.352  20.690  12.994
66431W        W38157   9.853  27.229   0.830
66432W        W38158  39.974   4.359  14.448
66433W        W38159  13.775   6.115  14.862
66434W        W38160  11.142   8.369   2.204
66435W        W38161  22.677  33.182   3.167
66436W        W38162  41.843  20.688   1.452
66437W        W38163  34.559  44.972  13.048
66438W        W38164  18.741  16.510  10.239
66439W        W38165  10.852  12.792  11.089
66440W        W38166   3.732  24.934  12.922
66441W        W38167   2.496  34.143   2.414
66442W        W38168  43.853  22.171   0.897
66443W        W38169   1.369  12.212  14.864
66444W        W38170  40.885  39.857   3.164
66445W        W38171  40.496  15.452  11.029
66446W        W38172  23.558  22.136  14.537
66447W        W38173  10.035  16.602  11.399
66448W        W38174   3.297  19.934   3.086
66449W        W38175  20.296  35.485   3.140
66450W        W38176  33.965  25.337  12.892
66451W        W38177  28.123  33.083  12.979
66452W        W38178  29.719   9.792  13.358
66453W        W38179  31.070  34.940   4.642
66454W        W38180  34.578  17.301  12.534
66455W        W38181  37.106  32.305  13.922
66456W        W38182  39.129  29.248  11.564
66457W        W38183   9.346  40.450   2.238
66458W        W38184   3.739  17.659  10.806
66459W        W38185  10.894  33.192   4.626
66460W        W38186  17.724  32.147   3.357
66461W        W38187  15.648  20.065   3.128
66462W        W38188  38.883  18.861  13.548
66463W        W38189  16.648  30.872  12.526
66464W        W38190  19.651   7.408   2.164
66465W        W38191  12.005   8.592   4.206
66466W        W38192   7.353   4.192   0.187
66467W        W38193  19.733  13.103  10.689
66468W        W38194  17.813  43.969  12.709
66469W        W38195  25.446  15.902   2.410
66470W        W38196  26.047  41.933   2.618
66471W        W38197  25.376  20.028   1.902
66472W        W38198  42.036  42.823  12.790
66473W        W38199   2.189  16.413   2.130
66474W        W38200  17.070  42.638  13.324
66475W        W38201  42.421  37.893   1.398
66476W        W38202  25.033   9.535   1.924
66477W        W38203  13.391  28.536   2.348
66478W        W38204  23.025  30.332   0.282
66479W        W38205   1.027  22.389   4.202
66480W        W38206  18.147  41.076   4.378
66481W        W38207  10.265  19.444  11.022
66482W        W38208  17.109  11.201  11.010
66483W        W38209  10.288   9.969  13.421
66484W        W38210   7.222  14.271   0.883
66485W        W38211  44.300  27.555  14.756
66486W        W38212  42.600  33.468  14.795
66487W        W38213  10.327  20.498  14.370
66488W        W38214   9.305  15.351  14.135
66489W        W38215   7.206   0.715  12.488
66490W        W38216  18.254  17.478  12.299
66491W        W38217  18.241  33.825   1.971
66492W        W38218   4.164  35.829   1.292
66493W        W38219  14.635  25.549  14.553
66494W        W38220   4.053  27.216  13.600
66495W        W38221  29.028  40.313  14.390
66496W        W38222  24.902  14.586  11.105
66497W        W38223  30.079   9.095   3.284
66498W        W38224  31.173  28.998  11.539
66499W        W38225  14.104  14.823  12.999
66500W        W38226  42.303  10.261   0.071
66501W        W38227  25.204  28.531  11.565
66502W        W38228  25.175  22.412  11.957
66503W        W38229  27.520  41.471   4.164
66504W        W38230  34.865   4.779   0.851
66505W        W38231  36.336  32.058  13.330
66506W        W38232  44.927  29.026   2.828
66507W        W38233   3.954  39.095   1.138
66508W        W38234  27.983  38.000   2.153
66509W        W38235  22.501  25.212   1.267
66510W        W38236   4.448   6.849  10.522
66511W        W38237  34.993  13.753   3.739
66512W        W38238  17.369  44.290   1.862
66513W        W38239   3.913  23.527  12.555
66514W        W38240   1.697   5.356   0.444
66515W        W38241  31.951  27.225  13.976
66516W        W38242   4.953  17.090  13.305
66517W        W38243  26.077  36.406   4.157
66518W        W38244  10.197  12.561   4.838
66519W        W38245  20.841  14.876   1.459
66520W        W38246   3.159  12.482   1.275
66521W        W38247   9.893  26.012  12.355
66522W        W38248  39.898  11.327  11.655
66523W        W38249  44.030   1.258   0.779
66524W        W38250  21.512   8.006   0.298
66525W        W38251  15.884  21.546   3.030
66526W        W38252  44.326   6.642   4.538
66527W        W38253  31.520  37.332  12.021
66528W        W38254  23.166   1.874  13.820
66529W        W38255  31.161  22.470   2.802
66530W        W38256  28.988  21.239   4.582
66531W        W38257  27.027  30.220  14.572
66532W        W38258  13.055  24.540  14.047
66533W        W38259  17.864  35.980   0.927
66534W        W38260   5.983  40.058   4.319
66535W        W38261   0.900  21.716   0.520
66536W        W38262   3.379  34.854  11.660
66537W        W38263  40.286  34.897  14.277
66538W        W38264  16.815  13.588   3.244
66539W        W38265  21.201  19.437   0.219
66540W        W38266   6.419  44.401  12.819
66541W        W38267  24.338  14.340   4.926
66542W        W38268  16.159  17.916   0.306
66543W        W38269  11.080  13.568  10.700
66544W        W38270   9.131  39.902  12.972
66545W        W38271   5.800  10.889  12.031
66546W        W38272  12.099   9.393  13.430
66547W        W38273  25.413  32.179   0.505
66548W        W38274  12.648  14.046   4.113
66549W        W38275  31.370  44.898  12.049
66550W        W38276  18.232  35.889   3.781
66551W        W38277  33.620  35.660   4.108
66552W        W38278  37.924  23.554  11.600
66553W        W38279   7.493  13.095   3.235
66554W        W38280   6.311   8.725   0.614
66555W        W38281  15.575  44.921   1.395
66556W        W38282  15.283  27.023  12.712
66557W        W38283  16.674  12.319   3.742
66558W        W38284  39.366  22.499   2.371
66559W        W38285  18.891  42.113  11.101
66560W        W38286  19.568  29.549  11.602
66561W        W38287  43.049  34.660   3.163
66562W        W38288  24.077  44.246   2.006
66563W        W38289  18.825  12.653   4.007
66564W        W38290  12.923  38.307   2.448
66565W        W38291  41.973   0.613   3.352
66566W        W38292   3.230  23.619   3.201
66567W        W38293  19.267  32.711   1.973
66568W        W38294  13.083  36.616  12.531
66569W        W38295  32.538  30.328   4.803
66570W        W38296  23.507  14.912  10.595
66571W        W38297  17.214  44.466  11.511
66572W        W38298   8.466  19.289  11.708
66573W        W38299  12.786  23.012   2.848
66574W        W38300   7.915  26.790  12.774
66575W        W38301   1.919  41.664  12.920
66576W        W38302   5.668  42.257  10.460
66577W        W38303  36.328  37.882  13.407
66578W        W38304  32.545  27.148   0.901
66579W        W38305  12.825  21.682   4.872
66580W        W38306  12.011  27.611   0.077
66581W        W38307  19.576  23.284   2.843
66582W        W38308  34.495  31.593   4.185
66583W        W38309  17.315  10.370  13.664
66584W        W38310  26.649  26.502  10.642
66585W        W38311  29.916  15.113   3.199
66586W        W38312  10.257   8.065   1.769
66587W        W38313  14.588  36.128   4.693
66588W        W38314  41.575   7.545  11.414
66589W        W38315  33.572   8.297   1.773
66590W        W38316   2.696   5.851  10.509
66591W        W38317   0.233  40.904  14.956
66592W        W38318   1.909  44.697   3.481
66593W        W38319   3.286  14.566   0.791
66594W        W38320  38.077  28.194  11.493
66595W        W38321  41.819  29.212   1.920
66596W        W38322  11.253  39.902   0.874
66597W        W38323   8.084  27.679  13.884
66598W        W38324   5.870   0.456  12.581
66599W        W38325  38.166   5.626  14.500
66600W        W38326  27.724  24.723  10.778
66601W        W38327   3.080  34.524   4.522
66602W        W38328  24.750  12.653  13.474
66603W        W38329  40.187   0.860  12.960
66604W        W38330  28.107  39.679  13.956
66605W        W38331  36.414  20.939   4.117
66606W        W38332  16.095   9.792  12.088
66607W        W38333   9.801  31.479   0.293
66608W        W38334  30.238  38.595  14.827
66609W        W38335  15.523  34.069   2.601
66610W        W38336   9.920  21.380   2.035
66611W        W38337  35.792   7.889  13.148
66612W        W38338  19.778  39.487   3.242
66613W        W38339  36.016  44.080  12.102
66614W        W38340  34.921  14.118   0.673
66615W        W38341  37.567  10.196   0.018
66616W        W38342  11.729  27.418  11.230
66617W        W38343  23.191  24.970   0.304
66618W        W38344  23.199  19.315  12.094
66619W        W38345   4.528  11.676  14.059
66620W        W38346  14.751  25.486   0.938
66621W        W38347  23.257  13.221  11.665
66622W        W38348  41.242  38.073   1.898
66623W        W38349   6.829  14.985  11.131
66624W        W38350  42.443  39.631  14.349
66625W        W38351  19.204  35.902   1.176
66626W        W38352   8.942   7.191  14.447
66627W        W38353   5.429  17.579  13.735
66628W        W38354  14.571   1.128  11.139
66629W        W38355  40.692  37.873   3.595
66630W        W38356  42.894  40.304  14.026
66631W        W38357  19.991   9.065   4.446
66632W        W38358  40.280  24.707   2.845
66633W        W38359   8.284   0.589   1.317
66634W        W38360  22.655  13.179   2.255
66635W        W38361  31.114  42.207  13.359
66636W        W38362   1.309  21.502   0.783
66637W        W38363  23.476  16.265   3.823
66638W        W38364  41.996  36.294   2.421
66639W        W38365   8.454  41.876  14.394
66640W        W38366  42.481   3.364   1.370
66641W        W38367  23.227  10.802  10.722
66642W        W38368  17.030  17.651  13.564
66643W        W38369   5.287  36.005   3.339
66644W        W38370  26.731  12.684   2.769
66645W        W38371  38.660  18.596   1.366
66646W        W38372  27.365  18.319  12.369
66647W        W38373  40.053   2.764  10.684
66648W        W38374   7.717  10.608  14.251
66649W        W38375  22.143  12.038   1.759
66650W        W38376   0.535  23.968   1.305
66651W        W38377  35.485  41.224  11.880
66652W        W38378  23.755  10.786   0.908
66653W        W38379  19.059  16.303  10.631
66654W        W38380  13.001  23.514   2.077
66655W        W38381  32.437   2.382   0.361
66656W        W38382  30.977  26.126  11.408
66657W        W38383  19.330  24.974   3.633
66658W        W38384  40.994   0.326  10.509
66659W        W38385  33.953  11.453  13.902
66660W        W38386  18.539  40.312   0.566
66661W        W38387  21.819  11.584  10.944
66662W        W38388  33.876  44.269  12.285
66663W        W38389  14.014   3.799   1.378
66664W        W38390  10.846  24.129   2.512
66665W        W38391  13.670   2.951  11.166
66666W        W38392  23.750  43.888  11.118
66667W        W38393   4.243  26.441   1.782
66668W        W38394  14.800   5.007   0.552
66669W        W38395  36.019   4.489   0.148
66670W        W38396  23.074  33.321  11.596
66671W        W38397  32.011   2.761   4.624
66672W        W38398  30.551  32.953  14.944
66673W        W38399  33.894  33.316  12.413
66674W        W38400  26.154   7.641   1.416
66675W        W38401   9.338  43.394  14.011
66676W        W38402  40.014  22.005  12.202
66677W        W38403  42.763  41.968  13.372
66678W        W38404  18.390  28.138   4.313
66679W        W38405  36.131  16.280   1.924
66680W        W38406  26.573  25.618   4.619
66681W        W38407  10.388  40.724   3.661
66682W        W38408  20.892  37.453   2.733
66683W        W38409  43.909   1.235  13.787
66684W        W38410  31.851  26.301   3.216
66685W        W38411  42.248   9.942  11.625
66686W        W38412  27.708   0.226  14.962
66687W        W38413  12.759   2.223   2.645
66688W        W38414  20.992  38.721   4.125
66689W        W38415  37.363  13.799   0.393
66690W        W38416  16.537  32.812   2.539
66691W        W38417   8.095  23.045   5.602
66692W        W38418  26.223   2.893   2.154
66693W        W38419   2.765  35.641   3.874
66694W        W38420  44.039   3.266   3.680
66695W        W38421  10.237   4.001  14.938
66696W        W38422  38.480   8.653  10.728
66697W        W38423  42.505   6.962  12.875
66698W        W38424  25.222  35.832  12.945
66699W        W38425  21.785  19.120   0.440
66700W        W38426  39.465  18.632   0.937
66701W        W38427  18.710   8.078  14.180
66702W        W38428  15.034  33.525  11.084
66703W        W38429  22.966  17.288  10.465
66704W        W38430  24.698  40.738  12.114
66705W        W38431  44.284  34.928  12.171
66706W        W38432  26.567  37.907  13.433
66707W        W38433  40.754  27.031  12.842
66708W        W38434  24.264  21.542   0.291
66709W        W38435  30.376  37.471   2.396
66710W        W38436   5.957  30.392   3.625
66711W        W38437  42.454  12.263   2.425
66712W        W38438   6.417  15.982  11.624
66713W        W38439  30.584   5.703   4.737
66714W        W38440   5.238  32.281  13.563
66715W        W38441  25.689  18.127  12.508
66716W        W38442  22.535  19.071   1.373
66717W        W38443  22.194  21.571  14.542
66718W        W38444  35.361   6.827  10.686
66719W        W38445   2.848  38.082  13.869
66720W        W38446  16.398  11.827   1.420
66721W        W38447  39.563  22.165  12.893
66722W        W38448   6.357   1.751  11.248
66723W        W38449   0.210  43.337  14.839
66724W        W38450  14.728  32.434   4.282
66725W        W38451   2.247  28.095   3.686
66726W        W38452  28.657  38.969  13.531
66727W        W38453  31.301   1.693   1.348
66728W        W38454  36.579   8.339   4.185
66729W        W38455  25.511  35.476  12.695
66730W        W38456  27.217  26.686   3.621
66731W        W38457  14.722  11.676   0.737
66732W        W38458  28.378   0.861  10.687
66733W        W38459  40.605  34.373   2.318
66734W        W38460  17.126  35.947  11.529
66735W        W38461   1.933  24.659  13.740
66736W        W38462  33.316  13.940   5.116
66737W        W38463  24.573  42.195  13.989
66738W        W38464  18.176  18.301   1.425
66739W        W38465   2.299  20.319  13.092
66740W        W38466  41.576  26.013  11.258
66741W        W38467   2.551   0.094  11.103
66742W        W38468  37.025   6.413   3.260
66743W        W38469  34.145  39.563   1.113
66744W        W38470  28.422   9.240   0.851
66745W        W38471   1.451  36.863   1.925
66746W        W38472  18.520  32.498  12.996
66747W        W38473  21.265  28.643   2.870
66748W        W38474  40.307  28.215   4.934
66749W        W38475  36.975  28.083  11.124
66750W        W38476  27.541  18.494  13.141
66751W        W38477  30.537  17.334   3.230
66752W        W38478  31.471  20.318  11.989
66753W        W38479   6.260  38.349  12.190
66754W        W38480  27.980  39.429   4.375
66755W        W38481  10.862  43.473   3.260
66756W        W38482  22.560  30.029   0.489
66757W        W38483  21.030  33.546  11.948
66758W        W38484   5.429  32.497   0.621
66759W        W38485  23.076  20.744   3.199
66760W        W38486  15.790  31.420   2.345
66761W        W38487  19.771  33.490  10.701
66762W        W38488  35.884  37.011   0.431
66763W        W38489   6.714  11.850  10.598
66764W        W38490  24.530  36.474  12.351
66765W        W38491  33.557  34.572   0.838
66766W        W38492  16.327  42.432   3.728
66767W        W38493  19.685  23.414   2.260
66768W        W38494  38.536   8.000  12.019
66769W        W38495  12.082  39.221   1.014
66770W        W38496  10.172  11.155   0.171
66771W        W38497  23.052  38.933   1.272
66772W        W38498  42.211  33.002   4.130
66773W        W38499  17.615  24.454  14.046
66774W        W38500  33.110   1.961   4.540
66775W        W38501  37.864  44.989  11.534
66776W        W38502  21.327  32.350   2.720
66777W        W38503   9.637  29.469  12.351
66778W        W38504  11.833  14.394  10.841
66779W        W38505  23.122  25.897   4.743
66780W        W38506   1.474  38.300   0.666
66781W        W38507  15.383   5.002  14.951
66782W        W38508  35.026   8.087  11.235
66783W        W38509  39.968   2.237   3.115
66784W        W38510  30.165  28.485   4.607
66785W        W38511   6.827  21.734   2.902
66786W        W38512  43.415  16.998  13.527
66787W        W38513   5.351  17.763   1.776
66788W        W38514  42.230  10.631  11.019
66789W        W38515  43.201  19.775  12.416
66790W        W38516  12.864  24.539   1.015
66791W        W38517  25.588  32.500  10.677
66792W        W38518  28.169  27.467   3.241
66793W        W38519  12.145  43.449  11.540
66794W        W38520  17.607  27.619   3.706
66795W        W38521  28.164  12.189  12.858
66796W        W38522  22.662  11.177  14.905
66797W        W38523  37.923  29.643  11.584
66798W        W38524   5.939   7.373   5.031
66799W        W38525  26.099  14.095  11.614
66800W        W38526  28.046  18.784  13.954
66801W        W38527  33.423   0.697   2.274
66802W        W38528  34.330  21.219   2.944
66803W        W38529  30.464  30.843  13.794
66804W        W38530  30.826  11.840  11.532
66805W        W38531  18.147  33.059  13.044
66806W        W38532  28.129  33.313   4.682
66807W        W38533  32.178  27.073  14.438
66808W        W38534  37.090  31.346   1.787
66809W        W38535  22.945  37.408   0.134
66810W        W38536   5.029  35.076   0.801
66811W        W38537  43.414   8.009  13.380
66812W        W38538   2.821  31.914   1.434
66813W        W38539  23.066  19.930  14.498
66814W        W38540  30.030  39.348   3.640
66815W        W38541  26.121  30.996  11.578
66816W        W38542  41.527  11.196   2.362
66817W        W38543  35.644  39.921   0.370
66818W        W38544  22.143  38.049   4.233
66819W        W38545  27.331  31.795   3.163
66820W        W38546  43.556  18.555  13.477
66821W        W38547  20.637   4.363   3.327
66822W        W38548  43.352  34.627   1.393
66823W        W38549  18.059  21.687   4.044
66824W        W38550   7.313   5.556  10.974
66825W        W38551  15.726  26.159   2.160
66826W        W38552   9.672  26.105   4.369
66827W        W38553  35.119   9.089  11.722
66828W        W38554  25.002  34.103   3.126
66829W        W38555  30.974   8.160  13.606
66830W        W38556   6.829  33.449  11.154
66831W        W38557  24.707  13.743  12.011
66832W        W38558   6.055  39.887   4.832
66833W        W38559  19.994   3.493  12.036
66834W        W38560  39.380  19.324  11.138
66835W        W38561   6.599   9.432   4.161
66836W        W38562  32.658  28.752   2.610
66837W        W38563  27.072  31.117  12.449
66838W        W38564   7.789   7.444  11.631
66839W        W38565  15.562  21.938   3.145
66840W        W38566   8.548  27.294   0.760
66841W        W38567  44.874  16.902   2.343
66842W        W38568  22.208  44.801  13.010
66843W        W38569   8.504  39.297   1.196
66844W        W38570  10.784  33.077   1.576
66845W        W38571  37.007  32.658   1.842
66846W        W38572   8.090  22.556   4.098
66847W        W38573  39.473   6.745   2.915
66848W        W38574  32.206  28.788  11.862
66849W        W38575   2.913  44.780   1.696
66850W        W38576   6.434   6.672  13.854
66851W        W38577  12.616  14.705   0.363
66852W        W38578   3.478  41.732  11.623
66853W        W38579  32.329  44.141   5.504
66854W        W38580  40.377   6.964  12.070
66855W        W38581   6.756  16.069  12.448
66856W        W38582  30.347  11.668  14.541
66857W        W38583  28.465  37.263   0.595
66858W        W38584  16.853  23.396   4.915
66859W        W38585  18.795  40.236   2.804
66860W        W38586  34.721   6.502   2.744
66861W        W38587  21.233  10.237   4.139
66862W        W38588   7.256   5.474  12.030
66863W        W38589  33.359  43.739   4.479
66864W        W38590  40.334  16.761   0.505
66865W        W38591  16.801  25.656   1.238
66866W        W38592  43.046   7.734  11.560
66867W        W38593  36.889  18.879   2.660
66868W        W38594  28.713  26.204   3.378
66869W        W38595  12.061  28.839   4.155
66870W        W38596  30.728  28.992   2.682
66871W        W38597  23.027  30.930   0.780
66872W        W38598   3.050   8.878  13.415
66873W        W38599   5.094  35.127  11.079
66874W        W38600  29.694  19.177  13.827
66875W        W38601  13.340   3.396  13.374
66876W        W38602  36.270   7.809  12.991
66877W        W38603  39.068  32.954  12.001
66878W        W38604   4.033  12.202   2.157
66879W        W38605  16.067  43.398  14.723
66880W        W38606  17.734   8.648  10.731
66881W        W38607  35.876  31.247   4.557
66882W        W38608  29.692  18.616  10.572
66883W        W38609  24.435  14.326   3.168
66884W        W38610  40.574  19.618   2.725
66885W        W38611  11.657  19.337   1.185
66886W        W38612   5.601  18.271  11.949
66887W        W38613  13.361  11.218  11.024
66888W        W38614  32.182   5.274  14.739
66889W        W38615  11.615   9.118  13.424
66890W        W38616  33.639  36.040   0.836
66891W        W38617  13.361   8.827  13.450
66892W        W38618  43.910   6.773  11.816
66893W        W38619  17.723   6.686  11.152
66894W        W38620  37.551   3.534   1.946
66895W        W38621  13.174  14.250  10.483
66896W        W38622  14.786  34.668  14.404
66897W        W38623   8.356  40.465  11.313
66898W        W38624  44.964  18.512  11.261
66899W        W38625   2.676  23.210   0.507
66900W        W38626  36.094  14.635   0.673
66901W        W38627  44.473  36.313   2.217
66902W        W38628  32.685  20.106  11.811
66903W        W38629   7.885  31.970   0.917
66904W        W38630  11.948  21.683   1.352
66905W        W38631  28.966  35.947  13.657
66906W        W38632  11.874  19.522  14.872
66907W        W38633   6.654   9.589  13.753
66908W        W38634  11.739   8.945   2.719
66909W        W38635  29.532  38.547   3.581
66910W        W38636  42.485   5.771  10.681
66911W        W38637  25.368   2.593   0.977
66912W        W38638  15.162  29.468  13.823
66913W        W38639  21.832  30.313  14.374
66914W        W38640   8.747   0.813   1.415
66915W        W38641  42.125  39.509  13.928
66916W        W38642   7.286  18.825   0.153
66917W        W38643  40.003   1.946  13.481
66918W        W38644  38.151  11.203   4.393
66919W        W38645  23.912  10.138   1.858
66920W        W38646  19.481   8.525  11.072
66921W        W38647  23.429  41.841   3.581
66922W        W38648  40.885  28.105  11.690
66923W        W38649  29.839   4.212   4.934
66924W        W38650  16.647  18.331  12.612
66925W        W38651   6.088  10.097   3.796
66926W        W38652  21.797  39.522   3.300
66927W        W38653   2.504   9.191   3.311
66928W        W38654  36.460  24.292  13.441
66929W        W38655  43.313  27.963   3.279
66930W        W38656  37.388  37.509   1.932
66931W        W38657  37.365  23.480   4.358
66932W        W38658  15.770  12.560   1.431
66933W        W38659   4.316  23.995   0.836
66934W        W38660   0.392  15.565   1.809
66935W        W38661  33.367   3.745  13.278
66936W        W38662   6.340  34.672   3.184
66937W        W38663  41.972  15.319  14.389
66938W        W38664  37.523  23.177   2.130
66939W        W38665  18.234  42.767   1.692
66940W        W38666  14.543  22.400  14.794
66941W        W38667  35.377  39.193   5.008
66942W        W38668  39.580  29.771   2.420
66943W        W38669  31.168  41.948   4.485
66944W        W38670   3.894  10.704  14.268
66945W        W38671  41.527  12.865   0.666
66946W        W38672  25.280   5.213  14.093
66947W        W38673   2.550  41.529   3.980
66948W        W38674  38.505   2.041   0.471
66949W        W38675   5.004  20.940   0.315
66950W        W38676   1.036  34.554   3.754
66951W        W38677   6.918  16.683  14.265
66952W        W38678  18.077  44.487  14.773
66953W        W38679  31.472  17.762  12.182
66954W        W38680  36.317  31.007  10.686
66955W        W38681  34.160  21.606   1.518
66956W        W38682  30.037   0.445   0.941
66957W        W38683  11.647  30.573  13.974
66958W        W38684  31.933  40.056   4.822
66959W        W38685  37.808  35.851   4.059
66960W        W38686  13.620  27.487  14.506
66961W        W38687  32.565   4.711  12.415
66962W        W38688  13.157  44.902  12.550
66963W        W38689  28.365  34.469  13.017
66964W        W38690   1.409   6.534  13.072
66965W        W38691  33.537  32.425   1.190
66966W        W38692  40.594  40.866  14.444
66967W        W38693  18.098  27.235  12.509
66968W        W38694   8.264  29.618  11.946
66969W        W38695  21.290  14.578  11.701
66970W        W38696  36.012  12.837   3.039
66971W        W38697  20.815  33.673   1.404
66972W        W38698  37.870   7.812   4.186
66973W        W38699  25.362  33.112  14.397
66974W        W38700  31.029  14.021  13.267
66975W        W38701  12.788  34.978  14.209
66976W        W38702   9.319  28.238  13.020
66977W        W38703  35.855  11.245   4.558
66978W        W38704   7.206  15.714   9.969
66979W        W38705  37.912   1.116   2.929
66980W        W38706  13.332   3.671   0.764
66981W        W38707  23.867  27.453   4.575
66982W        W38708   8.609   3.921  13.285
66983W        W38709  14.830   3.881   2.897
66984W        W38710  24.520  40.727   2.738
66985W        W38711   7.570  41.484   0.872
66986W        W38712  35.474  26.995   1.875
66987W        W38713  38.081  28.634   2.078
66988W        W38714  27.678  34.861   1.468
66989W        W38715  17.819  29.685   4.343
66990W        W38716   2.743  12.091   4.426
66991W        W38717   5.828   9.244   1.761
66992W        W38718  37.123  36.239  14.169
66993W        W38719  11.345  32.994  11.174
66994W        W38720   9.927  10.028   0.483
66995W        W38721   3.795   3.875  14.340
66996W        W38722  15.698  12.934   4.445
66997W        W38723  22.983  35.512  12.432
66998W        W38724  22.316  32.084  11.906
66999W        W38725  40.007   0.388  13.692
67000W        W38726  28.042  17.765   1.680
67001W        W38727  43.446  18.662   1.775
67002W        W38728  34.584  25.950  14.987
67003W        W38729  22.139   3.240   3.788
67004W        W38730  15.573  42.930   4.652
67005W        W38731  16.557   8.199   2.800
67006W        W38732  39.862  40.024  12.362
67007W        W38733  15.158   8.322  13.238
67008W        W38734  38.055  26.451  14.459
67009W        W38735   3.354  29.632   2.648
67010W        W38736  23.657  11.123  10.903
67011W        W38737  17.847  14.876   1.921
67012W        W38738   3.269  11.268  10.485
67013W        W38739   6.944  11.136   4.157
67014W        W38740  24.654  20.077   2.381
67015W        W38741  27.418  38.318   4.345
67016W        W38742  32.761   0.064   3.687
67017W        W38743   5.899   8.593  11.930
67018W        W38744  28.985  35.828  11.569
67019W        W38745  20.551  42.070  14.335
67020W        W38746  25.186  31.016  10.621
67021W        W38747  22.812  42.964  11.148
67022W        W38748  37.276  38.537  12.962
67023W        W38749  33.530  35.969  11.212
67024W        W38750  10.929   5.207  13.817
67025W        W38751   2.526  35.523   1.814
67026W        W38752  11.133  11.176   0.473
67027W        W38753  30.816   1.894   4.218
67028W        W38754   5.472  31.521  12.951
67029W        W38755   9.410   8.270   2.895
67030W        W38756  42.314  28.410  11.541
67031W        W38757  12.216  11.145  13.109
67032W        W38758   8.898  15.652   4.161
67033W        W38759  35.336  29.665  12.852
67034W        W38760   6.781  31.040  13.937
67035W        W38761  14.254  17.968  14.012
67036W        W38762  40.637  41.570  12.079
67037W        W38763   3.807  40.788   4.355
67038W        W38764  39.246  29.332  13.856
67039W        W38765   5.879  27.071   4.679
67040W        W38766  23.298  44.956   4.579
67041W        W38767  39.765  43.930  13.893
67042W        W38768  19.574  18.044   0.814
67043W        W38769   2.701  15.642  14.055
67044W        W38770  41.047   3.506  12.521
67045W        W38771  37.554   9.903  10.455
67046W        W38772   9.207  14.913   1.758
67047W        W38773  30.409  15.238   4.103
67048W        W38774  30.404  38.335  14.295
67049W        W38775  14.671  30.910   4.050
67050W        W38776  31.424  35.579  12.924
67051W        W38777  44.471  42.521   0.825
67052W        W38778  41.995  21.674  11.459
67053W        W38779   0.738  20.282   2.700
67054W        W38780  33.420  25.216   5.294
67055W        W38781  31.442  42.273  10.678
67056W        W38782  30.399   5.804   0.415
67057W        W38783  13.621  31.448  12.966
67058W        W38784  34.984  15.791  12.974
67059W        W38785   1.751  24.644   4.168
67060W        W38786  32.957  41.346  13.915
67061W        W38787  31.131  40.601   2.292
67062W        W38788  20.966   2.144   4.107
67063W        W38789  40.025  17.478  14.794
67064W        W38790  10.446  39.308   3.050
67065W        W38791  23.342  43.125   2.889
67066W        W38792   0.912  42.056   4.580
67067W        W38793  38.553  35.802  10.904
67068W        W38794  22.800   9.130  11.121
67069W        W38795  41.324  26.199   3.656
67070W        W38796   5.172  38.049  10.472
67071W        W38797  24.271  31.412  10.983
67072W        W38798  14.451  27.422  11.859
67073W        W38799  35.431  21.293  11.161
67074W        W38800  26.009  15.951   3.779
67075W        W38801  42.438  14.368   1.719
67076W        W38802   5.737  11.202  12.457
67077W        W38803   7.366  36.063   3.640
67078W        W38804   2.442  30.519  11.416
67079W        W38805   9.544   9.683   0.481
67080W        W38806  40.276  33.975   2.313
67081W        W38807  24.543  17.751   4.980
67082W        W38808   7.009  11.212   0.926
67083W        W38809  26.428  39.087   3.260
67084W        W38810  42.017   7.839   4.842
67085W        W38811  23.506  28.965  14.745
67086W        W38812  25.114  34.162   2.110
67087W        W38813   5.193   7.001   1.952
67088W        W38814  28.442  36.594  14.926
67089W        W38815  34.779  16.670   4.758
67090W        W38816  14.555  33.083  13.858
67091W        W38817  23.052  28.090  14.013
67092W        W38818  35.820  44.475   2.353
67093W        W38819   0.521  40.437   3.836
67094W        W38820   8.434  22.508   4.545
67095W        W38821  44.061  32.915   9.838
67096W        W38822  22.601  10.131  11.041
67097W        W38823  14.213  33.855  12.558
67098W        W38824  11.563  26.232   3.358
67099W        W38825  40.314   7.749   3.279
67100W        W38826  24.361  30.588   4.634
67101W        W38827  10.598  13.613   0.396
67102W        W38828   4.137  14.659  10.336
67103W        W38829  32.870  33.904   2.370
67104W        W38830  11.787  33.691   2.729
67105W        W38831  34.200  42.057  12.786
67106W        W38832  44.808  15.792   0.802
67107W        W38833  28.482  14.235   2.803
67108W        W38834   1.827  23.631  13.824
67109W        W38835  36.509   4.332  13.812
67110W        W38836  10.189  14.963  14.095
67111W        W38837   3.823   5.566  10.771
67112W        W38838   1.310  11.104  10.768
67113W        W38839  15.276  44.820   0.970
67114W        W38840  31.675   6.402   0.098
67115W        W38841   1.854  25.096   4.522
67116W        W38842  23.936  17.733   0.758
67117W        W38843  38.230   9.039  13.557
67118W        W38844  41.270  23.380  14.823
67119W        W38845   9.921  38.046  10.761
67120W        W38846  42.866  27.447  11.340
67121W        W38847  28.655  13.180   3.696
67122W        W38848  44.252   0.476   3.718
67123W        W38849  12.568   8.757   3.812
67124W        W38850  14.072   0.312  11.252
67125W        W38851  32.980  34.619   0.773
67126W        W38852  17.991  30.088  13.925
67127W        W38853  16.599  37.340   3.402
67128W        W38854  30.226  30.470   3.721
67129W        W38855  13.279  34.569  12.934
67130W        W38856  33.415   8.327   0.218
67131W        W38857  30.910  36.087  14.803
67132W        W38858  14.916   5.315  12.858
67133W        W38859   7.447   8.840  11.431
67134W        W38860  16.360  31.606  10.996
67135W        W38861  16.019  37.005  12.612
67136W        W38862  42.733   5.679  12.100
67137W        W38863  37.534  13.909   1.843
67138W        W38864  26.692  34.839   3.602
67139W        W38865  25.520  20.991  10.284
67140W        W38866  25.190  40.940   4.863
67141W        W38867  35.020   4.658  12.926
67142W        W38868  15.881  44.159   4.672
67143W        W38869  40.628  15.217   3.658
67144W        W38870   0.365  10.185   1.245
67145W        W38871  41.260  42.894   3.452
67146W        W38872  40.599  21.452   1.373
67147W        W38873  38.863  35.297  14.675
67148W        W38874  24.108  22.560   2.182
67149W        W38875   9.665   4.697  11.199
67150W        W38876   0.272  16.688  12.483
67151W        W38877  18.706  19.935   4.920
67152W        W38878   2.840  40.601   2.228
67153W        W38879  30.759  44.859   0.312
67154W        W38880  44.769  31.309   0.269
67155W        W38881  24.242  26.964   3.331
67156W        W38882  34.939  39.762   1.942
67157W        W38883  16.307  23.050   1.805
67158W        W38884   5.802  27.595   0.762
67159W        W38885  11.758   3.697  14.097
67160W        W38886  18.054  39.060  11.054
67161W        W38887  19.698  33.627  13.022
67162W        W38888   8.827   7.336  14.939
67163W        W38889  44.496  11.634   3.662
67164W        W38890  42.722  43.552  14.484
67165W        W38891  30.647   0.666   2.283
67166W        W38892  30.030  44.389  12.429
67167W        W38893  32.017  14.194  10.681
67168W        W38894   7.452  24.516   2.864
67169W        W38895  36.109  24.113   4.853
67170W        W38896  44.798  35.744   4.124
67171W        W38897  28.976   8.674   1.270
67172W        W38898  43.699  16.683   3.012
67173W        W38899   2.792  36.314   1.937
67174W        W38900   2.875  24.154   3.685
67175W        W38901  17.829   0.894   2.225
67176W        W38902  16.341  10.345   2.222
67177W        W38903  35.381   1.455  14.935
67178W        W38904  14.291  39.719   1.896
67179W        W38905  37.082  12.643  14.073
67180W        W38906  14.796  22.071   2.492
67181W        W38907  40.009  16.689   1.911
67182W        W38908  18.194  36.457  11.461
67183W        W38909   8.289   1.549   0.283
67184W        W38910  16.219   2.714  12.465
67185W        W38911  41.287  11.130  14.261
67186W        W38912  26.350  31.181   0.378
67187W        W38913  28.625   9.900   4.168
67188W        W38914  16.131  11.979   1.863
67189W        W38915   8.351  28.623   2.890
67190W        W38916  37.970  23.263   1.211
67191W        W38917  24.042   4.430  10.690
67192W        W38918  37.928  30.449  12.069
67193W        W38919   3.974  33.022  13.154
67194W        W38920  34.575  22.212   1.989
67195W        W38921  25.743  18.691   1.756
67196W        W38922   2.647  36.343   2.860
67197W        W38923  30.244  21.247  11.437
67198W        W38924  33.904   2.439  12.294
67199W        W38925  14.269  23.015   0.290
67200W        W38926  23.978  29.021   2.901
67201W        W38927  33.708  23.042  13.436
67202W        W38928  14.167   1.462   3.640
67203W        W38929  22.359  41.313   4.475
67204W        W38930  13.316  13.052  14.743
67205W        W38931  23.747  42.422   2.246
67206W        W38932  27.281  28.851   0.304
67207W        W38933  15.732  21.598   3.513
67208W        W38934  37.023   6.257  11.960
67209W        W38935  40.043  42.276  13.487
67210W        W38936  12.057  18.105   4.088
67211W        W38937   0.311  20.982   0.416
67212W        W38938  10.254  16.632  13.949
67213W        W38939  36.363   7.617   2.416
67214W        W38940  39.762  37.272  11.993
67215W        W38941  43.047   0.559  12.049
67216W        W38942  14.619   1.492   1.358
67217W        W38943  44.209  21.248  13.539
67218W        W38944  21.079   3.361   0.106
67219W        W38945  13.827   3.884  10.680
67220W        W38946  34.480  31.192  14.769
67221W        W38947  31.498   5.969   1.351
67222W        W38948  38.724   8.358   0.532
67223W        W38949  41.012  41.965   0.286
67224W        W38950  19.256   7.786  11.698
67225W        W38951  13.582   2.027   2.685
67226W        W38952  31.344  38.941  11.920
67227W        W38953  24.865   2.259  14.373
67228W        W38954  37.552  32.534   4.395
67229W        W38955  28.957   2.419   1.964
67230W        W38956  14.645  22.726  13.030
67231W        W38957   8.436  18.287   2.202
67232W        W38958  35.813  11.923  12.598
67233W        W38959  39.317  40.641  11.277
67234W        W38960  11.284  18.004   0.493
67235W        W38961  34.210  41.243   4.356
67236W        W38962   3.961   4.175   3.687
67237W        W38963  28.377  11.609   1.298
67238W        W38964  32.378  41.766   4.222
67239W        W38965   9.365  22.494  12.416
67240W        W38966   7.799  33.092   3.403
67241W        W38967  42.239  37.000   0.978
67242W        W38968   7.509  12.303   1.673
67243W        W38969  41.493   4.396  11.060
67244W        W38970  30.032  12.290   4.880
67245W        W38971   3.364  20.749  11.255
67246W        W38972  23.682   6.156  10.514
67247W        W38973  26.006   4.601   4.613
67248W        W38974   7.446  17.857  10.696
67249W        W38975   3.618  16.466   1.623
67250W        W38976  28.863  32.048  14.949
67251W        W38977  24.577  17.609   2.176
67252W        W38978  14.746  37.717  13.979
67253W        W38979  22.538  26.599   3.035
67254W        W38980   6.337  35.443  11.919
67255W        W38981   3.944   3.299   0.612
67256W        W38982  34.597  15.238   3.940
67257W        W38983  30.953  38.085   0.926
67258W        W38984  25.334   6.426   2.235
67259W        W38985  44.970  25.686  13.770
67260W        W38986   0.043  34.841   1.052
67261W        W38987  27.894  32.639  11.945
67262W        W38988   0.697   9.734  13.521
67263W        W38989  17.057  32.028  14.972
67264W        W38990  38.155  13.224   2.287
67265W        W38991  33.630  18.496   0.251
67266W        W38992  40.566  13.617  11.665
67267W        W38993   3.182  15.911  12.879
67268W        W38994  35.346   6.416  12.909
67269W        W38995  32.369  12.797  11.585
67270W        W38996  34.446  17.834   0.268
67271W        W38997   1.853   4.142   3.173
67272W        W38998  27.076  28.242   1.680
67273W        W38999  38.403  40.581  11.616
67274W        W39000  36.319  44.559  10.361
67275W        W39001  31.590  34.849   2.632
67276W        W39002   2.505   2.059  10.242
67277W        W39003  33.919   8.327   0.353
67278W        W39004  31.696   5.602  13.356
67279W        W39005  29.160  31.105   2.296
67280W        W39006   7.688  42.566  10.361
67281W        W39007  32.682  44.070  11.707
67282W        W39008  15.701  41.443  14.239
67283W        W39009  33.994  37.395   4.981
67284W        W39010   9.223  42.411   4.855
67285W        W39011  23.640  30.165  11.027
67286W        W39012  41.385  27.728   2.848
67287W        W39013  25.945  11.122   1.323
67288W        W39014  11.878  10.597  10.648
67289W        W39015  10.210  23.442   4.104
67290W        W39016  33.658   7.283  13.237
67291W        W39017  41.000  40.464  11.586
67292W        W39018   5.997  32.974   2.759
67293W        W39019  17.062  42.874   4.773
67294W        W39020  14.802   6.776   3.526
67295W        W39021  25.494  26.179   1.430
67296W        W39022  42.430  24.469   0.442
67297W        W39023   5.645   1.790  14.819
67298W        W39024   5.968   0.533   4.083
67299W        W39025  42.353  15.768  11.420
67300W        W39026  38.351   9.296   0.016
67301W        W39027   1.781  11.866  10.848
67302W        W39028  25.650  35.909   0.976
67303W        W39029  32.063  15.501  12.626
67304W        W39030   8.442  20.117  11.694
67305W        W39031  15.639  16.190  14.430
67306W        W39032  27.084  42.460  13.819
67307W        W39033  22.312  27.928   2.564
67308W        W39034  37.066  16.624  12.046
67309W        W39035  24.084   7.983   4.924
67310W        W39036  42.365  43.778  11.441
67311W        W39037  41.565  27.639  12.849
67312W        W39038  22.332  38.297  11.006
67313W        W39039  14.084   3.957  13.477
67314W        W39040   6.381  35.175   3.193
67315W        W39041   9.238  21.995   2.205
67316W        W39042  31.116  35.685   2.677
67317W        W39043  19.144  25.553   3.480
67318W        W39044  42.707  38.394  10.461
67319W        W39045  34.432  43.234   3.731
67320W        W39046  18.658  38.583   1.448
67321W        W39047  18.355  14.214  10.780
67322W        W39048  31.123  15.109   1.865
67323W        W39049  38.489  34.943   2.867
67324W        W39050  18.238  24.630   3.324
67325W        W39051  33.945   7.677  13.025
67326W        W39052  24.985   8.327   1.283
67327W        W39053  42.634   0.123   0.937
67328W        W39054  44.931  23.116   1.917
67329W        W39055  14.260  39.534   2.384
67330W        W39056  15.074  13.416   4.088
67331W        W39057  41.194   0.502   1.145
67332W        W39058  43.156   5.395  12.261
67333W        W39059  29.545  16.182  10.668
67334W        W39060  30.229   6.944  14.078
67335W        W39061  24.275   4.004  13.746
67336W        W39062  20.951  18.399   4.210
67337W        W39063  43.006   7.814  12.590
67338W        W39064   4.870  42.263   4.243
67339W        W39065  32.055  11.158   4.153
67340W        W39066  22.546  17.060  11.559
67341W        W39067   6.602   4.572   2.809
67342W        W39068  24.874  42.797   2.635
67343W        W39069  42.321   9.725  14.731
67344W        W39070  21.342  35.864  12.483
67345W        W39071   1.487  19.042  12.428
67346W        W39072  26.030  39.338   0.850
67347W        W39073  27.501  17.670  11.047
67348W        W39074  29.458   5.958  13.492
67349W        W39075  28.682  34.511   4.173
67350W        W39076  10.794  34.654   1.868
67351W        W39077  25.462  39.413  13.092
67352W        W39078   5.669  26.047   4.231
67353W        W39079  21.864  17.317  11.868
67354W        W39080   4.578  31.757   1.822
67355W        W39081  41.483  30.635   4.717
67356W        W39082  34.363   8.669   3.718
67357W        W39083   6.914  20.598  11.179
67358W        W39084  13.544  18.597   1.920
67359W        W39085  18.262  24.823  14.545
67360W        W39086   5.480  26.556   0.221
67361W        W39087   1.366  35.986  12.625
67362W        W39088  20.315  33.724  14.397
67363W        W39089  36.082   8.612  11.836
67364W        W39090  30.566  36.481   2.474
67365W        W39091  42.994  36.867  11.210
67366W        W39092  43.299  17.560   2.360
67367W        W39093  28.811  18.679  14.695
67368W        W39094  10.157  29.988   1.406
67369W        W39095   3.697  26.947   1.289
67370W        W39096  30.947  23.712   1.900
67371W        W39097  28.087   9.842   0.203
67372W        W39098   1.378  15.519   2.784
67373W        W39099   6.655   2.342   3.059
67374W        W39100  30.366  42.475   1.883
67375W        W39101  12.450  20.402  14.744
67376W        W39102  37.574  20.626  14.827
67377W        W39103  31.835  24.307   4.329
67378W        W39104  18.844  10.648  10.472
67379W        W39105  16.064  34.417  12.831
67380W        W39106  31.132   7.092  14.806
67381W        W39107  37.396  31.887   0.484
67382W        W39108  22.788   1.872   0.509
67383W        W39109   5.204  14.021  13.361
67384W        W39110  15.186  42.072   2.347
67385W        W39111  42.020  30.461   4.139
67386W        W39112  14.821   6.337   3.835
67387W        W39113   6.339   5.557  14.283
67388W        W39114   4.862  31.862   1.214
67389W        W39115  22.033  30.244  11.207
67390W        W39116  34.454  18.134   1.766
67391W        W39117   3.967  42.882  13.966
67392W        W39118  12.283  39.499  11.400
67393W        W39119  36.030  37.521  10.874
67394W        W39120  31.375   2.477  14.458
67395W        W39121  15.802  18.181  10.571
67396W        W39122   0.944  13.707  10.717
67397W        W39123  35.295  17.607  12.424
67398W        W39124   2.279  23.594  11.442
67399W        W39125  13.717  33.186   4.806
67400W        W39126  41.845   1.187   4.543
67401W        W39127   2.078  44.404   1.825
67402W        W39128  23.975  16.228   0.106
67403W        W39129  36.041   9.204  13.806
67404W        W39130  20.971  18.630   0.709
67405W        W39131  34.115  13.174  14.914
67406W        W39132  11.084  43.938   2.810
67407W        W39133  36.793  21.289   0.967
67408W        W39134  42.924  32.572   3.922
67409W        W39135  18.071   5.009  14.407
67410W        W39136  28.768  33.830  12.406
67411W        W39137   6.601   5.244   1.396
67412W        W39138  34.418  42.061  14.782
67413W        W39139  33.936  18.615   4.720
67414W        W39140   1.158  27.737   3.057
67415W        W39141  43.429  28.070  11.920
67416W        W39142  34.812  14.593   0.498
67417W        W39143  44.080  31.967  13.450
67418W        W39144   3.301   6.895  10.748
67419W        W39145  19.146  25.412  13.360
67420W        W39146  25.685  28.889   2.605
67421W        W39147  37.345  21.233  14.505
67422W        W39148  23.252   0.374   0.006
67423W        W39149  28.394   9.303  12.191
67424W        W39150  15.333  14.138  12.885
67425W        W39151  11.169   9.208   0.206
67426W        W39152  21.483  27.495  11.336
67427W        W39153  32.592  18.021   0.384
67428W        W39154  20.198  35.454   4.593
67429W        W39155  25.950  42.901   1.159
67430W        W39156  27.717   5.483  13.993
67431W        W39157  42.124  30.980  12.085
67432W        W39158   3.716  15.521  14.300
67433W        W39159  25.512  24.570   2.394
67434W        W39160   5.914  41.580  14.740
67435W        W39161  30.208  27.103  12.943
67436W        W39162   6.529  41.680  11.720
67437W        W39163   7.719  35.067  13.921
67438W        W39164  43.863   4.049  13.043
67439W        W39165  23.314  19.102   2.013
67440W        W39166   9.012   2.218   4.264
67441W        W39167  12.056  26.390   1.760
67442W        W39168  20.966  16.285  14.822
67443W        W39169  15.303  12.360  14.992
67444W        W39170   3.352  39.695  13.436
67445W        W39171  24.688  29.596   4.386
67446W        W39172  34.693  35.504   3.406
67447W        W39173   0.907  10.066  10.364
67448W        W39174  22.544  10.620   1.390
67449W        W39175  29.005   7.439  14.109
67450W        W39176  34.021   0.996   2.376
67451W        W39177  39.881  15.281  14.890
67452W        W39178  32.537   2.612   2.852
67453W        W39179  40.475   8.327  14.504
67454W        W39180   6.135   8.932  12.494
67455W        W39181  22.253  11.317  11.095
67456W        W39182  19.164   2.414  10.694
67457W        W39183  42.536  21.296  12.903
67458W        W39184  24.546  41.996   0.384
67459W        W39185  44.824  26.171  12.559
67460W        W39186   3.811  28.760  13.073
67461W        W39187  37.608  21.589   1.921
67462W        W39188  10.776   9.148  11.701
67463W        W39189  12.166   8.299   0.345
67464W        W39190  28.132  12.658  11.636
67465W        W39191   2.267  13.858  13.780
67466W        W39192   9.147  29.893  10.766
67467W        W39193  22.958  41.531   1.327
67468W        W39194   1.041  27.097  12.060
67469W        W39195  13.805  30.942   3.960
67470W        W39196  25.406  30.263   2.351
67471W        W39197  33.670   5.828  10.670
67472W        W39198   0.771  27.656  10.902
67473W        W39199  20.142   9.379   1.247
67474W        W39200  11.226  15.605   1.316
67475W        W39201   8.276   6.977  10.679
67476W        W39202  12.174   1.746  13.003
67477W        W39203  36.897  40.140   3.278
67478W        W39204   5.639   3.757  10.727
67479W        W39205   4.157  36.414   4.913
67480W        W39206  14.200  29.619   3.626
67481W        W39207  26.185  12.310  11.099
67482W        W39208  27.130   0.436  14.508
67483W        W39209  26.656  27.197   1.335
67484W        W39210   3.176  30.965  11.495
67485W        W39211  12.667  43.805  13.507
67486W        W39212  30.248  12.390   1.342
67487W        W39213  35.526  40.554   4.122
67488W        W39214   3.721  28.383  14.002
67489W        W39215  34.454   3.424   0.123
67490W        W39216   2.069  12.963   3.697
67491W        W39217   3.433  22.991  14.466
67492W        W39218   8.822  40.568  11.107
67493W        W39219  38.051   7.148   1.616
67494W        W39220  13.790  39.752  14.000
67495W        W39221  27.876  31.011   4.124
67496W        W39222  24.325   2.243  11.887
67497W        W39223  40.853  22.668   2.283
67498W        W39224   4.819   4.714   4.067
67499W        W39225  16.712  10.694   2.347
67500W        W39226   4.788  27.999  14.934
67501W        W39227  33.309   7.891   0.494
67502W        W39228  30.701  34.868   2.588
67503W        W39229  41.363  44.934  13.376
67504W        W39230   6.168   3.546   4.244
67505W        W39231  28.907  39.007  12.484
67506W        W39232  30.839   4.124   4.093
67507W        W39233   0.725  11.273  14.937
67508W        W39234  31.792   5.371  14.384
67509W        W39235  34.435  44.991   4.427
67510W        W39236  17.992  35.979   1.771
67511W        W39237   3.264   9.231  14.188
67512W        W39238  36.088  11.600   3.655
67513W        W39239   1.910   2.085   4.236
67514W        W39240  25.985  12.570  14.869
67515W        W39241  29.009  39.828  12.918
67516W        W39242   1.157  24.746   0.310
67517W        W39243  17.191  11.165   0.718
67518W        W39244  12.298  43.820  11.133
67519W        W39245  20.521  17.601   3.879
67520W        W39246  26.691   6.160  12.052
67521W        W39247  16.381  24.239  13.870
67522W        W39248   7.725  32.825  13.366
67523W        W39249  22.366  26.143   1.312
67524W        W39250  15.188  15.352   0.408
67525W        W39251  29.986  29.809   1.266
67526W        W39252  12.578   0.808  12.318
67527W        W39253  20.246   8.670   4.131
67528W        W39254  31.542   0.530   0.318
67529W        W39255  20.742  22.683   1.843
67530W        W39256   5.256  40.323  11.891
67531W        W39257   0.964   3.489  11.922
67532W        W39258  42.319  25.853   2.254
67533W        W39259   4.199  36.856   1.433
67534W        W39260  39.708   0.079  12.109
67535W        W39261   1.441  23.088  11.120
67536W        W39262  39.495  44.822  10.740
67537W        W39263  32.918  26.213  13.838
67538W        W39264  35.452   7.494   2.368
67539W        W39265  12.435  31.672   2.623
67540W        W39266  27.194  41.324  11.175
67541W        W39267  24.691  18.103  10.658
67542W        W39268  13.890  29.469  10.729
67543W        W39269  33.741  16.703   1.962
67544W        W39270  18.592  30.877  11.102
67545W        W39271  40.781  44.348   3.020
67546W        W39272  38.542  37.082  12.585
67547W        W39273  35.926   1.031   1.402
67548W        W39274   6.464  33.140   2.625
67549W        W39275   7.736  13.058  12.453
67550W        W39276  38.018   7.357  11.539
67551W        W39277  14.818  43.684   2.455
67552W        W39278  32.448  18.513   0.457
67553W        W39279  11.287  17.860   1.447
67554W        W39280   0.288   3.277  14.404
67555W        W39281  29.724   4.335  11.656
67556W        W39282  35.336   7.688   3.275
67557W        W39283  13.484  32.400   3.710
67558W        W39284   8.657  15.592   0.825
67559W        W39285  18.560  43.730   4.710
67560W        W39286  44.473  36.684  12.360
67561W        W39287  41.972   6.177  11.773
67562W        W39288  30.106  27.135  14.867
67563W        W39289  37.344  15.814  14.507
67564W        W39290  22.088   6.204  13.491
67565W        W39291   9.047   0.246   4.935
67566W        W39292  12.393  20.183  12.971
67567W        W39293   5.459  20.643   4.288
67568W        W39294  38.801   6.332   3.186
67569W        W39295  11.268  27.026  12.586
67570W        W39296  22.044  19.211   1.317
67571W        W39297  34.445   2.941   1.382
67572W        W39298   8.005   5.801  11.063
67573W        W39299  22.494  30.671  10.213
67574W        W39300  41.546  33.194   0.349
67575W        W39301  22.132  15.649   5.118
67576W        W39302   2.409   4.293  11.648
67577W        W39303  15.752  24.696  11.014
67578W        W39304  24.095  17.103  10.263
67579W        W39305  26.693  28.115   0.317
67580W        W39306  16.794   8.190   1.475
67581W        W39307  19.316  40.013   0.388
67582W        W39308  40.639  40.718   2.886
67583W        W39309  12.177  40.009   4.105
67584W        W39310  16.590   0.215  10.728
67585W        W39311  10.701  38.570  11.488
67586W        W39312   2.822  18.138  10.872
67587W        W39313  32.988  14.086  10.624
67588W        W39314   8.642  25.181  12.969
67589W        W39315  19.350   1.710   3.698
67590W        W39316  11.826  15.465  11.851
67591W        W39317  19.667  14.603  14.222
67592W        W39318  28.715  10.251   2.412
67593W        W39319  31.690  41.831   3.173
67594W        W39320   6.747  19.309  14.871
67595W        W39321   9.837  13.123   0.377
67596W        W39322  33.037   5.683   2.392
67597W        W39323  43.532   0.471   4.083
67598W        W39324  18.299  15.827  13.609
67599W        W39325   2.326  44.991   3.422
67600W        W39326   8.553  15.077  14.760
67601W        W39327  42.791   6.653   4.612
67602W        W39328  14.291   8.678  13.455
67603W        W39329   5.151  27.474   3.634
67604W        W39330  37.534  44.032  14.419
67605W        W39331  39.162  24.504  11.133
67606W        W39332  22.232  21.634  11.122
67607W        W39333  12.739  21.724  12.037
67608W        W39334  14.835   9.173   1.821
67609W        W39335  38.407  20.893   5.025
67610W        W39336  13.369  21.244  11.487
67611W        W39337  14.884  37.362  14.340
67612W        W39338  14.176  39.978   2.851
67613W        W39339   5.980   8.361  10.457
67614W        W39340  29.463  16.826   4.187
67615W        W39341   4.668  20.606   5.020
67616W        W39342  32.443  43.263  11.997
67617W        W39343   2.667  21.068  10.065
67618W        W39344  31.986  41.776   5.522
67619W        W39345  20.607  33.185  11.925
67620W        W39346   8.533   1.482   2.756
67621W        W39347  11.354  43.946   3.706
67622W        W39348  32.526  26.672  11.010
67623W        W39349   1.205  12.882  12.039
67624W        W39350  16.836  14.255   4.185
67625W        W39351  25.469  42.179  13.227
67626W        W39352  21.233  24.038   2.211
67627W        W39353   1.898   1.082  10.911
67628W        W39354   1.887  36.940  10.411
67629W        W39355  39.093   3.382   1.626
67630W        W39356  21.911  18.673   2.308
67631W        W39357   0.870  12.181  11.238
67632W        W39358   8.733   5.678  12.853
67633W        W39359  18.354  25.092  11.246
67634W        W39360  13.577  24.697   2.223
67635W        W39361  17.355  14.096   1.193
67636W        W39362  22.046  34.103   3.915
67637W        W39363  31.618  29.693   4.630
67638W        W39364  27.696   7.707   4.266
67639W        W39365   8.776  12.973  12.580
67640W        W39366  27.289  18.318   2.231
67641W        W39367  31.511  15.480   1.719
67642W        W39368  33.980  10.222  12.639
67643W        W39369   2.399  25.462  14.286
67644W        W39370  27.184  10.821  14.046
67645W        W39371   9.794  31.334  13.396
67646W        W39372   3.982   5.674  12.028
67647W        W39373  21.575  23.793   4.668
67648W        W39374  24.139  23.207  10.369
67649W        W39375  27.219  26.040  12.121
67650W        W39376  14.500  12.743  13.601
67651W        W39377  40.027  25.783  14.512
67652W        W39378  20.124  19.555   3.349
67653W        W39379  10.157  30.150  11.980
67654W        W39380  28.580  26.136  14.337
67655W        W39381  36.742   0.867  12.804
67656W        W39382  43.933   3.982   3.194
67657W        W39383  12.119  29.180  10.748
67658W        W39384  11.375  12.598  10.992
67659W        W39385  34.540  10.808  13.251
67660W        W39386   0.883  21.486   4.203
67661W        W39387   7.259  20.916  12.878
67662W        W39388  33.570  17.233  13.758
67663W        W39389  17.564  20.379   3.626
67664W        W39390  33.963  24.856  13.024
67665W        W39391  11.077   9.447  11.416
67666W        W39392   0.729  20.748   0.172
67667W        W39393  26.405  27.604   3.499
67668W        W39394  37.429  13.919   0.999
67669W        W39395  11.202  36.939   2.779
67670W        W39396  21.951  27.835  11.990
67671W        W39397  32.014   8.373   5.002
67672W        W39398  19.362  38.323  13.883
67673W        W39399  44.457  10.358   1.300
67674W        W39400  42.258  15.677  12.986
67675W        W39401  32.888  17.834  12.680
67676W        W39402  21.279  20.723  11.557
67677W        W39403  14.710  19.697   5.116
67678W        W39404  18.809  26.993  12.119
67679W        W39405  24.526   0.394  10.775
67680W        W39406  39.879   4.973  11.675
67681W        W39407  17.137   3.717   0.279
67682W        W39408   6.961  28.578   2.899
67683W        W39409  16.382  29.175   2.807
67684W        W39410   4.570   4.448  11.925
67685W        W39411  31.033   2.962  11.044
67686W        W39412  44.812  36.171  11.198
67687W        W39413  20.250   9.678  12.399
67688W        W39414  36.123  14.124  12.908
67689W        W39415  44.777  34.047  13.320
67690W        W39416  38.880  18.669  14.544
67691W        W39417  32.190   6.993  13.246
67692W        W39418  27.463  29.198  10.616
67693W        W39419  28.192  11.782  11.541
67694W        W39420  27.461   5.962  14.030
67695W        W39421  19.815  21.242   0.273
67696W        W39422   9.248  29.152  12.636
67697W        W39423   2.169  12.917  10.378
67698W        W39424  19.619  26.559  11.669
67699W        W39425  21.295  12.226   1.210
67700W        W39426  29.148   3.761   3.202
67701W        W39427  41.035   4.984  13.598
67702W        W39428  26.891  27.948  10.467
67703W        W39429  13.095   8.070  13.003
67704W        W39430   9.419  33.348  12.942
67705W        W39431  13.226  32.945   2.706
67706W        W39432   5.055  13.403   4.592
67707W        W39433  37.954  17.149  10.309
67708W        W39434  13.850  20.692  11.965
67709W        W39435  29.068  40.318   2.817
67710W        W39436  21.495   3.531   2.373
67711W        W39437  22.782  38.882  14.122
67712W        W39438  18.459  17.864  12.561
67713W        W39439  38.793   5.916   1.815
67714W        W39440  15.146  26.711  14.934
67715W        W39441   2.977  27.187   1.972
67716W        W39442  31.671  29.098  14.250
67717W        W39443  23.043  42.952   0.133
67718W        W39444  30.976  13.926  14.514
67719W        W39445   0.413  24.076  13.944
67720W        W39446  32.466  44.066  14.877
67721W        W39447  29.041  35.468  13.895
67722W        W39448   5.400  28.023  11.501
67723W        W39449   2.777  25.142   4.532
67724W        W39450  36.115  26.720   1.346
67725W        W39451  18.746  36.137   1.236
67726W        W39452  37.549  21.107   0.021
67727W        W39453  29.626  15.222  11.530
67728W        W39454   5.995   2.188   0.732
67729W        W39455  21.579   6.771  11.855
67730W        W39456   2.938   3.729  11.203
67731W        W39457  19.288  38.821   4.551
67732W        W39458   1.410  15.401   3.712
67733W        W39459  21.772  34.783  12.429
67734W        W39460   5.829   7.514   9.845
67735W        W39461   2.209   9.798  12.001
67736W        W39462  42.128  40.529   2.762
67737W        W39463  25.538   2.890   3.736
67738W        W39464  32.406  24.900  11.628
67739W        W39465  18.353   9.701   3.118
67740W        W39466   7.684  19.854  13.459
67741W        W39467  30.616  29.777   4.814
67742W        W39468  32.063  15.652  11.728
67743W        W39469  18.670  11.168  13.809
67744W        W39470   7.994  44.972  10.660
67745W        W39471  31.156  15.865   1.406
67746W        W39472  35.562  28.904  12.467
67747W        W39473  18.727   0.931  14.494
67748W        W39474  31.214  36.042   2.003
67749W        W39475  27.639  38.464  12.869
67750W        W39476  39.844  12.202   1.642
67751W        W39477   4.780   7.112  12.538
67752W        W39478   7.996  32.900  11.691
67753W        W39479  16.830  32.410  13.348
67754W        W39480   7.240   0.030  13.361
67755W        W39481  36.471  27.429   2.685
67756W        W39482   7.132  11.155  14.059
67757W        W39483  20.208  38.030  13.875
67758W        W39484   7.602  37.815   2.777
67759W        W39485  21.064  20.925  13.852
67760W        W39486  25.659  22.451  11.323
67761W        W39487  29.194  40.705  11.690
67762W        W39488   3.488  32.177   5.038
67763W        W39489  42.868   2.489   3.678
67764W        W39490  23.067  34.631   1.173
67765W        W39491  31.005  31.256   0.418
67766W        W39492   8.626  16.172   0.915
67767W        W39493  28.463  29.111   4.930
67768W        W39494  22.177  14.771   3.643
67769W        W39495  33.039  23.874  12.576
67770W        W39496   2.151   8.856   1.663
67771W        W39497  40.723  35.993   0.508
67772W        W39498  10.360  25.591   3.853
67773W        W39499  36.405   1.867   4.161
67774W        W39500  28.782   2.991   3.362
67775W        W39501  10.014  44.300  14.751
67776W        W39502  41.982  41.782  12.005
67777W        W39503  32.076  36.852   3.252
67778W        W39504  18.939  25.970   0.215
67779W        W39505  29.178  37.257  12.004
67780W        W39506  40.319  33.330  10.561
67781W        W39507  24.294   5.157   0.783
67782W        W39508   8.408  37.654  13.468
67783W        W39509  43.004  33.009  13.519
67784W        W39510  22.685  27.987  14.810
67785W        W39511  33.149   6.390  14.672
67786W        W39512  23.813  19.567   4.217
67787W        W39513  37.137  15.201   4.076
67788W        W39514  44.589  17.793   3.183
67789W        W39515  42.937  24.656  14.000
67790W        W39516  10.362  21.131  11.237
67791W        W39517   4.693   7.861   0.886
67792W        W39518  43.468  37.334  14.690
67793W        W39519  10.237   3.906  11.952
67794W        W39520  11.696  24.346  12.046
67795W        W39521   5.308  24.979  14.167
67796W        W39522  24.902   9.282   4.569
67797W        W39523  17.239  38.846  14.242
67798W        W39524   3.376  24.126  12.068
67799W        W39525   7.945  27.172  13.984
67800W        W39526   4.497  10.424   2.100
67801W        W39527  16.651  26.419  11.590
67802W        W39528   5.433  16.153   9.751
67803W        W39529  15.693  44.549  12.592
67804W        W39530  19.194  29.178  11.523
67805W        W39531   4.280  17.470  10.441
67806W        W39532  25.211  14.943   3.601
67807W        W39533  20.596  28.134   4.607
67808W        W39534  24.091  36.679   1.814
67809W        W39535  29.161  22.381   1.611
67810W        W39536  19.200  22.417  11.961
67811W        W39537  42.421  29.355  13.008
67812W        W39538   9.171   5.456   1.180
67813W        W39539  14.658  36.168   0.336
67814W        W39540  14.325  17.479  12.419
67815W        W39541   4.655  27.682   3.753
67816W        W39542  11.230  24.394  13.889
67817W        W39543  38.932  11.122   2.454
67818W        W39544   9.323  26.028  12.910
67819W        W39545  30.855  10.719   1.265
67820W        W39546   1.810  11.835  10.328
67821W        W39547  12.377  13.274   5.011
67822W        W39548   9.348  19.025  11.982
67823W        W39549   5.853  17.573  13.381
67824W        W39550  31.684  11.767   0.828
67825W        W39551  43.949  32.069  14.909
67826W        W39552  29.808  26.054  14.096
67827W        W39553   6.770   6.468   0.808
67828W        W39554  25.187   2.461  11.488
67829W        W39555  23.779  38.765  12.713
67830W        W39556   0.431  10.303  11.148
67831W        W39557   2.388  24.908  14.497
67832W        W39558  10.375   9.066  12.016
67833W        W39559  31.068  35.313   1.126
67834W        W39560  20.160   8.000   0.298
67835W        W39561  37.902   1.761  14.732
67836W        W39562  34.331   5.793  10.615
67837W        W39563  28.078  13.649  12.877
67838W        W39564  18.185  31.315   4.576
67839W        W39565  26.491  33.884   3.269
67840W        W39566  30.909  25.323  14.725
67841W        W39567  11.629  13.831  13.519
67842W        W39568  32.910  12.219  11.181
67843W        W39569  23.926  20.059   1.715
67844W        W39570  40.563   2.870  13.994
67845W        W39571   2.416  36.011   3.810
67846W        W39572  23.124  40.723  11.315
67847W        W39573  19.471   9.929  13.903
67848W        W39574  20.786  37.376  14.418
67849W        W39575  11.711  24.913   3.726
67850W        W39576  10.267   4.326  14.520
67851W        W39577  32.064  16.747   2.638
67852W        W39578  38.110   9.299   0.493
67853W        W39579  13.855  21.808  13.528
67854W        W39580   4.976  37.464   4.680
67855W        W39581   6.817  34.887  13.455
67856W        W39582  30.248   5.281   1.690
67857W        W39583  18.770  37.413   2.824
67858W        W39584  30.669   8.658   4.015
67859W        W39585   8.215  13.312  13.344
67860W        W39586  28.661  35.072  14.501
67861W        W39587  39.477  26.215  14.080
67862W        W39588  21.425  37.935  11.872
67863W        W39589   0.935   2.457  12.057
67864W        W39590  41.345  20.200  14.760
67865W        W39591  23.703   4.794  13.171
67866W        W39592  14.748  33.616   4.055
67867W        W39593  12.340   7.150  12.935
67868W        W39594  42.888  29.938  13.616
67869W        W39595   5.254   5.952  14.730
67870W        W39596  22.514   1.425   3.085
67871W        W39597  15.605   3.879  12.938
67872W        W39598  21.931  33.987   4.951
67873W        W39599   2.576  16.325  11.127
67874W        W39600  21.174  31.679  10.647
67875W        W39601  39.672  37.580   0.831
67876W        W39602  41.459  41.188  11.626
67877W        W39603  19.510  11.944  12.533
67878W        W39604  11.495  43.297   1.219
67879W        W39605  35.466  17.083   3.182
67880W        W39606  42.279  11.249   2.420
67881W        W39607  19.268  33.512   1.436
67882W        W39608   7.270   6.743  12.016
67883W        W39609  41.163  11.830  12.104
67884W        W39610  30.403  42.513   0.953
67885W        W39611   9.267  35.556  12.481
67886W        W39612  33.758   5.669   0.486
67887W        W39613  10.705  33.346  13.325
67888W        W39614   9.052  43.411  14.444
67889W        W39615  25.534   4.408  13.417
67890W        W39616   5.362  34.313  14.942
67891W        W39617   4.189  24.690  10.649
67892W        W39618  27.613  19.656  12.630
67893W        W39619  19.616  35.159  10.706
67894W        W39620  44.878   1.197  12.057
67895W        W39621  35.867  33.516  10.584
67896W        W39622  30.483  24.773   0.645
67897W        W39623  30.628  20.284   4.124
67898W        W39624  16.460   4.750   4.269
67899W        W39625  38.812  39.404   2.412
67900W        W39626  44.448  23.437   0.278
67901W        W39627  42.833  19.623  11.867
67902W        W39628  23.569   1.415   1.421
67903W        W39629   5.382  39.359  10.532
67904W        W39630  38.892  29.001   2.266
67905W        W39631  27.753   1.659  10.798
67906W        W39632   2.407  33.473  10.311
67907W        W39633   7.892   7.370  14.897
67908W        W39634  40.263  26.118   1.800
67909W        W39635  27.956  38.252   0.297
67910W        W39636  32.595   7.478   2.366
67911W        W39637  35.089  26.026  14.855
67912W        W39638  19.785  24.421  10.787
67913W        W39639  15.331   2.344   0.318
67914W        W39640  15.350   5.098   2.381
67915W        W39641  26.183  24.208   2.820
67916W        W39642   2.936  22.640  11.300
67917W        W39643   1.973  34.920  10.711
67918W        W39644  30.868   8.763   1.153
67919W        W39645   6.341   8.392   2.466
67920W        W39646  14.786  36.323  14.799
67921W        W39647   0.952   3.030   1.805
67922W        W39648   4.990  44.060   4.924
67923W        W39649  28.759  20.701   0.390
67924W        W39650  16.158  34.096   0.367
67925W        W39651  19.319  21.056  14.417
67926W        W39652  28.733  16.692  14.984
67927W        W39653  38.610  33.017  11.089
67928W        W39654  10.736  37.833   1.435
67929W        W39655   1.157  25.014  11.127
67930W        W39656   5.891  14.708  12.890
67931W        W39657   3.333   9.816  13.419
67932W        W39658  27.331  39.968   0.301
67933W        W39659   4.652  22.156   3.436
67934W        W39660  17.036   1.643  12.745
67935W        W39661  24.097  27.869   4.395
67936W        W39662  28.011  39.089   5.240
67937W        W39663  25.465  28.981  13.733
67938W        W39664  19.774  14.188  10.600
67939W        W39665  18.276  38.769  12.022
67940W        W39666  36.970  12.217   0.835
67941W        W39667  20.894  34.465   0.551
67942W        W39668  22.089  24.275  12.477
67943W        W39669  11.866  34.078  13.224
67944W        W39670  33.497  15.619   0.410
67945W        W39671  36.874  35.886   4.113
67946W        W39672  30.568   1.176  12.585
67947W        W39673   0.588  27.183   1.657
67948W        W39674  34.758  33.650  14.884
67949W        W39675  15.475   8.342   0.567
67950W        W39676   7.432  15.581  12.859
67951W        W39677  30.668   6.818  14.394
67952W        W39678  39.975  34.030   4.447
67953W        W39679  10.163  12.928   9.993
67954W        W39680  31.678  16.720  10.904
67955W        W39681  17.628  42.416   2.743
67956W        W39682   1.977  11.128  12.461
67957W        W39683  39.753  38.325  14.749
67958W        W39684  37.261  20.108   1.089
67959W        W39685   2.454  26.668  11.121
67960W        W39686   9.768  35.233   0.494
67961W        W39687  13.351  16.545  10.754
67962W        W39688   8.314   0.084  14.411
67963W        W39689   9.638  29.420   3.732
67964W        W39690  21.702   0.072   2.225
67965W        W39691  15.569  38.919  14.017
67966W        W39692  30.509  40.789  12.680
67967W        W39693  44.246  41.345  14.643
67968W        W39694  34.868  28.034  11.352
67969W        W39695  36.572   9.085   3.836
67970W        W39696  38.835  28.934  12.040
67971W        W39697   9.642  41.367  13.389
67972W        W39698  17.543  18.010  11.452
67973W        W39699  42.957  31.028  11.124
67974W        W39700  21.777  19.520   0.106
67975W        W39701  18.773  15.851   0.053
67976W        W39702  23.047  29.134  10.356
67977W        W39703  23.763  43.507  13.933
67978W        W39704   2.224   7.442  13.980
67979W        W39705  22.770  20.827   0.841
67980W        W39706   3.454  20.800  12.255
67981W        W39707  12.635  44.466  11.963
67982W        W39708  25.837  36.784   2.908
67983W        W39709  19.722  38.961   2.773
67984W        W39710  35.621  31.397  13.990
67985W        W39711  35.492  20.638  13.390
67986W        W39712  26.674  23.425   2.885
67987W        W39713  35.300  15.801   1.892
67988W        W39714  36.448  10.193   4.613
67989W        W39715  28.537  14.621   3.573
67990W        W39716  33.912  42.276   1.896
67991W        W39717  44.676  38.512  13.793
67992W        W39718  20.880  16.418   3.872
67993W        W39719  11.581  10.301  13.903
67994W        W39720  23.504  27.061  10.326
67995W        W39721   7.715   0.824   0.328
67996W        W39722  28.591  18.300   5.011
67997W        W39723  27.518  35.053  11.713
67998W        W39724  25.432  15.277  14.815
67999W        W39725  27.452   6.645   0.423
68000W        W39726   3.385  24.923   2.403
68001W        W39727  14.119  21.977  14.067
68002W        W39728  31.015  38.114  12.863
68003W        W39729  38.004   1.022  12.413
68004W        W39730  41.980   4.781   4.102
68005W        W39731  38.912   7.783  10.945
68006W        W39732  14.329  22.668  12.013
68007W        W39733  32.718  25.954  12.555
68008W        W39734   2.867  19.505  11.107
68009W        W39735  32.899  15.304   1.705
68010W        W39736   9.260   6.915  13.046
68011W        W39737  22.362  44.721  11.598
68012W        W39738  15.361  25.939   0.031
68013W        W39739  30.536  33.130  14.453
68014W        W39740   8.248  38.537   2.533
68015W        W39741  33.969  32.423  10.986
68016W        W39742  18.959  35.457  12.473
68017W        W39743  15.130  26.552   4.711
68018W        W39744  13.035  34.966  14.908
68019W        W39745  42.808  27.444   2.719
68020W        W39746  20.015  21.456   3.442
68021W        W39747   2.498  12.302   3.063
68022W        W39748  17.606  26.460   4.035
68023W        W39749   8.469   1.494  12.922
68024W        W39750  40.468  29.525   0.881
68025W        W39751   9.910  16.276  13.686
68026W        W39752  38.437  41.739   0.695
68027W        W39753   9.751  28.740   0.979
68028W        W39754   7.853  14.483  12.376
68029W        W39755  23.454  15.636   0.655
68030W        W39756  32.530  25.252   1.781
68031W        W39757  22.057  32.919   0.198
68032W        W39758  18.145  12.569  13.128
68033W        W39759  32.486  11.951  12.215
68034W        W39760  11.349  23.048   4.504
68035W        W39761  23.956  28.024  10.831
68036W        W39762  29.634   7.281  10.745
68037W        W39763   1.907   3.130   3.146
68038W        W39764  11.360  27.425  10.400
68039W        W39765  21.325  11.923   0.380
68040W        W39766  12.891  15.010  14.078
68041W        W39767  43.554  32.993  11.503
68042W        W39768   5.844  18.028   0.962
68043W        W39769  23.606   0.494  10.629
68044W        W39770  29.919  20.233  12.945
68045W        W39771  30.628   4.356  12.898
68046W        W39772  13.220   0.413  12.447
68047W        W39773   2.811   5.824   2.174
68048W        W39774  22.505  11.199  14.382
68049W        W39775  38.060  26.040  13.876
68050W        W39776   8.416  11.437   4.146
68051W        W39777  35.360  34.331  14.778
68052W        W39778  12.710  38.758   2.318
68053W        W39779  21.121  27.515   4.167
68054W        W39780  29.893   6.698   0.039
68055W        W39781  20.775  24.013   1.453
68056W        W39782  41.529  31.664   4.556
68057W        W39783  39.097   7.836  12.583
68058W        W39784   6.275  25.766   0.857
68059W        W39785  19.984   3.681   0.331
68060W        W39786   3.392   0.061  11.370
68061W        W39787  38.470  23.578  10.705
68062W        W39788   2.199  43.848  12.228
68063W        W39789   9.641  43.427  10.714
68064W        W39790  30.538  19.459  14.002
68065W        W39791   2.403  10.204   0.379
68066W        W39792  36.516  12.538   2.474
68067W        W39793  27.733   8.915  14.810
68068W        W39794  34.605  27.206   4.164
68069W        W39795   3.374   9.598   0.302
68070W        W39796  16.363  39.851   3.599
68071W        W39797  40.071  15.117   3.211
68072W        W39798   2.943  35.833   1.622
68073W        W39799  41.896   6.820   3.704
68074W        W39800  44.988  34.411   0.778
68075W        W39801  41.365  28.025   0.828
68076W        W39802  20.571  19.089  13.882
68077W        W39803  23.582  15.084   4.561
68078W        W39804  15.143  39.112  12.760
68079W        W39805  27.190  22.431  14.392
68080W        W39806  28.984   9.316  11.546
68081W        W39807  19.732   9.462   4.210
68082W        W39808  24.194  20.111   0.322
68083W        W39809  22.513  33.391   0.758
68084W        W39810   3.844   1.844   1.472
68085W        W39811   3.873   1.214  13.947
68086W        W39812  11.974  29.327   4.252
68087W        W39813   8.296  22.881  11.677
68088W        W39814  28.348  10.550   1.238
68089W        W39815  42.162   3.875   3.573
68090W        W39816  28.960  12.046  13.941
68091W        W39817  26.950  44.771   4.611
68092W        W39818  25.571   7.405   0.022
68093W        W39819   8.485  33.858   4.469
68094W        W39820  41.318   1.790  11.605
68095W        W39821  42.811  27.599   4.288
68096W        W39822  36.550  41.798   0.608
68097W        W39823  38.575  20.235  14.155
68098W        W39824  38.610   2.875  14.031
68099W        W39825   3.948   0.695  13.943
68100W        W39826  38.658   3.641  14.319
68101W        W39827   8.805   0.997   2.982
68102W        W39828  39.095  42.787   1.182
68103W        W39829  42.803  16.284   3.377
68104W        W39830  11.853  39.991   3.151
68105W        W39831  41.021   1.466   4.732
68106W        W39832  35.678  40.878  11.543
68107W        W39833  24.391   4.397   0.101
68108W        W39834  21.010  28.093  13.474
68109W        W39835  18.159   6.776  14.115
68110W        W39836  20.198  12.774   3.687
68111W        W39837  30.599  20.961  11.157
68112W        W39838  16.212  37.552   3.080
68113W        W39839   2.956  37.229   5.133
68114W        W39840  10.268  23.490  12.587
68115W        W39841   6.227  21.734   1.296
68116W        W39842  25.970  41.554   2.974
68117W        W39843  26.063  42.150  14.352
68118W        W39844  25.222   6.619  13.988
68119W        W39845  34.443  32.026   1.039
68120W        W39846  13.888  14.905  11.043
68121W        W39847  38.078  34.894   0.718
68122W        W39848  21.086  11.932   1.962
68123W        W39849  28.721  39.548  13.313
68124W        W39850  37.824   6.832  11.431
68125W        W39851  14.040  27.486   0.444
68126W        W39852   9.747  35.195   4.256
68127W        W39853  19.162  19.734   3.652
68128W        W39854  42.955  33.859   1.445
68129W        W39855  44.341  17.965  10.786
68130W        W39856  37.503  12.049  12.142
68131W        W39857   1.310  13.852   1.437
68132W        W39858   2.915  27.694  13.030
68133W        W39859  14.739  19.829   0.741
68134W        W39860   1.744  29.155   2.584
68135W        W39861  25.932   7.735   1.905
68136W        W39862  25.535  29.041   0.237
68137W        W39863  43.796  19.112   1.513
68138W        W39864  34.964  26.829  10.171
68139W        W39865  10.846  26.872  12.878
68140W        W39866   7.749  17.660  13.368
68141W        W39867  11.244   4.357   0.996
68142W        W39868  13.439  26.830   2.337
68143W        W39869  16.038  39.079  13.049
68144W        W39870  42.310   9.779   3.130
68145W        W39871  14.592   1.910   4.596
68146W        W39872  31.926  40.519  12.960
68147W        W39873  14.732   4.903   1.561
68148W        W39874  30.156  42.404  13.774
68149W        W39875  43.958  22.171  12.498
68150W        W39876  33.014  38.366  13.478
68151W        W39877  43.965  34.908   0.746
68152W        W39878  15.068  40.298  11.968
68153W        W39879  31.056  37.121  11.937
68154W        W39880  16.760  22.756   2.391
68155W        W39881  34.582  37.330   2.356
68156W        W39882  44.002   3.291   4.584
68157W        W39883  16.661  39.568  11.942
68158W        W39884   7.780   9.140  13.289
68159W        W39885  23.086  29.115  13.543
68160W        W39886  24.098  39.942  14.511
68161W        W39887  17.090  32.530  13.802
68162W        W39888  16.317   3.471  12.923
68163W        W39889  32.328  34.732  14.904
68164W        W39890  31.569  37.596   1.968
68165W        W39891   1.556  32.305   2.794
68166W        W39892  27.363  13.271   4.129
68167W        W39893  23.757  25.628  14.505
68168W        W39894  11.633   4.440  13.368
68169W        W39895  39.858  12.238   0.729
68170W        W39896  13.627  44.274   2.468
68171W        W39897  39.080  36.891  13.959
68172W        W39898  39.099  27.433   4.569
68173W        W39899  21.228  33.636   2.256
68174W        W39900  16.869   5.801   3.255
68175W        W39901   7.311  19.676  14.208
68176W        W39902  37.440   9.173   3.603
68177W        W39903  20.792  17.567   4.843
68178W        W39904  24.530   5.507  13.054
68179W        W39905  10.243  32.771   4.142
68180W        W39906   2.220  39.222  11.956
68181W        W39907  31.961  29.242   0.920
68182W        W39908  20.320   6.702   3.431
68183W        W39909  15.717  37.515  10.252
68184W        W39910  28.370  10.311  11.855
68185W        W39911  24.469  35.385  10.465
68186W        W39912   7.000  29.483  10.566
68187W        W39913  12.719   1.293  11.554
68188W        W39914  15.349   6.274  14.841
68189W        W39915  24.762   1.611  12.093
68190W        W39916  43.263  36.999  14.310
68191W        W39917  41.240  34.207   1.780
68192W        W39918  21.718  37.843   4.476
68193W        W39919  31.635  35.058   4.580
68194W        W39920  41.772  16.635   0.531
68195W        W39921  23.551  12.592   0.766
68196W        W39922  15.687  12.652   0.291
68197W        W39923  41.705  11.121   1.347
68198W        W39924   3.008   3.347   2.479
68199W        W39925  14.619  10.726  14.124
68200W        W39926   8.366  29.434   1.005
68201W        W39927  34.598  42.000  13.782
68202W        W39928   9.903  25.023  13.899
68203W        W39929  36.456  35.036   1.335
68204W        W39930   3.547  41.757   1.754
68205W        W39931  40.527   3.699  13.519
68206W        W39932  26.156  27.648  11.378
68207W        W39933   4.407   0.526  10.296
68208W        W39934  23.222  42.578  14.316
68209W        W39935  21.605  23.752   1.969
68210W        W39936  20.852  37.870   4.212
68211W        W39937  39.626  30.054   4.348
68212W        W39938  21.668  31.397  11.484
68213W        W39939  19.579  30.926  14.413
68214W        W39940  28.967   7.943  11.151
68215W        W39941  11.306  11.636   0.285
68216W        W39942  38.841  44.840   3.257
68217W        W39943   4.033  15.409   3.311
68218W        W39944  26.513  22.764  14.976
68219W        W39945  11.451  39.816  13.932
68220W        W39946   7.238  19.274   4.295
68221W        W39947  20.252  15.559  13.075
68222W        W39948   4.538  17.274  14.669
68223W        W39949  32.315  31.122   4.342
68224W        W39950   9.661   6.402  10.936
68225W        W39951   6.741   0.986   0.847
68226W        W39952  33.506  18.500   1.173
68227W        W39953  31.692   9.683  13.353
68228W        W39954  39.092  21.027   1.325
68229W        W39955   4.690  30.132  10.746
68230W        W39956   1.370  23.172   4.521
68231W        W39957  11.859  23.114   3.839
68232W        W39958  42.102   8.403   0.925
68233W        W39959  19.712  33.028  11.955
68234W        W39960  27.073  23.558  13.459
68235W        W39961  28.091  18.318  11.284
68236W        W39962  41.109  15.395   1.818
68237W        W39963  38.041   4.120   3.172
68238W        W39964  11.216   1.909  14.993
68239W        W39965  15.174   1.742  14.360
68240W        W39966  29.549  22.186   2.836
68241W        W39967  24.512  11.824   0.355
68242W        W39968   4.003   7.989  14.454
68243W        W39969  31.221  30.068  14.337
68244W        W39970  19.213  34.344  12.793
68245W        W39971   7.792  24.615   0.934
68246W        W39972   5.254   8.778  13.986
68247W        W39973  35.390  25.006   3.349
68248W        W39974   7.286  11.648   0.854
68249W        W39975  28.928  35.965   4.254
68250W        W39976  33.899   4.259   4.573
68251W        W39977  27.456  11.100  13.571
68252W        W39978  43.021  13.248  12.821
68253W        W39979  40.366  33.021   2.817
68254W        W39980  20.204   2.688  11.525
68255W        W39981  31.650   9.949   1.718
68256W        W39982   2.522  28.009  13.176
68257W        W39983  13.244  21.697   0.515
68258W        W39984  42.397  41.443   0.054
68259W        W39985  11.305  18.156  11.523
68260W        W39986  11.662  31.501   3.253
68261W        W39987  23.288   9.363   0.346
68262W        W39988  19.684  19.436  14.462
68263W        W39989   9.386  12.123  10.623
68264W        W39990  15.557  42.913  10.547
68265W        W39991  26.584  39.516  12.852
68266W        W39992   9.820  32.990  12.935
68267W        W39993  25.675  31.837  13.381
68268W        W39994  20.666  41.348  13.203
68269W        W39995   0.991  12.134   1.408
68270W        W39996  12.742   5.482  13.488
68271W        W39997  20.338  32.025   1.289
68272W        W39998  19.856  17.203   0.698
68273W        W39999   6.257  21.497  13.874
68274W        W40000  12.512  42.860   4.641
68275W        W40001   5.767  40.841  14.374
68276W        W40002  38.740  14.215   2.775
68277W        W40003  35.683  20.975  12.054
68278W        W40004  10.931  22.371   1.638
68279W        W40005   9.882  34.130  12.830
68280W        W40006  44.102  37.060  12.061
68281W        W40007   8.399  23.482   2.830
68282W        W40008   1.351  21.950  12.542
68283W        W40009   0.429   5.243  12.924
68284W        W40010  28.909  42.410  14.463
68285W        W40011  24.018  41.825   0.456
68286W        W40012   4.222  23.302   3.134
68287W        W40013  25.978  19.701  11.960
68288W        W40014  32.997  13.611   2.877
68289W        W40015  26.439  37.509  14.249
68290W        W40016  15.278   3.535  13.122
68291W        W40017   0.955  15.191   2.205
68292W        W40018  30.447  26.167   5.062
68293W        W40019   4.727  25.154   0.388
68294W        W40020   0.875  31.623   4.427
68295W        W40021  19.540  31.923   2.256
68296W        W40022  38.082  18.505  13.011
68297W        W40023  15.658  36.807   1.635
68298W        W40024  32.409   2.625  14.411
68299W        W40025  33.313  30.666   2.743
68300W        W40026   5.432  21.669  11.605
68301W        W40027  30.938  27.931   1.222
68302W        W40028  42.141  22.505   3.797
68303W        W40029  19.358  32.183   1.421
68304W        W40030   3.092  22.160   3.705
68305W        W40031   8.646   4.304  11.322
68306W        W40032   7.939   3.299  12.124
68307W        W40033   2.909  13.758  12.593
68308W        W40034   3.068  19.651   4.618
68309W        W40035  36.844   1.515  12.198
68310W        W40036  39.618   4.492  14.818
68311W        W40037  28.655  13.384   1.716
68312W        W40038   7.068   7.431   4.216
68313W        W40039   5.141  43.889  11.101
68314W        W40040  29.955  37.344   0.328
68315W        W40041  17.754  18.451  12.601
68316W        W40042   7.172  42.880  13.428
68317W        W40043   4.789  14.225  13.153
68318W        W40044  31.030   9.293  14.307
68319W        W40045   3.775  25.675   2.847
68320W        W40046   3.389  35.186   5.030
68321W        W40047  12.689  29.954  12.045
68322W        W40048  14.142  24.278   0.797
68323W        W40049  33.968  44.222   0.927
68324W        W40050  19.327   0.394  12.053
68325W        W40051   5.181  29.072  10.692
68326W        W40052  22.165  23.618  10.787
68327W        W40053  38.946  14.289   0.738
68328W        W40054  38.100  39.024   3.625
68329W        W40055  23.114   2.188   3.145
68330W        W40056   3.388  25.592  11.201
68331W        W40057  20.774  19.591  13.068
68332W        W40058  43.888  30.634   3.506
68333W        W40059   0.380  41.505   0.392
68334W        W40060  41.460  25.573   0.065
68335W        W40061   1.289  21.678  12.098
68336W        W40062  12.104  17.274  14.974
68337W        W40063  36.621  36.203  10.668
68338W        W40064  19.726  40.053  12.078
68339W        W40065  18.075   4.768   3.705
68340W        W40066  41.900  20.322  12.601
68341W        W40067  16.568  10.128  13.920
68342W        W40068  23.817  39.619  12.512
68343W        W40069   3.264  24.689   1.936
68344W        W40070  13.654  16.338   1.334
68345W        W40071   8.117  20.411   3.707
68346W        W40072  34.448   4.851  11.675
68347W        W40073   8.585   3.850   1.921
68348W        W40074  43.206   8.448  14.831
68349W        W40075   5.853  13.353   4.792
68350W        W40076  24.244  33.870   4.642
68351W        W40077  23.961  25.043   1.338
68352W        W40078  34.164  39.747  12.071
68353W        W40079  18.389  13.369  13.523
68354W        W40080   9.890  40.361  14.430
68355W        W40081  23.715  36.308   3.435
68356W        W40082  41.130  19.576  14.966
68357W        W40083  39.837  44.047  11.036
68358W        W40084   3.215  37.944  13.518
68359W        W40085  35.605  13.680   4.411
68360W        W40086  20.513  31.665   0.053
68361W        W40087  29.427  15.331   4.607
68362W        W40088   1.190   8.606  13.391
68363W        W40089   6.195  30.182   0.527
68364W        W40090  39.048   9.104   4.338
68365W        W40091  43.348  19.385   4.188
68366W        W40092   8.253  14.043  10.707
68367W        W40093  13.743  23.788   4.701
68368W        W40094  21.776  21.058   2.335
68369W        W40095  44.048  39.588  11.550
68370W        W40096  32.587   2.404  11.929
68371W        W40097   0.282  22.494  10.682
68372W        W40098  37.913  32.899   4.398
68373W        W40099  13.108   1.670   4.377
68374W        W40100   3.649  23.989   4.083
68375W        W40101  18.573   8.413  13.789
68376W        W40102  19.474  31.597  12.912
68377W        W40103   1.274  14.891  13.562
68378W        W40104  25.783  29.134  12.866
68379W        W40105  21.993  37.830  11.689
68380W        W40106   5.943  22.176   1.206
68381W        W40107  12.744  30.560  14.924
68382W        W40108  22.562  34.470   1.256
68383W        W40109  32.752  42.332  10.614
68384W        W40110   7.177  20.968   3.660
68385W        W40111   8.134  29.729  12.849
68386W        W40112  41.419  13.696   2.480
68387W        W40113  18.132   5.231   4.646
68388W        W40114   1.818  11.299  13.503
68389W        W40115  37.467  20.345  10.546
68390W        W40116  34.195  44.804   2.878
68391W        W40117  17.393  18.531  13.440
68392W        W40118  10.179  27.824   2.868
68393W        W40119  14.680  18.496   0.327
68394W        W40120   8.281   2.447   0.002
68395W        W40121  36.796  19.009  14.762
68396W        W40122  21.614  31.730  13.388
68397W        W40123  39.293  41.343  12.923
68398W        W40124   0.785  43.385   4.965
68399W        W40125   5.905  32.080   1.699
68400W        W40126  33.970  28.531  14.650
68401W        W40127  41.664  15.792  10.469
68402W        W40128  13.265   1.545  13.477
68403W        W40129  41.003  39.095  12.409
68404W        W40130  36.278  34.514   4.863
68405W        W40131  27.553  19.590   3.349
68406W        W40132  37.835   9.283  10.447
68407W        W40133  16.396  30.671  11.183
68408W        W40134  22.617   2.381   3.926
68409W        W40135   2.270   7.443   1.794
68410W        W40136  12.771  31.335   0.287
68411W        W40137  16.501   7.297   4.274
68412W        W40138  41.029  36.583  12.708
68413W        W40139  35.969   4.275  13.214
68414W        W40140  28.839  44.233  14.432
68415W        W40141  33.055  26.092  10.339
68416W        W40142   8.815  12.788   0.810
68417W        W40143  13.509  22.681   2.964
68418W        W40144  16.852  27.918   2.764
68419W        W40145  33.576  42.968   4.962
68420W        W40146  38.728  38.075   4.577
68421W        W40147  22.677  26.439   4.601
68422W        W40148  13.669  23.592  14.297
68423W        W40149  16.012  31.460  13.021
68424W        W40150   7.875  11.326   4.757
68425W        W40151   2.379  16.727  11.956
68426W        W40152  34.054  23.282  14.934
68427W        W40153  17.540   2.413  14.948
68428W        W40154  26.824  14.084  12.980
68429W        W40155   9.901  17.663   2.720
68430W        W40156  18.702  15.323   0.055
68431W        W40157   1.447  26.922  12.315
68432W        W40158  21.033  23.597   1.249
68433W        W40159  12.627  30.640   3.555
68434W        W40160  27.277  25.268  11.090
68435W        W40161  11.122  25.184  13.152
68436W        W40162  20.319  36.444   2.012
68437W        W40163  15.566  41.935   2.811
68438W        W40164   6.802  21.719  12.882
68439W        W40165  38.031  15.169  14.232
68440W        W40166  23.185  44.943   3.154
68441W        W40167  24.972  25.105  14.396
68442W        W40168   5.539  39.044   3.095
68443W        W40169  43.915  10.622   2.698
68444W        W40170  29.484  37.410  10.490
68445W        W40171  12.708  16.016  13.386
68446W        W40172  21.622  33.986   0.549
68447W        W40173  18.501  25.035   4.429
68448W        W40174  11.693  30.351  12.932
68449W        W40175  35.133  43.403  12.178
68450W        W40176  10.192  28.669   0.711
68451W        W40177  28.094  21.987  14.325
68452W        W40178  41.607  28.112  11.169
68453W        W40179   9.857  31.377   3.250
68454W        W40180  15.660   4.154  13.353
68455W        W40181  10.841  28.894  13.710
68456W        W40182  12.679  10.301  12.181
68457W        W40183  25.522   5.322   0.281
68458W        W40184   7.323   8.923   0.787
68459W        W40185  16.068  22.888   2.795
68460W        W40186  25.187  18.842  13.416
68461W        W40187  35.658  15.033   3.229
68462W        W40188  13.056   0.018  13.996
68463W        W40189  13.856  32.311  14.070
68464W        W40190  12.086  28.649   3.664
68465W        W40191  17.309  43.221   4.431
68466W        W40192  31.390   0.281   0.952
68467W        W40193  25.418  35.539  14.996
68468W        W40194  14.213  40.291   0.687
68469W        W40195  30.982  10.909  12.992
68470W        W40196   6.125  13.870  14.248
68471W        W40197  26.598   3.713   0.445
68472W        W40198  34.131   5.819   2.966
68473W        W40199   1.986  22.040  13.488
68474W        W40200  39.337  28.201   3.730
68475W        W40201  24.143   3.984   3.251
68476W        W40202   9.114   8.786   3.571
68477W        W40203  23.777  19.158  11.237
68478W        W40204   2.209   3.956  12.481
68479W        W40205  23.714  27.498  10.198
68480W        W40206  14.380  27.502  10.942
68481W        W40207  25.064  13.350   2.515
68482W        W40208  17.736   4.376   1.761
68483W        W40209  33.568  38.327   2.314
68484W        W40210  30.537  13.330  11.627
68485W        W40211  21.563   1.757  13.869
68486W        W40212   4.962  22.958  12.125
68487W        W40213  12.269  33.891   3.742
68488W        W40214  37.088  35.484  11.803
68489W        W40215  16.770  30.409  14.495
68490W        W40216  44.907  40.352   0.820
68491W        W40217   9.551  23.058  14.416
68492W        W40218  21.610  31.928  11.511
68493W        W40219  16.195   4.857  12.288
68494W        W40220   6.174  21.343   4.652
68495W        W40221  40.940  42.516   1.315
68496W        W40222  24.128  22.336   1.711
68497W        W40223   0.850   2.738   3.580
68498W        W40224  41.550  14.869   0.183
68499W        W40225  43.992   4.995   3.292
68500W        W40226  43.080  30.177   3.210
68501W        W40227  20.856  37.333   1.794
68502W        W40228  42.821  32.419  14.052
68503W        W40229  18.226  12.669   2.255
68504W        W40230  11.650   8.851   4.479
68505W        W40231  20.357  27.976   1.912
68506W        W40232  30.251  41.157   4.862
68507W        W40233  18.073  39.488  11.522
68508W        W40234  32.410   5.362  12.889
68509W        W40235   2.158  25.967   0.357
68510W        W40236  44.407  12.680  11.574
68511W        W40237  25.064  33.071   0.212
68512W        W40238  43.871  37.761   1.190
68513W        W40239  27.448  39.172   0.057
68514W        W40240  30.434  34.128  10.751
68515W        W40241  41.030  32.594   2.240
68516W        W40242  35.567   1.951   0.723
68517W        W40243  23.590   1.515   0.736
68518W        W40244  12.119  37.967   4.055
68519W        W40245  39.784  25.666  13.011
68520W        W40246  34.921   0.552   2.201
68521W        W40247  34.780  18.133   4.847
68522W        W40248  44.579  15.893   0.340
68523W        W40249  21.056  34.932   2.738
68524W        W40250  20.561  22.550  11.080
68525W        W40251  11.415  12.150   0.350
68526W        W40252  29.323  28.408   3.308
68527W        W40253   6.162  33.733   1.358
68528W        W40254   1.725  30.463   3.763
68529W        W40255   2.012  44.734   4.557
68530W        W40256  33.064  10.873  10.760
68531W        W40257  30.581  37.004  11.266
68532W        W40258   2.095  30.703  14.135
68533W        W40259  12.547  22.019   0.066
68534W        W40260   4.405  22.636   3.731
68535W        W40261  28.546  44.970   1.387
68536W        W40262  22.706  22.648  14.964
68537W        W40263  10.187  15.795  11.693
68538W        W40264  20.673  31.592   2.467
68539W        W40265   8.309  30.632   1.591
68540W        W40266  41.778  19.256  14.424
68541W        W40267  39.126  39.173  13.047
68542W        W40268   2.348  34.939  14.414
68543W        W40269  10.823  42.813  14.932
68544W        W40270   6.978  13.800   2.332
68545W        W40271   9.520  18.866  12.481
68546W        W40272  16.101  27.639   4.083
68547W        W40273  43.366  21.831  11.951
68548W        W40274   1.179   8.000   1.349
68549W        W40275   9.887  28.633  13.636
68550W        W40276   4.384  15.646   0.487
68551W        W40277   6.367  41.855   1.259
68552W        W40278  41.830  40.291  10.589
68553W        W40279   8.922   6.672  11.855
68554W        W40280  33.000  39.427  12.536
68555W        W40281  24.976  44.821   0.740
68556W        W40282  40.338  33.477  12.385
68557W        W40283  20.040   6.680  10.966
68558W        W40284  33.384  27.225  12.905
68559W        W40285   2.585  28.908  13.556
68560W        W40286  18.007  40.579   4.285
68561W        W40287  42.342  35.789  14.808
68562W        W40288  28.809  37.341  13.000
68563W        W40289  15.544  35.077  14.025
68564W        W40290  30.437  31.687   3.314
68565W        W40291   8.317  28.205   0.092
68566W        W40292  40.787  33.153   0.101
68567W        W40293  37.556  30.938   0.491
68568W        W40294  24.418  27.124   0.737
68569W        W40295  28.069  40.443   0.667
68570W        W40296  28.169  18.654  12.522
68571W        W40297  29.718  44.810   4.030
68572W        W40298  27.341  21.410   1.828
68573W        W40299  28.183  36.408  13.946
68574W        W40300   5.639  14.780   4.807
68575W        W40301  12.837  11.384   4.523
68576W        W40302  39.107  18.793   1.258
68577W        W40303  42.579  29.606   0.716
68578W        W40304  27.613  40.990  14.085
68579W        W40305  14.394  35.751   0.200
68580W        W40306  12.699  29.000  12.600
68581W        W40307  34.520  30.178   0.850
68582W        W40308   8.443  31.205   4.701
68583W        W40309  40.353  42.912   3.094
68584W        W40310  14.390   4.792   2.672
68585W        W40311  35.862  44.206   0.904
68586W        W40312   4.359  33.871   1.839
68587W        W40313  33.659  20.563  14.903
68588W        W40314  43.498  24.059   4.115
68589W        W40315  26.713  21.603  12.187
68590W        W40316  20.578  10.365   3.059
68591W        W40317  44.953  33.012  13.447
68592W        W40318   3.183  28.755   3.673
68593W        W40319  33.604   2.162   4.121
68594W        W40320  43.844  26.127   3.171
68595W        W40321  38.828  36.196  12.995
68596W        W40322  10.818   1.466  10.607
68597W        W40323  39.145  39.347   4.255
68598W        W40324   1.993  43.518  12.559
68599W        W40325  37.968  35.759   2.676
68600W        W40326  36.098  37.029   1.801
68601W        W40327  42.351  21.126   1.314
68602W        W40328   7.622  16.482  13.695
68603W        W40329  44.882  32.858  11.537
68604W        W40330  32.590  15.555   1.324
68605W        W40331  32.994   1.164  11.956
68606W        W40332  28.884  44.721   2.779
68607W        W40333  39.507  35.354   2.660
68608W        W40334  27.629  28.453   3.930
68609W        W40335  43.878  13.031  14.314
68610W        W40336  22.630  21.859   4.644
68611W        W40337   3.933  41.233   2.901
68612W        W40338  41.373  43.813   1.016
68613W        W40339  38.419   3.085  12.998
68614W        W40340  15.577  21.226   0.363
68615W        W40341  31.182  38.942   2.938
68616W        W40342  24.860  38.891   1.363
68617W        W40343  20.024  36.345  14.418
68618W        W40344  19.394  23.853   0.440
68619W        W40345  11.873  10.758   3.053
68620W        W40346  36.544  29.237  12.445
68621W        W40347  18.504  30.075  13.835
68622W        W40348  28.323  36.493   0.781
68623W        W40349  20.844   6.319   4.613
68624W        W40350   7.704  35.086   3.159
68625W        W40351  10.206   3.125   1.159
68626W        W40352   5.862   0.803   0.160
68627W        W40353  13.163  28.988   3.178
68628W        W40354  14.086  37.278   0.478
68629W        W40355  23.313  43.518   4.645
68630W        W40356  21.164  41.888  12.301
68631W        W40357  42.479  23.421   0.559
68632W        W40358  14.331  33.952  11.167
68633W        W40359   5.297  43.713   3.824
68634W        W40360  27.531  36.036   2.368
68635W        W40361  16.035  41.921   3.100
68636W        W40362  29.602  21.002  11.650
68637W        W40363  43.479  21.574   2.396
68638W        W40364  42.481   2.523   0.460
68639W        W40365  34.016  27.087   2.651
68640W        W40366  12.115  14.693  10.509
68641W        W40367  39.827  31.648   3.964
68642W        W40368  28.295  13.344  14.916
68643W        W40369  36.010  25.257  14.270
68644W        W40370  27.844  36.657  10.940
68645W        W40371  25.525  24.685   0.038
68646W        W40372  40.361  17.181  12.888
68647W        W40373  37.477  12.092   1.378
68648W        W40374   6.781  32.067  11.553
68649W        W40375   5.726  44.229   0.189
68650W        W40376  25.663  40.280  10.799
68651W        W40377   1.712  12.710   1.498
68652W        W40378  37.851  38.826   3.224
68653W        W40379  13.047  13.539   3.263
68654W        W40380  16.271  19.082  13.064
68655W        W40381  21.606   9.069   4.722
68656W        W40382  16.852  40.295  12.585
68657W        W40383  36.694  14.378  11.646
68658W        W40384  28.064   6.822  13.378
68659W        W40385  35.075  31.233  11.168
68660W        W40386  15.605  19.307  12.841
68661W        W40387  15.139  25.011   0.795
68662W        W40388  17.855   1.858   3.202
68663W        W40389  41.191  12.864   0.226
68664W        W40390  24.781  41.739   4.140
68665W        W40391  11.454  22.183  11.863
68666W        W40392  28.967   7.229   0.392
68667W        W40393  41.562  37.365  12.347
68668W        W40394  33.354  35.996  14.492
68669W        W40395  35.100  23.191  13.023
68670W        W40396  19.394  27.236   4.145
68671W        W40397  40.823  30.740   1.614
68672W        W40398  32.368  18.050   3.647
68673W        W40399  39.356  29.368   1.495
68674W        W40400  32.043  22.101  10.965
68675W        W40401  44.713  36.606  13.003
68676W        W40402  23.554  20.223  12.013
68677W        W40403  14.742  16.039   4.917
68678W        W40404  27.090   4.837   0.447
68679W        W40405  30.215  22.672   5.103
68680W        W40406  12.152  15.254   4.807
68681W        W40407  13.722  22.289   4.555
68682W        W40408  12.633  39.137  13.882
68683W        W40409  34.046   4.283   1.943
68684W        W40410  29.680  20.141  13.391
68685W        W40411  35.918  38.081  11.702
68686W        W40412  36.373  33.266  13.742
68687W        W40413  44.444  18.243   2.308
68688W        W40414  24.268   6.390  11.606
68689W        W40415  24.258  39.217   0.745
68690W        W40416  22.825   2.791   1.735
68691W        W40417  30.858   3.450  12.459
68692W        W40418  27.170   3.607  10.454
68693W        W40419  15.053   1.813   3.671
68694W        W40420  25.136  16.373  11.637
68695W        W40421  21.590   7.483  10.382
68696W        W40422  13.283  13.025  11.213
68697W        W40423   2.665  34.856  11.330
68698W        W40424  29.458  26.116   1.299
68699W        W40425   5.882  44.277  11.428
68700W        W40426  22.595  40.303   2.583
68701W        W40427   8.620   4.406   3.290
68702W        W40428  15.367  42.360   1.909
68703W        W40429  36.324  29.490   4.667
68704W        W40430  26.151   1.254  12.401
68705W        W40431  19.327  35.016  14.378
68706W        W40432   5.241  27.961   3.083
68707W        W40433  30.354   1.939   3.388
68708W        W40434  15.084  35.641   1.730
68709W        W40435  28.651  15.533   1.820
68710W        W40436   6.809  26.547  11.689
68711W        W40437  12.830   2.297   4.623
68712W        W40438   6.556   4.466   0.892
68713W        W40439   6.807  38.377   1.323
68714W        W40440  14.714  26.590  14.008
68715W        W40441  37.403  15.250   2.231
68716W        W40442  12.630  31.638  14.889
68717W        W40443  22.099  16.518   0.353
68718W        W40444  28.017  12.893  14.370
68719W        W40445   4.263   7.445  12.018
68720W        W40446  20.612  38.558   3.278
68721W        W40447  39.671  13.286   1.373
68722W        W40448  11.170  38.510   2.797
68723W        W40449  32.922  12.989  12.863
68724W        W40450  14.471  10.695   4.111
68725W        W40451   8.333  35.396   9.869
68726W        W40452  13.067  13.336  11.610
68727W        W40453  32.144  44.222   5.022
68728W        W40454   4.208   8.836  11.177
68729W        W40455  15.973  33.974  11.896
68730W        W40456   3.461   2.822  10.704
68731W        W40457   2.018  17.514  13.434
68732W        W40458  23.281   9.757  14.513
68733W        W40459  34.457   4.253  12.397
68734W        W40460  11.740  17.967   1.234
68735W        W40461   0.349  42.523  11.844
68736W        W40462  37.730  24.947   2.241
68737W        W40463   0.961   5.320  12.889
68738W        W40464  26.639  27.481   1.782
68739W        W40465   6.297  17.713   2.681
68740W        W40466  18.313   7.236  14.335
68741W        W40467  37.579  17.712   4.807
68742W        W40468  37.834  27.147   0.022
68743W        W40469   2.786  20.532  11.246
68744W        W40470  14.888   1.512  12.577
68745W        W40471  24.638  18.342   0.339
68746W        W40472   6.215  36.159   3.282
68747W        W40473  30.645  36.106   0.392
68748W        W40474  30.008  30.380  12.613
68749W        W40475  43.722  21.034  12.698
68750W        W40476  36.897  15.872  11.174
68751W        W40477   0.253  31.103  11.900
68752W        W40478   1.695   1.509  14.499
68753W        W40479  22.255  38.506  13.361
68754W        W40480  14.235  17.753   1.388
68755W        W40481  20.105  27.886   0.851
68756W        W40482   9.420  10.379  11.078
68757W        W40483  42.690  41.533   9.860
68758W        W40484   9.396  14.337  14.422
68759W        W40485  40.239  27.751  10.731
68760W        W40486  38.815  18.945  14.972
68761W        W40487   6.106  22.954   1.666
68762W        W40488  23.830  13.841   0.948
68763W        W40489   1.461  37.415  13.393
68764W        W40490  39.409  20.551  14.322
68765W        W40491  37.544  42.907  13.970
68766W        W40492  42.886  20.770  14.346
68767W        W40493  32.790   9.280   4.718
68768W        W40494   1.152  36.994   4.361
68769W        W40495  11.712   3.160  14.018
68770W        W40496  38.921  28.885  10.343
68771W        W40497  26.919  23.078   2.149
68772W        W40498  31.162   5.289  12.338
68773W        W40499  19.204  11.775   1.786
68774W        W40500  21.891  41.972  11.182
68775W        W40501   2.242  13.221  10.791
68776W        W40502   3.606   3.068  12.553
68777W        W40503   5.274   7.633  10.697
68778W        W40504  42.353  29.593  10.450
68779W        W40505  11.696   3.591   4.098
68780W        W40506   8.469  23.106  11.229
68781W        W40507   7.799  26.627   5.030
68782W        W40508  24.534  13.990  13.417
68783W        W40509   2.926  38.909  14.527
68784W        W40510  34.920   1.785   1.701
68785W        W40511  30.341  22.750   3.673
68786W        W40512  22.509  10.427  13.077
68787W        W40513  14.902  21.566   2.650
68788W        W40514  44.039   4.437   0.232
68789W        W40515  22.665  37.527   3.764
68790W        W40516  17.489  16.222  12.461
68791W        W40517  35.531  23.009  10.626
68792W        W40518  31.677   6.245  14.599
68793W        W40519  12.841   2.683  14.953
68794W        W40520  35.622  30.815  14.937
68795W        W40521  17.146  20.264  11.579
68796W        W40522  19.949  12.649   2.897
68797W        W40523  14.988   2.695  12.930
68798W        W40524  38.950  36.278   2.481
68799W        W40525   2.330  22.007  14.564
68800W        W40526  38.788   9.314  13.011
68801W        W40527   0.237  12.152   3.733
68802W        W40528  37.914  39.958  12.637
68803W        W40529  11.909  13.778  14.844
68804W        W40530  41.009   4.766   1.672
68805W        W40531  35.807  36.869   2.365
68806W        W40532  16.337  14.157   0.898
68807W        W40533  34.328  19.720  11.214
68808W        W40534  42.356  34.487   0.918
68809W        W40535  35.880  32.528   0.791
68810W        W40536  31.891   6.795   0.381
68811W        W40537  25.039  21.721   0.781
68812W        W40538  38.460  28.586   3.863
68813W        W40539  31.512  15.318  11.525
68814W        W40540  26.386   3.399   2.777
68815W        W40541   1.936   8.951  10.489
68816W        W40542  26.751  17.316   3.656
68817W        W40543  16.531  13.194   4.137
68818W        W40544  39.742  16.248   3.395
68819W        W40545  14.183  11.896   3.615
68820W        W40546  42.202  30.481   3.127
68821W        W40547  34.789  42.845   3.272
68822W        W40548   3.765  24.228   4.535
68823W        W40549  34.483  17.082   4.604
68824W        W40550  15.153   5.941   0.252
68825W        W40551  32.560  41.698   2.971
68826W        W40552  21.072  33.021  12.093
68827W        W40553  13.642  27.972  14.300
68828W        W40554  40.821  41.875  11.704
68829W        W40555  16.725  21.845  10.949
68830W        W40556  28.484  14.005  13.464
68831W        W40557   3.539  38.272   4.603
68832W        W40558   7.770  16.065  10.985
68833W        W40559  34.359  12.817   2.231
68834W        W40560  30.588  10.282  12.468
68835W        W40561   6.115  13.569   1.318
68836W        W40562   4.444  16.834  12.436
68837W        W40563  10.416  33.536   1.881
68838W        W40564  37.982  19.797  11.990
68839W        W40565  11.176   8.417  14.786
68840W        W40566   4.947  39.607  14.373
68841W        W40567   1.195  34.163   4.583
68842W        W40568  41.382  28.979   1.707
68843W        W40569  26.005  41.828  14.751
68844W        W40570  43.969  15.567   4.483
68845W        W40571   3.253  10.064  14.018
68846W        W40572  20.729  35.206  14.808
68847W        W40573   9.376   1.550  11.205
68848W        W40574  20.848  38.822  11.984
68849W        W40575  40.398  29.344   3.612
68850W        W40576  44.101  32.050  10.471
68851W        W40577  13.127  37.851  11.927
68852W        W40578  35.065  37.594  10.817
68853W        W40579  21.081   0.397  14.469
68854W        W40580  36.586  10.459   3.309
68855W        W40581  25.026  29.078   0.278
68856W        W40582  36.573  19.590   3.159
68857W        W40583  21.318  33.523   1.392
68858W        W40584  42.563  21.161  14.322
68859W        W40585  30.562  28.561  11.114
68860W        W40586  13.994  41.109   4.874
68861W        W40587  38.980  42.479   2.778
68862W        W40588  26.474  35.005  13.628
68863W        W40589  14.733  24.258   0.411
68864W        W40590  35.377   0.355   1.390
68865W        W40591  20.277   3.453  13.347
68866W        W40592   4.954   3.398  13.855
68867W        W40593  14.366  39.411   9.964
68868W        W40594   7.778  43.715   0.255
68869W        W40595  27.732  17.731  13.999
68870W        W40596   3.187  13.367   4.977
68871W        W40597  19.392   6.099  11.166
68872W        W40598   5.396  32.056   1.970
68873W        W40599  43.287  10.247  11.724
68874W        W40600  44.725  12.129   0.736
68875W        W40601  27.098  25.523   3.377
68876W        W40602   0.440  10.676  14.694
68877W        W40603  34.543  12.959   2.727
68878W        W40604  34.905  21.225  10.490
68879W        W40605  22.470   0.736   2.320
68880W        W40606  37.460  29.853  11.490
68881W        W40607   3.807  11.354   3.625
68882W        W40608  43.532  29.690   1.855
68883W        W40609  15.694  10.113   1.211
68884W        W40610   3.326  22.225   1.690
68885W        W40611  42.924  19.088  11.907
68886W        W40612  31.444  42.498   1.973
68887W        W40613   2.711   2.343   3.011
68888W        W40614  35.463  27.458  11.233
68889W        W40615  27.091  18.801   4.426
68890W        W40616  30.912  38.180  14.281
68891W        W40617   6.211  33.880  14.993
68892W        W40618   8.875   5.388  12.464
68893W        W40619   2.529   4.744  14.328
68894W        W40620  38.471   5.310   4.997
68895W        W40621   1.460  39.947  13.312
68896W        W40622  32.787  35.109   0.902
68897W        W40623  26.287   7.739  14.048
68898W        W40624  16.633   5.968  12.141
68899W        W40625  42.577   7.760  12.902
68900W        W40626  44.953   3.008   3.661
68901W        W40627  28.966  39.914   3.133
68902W        W40628  41.826  23.254   0.193
68903W        W40629  37.443   5.184  12.521
68904W        W40630  42.860  15.759  14.320
68905W        W40631  28.167  19.219   5.001
68906W        W40632   7.736  31.109   0.492
68907W        W40633   6.815  11.230   4.664
68908W        W40634  32.449  35.567   2.201
68909W        W40635  34.016   6.910   4.945
68910W        W40636  24.674  23.978  11.596
68911W        W40637  40.776  24.244  12.891
68912W        W40638  27.549  19.621  11.178
68913W        W40639  32.465  22.699  13.912
68914W        W40640  13.294  12.280  14.725
68915W        W40641  29.671   9.598  12.030
68916W        W40642  34.991  29.176  12.091
68917W        W40643  19.280  42.659   2.431
68918W        W40644  35.970  33.046   2.170
68919W        W40645   2.237  32.993  10.443
68920W        W40646  23.699  38.356  11.217
68921W        W40647  30.041  35.104   3.015
68922W        W40648  18.732  40.576   4.665
68923W        W40649  31.923  20.726   2.280
68924W        W40650  23.185   8.225   4.598
68925W        W40651  18.606  29.389  12.109
68926W        W40652  13.796  14.684   4.821
68927W        W40653  38.653   2.405  11.669
68928W        W40654  34.961  39.146  14.308
68929W        W40655  26.849  32.632   3.385
68930W        W40656   5.474  29.988   4.068
68931W        W40657  32.315  29.546   1.167
68932W        W40658  13.787  35.098   4.582
68933W        W40659  32.659  10.150  11.452
68934W        W40660  21.950   7.818   4.221
68935W        W40661  18.762  36.983  10.672
68936W        W40662  40.857   7.794   4.134
68937W        W40663   4.821  32.142  10.784
68938W        W40664  40.493  32.129   0.840
68939W        W40665  40.832  31.555   0.436
68940W        W40666  31.490  36.309   0.358
68941W        W40667  19.760  29.566   1.515
68942W        W40668  37.293  19.594   5.106
68943W        W40669  26.189  15.991  14.910
68944W        W40670  21.288  27.305  14.066
68945W        W40671  27.124   3.286   4.052
68946W        W40672   8.743  39.924  12.076
68947W        W40673  12.210  32.873  14.253
68948W        W40674   5.167   5.348   9.681
68949W        W40675  43.818  20.600   1.877
68950W        W40676  20.593  22.307   0.494
68951W        W40677  22.917  25.984  14.259
68952W        W40678  34.301  19.491   1.415
68953W        W40679   9.323  19.528  14.536
68954W        W40680   0.514  39.985   3.567
68955W        W40681  11.590  31.549   2.325
68956W        W40682  37.307  13.777   2.275
68957W        W40683  17.690  40.120   4.181
68958W        W40684  13.145   3.833   2.431
68959W        W40685  10.795  13.122  12.842
68960W        W40686   7.167  20.228   0.235
68961W        W40687   3.500   5.124  10.141
68962W        W40688   8.916  33.067  13.709
68963W        W40689  39.335   8.104   3.276
68964W        W40690   3.231   5.724  13.398
68965W        W40691   1.566  11.201   3.421
68966W        W40692  26.675  29.839  14.665
68967W        W40693  25.300  27.154  12.959
68968W        W40694  11.696  37.144  12.127
68969W        W40695  23.657   1.031   0.937
68970W        W40696  22.890   9.365   2.782
68971W        W40697  40.365  22.301  10.711
68972W        W40698   9.913  17.474  13.188
68973W        W40699  22.992  12.776   2.325
68974W        W40700   8.861  39.382  12.030
68975W        W40701  43.419  41.757  11.976
68976W        W40702   6.983  13.733   3.767
68977W        W40703  25.598   0.837   5.125
68978W        W40704  16.554   2.167   4.558
68979W        W40705  38.076  19.013   0.071
68980W        W40706  43.836  14.564   2.624
68981W        W40707  43.029  25.114   0.887
68982W        W40708  27.255  43.983   1.336
68983W        W40709  42.037  22.718   4.627
68984W        W40710  12.925  34.142   0.916
68985W        W40711   9.887  34.868   2.775
68986W        W40712  36.652  27.956   1.166
68987W        W40713  43.029  34.155  12.076
68988W        W40714  20.569  20.044  12.524
68989W        W40715  25.008  39.495   4.791
68990W        W40716  32.823  33.618   2.781
68991W        W40717  30.798  19.801  12.829
68992W        W40718   6.216  13.697   2.639
68993W        W40719  39.427  32.834  11.350
68994W        W40720  20.698   8.534  11.673
68995W        W40721  40.813  12.888   1.750
68996W        W40722  23.948  40.314   5.057
68997W        W40723  29.661  11.601  13.086
68998W        W40724  27.233   0.366   4.709
68999W        W40725   5.422  20.647   0.233
69000W        W40726  23.737   6.384  11.651
69001W        W40727  41.970  28.089  12.648
69002W        W40728  35.805  37.443   1.841
69003W        W40729  14.690  30.011   1.685
69004W        W40730  38.505  29.414   1.810
69005W        W40731  38.513   3.528   0.749
69006W        W40732  18.776  24.588   0.199
69007W        W40733  13.149   4.528   2.433
69008W        W40734  31.842  23.348  11.097
69009W        W40735  35.445  25.124   1.895
69010W        W40736  18.574  40.829   3.199
69011W        W40737  15.719  23.684  11.142
69012W        W40738  26.636   2.581   2.901
69013W        W40739  15.637   3.318   3.450
69014W        W40740  17.671   2.915  14.981
69015W        W40741   0.424  22.489  13.916
69016W        W40742  21.754  19.611  13.128
69017W        W40743   1.246  26.534   1.117
69018W        W40744   4.418  34.646  11.573
69019W        W40745  39.671  25.185  13.863
69020W        W40746  15.319  23.063   3.586
69021W        W40747  30.869  26.675  14.291
69022W        W40748   2.303  12.381  14.967
69023W        W40749  23.261   7.715   3.383
69024W        W40750   8.742   9.307  13.275
69025W        W40751   5.294  16.067  11.075
69026W        W40752  21.797   6.300   4.284
69027W        W40753  20.037  15.131  14.473
69028W        W40754  33.046   6.621  13.612
69029W        W40755   8.708  41.241   2.231
69030W        W40756  30.626  41.045  10.448
69031W        W40757   1.982   9.100   2.387
69032W        W40758  41.085  42.444  14.903
69033W        W40759  41.893  34.700  13.874
69034W        W40760  41.819  15.545  12.667
69035W        W40761  11.534   8.587   3.022
69036W        W40762  38.302  35.619   0.500
69037W        W40763  40.967  16.967   4.444
69038W        W40764  28.890  14.552   0.424
69039W        W40765  19.960  16.627   4.765
69040W        W40766  44.117   4.232   1.278
69041W        W40767  40.756  43.668  12.053
69042W        W40768  42.182  14.427  11.157
69043W        W40769  32.106  28.248  11.978
69044W        W40770   3.993   0.355   0.680
69045W        W40771  25.094  18.559   3.762
69046W        W40772  32.948  42.682  14.046
69047W        W40773  29.337  44.363   1.555
69048W        W40774   3.764  32.674   2.207
69049W        W40775  20.751  37.608   1.306
69050W        W40776  15.005  31.573  12.854
69051W        W40777  33.113   4.474   2.618
69052W        W40778  13.183   5.655   0.225
69053W        W40779  37.131  22.770  12.047
69054W        W40780  37.528  41.922  12.144
69055W        W40781   8.249  40.435   3.262
69056W        W40782  17.076  42.891  12.480
69057W        W40783  18.315  20.754   2.219
69058W        W40784  31.539  24.190   2.872
69059W        W40785  21.639   2.567   2.209
69060W        W40786  36.406  40.938  12.939
69061W        W40787  19.071  18.318  14.864
69062W        W40788  23.464  37.349  10.808
69063W        W40789   0.749  41.310  12.544
69064W        W40790  11.262  25.656  14.315
69065W        W40791  43.281  28.492   4.152
69066W        W40792  39.844  16.590   1.406
69067W        W40793   5.757  25.396   2.871
69068W        W40794  28.566  35.566   2.685
69069W        W40795   5.301  36.736  14.371
69070W        W40796  26.854  40.886   1.728
69071W        W40797  27.599   2.271   1.244
69072W        W40798  44.487  11.941  14.884
69073W        W40799  29.119   6.590  10.578
69074W        W40800  14.029  42.009  14.515
69075W        W40801  34.308   1.280   2.053
69076W        W40802  13.726  40.595  12.324
69077W        W40803  41.816  12.835  13.467
69078W        W40804  15.392  21.703  11.552
69079W        W40805  33.451   8.870   3.301
69080W        W40806   6.747  15.569   3.988
69081W        W40807  25.998  34.375  14.775
69082W        W40808  40.005  10.466  11.029
69083W        W40809  43.245  24.033   4.571
69084W        W40810  28.382  26.867  12.437
69085W        W40811   0.987  38.022  13.828
69086W        W40812  15.294  42.377   2.748
69087W        W40813  12.066  18.081  12.489
69088W        W40814  29.510  10.307   1.819
69089W        W40815   7.759  37.092   2.142
69090W        W40816  26.501  29.404  13.335
69091W        W40817  21.274   9.635   2.143
69092W        W40818   2.747  13.126  11.601
69093W        W40819  27.502  38.595   1.335
69094W        W40820  30.569   9.109  11.513
69095W        W40821  26.153  20.687   0.769
69096W        W40822  31.075   7.658   0.710
69097W        W40823   7.593  25.750  13.997
69098W        W40824   3.007  19.523   0.190
69099W        W40825  42.703  18.666   3.721
69100W        W40826   0.885   9.880  11.693
69101W        W40827  41.879   0.737   0.347
69102W        W40828  28.333  16.983   0.202
69103W        W40829  20.090  15.042   2.839
69104W        W40830  14.910  13.945   4.017
69105W        W40831  39.051   0.554  10.570
69106W        W40832  36.496  27.679   3.162
69107W        W40833   4.237  32.403   0.433
69108W        W40834  18.686  23.572  14.917
69109W        W40835  36.095  33.111  11.466
69110W        W40836  18.275  35.615  10.413
69111W        W40837   7.737  33.077   0.402
69112W        W40838  13.268  28.187  11.583
69113W        W40839   2.310  41.360   2.371
69114W        W40840   0.473  10.766   3.647
69115W        W40841   1.322  41.111   0.338
69116W        W40842  42.432  20.476  12.578
69117W        W40843   1.885  22.704   1.019
69118W        W40844  32.017  36.025  14.531
69119W        W40845   3.377  13.168   0.491
69120W        W40846  23.516  33.901  14.492
69121W        W40847  11.066  42.371  13.364
69122W        W40848  30.067  35.365  10.428
69123W        W40849  39.231  14.899  14.442
69124W        W40850  15.586  13.357  13.250
69125W        W40851  28.796  34.178   0.638
69126W        W40852   0.831  42.787  14.228
69127W        W40853  19.752  27.894  14.771
69128W        W40854  11.877   1.918  10.216
69129W        W40855  27.025  44.667   3.711
69130W        W40856  15.441  44.830  12.969
69131W        W40857   2.675  31.728  11.147
69132W        W40858  13.773  27.010   3.726
69133W        W40859   9.572  39.245  12.575
69134W        W40860  13.423  41.856   3.768
69135W        W40861  16.135   1.888   1.148
69136W        W40862   1.358  27.477   2.633
69137W        W40863  41.522   4.205  14.487
69138W        W40864   8.484  34.367  13.952
69139W        W40865   7.799  20.422   4.107
69140W        W40866  13.627  31.419  13.917
69141W        W40867  23.938  36.867  12.470
69142W        W40868  29.659  39.799   5.063
69143W        W40869  28.028   9.247   2.636
69144W        W40870  39.891  36.883   3.818
69145W        W40871  34.682  20.915   3.227
69146W        W40872  43.229   0.273   3.655
69147W        W40873  39.951  29.436  11.106
69148W        W40874  21.343  43.812   4.320
69149W        W40875  39.396  36.113   4.888
69150W        W40876   6.328   9.140   3.770
69151W        W40877  34.027   6.193  10.665
69152W        W40878  20.151  38.579   4.058
69153W        W40879  29.182  39.582  10.145
69154W        W40880  22.690  29.214  13.222
69155W        W40881  38.318  37.357   0.850
69156W        W40882  39.923  33.678  13.905
69157W        W40883  19.498   1.220  11.400
69158W        W40884  37.998  39.786   1.280
69159W        W40885  29.380  36.435   0.828
69160W        W40886  17.073   8.486   4.770
69161W        W40887  12.392  40.929  11.121
69162W        W40888   3.232  13.301   4.453
69163W        W40889  14.134  27.482   4.913
69164W        W40890  36.055  25.744   2.241
69165W        W40891  16.445  26.548  12.031
69166W        W40892  28.407  27.868   4.501
69167W        W40893   1.950  36.054  10.725
69168W        W40894  41.273   7.249  13.952
69169W        W40895   1.160  27.545   4.000
69170W        W40896   9.876  42.942  10.661
69171W        W40897  32.469  30.134   2.665
69172W        W40898   2.706  28.054  13.875
69173W        W40899  11.238  28.669   3.286
69174W        W40900  28.989   7.638   1.832
69175W        W40901  38.266  16.211   3.232
69176W        W40902  23.139  17.495  12.165
69177W        W40903  37.463  28.991  11.182
69178W        W40904   3.479  14.204   1.247
69179W        W40905   4.308   3.919   0.019
69180W        W40906   1.201  14.472  14.325
69181W        W40907  11.988  24.963  10.713
69182W        W40908   8.236  26.227   1.298
69183W        W40909   7.832  29.848  11.556
69184W        W40910  33.866  25.917  11.173
69185W        W40911   7.243   2.483  11.487
69186W        W40912  16.123  35.893   1.311
69187W        W40913   2.448  37.782  10.655
69188W        W40914   4.510  44.878   0.515
69189W        W40915  23.484  39.765   2.715
69190W        W40916  30.005  30.394  13.160
69191W        W40917   4.716  11.100   1.286
69192W        W40918  24.284  37.956  10.613
69193W        W40919   0.875  39.170  12.205
69194W        W40920   1.912   4.045   4.913
69195W        W40921  42.891   2.419   2.852
69196W        W40922  32.868  44.849  11.743
69197W        W40923  17.786  26.600  13.679
69198W        W40924  28.883  17.802   0.857
69199W        W40925  20.834  12.524   5.031
69200W        W40926  41.029  10.029   2.682
69201W        W40927  41.855  11.882   0.721
69202W        W40928  37.507   3.354   2.443
69203W        W40929  31.865  27.567   2.290
69204W        W40930  13.911  11.173  12.492
69205W        W40931  42.280  41.447   0.929
69206W        W40932  35.808  39.876   0.877
69207W        W40933  20.610  26.111   2.821
69208W        W40934  37.542   9.106   1.323
69209W        W40935  12.961   5.950  13.501
69210W        W40936  37.554  38.511  13.413
69211W        W40937  19.692  18.173   3.146
69212W        W40938  42.667  31.062   4.096
69213W        W40939  29.675   4.981  11.760
69214W        W40940  27.931  11.170   2.769
69215W        W40941  23.147   0.687   4.059
69216W        W40942  39.863   6.897  10.546
69217W        W40943  18.858   4.295  11.288
69218W        W40944  14.784  42.804   2.670
69219W        W40945  31.173  20.513   0.897
69220W        W40946  34.945  11.788   3.173
69221W        W40947  27.367  15.362   3.229
69222W        W40948  11.417   3.686  11.527
69223W        W40949   7.838  25.601  10.677
69224W        W40950  27.716  26.219   0.722
69225W        W40951  20.698  24.474  11.534
69226W        W40952  28.076  44.006   2.939
69227W        W40953  39.756   0.510   3.633
69228W        W40954  17.485   4.512  12.393
69229W        W40955  14.208  21.541   0.329
69230W        W40956   9.046   9.657  14.007
69231W        W40957  27.602  31.871  13.792
69232W        W40958  11.511  27.616  12.760
69233W        W40959  40.443  33.159   1.792
69234W        W40960  26.737  15.195   0.070
69235W        W40961  19.829  15.229   2.431
69236W        W40962  17.234  25.190  12.892
69237W        W40963  23.131   6.703  10.484
69238W        W40964  36.946  41.079  12.971
69239W        W40965   2.372   4.205   4.368
69240W        W40966  38.139  17.372  14.364
69241W        W40967  42.796  15.501   3.829
69242W        W40968  25.014  12.354  13.797
69243W        W40969  30.742  10.333   0.296
69244W        W40970   6.802  26.953   1.892
69245W        W40971  25.473  38.323  10.573
69246W        W40972   8.365  23.566  10.027
69247W        W40973  41.312  36.845   0.453
69248W        W40974  30.131  25.111  13.468
69249W        W40975  44.683  34.958   5.275
69250W        W40976  28.444  26.730  14.336
69251W        W40977  27.224  39.031  13.444
69252W        W40978   6.646  33.723  12.361
69253W        W40979  38.057  37.205   1.410
69254W        W40980   5.840  38.448   3.692
69255W        W40981   8.690  14.091  13.332
69256W        W40982  41.800  24.729  11.625
69257W        W40983  42.588  15.769  13.385
69258W        W40984  16.988   2.907   4.061
69259W        W40985  11.693   7.088   4.137
69260W        W40986  30.135  44.469   3.631
69261W        W40987  16.112  12.306  13.775
69262W        W40988  10.253   9.226   2.885
69263W        W40989  34.124  17.511   2.425
69264W        W40990  15.895  43.460  12.869
69265W        W40991   0.020  43.313  13.398
69266W        W40992  42.962   2.603   1.473
69267W        W40993  20.666  18.445  10.576
69268W        W40994  33.266  37.284  11.566
69269W        W40995  27.595  22.684   0.283
69270W        W40996   9.597  13.094  12.117
69271W        W40997  22.508  22.136  14.957
69272W        W40998  11.560   6.574   0.315
69273W        W40999  41.881   7.807   4.084
69274W        W41000  33.378   1.808  14.775
69275W        W41001  15.336  38.030   3.627
69276W        W41002  30.856   2.945  12.396
69277W        W41003  36.449   3.249   1.607
69278W        W41004  13.926  12.394   1.273
69279W        W41005  13.014  38.529   4.805
69280W        W41006   1.193  19.351   2.165
69281W        W41007   0.405  25.984  12.753
69282W        W41008  41.975   3.124   2.314
69283W        W41009   0.375  34.191  12.969
69284W        W41010   7.286   3.741   2.299
69285W        W41011   8.675  27.036   1.740
69286W        W41012  33.056  33.596   1.692
69287W        W41013  37.983  27.263   3.796
69288W        W41014  29.920  38.462   2.609
69289W        W41015  32.874   1.416  12.627
69290W        W41016  39.605  15.977   0.941
69291W        W41017  22.928  12.898   1.435
69292W        W41018  31.775   0.828   4.297
69293W        W41019  33.524  15.237  12.598
69294W        W41020  15.270  21.374   2.350
69295W        W41021   6.581   6.766  10.759
69296W        W41022  39.003  34.313  14.479
69297W        W41023  16.722  11.349   0.530
69298W        W41024  30.041  38.684   4.666
69299W        W41025  34.125  25.496   2.844
69300W        W41026   8.482   4.817   2.349
69301W        W41027   8.286   2.561  11.564
69302W        W41028  42.012  36.636  11.951
69303W        W41029   4.505   7.130  10.958
69304W        W41030  10.645  42.398   2.841
69305W        W41031  24.560  13.374  10.184
69306W        W41032  43.543  15.153  11.621
69307W        W41033   0.597   9.847   0.696
69308W        W41034  37.505  23.493  10.376
69309W        W41035  39.893  31.139   0.367
69310W        W41036  11.456   5.467   2.209
69311W        W41037   6.294  38.166  11.682
69312W        W41038   1.018   8.947   0.946
69313W        W41039  36.320  44.260  12.527
69314W        W41040  42.767   6.185  12.184
69315W        W41041   7.967  44.105   3.200
69316W        W41042  29.586   1.313   3.584
69317W        W41043   7.861  34.114  10.818
69318W        W41044  37.193  34.171   2.682
69319W        W41045  23.250  23.116  13.803
69320W        W41046  11.462   2.768  13.188
69321W        W41047  39.939  20.811   1.154
69322W        W41048  11.126   9.305  14.353
69323W        W41049  43.329   8.379   2.815
69324W        W41050   4.694   8.373   0.894
69325W        W41051  24.132   9.136  12.010
69326W        W41052  29.387  20.166  13.802
69327W        W41053   5.604  17.342   1.968
69328W        W41054  10.599  24.513  13.495
69329W        W41055  11.406   5.851   2.811
69330W        W41056  29.218  19.146   0.788
69331W        W41057  28.957  24.803  10.471
69332W        W41058  40.570  20.537  13.084
69333W        W41059   8.690   5.835   9.981
69334W        W41060  38.542  29.232  14.808
69335W        W41061  30.788  29.287   4.858
69336W        W41062  41.980  32.366   1.393
69337W        W41063  33.427  26.050   5.382
69338W        W41064  11.642  32.652  12.385
69339W        W41065  28.764   0.474   2.318
69340W        W41066   8.414  31.176   0.684
69341W        W41067  31.543  27.463   0.762
69342W        W41068  44.014  44.433  12.644
69343W        W41069  30.105  31.089   3.739
69344W        W41070  39.752  17.372   2.073
69345W        W41071   0.161   2.769  11.182
69346W        W41072  33.105  30.299  12.508
69347W        W41073  42.460  25.714  13.557
69348W        W41074  35.096  22.127  12.863
69349W        W41075  33.252  33.106   1.850
69350W        W41076  11.675  40.877   0.997
69351W        W41077   1.009  11.155  11.175
69352W        W41078  26.138  36.824  12.379
69353W        W41079  35.810   8.324   2.275
69354W        W41080  11.525   3.469  11.972
69355W        W41081  19.543  31.003   3.540
69356W        W41082   6.603  37.809  12.839
69357W        W41083  11.555  28.938   1.321
69358W        W41084  34.541   6.639   0.607
69359W        W41085  21.050   1.885   1.115
69360W        W41086  37.368  41.432  11.947
69361W        W41087  10.668   5.895  12.868
69362W        W41088  40.435  38.727  11.554
69363W        W41089   3.247  30.167  11.009
69364W        W41090  18.525  29.898  14.796
69365W        W41091  15.179  35.153   0.321
69366W        W41092  27.011  18.037  12.568
69367W        W41093  44.181  17.642   0.020
69368W        W41094  32.190  42.927   4.960
69369W        W41095  35.037   0.462  14.846
69370W        W41096  42.531  29.501   3.220
69371W        W41097  16.600  20.336   1.899
69372W        W41098  33.290  27.093  14.734
69373W        W41099  33.644   9.837  10.040
69374W        W41100   6.413   9.052  14.747
69375W        W41101  23.312  37.873   1.934
69376W        W41102  29.823   1.420  11.171
69377W        W41103  32.764   0.823   3.158
69378W        W41104  23.536  10.228  10.695
69379W        W41105  10.140   7.603  11.981
69380W        W41106   4.143  28.295   3.691
69381W        W41107  10.396  42.071   4.298
69382W        W41108  22.292  18.512  13.447
69383W        W41109  22.898  26.182   1.217
69384W        W41110  26.511  26.700  14.925
69385W        W41111  38.426   8.743   0.351
69386W        W41112  17.776   0.089   1.037
69387W        W41113   1.676  37.531   1.315
69388W        W41114  23.567  16.253   1.813
69389W        W41115  17.310  24.269  12.881
69390W        W41116   8.888   5.214  13.038
69391W        W41117  25.783  44.223   2.419
69392W        W41118  25.138  43.977   0.465
69393W        W41119  18.234   3.215   2.426
69394W        W41120  25.799  24.035  11.735
69395W        W41121   3.132   2.680  13.385
69396W        W41122   8.909   3.860  11.134
69397W        W41123  14.848  42.870  12.435
69398W        W41124   9.336   2.918  13.690
69399W        W41125  26.040   1.397   3.080
69400W        W41126  25.586  36.311   0.537
69401W        W41127  13.060  36.099  13.479
69402W        W41128  13.802  14.249  14.091
69403W        W41129  40.749  10.704  12.805
69404W        W41130  27.171  33.536  12.066
69405W        W41131  21.182  28.438  10.249
69406W        W41132  28.995  29.209  13.717
69407W        W41133  35.095   9.745   1.235
69408W        W41134  22.816  42.030  14.954
69409W        W41135   8.016   8.736   2.068
69410W        W41136  36.243  24.161   2.701
69411W        W41137  35.808   3.222   3.633
69412W        W41138  17.198  41.343   4.164
69413W        W41139  13.228   7.227  12.432
69414W        W41140  29.111   2.231   2.960
69415W        W41141  23.081  20.251   4.908
69416W        W41142   9.069   6.665   3.249
69417W        W41143  21.916   9.164   0.859
69418W        W41144  44.548   9.434   1.276
69419W        W41145  23.675   5.719  10.779
69420W        W41146  35.143  44.870   1.241
69421W        W41147  15.713  23.183   0.070
69422W        W41148  31.081  42.908   4.189
69423W        W41149  34.630  33.952   4.599
69424W        W41150   3.640  14.045   0.024
69425W        W41151   9.368  41.527   1.353
69426W        W41152   9.694  41.414   4.664
69427W        W41153   7.661  13.560   4.194
69428W        W41154  20.036   2.297   4.242
69429W        W41155  33.071  16.718  11.589
69430W        W41156  34.803  44.260  14.525
69431W        W41157  33.443  29.949  12.372
69432W        W41158  29.977  34.580   4.648
69433W        W41159  34.443  35.903   2.808
69434W        W41160  10.732  26.220  12.582
69435W        W41161  21.372  10.426   3.645
69436W        W41162  34.084  14.839   1.936
69437W        W41163   5.782   3.500   2.376
69438W        W41164  33.750  44.321  11.778
69439W        W41165  35.907   8.808   2.919
69440W        W41166  15.667   7.337   4.558
69441W        W41167  31.812  14.446   2.457
69442W        W41168   8.851   9.048  11.179
69443W        W41169  41.299  40.767   0.856
69444W        W41170  26.934   9.936   4.667
69445W        W41171  28.369  28.476   2.339
69446W        W41172  23.101  40.760  11.812
69447W        W41173  25.323  37.449  11.107
69448W        W41174   5.331  29.644   1.333
69449W        W41175  22.018   6.380  11.096
69450W        W41176  15.228  10.714  13.346
69451W        W41177  30.149  37.252  12.834
69452W        W41178   8.436  19.669  11.032
69453W        W41179  34.104  14.063   3.370
69454W        W41180  17.556  19.932   0.817
69455W        W41181  12.052  23.766  13.772
69456W        W41182  26.355  14.841   4.377
69457W        W41183   4.686  26.206   4.599
69458W        W41184  11.718   0.795   3.639
69459W        W41185  15.274  27.449   3.244
69460W        W41186  29.850  16.586   1.239
69461W        W41187  11.562  17.761  11.722
69462W        W41188  29.433  43.727  12.386
69463W        W41189   8.626   0.936  13.528
69464W        W41190  28.345  32.928   5.089
69465W        W41191  16.320  26.966  12.863
69466W        W41192  25.986  23.125   2.157
69467W        W41193  43.321  43.351   0.720
69468W        W41194  40.473   1.727   1.431
69469W        W41195   8.152  28.993   1.171
69470W        W41196   2.474  11.383  14.624
69471W        W41197  41.132  32.632  11.582
69472W        W41198  17.637  37.727   5.300
69473W        W41199  30.891  26.971  14.694
69474W        W41200   6.893  12.963   1.272
69475W        W41201  17.813  37.520   1.927
69476W        W41202  23.679  18.476   2.368
69477W        W41203  15.240  16.270  14.090
69478W        W41204  30.465  17.760  14.492
69479W        W41205  39.290  15.592   2.206
69480W        W41206  11.816  22.087   0.488
69481W        W41207  43.779  21.213   2.616
69482W        W41208  17.032   2.553  11.633
69483W        W41209  14.816   1.239  14.829
69484W        W41210  39.810  27.969  12.162
69485W        W41211  26.642  36.825  11.075
69486W        W41212  30.074  42.458   5.434
69487W        W41213   6.603  41.307   2.889
69488W        W41214  10.842  35.900  11.089
69489W        W41215  11.759  15.520  13.308
69490W        W41216   1.710  41.378  11.592
69491W        W41217  41.040  29.371   1.776
69492W        W41218   9.660  11.689   0.379
69493W        W41219   9.290  41.309   2.909
69494W        W41220   7.698  16.366   4.995
69495W        W41221   5.341  34.835  14.963
69496W        W41222  31.617  26.059  10.733
69497W        W41223  27.332  23.563  13.012
69498W        W41224  23.117  35.278  12.872
69499W        W41225  12.885  30.390   0.415
69500W        W41226   9.654   7.222  13.146
69501W        W41227  41.057  16.799   4.944
69502W        W41228   7.021  24.590  14.349
69503W        W41229  40.462  11.509  11.959
69504W        W41230  38.339  44.966   3.870
69505W        W41231  28.732  30.648   0.474
69506W        W41232  36.321  18.466   2.347
69507W        W41233   4.058  13.068   3.296
69508W        W41234  43.201   5.853  12.015
69509W        W41235  38.471   6.324  14.916
69510W        W41236  14.706   9.159   4.571
69511W        W41237  37.829  41.044   3.740
69512W        W41238  21.031  40.311  12.395
69513W        W41239   6.188  30.688  12.050
69514W        W41240  21.107  35.445   4.643
69515W        W41241  20.737  40.886  10.684
69516W        W41242  22.098  14.784  14.018
69517W        W41243  18.467   8.363  11.097
69518W        W41244  30.421  24.139   4.967
69519W        W41245  30.581  14.852   4.438
69520W        W41246  14.086  16.181   3.300
69521W        W41247  27.885  12.418  12.465
69522W        W41248   4.262  28.155  14.992
69523W        W41249  12.575  30.594  12.523
69524W        W41250  16.768  28.059   5.029
69525W        W41251  13.405  44.897  14.410
69526W        W41252  11.827  28.437  13.391
69527W        W41253   1.145  42.776  10.410
69528W        W41254  40.733  17.304  10.793
69529W        W41255  32.544  15.273   0.298
69530W        W41256  22.804  13.278   1.776
69531W        W41257  32.169  20.498  14.857
69532W        W41258  25.959  21.738  12.445
69533W        W41259   5.850   9.179  12.078
69534W        W41260  41.954  39.294   4.609
69535W        W41261  27.383  24.552  12.979
69536W        W41262  29.663  34.983   2.625
69537W        W41263  20.262  44.937   1.254
69538W        W41264   8.901  16.292   1.408
69539W        W41265  14.021  11.623  13.419
69540W        W41266  19.811  16.838   1.379
69541W        W41267  37.438  20.777   1.619
69542W        W41268  19.528   0.163   4.188
69543W        W41269  44.677  24.573  12.095
69544W        W41270  26.598   2.977  10.794
69545W        W41271  29.547  11.796   3.890
69546W        W41272  21.029  12.124  14.710
69547W        W41273   9.818  41.751  13.076
69548W        W41274  29.665  19.312  12.010
69549W        W41275  34.694  29.581   3.219
69550W        W41276  17.221  27.455   0.751
69551W        W41277   9.208  26.627  11.820
69552W        W41278  35.123   6.393  14.264
69553W        W41279  12.908   7.405   2.859
69554W        W41280  27.413  28.861   2.233
69555W        W41281  25.225  32.113  11.535
69556W        W41282  21.273  13.691  11.221
69557W        W41283  28.621   9.651   2.917
69558W        W41284  34.309   4.273  10.930
69559W        W41285  13.567  40.235   3.262
69560W        W41286   6.627  22.674   0.955
69561W        W41287  29.665  23.637   1.196
69562W        W41288  24.967  36.370   4.794
69563W        W41289  10.358  38.854   0.291
69564W        W41290  22.296  24.694   3.858
69565W        W41291  10.311  36.782   2.653
69566W        W41292   7.850  24.708   4.141
69567W        W41293  30.691  10.622   2.447
69568W        W41294  10.491  43.838  12.231
69569W        W41295   9.163   0.909  12.461
69570W        W41296  35.849  15.758  12.886
69571W        W41297  22.739   6.372  10.345
69572W        W41298  23.693  26.058  13.908
69573W        W41299  36.845   3.869   2.699
69574W        W41300  17.206  31.762  11.110
69575W        W41301  10.503  37.859   0.954
69576W        W41302   4.245  16.824  11.926
69577W        W41303  44.825  21.963   3.046
69578W        W41304   8.770   8.928   4.349
69579W        W41305  11.210  36.862   0.782
69580W        W41306  44.895  21.687  13.012
69581W        W41307  36.423  21.463   4.155
69582W        W41308  38.603  44.008  13.042
69583W        W41309  32.953  39.532  13.027
69584W        W41310  17.744  30.002   2.266
69585W        W41311  16.688  21.091  10.173
69586W        W41312   9.766  38.534  11.588
69587W        W41313  12.108   3.937  13.803
69588W        W41314  43.929  18.043   1.238
69589W        W41315  11.533  19.050  11.565
69590W        W41316   5.853  28.580   3.558
69591W        W41317  12.035   8.115  14.125
69592W        W41318   4.685  26.022  10.749
69593W        W41319  31.476   3.371   4.155
69594W        W41320  33.158  27.679  10.626
69595W        W41321   0.296  25.370   0.469
69596W        W41322  43.982  26.027   2.682
69597W        W41323  35.368   8.673  11.894
69598W        W41324  40.728   6.673   1.164
69599W        W41325  13.566   1.395   0.945
69600W        W41326  19.062   1.244   0.630
69601W        W41327  32.198  36.418   4.738
69602W        W41328  20.692  21.858   4.075
69603W        W41329  18.731  38.430   0.137
69604W        W41330  37.269   2.452   0.519
69605W        W41331   8.682  25.919  13.557
69606W        W41332  38.569   3.064  12.113
69607W        W41333  39.471  31.735   1.246
69608W        W41334  38.813  43.384  11.615
69609W        W41335  30.420  17.803   0.508
69610W        W41336   8.735  21.821   0.581
69611W        W41337   8.216   6.414   1.756
69612W        W41338  21.117  12.360   5.435
69613W        W41339  33.312  24.098  14.348
69614W        W41340  24.375  28.386   1.268
69615W        W41341  17.794   5.973  14.501
69616W        W41342  13.542  42.002  10.844
69617W        W41343  14.137  32.890   2.655
69618W        W41344  31.960  30.298   1.731
69619W        W41345   9.835  17.900  12.407
69620W        W41346   1.944  29.389  11.119
69621W        W41347  39.435  20.083  14.808
69622W        W41348  39.952  28.450  12.039
69623W        W41349   0.481  41.005   1.367
69624W        W41350  31.693  36.060  13.564
69625W        W41351  23.258   5.998   0.439
69626W        W41352  43.974  30.005  12.575
69627W        W41353  37.940   2.275  11.966
69628W        W41354  18.713  13.116  13.849
69629W        W41355  10.431  44.883  14.113
69630W        W41356  41.625  23.061   3.340
69631W        W41357  38.836  21.806  13.849
69632W        W41358  34.462  14.259   2.513
69633W        W41359   2.301  23.594   0.391
69634W        W41360  16.606  21.265   1.075
69635W        W41361   9.213  43.825  11.530
69636W        W41362  15.490   6.389  11.015
69637W        W41363  19.813  24.270   0.439
69638W        W41364  27.664   7.936  13.853
69639W        W41365  40.839  11.783  13.985
69640W        W41366  17.136  13.712   1.460
69641W        W41367  43.833  10.253  13.475
69642W        W41368  26.869   5.545   2.794
69643W        W41369   4.254  22.687   1.021
69644W        W41370   1.324  35.431  11.162
69645W        W41371  42.757  32.403   4.925
69646W        W41372  28.000  20.230  14.762
69647W        W41373   5.556  38.049   2.921
69648W        W41374  10.747  21.973  13.319
69649W        W41375  14.946   9.916   4.161
69650W        W41376   7.635  26.094   2.475
69651W        W41377  24.253  37.613   3.182
69652W        W41378   9.323  28.504  13.474
69653W        W41379  11.324  43.448   4.560
69654W        W41380  31.014  43.809   1.844
69655W        W41381  15.704  19.092   1.224
69656W        W41382   3.831  34.769  10.758
69657W        W41383  28.975  14.419   2.709
69658W        W41384  31.314   8.789  12.941
69659W        W41385  33.287  20.175   4.757
69660W        W41386   0.890  33.633  10.657
69661W        W41387  20.275   4.213   1.759
69662W        W41388  41.479  41.684   0.354
69663W        W41389   5.712  25.116   4.627
69664W        W41390   5.461   8.698   1.385
69665W        W41391  32.111   8.759   2.146
69666W        W41392  19.414  25.978   1.844
69667W        W41393  23.343  18.441   3.553
69668W        W41394  20.053   7.216   4.137
69669W        W41395   4.494  31.517  14.956
69670W        W41396   0.729  35.321  14.259
69671W        W41397   0.886   1.330  12.119
69672W        W41398  31.120   0.060   2.086
69673W        W41399  39.851  31.417  12.992
69674W        W41400  10.936  17.729   3.727
69675W        W41401  39.497   5.373   1.522
69676W        W41402  19.239  41.381  10.711
69677W        W41403  37.179  19.554   3.805
69678W        W41404  12.275  39.436  10.876
69679W        W41405  30.030  18.809  12.593
69680W        W41406  11.666  44.390  12.620
69681W        W41407   8.318   3.322   0.369
69682W        W41408  44.120   0.369  12.879
69683W        W41409  19.266  37.911   4.570
69684W        W41410  14.052  29.138   2.197
69685W        W41411  22.500  35.724   4.437
69686W        W41412  23.300  28.459   0.919
69687W        W41413  32.811  30.079   4.056
69688W        W41414  12.240  33.438  11.417
69689W        W41415  11.305   2.870   2.384
69690W        W41416  29.805  43.348  10.770
69691W        W41417  11.113  12.419   2.874
69692W        W41418  42.460   6.223  10.965
69693W        W41419  25.191  31.967  12.015
69694W        W41420  42.283  36.139  12.559
69695W        W41421  19.735  21.752   0.429
69696W        W41422  10.625  36.088  13.399
69697W        W41423   5.899   9.390  12.898
69698W        W41424  20.205  29.617   1.202
69699W        W41425  16.278  37.213   3.889
69700W        W41426  10.245  20.986  14.861
69701W        W41427  11.106  41.319   1.820
69702W        W41428   6.811   3.243  11.533
69703W        W41429   5.273  32.912  11.966
69704W        W41430  31.071  15.136   0.957
69705W        W41431  38.708  19.608  11.515
69706W        W41432  28.082   8.266   2.081
69707W        W41433  39.823   7.852   0.737
69708W        W41434  22.458  43.429   0.373
69709W        W41435  30.379  38.055  11.197
69710W        W41436  29.113   7.053  10.809
69711W        W41437   4.673  20.603   0.869
69712W        W41438  23.519  37.687   3.751
69713W        W41439  10.844   7.378   4.567
69714W        W41440  35.799   5.159   3.167
69715W        W41441  27.404  10.753  11.042
69716W        W41442   1.523   3.794  12.982
69717W        W41443   3.979  44.655   1.355
69718W        W41444  27.031  44.780   1.872
69719W        W41445   1.787  30.187  12.794
69720W        W41446  23.662  14.357  11.476
69721W        W41447  40.033  31.427   2.957
69722W        W41448   7.003  33.988   2.838
69723W        W41449  16.139  10.561   4.664
69724W        W41450  22.330   4.764   0.226
69725W        W41451  20.515  16.752  13.295
69726W        W41452  26.188   6.430   2.975
69727W        W41453   4.301   2.430  10.590
69728W        W41454  32.884  28.894  14.953
69729W        W41455  12.800  27.924   0.984
69730W        W41456  30.512  11.191  12.660
69731W        W41457  27.534  22.481  14.003
69732W        W41458   6.730  20.779  14.930
69733W        W41459  26.647  43.541   0.922
69734W        W41460  41.907   4.750  14.434
69735W        W41461  32.362  44.718   2.351
69736W        W41462  42.603  11.903   5.031
69737W        W41463  20.552  15.239  13.348
69738W        W41464  21.019  31.547   3.282
69739W        W41465  25.439  30.623  13.068
69740W        W41466   6.603  36.507  12.893
69741W        W41467  40.519  35.873  12.296
69742W        W41468   8.875  15.359  14.478
69743W        W41469  25.417  39.131  10.266
69744W        W41470   8.706  15.576   4.620
69745W        W41471  44.091   6.454   3.661
69746W        W41472  32.515  20.759   2.890
69747W        W41473   2.365   6.813   3.248
69748W        W41474  33.337  18.324  12.491
69749W        W41475   7.877   0.050  12.870
69750W        W41476  18.688   2.989  13.067
69751W        W41477   9.173  25.379   3.878
69752W        W41478  23.636  42.610  13.333
69753W        W41479  26.571  10.791   2.740
69754W        W41480  16.707  43.392   1.082
69755W        W41481  31.067  42.332  14.892
69756W        W41482  17.553  41.350  11.143
69757W        W41483  17.616  18.110  14.847
69758W        W41484  25.739  36.839   4.693
69759W        W41485  31.798  30.694  14.830
69760W        W41486  38.217  13.303  14.996
69761W        W41487  43.460  42.343  13.747
69762W        W41488   4.807  43.926  14.536
69763W        W41489   7.217  35.914  14.898
69764W        W41490  27.942  19.264   4.212
69765W        W41491   1.495  13.497   0.250
69766W        W41492   3.882  31.947  13.817
69767W        W41493  28.356   1.156   4.179
69768W        W41494  25.904  39.751   4.840
69769W        W41495  30.167   4.660  12.934
69770W        W41496  28.428  41.565   3.374
69771W        W41497  11.703  11.763   3.394
69772W        W41498  11.594  20.032   4.346
69773W        W41499  22.226  32.096   0.361
69774W        W41500  19.905  22.815   0.791
69775W        W41501  16.414  19.785   0.691
69776W        W41502  25.456  40.052  11.210
69777W        W41503  23.461  41.464   0.806
69778W        W41504  12.655  12.875   0.408
69779W        W41505  30.096  11.225  14.426
69780W        W41506  33.845  39.381  11.883
69781W        W41507   7.025   4.740  12.106
69782W        W41508  22.320  18.765  12.049
69783W        W41509  15.191  18.112  14.905
69784W        W41510  11.277  42.838   1.208
69785W        W41511  28.995  36.500   1.821
69786W        W41512  16.798  39.284   4.355
69787W        W41513  21.005  41.840  14.386
69788W        W41514  31.584  44.078   4.965
69789W        W41515  37.042  35.819   0.944
69790W        W41516  35.303  13.193  13.921
69791W        W41517  13.259  29.147   1.771
69792W        W41518  19.017  29.339   3.851
69793W        W41519  14.657   6.483   2.190
69794W        W41520   3.358  31.433  10.718
69795W        W41521  23.088  26.605   1.443
69796W        W41522  30.559   4.172  11.111
69797W        W41523  36.301  30.438   0.766
69798W        W41524  32.401   1.767   1.208
69799W        W41525  33.463  40.446  13.783
69800W        W41526  31.972   5.332   0.486
69801W        W41527  14.404  29.090  11.071
69802W        W41528  34.591  11.724   0.721
69803W        W41529  34.652  34.107   2.750
69804W        W41530  20.251  37.341  11.928
69805W        W41531  35.821   3.655  14.996
69806W        W41532  23.743  15.379   0.299
69807W        W41533  30.842  43.102   0.307
69808W        W41534  22.269  15.145   4.521
69809W        W41535  16.750   0.419  13.010
69810W        W41536   7.135  15.202  11.503
69811W        W41537  35.973  19.429   3.309
69812W        W41538   4.393  33.345   1.914
69813W        W41539  22.159  43.842   4.118
69814W        W41540   2.749  28.877  10.519
69815W        W41541  32.672  18.519  11.657
69816W        W41542  38.281  12.663   2.381
69817W        W41543   0.445  37.018   4.581
69818W        W41544   8.896  23.802  12.914
69819W        W41545  17.529  37.052   2.627
69820W        W41546  42.034  12.063   3.144
69821W        W41547  37.890  41.809   0.057
69822W        W41548   6.929   0.100   4.203
69823W        W41549   1.705  14.283  12.988
69824W        W41550  39.123   8.309  14.871
69825W        W41551   3.554  39.958   2.664
69826W        W41552  14.130  14.093  11.261
69827W        W41553   5.343  41.565  13.544
69828W        W41554  10.371  38.288  13.883
69829W        W41555  10.852  10.717   0.558
69830W        W41556   9.596   6.666   3.247
69831W        W41557  12.870  27.542  10.847
69832W        W41558  24.822  18.001   2.389
69833W        W41559  31.883  37.490   2.430
69834W        W41560  23.325   5.705   3.796
69835W        W41561  40.048  10.873  13.866
69836W        W41562   0.759  17.138   0.755
69837W        W41563  42.217  37.150  13.030
69838W        W41564  31.450  11.910   3.300
69839W        W41565  33.929  39.142  10.923
69840W        W41566  29.478   4.183   1.161
69841W        W41567  39.260   1.943   0.902
69842W        W41568  31.124  44.759  11.090
69843W        W41569  10.311  33.930   2.364
69844W        W41570  35.713  42.298   2.434
69845W        W41571  25.598  17.075   1.166
69846W        W41572  40.401  38.285   0.739
69847W        W41573  13.820  15.503   3.747
69848W        W41574  37.386  23.466  14.831
69849W        W41575  14.661  10.818  12.544
69850W        W41576  43.041   9.222  13.521
69851W        W41577  23.074  22.623  13.781
69852W        W41578  34.145   2.175   4.173
69853W        W41579  23.787  20.710  10.760
69854W        W41580  28.006   3.768   4.615
69855W        W41581  31.859  41.487  12.336
69856W        W41582  34.595  34.923   3.782
69857W        W41583   3.688   9.337   1.394
69858W        W41584  39.959  30.649   0.462
69859W        W41585  10.096  35.953  13.495
69860W        W41586  26.103  10.698   1.065
69861W        W41587  16.920   7.509   4.477
69862W        W41588   5.451  38.395  14.801
69863W        W41589   0.907  25.120  14.960
69864W        W41590   8.576   5.887  11.904
69865W        W41591  44.424  31.002  11.252
69866W        W41592  24.340  43.890   1.172
69867W        W41593  40.952  44.413   3.963
69868W        W41594  36.587  40.833  12.472
69869W        W41595   6.778  31.070  10.926
69870W        W41596  15.335  17.327   0.599
69871W        W41597  12.205  14.757  14.229
69872W        W41598  40.382  28.384  14.327
69873W        W41599  44.995  21.155   4.119
69874W        W41600  27.625  39.269  14.597
69875W        W41601  43.569   3.250   0.874
69876W        W41602  39.563   0.856   3.139
69877W        W41603  37.878  33.845   4.190
69878W        W41604   7.824  42.734   4.939
69879W        W41605  27.671  41.438  12.837
69880W        W41606  11.679   1.023  11.025
69881W        W41607  14.304  22.535   0.468
69882W        W41608   2.307  32.881   0.367
69883W        W41609  32.549  11.289  10.519
69884W        W41610   7.973  11.279   2.741
69885W        W41611  34.348  13.092  12.519
69886W        W41612  14.856  32.492   3.254
69887W        W41613  42.853   8.220  11.908
69888W        W41614  28.903  25.218  10.791
69889W        W41615  16.809   2.435   0.331
69890W        W41616  10.351  33.057   2.680
69891W        W41617  41.682  22.722  11.068
69892W        W41618  18.147  28.783  10.720
69893W        W41619  43.247  15.381   3.526
69894W        W41620  16.233   0.751   2.781
69895W        W41621  11.960  33.587   4.042
69896W        W41622   5.197  37.242  14.374
69897W        W41623  29.914  29.519  14.307
69898W        W41624  35.375  38.043   1.394
69899W        W41625  22.179   6.382  14.983
69900W        W41626  20.683  11.384   4.224
69901W        W41627  32.623  18.105  11.971
69902W        W41628  10.874   9.847  12.341
69903W        W41629  33.581  15.586  14.507
69904W        W41630   7.760  44.391  14.856
69905W        W41631  17.622  39.679  12.378
69906W        W41632  32.411  19.707   1.617
69907W        W41633  20.902  41.149  12.035
69908W        W41634   0.677   6.443   3.125
69909W        W41635  35.575  16.770  14.370
69910W        W41636  17.698  34.495  12.908
69911W        W41637  32.126  31.250  11.255
69912W        W41638  29.498  17.405   3.261
69913W        W41639  23.962   5.872  14.897
69914W        W41640  27.157  15.328   4.951
69915W        W41641  12.587  29.126   1.480
69916W        W41642  27.268   4.799  14.949
69917W        W41643  31.794  19.057  14.884
69918W        W41644   3.464  33.283   4.292
69919W        W41645   0.685  11.283  14.425
69920W        W41646  35.223  41.832  13.013
69921W        W41647   6.933  24.274  12.125
69922W        W41648  23.937  38.623   3.160
69923W        W41649  33.110  40.917   3.752
69924W        W41650   6.393  40.367   0.815
69925W        W41651   8.707  24.700  12.731
69926W        W41652   0.070  22.802   4.546
69927W        W41653  27.608  17.271   1.481
69928W        W41654  17.657  33.526  14.333
69929W        W41655  21.153   4.293   1.495
69930W        W41656  31.680  22.571  11.069
69931W        W41657  17.048   3.017  14.032
69932W        W41658  29.758  16.010  12.085
69933W        W41659  43.092  13.842  11.014
69934W        W41660  28.181  23.714   2.386
69935W        W41661   1.495  25.014   2.735
69936W        W41662  14.053  10.173  10.722
69937W        W41663  21.020  17.760   3.411
69938W        W41664  25.527   2.282   0.253
69939W        W41665  30.567  23.276   0.431
69940W        W41666  33.850  22.210  11.055
69941W        W41667  28.341  38.479   4.039
69942W        W41668  40.010  36.073  13.848
69943W        W41669  13.762   5.322  10.936
69944W        W41670  11.323  23.642   2.717
69945W        W41671   3.262  41.334  11.393
69946W        W41672  27.109  16.552   3.321
69947W        W41673  13.762   6.449  13.790
69948W        W41674   5.552  34.609  11.097
69949W        W41675   3.824  24.672   4.815
69950W        W41676  31.204   0.458  13.104
69951W        W41677  18.758   1.373  13.915
69952W        W41678  21.904  23.999   2.309
69953W        W41679  31.183  37.628  14.795
69954W        W41680  26.985  17.937   0.832
69955W        W41681   5.324  12.700   0.879
69956W        W41682  31.412  14.309   4.620
69957W        W41683   8.150  44.029   2.201
69958W        W41684   5.375  22.525  13.743
69959W        W41685   3.646  41.818  10.663
69960W        W41686  42.244  31.877   2.352
69961W        W41687  39.498  13.229  13.662
69962W        W41688  25.756   2.514  14.164
69963W        W41689  28.450  38.964   2.141
69964W        W41690  19.226  18.332  12.134
69965W        W41691  21.102  22.500   0.090
69966W        W41692   6.317   3.838   1.272
69967W        W41693  18.723  13.150   1.784
69968W        W41694  30.987  16.663  12.974
69969W        W41695  16.008   2.992   4.013
69970W        W41696  19.854  12.846   5.092
69971W        W41697  14.231  43.949  13.379
69972W        W41698  13.616   7.270  14.385
69973W        W41699  11.261  14.599  11.955
69974W        W41700   2.428  26.576   2.869
69975W        W41701  36.646  22.640   1.251
69976W        W41702  17.880  39.636  10.239
69977W        W41703   4.746  22.978  10.700
69978W        W41704  40.385   0.493   0.068
69979W        W41705  33.172   7.644  14.781
69980W        W41706   0.961  28.610  13.784
69981W        W41707  24.736  16.344  12.579
69982W        W41708  34.375  33.527  11.016
69983W        W41709   1.867  16.169   3.187
69984W        W41710  25.131  38.304  13.938
69985W        W41711  22.030  39.943   4.964
69986W        W41712  17.016   4.133  14.994
69987W        W41713   6.726  35.557  11.608
69988W        W41714   8.224  39.769   4.486
69989W        W41715  42.989   8.846   1.029
69990W        W41716   1.553   0.909   3.665
69991W        W41717  16.019  10.582   1.881
69992W        W41718  34.340  33.527  12.210
69993W        W41719  33.651  21.156  11.578
69994W        W41720  40.081  15.363  11.610
69995W        W41721  24.010  19.593  13.524
69996W        W41722  19.721  38.057  10.433
69997W        W41723  35.428  40.381  12.919
69998W        W41724  18.832  15.339  10.637
69999W        W41725  43.545  21.490  12.862
70000W        W41726  38.458  17.369  12.501
70001W        W41727  16.825   9.653   1.850
70002W        W41728   9.423  37.903   1.786
70003W        W41729   8.369  28.199   3.604
70004W        W41730  18.189  10.635   3.192
70005W        W41731  19.789  13.154   1.702
70006W        W41732   0.563  38.507   0.904
70007W        W41733  43.323   1.985  14.523
70008W        W41734  15.281  39.817  11.491
70009W        W41735  25.074  20.171  12.956
70010W        W41736  26.964   9.920  14.060
70011W        W41737  24.714  26.390  14.481
70012W        W41738  39.035  26.982   0.415
70013W        W41739   2.210   0.467   3.271
70014W        W41740   9.685  29.523   1.521
70015W        W41741  13.159  12.894   0.525
70016W        W41742   9.777   7.919   2.964
70017W        W41743  26.012  15.771  14.467
70018W        W41744  40.263   7.796  13.133
70019W        W41745  21.221  17.181   0.420
70020W        W41746  22.641  19.240   0.058
70021W        W41747  15.105  11.177  14.025
70022W        W41748  13.378  43.925   2.785
70023W        W41749  33.103  20.725  13.516
70024W        W41750   3.113  31.160   3.819
70025W        W41751  31.097  39.332   4.189
70026W        W41752  14.344  24.923  13.281
70027W        W41753   8.166  36.863  14.977
70028W        W41754  10.110  37.494   4.568
70029W        W41755   9.376  20.148  13.347
70030W        W41756  30.137   4.275  11.353
70031W        W41757  12.348  23.092   2.597
70032W        W41758  14.420  27.058   4.698
70033W        W41759  30.616  36.905  13.077
70034W        W41760  20.196  40.076   0.809
70035W        W41761  16.303   2.449  12.879
70036W        W41762  39.436  24.669   2.468
70037W        W41763  24.573  41.223  13.100
70038W        W41764   0.412   1.385   0.949
70039W        W41765  34.873  20.166  11.478
70040W        W41766  16.326  14.421   4.206
70041W        W41767   9.085  43.345  11.614
70042W        W41768  39.851   7.634  13.404
70043W        W41769   2.713  43.644   0.872
70044W        W41770  44.481  15.262   3.735
70045W        W41771   9.947  15.999   3.309
70046W        W41772  23.760  32.434  12.541
70047W        W41773  28.054  10.195   0.944
70048W        W41774  44.839   6.148  14.272
70049W        W41775  15.331  31.819  12.480
70050W        W41776  21.261  24.124  13.915
70051W        W41777  10.825  32.863   0.684
70052W        W41778  16.429   1.763   0.182
70053W        W41779  38.750  40.139   2.654
70054W        W41780  22.747  40.356  11.272
70055W        W41781   1.044  29.552  11.806
70056W        W41782   6.572  19.018  13.259
70057W        W41783  41.393  32.121   3.840
70058W        W41784  12.077   4.711  14.465
70059W        W41785  44.046  25.401  11.558
70060W        W41786  43.245   2.137   3.170
70061W        W41787  43.428  21.195  10.278
70062W        W41788  42.792   0.904  13.911
70063W        W41789  21.032  44.916  12.832
70064W        W41790  37.127  13.680   2.754
70065W        W41791   9.836  17.167  11.099
70066W        W41792  41.584   1.972  13.445
70067W        W41793  26.159   0.788   1.862
70068W        W41794  36.292  21.789  11.585
70069W        W41795  18.190  14.354   4.748
70070W        W41796  22.517   6.289   1.558
70071W        W41797   6.861  24.473   0.728
70072W        W41798  36.550  40.319   2.267
70073W        W41799  14.246  31.625   3.936
70074W        W41800   8.754   7.723  12.095
70075W        W41801  36.765  28.315  12.595
70076W        W41802  13.813  22.869  13.401
70077W        W41803  21.829  41.802   1.763
70078W        W41804   6.481  24.655   0.273
70079W        W41805  31.713   5.127   2.417
70080W        W41806   5.188  44.284   0.042
70081W        W41807  24.506  22.060  14.364
70082W        W41808  17.350   0.394  11.869
70083W        W41809  24.472  44.423  11.058
70084W        W41810  14.091   5.166  13.889
70085W        W41811  36.995  17.319  13.370
70086W        W41812  35.106  38.878   4.416
70087W        W41813  35.164  11.342  13.425
70088W        W41814  18.837  31.692   3.509
70089W        W41815  24.716  37.427  14.831
70090W        W41816   9.528   1.855   1.977
70091W        W41817  20.121  28.981   1.112
70092W        W41818  18.622  20.612   3.634
70093W        W41819  24.501   2.189   2.156
70094W        W41820   0.282   1.339  13.961
70095W        W41821  29.062  18.742   2.640
70096W        W41822  10.420  26.570  11.081
70097W        W41823  28.049  24.364  13.047
70098W        W41824  27.123  17.323  11.928
70099W        W41825  17.737  21.009  10.443
70100W        W41826  29.393  17.774   0.966
70101W        W41827  25.310  24.140  11.635
70102W        W41828  19.164   2.183   1.447
70103W        W41829  26.501  41.528  14.283
70104W        W41830  12.515   0.800  11.337
70105W        W41831  32.384  15.311   1.725
70106W        W41832  14.396  29.737   4.314
70107W        W41833  35.959  29.600  14.441
70108W        W41834  33.434  12.197  12.295
70109W        W41835   3.856  34.479   4.012
70110W        W41836  30.846  44.725   5.257
70111W        W41837  25.865  12.676   4.625
70112W        W41838  32.510   9.798   4.074
70113W        W41839   4.831  42.094   0.909
70114W        W41840  13.519  41.939   2.750
70115W        W41841   8.395  33.616   3.212
70116W        W41842  11.842  22.107   3.634
70117W        W41843  41.710   7.476  10.773
70118W        W41844   5.013   5.749   9.984
70119W        W41845  39.003  33.565   5.159
70120W        W41846  35.359   7.373   4.545
70121W        W41847  22.522   4.048  12.164
70122W        W41848  41.979   6.668  11.586
70123W        W41849  38.762  43.816   3.398
70124W        W41850   4.046  31.411   1.266
70125W        W41851  18.512  30.040   1.433
70126W        W41852  29.876  13.297  12.616
70127W        W41853  43.997   4.816  13.256
70128W        W41854  13.136  41.956  11.193
70129W        W41855   7.452   4.725  11.861
70130W        W41856  21.743   7.246   4.233
70131W        W41857  10.864  33.518  12.848
70132W        W41858  23.956  28.984  10.788
70133W        W41859   1.374   7.134   0.818
70134W        W41860   6.485   2.448   3.811
70135W        W41861  29.113   9.800  13.375
70136W        W41862  27.906   5.263  14.458
70137W        W41863  14.326  19.703   3.668
70138W        W41864  34.772  44.187   4.982
70139W        W41865  41.309  41.695  11.614
70140W        W41866  27.123  14.517   2.727
70141W        W41867  14.340  39.987   4.625
70142W        W41868   3.427  20.847   5.059
70143W        W41869   0.533  34.120  11.882
70144W        W41870  35.611  31.889  12.552
70145W        W41871  16.508  15.271   2.735
70146W        W41872   8.924  13.159  13.064
70147W        W41873   1.867  41.548   1.637
70148W        W41874  31.233  43.547  11.579
70149W        W41875  13.301  16.504   4.104
70150W        W41876  13.704  32.915  13.223
70151W        W41877  14.706  27.433  13.437
70152W        W41878  13.497  28.077  14.794
70153W        W41879  29.601  19.634  14.123
70154W        W41880  12.243  30.991  13.466
70155W        W41881  14.093  44.468  13.448
70156W        W41882  23.441  41.433   4.626
70157W        W41883  23.529  29.875  13.625
70158W        W41884  24.200  32.203   3.680
70159W        W41885  29.688  34.486  12.416
70160W        W41886  29.320  38.791  13.874
70161W        W41887  35.842  25.527   1.794
70162W        W41888  19.656  27.436   3.172
70163W        W41889   8.647  33.387  14.876
70164W        W41890  23.065  42.789   0.648
70165W        W41891  18.780  25.531   0.972
70166W        W41892  33.394  33.573   3.944
70167W        W41893  35.708  29.397   3.181
70168W        W41894  21.553  12.230   4.605
70169W        W41895  16.856  44.413  11.156
70170W        W41896  33.389  39.828   1.803
70171W        W41897  24.569   4.174   1.227
70172W        W41898  19.984  35.401  13.210
70173W        W41899  35.036  26.913   4.157
70174W        W41900  13.425  32.142   0.709
70175W        W41901  33.387  32.460   3.227
70176W        W41902  14.125  40.893  12.477
70177W        W41903   0.384  37.815   2.603
70178W        W41904   9.258   0.718   0.854
70179W        W41905  16.762   2.412   2.320
70180W        W41906  30.644  31.948  10.699
70181W        W41907  22.871  43.953  13.724
70182W        W41908  10.648  17.239  10.774
70183W        W41909  15.180  39.488   4.910
70184W        W41910   4.349  30.337  12.393
70185W        W41911  43.089  18.101  12.328
70186W        W41912  43.423  29.872  10.655
70187W        W41913  44.540  35.576  11.559
70188W        W41914   1.619   5.205   2.373
70189W        W41915  34.407  14.033  12.794
70190W        W41916  43.896   5.265   0.564
70191W        W41917  26.054  24.173  12.473
70192W        W41918  10.041   6.834  14.851
70193W        W41919  27.875  10.283  14.978
70194W        W41920  12.712  32.075   2.811
70195W        W41921  26.521  10.208   1.501
70196W        W41922  11.575  25.213   4.141
70197W        W41923  31.423  18.859  13.574
70198W        W41924  38.050   9.622  14.768
70199W        W41925  40.106  13.767   0.660
70200W        W41926  13.264  10.604   0.174
70201W        W41927  12.127  17.359   0.475
70202W        W41928  42.855  27.102   0.964
70203W        W41929  33.302  25.047   2.323
70204W        W41930  19.823   1.045  11.055
70205W        W41931   3.467  40.554   0.825
70206W        W41932  37.235   9.214   4.576
70207W        W41933  37.268  29.989  13.627
70208W        W41934  11.748  31.221   4.691
70209W        W41935  10.875   7.436   3.129
70210W        W41936  16.061   8.880  13.155
70211W        W41937  34.073  38.521   3.225
70212W        W41938   1.039  23.207  14.898
70213W        W41939  24.088   9.267  13.771
70214W        W41940  31.072  34.389  10.109
70215W        W41941  26.079  36.389   1.787
70216W        W41942   4.883  26.988  14.826
70217W        W41943   7.810  43.261  13.410
70218W        W41944   3.034   2.210  11.862
70219W        W41945  13.754  44.757   1.719
70220W        W41946  37.927   4.020  11.048
70221W        W41947  37.376  36.538  13.837
70222W        W41948  14.307  12.244  10.939
70223W        W41949  40.957  42.805  12.987
70224W        W41950  15.338  44.769   3.777
70225W        W41951  19.002  32.441   3.147
70226W        W41952  16.526  16.119  14.418
70227W        W41953  37.611   3.053   1.769
70228W        W41954  25.139  13.020  11.595
70229W        W41955  44.950  15.879  14.856
70230W        W41956  33.743  37.292  13.968
70231W        W41957  24.529  19.785  12.526
70232W        W41958  26.886  35.152   5.038
70233W        W41959  43.043  24.631   4.903
70234W        W41960   5.475  39.527  14.017
70235W        W41961  37.839   0.061   3.783
70236W        W41962  19.500  42.905   4.588
70237W        W41963  20.637  34.014   4.078
70238W        W41964  19.934  27.531  14.354
70239W        W41965  32.714  21.738   3.384
70240W        W41966  14.451  21.781  14.446
70241W        W41967  36.235  26.454   1.774
70242W        W41968   5.494  37.429  14.755
70243W        W41969  40.319  30.438  10.786
70244W        W41970   1.681  44.944  11.804
70245W        W41971   2.933  30.118   1.874
70246W        W41972   7.339  30.911   2.719
70247W        W41973  15.335  20.894   3.146
70248W        W41974  27.462  18.480   0.141
70249W        W41975  18.312  27.308   4.319
70250W        W41976  44.490   9.061  13.370
70251W        W41977   3.874  29.618  12.897
70252W        W41978  34.144  44.147   3.708
70253W        W41979  21.554  34.419   3.845
70254W        W41980  20.295  25.680   2.904
70255W        W41981  10.168   4.690   3.107
70256W        W41982  38.405  12.431   0.876
70257W        W41983  38.347  38.456  11.719
70258W        W41984  16.691  27.689  10.363
70259W        W41985  38.624   6.849  12.924
70260W        W41986  35.579  24.959  14.280
70261W        W41987  26.640  24.162   1.624
70262W        W41988  16.812   4.874   3.287
70263W        W41989  16.453   3.381   2.320
70264W        W41990   9.198   7.595  14.682
70265W        W41991  34.313  10.274   0.435
70266W        W41992  37.328   8.679  13.027
70267W        W41993  34.622  24.073   2.252
70268W        W41994  40.539  34.083   2.751
70269W        W41995  17.870   6.841   1.706
70270W        W41996  33.936  36.438   4.189
70271W        W41997  17.053  18.128  11.418
70272W        W41998  35.181   5.944  10.252
70273W        W41999  23.605  26.931  14.445
70274W        W42000  11.169   8.625   3.847
70275W        W42001  13.622  15.269   3.298
70276W        W42002  20.169  39.830   3.357
70277W        W42003  36.124  27.168  13.738
70278W        W42004  14.688  35.594  14.043
70279W        W42005  23.177   6.205  10.632
70280W        W42006  25.017  14.312  14.416
70281W        W42007  26.730  44.479  10.873
70282W        W42008  44.904  28.761   0.310
70283W        W42009  36.071   8.383  10.647
70284W        W42010  23.142   8.675  13.038
70285W        W42011  32.589  41.274   5.004
70286W        W42012   1.998  44.213   3.657
70287W        W42013  40.006   5.970  12.850
70288W        W42014   9.155  27.723  11.244
70289W        W42015   4.256  41.985  12.776
70290W        W42016  43.143  26.137   0.223
70291W        W42017  36.070  19.474  11.709
70292W        W42018  30.174  35.341   1.396
70293W        W42019   2.835  15.181  11.715
70294W        W42020   3.857  21.651  12.302
70295W        W42021  42.739   4.812  14.716
70296W        W42022  27.024  26.811   1.469
70297W        W42023  31.229  30.171   3.674
70298W        W42024  36.891   8.608  12.574
70299W        W42025  26.290  17.385   5.051
70300W        W42026  30.154   3.829   4.765
70301W        W42027  25.231  33.031   4.972
70302W        W42028  43.042   9.311  12.609
70303W        W42029   6.357  35.683  13.382
70304W        W42030  17.308  31.671   2.045
70305W        W42031  20.975   9.156   3.576
70306W        W42032  28.493   5.584  13.514
70307W        W42033   0.505  13.223   0.386
70308W        W42034  24.468  44.939   2.967
70309W        W42035  14.243   9.368  14.553
70310W        W42036  40.596  12.980   2.620
70311W        W42037  14.174   5.628   0.380
70312W        W42038  41.238  42.923   2.438
70313W        W42039  28.784  21.000  11.940
70314W        W42040  16.813  25.646  12.144
70315W        W42041   7.633  28.052  12.360
70316W        W42042  37.538  39.455  14.065
70317W        W42043  17.781  40.059  13.352
70318W        W42044  20.118   6.758   4.439
70319W        W42045  27.394  27.836  10.402
70320W        W42046   8.153   3.257  12.633
70321W        W42047  31.410  18.755   4.263
70322W        W42048  11.365  21.084  12.933
70323W        W42049  39.801  34.122   0.371
70324W        W42050  18.526  30.628   4.156
70325W        W42051  42.565   3.286  14.996
70326W        W42052  11.191  14.721  10.591
70327W        W42053  13.015  28.748   0.814
70328W        W42054  43.861  37.313  13.538
70329W        W42055  33.939  22.867   2.439
70330W        W42056  35.473  15.828   1.429
70331W        W42057  31.343  22.207   4.168
70332W        W42058  13.984  42.879   4.758
70333W        W42059  32.994  21.193  13.856
70334W        W42060  41.495  16.120   2.718
70335W        W42061  36.162   7.992  12.521
70336W        W42062   0.708  22.071   3.520
70337W        W42063  40.077   1.972   3.761
70338W        W42064  38.345  41.841  14.769
70339W        W42065   9.516  29.603  14.805
70340W        W42066  37.574  40.302   3.341
70341W        W42067  39.770  21.755  12.600
70342W        W42068  22.550  16.839   1.361
70343W        W42069  33.436  30.651  12.310
70344W        W42070   4.897   2.869  12.885
70345W        W42071  44.996  15.243   4.588
70346W        W42072  28.729  12.512   2.746
70347W        W42073  40.326  40.723   1.261
70348W        W42074  44.821  28.514   3.650
70349W        W42075  37.828  10.383  11.184
70350W        W42076  25.454  21.031   3.199
70351W        W42077  12.577  18.599   4.872
70352W        W42078   9.932  11.218  14.387
70353W        W42079  11.675   4.027   0.428
70354W        W42080  18.614  28.493  12.298
70355W        W42081   9.021   9.700  12.443
70356W        W42082  16.524  39.102   1.178
70357W        W42083  35.910  34.551   2.843
70358W        W42084  27.902   1.935  11.214
70359W        W42085  28.019  32.960   2.899
70360W        W42086  42.464   3.479   3.753
70361W        W42087  18.562  28.555  10.516
70362W        W42088   3.055  23.585  11.833
70363W        W42089  14.806  21.010  13.075
70364W        W42090  40.503  25.261   0.843
70365W        W42091   8.758  23.330  13.146
70366W        W42092  43.343  42.380   0.341
70367W        W42093  11.419  37.032   1.229
70368W        W42094  40.009   3.218   3.367
70369W        W42095  33.459  11.662  12.123
70370W        W42096  31.501  37.172  12.599
70371W        W42097   8.666   9.544  12.832
70372W        W42098  21.188  24.536  13.284
70373W        W42099   6.658  33.355  13.473
70374W        W42100   2.829  29.663  13.941
70375W        W42101  22.143  13.741  12.418
70376W        W42102  20.614  15.722  13.576
70377W        W42103  27.625   3.392   3.836
70378W        W42104   6.661  33.097   1.676
70379W        W42105   8.046  35.534  13.071
70380W        W42106   0.266  26.037   4.191
70381W        W42107  42.329  15.340  11.137
70382W        W42108  19.679  35.605  12.828
70383W        W42109  22.708  12.060   0.588
70384W        W42110   9.688  29.439   2.479
70385W        W42111   7.387  43.905   1.481
70386W        W42112  41.677  44.021   3.359
70387W        W42113   4.627   5.007   3.708
70388W        W42114  34.339  30.693   0.997
70389W        W42115  43.335  26.460  12.692
70390W        W42116   4.932  15.093   4.097
70391W        W42117  31.004   8.845  10.630
70392W        W42118  32.433   7.427  11.109
70393W        W42119  15.307  40.792   3.016
70394W        W42120  37.319   9.880   2.587
70395W        W42121   8.142  23.053   3.875
70396W        W42122   3.385  43.021   4.379
70397W        W42123  10.221  23.423  14.822
70398W        W42124  36.870  43.191  11.357
70399W        W42125  35.711  33.697  12.020
70400W        W42126  21.470  25.193  12.356
70401W        W42127   0.435  32.311   2.901
70402W        W42128  27.564  38.435   3.302
70403W        W42129   5.765  13.789   5.088
70404W        W42130  29.231  23.198  11.124
70405W        W42131  10.870  11.051  14.048
70406W        W42132   3.449  28.476  12.795
70407W        W42133  32.656  18.255   0.872
70408W        W42134  18.737  26.453  12.064
70409W        W42135  31.477  23.182   9.996
70410W        W42136   9.107  20.031   0.270
70411W        W42137  17.559   8.868  14.452
70412W        W42138  35.846  20.144  12.420
70413W        W42139  34.296  42.228   5.091
70414W        W42140  39.287   2.929   2.559
70415W        W42141  32.704  40.290   3.326
70416W        W42142  40.399  38.462   2.962
70417W        W42143  30.664  23.508   4.225
70418W        W42144   5.673  31.674  11.107
70419W        W42145  44.809  41.577   1.654
70420W        W42146  36.654  10.143  13.553
70421W        W42147  12.150  42.815   5.030
70422W        W42148  19.630  27.981   0.673
70423W        W42149  30.449  28.080  14.838
70424W        W42150  16.543  23.442  12.323
70425W        W42151  44.328  18.948  10.943
70426W        W42152  30.076  40.881   3.578
70427W        W42153  27.113   7.799  14.570
70428W        W42154   1.852   6.641   3.206
70429W        W42155  26.012  41.968  11.082
70430W        W42156   0.415   6.186   3.792
70431W        W42157  24.052  21.516  14.810
70432W        W42158  31.571  42.736   4.179
70433W        W42159  43.538  10.786   0.437
70434W        W42160  20.993  20.486   1.424
70435W        W42161  19.388  17.954  10.683
70436W        W42162  38.434   7.969   4.578
70437W        W42163  34.019  28.010  13.489
70438W        W42164  33.602  39.515  13.616
70439W        W42165  35.093  15.781   4.526
70440W        W42166  17.716  16.736   3.878
70441W        W42167  42.535  21.004  13.436
70442W        W42168  35.428  31.589   4.815
70443W        W42169  33.948  44.964   3.311
70444W        W42170   0.909  42.447   3.269
70445W        W42171   3.749   3.393   2.081
70446W        W42172  44.767  13.197  13.286
70447W        W42173  25.125  43.061   3.013
70448W        W42174  14.525   4.207  11.878
70449W        W42175  26.047  44.300  11.586
70450W        W42176  29.067  34.845  11.931
70451W        W42177  28.768  23.339  10.987
70452W        W42178  16.573  42.780  13.381
70453W        W42179  36.472  19.796   2.671
70454W        W42180  37.022  24.102   3.146
70455W        W42181   7.324  38.516   1.209
70456W        W42182  24.151   5.430  13.408
70457W        W42183  10.234   6.205  14.086
70458W        W42184  20.197  16.796  10.725
70459W        W42185  29.617  18.290  13.307
70460W        W42186  20.033  21.964  12.925
70461W        W42187  18.694  31.839   0.963
70462W        W42188  30.545  11.131   1.142
70463W        W42189  42.070   1.017   3.032
70464W        W42190   1.150   5.193   2.182
70465W        W42191  34.456   3.113   3.298
70466W        W42192  43.030  21.288   1.417
70467W        W42193  41.537  26.091  13.037
70468W        W42194  42.922   1.102   1.130
70469W        W42195  31.678  35.381  11.060
70470W        W42196   4.747  30.127  11.591
70471W        W42197   8.872  27.271   4.370
70472W        W42198  18.900   5.006   2.357
70473W        W42199  11.279  32.883  14.883
70474W        W42200   4.742  16.114  13.924
70475W        W42201  34.740  18.135   0.751
70476W        W42202  29.777  34.079   0.293
70477W        W42203  18.132  17.290  14.692
70478W        W42204  34.540  30.569  13.578
70479W        W42205  40.431  15.439  14.877
70480W        W42206  30.774  26.438  12.567
70481W        W42207  18.280   9.764   2.039
70482W        W42208  22.576  13.884   0.945
70483W        W42209  13.835  40.367  11.398
70484W        W42210   4.723   5.271   4.922
70485W        W42211  37.420  37.173  13.029
70486W        W42212  40.475   2.967   3.241
70487W        W42213  31.230  21.298   4.984
70488W        W42214  40.476  18.583  10.523
70489W        W42215  25.789   0.765  10.214
70490W        W42216  34.465  26.539  11.934
70491W        W42217  20.436  13.257  10.484
70492W        W42218  36.883  25.467  10.884
70493W        W42219   9.797  41.797  13.668
70494W        W42220  19.662   8.142   0.249
70495W        W42221  44.467   5.240   4.083
70496W        W42222  33.096  26.217   3.134
70497W        W42223   6.939   2.423   4.049
70498W        W42224  32.998  32.967   0.412
70499W        W42225  18.504  22.133  10.681
70500W        W42226   0.960  33.103  14.147
70501W        W42227   8.270  31.004  12.587
70502W        W42228  36.501  23.252  14.939
70503W        W42229   2.769  43.375  14.374
70504W        W42230  36.313  18.027  12.897
70505W        W42231   9.526   9.633  12.710
70506W        W42232  19.503  32.294   3.235
70507W        W42233   4.255   7.368  14.951
70508W        W42234  41.906  14.635   0.515
70509W        W42235  12.110  34.047   3.140
70510W        W42236   5.472   7.803   4.703
70511W        W42237  26.621   0.948   9.903
70512W        W42238  24.198   6.709  13.027
70513W        W42239   0.038  44.724  12.881
70514W        W42240  13.850  12.730   1.953
70515W        W42241  13.317  13.414  12.046
70516W        W42242  20.087  24.770  13.952
70517W        W42243  33.603  16.106  14.722
70518W        W42244  16.287  16.415   4.113
70519W        W42245  40.256   8.213  11.416
70520W        W42246  11.937  27.147  13.878
70521W        W42247  34.417  30.675   2.353
70522W        W42248   5.743   9.693   3.812
70523W        W42249  35.611   5.281  10.764
70524W        W42250   6.778  29.960  14.370
70525W        W42251  11.095   7.718  13.917
70526W        W42252  37.935  19.447  14.340
70527W        W42253   8.226  36.403   2.299
70528W        W42254  36.048   7.860  14.573
70529W        W42255  44.191  15.836  11.136
70530W        W42256  22.442  17.874  14.579
70531W        W42257  23.555  27.924  14.197
70532W        W42258  24.437  37.086  12.544
70533W        W42259  33.533  36.876   2.486
70534W        W42260   7.149   7.923   0.882
70535W        W42261  26.744  42.390   4.335
70536W        W42262  25.623  11.173   2.466
70537W        W42263  11.925  39.354  13.002
70538W        W42264   2.433  37.764   2.875
70539W        W42265  23.923  32.639   1.296
70540W        W42266   5.731  26.251  12.961
70541W        W42267  40.949  43.656   2.804
70542W        W42268   7.826  22.253   3.674
70543W        W42269   4.124  10.353   1.753
70544W        W42270   0.705  29.524  11.436
70545W        W42271  20.110  12.799   0.184
70546W        W42272   7.339  10.241  11.658
70547W        W42273  41.075  14.646  14.971
70548W        W42274  36.907  35.285  14.816
70549W        W42275  44.750  32.346   3.981
70550W        W42276  16.854  23.937  12.425
70551W        W42277  37.606  17.314  12.541
70552W        W42278  10.718  29.173   4.389
70553W        W42279  26.391  18.750  12.164
70554W        W42280  29.127   3.876  14.793
70555W        W42281  23.435   1.172  12.852
70556W        W42282  42.276  16.687  14.318
70557W        W42283  35.019  33.936   1.382
70558W        W42284  12.452  41.337  13.098
70559W        W42285   5.630   3.244  12.067
70560W        W42286  18.247   9.146   4.283
70561W        W42287  29.028   6.383   3.992
70562W        W42288  11.791  20.800  11.902
70563W        W42289  30.724  23.103   1.673
70564W        W42290  24.757   8.374  13.890
70565W        W42291  43.048  24.170   0.896
70566W        W42292  16.094  38.519   0.228
70567W        W42293  14.757   4.775  13.736
70568W        W42294  23.575  32.948   4.592
70569W        W42295  10.568  14.670  14.729
70570W        W42296   8.119   5.946   4.131
70571W        W42297  24.688  21.515   2.049
70572W        W42298  25.519   4.809  12.107
70573W        W42299  41.226  40.813   4.717
70574W        W42300  26.140  25.469   2.171
70575W        W42301  31.001  30.674   1.808
70576W        W42302  23.953  11.915  12.442
70577W        W42303  42.423   4.629   1.976
70578W        W42304  17.689  16.163   3.173
70579W        W42305  31.988  36.882  14.031
70580W        W42306  25.057  13.081  13.572
70581W        W42307   0.329   5.472  14.284
70582W        W42308   6.959  32.034   4.022
70583W        W42309  42.657  12.285  14.925
70584W        W42310   0.410  16.076  11.728
70585W        W42311   0.907  40.648   1.098
70586W        W42312  24.041  43.513   4.159
70587W        W42313   6.655  43.062  13.307
70588W        W42314  31.399  25.945  12.698
70589W        W42315  12.425   7.542  10.762
70590W        W42316  16.492  19.267  14.792
70591W        W42317  21.095  33.122  10.093
70592W        W42318  25.947   0.759   1.410
70593W        W42319   1.882   3.648   3.184
70594W        W42320  32.167  28.854  14.370
70595W        W42321  15.843   9.613  12.530
70596W        W42322  15.335   2.757  14.453
70597W        W42323  22.046   1.524  11.216
70598W        W42324  43.286  36.581  12.063
70599W        W42325  33.374  22.224  14.488
70600W        W42326  32.844   9.440  14.931
70601W        W42327   0.997   5.463  11.162
70602W        W42328  19.577  41.305  14.049
70603W        W42329   0.404  37.832  10.618
70604W        W42330   5.677  16.332  12.075
70605W        W42331  22.526  11.293   3.111
70606W        W42332  44.273  29.210  13.013
70607W        W42333  30.502  12.739  14.281
70608W        W42334  22.719  17.600  11.871
70609W        W42335  13.118  19.461  13.924
70610W        W42336  10.842  43.031   2.088
70611W        W42337  26.533  36.112   0.519
70612W        W42338   2.262  13.887   4.149
70613W        W42339  26.494  20.261   3.700
70614W        W42340   6.014  19.753   0.889
70615W        W42341  42.571  18.928   4.305
70616W        W42342  29.988  32.555   4.102
70617W        W42343  18.706  13.905  12.021
70618W        W42344  25.113  36.078  11.198
70619W        W42345  26.176   6.309   2.478
70620W        W42346  38.825   3.928   0.943
70621W        W42347   4.024  27.653   2.667
70622W        W42348  43.561  27.145   4.251
70623W        W42349  12.895  16.199  13.846
70624W        W42350  13.786  20.730  13.548
70625W        W42351  26.149   9.649   0.191
70626W        W42352  12.496  30.118   4.643
70627W        W42353  10.359  44.974  13.554
70628W        W42354  25.347  12.715   4.589
70629W        W42355  39.949  41.748   2.370
70630W        W42356  11.186  14.372  11.501
70631W        W42357  33.333  44.025   0.865
70632W        W42358  33.898  35.697   0.527
70633W        W42359   2.322  36.887  10.679
70634W        W42360  40.815  28.708  12.565
70635W        W42361  10.306  16.624  13.422
70636W        W42362  27.867  40.520  14.807
70637W        W42363   3.696  12.182  11.872
70638W        W42364  39.338  13.401   3.681
70639W        W42365   8.629  41.630  13.669
70640W        W42366  44.403  29.961   0.945
70641W        W42367  19.941   6.284  11.235
70642W        W42368  21.989   1.006   1.410
70643W        W42369  36.960  32.771  14.954
70644W        W42370  17.019  14.741   4.382
70645W        W42371  25.196  32.596   3.987
70646W        W42372  44.491  37.827  10.408
70647W        W42373  32.192  44.748   5.073
70648W        W42374  13.057  17.812   2.110
70649W        W42375  23.163  22.209  10.688
70650W        W42376  38.869   9.286  14.995
70651W        W42377  28.035  40.766   0.253
70652W        W42378  20.818   2.393  14.386
70653W        W42379   1.492  28.329   0.850
70654W        W42380  29.129   4.210  10.631
70655W        W42381  20.207   3.967  12.013
70656W        W42382  29.629  10.264   3.097
70657W        W42383   9.689  28.468   1.405
70658W        W42384  27.667  22.059  13.061
70659W        W42385  25.747  26.883  13.896
70660W        W42386  28.556   3.907  10.583
70661W        W42387  14.413  28.596  12.502
70662W        W42388   3.749  36.634  12.927
70663W        W42389  41.572  35.454   0.183
70664W        W42390  44.022  42.772  14.972
70665W        W42391  29.365   9.236   4.263
70666W        W42392   0.383  15.110  14.975
70667W        W42393  20.544  27.435   2.669
70668W        W42394  41.763  38.049  12.991
70669W        W42395  25.605  22.563   1.450
70670W        W42396  11.761  19.091   0.176
70671W        W42397  14.922   6.602   1.695
70672W        W42398  39.630  23.545  12.487
70673W        W42399   7.442  15.623   1.211
70674W        W42400  15.682  30.082   2.193
70675W        W42401  23.609  32.324  13.957
70676W        W42402   3.828  42.036   0.798
70677W        W42403  29.404  42.372   3.110
70678W        W42404  14.238  43.824   4.710
70679W        W42405  11.753  26.261  10.287
70680W        W42406  28.405  17.601   4.610
70681W        W42407  17.608  28.514   1.626
70682W        W42408  20.783   5.611  12.463
70683W        W42409   7.134   4.297  10.096
70684W        W42410  19.715   1.255  12.336
70685W        W42411  19.108  34.607   0.861
70686W        W42412  22.895  29.104  14.012
70687W        W42413  24.726  44.952  14.235
70688W        W42414   8.178  25.327   3.698
70689W        W42415  43.892  14.206   3.207
70690W        W42416  19.313  28.416  10.779
70691W        W42417   7.797  33.540   2.440
70692W        W42418  21.194  39.389  10.924
70693W        W42419  21.132  42.261   2.336
70694W        W42420  13.363  42.982  11.319
70695W        W42421   0.266  30.383   4.933
70696W        W42422  40.461  11.773   0.445
70697W        W42423  23.961  38.304  10.789
70698W        W42424  21.526  14.594   0.868
70699W        W42425  22.950   5.653  14.212
70700W        W42426  43.832  15.877   0.949
70701W        W42427  38.836  44.931   2.727
70702W        W42428   6.897  42.842  10.653
70703W        W42429  36.913  21.719   4.503
70704W        W42430  26.210   2.211  12.081
70705W        W42431  29.254  17.784   3.009
70706W        W42432  26.710  15.726  13.376
70707W        W42433   5.795  27.373  12.215
70708W        W42434  35.290  19.568   4.173
70709W        W42435  21.730  38.422  12.924
70710W        W42436  12.701  44.905   3.175
70711W        W42437  39.210   0.669   1.390
70712W        W42438  35.560  23.516  10.590
70713W        W42439   5.933  21.186  11.718
70714W        W42440  11.315  22.898  13.943
70715W        W42441  39.461   6.171   4.302
70716W        W42442  40.715  15.779  11.332
70717W        W42443  41.535  39.343   1.251
70718W        W42444  15.001  39.480   2.903
70719W        W42445  27.213  10.771  12.843
70720W        W42446  16.114  25.100   4.040
70721W        W42447   5.492   5.432  12.361
70722W        W42448  37.776  28.031  13.996
70723W        W42449  22.057  13.272   4.482
70724W        W42450  34.318  34.685  13.643
70725W        W42451  16.640  24.003   4.252
70726W        W42452  13.304  28.592  13.133
70727W        W42453  10.059  41.540   4.979
70728W        W42454  32.470  29.072   4.702
70729W        W42455   2.913  10.391  12.075
70730W        W42456  30.435  38.541  11.064
70731W        W42457  43.084  37.485  11.466
70732W        W42458  26.986   1.759  13.105
70733W        W42459  17.491  24.832  12.087
70734W        W42460  11.224  29.135  11.061
70735W        W42461   8.236  11.193  14.948
70736W        W42462  42.137  20.449   3.230
70737W        W42463  40.084  43.883   3.735
70738W        W42464  22.346  33.589   1.320
70739W        W42465  34.919   4.795   2.331
70740W        W42466  14.771  29.241  13.087
70741W        W42467  36.170  34.513   1.828
70742W        W42468  23.665  25.983   0.846
70743W        W42469   8.335  33.828  14.962
70744W        W42470  20.249   9.855   4.891
70745W        W42471  43.426  18.148  10.765
70746W        W42472  28.121   1.350   1.469
70747W        W42473  29.437  34.431   1.958
70748W        W42474  24.248   9.614  12.106
70749W        W42475   8.898  27.179  12.537
70750W        W42476  20.035  15.953  12.449
70751W        W42477  44.161   0.460   0.977
70752W        W42478  29.341  18.638   4.537
70753W        W42479  15.985  19.427  11.419
70754W        W42480  35.473  28.053   2.722
70755W        W42481  37.189  10.238   0.903
70756W        W42482  22.804  36.702  14.118
70757W        W42483  18.029  31.700  11.273
70758W        W42484  19.743  12.619   0.485
70759W        W42485  32.212  25.242  12.518
70760W        W42486  11.934  14.319   2.034
70761W        W42487  44.783  19.286  11.982
70762W        W42488  40.116  19.395   1.326
70763W        W42489   9.692   6.016   3.967
70764W        W42490   6.671  28.151   0.828
70765W        W42491  28.627   1.737  14.783
70766W        W42492  39.025  15.589  13.919
70767W        W42493   7.527  23.752   4.105
70768W        W42494  36.076  20.352   4.927
70769W        W42495  25.698  22.134   1.716
70770W        W42496  39.812  24.097   1.874
70771W        W42497   1.802  38.850   3.640
70772W        W42498  25.976  32.533  12.420
70773W        W42499  24.143  32.979   4.865
70774W        W42500  19.087  32.660   4.540
70775W        W42501  21.781  44.356  13.808
70776W        W42502   0.472  43.251  12.489
70777W        W42503  23.139  22.217   4.441
70778W        W42504  18.037  30.403   0.338
70779W        W42505  42.793   3.942  11.589
70780W        W42506  18.045   6.241  12.388
70781W        W42507  37.040  38.740  14.099
70782W        W42508  13.086   2.218   3.410
70783W        W42509  19.688  19.645   2.616
70784W        W42510   0.350   9.284  12.861
70785W        W42511   1.332  41.089  11.425
70786W        W42512  33.723  25.472   1.952
70787W        W42513   5.186  39.276   4.614
70788W        W42514   4.687  12.028   2.786
70789W        W42515  16.805   4.845  10.784
70790W        W42516  22.490  18.706   3.111
70791W        W42517   1.343  43.526   0.618
70792W        W42518   6.923  27.469   2.027
70793W        W42519  28.516  24.258   0.757
70794W        W42520  28.047   9.192  10.758
70795W        W42521  14.725  43.669  13.947
70796W        W42522  13.643   6.908   0.242
70797W        W42523  29.200  35.040   0.440
70798W        W42524  13.664  44.428   1.335
70799W        W42525  13.073   1.737  14.792
70800W        W42526   4.987  37.663   3.237
70801W        W42527  36.328  11.103   1.608
70802W        W42528  12.853   8.668  13.379
70803W        W42529  27.417  19.364  13.568
70804W        W42530  10.185  42.048   4.992
70805W        W42531   3.364  32.888   1.296
70806W        W42532  21.937  40.482  12.581
70807W        W42533  28.842  37.617  13.422
70808W        W42534  11.828  24.986  14.334
70809W        W42535   3.004  17.399   1.678
70810W        W42536  15.313  12.652  13.884
70811W        W42537  44.876  11.602  14.371
70812W        W42538  41.299   2.386  13.383
70813W        W42539   7.497  34.593  13.890
70814W        W42540  32.249   2.957   3.292
70815W        W42541  27.448  16.827   1.272
70816W        W42542  32.118  17.365   4.176
70817W        W42543   4.654  26.910   4.148
70818W        W42544  25.191  12.181  14.831
70819W        W42545  31.689  41.811   2.634
70820W        W42546  41.731  14.056  14.693
70821W        W42547   4.946  12.149  14.860
70822W        W42548   4.346   3.482   0.315
70823W        W42549  44.158  14.607  11.245
70824W        W42550  41.286  28.383  11.448
70825W        W42551  12.647   5.234   4.400
70826W        W42552  40.747  32.791  12.000
70827W        W42553   5.497   6.140  11.285
70828W        W42554  15.819  35.972  13.524
70829W        W42555   7.158   5.396   1.304
70830W        W42556   3.408  26.641  10.126
70831W        W42557  35.884   1.478  14.717
70832W        W42558  11.225  43.744  13.041
70833W        W42559  17.613   7.271   1.964
70834W        W42560  20.344  37.556  10.690
70835W        W42561   5.565  28.118   1.756
70836W        W42562  26.412  32.735   0.987
70837W        W42563  38.725   5.618   0.886
70838W        W42564  37.949   9.572   0.893
70839W        W42565   0.723  12.340   0.502
70840W        W42566  33.138  30.893  14.821
70841W        W42567  34.970  35.535  11.090
70842W        W42568  40.170  25.204  13.756
70843W        W42569   5.357  13.998   1.819
70844W        W42570   9.156  41.476  13.089
70845W        W42571  13.841  23.414  11.047
70846W        W42572  36.075  19.753   3.718
70847W        W42573  35.352   5.149  11.182
70848W        W42574  35.295   3.832   2.612
70849W        W42575  17.259   9.341  13.857
70850W        W42576  20.682  37.445   3.946
70851W        W42577   9.335  35.457   2.321
70852W        W42578  36.957  16.657  11.528
70853W        W42579  26.758  43.741   1.379
70854W        W42580  12.867  23.501   3.669
70855W        W42581  32.959  26.132  14.789
70856W        W42582  11.301  35.134  13.172
70857W        W42583  10.330  27.533   0.830
70858W        W42584  25.920  11.130   3.508
70859W        W42585  41.070   2.836  13.416
70860W        W42586  37.426  19.625   2.982
70861W        W42587  27.457   2.167  11.108
70862W        W42588  33.231  29.932   2.266
70863W        W42589   6.739   9.292   1.378
70864W        W42590  12.632  27.049   1.378
70865W        W42591  33.586  19.529   4.160
70866W        W42592  24.665  24.065  13.536
70867W        W42593  17.803  14.216   0.957
70868W        W42594  24.272  36.948  12.068
70869W        W42595  34.884  21.026   1.759
70870W        W42596  19.458  23.409  11.949
70871W        W42597   7.865  43.611  11.174
70872W        W42598  27.719  19.794  14.893
70873W        W42599  27.420  26.500  14.601
70874W        W42600  28.285  24.685   0.425
70875W        W42601   0.348  37.913   4.097
70876W        W42602   9.130  30.207  11.188
70877W        W42603  44.519  10.879  12.451
70878W        W42604   8.717  41.872  11.544
70879W        W42605   4.922  38.999   0.196
70880W        W42606   4.996  19.841  14.656
70881W        W42607  42.396  33.903  13.314
70882W        W42608   8.268  27.188   1.221
70883W        W42609  27.634  38.772   3.678
70884W        W42610   2.972  16.466   2.238
70885W        W42611  28.168  18.204  13.543
70886W        W42612  26.643  23.936   2.865
70887W        W42613  10.740   5.480   0.225
70888W        W42614  22.661  31.449   1.712
70889W        W42615  30.869  24.256   1.822
70890W        W42616  10.723   4.422  12.930
70891W        W42617   2.944   3.788  12.972
70892W        W42618   2.362   5.300   0.893
70893W        W42619  10.000   0.946  14.438
70894W        W42620   7.132  29.110  13.911
70895W        W42621   2.248   3.771  11.601
70896W        W42622  27.034  43.591   0.166
70897W        W42623  10.049  38.876   3.736
70898W        W42624  12.926  19.584   1.709
70899W        W42625  30.939   3.226   4.364
70900W        W42626  25.689  25.551   3.377
70901W        W42627  12.851  27.096   0.892
70902W        W42628  44.360   1.835  13.375
70903W        W42629  24.515  30.912   3.358
70904W        W42630  16.266  40.355   3.562
70905W        W42631  33.626  18.354  14.421
70906W        W42632  21.092  27.531   5.175
70907W        W42633   1.061  19.190  13.363
70908W        W42634  16.716  38.866  11.607
70909W        W42635  19.307  18.498   3.305
70910W        W42636  17.842   8.366   4.114
70911W        W42637  25.896  37.482   1.151
70912W        W42638  31.658  21.827   0.723
70913W        W42639  27.227  28.252  14.373
70914W        W42640  33.074  15.001  10.804
70915W        W42641  23.176  42.373   2.928
70916W        W42642  31.357  41.779   4.039
70917W        W42643  35.503  31.596   0.375
70918W        W42644  34.950  39.187  12.099
70919W        W42645  44.507   6.178  12.051
70920W        W42646  22.220  10.282   4.013
70921W        W42647  29.660   3.373  13.771
70922W        W42648  36.819  19.637  10.636
70923W        W42649  21.906  34.496   4.228
70924W        W42650  22.005  41.302   1.737
70925W        W42651  19.804  30.808   4.053
70926W        W42652  33.530  29.510   2.333
70927W        W42653  32.730  26.184  10.756
70928W        W42654  36.354   9.392   4.196
70929W        W42655  18.151  17.475   0.156
70930W        W42656  37.081  19.054   3.928
70931W        W42657   9.425  33.639   2.958
70932W        W42658   9.699  32.075   1.653
70933W        W42659  10.759  24.587   2.274
70934W        W42660  38.221  43.204  14.481
70935W        W42661  24.150   3.983  11.608
70936W        W42662  25.090  12.663  14.980
70937W        W42663  16.221  36.169   3.093
70938W        W42664  11.252  22.088  10.651
70939W        W42665  23.081   4.697  11.413
70940W        W42666  25.051  44.661  10.217
70941W        W42667   5.515   3.925   4.882
70942W        W42668  16.823   2.914   2.637
70943W        W42669  35.097  25.514  14.756
70944W        W42670  20.573  24.018  11.320
70945W        W42671  30.568   8.959   3.221
70946W        W42672  14.091  40.034   4.136
70947W        W42673  44.333  44.071  13.428
70948W        W42674  18.589  16.293   1.368
70949W        W42675  23.672  44.309  11.432
70950W        W42676  32.310   7.841   4.982
70951W        W42677  12.649   7.649  14.029
70952W        W42678  30.040  19.244  14.561
70953W        W42679   8.118   7.222  12.382
70954W        W42680  30.569  37.910  13.998
70955W        W42681  38.464   1.793  12.606
70956W        W42682   1.349  35.323  13.891
70957W        W42683  18.238   0.834  14.312
70958W        W42684  23.411  36.495  10.711
70959W        W42685  26.706  38.907  14.487
70960W        W42686   8.450  24.530  10.502
70961W        W42687  36.630  39.426  14.304
70962W        W42688  26.229   6.438   3.719
70963W        W42689  30.227  13.293  12.999
70964W        W42690  12.506   5.685  11.249
70965W        W42691  35.290  41.873   3.193
70966W        W42692  18.149  41.495   0.370
70967W        W42693  30.238  33.535   4.659
70968W        W42694   6.313  12.205  13.018
70969W        W42695  18.245  14.792   3.795
70970W        W42696  40.519   7.330  14.967
70971W        W42697  29.509  36.073   4.042
70972W        W42698   5.459  39.625  14.916
70973W        W42699  27.024  39.046   2.327
70974W        W42700  18.735  44.442   0.403
70975W        W42701  35.553  39.898  14.403
70976W        W42702   7.655  34.035   0.703
70977W        W42703  21.621   5.475  10.453
70978W        W42704   6.347   6.385   4.632
70979W        W42705  31.815  37.035   3.720
70980W        W42706  20.798  17.978  11.444
70981W        W42707  40.965  26.501  12.840
70982W        W42708   3.755  27.596  14.314
70983W        W42709  28.149  11.904   2.315
70984W        W42710  38.977  31.223  11.595
70985W        W42711  18.659  20.509  13.987
70986W        W42712  30.895  19.561   1.738
70987W        W42713  44.376  41.497   1.926
70988W        W42714  36.876  39.829   3.754
70989W        W42715  33.514  25.600  12.901
70990W        W42716  30.146  14.286  14.180
70991W        W42717  18.684   3.968  14.934
70992W        W42718   3.844  21.994  13.525
70993W        W42719   5.247  18.258  10.740
70994W        W42720  32.398   6.782   0.513
70995W        W42721   1.560  43.489   2.686
70996W        W42722  27.376  16.684  13.057
70997W        W42723   6.369   3.141   0.117
70998W        W42724  39.839  25.567  13.520
70999W        W42725  30.156  12.266   3.424
71000W        W42726  10.754  28.598  10.265
71001W        W42727  25.239  20.184  11.200
71002W        W42728  22.273  17.505  14.903
71003W        W42729  15.422  14.042  14.906
71004W        W42730  19.027  15.662  14.113
71005W        W42731  11.878  44.820  12.791
71006W        W42732   7.932  28.450  12.471
71007W        W42733   5.919  12.654   0.579
71008W        W42734  39.507  35.238  12.415
71009W        W42735  34.333  19.036  13.466
71010W        W42736   6.694   8.300  13.328
71011W        W42737  18.041  31.563  13.936
71012W        W42738  44.251  17.143  11.853
71013W        W42739  19.917  36.843  13.347
71014W        W42740  41.541  16.196  14.282
71015W        W42741  43.596   8.602   3.229
71016W        W42742   4.179  18.108  14.411
71017W        W42743   6.619  14.079  11.008
71018W        W42744  23.972   8.451   3.200
71019W        W42745  33.089   4.968  11.467
71020W        W42746  22.181  29.189  10.501
71021W        W42747  16.117  13.253  14.061
71022W        W42748   7.741  23.583  11.736
71023W        W42749  20.457  21.780  12.029
71024W        W42750   1.101  15.647  10.360
71025W        W42751  15.205  26.264   1.775
71026W        W42752   2.396  23.973   2.932
71027W        W42753   3.536   6.375  10.819
71028W        W42754  10.579  30.393   2.692
71029W        W42755  14.566  38.588   2.678
71030W        W42756  13.196  21.633   4.470
71031W        W42757  24.770  38.073   0.335
71032W        W42758  20.605  33.127   1.730
71033W        W42759  38.582  29.058  14.317
71034W        W42760  35.048  42.108  12.017
71035W        W42761  28.604  40.696  13.366
71036W        W42762  13.763  12.927   4.846
71037W        W42763  13.667  18.288   3.211
71038W        W42764  10.394   0.226   3.642
71039W        W42765  33.943  31.069  11.047
71040W        W42766  28.426  22.172   3.443
71041W        W42767   8.804  28.188   0.287
71042W        W42768   9.706  42.451   4.986
71043W        W42769  40.181  39.486   3.642
71044W        W42770  35.365  29.123   4.227
71045W        W42771  27.017  27.599   2.136
71046W        W42772  17.651  32.427  14.516
71047W        W42773  37.846  35.587  14.370
71048W        W42774   7.414  14.798  12.361
71049W        W42775  26.654  22.945   0.424
71050W        W42776  14.446  25.871   4.177
71051W        W42777   1.453  22.549   1.377
71052W        W42778  12.773  35.945  13.895
71053W        W42779  34.067   9.392  11.461
71054W        W42780  26.081  17.391   2.040
71055W        W42781  36.812  16.180  12.097
71056W        W42782  18.218  13.622   3.187
71057W        W42783  38.371  12.185  14.438
71058W        W42784  44.399  26.014  10.537
71059W        W42785  18.551  33.735   5.150
71060W        W42786   0.959  30.628   0.736
71061W        W42787  14.857   4.882   3.906
71062W        W42788   3.707  24.973   2.966
71063W        W42789  24.096  41.324  11.835
71064W        W42790  29.381  22.198  13.975
71065W        W42791   8.879  39.916   0.563
71066W        W42792  24.978  42.716   2.126
71067W        W42793  17.802  38.989  11.896
71068W        W42794   5.391  38.952   4.280
71069W        W42795  25.547  37.192   1.576
71070W        W42796  29.746   0.603  13.791
71071W        W42797  12.821  18.551   3.919
71072W        W42798   9.168   3.343  11.167
71073W        W42799  43.167  23.232  13.395
71074W        W42800   4.219  17.213   3.847
71075W        W42801  36.004  17.496   2.465
71076W        W42802   0.995   4.209   2.387
71077W        W42803   6.853  17.746  13.815
71078W        W42804  37.803  25.431   2.023
71079W        W42805  25.747   9.684  14.860
71080W        W42806  18.103  35.404  12.735
71081W        W42807  22.673  11.297   4.584
71082W        W42808  30.922   9.250   1.936
71083W        W42809  13.395  17.515  10.479
71084W        W42810  27.772   9.423   3.191
71085W        W42811  23.146  26.121   1.669
71086W        W42812   1.811  24.007  10.690
71087W        W42813  20.709   3.335   4.074
71088W        W42814   7.967  21.591   0.305
71089W        W42815   2.556  37.029  13.931
71090W        W42816  31.092  38.849   3.941
71091W        W42817  23.150   6.278  14.806
71092W        W42818  35.288  41.463  13.384
71093W        W42819  22.674  20.779   3.806
71094W        W42820  29.009  18.888   0.403
71095W        W42821  34.365  44.357  10.875
71096W        W42822   7.976  42.956   0.924
71097W        W42823  21.486  10.592  11.557
71098W        W42824  15.894  27.936   0.290
71099W        W42825  35.532  44.657  13.360
71100W        W42826  29.501  21.453  14.411
71101W        W42827  29.414  36.492  11.110
71102W        W42828  23.209  17.705   1.856
71103W        W42829  18.869  17.828  11.317
71104W        W42830   5.221  20.206  14.941
71105W        W42831  14.388  39.531  10.991
71106W        W42832  23.580  36.913  13.438
71107W        W42833  17.744  21.461  14.045
71108W        W42834  42.328  36.016  13.884
71109W        W42835   4.531  29.381  13.394
71110W        W42836  11.813  37.784   2.755
71111W        W42837   4.942  38.831   0.939
71112W        W42838  11.071  14.577   3.546
71113W        W42839  11.684   0.212   2.443
71114W        W42840   9.405  26.535   2.700
71115W        W42841  28.700  35.742   3.337
71116W        W42842  36.495  17.689  14.069
71117W        W42843  44.862   2.025   4.033
71118W        W42844  26.108   0.910   2.354
71119W        W42845  40.461  16.826   4.536
71120W        W42846  25.152  39.528  12.343
71121W        W42847  35.954  19.029   2.975
71122W        W42848  36.800  43.868  10.625
71123W        W42849  19.626  14.160  11.115
71124W        W42850   2.916  38.333  12.935
71125W        W42851  20.133  41.859   4.516
71126W        W42852  14.216  22.058   4.722
71127W        W42853  17.880   6.870   3.862
71128W        W42854  12.333  36.808   1.668
71129W        W42855   8.312  30.191   4.522
71130W        W42856   0.697   7.239   0.314
71131W        W42857  37.475  33.268  11.248
71132W        W42858   7.098  41.129   2.860
71133W        W42859  36.104  15.011   2.841
71134W        W42860  32.834   5.737   4.651
71135W        W42861  20.515  24.907   1.634
71136W        W42862  11.170  19.584   1.270
71137W        W42863  38.906  21.594  12.965
71138W        W42864  16.648  33.071   3.986
71139W        W42865  16.517  37.244  10.838
71140W        W42866  23.991  44.381   3.199
71141W        W42867  19.497  43.936   2.664
71142W        W42868  42.192  11.780   2.646
71143W        W42869   4.259  23.134  10.671
71144W        W42870  15.111  23.513   0.513
71145W        W42871  32.498  29.126   1.455
71146W        W42872  36.039  29.575   0.844
71147W        W42873  31.079  10.278  13.653
71148W        W42874  15.037  36.159   1.700
71149W        W42875   6.932  17.884   4.697
71150W        W42876  36.829  33.958  13.410
71151W        W42877  44.829  38.455   0.259
71152W        W42878  20.994  39.865  14.500
71153W        W42879   2.023  33.604  14.958
71154W        W42880  29.606  37.101  11.721
71155W        W42881   7.638  32.092  12.578
71156W        W42882  31.507  16.652  12.864
71157W        W42883  29.173  20.679  11.663
71158W        W42884  38.458  11.033  13.067
71159W        W42885  18.560   7.370   1.974
71160W        W42886  36.712  37.908  12.413
71161W        W42887  29.469  29.692   1.309
71162W        W42888   3.899   0.416  13.003
71163W        W42889  18.696   3.644   4.066
71164W        W42890   8.953  10.523  12.792
71165W        W42891  38.080  39.275  14.826
71166W        W42892  38.964  44.280  14.723
71167W        W42893  44.970  36.580   3.259
71168W        W42894   5.392  12.604   1.947
71169W        W42895  35.067  27.112  10.599
71170W        W42896  17.632  40.374   3.267
71171W        W42897  30.993   6.840  11.776
71172W        W42898  36.120  25.187  12.322
71173W        W42899  39.780  40.899   1.838
71174W        W42900  25.745  24.622   1.530
71175W        W42901  22.800  34.413   3.737
71176W        W42902  14.788   5.437   4.017
71177W        W42903  42.246   4.301   0.915
71178W        W42904  36.082  10.700  12.923
71179W        W42905  39.612   0.989   2.608
71180W        W42906  35.082  10.203  11.121
71181W        W42907   7.706  19.926   3.192
71182W        W42908   5.956  23.515   2.728
71183W        W42909  20.199  26.376  13.327
71184W        W42910   0.495  40.814  11.640
71185W        W42911  23.625  15.122   2.812
71186W        W42912  10.824  22.898   9.811
71187W        W42913  38.247   8.248   0.345
71188W        W42914   4.727  21.525  13.570
71189W        W42915  44.962  39.410  13.459
71190W        W42916  36.172   8.191  11.521
71191W        W42917  10.891  24.004   4.215
71192W        W42918  10.351  27.518  11.023
71193W        W42919   1.745  16.178   1.799
71194W        W42920  22.742  32.988   4.536
71195W        W42921  41.381  35.467  11.102
71196W        W42922  14.145   0.525   2.364
71197W        W42923  26.933  10.535  14.958
71198W        W42924   8.920  23.603   4.732
71199W        W42925   4.362  43.450   4.107
71200W        W42926  38.327  36.306   3.258
71201W        W42927   6.303  34.508   0.651
71202W        W42928  19.418  41.075  11.179
71203W        W42929  11.862  29.892   9.983
71204W        W42930   9.629  16.144   0.550
71205W        W42931  30.145  42.764   0.056
71206W        W42932   4.028  29.905   3.134
71207W        W42933  33.538  10.710  10.599
71208W        W42934  22.336   1.784  12.343
71209W        W42935  26.022   7.981  10.759
71210W        W42936  24.573  18.738  12.394
71211W        W42937  33.884  10.003   4.332
71212W        W42938  23.476   1.353  13.692
71213W        W42939   0.768  29.383  14.408
71214W        W42940  20.671  41.067   1.891
71215W        W42941  14.798  20.075   3.716
71216W        W42942  15.374   4.250   2.074
71217W        W42943  10.673  31.892  14.439
71218W        W42944  34.198  14.719   2.802
71219W        W42945  13.716  12.889   4.306
71220W        W42946  30.838  10.845  12.434
71221W        W42947  22.835  30.758  13.500
71222W        W42948  39.953  41.899   0.264
71223W        W42949  18.714   4.472  14.782
71224W        W42950   3.382  39.978  11.884
71225W        W42951  18.183  14.417  11.599
71226W        W42952  41.745   0.272  10.997
71227W        W42953  40.426  20.635  11.542
71228W        W42954   1.949  18.814  12.986
71229W        W42955  31.137  25.214   1.472
71230W        W42956  22.646  36.977  10.413
71231W        W42957  16.315   8.588  13.736
71232W        W42958  30.154  15.407   1.911
71233W        W42959  34.807   6.910  13.541
71234W        W42960  25.255   5.242  14.595
71235W        W42961  10.418  36.190  12.934
71236W        W42962   9.783  15.085  12.900
71237W        W42963  27.664  35.066  10.719
71238W        W42964  39.925  38.568   2.303
71239W        W42965   4.130  16.259   1.723
71240W        W42966   3.814  10.754   1.806
71241W        W42967  30.329  10.675   1.282
71242W        W42968  12.579  43.407   0.405
71243W        W42969  13.543  34.938   1.414
71244W        W42970  30.893  24.013  12.634
71245W        W42971  31.861  13.924  13.729
71246W        W42972  39.169  20.753  11.124
71247W        W42973  34.056  30.430  13.431
71248W        W42974  42.968  14.836   2.740
71249W        W42975  27.552  38.479  10.375
71250W        W42976  40.495  40.974  10.862
71251W        W42977  24.597   3.707  11.629
71252W        W42978  17.606   6.968  12.044
71253W        W42979   3.279   9.459   4.454
71254W        W42980  33.016  27.476   2.830
71255W        W42981  25.975  14.116   2.289
71256W        W42982  44.747  38.975  12.599
71257W        W42983   9.366  31.628  13.431
71258W        W42984  35.997  23.395   0.006
71259W        W42985  33.212  42.512  11.969
71260W        W42986   8.258   1.870   1.864
71261W        W42987  15.155   6.748  11.151
71262W        W42988  43.329  39.530   4.574
71263W        W42989   1.097  44.897  14.826
71264W        W42990  44.427  34.903  13.010
71265W        W42991  41.499  44.884   3.297
71266W        W42992   7.959  17.232   4.123
71267W        W42993   1.751  27.179   2.276
71268W        W42994   5.271  24.290   0.790
71269W        W42995  19.475  32.156  11.471
71270W        W42996  43.630   4.148   1.935
71271W        W42997   0.963  33.812  11.916
71272W        W42998  22.957   6.354   5.079
71273W        W42999   9.374   9.535   2.129
71274W        W43000   4.450   1.333   3.659
71275W        W43001  39.414  29.908  13.395
71276W        W43002  40.765  32.110   3.326
71277W        W43003  27.391  40.980   4.099
71278W        W43004  16.115   4.805  13.308
71279W        W43005  31.139  17.863   2.654
71280W        W43006  16.717  31.858  12.459
71281W        W43007  43.972   9.630  12.423
71282W        W43008  23.618  42.774  11.597
71283W        W43009  11.251  33.698   0.497
71284W        W43010   8.060  22.342  13.875
71285W        W43011   2.974   4.474  14.181
71286W        W43012  42.573  14.063  13.061
71287W        W43013  18.026  21.836  12.341
71288W        W43014  29.005  40.990  13.457
71289W        W43015  44.147  34.920   2.380
71290W        W43016  36.563  14.886  12.483
71291W        W43017   0.789  36.137  11.099
71292W        W43018  16.564   1.387   1.359
71293W        W43019  14.671  28.500   4.574
71294W        W43020  10.771  25.616   4.167
71295W        W43021  27.118  22.692   9.493
71296W        W43022   7.382  18.372  10.761
71297W        W43023   0.943  40.639  12.120
71298W        W43024  32.821  29.241  10.799
71299W        W43025   9.655  18.486   4.666
71300W        W43026  34.408  23.965   0.007
71301W        W43027  34.363  25.216  11.084
71302W        W43028   3.530  26.957  11.937
71303W        W43029  40.810  30.574  13.488
71304W        W43030  10.135  25.539  10.667
71305W        W43031   6.343  35.156   1.368
71306W        W43032   1.791  12.323   4.780
71307W        W43033  26.957   5.429  13.371
71308W        W43034   2.459   7.685   2.225
71309W        W43035   7.239  12.149  11.612
71310W        W43036  16.502   2.907  10.760
71311W        W43037   2.860  18.096   4.036
71312W        W43038  25.554  40.552   4.281
71313W        W43039  38.570  10.575   0.459
71314W        W43040  13.254  25.195   5.049
71315W        W43041  42.015  24.276  11.530
71316W        W43042  33.022  35.993  14.981
71317W        W43043  35.290  42.693  13.018
71318W        W43044   2.760   0.297   0.041
71319W        W43045  10.204  29.391  14.203
71320W        W43046  16.574   1.283  14.358
71321W        W43047   9.118  37.835  11.140
71322W        W43048  17.118  44.850   3.579
71323W        W43049   9.221  34.984  14.586
71324W        W43050  16.494  41.947   2.361
71325W        W43051  24.172  34.561   4.842
71326W        W43052   6.199  27.471  11.192
71327W        W43053  25.393  43.937  13.410
71328W        W43054   5.243  32.372   0.140
71329W        W43055  17.387  10.599   1.089
71330W        W43056  11.259  26.151   2.280
71331W        W43057  25.954  35.894  10.637
71332W        W43058  15.047   8.992  11.690
71333W        W43059  35.919  17.667   0.476
71334W        W43060  44.569   5.413  13.023
71335W        W43061  34.934  11.823  12.070
71336W        W43062  18.137  12.885   2.726
71337W        W43063  41.248   4.287  11.488
71338W        W43064  23.796  13.673   4.346
71339W        W43065  40.900  12.291  11.520
71340W        W43066  33.442  22.809   4.186
71341W        W43067   0.709  17.314   3.701
71342W        W43068  16.314   1.555  10.784
71343W        W43069  27.769  12.627  11.279
71344W        W43070   2.693  20.722   2.455
71345W        W43071   4.212  26.682  10.681
71346W        W43072  29.811  16.766  11.326
71347W        W43073  26.511   3.606   4.002
71348W        W43074   6.678  13.812   4.988
71349W        W43075  32.451   1.355   1.964
71350W        W43076  38.453  35.175   4.253
71351W        W43077  11.927   7.334   5.044
71352W        W43078   4.161  19.585  10.587
71353W        W43079  39.362   5.418  14.224
71354W        W43080  16.318  14.373   3.331
71355W        W43081   7.812  26.226   3.900
71356W        W43082  25.877  13.350   1.807
71357W        W43083  17.266  27.092   2.931
71358W        W43084  39.178   3.735  11.155
71359W        W43085  12.162  32.535  13.368
71360W        W43086  18.529   0.986  10.787
71361W        W43087  17.115  32.420  12.301
71362W        W43088   0.969  34.970  13.816
71363W        W43089   7.456  11.365   2.747
71364W        W43090  39.686  28.063   2.636
71365W        W43091  44.254  30.954   4.557
71366W        W43092  12.683  40.978  10.671
71367W        W43093  28.549  29.402  10.688
71368W        W43094   7.216  44.848   1.702
71369W        W43095  39.196  30.532  11.134
71370W        W43096  21.755  22.019  12.445
71371W        W43097  14.232  18.020  13.069
71372W        W43098  30.960   3.888  11.221
71373W        W43099  37.469  10.125  12.388
71374W        W43100  31.499  28.605  12.437
71375W        W43101   2.919  39.705  12.618
71376W        W43102   5.319  29.049   0.296
71377W        W43103   5.528  19.715   0.746
71378W        W43104  42.036  39.556   0.986
71379W        W43105  35.594   0.831   2.289
71380W        W43106  41.807   9.345   1.823
71381W        W43107  23.941  40.542   2.723
71382W        W43108  17.348  24.060  12.400
71383W        W43109   7.660  16.831   4.124
71384W        W43110  26.728  41.813   4.621
71385W        W43111  39.587  26.678  12.530
71386W        W43112  16.282  28.473   2.067
71387W        W43113  15.600  37.626  12.936
71388W        W43114  42.053   4.413  12.745
71389W        W43115   9.784  43.915   4.390
71390W        W43116  20.623   7.746  13.915
71391W        W43117  41.851  27.071   1.296
71392W        W43118  18.224  35.993  11.673
71393W        W43119  31.059   3.275   3.861
71394W        W43120   8.494  30.098  12.867
71395W        W43121  35.261  11.786  14.854
71396W        W43122  11.771   9.399  13.816
71397W        W43123  11.297  32.330   1.806
71398W        W43124   6.134  42.724   1.201
71399W        W43125  17.266  38.146   2.305
71400W        W43126  37.008  43.330   3.943
71401W        W43127  43.042  40.171   4.128
71402W        W43128  32.957  25.473   1.465
71403W        W43129   4.889   9.859   2.799
71404W        W43130  24.712  26.993   2.887
71405W        W43131  28.467  33.018   3.186
71406W        W43132  21.640  37.492   1.252
71407W        W43133  14.870  38.265   3.652
71408W        W43134  19.727  29.943  13.043
71409W        W43135  33.639  25.501   2.675
71410W        W43136  36.340  44.459   0.960
71411W        W43137  27.446  39.910  10.588
71412W        W43138   7.389   6.933   2.370
71413W        W43139  14.221  14.304   1.328
71414W        W43140  33.441  33.243   4.701
71415W        W43141  18.441  19.519   5.123
71416W        W43142   4.881  40.500   3.578
71417W        W43143  24.316  33.224  14.123
71418W        W43144  28.086  28.581   2.773
71419W        W43145  29.646  29.693   5.180
71420W        W43146   9.395  42.479  13.836
71421W        W43147  43.523   6.469  11.950
71422W        W43148  20.032   3.008   1.442
71423W        W43149  23.013  34.647  14.227
71424W        W43150  37.120  29.763   3.197
71425W        W43151  42.449  13.350   1.843
71426W        W43152  40.631   6.372  14.100
71427W        W43153  36.132  33.023  10.575
71428W        W43154  39.975  28.060  11.687
71429W        W43155  11.516  44.874  14.264
71430W        W43156   7.871  25.724   3.991
71431W        W43157  15.650  27.126   0.487
71432W        W43158   4.988  36.012  13.106
71433W        W43159  13.280   1.878  12.861
71434W        W43160  39.957  33.347   1.798
71435W        W43161  36.526  38.386  13.413
71436W        W43162  11.511  17.533  14.412
71437W        W43163  19.004   1.086  12.565
71438W        W43164  23.745  35.746  12.095
71439W        W43165  14.602  19.270   1.603
71440W        W43166  23.028   7.305  14.836
71441W        W43167  18.452   0.215   1.646
71442W        W43168  10.994  10.623   1.271
71443W        W43169  30.914   5.206  12.807
71444W        W43170  35.291  16.306   1.515
71445W        W43171  41.382  13.556  14.018
71446W        W43172  12.038  39.598   1.388
71447W        W43173   8.158  20.705   1.420
71448W        W43174   3.941   1.331  13.438
71449W        W43175   7.944  16.180   2.341
71450W        W43176  40.258  38.206  14.857
71451W        W43177  32.718  35.605   1.765
71452W        W43178  26.721  24.197   5.068
71453W        W43179  37.481  13.236   3.406
71454W        W43180  19.245  30.499  14.402
71455W        W43181  35.026  39.819  13.595
71456W        W43182  13.902   2.453  11.105
71457W        W43183  19.106  10.139   1.741
71458W        W43184  25.460   8.733   4.199
71459W        W43185   7.676  26.693   1.661
71460W        W43186  14.087   7.699   0.054
71461W        W43187  32.612  11.459   1.504
71462W        W43188  18.891  10.268  12.101
71463W        W43189  26.121  40.058  10.653
71464W        W43190  29.835  15.774   3.143
71465W        W43191   1.453  20.184   3.745
71466W        W43192   0.116  14.114   4.752
71467W        W43193  23.442   0.456  11.860
71468W        W43194   7.591  32.542   2.691
71469W        W43195  31.378  22.316  10.738
71470W        W43196   7.600   4.767   0.789
71471W        W43197   9.141  12.230  12.287
71472W        W43198  26.149  17.205  10.995
71473W        W43199  11.708   2.528   4.146
71474W        W43200  24.113  35.507   0.834
71475W        W43201  16.084   6.522  14.343
71476W        W43202   5.791   8.689  11.405
71477W        W43203  43.298  28.997   1.371
71478W        W43204  32.124  37.797   3.268
71479W        W43205  29.640   7.024   3.175
71480W        W43206   6.508  20.679   4.138
71481W        W43207   1.433  37.356   0.854
71482W        W43208  17.493   2.543  11.860
71483W        W43209  16.229   3.200  11.699
71484W        W43210  22.061  33.524  14.387
71485W        W43211   0.380   3.803  14.230
71486W        W43212  35.494  36.052  14.580
71487W        W43213   6.778  24.556   1.832
71488W        W43214  22.943  38.062   0.444
71489W        W43215   8.272  37.776  11.601
71490W        W43216  18.319  32.918   2.225
71491W        W43217  16.628  36.052   4.688
71492W        W43218  36.827  22.653   3.210
71493W        W43219  18.771   3.164  12.085
71494W        W43220  41.918  21.665   3.805
71495W        W43221  41.767  34.328   3.357
71496W        W43222  31.444  14.817  11.558
71497W        W43223  30.128   3.773  11.499
71498W        W43224  40.284  19.271  14.937
71499W        W43225  11.645   6.356  11.347
71500W        W43226  34.236  11.850  10.660
71501W        W43227   2.333  21.506  12.493
71502W        W43228  15.431  31.536   3.300
71503W        W43229   4.187   8.119   0.983
71504W        W43230  39.782  21.785  11.229
71505W        W43231  35.557   3.281  11.219
71506W        W43232  28.409  24.674   3.790
71507W        W43233  23.638  15.520   5.007
71508W        W43234  25.591  18.156   0.267
71509W        W43235   0.362  21.297   3.728
71510W        W43236  12.378  44.313   1.844
71511W        W43237  34.058  36.815  14.021
71512W        W43238  39.521  43.747  10.750
71513W        W43239  13.322  10.888   1.273
71514W        W43240   4.440  12.160  11.522
71515W        W43241  10.752  18.127  10.617
71516W        W43242  33.902  28.037   2.588
71517W        W43243  31.903  21.202   4.177
71518W        W43244  16.232  13.915   4.330
71519W        W43245   2.702   3.259  12.116
71520W        W43246  42.207   5.786  11.152
71521W        W43247  37.996  32.503   4.052
71522W        W43248  40.522  12.614   0.749
71523W        W43249  38.066  14.794   3.171
71524W        W43250  12.639  11.298   1.704
71525W        W43251  34.818  17.628  12.156
71526W        W43252  38.898  28.604   1.390
71527W        W43253  38.843  14.570  10.582
71528W        W43254  37.048  11.795  14.474
71529W        W43255   3.524  24.776   0.658
71530W        W43256   2.426  25.318  14.792
71531W        W43257  19.728   9.360   0.875
71532W        W43258  16.579   1.906   1.425
71533W        W43259  10.710  34.552   5.338
71534W        W43260  35.487  35.511  11.507
71535W        W43261   6.753  29.919  10.479
71536W        W43262  36.192  11.479  13.467
71537W        W43263  20.902  24.938   3.071
71538W        W43264   7.378  26.189  14.349
71539W        W43265   3.002  10.930   1.526
71540W        W43266  32.436  25.134  13.001
71541W        W43267   6.582  42.911   3.534
71542W        W43268   2.170  18.949  13.426
71543W        W43269  28.528  33.137  11.653
71544W        W43270  24.476  30.659  14.875
71545W        W43271  42.300   1.490  10.557
71546W        W43272   0.903  27.916   4.439
71547W        W43273   8.164  43.870  14.961
71548W        W43274  29.023  21.471  11.975
71549W        W43275  30.205  15.391   5.100
71550W        W43276   8.480  34.147  10.407
71551W        W43277  44.283   3.871  12.171
71552W        W43278  43.534  25.992  12.827
71553W        W43279  18.267  26.469  11.414
71554W        W43280  14.198  40.899   4.439
71555W        W43281   5.249   6.886   0.217
71556W        W43282  40.864  18.068  13.091
71557W        W43283   0.580   7.830  12.865
71558W        W43284   5.220   2.055   1.215
71559W        W43285  15.593  35.092  13.475
71560W        W43286  38.864  17.727   3.734
71561W        W43287   7.594  18.926   4.034
71562W        W43288  13.782  28.387  13.330
71563W        W43289   3.260  13.271   1.548
71564W        W43290  10.303  22.238  13.231
71565W        W43291  17.667   6.719   1.274
71566W        W43292  20.482  23.478   3.334
71567W        W43293  20.086  38.342   4.508
71568W        W43294   5.758  41.464  12.275
71569W        W43295  38.467  20.631  13.846
71570W        W43296  27.267   1.421  14.346
71571W        W43297  44.788  21.290  11.974
71572W        W43298   9.852   0.835  10.743
71573W        W43299  17.746  25.374   1.467
71574W        W43300  16.658  19.024   3.808
71575W        W43301  34.573   3.933   3.601
71576W        W43302  38.110  14.860  11.073
71577W        W43303  41.023   7.681  13.807
71578W        W43304  41.825  18.455   3.362
71579W        W43305   3.699  42.502  14.571
71580W        W43306  19.551  20.622  14.138
71581W        W43307  30.881  24.570  11.550
71582W        W43308  39.871  33.220   0.428
71583W        W43309  27.059  29.924  11.564
71584W        W43310  35.829  29.103   2.001
71585W        W43311  38.497  38.533  12.584
71586W        W43312  43.762   8.900   3.623
71587W        W43313  24.619  43.095   3.174
71588W        W43314  41.556  28.421  12.754
71589W        W43315  26.702  38.455  12.355
71590W        W43316   8.162  41.792   1.730
71591W        W43317  12.080  38.565   2.653
71592W        W43318  39.085  24.158   4.129
71593W        W43319  21.685  15.139  11.073
71594W        W43320  14.676   1.730  13.035
71595W        W43321  41.651  16.255   4.349
71596W        W43322  11.327   5.226   3.597
71597W        W43323   1.946   1.875   2.887
71598W        W43324  29.473  31.459   0.862
71599W        W43325   7.870  36.830  12.930
71600W        W43326  38.915   2.772   9.769
71601W        W43327   5.763  16.002  11.693
71602W        W43328  16.295  18.501  11.177
71603W        W43329  25.616   8.694   0.735
71604W        W43330  20.213  15.749  10.018
71605W        W43331  31.179   7.661  11.997
71606W        W43332  41.908  39.267  10.730
71607W        W43333  29.126  19.395   5.050
71608W        W43334  23.427  19.550  14.441
71609W        W43335  18.866   2.013  14.841
71610W        W43336  26.145  11.687  13.503
71611W        W43337  13.330   9.132  14.497
71612W        W43338  39.691  13.164  14.139
71613W        W43339  14.072  24.223   4.732
71614W        W43340  24.305  32.225   5.204
71615W        W43341  25.007   9.227  13.261
71616W        W43342  15.283  32.863  12.595
71617W        W43343  21.970  30.169  13.577
71618W        W43344  26.266   2.886   2.679
71619W        W43345  36.788   8.111   5.019
71620W        W43346  32.784  18.885  10.786
71621W        W43347  43.848  21.314   0.756
71622W        W43348  11.681   2.754   3.687
71623W        W43349  13.679  24.211   4.417
71624W        W43350  12.761  13.324   3.652
71625W        W43351  25.666   5.863   4.555
71626W        W43352  14.492  32.142  13.534
71627W        W43353   1.065  21.184   3.797
71628W        W43354  25.505   3.797  11.555
71629W        W43355   8.262  40.019  12.993
71630W        W43356   8.315  28.088   4.611
71631W        W43357  20.280  24.030  12.653
71632W        W43358   4.850  11.659   2.454
71633W        W43359   8.680  13.738   3.406
71634W        W43360  40.226  31.205  14.037
71635W        W43361  20.652  14.073  11.003
71636W        W43362  10.573  42.757  14.494
71637W        W43363   8.129  11.715  11.530
71638W        W43364  29.587  44.402   3.672
71639W        W43365  33.024  14.276   0.470
71640W        W43366  39.592   3.065   1.312
71641W        W43367  15.326   8.944   2.738
71642W        W43368  13.518   4.736  14.446
71643W        W43369  28.097  25.173  10.671
71644W        W43370   1.835  22.920   3.251
71645W        W43371  36.910   7.469  13.749
71646W        W43372  14.063  22.407   0.005
71647W        W43373  39.977  25.631   0.359
71648W        W43374   6.117  40.580  11.955
71649W        W43375   9.368  36.324  13.004
71650W        W43376   7.195  43.489  12.506
71651W        W43377  25.586   4.216  12.424
71652W        W43378  22.168   5.708  12.120
71653W        W43379  19.651  23.130  13.976
71654W        W43380  21.021  13.511  13.368
71655W        W43381  40.997  44.494  12.962
71656W        W43382  42.593  25.927  14.309
71657W        W43383   4.791   2.357  12.881
71658W        W43384  27.920   7.357   4.590
71659W        W43385  12.229  32.343   3.627
71660W        W43386  24.500  44.694   0.974
71661W        W43387  22.070   2.012  13.865
71662W        W43388  31.979   9.165   0.446
71663W        W43389   3.372  40.943   4.635
71664W        W43390  24.997  32.576  11.469
71665W        W43391  24.708  12.943   5.383
71666W        W43392  32.167  16.533  12.592
71667W        W43393  21.472  22.140  12.854
71668W        W43394  43.294  25.067  11.174
71669W        W43395  25.153  22.165  12.452
71670W        W43396  24.018   6.411  14.298
71671W        W43397  41.317   0.119  11.263
71672W        W43398  23.013  23.048  14.764
71673W        W43399   1.709  36.264  11.179
71674W        W43400  41.679  25.911  12.083
71675W        W43401  23.614  36.787  14.534
71676W        W43402  15.185  42.654  13.236
71677W        W43403  19.486  28.964  13.920
71678W        W43404  20.295  30.946   4.124
71679W        W43405   2.330   8.143   2.841
71680W        W43406   4.840  20.717   1.888
71681W        W43407  25.918  37.528  14.301
71682W        W43408  34.268  28.628   3.313
71683W        W43409  25.201  39.939  13.245
71684W        W43410  22.317   0.384   2.678
71685W        W43411  34.067  30.423   3.159
71686W        W43412  25.144  42.713   3.995
71687W        W43413  40.850  14.657   3.217
71688W        W43414  41.118  25.014  13.949
71689W        W43415   8.346   8.324   3.693
71690W        W43416   4.825  21.246   4.697
71691W        W43417  41.017  17.233   3.124
71692W        W43418   0.535  11.381  11.176
71693W        W43419  44.916   8.448   0.762
71694W        W43420  23.755   1.203   2.359
71695W        W43421  22.279  39.386   0.712
71696W        W43422  34.057   6.317   0.450
71697W        W43423  42.227  17.404   3.236
71698W        W43424  42.343  14.874   0.987
71699W        W43425   9.299   0.706  11.557
71700W        W43426   0.810  41.496   2.216
71701W        W43427  44.842  11.704   0.222
71702W        W43428  12.364  26.489  11.566
71703W        W43429  14.852  24.491   3.207
71704W        W43430  37.404   0.498   0.260
71705W        W43431   2.528  20.246  13.580
71706W        W43432  33.054  27.436   4.832
71707W        W43433   7.861   5.454   3.423
71708W        W43434  25.057  31.850  13.048
71709W        W43435  25.584   2.303   4.442
71710W        W43436  11.315  33.628   3.185
71711W        W43437   7.209  13.142  12.457
71712W        W43438  16.543  35.499   1.881
71713W        W43439  38.621  35.583   2.758
71714W        W43440  36.796  22.670   4.118
71715W        W43441   1.294   0.725   4.099
71716W        W43442   9.328  23.764  13.813
71717W        W43443  39.990  34.392   4.054
71718W        W43444  10.388  10.906  13.073
71719W        W43445  10.280  27.432  14.473
71720W        W43446  27.668  39.890   2.219
71721W        W43447  15.635  18.971   3.841
71722W        W43448  41.840   2.872   3.619
71723W        W43449   7.323   8.952  13.438
71724W        W43450   7.965  17.781  11.915
71725W        W43451  28.230  21.752  14.848
71726W        W43452  36.359   3.552  11.041
71727W        W43453  22.180   8.448  12.616
71728W        W43454  30.299  27.950  13.449
71729W        W43455  43.784  14.069  13.620
71730W        W43456  27.886  31.463  14.267
71731W        W43457  24.552  42.003  12.612
71732W        W43458  30.493   6.045   2.007
71733W        W43459   5.325  43.006  13.213
71734W        W43460  35.364   6.492  13.820
71735W        W43461  13.820  27.495   3.483
71736W        W43462  15.394  12.544   0.706
71737W        W43463   1.780  18.551  10.734
71738W        W43464  36.916  16.712   4.463
71739W        W43465   9.866  22.524  13.320
71740W        W43466  30.502  31.056  11.480
71741W        W43467   4.322  34.017   3.319
71742W        W43468   7.379  28.998  11.546
71743W        W43469  40.425  24.450   2.357
71744W        W43470   1.304   1.554   2.537
71745W        W43471  18.068  14.303   3.695
71746W        W43472  21.449  22.551   4.234
71747W        W43473  43.845   9.276  13.039
71748W        W43474  35.121   9.011   0.744
71749W        W43475  25.296  35.348   1.711
71750W        W43476  33.308  32.569  14.443
71751W        W43477  10.823  43.090   3.648
71752W        W43478  16.905  44.886  11.594
71753W        W43479  32.110  20.523  12.548
71754W        W43480  31.026  11.908   3.608
71755W        W43481  13.723  34.947  11.258
71756W        W43482  23.763  42.938  11.145
71757W        W43483  21.104  33.874   2.687
71758W        W43484  35.902  43.715  13.437
71759W        W43485  26.537   7.200  14.438
71760W        W43486  30.970  21.655   1.349
71761W        W43487   9.150   3.786  13.864
71762W        W43488  22.346  10.909  12.812
71763W        W43489  33.634   0.074  11.929
71764W        W43490   2.308  32.091  12.871
71765W        W43491   4.142  22.807   3.312
71766W        W43492  41.352  36.963  12.081
71767W        W43493  19.641   5.614   2.320
71768W        W43494   8.418  34.614   4.058
71769W        W43495   4.916  33.348   9.945
71770W        W43496   4.984  32.879  11.058
71771W        W43497   6.943   8.324  13.784
71772W        W43498  23.768   3.605   3.369
71773W        W43499  26.227  23.289  12.345
71774W        W43500  13.286   3.483  10.282
71775W        W43501  29.332  34.225   3.739
71776W        W43502  29.221  32.607   4.833
71777W        W43503  39.784   5.223   4.624
71778W        W43504   1.149  20.548   0.918
71779W        W43505  44.023  31.483  12.927
71780W        W43506  38.395  33.935  12.424
71781W        W43507  37.957  43.586   4.631
71782W        W43508  26.483  21.143  13.098
71783W        W43509  39.769  32.099  11.475
71784W        W43510   1.315  34.855   0.309
71785W        W43511  37.396  17.184   3.088
71786W        W43512   5.357   9.086   3.366
71787W        W43513  10.555  37.384  14.506
71788W        W43514  26.902   6.726  11.626
71789W        W43515  44.323  31.123  14.462
71790W        W43516   6.075  15.867  13.812
71791W        W43517  17.258  43.845   4.545
71792W        W43518  39.433  41.884   4.281
71793W        W43519  42.739  17.616   1.500
71794W        W43520  14.848   7.135  13.209
71795W        W43521  18.263  18.343  11.898
71796W        W43522   6.891   5.749   3.740
71797W        W43523  36.842  37.966   3.207
71798W        W43524  10.820  14.194   4.919
71799W        W43525  24.849  29.079  11.031
71800W        W43526  37.060  25.223  11.853
71801W        W43527  12.170  35.052   4.214
71802W        W43528   5.255   9.785   3.644
71803W        W43529  14.314  42.876   2.911
71804W        W43530   2.312  31.157  14.326
71805W        W43531  19.369  24.672  12.878
71806W        W43532  17.484  38.797  12.969
71807W        W43533  30.264  15.772   3.399
71808W        W43534  28.083   0.231   0.351
71809W        W43535  32.399  41.367   2.259
71810W        W43536  10.779   6.083  11.555
71811W        W43537  36.507   4.314  12.022
71812W        W43538   0.915  25.040  10.670
71813W        W43539  24.357  18.776   1.261
71814W        W43540  11.692  43.971   1.929
71815W        W43541  41.537  22.572   4.617
71816W        W43542  41.953  10.645  14.484
71817W        W43543  18.236  28.422   2.861
71818W        W43544  10.678  12.261  11.901
71819W        W43545  24.722  13.312  11.626
71820W        W43546   7.271   5.679   1.763
71821W        W43547  25.892  11.843   1.879
71822W        W43548   6.224  13.666   0.131
71823W        W43549  44.346  28.451  10.693
71824W        W43550   1.169  10.266  13.933
71825W        W43551  43.048   9.276   2.208
71826W        W43552  38.628  13.762  11.045
71827W        W43553  18.945  39.184   0.832
71828W        W43554  41.984   8.335  11.852
71829W        W43555  19.975  26.092   1.840
71830W        W43556  30.695  28.026   2.383
71831W        W43557  25.741   9.630  12.011
71832W        W43558  23.283  37.091   0.386
71833W        W43559  36.111  23.677  11.745
71834W        W43560   0.850   3.949  11.725
71835W        W43561   5.773  25.210   0.332
71836W        W43562   8.356   1.737   2.349
71837W        W43563   4.247  15.796   1.526
71838W        W43564  17.526  22.087   3.445
71839W        W43565  24.999  12.557   2.987
71840W        W43566  17.161  26.487  14.412
71841W        W43567  31.954  10.097   1.324
71842W        W43568   0.739  18.647   3.620
71843W        W43569  32.016  35.113   2.845
71844W        W43570   7.899   9.186   3.739
71845W        W43571  26.094   7.951  11.527
71846W        W43572   7.651  20.683   3.678
71847W        W43573   0.681  11.763  14.793
71848W        W43574   9.691  28.585  10.819
71849W        W43575  41.877   2.220   2.081
71850W        W43576  19.308   1.978  12.573
71851W        W43577  26.008  31.355  11.152
71852W        W43578  11.791  23.448  12.843
71853W        W43579  14.301   8.300   0.811
71854W        W43580  17.041  23.228  10.935
71855W        W43581  23.203   8.398  11.613
71856W        W43582  26.013  12.071  14.729
71857W        W43583   0.807  30.884   2.620
71858W        W43584   1.304  40.535  10.756
71859W        W43585  35.903  26.154  13.947
71860W        W43586  31.571  30.464   2.956
71861W        W43587   2.136  29.510  12.966
71862W        W43588  17.517  39.013  11.027
71863W        W43589  36.105  27.700   2.382
71864W        W43590  11.172   9.616   1.265
71865W        W43591  14.754   2.318  13.873
71866W        W43592  10.356   2.564   0.289
71867W        W43593  41.889   2.554  11.185
71868W        W43594  35.169  24.049  13.437
71869W        W43595  22.348  29.487   3.730
71870W        W43596   9.730  23.590  10.982
71871W        W43597  16.878  44.810   0.734
71872W        W43598   7.150  31.497  11.581
71873W        W43599  12.181  36.613  10.631
71874W        W43600  44.981   9.141  13.534
71875W        W43601  11.648  26.659  12.570
71876W        W43602  21.005  41.039   2.730
71877W        W43603  33.337  24.696  13.556
71878W        W43604  19.337  15.537  14.512
71879W        W43605  40.786   4.965  11.924
71880W        W43606  11.995  23.601   3.776
71881W        W43607  39.282   6.209  12.038
71882W        W43608  16.227  37.471  14.265
71883W        W43609   4.399   5.266  11.891
71884W        W43610  21.092  21.709   1.012
71885W        W43611  33.148  29.506  12.326
71886W        W43612   1.440  20.176  14.383
71887W        W43613   1.219  43.997   0.848
71888W        W43614   2.902  40.448  14.001
71889W        W43615  34.857   2.883   1.717
71890W        W43616  29.968  12.284  14.074
71891W        W43617   1.452   6.137  14.854
71892W        W43618  25.036  17.048  11.829
71893W        W43619   8.755  30.974   2.644
71894W        W43620  26.306  23.975   3.300
71895W        W43621  26.678   8.417  11.211
71896W        W43622  15.201  27.451  11.576
71897W        W43623  12.111  33.623   2.303
71898W        W43624  10.197  18.442   3.789
71899W        W43625  29.299   4.358  14.897
71900W        W43626  21.570  26.094  14.797
71901W        W43627   4.755   3.425  10.999
71902W        W43628  19.148  23.816   4.814
71903W        W43629  25.677  35.520  10.400
71904W        W43630  21.628  24.411   2.183
71905W        W43631   2.257  18.044   1.321
71906W        W43632   0.065   6.927  14.699
71907W        W43633  29.357   7.796  14.881
71908W        W43634  43.253  17.685   0.282
71909W        W43635  44.158  32.504  10.765
71910W        W43636  44.929  37.699   2.398
71911W        W43637  26.174   3.597  14.397
71912W        W43638  18.229  28.568   4.578
71913W        W43639  24.102  26.933  12.141
71914W        W43640  28.277  41.907   2.569
71915W        W43641   9.043  25.888  12.076
71916W        W43642  12.931  28.561   4.034
71917W        W43643   7.688   4.257  11.848
71918W        W43644  43.540  44.109  14.749
71919W        W43645  37.914   4.294  14.209
71920W        W43646  23.050  11.196   3.864
71921W        W43647  24.824  41.882   0.787
71922W        W43648  44.237  33.907   3.195
71923W        W43649  41.106  20.794  14.018
71924W        W43650  33.345  29.910  14.371
71925W        W43651  22.568   0.218  14.525
71926W        W43652   0.368  20.619  11.845
71927W        W43653  41.949  32.314   2.351
71928W        W43654   1.593  24.325  13.533
71929W        W43655   0.280  22.007   4.297
71930W        W43656  11.280  27.049   2.720
71931W        W43657  19.114  39.218  13.542
71932W        W43658  31.934  16.269  10.942
71933W        W43659  36.120  13.644   1.777
71934W        W43660   5.813  13.407   3.228
71935W        W43661   0.499  34.535  13.332
71936W        W43662   0.336  17.280   1.243
71937W        W43663  41.618  19.715  13.467
71938W        W43664   0.918  30.633   4.263
71939W        W43665  38.946  31.925  12.897
71940W        W43666  33.050  13.095   0.495
71941W        W43667   4.335   2.964   0.094
71942W        W43668  27.899  27.686  12.725
71943W        W43669  10.783  33.947  11.490
71944W        W43670  18.177  10.201   1.382
71945W        W43671   1.044   2.367   3.240
71946W        W43672   0.151  20.068  14.718
71947W        W43673  17.552  18.030  12.374
71948W        W43674  41.713   6.660  11.115
71949W        W43675  44.016  20.233  12.556
71950W        W43676  32.861  31.180   3.330
71951W        W43677   5.929   2.686   0.959
71952W        W43678  28.059  38.402  11.992
71953W        W43679  33.951  27.890  11.071
71954W        W43680  11.469  13.226   0.475
71955W        W43681  29.605  39.089   2.959
71956W        W43682  17.593  13.497  12.567
71957W        W43683  37.218  23.966   4.493
71958W        W43684  14.705   4.422  12.303
71959W        W43685   4.212  20.070  11.943
71960W        W43686   2.296  14.070   0.317
71961W        W43687  20.989  40.805  13.771
71962W        W43688   4.210  14.705  13.872
71963W        W43689  23.829   9.941  13.779
71964W        W43690  10.460  11.911  14.967
71965W        W43691  22.691  39.835   4.524
71966W        W43692  32.865  31.788   0.964
71967W        W43693  32.765   3.010  14.365
71968W        W43694   3.083   3.531   3.820
71969W        W43695   6.264  34.117  14.505
71970W        W43696   6.264   8.328   2.972
71971W        W43697  23.524  16.518  13.037
71972W        W43698  10.120  17.108  11.522
71973W        W43699  16.776   7.735   1.836
71974W        W43700  13.913  43.997   2.795
71975W        W43701  42.467  37.434   1.174
71976W        W43702   7.622   7.614   4.556
71977W        W43703   8.636   5.513  13.552
71978W        W43704   9.231   9.640  14.898
71979W        W43705  29.767  35.612   3.335
71980W        W43706   4.801  29.056  12.416
71981W        W43707   0.279  30.049   0.345
71982W        W43708  31.643  33.981   0.400
71983W        W43709  36.301  31.033   2.900
71984W        W43710  39.766  37.309   2.886
71985W        W43711  19.022  19.702  11.072
71986W        W43712  23.057   7.884  12.533
71987W        W43713  30.637  44.008  12.927
71988W        W43714  24.064  22.101   4.634
71989W        W43715   0.990  15.059   4.607
71990W        W43716   9.357   4.543   3.766
71991W        W43717  23.561  12.838  12.788
71992W        W43718  30.013  24.977   0.681
71993W        W43719  34.768   5.823  12.378
71994W        W43720  43.363  20.805  11.648
71995W        W43721  15.268  25.777   1.902
71996W        W43722   7.444   0.739   4.202
71997W        W43723  36.804  23.347   1.706
71998W        W43724  17.049   3.485  11.154
71999W        W43725  14.850  37.069  13.878
72000W        W43726  38.299  32.171   3.334
72001W        W43727  24.556  31.446  11.555
72002W        W43728  33.548  44.445  10.213
72003W        W43729  42.691  28.327   5.362
72004W        W43730  40.479  21.422   2.289
72005W        W43731  28.573  43.501  11.472
72006W        W43732  20.128  15.982  14.252
72007W        W43733   1.559   5.848   0.317
72008W        W43734  25.245  15.850  11.720
72009W        W43735  40.236   5.158   4.346
72010W        W43736  21.262   3.618  10.582
72011W        W43737  41.477  16.166   0.830
72012W        W43738   8.418  25.051  12.049
72013W        W43739   5.393   5.978   5.026
72014W        W43740   2.434  36.620   1.734
72015W        W43741  43.788  34.874  10.558
72016W        W43742  32.349  33.937   3.223
72017W        W43743  26.160   5.467  14.092
72018W        W43744  27.804   2.316  13.440
72019W        W43745   3.448   2.929   0.130
72020W        W43746  20.761   0.315  13.832
72021W        W43747  15.888  44.654   4.509
72022W        W43748  42.294  29.571  14.466
72023W        W43749  39.082  44.747   0.441
72024W        W43750  33.854   1.318  14.270
72025W        W43751  10.081  34.346   2.223
72026W        W43752  38.787  12.900  12.982
72027W        W43753   7.774   2.729  14.819
72028W        W43754  18.740  35.145   1.526
72029W        W43755   9.748   9.260  12.445
72030W        W43756   8.896  41.978  10.506
72031W        W43757  29.310  43.345  10.972
72032W        W43758  29.646   5.432  12.634
72033W        W43759  32.519   2.665  12.350
72034W        W43760  21.804  18.335  13.505
72035W        W43761  15.724  16.791  13.090
72036W        W43762   4.948  43.395  12.354
72037W        W43763  32.843  42.366  11.444
72038W        W43764  30.303  10.374  12.041
72039W        W43765  41.764  27.637  13.358
72040W        W43766  27.042   9.183  11.561
72041W        W43767  23.697  42.948   4.356
72042W        W43768  27.943  15.613   3.630
72043W        W43769  30.475   3.314   3.666
72044W        W43770  18.223  14.599   0.344
72045W        W43771  24.103  21.275   0.717
72046W        W43772  10.910  35.781  10.602
72047W        W43773  32.447  32.680  13.307
72048W        W43774  40.831   8.719  12.398
72049W        W43775  26.237  18.664   1.971
72050W        W43776  14.730   5.637   2.000
72051W        W43777  44.596  30.515  11.550
72052W        W43778  38.838   0.635  11.938
72053W        W43779   9.955   3.229   4.741
72054W        W43780  28.185  11.632   3.801
72055W        W43781  10.120  27.502   9.756
72056W        W43782   3.154  33.513  12.894
72057W        W43783  26.585  25.023  11.648
72058W        W43784  32.928  39.016  14.497
72059W        W43785   2.758  12.473  12.628
72060W        W43786  44.772   8.170  11.174
72061W        W43787  43.798  27.983  12.548
72062W        W43788   2.186  10.667   0.308
72063W        W43789  15.391   8.795  14.036
72064W        W43790  10.063   0.419   1.312
72065W        W43791  21.232   0.854  12.523
72066W        W43792  28.443  12.245  11.546
72067W        W43793  24.956   0.161   5.022
72068W        W43794  29.136  35.482  11.232
72069W        W43795  24.173  38.024  14.299
72070W        W43796   1.794  34.793  13.266
72071W        W43797  41.070   4.900   4.087
72072W        W43798   0.198  32.321   2.378
72073W        W43799  27.547  25.275   2.293
72074W        W43800  44.833  25.133  14.945
72075W        W43801  13.327  14.102  14.980
72076W        W43802   4.484  38.309  12.314
72077W        W43803  12.857   7.167  10.695
72078W        W43804  44.484  23.245   3.550
72079W        W43805   5.008  26.526   0.470
72080W        W43806  16.691   7.307  11.122
72081W        W43807  36.378  31.639   3.686
72082W        W43808   0.803  43.510   1.961
72083W        W43809  23.177  32.123   1.833
72084W        W43810  40.842   6.556   3.786
72085W        W43811  35.384  43.798  10.546
72086W        W43812  16.051  36.940   2.280
72087W        W43813   2.251  20.868   1.989
72088W        W43814  25.098  39.891   4.348
72089W        W43815   7.194  38.698  12.328
72090W        W43816   9.302   0.615   4.672
72091W        W43817  21.713  26.811   3.387
72092W        W43818  35.075  41.261   4.295
72093W        W43819   7.679  35.438   1.190
72094W        W43820   2.650  39.571   0.318
72095W        W43821  20.112  39.835   0.315
72096W        W43822  12.721  33.149   3.717
72097W        W43823  40.718  31.107   4.122
72098W        W43824  32.506  39.942  10.225
72099W        W43825  14.582  19.731  13.642
72100W        W43826  32.551  10.908   4.098
72101W        W43827   5.269  16.011  14.778
72102W        W43828  12.328  43.779   4.768
72103W        W43829  36.627  20.714  14.263
72104W        W43830  29.050  10.385   0.827
72105W        W43831  14.120  38.918  14.687
72106W        W43832  40.596  28.852   3.680
72107W        W43833  10.569  15.266  12.799
72108W        W43834   0.309  11.252  12.039
72109W        W43835  17.826  32.063  12.857
72110W        W43836  16.135  17.220  12.386
72111W        W43837  41.408  10.288   1.363
72112W        W43838  42.035  28.017  12.151
72113W        W43839   8.807  22.757  11.601
72114W        W43840  13.261  36.020   1.895
72115W        W43841  10.308  12.223   3.195
72116W        W43842   6.420  42.959  12.860
72117W        W43843   1.259  19.218  14.673
72118W        W43844  23.100  30.925   1.286
72119W        W43845  17.410  17.122  10.472
72120W        W43846   3.996  26.590  11.143
72121W        W43847  37.889  41.959   3.210
72122W        W43848   2.321  24.337   2.549
72123W        W43849  16.126  12.284   3.197
72124W        W43850  38.420  14.448  12.205
72125W        W43851   5.402  32.130  11.346
72126W        W43852  24.361   4.395   1.939
72127W        W43853   8.164  33.198   0.653
72128W        W43854  18.610   7.668  14.790
72129W        W43855  44.100  14.058  11.189
72130W        W43856   8.713  35.873   3.808
72131W        W43857  28.173  29.763  11.112
72132W        W43858  31.640  18.535  11.462
72133W        W43859  12.785   0.002  11.921
72134W        W43860  12.906  24.052   0.341
72135W        W43861   0.288  26.490  12.895
72136W        W43862  12.466  37.082  14.382
72137W        W43863  33.866   1.467  12.002
72138W        W43864  43.306  41.410   4.121
72139W        W43865  26.054  34.186   3.776
72140W        W43866  31.166   9.379  13.794
72141W        W43867   0.288  13.492  12.662
72142W        W43868   2.747  36.629  11.603
72143W        W43869  36.891  20.164   3.772
72144W        W43870  30.973  27.035   1.701
72145W        W43871  42.631  32.123  11.509
72146W        W43872  25.712  33.356  12.468
72147W        W43873   4.460   3.030   2.731
72148W        W43874   2.438  43.714  10.756
72149W        W43875  38.052  44.930  10.711
72150W        W43876  44.775  37.389   3.747
72151W        W43877   7.193   0.385   4.559
72152W        W43878  10.617  30.974  13.325
72153W        W43879  19.557  21.135  12.807
72154W        W43880  32.997  18.140   1.350
72155W        W43881  10.524  17.585   2.078
72156W        W43882  32.592  11.231   2.331
72157W        W43883   7.757  22.435   1.214
72158W        W43884  38.975  44.455  10.454
72159W        W43885  19.663  27.663   0.236
72160W        W43886  23.762  24.066  10.598
72161W        W43887   0.341   7.815   2.082
72162W        W43888  30.598  24.017   4.495
72163W        W43889  38.349  44.348   2.895
72164W        W43890  27.745   3.697  14.310
72165W        W43891  18.222   3.829  14.724
72166W        W43892  20.642  44.301   4.057
72167W        W43893   1.374  30.640  14.961
72168W        W43894   8.729  31.963   2.194
72169W        W43895  39.744  25.994   1.879
72170W        W43896  44.308  35.226  13.397
72171W        W43897  25.654  24.505  11.522
72172W        W43898  10.297  11.724  12.478
72173W        W43899  26.122  12.880   0.256
72174W        W43900  37.845  42.926  11.041
72175W        W43901  24.757   8.772  12.572
72176W        W43902  22.979  42.786   2.700
72177W        W43903  41.387  33.716   1.735
72178W        W43904   8.294  40.301   4.424
72179W        W43905  42.783  15.070   1.183
72180W        W43906   9.802  13.588  11.190
72181W        W43907   9.979  23.010  13.475
72182W        W43908  21.713  14.482  14.512
72183W        W43909  37.922  22.356   3.178
72184W        W43910  18.228   1.952   4.558
72185W        W43911   8.487   0.405   4.068
72186W        W43912  19.292  38.805   4.036
72187W        W43913  23.766   7.147  13.256
72188W        W43914  43.028  28.042   4.083
72189W        W43915   9.286  24.948   5.025
72190W        W43916  15.981  30.922   0.236
72191W        W43917  24.640   7.807   0.866
72192W        W43918  44.708   7.469  11.797
72193W        W43919  14.244   4.322   2.461
72194W        W43920   9.641  26.567   2.239
72195W        W43921  19.799  32.723   3.294
72196W        W43922   7.271   4.313   2.745
72197W        W43923  31.924  31.617  10.465
72198W        W43924  14.353  34.462   1.212
72199W        W43925  17.398  38.243  10.639
72200W        W43926  38.017   1.978   1.303
72201W        W43927  31.610   3.059   0.302
72202W        W43928  14.889  33.908  14.858
72203W        W43929  11.117  40.886   2.392
72204W        W43930  20.631   6.897   2.688
72205W        W43931   6.474  24.779  12.692
72206W        W43932  17.645  16.681  13.094
72207W        W43933   2.043  11.099  14.536
72208W        W43934  26.185   0.741  12.173
72209W        W43935  22.101   7.344  14.486
72210W        W43936  27.490  15.562  11.747
72211W        W43937  31.684  37.726  11.371
72212W        W43938  38.917   4.449   4.120
72213W        W43939  23.078  22.742   4.583
72214W        W43940  16.851  22.182   2.918
72215W        W43941  29.777   0.151   2.486
72216W        W43942  32.916  36.344   2.338
72217W        W43943   1.870  43.068  11.062
72218W        W43944  16.632   0.258  14.087
72219W        W43945  35.368  22.504   3.196
72220W        W43946   5.149  22.002   3.250
72221W        W43947   9.686   3.273  10.387
72222W        W43948  44.741  39.076  13.943
72223W        W43949  16.106  24.568   0.748
72224W        W43950  44.100  36.584  10.635
72225W        W43951   7.487  21.226  13.231
72226W        W43952   0.420  36.532  13.518
72227W        W43953  42.984  39.798  13.014
72228W        W43954  28.386  19.724  12.044
72229W        W43955  19.105  33.372   3.329
72230W        W43956   4.927  35.369  13.972
72231W        W43957  29.209  43.328  13.494
72232W        W43958  38.173  39.537   2.619
72233W        W43959  24.025   4.925   2.611
72234W        W43960  10.321  24.698   0.948
72235W        W43961  14.770  11.367   1.457
72236W        W43962  37.476   7.879   4.559
72237W        W43963  11.973  16.299  13.998
72238W        W43964  28.439  33.634  11.596
72239W        W43965   0.891  21.751   1.047
72240W        W43966  36.504  11.357  12.458
72241W        W43967  23.191  37.015  12.004
72242W        W43968  39.984  19.899  13.538
72243W        W43969  30.043  25.653  10.125
72244W        W43970   8.811  41.401   2.701
72245W        W43971  33.915  41.831   1.597
72246W        W43972  37.073  32.070   1.433
72247W        W43973  26.060  40.151  13.325
72248W        W43974  30.642   0.309  10.422
72249W        W43975  12.124  16.635   1.190
72250W        W43976   2.550   4.268   2.294
72251W        W43977   5.780  11.614  14.431
72252W        W43978  18.672  43.932  14.215
72253W        W43979  33.516  35.336  13.087
72254W        W43980   4.793  34.439  12.504
72255W        W43981  22.941  20.177  12.975
72256W        W43982  13.494  24.952  10.734
72257W        W43983   2.891  13.648  14.518
72258W        W43984  25.028  23.703   4.598
72259W        W43985   9.872  43.701  12.050
72260W        W43986  33.344   9.522  14.059
72261W        W43987  11.180  17.245  13.192
72262W        W43988  28.868   4.368   3.749
72263W        W43989  32.359  11.231  14.999
72264W        W43990   2.779  18.144   2.331
72265W        W43991  19.753  15.780   4.503
72266W        W43992  12.770  43.877   2.975
72267W        W43993  36.493  19.481   2.245
72268W        W43994  36.913  44.531  13.938
72269W        W43995  38.202  32.865  14.520
72270W        W43996  43.763  43.020   0.486
72271W        W43997  18.549  17.593  14.842
72272W        W43998   9.222   5.608  12.996
72273W        W43999  20.854  28.094   1.891
72274W        W44000   8.318   6.463  10.704
72275W        W44001  11.011   5.319   1.189
72276W        W44002  38.630  11.812   3.713
72277W        W44003   0.895  29.126  12.618
72278W        W44004   9.979  10.196  11.631
72279W        W44005  22.276   3.858  13.506
72280W        W44006  34.895  33.620   2.666
72281W        W44007  32.492  39.237   2.769
72282W        W44008  36.152  11.178  11.218
72283W        W44009   4.495  28.094   0.888
72284W        W44010   1.212  35.467   1.340
72285W        W44011  19.359  16.796  13.595
72286W        W44012  26.036  38.552   1.822
72287W        W44013  36.120  36.096  14.002
72288W        W44014  37.288  13.955  14.266
72289W        W44015  22.214  42.583  13.504
72290W        W44016   5.179  41.455  10.985
72291W        W44017  32.230  38.304  14.120
72292W        W44018  23.101  32.131   4.592
72293W        W44019  22.219  39.545   4.620
72294W        W44020  25.140  27.054   2.328
72295W        W44021  39.396  11.617   3.016
72296W        W44022  44.788  14.532  12.137
72297W        W44023   6.632  22.010   3.278
72298W        W44024  18.279  32.962  11.096
72299W        W44025  18.233  11.678  13.010
72300W        W44026  17.307   9.193  12.498
72301W        W44027  26.048  39.826   0.986
72302W        W44028  40.112  28.608  10.648
72303W        W44029  28.224  38.960  11.486
72304W        W44030   2.279  17.859   0.388
72305W        W44031  15.616  19.735   0.330
72306W        W44032   8.589  17.703  13.850
72307W        W44033  10.718   2.260   3.697
72308W        W44034  13.237  44.779  14.891
72309W        W44035  26.726  36.142  12.794
72310W        W44036  28.570   2.020   4.314
72311W        W44037  12.852  39.763   3.120
72312W        W44038   5.854  29.721   4.957
72313W        W44039   4.369  32.687   2.561
72314W        W44040  29.181  33.404  10.964
72315W        W44041  39.928  25.957  11.251
72316W        W44042  39.138  32.503   3.129
72317W        W44043  15.564  31.466  12.122
72318W        W44044   6.838  12.822  13.370
72319W        W44045  15.953  30.059   0.364
72320W        W44046  20.612  21.046   0.916
72321W        W44047  33.367  37.828  12.893
72322W        W44048  43.664  42.573   1.661
72323W        W44049  17.275  42.597   3.356
72324W        W44050  35.997   0.327   2.705
72325W        W44051  18.913  25.192   2.157
72326W        W44052  21.255   0.299  13.980
72327W        W44053  23.251  21.609  12.023
72328W        W44054   5.245   8.988   4.293
72329W        W44055   7.917  18.131  13.548
72330W        W44056  29.169   4.773  14.595
72331W        W44057  33.899   1.381   3.762
72332W        W44058  25.151  27.185   1.509
72333W        W44059   2.974  10.604   4.110
72334W        W44060  41.779  29.447   0.026
72335W        W44061  26.494   4.063  13.492
72336W        W44062  44.328  18.057  14.188
72337W        W44063  17.636  35.497   0.782
72338W        W44064  18.371  28.058   3.797
72339W        W44065  14.414  29.367  11.495
72340W        W44066  32.993  23.971   1.896
72341W        W44067  32.381   7.340   3.211
72342W        W44068  43.833  43.782   0.003
72343W        W44069  42.153   8.603   1.443
72344W        W44070  27.743   1.384  12.923
72345W        W44071  33.692   6.779  13.057
72346W        W44072  13.377  17.962  13.838
72347W        W44073  28.525   4.438   2.255
72348W        W44074  30.659   1.787   1.880
72349W        W44075  41.397  11.799  14.886
72350W        W44076  10.847   7.751   0.797
72351W        W44077  11.895  37.003   2.399
72352W        W44078  21.713  30.605  11.062
72353W        W44079  12.115   1.135  13.401
72354W        W44080  39.023  21.798   1.732
72355W        W44081  42.366  38.142   4.219
72356W        W44082  37.402  39.998   3.715
72357W        W44083  35.970  33.578   0.719
72358W        W44084  20.495  29.104  13.754
72359W        W44085  40.294  27.229   0.247
72360W        W44086  42.342  41.422  14.098
72361W        W44087  25.418   0.754  13.086
72362W        W44088  30.103   0.597  11.233
72363W        W44089  19.010  35.444   4.581
72364W        W44090  18.492  41.116   1.201
72365W        W44091   4.992  40.430  11.030
72366W        W44092  24.469  28.041  13.861
72367W        W44093   0.035  24.416  13.835
72368W        W44094   3.193  44.290   4.069
72369W        W44095  43.020  19.240   3.446
72370W        W44096  10.417  21.188   0.848
72371W        W44097  21.115  25.951   1.400
72372W        W44098   3.255  42.878   0.869
72373W        W44099   0.221   7.263   4.896
72374W        W44100  34.465  43.476  10.351
72375W        W44101  12.790  33.201   1.807
72376W        W44102  32.872  33.900   3.240
72377W        W44103  37.952  31.338  12.158
72378W        W44104   9.367   3.060   1.201
72379W        W44105  42.241  32.292   0.099
72380W        W44106   5.444  11.979   0.519
72381W        W44107  38.887  27.614   3.044
72382W        W44108  25.173  17.340   1.289
72383W        W44109  40.899  40.514  11.090
72384W        W44110  35.525  37.964  14.057
72385W        W44111  22.781  40.278   0.281
72386W        W44112   0.273  26.196  11.334
72387W        W44113  33.353  42.927   2.222
72388W        W44114   6.412  26.966  12.936
72389W        W44115  18.164   9.713   1.518
72390W        W44116  39.894  17.649  11.640
72391W        W44117   2.978  13.664   2.829
72392W        W44118  42.342   3.932  10.672
72393W        W44119   5.653  26.999  12.613
72394W        W44120  32.646   5.600  14.261
72395W        W44121  24.457  14.093   2.293
72396W        W44122  36.503  11.410  10.567
72397W        W44123  31.415  26.599   4.205
72398W        W44124  28.385   3.841  11.468
72399W        W44125   5.200  38.503   1.234
72400W        W44126  17.499   4.354  11.587
72401W        W44127   6.158  13.597  13.391
72402W        W44128   7.911  42.178   0.370
72403W        W44129  17.916   9.718   2.834
72404W        W44130  44.958  17.123   4.197
72405W        W44131  35.737   0.312  10.700
72406W        W44132  12.902  25.501   3.268
72407W        W44133  28.731  14.732   4.046
72408W        W44134  24.779   9.334   3.152
72409W        W44135  36.588  40.916  13.426
72410W        W44136   5.981  22.689   4.711
72411W        W44137  38.524  21.068   0.525
72412W        W44138  24.069  19.014  10.821
72413W        W44139  29.120  42.304   2.190
72414W        W44140  41.912  40.812   4.185
72415W        W44141   6.884  13.543  14.769
72416W        W44142  16.084  20.244   0.883
72417W        W44143  17.581  20.744   1.775
72418W        W44144  30.980  31.708   3.640
72419W        W44145  14.735   5.365  13.342
72420W        W44146  42.813  15.644   1.227
72421W        W44147  36.156  11.314  12.074
72422W        W44148  27.198  13.116  13.965
72423W        W44149  41.033   7.001   3.590
72424W        W44150  26.638  34.385  14.424
72425W        W44151  30.147   9.297  14.037
72426W        W44152  37.049  18.229  13.418
72427W        W44153  36.942   2.688   3.320
72428W        W44154  44.879  42.667  11.989
72429W        W44155  25.142   2.100   1.000
72430W        W44156  39.842  35.447   3.034
72431W        W44157  28.922  16.759   3.118
72432W        W44158  11.374  30.219  11.306
72433W        W44159   1.259  36.478   2.643
72434W        W44160   9.758  23.213  14.866
72435W        W44161  20.193  44.857  14.824
72436W        W44162  19.217  25.502   1.604
72437W        W44163  25.098  35.745   3.937
72438W        W44164  19.680   6.268  10.784
72439W        W44165  25.734   0.922   3.330
72440W        W44166   2.592  28.733   3.007
72441W        W44167  37.516  37.007   3.536
72442W        W44168  29.695  24.245   3.720
72443W        W44169  25.214  20.135   0.459
72444W        W44170  12.123   2.007  14.955
72445W        W44171   1.221  20.486   2.831
72446W        W44172  39.223  40.908  13.224
72447W        W44173  39.566  36.817  13.852
72448W        W44174  37.146  16.053   1.709
72449W        W44175   3.646   5.415   2.260
72450W        W44176  42.730   4.987   3.743
72451W        W44177  22.896   0.439  11.901
72452W        W44178  37.112  27.935  12.550
72453W        W44179  10.387  37.511   1.819
72454W        W44180  31.316   5.508   1.159
72455W        W44181  12.610  21.338  12.446
72456W        W44182  29.741  11.874   1.799
72457W        W44183  36.430  23.276   2.894
72458W        W44184  24.886  41.976  13.588
72459W        W44185  20.188  27.979  14.507
72460W        W44186  15.723  37.689  12.011
72461W        W44187  30.079  31.023  14.890
72462W        W44188  18.693   1.087   0.996
72463W        W44189  21.225  20.770   2.827
72464W        W44190   4.069  26.217  11.494
72465W        W44191  33.093  19.612  13.098
72466W        W44192  43.851  34.399  12.483
72467W        W44193  21.709  43.711  11.053
72468W        W44194  39.863  31.578   2.163
72469W        W44195  35.911   1.387   4.550
72470W        W44196   3.669  16.389  13.605
72471W        W44197  19.078  20.689   3.394
72472W        W44198   3.957  31.446   3.187
72473W        W44199  36.522  13.217  11.994
72474W        W44200  25.514   1.070   3.783
72475W        W44201  21.521  41.979   1.384
72476W        W44202   9.351  43.545   0.235
72477W        W44203   7.380  19.772   4.432
72478W        W44204  42.794  21.984   0.869
72479W        W44205  24.026  15.236   2.149
72480W        W44206  17.744  31.508   0.921
72481W        W44207  26.244  43.356   4.182
72482W        W44208  37.219   3.297  12.418
72483W        W44209  38.255  19.718   2.424
72484W        W44210  27.201  37.364   0.038
72485W        W44211   7.814  12.410  11.614
72486W        W44212  27.417  35.975   4.084
72487W        W44213   5.301  41.473   4.083
72488W        W44214  11.357  20.492  14.834
72489W        W44215  39.949  26.031   3.743
72490W        W44216   4.877  25.518  12.469
72491W        W44217  39.306  26.738  10.722
72492W        W44218  22.749  14.270  10.296
72493W        W44219   8.195   4.772   0.416
72494W        W44220  32.622  26.145   2.149
72495W        W44221  11.062  44.338   1.466
72496W        W44222  39.169  16.289   0.679
72497W        W44223  25.636   0.078   1.851
72498W        W44224   8.307  30.709   0.856
72499W        W44225  35.483  20.039   1.018
72500W        W44226  40.380  28.547   2.936
72501W        W44227  11.804  31.998   2.464
72502W        W44228  19.504   6.358   4.210
72503W        W44229  30.570  41.262   2.173
72504W        W44230  36.963  32.062  11.134
72505W        W44231  17.686  12.394   4.508
72506W        W44232  15.441   0.754  13.900
72507W        W44233  23.948  27.064   3.751
72508W        W44234  24.373  21.047  14.251
72509W        W44235  13.571  37.995  14.802
72510W        W44236   6.647  18.852   1.778
72511W        W44237  23.934  14.315   1.106
72512W        W44238  39.535  38.859   4.897
72513W        W44239  13.598  33.475   2.267
72514W        W44240  43.816  43.620  11.439
72515W        W44241  38.803  29.975  14.199
72516W        W44242  33.434  23.457  12.061
72517W        W44243  40.258  16.118   2.085
72518W        W44244  22.460  39.030  14.536
72519W        W44245  12.704   0.448   2.153
72520W        W44246   5.285   4.351  12.575
72521W        W44247  15.709  19.943   4.582
72522W        W44248  26.687  21.506   2.795
72523W        W44249  29.389  29.265   3.745
72524W        W44250  37.420  39.529   2.347
72525W        W44251   0.874  11.800   2.542
72526W        W44252  44.058   8.136  10.631
72527W        W44253   8.166  43.434   0.964
72528W        W44254  29.636  18.194   2.538
72529W        W44255  15.148  12.878  11.125
72530W        W44256  24.423  38.207   1.930
72531W        W44257  17.305  29.662  10.804
72532W        W44258   0.584   2.940   4.158
72533W        W44259   8.568  28.125  11.539
72534W        W44260  33.371   4.777  14.440
72535W        W44261  36.328  15.596   4.193
72536W        W44262   5.901  17.225   1.486
72537W        W44263  39.394  35.618   3.598
72538W        W44264  27.646  40.494  13.404
72539W        W44265   1.603  18.572  12.037
72540W        W44266  37.769  26.214  10.179
72541W        W44267  28.472  39.429   4.211
72542W        W44268  16.330  21.090   3.235
72543W        W44269  15.305  35.369  14.435
72544W        W44270  23.508  30.934  11.463
72545W        W44271  42.741  25.456   0.572
72546W        W44272   8.332   5.737  13.151
72547W        W44273  37.903   0.251   1.379
72548W        W44274  14.606  24.510   0.848
72549W        W44275   4.747  11.754  13.080
72550W        W44276  30.579  17.325  13.502
72551W        W44277  40.250  25.554  12.292
72552W        W44278  31.783  23.861  12.272
72553W        W44279  37.796  25.257  11.011
72554W        W44280  16.605  18.316  14.492
72555W        W44281  18.673  13.087   4.501
72556W        W44282   3.935   8.820  10.656
72557W        W44283  33.949  25.157   0.186
72558W        W44284  31.474  27.434  13.995
72559W        W44285  44.214  28.636   1.650
72560W        W44286  34.609   2.264   1.101
72561W        W44287   2.340   8.387  11.206
72562W        W44288  23.429  21.831   3.805
72563W        W44289  27.087  32.338  11.680
72564W        W44290   7.245  14.820   3.784
72565W        W44291  15.198  25.646  13.831
72566W        W44292   5.350  11.849   1.372
72567W        W44293  26.048  16.423   3.581
72568W        W44294  35.921  42.953   2.255
72569W        W44295   0.269  35.071  14.976
72570W        W44296  41.772  27.114   4.658
72571W        W44297  27.234  25.492   0.364
72572W        W44298   1.488  17.602  13.347
72573W        W44299  41.384  44.740  14.976
72574W        W44300   9.162   2.430  14.920
72575W        W44301  24.912   6.172  12.027
72576W        W44302   1.483  16.819  11.986
72577W        W44303   4.512   2.221  13.328
72578W        W44304  12.295  26.667   3.371
72579W        W44305  22.403   4.670  11.000
72580W        W44306  20.535  23.512   4.207
72581W        W44307  44.751   1.702   3.120
72582W        W44308   9.885  27.729   0.628
72583W        W44309  22.457  40.007   1.296
72584W        W44310  43.974  36.734  12.472
72585W        W44311  28.042  15.424   1.348
72586W        W44312  19.867  24.749  13.076
72587W        W44313   0.585   5.925   4.249
72588W        W44314  24.204   2.054  12.390
72589W        W44315  32.161  39.027   3.624
72590W        W44316  44.537  36.600  11.351
72591W        W44317  25.310  41.414   3.720
72592W        W44318  41.994  19.215   4.090
72593W        W44319  26.492  12.030   3.576
72594W        W44320  11.878  38.520  13.037
72595W        W44321  36.911  22.580   0.795
72596W        W44322   8.962  13.447   3.077
72597W        W44323  33.030  30.731  10.618
72598W        W44324  27.879  14.210   3.622
72599W        W44325  17.258  18.474   2.727
72600W        W44326  26.181  31.062  13.539
72601W        W44327  19.992  43.534   1.704
72602W        W44328  26.126  44.997   3.844
72603W        W44329  42.673   9.314  14.747
72604W        W44330  28.053  11.693   2.804
72605W        W44331  40.003  35.445  12.595
72606W        W44332  36.645  17.223   0.841
72607W        W44333  30.638  37.953   3.625
72608W        W44334  25.929  26.980  12.098
72609W        W44335  12.101  39.254  14.356
72610W        W44336  30.087   3.272  11.765
72611W        W44337  20.786   8.084  11.421
72612W        W44338  40.976  33.511  11.483
72613W        W44339  25.978  27.680  12.964
72614W        W44340  40.433   1.706  11.477
72615W        W44341  31.655  11.554   2.350
72616W        W44342  42.088  31.942   0.471
72617W        W44343   9.408  24.441   3.327
72618W        W44344  22.829  40.713  13.458
72619W        W44345  28.222  28.861   0.794
72620W        W44346  29.294  42.395   4.094
72621W        W44347  37.954   4.513  12.887
72622W        W44348  31.624  31.334  11.088
72623W        W44349  22.058   3.641  14.424
72624W        W44350  24.197  25.985   0.849
72625W        W44351   3.020  18.620  13.265
72626W        W44352  37.357  32.519   1.452
72627W        W44353  34.349  42.101   1.687
72628W        W44354   6.618  44.068  13.383
72629W        W44355  18.264  33.906   0.480
72630W        W44356  35.048  25.000   4.102
72631W        W44357  21.759   3.769  14.819
72632W        W44358  44.938  42.690   2.771
72633W        W44359  41.326   1.231   2.559
72634W        W44360  11.121  40.661  12.692
72635W        W44361  36.465  12.809   0.945
72636W        W44362   7.902  18.988  12.514
72637W        W44363  39.838   3.255  10.592
72638W        W44364  31.857  34.074   3.229
72639W        W44365  13.862   1.181   4.419
72640W        W44366  26.980  36.001   1.747
72641W        W44367  28.095  20.901   3.716
72642W        W44368  43.370  26.174  14.740
72643W        W44369  19.679  12.022   3.524
72644W        W44370  10.143  16.040   0.252
72645W        W44371  30.368  35.541  11.422
72646W        W44372  35.610  41.319   2.400
72647W        W44373  27.499  28.042   4.208
72648W        W44374  19.255   1.191  13.779
72649W        W44375  33.207  13.838  12.506
72650W        W44376  37.754   9.138   1.780
72651W        W44377  29.967  16.727  12.301
72652W        W44378  34.544  17.381  13.478
72653W        W44379   6.277   4.238  11.144
72654W        W44380   0.710  19.740  12.593
72655W        W44381  42.016  25.677  12.415
72656W        W44382  23.589  19.223   2.826
72657ION    NA+44383  38.648  21.424  11.164
72658ION    NA+44384   5.805  37.627  11.088
72659ION    NA+44385  12.271   6.134  11.901
72660ION    NA+44386  36.635   0.216  11.658
72661ION    NA+44387  18.471   1.509   2.752
72662ION    NA+44388  30.060  13.896  13.851
72663ION    NA+44389  11.030  14.647   1.793
72664ION    NA+44390  18.356  17.740   1.437
72665ION    NA+44391  26.013  30.055   4.577
72666ION    NA+44392  34.758  44.324  12.376
72667ION    NA+44393  26.606  42.262  13.782
72668ION    NA+44394  22.947  25.280   1.473
72669ION    NA+44395   5.926  29.571   4.332
72670ION    NA+44396  44.631   2.956   2.141
72671ION    NA+44397  27.378  17.235   2.504
72672ION    NA+44398  16.341  39.432  14.878
72673ION    NA+44399  11.907  29.703   3.899
72674ION    NA+44400  28.541  29.394  12.381
72675ION    NA+44401   1.285   2.828  13.171
72676ION    NA+44402  39.556  42.529   3.452
72677ION    NA+44403  18.179  26.656   0.050
72678ION    NA+44404  12.070  26.187   4.100
72679ION    NA+44405   7.016  16.669   3.193
72680ION    NA+44406  23.507  39.924   0.255
72681ION    NA+44407  42.298  20.999  12.558
72682ION    NA+44408   7.009  31.054  14.762
72683ION    NA+44409  27.956  33.690  14.731
72684ION    NA+44410   4.371   2.893  12.157
72685ION    NA+44411   6.152  44.443  12.128
72686ION    NA+44412  41.658  25.988   0.272
72687ION    NA+44413  38.556   7.013   1.613
72688ION    NA+44414  11.158  12.412  14.992
72689ION    NA+44415  42.081   6.868  13.767
72690ION    NA+44416  15.662  36.094   0.447
72691ION    NA+44417   2.273  11.519  13.737
72692ION    NA+44418   5.362  38.978  10.106
72693ION    NA+44419   5.121  14.103  14.150
72694ION    NA+44420  33.397   6.629  11.257
72695ION    NA+44421  21.159  16.017  12.962
72696ION    NA+44422  42.246  25.458   2.630
72697ION    NA+44423  41.198  44.214   1.647
72698ION    NA+44424  37.072  21.109  11.659
72699ION    NA+44425  13.003   9.886  14.744
72700ION    NA+44426  39.699   7.353   0.679
72701ION    NA+44427  33.071  13.630   4.257
72702ION    NA+44428   3.471  24.355   0.380
72703ION    NA+44429  27.056  10.068   0.115
72704ION    NA+44430  27.443  23.189  13.442
72705ION    NA+44431  13.893  10.770  10.076
72706ION    NA+44432  15.421   1.137  13.560
72707ION    NA+44433   0.399  23.519  11.373
72708ION    NA+44434  15.573  28.612   4.386
72709ION    NA+44435  13.355  11.890   1.861
72710ION    NA+44436  35.320  18.037  13.792
72711ION    NA+44437  16.108   2.076  13.147
72712ION    NA+44438   4.684  37.366   2.899
72713ION    NA+44439  15.282   4.197   3.466
72714ION    NA+44440  15.095  23.210  14.719
72715ION    NA+44441  38.545  28.664   3.309
72716ION    NA+44442  14.571  22.447   0.909
72717ION    NA+44443   1.582  10.984  12.116
72718ION    NA+44444  42.007  43.116  12.340
72719ION    NA+44445  34.751  27.852  12.512
72720ION    NA+44446  39.922  40.352   3.575
72721ION    NA+44447   3.774  34.346  14.529
72722ION    NA+44448  31.969  33.516  12.311
72723ION    NA+44449  22.654  17.907  10.811
72724ION    NA+44450   8.756   6.826   0.447
72725ION    NA+44451  40.628   1.527   4.392
72726ION    NA+44452  37.147   2.944  14.613
72727ION    NA+44453  23.628  17.703  10.912
72728ION    NA+44454   9.954   1.273   4.185
72729ION    NA+44455   0.700  36.575   1.258
72730ION    NA+44456   4.816   5.256  14.783
72731ION    NA+44457  44.593   8.897   3.307
72732ION    NA+44458  44.104   6.997   0.436
72733ION    NA+44459  25.273  43.042   2.408
72734ION    NA+44460  40.912  19.501  13.724
72735ION    NA+44461   1.765   2.242  12.498
72736ION    NA+44462   0.644  34.661   1.338
72737ION    NA+44463   0.809  33.649   4.071
72738ION    NA+44464  32.162  24.245  10.154
72739ION    NA+44465  36.447   2.322  14.963
72740ION    NA+44466   8.812  41.052  14.713
72741ION    NA+44467  32.340   6.700   4.602
72742ION    NA+44468  12.690   9.183   4.078
72743ION    NA+44469  34.979  16.301  12.884
72744ION    NA+44470  39.652   9.996   3.620
72745ION    NA+44471   9.377  41.358  12.200
72746ION    NA+44472   6.405  34.902  11.581
72747ION    NA+44473  11.104   8.820   2.871
72748ION    NA+44474  33.565  18.393  13.143
72749ION    NA+44475  15.623   6.381  11.510
72750ION    NA+44476  31.839  23.408  10.278
72751ION    NA+44477   9.416   3.898   3.592
72752ION    NA+44478  24.375   8.295   0.614
72753ION    NA+44479  20.471  32.669  13.626
72754ION    NA+44480  43.033   4.947   4.179
72755ION    NA+44481  17.738  33.954  11.628
72756ION    NA+44482  26.160  22.026  10.777
72757ION    NA+44483  10.669  38.718  13.930
72758ION    NA+44484  21.872   9.736   1.305
72759ION    NA+44485  10.520   0.959   0.750
72760ION    NA+44486  30.465   2.612  12.442
72761ION    NA+44487  30.572  25.713  13.149
72762ION    NA+44488  25.257  44.349  13.127
72763ION    NA+44489  37.913  10.479   4.543
72764ION    NA+44490  43.238   4.347  13.718
72765ION    NA+44491  28.849   2.400  11.081
72766ION    NA+44492  39.177  42.005   2.684
72767ION    NA+44493  18.131   0.123  12.227
72768ION    NA+44494  37.683  25.123   3.576
72769ION    NA+44495  10.045   3.554   3.073
72770ION    NA+44496  32.430  43.159  10.198
72771ION    NA+44497  38.789  16.326  11.724
72772ION    NA+44498   9.372  37.333  11.850
72773ION    NA+44499  31.558  10.874   3.216
72774ION    NA+44500  11.741   0.691   2.317
72775ION    NA+44501  39.980   3.964  11.687
72776ION    NA+44502  33.040  38.474   3.140
72777ION    NA+44503  22.919  33.926   4.608
72778ION    NA+44504  24.327  28.837   4.214
72779ION    NA+44505   6.349   4.304  11.656
72780ION    NA+44506  28.695   1.964   2.135
72781ION    NA+44507   7.920   5.670   5.138
72782ION    NA+44508  10.933  26.500  14.768
72783ION    NA+44509  22.222  15.223  13.127
72784ION    NA+44510  30.617  40.287   4.516
72785ION    NA+44511   1.057   6.774   3.329
72786ION    NA+44512  22.825  10.038   1.314
72787ION    NA+44513  23.005  35.147   3.870
72788ION    NA+44514   1.283  26.475  14.283
72789ION    NA+44515  32.481   2.678   1.799
72790ION    NA+44516  10.148  37.540   3.611
72791ION    NA+44517  18.271  37.928   1.431
72792ION    NA+44518  26.934  11.852   4.186
72793ION    NA+44519  30.105  29.385   2.958
72794ION    NA+44520  26.739  32.172  14.223
72795ION    NA+44521  22.976  22.161  12.998
72796ION    NA+44522  38.500   1.002   0.326
72797ION    NA+44523  22.224  15.060  10.515
72798ION    NA+44524   7.427  23.695  10.518
72799ION    NA+44525  36.692  42.744  11.693
72800ION    NA+44526  22.062  19.728   2.237
72801ION    NA+44527  36.459  40.651   1.821
72802ION    NA+44528   8.368  26.632  11.476
72803ION    NA+44529  32.658  16.671   2.157
72804ION    NA+44530  32.959  41.421  10.598
72805ION    NA+44531  40.724  19.578   9.953
72806ION    NA+44532  34.571  20.467   3.631
72807ION    NA+44533   6.133  43.214  13.365
72808ION    NA+44534  27.925  31.392   2.432
72809ION    NA+44535  28.258  40.866  14.791
72810ION    NA+44536  11.722  42.739   0.957
72811ION    NA+44537  27.119   2.795   2.653
72812ION    NA+44538  32.959  20.012   2.811
72813ION    NA+44539   2.471  19.807   2.836
72814ION    NA+44540  28.442  21.105   0.790
72815ION    NA+44541  21.115  32.894   1.756
72816ION    NA+44542   1.769  15.518  13.031
72817ION    NA+44543  24.746  37.529   3.248
72818ION    NA+44544  29.343  12.224  14.919
72819ION    NA+44545  27.622  20.041  12.048
72820ION    NA+44546  34.598  32.147  12.578
72821ION    NA+44547  36.789   8.823  14.205
72822ION    NA+44548  40.623   6.128   0.448
72823ION    NA+44549  35.837  21.769  13.521
72824ION    NA+44550  14.554   7.798   3.563
72825ION    NA+44551  40.847   2.171   3.250
72826ION    NA+44552  26.034  10.374  10.435
72827ION    NA+44553  20.086   8.800   3.126
72828ION    NA+44554  21.202  38.377  12.716
72829ION    NA+44555  12.088  31.822   3.823
72830ION    NA+44556  17.014  12.296  11.606
72831ION    NA+44557  34.646  28.690   4.221
72832ION    NA+44558  31.678   9.491   3.057
72833ION    NA+44559  22.510  27.971  10.304
72834ION    NA+44560  26.926  42.259  14.639
72835ION    NA+44561  41.622  16.921   2.530
72836ION    NA+44562  38.075  39.581   2.125
72837ION    NA+44563  38.647  14.385  12.671
72838ION    NA+44564   9.654  43.890  14.044
72839ION    NA+44565   0.312  15.125  13.693
72840ION    NA+44566  33.489  17.737   0.735
72841ION    NA+44567  18.255  23.300   1.850
72842ION    NA+44568  23.703  34.361   3.617
72843ION    NA+44569   1.881  14.189   3.923
72844ION    NA+44570  35.684  28.725   0.779
72845ION    NA+44571  27.502  44.539   5.206
72846ION    NA+44572  40.439   6.917  10.671
72847ION    NA+44573   6.013  20.820   4.181
72848ION    NA+44574  39.851  31.411  13.748
72849ION    NA+44575  13.984  29.730  14.440
72850ION    NA+44576  20.814  40.515   4.591
72851ION    NA+44577  33.631  27.948   2.154
72852ION    NA+44578  38.348  42.863  14.886
72853ION    NA+44579  31.639  14.156  12.500
72854ION    NA+44580  13.751  34.166   0.970
72855ION    NA+44581  25.431  25.963   3.588
72856ION    NA+44582  17.303   5.637  14.495
72857ION    NA+44583  37.725  24.577  12.485
72858ION    NA+44584  14.117  20.566  14.960
72859ION    NA+44585   4.614  27.895   0.417
72860ION    NA+44586  24.830  39.835   2.843
72861ION    NA+44587  21.335  44.236  14.069
72862ION    NA+44588  19.464  21.808  14.721
72863ION    NA+44589   1.636  13.625  11.666
72864ION    NA+44590  35.191  20.380   4.290
72865ION    NA+44591  23.588  27.837   4.842
72866ION    NA+44592  27.230  18.666  11.687
72867ION    NA+44593  27.542  44.673  13.983
72868ION    NA+44594  44.218  32.457  13.056
72869ION    NA+44595  32.986  19.535   1.058
72870ION    NA+44596  41.015  25.312  14.913
72871ION    NA+44597  21.348   3.506   1.070
72872ION    NA+44598  13.596  29.722  11.091
72873ION    NA+44599  44.892  16.152  11.839
72874ION    NA+44600  35.759   8.898  12.164
72875ION    NA+44601  12.247  34.969  12.504
72876ION    NA+44602  23.110  32.175   0.141
72877ION    NA+44603  24.515   9.033   4.288
72878ION    NA+44604   8.189  42.390  10.718
72879ION    NA+44605  36.058  15.296   4.933
72880ION    NA+44606  37.115  33.025  13.248
72881ION    NA+44607  16.356  33.933  12.232
72882ION    NA+44608  38.189   4.012   2.385
72883ION    NA+44609  41.776  31.320   3.110
72884ION    NA+44610  20.232  21.550   0.367
72885ION    NA+44611  15.356  32.728   2.560
72886ION    NA+44612  17.814  27.547  10.367
72887ION    NA+44613  11.100   5.644  14.255
72888ION    NA+44614   1.450  37.296  13.918
72889ION    NA+44615  40.288  43.623   4.125
72890ION    NA+44616  18.535   0.370  12.976
72891ION    NA+44617   1.059  44.502   0.146
72892ION    NA+44618  26.401  23.478  13.192
72893ION    NA+44619   4.822   9.411  12.383
72894ION    NA+44620  17.459  17.743   1.491
72895ION    NA+44621   3.724  22.246  10.870
72896ION    NA+44622  34.379  20.195  12.434
72897ION    NA+44623  38.577  31.797   4.573
72898ION    NA+44624  11.985  44.665  14.427
72899ION    NA+44625  43.292   0.761   3.775
72900ION    NA+44626  15.879  16.259  10.744
72901ION    NA+44627  27.106  36.027  13.492
72902ION    NA+44628  21.292  18.998   0.497
72903ION    NA+44629  14.837  13.280  11.263
72904ION    NA+44630  14.457   9.668   4.130
72905ION    NA+44631   2.471  44.875   1.371
72906ION    NA+44632  11.419   6.307   2.551
72907ION    NA+44633  17.974  30.191  14.427
72908ION    NA+44634  19.100  35.537  14.890
72909ION    NA+44635  27.732  37.764   0.425
72910ION    NA+44636  35.283  10.468   9.671
72911ION    NA+44637  38.607  30.155   1.584
72912ION    NA+44638  28.551  29.846   2.220
72913ION    NA+44639  20.619  31.818  13.362
72914ION    NA+44640  17.802  14.490   4.426
72915ION    NA+44641   4.213  26.577   3.127
72916ION    NA+44642  27.217  38.676   0.197
72917ION    NA+44643   5.819  36.783  11.623
72918ION    NA+44644   3.514   0.401  13.834
72919ION    NA+44645  24.226  39.308  12.603
72920ION    NA+44646  11.139  42.033  13.770
72921ION    NA+44647  37.713  39.081  10.050
72922ION    NA+44648  19.096   2.280   2.877
72923ION    NA+44649  35.030  12.223  11.115
72924ION    NA+44650  43.925   1.704  12.412
72925ION    NA+44651  20.597  29.937   1.352
72926ION    NA+44652  35.149  13.837  13.019
72927ION    NA+44653  20.146  42.085   3.598
72928ION    NA+44654  26.360   6.189   4.170
72929ION    NA+44655   8.376  40.850  13.471
72930ION    NA+44656   6.122  11.145   3.604
72931ION    NA+44657  32.584  16.335   4.443
72932ION    NA+44658  35.078   3.794  11.734
72933ION    NA+44659  35.726  14.943   1.537
72934ION    NA+44660  29.195  24.577   0.124
72935ION    NA+44661   3.244  31.889  12.805
72936ION    NA+44662  38.124  23.174  14.145
72937ION    NA+44663  17.760   0.628   3.650
72938ION    NA+44664  21.756  43.822   2.823
72939ION    NA+44665  29.211  34.811   2.361
72940ION    NA+44666  26.539  42.686   2.324
72941ION    NA+44667   9.929  27.524  13.746
72942ION    NA+44668  23.256  43.194  11.200
72943ION    NA+44669  43.052  42.845  14.978
72944ION    NA+44670  26.057  32.165   3.874
72945ION    NA+44671  17.227  16.304  13.504
72946ION    NA+44672  36.058  37.858   0.781
72947ION    NA+44673  16.201   5.321   0.468
72948ION    NA+44674   0.515   3.287   4.541
72949ION    NA+44675  22.794  19.155   3.558
72950ION    NA+44676   0.041  32.042   1.283
72951ION    NA+44677  15.027  43.257   1.578
72952ION    NA+44678  33.476  28.951  11.342
72953ION    NA+44679  23.343   2.434   2.719
72954ION    NA+44680  32.831  10.786  13.742
72955ION    NA+44681  28.510  27.772  11.727
72956ION    NA+44682  37.555  26.615  14.167
72957ION    NA+44683   6.908   2.194  14.440
72958ION    NA+44684   7.312  33.317  13.424
72959ION    NA+44685  35.283  36.006  10.217
72960ION    NA+44686  38.735   4.083  13.519
72961ION    NA+44687  28.085  22.017   0.274
72962ION    NA+44688  13.188  37.655  14.966
72963ION    NA+44689   1.796  17.204   1.708
72964ION    NA+44690  33.241  34.387  11.537
72965ION    NA+44691  26.808   6.472   5.019
72966ION    NA+44692  18.029   5.504   3.296
72967ION    NA+44693  15.256  38.836  11.262
72968ION    NA+44694  10.577  34.924  11.127
72969ION    NA+44695  43.958  13.396  12.975
72970ION    NA+44696  13.900   7.873  13.014
72971ION    NA+44697  24.156  41.489  13.293
72972ION    NA+44698  20.306   3.586   0.780
72973ION    NA+44699  16.026  34.378  13.347
72974ION    NA+44700   5.229  26.942   0.692
72975ION    NA+44701   9.281  11.014   2.201
72976ION    NA+44702  19.763   0.938   4.423
72977ION    NA+44703  44.241  18.887   3.970
72978ION    NA+44704  44.732  44.546  10.709
72979ION    NA+44705  10.883  42.798   3.224
72980ION    NA+44706  17.574  43.824  10.722
72981ION    NA+44707  12.737  20.773  14.486
72982ION    NA+44708  29.453   1.745  11.609
72983ION    NA+44709  32.394  24.989   2.218
72984ION    NA+44710  24.408  15.757   0.866
72985ION    NA+44711  38.026   2.295  14.159
72986ION    NA+44712  24.416  35.010   0.373
72987ION    NA+44713  20.107  23.797  11.118
72988ION    NA+44714  28.457  17.162   1.468
72989ION    NA+44715  12.684  35.009   4.326
72990ION    NA+44716  38.989  38.121   1.390
72991ION    NA+44717  21.930  23.201  11.005
72992ION    NA+44718   8.273  33.775   2.417
72993ION    NA+44719  25.897  17.224  12.966
72994ION    NA+44720  23.498  40.905  13.990
72995ION    NA+44721  31.460  11.539  13.210
72996ION    NA+44722  23.936   4.188  12.020
72997ION    NA+44723  19.808  38.536  14.115
72998ION    NA+44724  14.311  35.108  11.963
72999ION    NA+44725   9.341  21.003   1.264
73000ION    NA+44726  16.753   3.888   4.155
73001ION    NA+44727  40.325   8.525   4.460
73002ION    NA+44728  14.397   0.646  11.039
73003ION    NA+44729   4.672  38.564   1.303
73004ION    NA+44730  44.124   2.351  11.676
73005ION    NA+44731   0.075  28.176  13.466
73006ION    NA+44732   8.195  41.455  11.073
73007ION    NA+44733  35.733   4.746  13.663
73008ION    NA+44734   8.451   8.502   2.210
73009ION    NA+44735   9.977  40.118  10.352
73010ION    NA+44736   1.208  31.811  10.375
73011ION    NA+44737  44.991  33.075   0.732
73012ION    NA+44738   4.391  29.618  12.960
73013ION    NA+44739   2.781  41.572  13.078
73014ION    NA+44740  41.549  17.152  12.085
73015ION    NA+44741  40.069   8.481   0.841
73016ION    NA+44742  44.844  21.919   1.001
73017ION    NA+44743   2.920  37.464   3.611
73018ION    NA+44744  25.156  41.050  13.849
73019ION    NA+44745  37.217  34.396  12.485
73020ION    NA+44746   6.759  21.744  13.950
73021ION    NA+44747  15.046  40.126  14.044
73022ION    NA+44748  40.418  42.430  14.534
73023ION    NA+44749   2.565  17.670   4.044
73024ION    NA+44750   2.222   9.567   3.523
73025ION    NA+44751   3.640  10.385  13.422
73026ION    NA+44752  35.050  33.137   0.965
73027ION    NA+44753  42.070  15.961   5.314
73028ION    NA+44754  43.708   5.586  12.857
73029ION    NA+44755  22.642  37.465   1.547
73030ION    NA+44756  33.828   2.671   1.715
73031ION    NA+44757   3.021   9.404  10.723
73032ION    NA+44758  10.973  27.903   4.435
73033ION    NA+44759  10.945  43.053  14.313
73034ION    NA+44760  36.366  40.008  13.610
73035ION    NA+44761  36.963   2.256  14.109
73036ION    NA+44762  27.008  36.529   3.509
73037ION    NA+44763  25.049   7.569  13.503
73038ION    NA+44764  41.560  16.755   1.546
73039ION    NA+44765  38.411  37.607  11.736
73040ION    NA+44766  35.953  32.297  14.256
73041ION    NA+44767  40.234  41.264  12.080
73042ION    NA+44768  31.573  23.622   5.091
73043ION    NA+44769  30.542  35.045  14.516
73044ION    NA+44770   7.640   4.921  13.061
73045ION    NA+44771   5.492  26.100  11.069
73046ION    NA+44772  24.345   3.489   0.501
73047ION    NA+44773  44.533   6.847  13.915
73048ION    NA+44774  42.402  15.744  12.490
73049ION    NA+44775   4.400  36.663  11.425
73050ION    NA+44776  14.843  21.058   3.676
73051ION    NA+44777  42.807  34.922  11.451
73052ION    NA+44778   4.470  27.983   2.420
73053ION    NA+44779  19.286  27.407   2.258
73054ION    NA+44780  30.563  12.170   0.718
73055ION    NA+44781  34.149  18.341  14.382
73056ION    NA+44782  32.693  37.913   2.389
73057ION    NA+44783  30.091  43.091  11.141
73058ION    NA+44784  32.986  22.764   2.292
73059ION    NA+44785  14.686  42.510   0.699
73060ION    NA+44786  11.647  42.691   3.655
73061ION    NA+44787  17.145  20.844  11.616
73062ION    NA+44788  30.338  36.253  12.482
73063ION    NA+44789   8.114  29.468   3.421
73064ION    NA+44790  28.900  35.427  13.063
73065ION    NA+44791  33.551  14.197  12.687
73066ION    NA+44792  24.929  30.066   2.178
73067ION    NA+44793  25.320  29.111   2.904
73068ION    NA+44794  32.844  23.558   4.666
73069ION    NA+44795   1.707   2.031  14.576
73070ION    NA+44796   8.595   5.143   5.422
73071ION    NA+44797  21.577  29.206   3.626
73072ION    NA+44798   1.419  23.329  12.757
73073ION    NA+44799  37.515  33.654   2.417
73074ION    NA+44800  40.661  40.693  13.347
73075ION    NA+44801  10.106  15.426  12.659
73076ION    NA+44802  30.787  27.235   4.716
73077ION    NA+44803   3.445  12.676   3.831
73078ION    NA+44804  18.195  19.321  11.135
73079ION    NA+44805   2.809  23.038   3.628
73080ION    NA+44806  28.474  44.931  14.991
73081ION    NA+44807   5.041  44.447   2.373
73082ION    NA+44808  28.434  32.255   1.910
73083ION    NA+44809  10.389  42.256  11.047
73084ION    NA+44810  26.139  35.923   4.383
73085ION    NA+44811  26.027  27.209   2.616
73086ION    NA+44812  16.751  33.531   3.092
73087ION    NA+44813  21.006  39.343  14.484
73088ION    NA+44814  35.846  22.618  10.740
73089ION    NA+44815   4.584  44.004   3.038
73090ION    NA+44816  42.473  13.177   5.123
73091ION    NA+44817  24.869  14.323  13.916
73092ION    NA+44818  40.529  21.147  11.404
73093ION    NA+44819  16.727  36.434   3.911
73094ION    NA+44820  22.259  16.572  12.485
73095ION    NA+44821  17.354  25.411   1.837
73096ION    NA+44822   6.514  31.371  14.983
73097ION    NA+44823  32.065  33.152   4.506
73098ION    NA+44824  38.857  32.771  12.468
73099ION    NA+44825  11.181  19.292   3.990
73100ION    NA+44826   5.787  33.657  12.900
73101ION    NA+44827   0.544  39.676  14.083
73102ION    NA+44828   0.318  22.424   0.280
73103ION    NA+44829  44.259  10.818   3.050
73104ION    NA+44830  36.938  29.521   2.210
73105ION    NA+44831  25.047  14.945   4.811
73106ION    NA+44832  15.508  15.267  12.676
73107ION    NA+44833  12.881  33.421   3.136
73108ION    NA+44834  29.115  33.627   4.668
73109ION    NA+44835  30.056  41.359   2.254
73110ION    NA+44836   5.966  39.293  10.439
73111ION    NA+44837   6.817  27.508  13.752
73112ION    NA+44838  17.044   5.857   0.504
73113ION    NA+44839  44.916  16.321  14.579
73114ION    NA+44840   0.280  20.722  10.204
73115ION    NA+44841   9.263  35.988   0.493
73116ION    NA+44842  38.549  36.117   1.755
73117ION    NA+44843  44.207  35.474   1.143
73118ION    NA+44844  15.712  15.371  10.831
73119ION    NA+44845  28.142  38.855   3.728
73120ION    NA+44846  44.135  31.630   1.373
73121ION    NA+44847   6.113  18.168   0.174
73122ION    NA+44848  37.937  40.489   0.969
73123ION    NA+44849  42.743  10.509  10.936
73124ION    NA+44850  33.984  25.754   4.368
73125ION    NA+44851  30.630  35.985   3.236
73126ION    NA+44852  26.986  42.329   1.615
73127ION    NA+44853  30.219  27.639  11.466
73128ION    NA+44854  11.929  17.387   2.610
73129ION    NA+44855  26.223  43.831   3.056
73130ION    NA+44856  22.491  39.094  11.072
73131ION    NA+44857  10.249  22.735  13.965
73132ION    NA+44858   1.803  13.116   4.148
73133ION    NA+44859  14.137  28.216  12.085
73134ION    NA+44860  19.301  42.923  13.864
73135ION    NA+44861  10.675  10.591   4.395
73136ION    NA+44862  15.371  12.101  13.020
73137ION    NA+44863  36.354  33.073   0.251
73138ION    NA+44864  31.639  22.372   1.519
73139ION    NA+44865  14.894  27.487  13.932
73140ION    NA+44866  35.346  34.700   1.731
73141ION    NA+44867   8.984  44.773   2.351
73142ION    NA+44868  22.114  24.500   2.356
73143ION    NA+44869  31.908  23.553  12.860
73144ION    NA+44870   1.502  41.310   1.287
73145ION    NA+44871  38.692   3.637  11.088
73146ION    NA+44872   0.374   9.726   1.681
73147ION    NA+44873  30.041  42.724   3.265
73148ION    NA+44874  18.209  40.461  10.782
73149ION    NA+44875  20.776   9.592   1.932
73150ION    NA+44876   3.741  22.185   1.372
73151ION    NA+44877  43.324   0.872  12.800
73152ION    NA+44878  35.634  35.941  14.028
73153ION    NA+44879  19.700   1.903  13.915
73154ION    NA+44880  40.645  16.028   2.426
73155ION    NA+44881  36.854  35.128  12.086
73156ION    NA+44882  38.230  17.531   0.970
73157ION    NA+44883  30.953  27.565  11.877
73158ION    NA+44884  36.934  21.988  13.102
73159ION    NA+44885  21.168  27.334  14.638
73160ION    NA+44886  14.891  24.901  11.546
73161ION    NA+44887  39.572  18.910   1.486
73162ION    NA+44888  23.586   3.941   1.027
73163ION    NA+44889   2.194  14.521   2.253
73164ION    NA+44890  19.546  20.135   3.937
73165ION    NA+44891  10.262  40.879   5.033
73166ION    NA+44892  22.879  20.355   2.949
73167ION    NA+44893  43.560  26.323   5.441
73168ION    NA+44894  12.115  27.045   1.351
73169ION    NA+44895  32.902  40.281  10.533
73170ION    NA+44896   9.733  32.416  13.990
73171ION    NA+44897  32.766  44.099  10.443
73172ION    NA+44898  20.271  34.188  14.739
73173ION    NA+44899  20.339  33.456   9.940
73174ION    NA+44900   6.206  32.558  12.514
73175ION    NA+44901  10.568  24.787   1.827
73176ION    NA+44902   0.844  32.061   0.190
73177ION    NA+44903  43.312  38.434   1.280
73178ION    NA+44904  38.307   0.007  12.195
73179ION    NA+44905   3.806  18.686   3.353
73180ION    NA+44906  12.221   7.320  13.453
73181ION    NA+44907  40.401   6.692  11.645
73182ION    NA+44908   3.938  33.479   4.171
73183ION    NA+44909  18.152  19.212  12.800
73184ION    NA+44910  24.881   7.329   1.871
73185ION    NA+44911  40.484  23.743  12.184
73186ION    NA+44912  31.234   0.586   4.386
73187ION    NA+44913  32.079  25.585   1.200
73188ION    NA+44914  13.409  32.240  13.629
73189ION    NA+44915  16.245  41.010   5.058
73190ION    NA+44916  32.710  42.253  12.769
73191ION    NA+44917  15.833  11.695   0.213
73192ION    NA+44918  10.566  40.151  14.072
73193ION    NA+44919  24.333  25.869   0.121
73194ION    NA+44920  11.034  31.828   4.578
73195ION    NA+44921  30.293   1.512   3.076
73196ION    NA+44922  36.280  35.565   4.173
73197ION    NA+44923   5.758  22.784  10.704
73198ION    NA+44924  33.230  28.629   3.384
73199ION    NA+44925  39.261  28.309   0.123
73200ION    NA+44926  42.545   8.133   0.930
73201ION    NA+44927  19.166  36.787  13.342
73202ION    NA+44928  23.191   1.109  13.313
73203ION    NA+44929  14.215   9.816  14.279
73204ION    NA+44930  42.446  39.116  14.302
73205ION    NA+44931  32.392  33.504  14.795
73206ION    NA+44932  44.116  36.386  12.118
73207ION    NA+44933  27.892   0.278  11.694
73208ION    NA+44934  17.460   2.561   0.745
73209ION    NA+44935  35.293   0.112  10.871
73210ION    NA+44936  23.398   7.556   1.871
73211ION    NA+44937  19.770  26.532   3.599
73212ION    NA+44938  37.345  40.602   4.530
73213ION    NA+44939  21.556  20.390   0.960
73214ION    NA+44940  28.677  44.055   4.627
73215ION    NA+44941  24.700  12.895  11.068
73216ION    NA+44942  38.424   1.631   2.293
73217ION    NA+44943  40.413   4.010   3.154
73218ION    NA+44944  39.358  15.642  11.907
73219ION    NA+44945  15.771   0.856   4.099
73220ION    NA+44946  37.915   3.029   2.235
73221ION    NA+44947   1.708   1.011  14.687
73222ION    NA+44948  37.973  11.192  11.329
73223ION    NA+44949  15.039  12.029  12.179
73224ION    NA+44950  18.515   6.954   0.338
73225ION    NA+44951  26.154   6.710  11.110
73226ION    NA+44952   2.017   1.730   0.478
73227ION    NA+44953  11.205  35.408   4.595
73228ION    NA+44954  41.621  16.315   3.182
73229ION    NA+44955  26.999  27.228   2.827
73230ION    NA+44956  23.430  24.237   0.846
73231ION    NA+44957   3.916  34.248   4.556
73232ION    NA+44958  30.930  21.490   2.664
73233ION    NA+44959  18.955  28.339  14.894
73234ION    NA+44960   4.220  12.376   3.274
73235ION    NA+44961   5.760  29.935   1.259
73236ION    NA+44962  32.906  37.272   3.268
73237ION    NA+44963  11.797   5.155  14.534
73238ION    NA+44964  29.583  23.583   0.293
73239ION    NA+44965  38.918   2.455   2.016
73240ION    NA+44966  12.390  27.243   3.541
73241ION    NA+44967  20.536  24.469  12.726
73242ION    NA+44968  30.380  35.271   4.012
73243ION    NA+44969  10.598   7.603  13.934
73244ION    NA+44970  33.322   6.635  14.100
73245ION    NA+44971  22.293  23.577  14.708
73246ION    NA+44972  14.558  26.012  12.578
73247ION    NA+44973  20.933  28.012  11.582
73248ION    NA+44974  21.779   6.199  13.931
73249ION    NA+44975  29.500  30.610  14.338
73250ION    NA+44976  22.635   2.990   4.557
73251ION    NA+44977   5.929  14.668   2.165
73252ION    NA+44978  14.523  28.618  11.222
73253ION    NA+44979   7.210   7.503   3.243
73254ION    NA+44980  26.540   9.827   2.239
73255ION    NA+44981  19.078   4.674   2.782
73256ION    NA+44982  15.497  17.576  11.962
73257ION    NA+44983  28.587  39.903   1.172
73258ION    NA+44984  13.323   3.135  14.292
73259ION    NA+44985  22.423  20.219  12.875
73260ION    NA+44986  12.755  44.921   0.012
73261ION    NA+44987  16.081  27.671  14.396
73262ION    NA+44988  24.718  18.492  10.087
73263ION    NA+44989  10.971  19.586   3.175
73264ION    NA+44990   4.333   6.503   4.122
73265ION    NA+44991  23.067  30.268  12.883
73266ION    NA+44992  32.312  43.720   0.699
73267ION    NA+44993   5.251   7.584   0.117
73268ION    NA+44994  30.131  18.284  10.778
73269ION    NA+44995  11.417   4.774   9.933
73270ION    NA+44996  29.316  24.451  11.785
73271ION    NA+44997   5.401  24.825   2.423
73272ION    NA+44998  42.958   8.734  13.432
73273ION    NA+44999   0.862  14.085   2.809
73274ION    NA+45000  40.789  26.146  14.803
73275ION    NA+45001  30.246   5.153  13.394
73276ION    NA+45002  25.353  32.425   3.096
73277ION    NA+45003   4.925  16.806   0.659
73278ION    NA+45004  36.910  24.119  12.082
73279ION    NA+45005  44.429  11.531  12.071
73280ION    NA+45006  12.128  37.562   0.235
73281ION    NA+45007  11.945  17.412   4.556
73282ION    NA+45008  19.621  29.283  14.913
73283ION    NA+45009   9.501  15.345   0.413
73284ION    NA+45010  25.468  22.778   2.956
73285ION    NA+45011  41.437  11.281  14.725
73286ION    NA+45012  36.059  39.907  14.556
73287ION    NA+45013  29.486  39.048   2.476
73288ION    NA+45014  26.995  23.235   0.186
73289ION    NA+45015  31.839  38.897  12.088
73290ION    NA+45016  31.503   2.351   4.363
73291ION    NA+45017  27.920   3.166  14.393
73292ION    NA+45018  35.990  18.976   0.683
73293ION    NA+45019   0.283  30.856   4.707
73294ION    NA+45020  40.901  22.664   0.438
73295ION    NA+45021   7.149  35.981  12.358
73296ION    NA+45022  43.147   0.754  11.419
73297ION    NA+45023  13.751  30.584   4.352
73298ION    NA+45024   4.750  34.179  10.780
73299ION    NA+45025  27.535  10.793   0.660
73300ION    NA+45026  30.356  26.778   0.509
73301ION    NA+45027   3.072  20.395   2.676
73302ION    NA+45028  39.546  36.784  11.054
73303ION    NA+45029  16.014  36.662   5.127
73304ION    NA+45030  19.661  27.013  14.305
73305ION    NA+45031  32.133  11.332  12.640
73306ION    NA+45032  38.766  19.705   0.308
73307ION    NA+45033  14.134  22.183   2.704
73308ION    NA+45034  33.785  35.222   3.678
73309ION    NA+45035  27.192  24.203  12.080
73310ION    NA+45036  35.020   0.696  14.345
73311ION    NA+45037  16.095  17.107  14.402
73312ION    NA+45038   0.884  43.893   2.278
73313ION    NA+45039  11.357  22.829  14.675
73314ION    NA+45040  27.179   8.323   3.020
73315ION    NA+45041  28.282  17.262   3.630
73316ION    NA+45042  21.190  33.127  11.608
73317ION    NA+45043   1.028  32.544   3.417
73318ION    NA+45044  16.537  23.735  11.444
73319ION    NA+45045  23.718   8.813   0.999
73320ION    NA+45046  24.182   4.911  13.410
73321ION    NA+45047  16.100  26.778   5.197
73322ION    NA+45048  11.415   6.289  13.200
73323ION    NA+45049  21.957  26.573  11.531
73324ION    NA+45050  13.196  40.729   3.088
73325ION    NA+45051  16.358  17.703  11.329
73326ION    NA+45052  35.217   5.608  12.207
73327ION    NA+45053  26.012  11.041  14.492
73328ION    NA+45054  37.345  39.505   4.636
73329ION    NA+45055   3.838  40.350   4.096
73330ION    NA+45056  10.271   9.281   2.363
73331ION    NA+45057   3.626  17.249   0.414
73332ION    NA+45058  21.537  43.824   3.799
73333ION    NA+45059  25.803   5.192   4.727
73334ION    NA+45060   2.351  29.159  12.179
73335ION    NA+45061  17.361   7.433   4.774
73336ION    NA+45062  43.701  39.834   3.070
73337ION    NA+45063   9.003  15.839   1.127
73338ION    NA+45064  40.854  33.983  13.379
73339ION    NA+45065  22.102  21.039  12.324
73340ION    NA+45066  43.762   0.144   0.834
73341ION    NA+45067  38.038  20.151   1.368
73342ION    NA+45068   0.409  19.463   1.006
73343ION    NA+45069  43.895   1.615  13.408
73344ION    NA+45070  35.219   8.599   1.636
73345ION    NA+45071  24.012  37.097  11.622
73346ION    NA+45072  26.317  36.659   2.209
73347ION    NA+45073  18.244  36.967  10.732
73348ION    NA+45074  23.636  29.766  12.412
73349ION    NA+45075  19.163  18.125  13.068
73350ION    NA+45076   1.239  40.718  13.539
73351ION    NA+45077  38.408   3.198   3.900
73352ION    NA+45078   3.707  16.124   4.685
73353ION    NA+45079  17.368  18.832  12.556
73354ION    NA+45080  30.924  14.095   4.353
73355ION    NA+45081  12.009  41.160   3.067
73356ION    NA+45082  27.252  34.651  12.691
73357ION    NA+45083  26.239  32.647   0.485
73358ION    NA+45084  14.546   9.281  12.437
73359ION    NA+45085  29.272  39.783   3.565
73360ION    NA+45086  30.402  38.828   5.064
73361ION    NA+45087  36.908   8.200  10.780
73362ION    NA+45088  26.749   7.226   4.129
73363ION    NA+45089  25.742  20.637  14.943
73364ION    NA+45090  43.799  20.245   3.537
73365ION    NA+45091  31.223   1.171   3.215
73366ION    NA+45092   8.391  36.091   1.834
73367ION    NA+45093  24.347  20.150   3.330
73368ION    NA+45094  31.613  10.166  12.405
73369ION    NA+45095   1.511  26.601   0.156
73370ION    NA+45096  16.578  13.198  13.703
73371ION    NA+45097   3.938  11.258   1.200
73372ION    NA+45098  27.438   4.956   4.567
73373ION    NA+45099  34.151   0.344  13.998
73374ION    NA+45100  41.822  29.669   0.524
73375ION    NA+45101   6.461  22.007   1.688
73376ION    NA+45102  17.300  39.753  14.371
73377ION    NA+45103  42.570  38.682  11.225
73378ION    NA+45104   8.647  37.159   0.481
73379ION    NA+45105  27.135   5.934   4.158
73380ION    NA+45106  17.813  23.089   3.461
73381ION    NA+45107  13.998  43.522   1.778
73382ION    NA+45108  41.575  43.632  13.080
73383ION    NA+45109  11.359  17.726   0.946
73384ION    NA+45110  23.018  16.084  14.539
73385ION    NA+45111  36.386  13.152   4.813
73386ION    NA+45112  16.090  17.413   3.197
73387ION    NA+45113  25.884   9.556   4.907
73388ION    NA+45114  11.913  11.620  11.526
73389ION    NA+45115  15.333  18.865  12.935
73390ION    NA+45116  39.996   2.222  13.959
73391ION    NA+45117  44.602   2.523   0.432
73392ION    NA+45118  31.992  17.022   4.581
73393ION    NA+45119  34.292  36.671   1.473
73394ION    NA+45120  27.693  10.611   2.178
73395ION    NA+45121   3.044  32.359  12.090
73396ION    NA+45122   8.520  36.089  12.001
73397ION    NA+45123   6.713  32.007   1.278
73398ION    NA+45124  18.795  27.510  10.967
73399ION    NA+45125  39.263  35.461   2.204
73400ION    NA+45126  33.082   8.118  13.395
73401ION    NA+45127  40.839  39.038   1.834
73402ION    NA+45128  34.361  40.685   1.961
73403ION    NA+45129  21.148  42.203  10.792
73404ION    NA+45130  38.939  18.288   1.026
73405ION    NA+45131  17.979  41.322   1.323
73406ION    NA+45132  25.820   3.931  12.804
73407ION    NA+45133  18.731  19.827   2.350
73408ION    NA+45134   2.909  31.089   2.461
73409ION    NA+45135  25.040  19.126  12.978
73410ION    NA+45136  37.038  36.295   0.104
73411ION    NA+45137  26.253  34.959   3.322
73412ION    NA+45138  18.249  25.697   2.722
73413ION    NA+45139  13.709  12.849  12.976
73414ION    NA+45140   9.352  11.132   4.283
73415ION    NA+45141  39.602  42.289   0.994
73416ION    NA+45142  28.728  27.551  14.692
73417ION    NA+45143   1.180  33.971  13.307
73418ION    NA+45144  21.468   9.858   3.831
73419ION    NA+45145  18.309  43.995   2.819
73420ION    NA+45146   5.890   8.725  14.081
73421ION    NA+45147  18.772  34.094  11.040
73422ION    NA+45148  32.393  39.924   4.598
73423ION    NA+45149  30.491  26.299  10.654
73424ION    NA+45150   4.121  29.432  13.917
73425ION    NA+45151  38.293  44.182   3.416
73426ION    NA+45152  44.871  19.685  14.053
73427ION    NA+45153  19.736  32.141   2.688
73428ION    NA+45154   4.610   5.761   2.758
73429ION    NA+45155   3.920  44.027  11.735
73430ION    NA+45156  37.022  20.602  10.750
73431ION    NA+45157  36.041  20.903  13.066
73432ION    NA+45158   3.264  42.433  12.917
73433ION    NA+45159   3.512  28.620   2.117
73434ION    NA+45160  31.640  23.247  14.750
73435ION    NA+45161  10.741  35.432   0.430
73436ION    NA+45162   7.892  43.837   0.776
73437ION    NA+45163  17.594  15.898   0.481
73438ION    NA+45164  16.219  38.569  11.028
73439ION    NA+45165   2.146  19.845  12.279
73440ION    NA+45166   6.658  30.796   0.579
73441ION    NA+45167   0.644   4.963   2.954
73442ION    NA+45168   8.480  12.515  12.382
73443ION    NA+45169  36.075  37.003   4.544
73444ION    NA+45170  16.861  21.591  14.434
73445ION    NA+45171   2.846  43.309  11.065
73446ION    NA+45172  32.742  40.824  14.274
73447ION    NA+45173  27.514  43.886  14.444
73448ION    NA+45174   7.271  26.172   3.921
73449ION    NA+45175   1.490  34.545  14.829
73450ION    NA+45176  36.799  39.849   1.830
73451ION    NA+45177   8.902  34.587   4.201
73452ION    NA+45178  31.661  41.259  13.445
73453ION    NA+45179  22.482  30.090   2.038
73454ION    NA+45180  24.179  42.084   2.901
73455ION    NA+45181   3.538  25.295  13.232
73456ION    NA+45182  26.285  40.435  12.913
73457ION    NA+45183   5.068  20.944  13.069
73458ION    NA+45184  12.598  39.897  10.784
73459ION    NA+45185   5.663  10.881  13.901
73460ION    NA+45186  13.061  30.340   3.671
73461ION    NA+45187  38.121  34.270  14.580
73462ION    NA+45188  32.105  26.000  10.897
73463ION    NA+45189  18.568   6.271   3.645
73464ION    NA+45190  29.901  32.203   2.594
73465ION    NA+45191  23.459  11.225   0.896
73466ION    NA+45192  10.332  32.675  13.232
73467ION    NA+45193  29.043  37.992  14.819
73468ION    NA+45194  24.095  11.852  10.530
73469ION    NA+45195  25.622  22.246  13.148
73470ION    NA+45196  34.172  15.565  11.673
73471ION    NA+45197  20.552  34.488  13.774
73472ION    NA+45198  16.108  40.357   4.084
73473ION    NA+45199  43.161  36.097  12.050
73474ION    NA+45200  42.274  29.316   4.574
73475ION    NA+45201   0.644  25.563  14.780
73476ION    NA+45202  22.566  33.641  13.512
73477ION    NA+45203  16.619  44.723   0.292
73478ION    NA+45204   2.131  37.132   4.137
73479ION    NA+45205  40.235  43.255  12.684
73480ION    NA+45206  27.223  14.796  14.452
73481ION    NA+45207  16.113  44.918  10.766
73482ION    NA+45208  39.546  33.470  12.658
73483ION    NA+45209  26.948  35.784   0.417
73484ION    NA+45210  28.127  30.472   2.874
73485ION    NA+45211  29.762  20.521  13.768
73486ION    NA+45212   9.740   0.988  11.592
73487ION    NA+45213  24.818  19.878   4.170
73488ION    NA+45214   0.417  23.201   4.494
73489ION    NA+45215  36.279  21.667   2.125
73490ION    NA+45216  16.969  36.186  11.106
73491ION    NA+45217  37.409  30.140   2.839
73492ION    NA+45218  30.898  19.771  13.796
73493ION    NA+45219  22.005  11.970   3.940
73494ION    NA+45220  37.734   3.671   4.172
73495ION    NA+45221  24.533  17.507  14.387
73496ION    NA+45222  28.156  31.407   1.459
73497ION    NA+45223  35.559  19.083  14.001
73498ION    NA+45224  37.070   9.234   2.726
73499ION    NA+45225  15.606   0.191  11.606
73500ION    NA+45226  15.979  33.437  11.093
73501ION    NA+45227  11.242   5.668   3.300
73502ION    NA+45228   7.163  20.424   2.891
73503ION    NA+45229   5.219   2.973   0.080
73504ION    NA+45230   6.883  14.029   1.231
73505ION    NA+45231  22.650  20.945   2.351
73506ION    NA+45232  19.122   9.709  12.935
73507ION    NA+45233   6.965  12.646   2.686
73508ION    NA+45234   4.228  23.699   0.404
73509ION    NA+45235  20.403  14.989  10.691
73510ION    NA+45236  40.318  30.986   2.818
73511ION    NA+45237  12.026   6.146  11.077
73512ION    NA+45238   5.141  27.707  13.906
73513ION    NA+45239   5.771  26.084   3.692
73514ION    NA+45240   0.281  35.724   4.017
73515ION    NA+45241  36.072  38.931   0.736
73516ION    NA+45242  37.964  20.422  14.538
73517ION    NA+45243  30.219  17.875   1.726
73518ION    NA+45244  25.160  38.796   0.920
73519ION    NA+45245  16.349  36.936   1.352
73520ION    NA+45246  12.850   4.830  11.033
73521ION    NA+45247  36.069  17.570  13.173
73522ION    NA+45248  20.303  23.406   0.381
73523ION    NA+45249  38.775  35.020  10.916
73524ION    NA+45250  34.957  10.817  11.003
73525ION    NA+45251   8.083  44.889   1.933
73526ION    NA+45252  24.146  38.240   0.636
73527ION    NA+45253  23.496  29.637   4.540
73528ION    NA+45254   5.736  37.040   0.060
73529ION    NA+45255  27.190   1.890  14.086
73530ION    NA+45256  28.652   6.726  12.948
73531ION    NA+45257  41.947   5.952   1.714
73532ION    NA+45258   0.759  31.526  13.535
73533ION    NA+45259   1.616  36.278  13.004
73534ION    NA+45260  16.574  26.376   3.127
73535ION    NA+45261  27.110   1.745   1.783
73536ION    NA+45262  30.790  29.586  14.058
73537ION    NA+45263  22.493  36.291  10.140
73538ION    NA+45264  22.282   9.110   4.081
73539ION    NA+45265  19.814  14.247  12.509
73540ION    NA+45266   3.282  42.716  14.353
73541ION    NA+45267  23.987  12.638  11.721
73542ION    NA+45268  32.290  12.524  13.320
73543ION    NA+45269  34.213  34.571  11.394
73544ION    NA+45270  43.939  26.895   2.224
73545ION    NA+45271  13.811  39.610   4.032
73546ION    NA+45272  22.746  15.858   1.821
73547ION    NA+45273  11.953  28.472  12.601
73548ION    NA+45274   0.949  23.224   2.386
73549ION    NA+45275  10.280  36.098   1.838
73550ION    NA+45276  33.995   2.315  11.802
73551ION    NA+45277  43.493   0.720   2.332
73552ION    NA+45278   5.309  39.026  13.875
73553ION    NA+45279  21.791   4.948  13.486
73554ION    NA+45280   9.139  25.699  13.956
73555ION    NA+45281  28.536  39.963   4.218
73556ION    NA+45282  35.777  19.741  10.763
73557ION    NA+45283  12.855  14.152  13.810
73558ION    NA+45284  33.066  19.723   0.079
73559ION    NA+45285  32.311   7.581  14.484
73560ION    NA+45286   6.447  37.660  10.447
73561ION    NA+45287  43.911  12.996   0.327
73562ION    NA+45288   3.179  20.335  14.982
73563ION    NA+45289  21.948   6.494   0.966
73564ION    NA+45290  18.725   5.913  12.127
73565ION    NA+45291  28.738  37.009  10.558
73566ION    NA+45292  21.232  44.229  11.528
73567ION    NA+45293   1.063  15.538   0.597
73568ION    NA+45294  15.214  34.629   1.680
73569ION    NA+45295   8.880  13.175   2.129
73570ION    NA+45296  27.630  41.727   0.145
73571ION    NA+45297  28.081  39.254   0.332
73572ION    NA+45298  22.992  29.041   1.224
73573ION    NA+45299  25.411  12.162  10.773
73574ION    NA+45300   6.810   9.635   3.367
73575ION    NA+45301  11.618  24.188   2.924
73576ION    NA+45302  14.560  22.261  14.196
73577ION    NA+45303  42.904  17.992   0.711
73578ION    NA+45304  33.109  23.534  13.831
73579ION    NA+45305  10.445   4.372  12.063
73580ION    NA+45306   7.415   6.138  10.325
73581ION    NA+45307  36.529  38.458  11.190
73582ION    NA+45308  40.556  26.236  13.047
73583ION    NA+45309  14.828   2.393   4.117
73584ION    NA+45310  10.525  24.944  14.555
73585ION    NA+45311  20.159  26.075   4.692
73586ION    NA+45312  12.455  10.370  14.211
73587ION    NA+45313   6.328  10.674   1.075
73588ION    NA+45314   2.327   9.820   1.657
73589ION    NA+45315   2.565  20.124   1.757
73590ION    NA+45316  43.380  25.589  11.845
73591ION    NA+45317  33.060  24.368  12.737
73592ION    NA+45318  35.751  32.672   4.302
73593ION    NA+45319  18.132  35.436   1.244
73594ION    NA+45320  15.916   6.050  13.575
73595ION    NA+45321   1.365  16.098  10.919
73596ION    NA+45322   7.923  35.349   4.597
73597ION    NA+45323  32.553  15.260   2.972
73598ION    NA+45324   4.072   3.104   3.677
73599ION    NA+45325  12.631  42.763  12.753
73600ION    NA+45326  42.192  32.817  14.177
73601ION    NA+45327  38.603  34.060   3.828
73602ION    NA+45328  41.279  31.038  13.893
73603ION    NA+45329  25.690   7.863   1.215
73604ION    NA+45330  38.801   5.634   4.780
73605ION    NA+45331  40.134  41.620   0.679
73606ION    NA+45332  21.139  25.428   1.349
73607ION    NA+45333  42.146  20.742   2.530
73608ION    NA+45334  35.988  14.554  13.674
73609ION    NA+45335  20.846   1.759   2.812
73610ION    NA+45336  40.772  40.887  12.217
73611ION    NA+45337  28.562  30.880  12.486
73612ION    NA+45338   6.010  31.621  12.965
73613ION    NA+45339  21.551  19.184  13.526
73614ION    NA+45340  33.399  22.792   3.202
73615ION    NA+45341  40.185  21.985  13.135
73616ION    NA+45342  42.998  13.297   4.001
73617ION    NA+45343   9.161  26.030   0.890
73618ION    NA+45344  42.398  15.792  10.905
73619ION    NA+45345  28.253  20.689   4.972
73620ION    NA+45346   7.785  20.043   0.849
73621ION    NA+45347   3.412  35.544  10.722
73622ION    NA+45348  44.979  35.366  10.785
73623ION    NA+45349  20.047  14.748   3.786
73624ION    NA+45350   8.113  25.039   0.847
73625ION    NA+45351   2.713   2.739  11.201
73626ION    NA+45352  40.211  42.380   5.131
73627ION    NA+45353  14.655  43.421  11.674
73628ION    NA+45354  44.548  37.868   4.476
73629ION    NA+45355  32.163  18.978  12.892
73630ION    NA+45356  20.804  38.442  11.184
73631ION    NA+45357   7.900   8.954  14.045
73632ION    NA+45358   5.270   1.735   3.599
73633ION    NA+45359  36.228   1.562  10.752
73634ION    NA+45360   7.872   4.989   3.240
73635ION    NA+45361  11.393  38.029  13.951
73636ION    NA+45362  16.046   0.409   0.923
73637ION    NA+45363  37.596  25.382  12.678
73638ION    NA+45364  33.925   6.656   1.175
73639ION    NA+45365  35.751  17.713   0.980
73640ION    NA+45366  15.892   9.228   3.376
73641ION    NA+45367  31.674   1.394  11.492
73642ION    NA+45368  39.480  29.068  14.698
73643ION    NA+45369  36.933  18.329  10.770
73644ION    NA+45370  35.016   2.440   3.051
73645ION    NA+45371  19.627   5.230  14.506
73646ION    NA+45372  17.490  24.745  13.086
73647ION    NA+45373   7.636  40.693   4.861
73648ION    NA+45374  26.509  16.067   1.292
73649ION    NA+45375   4.404  35.573  10.603
73650ION    NA+45376  17.235  30.608   3.867
73651ION    NA+45377   5.902  32.342   0.795
73652ION    NA+45378  14.057   5.587   1.375
73653ION    NA+45379   4.380  12.847   4.141
73654ION    NA+45380  10.885   2.313  14.535
73655ION    NA+45381  42.831  14.414   9.869
73656ION    NA+45382  10.415  11.351  12.815
73657ION    NA+45383   2.859  27.938   2.448
73658ION    NA+45384  39.547   1.269   4.302
73659ION    NA+45385   0.131   9.315  11.021
73660ION    NA+45386  24.159  30.675   3.693
73661ION    NA+45387   6.163  40.951   1.800
73662ION    NA+45388   5.562  24.145   3.139
73663ION    NA+45389  28.122   6.617  11.100
73664ION    NA+45390   5.890  22.726   3.771
73665ION    NA+45391  21.708  44.087  12.423
73666ION    NA+45392   9.883   7.490   1.725
73667ION    NA+45393  19.583  16.743   3.475
73668ION    NA+45394   8.797   5.968  13.864
73669ION    NA+45395  20.980  14.818  11.368
73670ION    NA+45396  40.709  32.180   4.020
73671ION    NA+45397   4.342   6.444   1.273
73672ION    NA+45398  35.172  15.869  12.003
73673ION    NA+45399   7.233  25.765  12.654
73674ION    NA+45400  17.743  31.634  10.749
73675ION    NA+45401  39.098  14.606  14.898
73676ION    NA+45402  30.670  13.622   2.452
73677ION    NA+45403  44.431  30.067   3.291
73678ION    NA+45404  16.978   2.937  11.273
73679ION    NA+45405  18.869  41.383   0.873
73680ION    NA+45406  13.214   4.268   3.489
73681ION    NA+45407  41.137   0.106   1.870
73682ION    NA+45408  15.812   5.223  13.370
73683ION    NA+45409  43.647  36.811  11.243
73684ION    NA+45410  43.589  21.753   0.720
73685ION    NA+45411   1.976  11.816  11.340
73686ION    NA+45412   1.801  32.066   9.706
73687ION    NA+45413  12.573   2.079  11.001
73688ION    NA+45414  34.170  35.523   1.851
73689ION    NA+45415   3.790  38.057   4.215
73690ION    NA+45416  37.172  42.347   4.136
73691ION    NA+45417  44.154  18.508   0.452
73692ION    NA+45418  31.025  24.680   4.296
73693ION    NA+45419  26.147   9.584   3.184
73694ION    NA+45420  37.951  28.948  13.754
73695ION    NA+45421  41.812   2.123   0.742
73696ION    NA+45422   3.657  44.150   9.628
73697ION    NA+45423  15.064  12.022   2.823
73698ION    NA+45424  19.756  16.360  14.203
73699ION    NA+45425  44.864  19.744  12.213
73700ION    NA+45426  38.710  41.424  11.059
73701ION    NA+45427  19.087  12.390  10.917
73702ION    NA+45428   9.479  27.214  14.840
73703ION    NA+45429  26.961  27.283  13.521
73704ION    NA+45430  40.798  39.030  10.641
73705ION    NA+45431   4.303   0.513  12.686
73706ION    NA+45432  19.644  20.601  10.771
73707ION    NA+45433  19.031  16.761   2.641
73708ION    NA+45434  15.838  10.534   4.201
73709ION    NA+45435  13.124  12.450   2.748
73710ION    NA+45436  19.503  12.219   0.299
73711ION    NA+45437   1.391   7.720   0.585
73712ION    NA+45438  32.507  32.650  14.565
73713ION    NA+45439   5.648   0.903   3.679
73714ION    NA+45440   2.095  33.815  12.506
73715ION    NA+45441   1.701  39.573  12.703
73716ION    NA+45442  34.109  31.240   4.226
73717ION    NA+45443  33.036   1.649  12.154
73718ION    NA+45444  23.257  25.715   0.627
73719ION    NA+45445  39.605  39.028  13.138
73720ION    NA+45446  16.616  34.371   2.402
73721ION    NA+45447   0.424   0.586   1.324
73722ION    NA+45448  11.626  36.495   0.868
73723ION    NA+45449  34.898   1.181  10.609
73724ION    NA+45450   0.142  17.460  11.815
73725ION    NA+45451  26.942  11.343  11.717
73726ION    NA+45452  20.228  34.316   0.990
73727ION    NA+45453  31.103  19.242   2.116
73728ION    NA+45454   3.820  44.709   2.288
73729ION    NA+45455   6.633  31.984  10.721
73730ION    NA+45456  11.588  20.294  13.545
73731ION    NA+45457  44.053  14.097   2.688
73732ION    NA+45458  36.529  28.793   2.414
73733ION    NA+45459  39.466  12.903   3.860
73734ION    NA+45460   6.509  32.725   2.925
73735ION    NA+45461  32.191  18.420   1.099
73736ION    NA+45462  31.519  26.899  12.579
73737ION    NA+45463   9.265  33.454  12.452
73738ION    NA+45464  18.220  43.214  14.217
73739ION    NA+45465  21.248   1.463  13.200
73740ION    NA+45466  32.041  35.298   2.364
73741ION    NA+45467  30.248  33.887  13.226
73742ION    NA+45468  41.097   9.100   4.189
73743ION    NA+45469  20.851   4.805   0.271
73744ION    NA+45470   3.703   3.943   4.085
73745ION    NA+45471   4.133  34.740  12.908
73746ION    NA+45472  13.161   4.133   1.969
73747ION    NA+45473  26.580  31.786  13.434
73748ION    NA+45474  33.962   1.945  13.578
73749ION    NA+45475  30.440  14.242  10.710
73750ION    NA+45476  38.252  24.577   0.985
73751ION    NA+45477  41.763   4.124   2.253
73752ION    NA+45478  30.468   5.820  12.105
73753ION    NA+45479   7.181  29.753  11.975
73754ION    NA+45480  39.671   8.475   2.130
73755ION    NA+45481   9.419  16.921   2.005
73756ION    NA+45482  43.756   9.374  14.003
73757ION    NA+45483  21.025  16.014  13.855
73758ION    NA+45484   5.170  43.397  13.566
73759ION    NA+45485  41.702  42.046  14.574
73760ION    NA+45486   7.354  28.365  13.726
73761ION    NA+45487  39.467  40.884   4.289
73762ION    NA+45488  13.740  15.996   0.493
73763ION    NA+45489  19.841  13.074   0.709
73764ION    NA+45490  25.650   0.998  13.491
73765ION    NA+45491  18.266   5.071  12.672
73766ION    NA+45492  20.176   1.128   3.637
73767ION    NA+45493  36.356  24.218  12.908
73768ION    NA+45494  21.812  24.918  11.162
73769ION    NA+45495  29.642  25.392  12.973
73770ION    NA+45496   2.277  12.193  14.476
73771ION    NA+45497  17.593  11.993  13.570
73772ION    NA+45498   2.549  16.730   2.377
73773ION    NA+45499  18.260  17.302   3.779
73774ION    NA+45500   9.786  39.753  13.793
73775ION    NA+45501   2.508   6.683  11.072
73776ION    NA+45502  32.672   1.091  14.932
73777ION    NA+45503  41.046  22.568  13.490
73778ION    NA+45504  43.736  10.546  10.817
73779ION    NA+45505  41.311   2.836   0.449
73780ION    NA+45506   4.953  32.470  14.463
73781ION    NA+45507  44.016  32.872   0.547
73782ION    NA+45508   1.925  14.175  14.020
73783ION    NA+45509  28.145  22.479  13.379
73784ION    NA+45510  27.711  23.990  12.907
73785ION    NA+45511  15.124  19.786  12.608
73786ION    NA+45512   6.148   0.984   9.911
73787ION    NA+45513  41.898  26.981   3.921
73788ION    NA+45514  31.332   9.328   2.249
73789ION    NA+45515  22.818  27.870   4.328
73790ION    NA+45516   1.202  12.295   1.846
73791ION    NA+45517  21.543  37.330   4.137
73792ION    NA+45518  31.053  42.822   2.739
73793ION    NA+45519  25.769  26.575  12.493
73794ION    NA+45520  28.410   2.461   0.017
73795ION    NA+45521  31.247  23.948   3.652
73796ION    NA+45522  39.782   5.505   2.769
73797ION    NA+45523  10.918  36.064   5.124
73798ION    NA+45524  42.937   1.540  14.763
73799ION    NA+45525  21.685  20.140  12.200
73800ION    NA+45526  10.729  25.242  10.229
73801ION    NA+45527  25.627  24.051  10.708
73802ION    NA+45528  18.602  21.507  12.565
73803ION    NA+45529  29.138  41.598  10.763
73804ION    NA+45530  34.157  31.623   0.886
73805ION    NA+45531  43.349  28.069   1.486
73806ION    NA+45532  22.979  14.009   2.402
73807ION    NA+45533  41.687   6.840  12.292
73808ION    NA+45534  11.957   1.027   0.617
73809ION    NA+45535  16.806   3.921   1.691
73810ION    NA+45536   0.871  29.101   2.794
73811ION    NA+45537  23.421  17.458  13.499
73812ION    NA+45538  30.760  34.942  11.399
73813ION    NA+45539  22.819  25.640  10.227
73814ION    NA+45540   4.161  43.409  13.395
73815ION    NA+45541  39.312  15.823   0.474
73816ION    NA+45542  25.406  21.816   2.691
73817ION    NA+45543  25.895  34.002   0.530
73818ION    NA+45544  43.586  37.701  13.741
73819ION    NA+45545  15.258  21.147  14.013
73820ION    NA+45546  14.294  35.305   0.347
73821ION    NA+45547  35.200  36.889   1.538
73822ION    NA+45548  11.202   1.768  10.804
73823ION    NA+45549  44.692   7.617  11.231
73824ION    NA+45550  13.099  17.023  12.698
73825ION    NA+45551  25.061  37.167  11.935
73826ION    NA+45552  12.595  43.285  13.513
73827ION    NA+45553  14.754  35.902  10.282
73828ION    NA+45554  34.531  34.059   0.262
73829ION    NA+45555  11.157   4.805   2.803
73830ION    NA+45556  11.089  29.142   4.026
73831ION    NA+45557  14.440  24.780   3.433
73832ION    NA+45558  28.066  36.462  12.933
73833ION    NA+45559   5.001  34.469  12.982
73834ION    NA+45560  21.441  12.862   1.368
73835ION    NA+45561  22.949   1.924  12.045
73836ION    NA+45562   6.988  30.095   3.716
73837ION    NA+45563  44.465  22.818   3.221
73838ION    NA+45564  42.842  22.557  10.450
73839ION    NA+45565  13.308  29.724   2.649
73840ION    NA+45566  15.211  39.525  10.353
73841ION    NA+45567   5.699  17.515   0.808
73842ION    NA+45568  11.782  31.918   1.921
73843ION    NA+45569  35.401   8.867  13.097
73844ION    NA+45570  34.924  40.861  13.662
73845ION    NA+45571  28.046   7.638  14.026
73846ION    NA+45572  29.333  32.920   3.310
73847ION    NA+45573  20.055  22.386   2.457
73848ION    NA+45574  40.077  16.629   3.196
73849ION    NA+45575  11.020  33.974  14.134
73850ION    NA+45576  16.911   8.832   4.057
73851ION    NA+45577  12.867  35.202   2.385
73852ION    NA+45578  15.351   1.763   1.947
73853ION    NA+45579  33.387   5.749   4.578
73854ION    NA+45580  14.618  22.237  13.198
73855ION    NA+45581  22.772  42.513   0.170
73856ION    NA+45582  38.293  19.474  13.783
73857ION    NA+45583  17.171  30.323   1.162
73858ION    NA+45584  24.065  33.735   4.167
73859ION    NA+45585   4.625  39.842  13.947
73860ION    NA+45586  20.256  29.324  10.184
73861ION    NA+45587  19.298   1.654  11.695
73862ION    NA+45588  24.790  13.539  13.526
73863ION    NA+45589   2.157  28.164  14.511
73864ION    NA+45590  31.398  16.060   2.585
73865ION    NA+45591  32.862  30.117  10.775
73866ION    NA+45592   8.105   5.570  13.566
73867ION    NA+45593  24.928  14.212   0.855
73868ION    NA+45594  25.151  17.546  12.010
73869ION    NA+45595   3.759   4.794  11.915
73870ION    NA+45596  25.877  39.823   4.198
73871ION    NA+45597  16.864  20.610   4.521
73872ION    NA+45598  17.515  30.396   2.554
73873ION    NA+45599  36.820   7.576   4.891
73874ION    NA+45600  35.113  15.301  14.894
73875ION    NA+45601  25.727   2.010  13.533
73876ION    NA+45602   1.993  35.984   1.477
73877ION    NA+45603  34.468   3.468  10.755
73878ION    NA+45604  26.721  37.039   0.905
73879ION    NA+45605  44.285   5.337   2.572
73880ION    NA+45606  12.084   3.971   4.043
73881ION    NA+45607  14.259  32.090   1.186
73882ION    NA+45608  12.040  15.068  13.304
73883ION    NA+45609  44.855  15.322  14.561
73884ION    NA+45610  26.887  10.195   1.131
73885ION    NA+45611  22.592  41.895   1.300
73886ION    NA+45612  42.399  42.544  13.061
73887ION    NA+45613  35.276  44.075   0.018
73888ION    NA+45614  18.265  13.362   3.617
73889ION    NA+45615  29.558  19.082   1.693
73890ION    NA+45616  19.317   2.564  11.609
73891ION    NA+45617  33.730   9.150   4.524
73892ION    NA+45618  11.202   2.499   3.732
73893ION    NA+45619  30.011  17.575  12.352
73894ION    NA+45620  28.485  38.615  11.768
73895ION    NA+45621  23.221  22.277   3.942
73896ION    NA+45622  34.175  41.941   5.589
73897ION    NA+45623   8.225  15.733   1.745
73898ION    NA+45624  33.998  39.877  14.889
73899ION    NA+45625  44.460  38.876   4.354
73900ION    NA+45626  32.662  32.139   3.692
73901ION    NA+45627  15.597  44.613   3.295
73902ION    NA+45628  17.120  34.076   1.404
73903ION    NA+45629  35.046  14.343   9.831
73904ION    NA+45630  40.232  39.792  13.288
73905ION    NA+45631   6.967  28.664  11.075
73906ION    NA+45632  30.273  27.159  12.107
73907ION    NA+45633  41.056   7.255   1.682
73908ION    NA+45634  29.421  22.969   3.653
73909ION    NA+45635  11.504   1.080   4.018
73910ION    NA+45636  16.179  38.775   4.962
73911ION    NA+45637  36.445  42.521   4.800
73912ION    NA+45638  10.123  20.654  13.873
73913ION    NA+45639  37.113  14.600  13.492
73914ION    NA+45640  20.099  42.403   1.696
73915ION    NA+45641  32.108  17.171   3.158
73916ION    NA+45642  13.105  16.693   2.713
73917ION    NA+45643  25.447  18.578   1.326
73918ION    NA+45644  11.435  15.653   2.870
73919ION    NA+45645  30.489   9.291   1.667
73920ION    NA+45646  44.536  20.485  11.091
73921ION    NA+45647  37.095  23.958   1.405
73922ION    NA+45648  13.318  26.964   4.142
73923ION    NA+45649  32.894  23.976  10.781
73924ION    NA+45650  40.521   4.856   2.438
73925ION    NA+45651  33.680  30.868  13.336
73926ION    NA+45652  32.114  38.577  11.182
73927ION    NA+45653  19.824  11.390   4.112
73928ION    NA+45654  31.620  13.812  10.749
73929ION    NA+45655   8.374  15.260   3.618
73930ION    NA+45656  13.130  25.702  11.129
73931ION    NA+45657   3.488  25.185   1.982
73932ION    NA+45658  33.991   5.342   3.668
73933ION    NA+45659   0.970  16.921  11.838
73934ION    NA+45660  21.539  26.655  12.436
73935ION    NA+45661  40.616  42.679   4.081
73936ION    NA+45662  39.345  13.514  14.078
73937ION    NA+45663  26.771  28.817   4.976
73938ION    NA+45664  19.333  33.981   4.569
73939ION    NA+45665  17.598  39.554   0.666
73940ION    NA+45666  30.935  28.830   1.389
73941ION    NA+45667  39.954   1.915  12.578
73942ION    NA+45668  14.992  43.312   2.798
73943ION    NA+45669   2.813  28.855   4.014
73944ION    NA+45670  17.219   8.234   3.262
73945ION    NA+45671  28.900  14.293  12.746
73946ION    NA+45672   9.933   2.501   2.617
73947ION    NA+45673  32.914  15.215   0.679
73948ION    NA+45674  12.617   3.556   2.321
73949ION    NA+45675  31.930  19.641  13.603
73950ION    NA+45676   8.377   6.821  13.554
73951ION    NA+45677  13.320   4.695  13.705
73952ION    NA+45678  41.066  41.786   4.120
73953ION    NA+45679   4.632  40.299  11.829
73954ION    NA+45680  44.870  31.466   4.030
73955ION    NA+45681  22.902  30.147   4.198
73956ION    NA+45682  14.113   7.014   1.634
73957ION    NA+45683  43.683  20.529  11.333
73958ION    NA+45684  42.752  44.285   5.270
73959ION    NA+45685  44.619  34.444   5.256
73960ION    NA+45686   8.365   3.210  10.664
73961ION    NA+45687  24.719  14.138   3.997
73962ION    NA+45688  33.514   5.196   0.387
73963ION    NA+45689  43.525  31.061   1.925
73964ION    NA+45690  11.548  35.616  13.128
73965ION    NA+45691   7.265  24.154   3.901
73966ION    NA+45692  24.095  18.500  14.228
73967ION    NA+45693  30.761  12.222   3.266
73968ION    NA+45694  30.561  16.892   0.874
73969ION    NA+45695   8.942  43.850   0.820
73970ION    NA+45696  19.533  33.573  12.205
73971ION    NA+45697  44.514  29.666  12.988
73972ION    NA+45698  33.706  39.595   1.427
73973ION    NA+45699  23.960  23.212  11.626
73974ION    NA+45700  25.138  34.356   4.624
73975ION    NA+45701  34.597  14.380   4.443
73976ION    NA+45702   8.662  38.126  11.431
73977ION    NA+45703  11.021  19.136  13.397
73978ION    NA+45704   0.947   4.386   4.166
73979ION    NA+45705   8.907  16.758   2.865
73980ION    NA+45706  40.053   3.650  12.633
73981ION    NA+45707  15.560  39.704   1.284
73982ION    NA+45708  10.715  16.507   3.267
73983ION    NA+45709   4.496  36.193  12.353
73984ION    NA+45710  43.178  40.697   2.916
73985ION    NA+45711  39.075  10.187  11.268
73986ION    NA+45712  40.206   9.467   4.774
73987ION    NA+45713  22.644  12.800   1.884
73988ION    NA+45714  21.780  25.030   5.467
73989ION    NA+45715  23.164  35.097  14.428
73990ION    NA+45716  25.087  42.228  11.427
73991ION    NA+45717  10.492  32.047   3.569
73992ION    NA+45718  38.860  10.105   5.542
73993ION    NA+45719  22.615   6.970  11.588
73994ION    NA+45720   4.557  22.958   1.929
73995ION    NA+45721  38.816  39.873   4.673
73996ION    NA+45722   4.240  19.393  13.376
73997ION    NA+45723  17.922  15.402  11.610
73998ION    NA+45724  26.258   9.292   4.134
73999ION    NA+45725  38.871  36.060  11.195
74000ION    NA+45726  32.311  13.822   1.490
74001ION    NA+45727  29.651  16.205   2.914
74002ION    NA+45728  22.232  26.074   0.816
74003ION    NA+45729  31.245  19.532  12.883
74004ION    NA+45730  23.839  18.409   4.741
74005ION    NA+45731  27.180  13.805   2.145
74006ION    NA+45732  22.689  25.780  13.405
74007ION    NA+45733  14.101  16.245   1.607
74008ION    NA+45734  32.088  28.172   5.403
74009ION    NA+45735  31.397  30.868   3.285
74010ION    NA+45736  21.321  32.266  13.568
74011ION    NA+45737  31.673  42.066  14.172
74012ION    NA+45738  21.572  18.990   4.354
74013ION    NA+45739   5.189  34.622   4.418
74014ION    NA+45740  23.752   8.234   1.224
74015ION    NA+45741  26.408  22.473   3.434
74016ION    NA+45742  22.580  35.760  13.394
74017ION    NA+45743  41.994  23.101  10.736
74018ION    NA+45744  37.588   9.585  11.150
74019ION    NA+45745  24.421  41.791   4.581
74020ION    NA+45746  35.554  36.451  11.443
74021ION    NA+45747   5.926  40.654   0.639
74022ION    NA+45748  34.832  42.470   2.393
74023ION    NA+45749  10.258  30.329   3.472
74024ION    NA+45750  41.459   0.926   1.332
74025ION    NA+45751  12.685   3.535   1.324
74026ION    NA+45752   0.963  12.700  12.474
74027ION    NA+45753  12.588  32.419   3.196
74028ION    NA+45754  18.848  13.846   2.167
74029ION    NA+45755  32.501  31.595  13.304
74030ION    NA+45756  22.926  41.958   2.676
74031ION    NA+45757  25.009  26.682   1.393
74032ION    NA+45758  30.094   5.723   0.849
74033ION    NA+45759  22.218  11.075   4.485
74034ION    NA+45760  28.302  20.198   4.184
74035ION    NA+45761  18.077  30.624   0.807
74036ION    NA+45762  15.689  15.015  13.914
74037ION    NA+45763  29.580  19.283   4.439
74038ION    NA+45764   4.409  29.071  12.074
74039ION    NA+45765  19.518  30.111  10.896
74040ION    NA+45766  17.280  12.768   2.301
74041ION    NA+45767  13.565  10.756  11.102
74042ION    NA+45768  23.491  23.153   0.946
74043ION    NA+45769   1.622  39.216   4.044
74044ION    NA+45770   3.679   7.842   3.476
74045ION    NA+45771  33.463   6.653  10.259
74046ION    NA+45772   0.829  33.911  14.316
74047ION    NA+45773  13.147  28.239  14.459
74048ION    NA+45774  15.346  42.821  12.380
74049ION    NA+45775  12.509  26.594   2.498
74050ION    NA+45776  43.870  13.802  11.594
74051ION    NA+45777  26.036  41.793   2.101
74052ION    NA+45778   3.466  23.523   4.203
74053ION    NA+45779  31.249   9.081   0.973
74054ION    NA+45780  17.904  26.969   4.287
74055ION    NA+45781  32.129  21.171  11.858
74056ION    NA+45782  29.928  12.557   4.434
74057ION    NA+45783  37.849  16.232  12.092
74058ION    NA+45784  33.878  13.707   3.671
74059ION    NA+45785   4.485  32.823  13.176
74060ION    NA+45786  34.522  22.688   2.733
74061ION    NA+45787  37.628  22.743   3.772
74062ION    NA+45788  15.644  31.396   2.852
74063ION    NA+45789  19.466  44.464   1.004
74064ION    NA+45790  30.627   3.474  13.411
74065ION    NA+45791  36.709  42.327  13.928
74066ION    NA+45792  20.506  39.516  11.554
74067ION    NA+45793  27.111   2.886  11.567
74068ION    NA+45794  23.277  32.938  13.527
74069ION    NA+45795  24.712  29.737   0.824
74070ION    NA+45796  42.700   2.202   3.282
74071ION    NA+45797   8.974  11.560   1.421
74072ION    NA+45798  10.277  10.212   2.728
74073ION    NA+45799  34.172   1.707  12.630
74074ION    NA+45800  13.242   2.508   4.284
74075ION    NA+45801   6.145  40.496   4.061
74076ION    NA+45802  31.447   9.835   0.219
74077ION    NA+45803  31.929  35.430   1.470
74078ION    NA+45804  13.893  28.835  14.972
74079ION    NA+45805  11.635  21.593  11.139
74080ION    NA+45806  14.216  40.039   2.331
74081ION    NA+45807  12.888  38.963   0.820
74082ION    NA+45808  32.807   6.143   1.033
74083ION    NA+45809  38.530  43.707  14.383
74084ION    NA+45810   6.996   2.748   3.170
74085ION    NA+45811  15.604  17.710  10.673
74086ION    NA+45812   1.846  22.626   2.283
74087ION    NA+45813  32.244   9.309   1.839
74088ION    NA+45814   5.868  28.609  12.862
74089ION    NA+45815   9.706  29.958   1.188
74090ION    NA+45816  24.224  33.476   0.997
74091ION    NA+45817  15.173  28.444  13.852
74092ION    NA+45818   3.784   2.356  10.539
74093ION    NA+45819  31.861   5.303  12.943
74094ION    NA+45820  14.150   3.200   2.440
74095ION    NA+45821  11.057  11.115  11.642
74096ION    NA+45822   1.441  28.736  14.923
74097ION    NA+45823   2.302   0.267  14.178
74098ION    NA+45824  25.642   9.417  12.470
74099ION    NA+45825  41.428  42.082  10.784
74100ION    NA+45826  10.114  34.947   3.655
74101ION    NA+45827  36.566  32.863  11.341
74102ION    NA+45828  44.440  37.018   3.650
74103ION    NA+45829   8.134  18.269  13.079
74104ION    NA+45830   5.329  29.158   2.902
74105ION    NA+45831   0.134  22.982  10.572
74106ION    NA+45832   4.782  19.634   1.450
74107ION    NA+45833  23.429  20.330   3.917
74108ION    NA+45834  24.917   0.541  10.497
74109ION    NA+45835  39.407  35.940  13.009
74110ION    NA+45836  39.775  22.459   0.214
74111ION    NA+45837  16.767  17.067   4.120
74112ION    NA+45838   0.787  39.134   4.616
74113ION    NA+45839  26.000  30.080  10.670
74114ION    NA+45840  40.540  35.413  12.597
74115ION    NA+45841  29.275   7.752  10.326
74116ION    NA+45842  18.371  14.589  11.152
74117ION    NA+45843   2.616  41.853   0.147
74118ION    NA+45844  35.820  32.966  13.479
74119ION    NA+45845  42.976  18.631   4.153
74120ION    NA+45846   3.665  36.471   3.635
74121ION    NA+45847  27.541   7.172  10.074
74122ION    NA+45848   7.385  31.099   3.788
74123ION    NA+45849  11.638  17.025  11.998
74124ION    NA+45850  16.270  13.041  11.738
74125ION    NA+45851  12.472   5.087  13.322
74126ION    NA+45852   0.332  43.990   0.299
74127ION    NA+45853  22.447  28.634  12.014
74128ION    NA+45854   0.465  18.676   0.615
74129ION    NA+45855  42.892  44.987   4.572
74130ION    NA+45856  29.166  21.915   3.781
74131ION    NA+45857  34.813  11.453   1.834
74132ION    NA+45858  17.341  42.984   1.946
74133ION    NA+45859  29.358   4.059   4.589
74134ION    NA+45860   2.228  42.535  10.312
74135ION    NA+45861  43.400  23.939  12.915
74136ION    NA+45862  22.376  12.077  11.852
74137ION    NA+45863  30.420  14.795   0.337
74138ION    NA+45864  33.425   7.956  10.774
74139ION    NA+45865  21.697  33.887   1.406
74140ION    NA+45866  36.671  19.459   0.999
74141ION    NA+45867   0.485  20.669  11.347
74142ION    NA+45868  42.251  25.614   0.751
74143ION    NA+45869  42.313  27.298   4.661
74144ION    NA+45870  23.078   5.252   3.843
74145ION    NA+45871  36.861  36.888  14.318
74146ION    NA+45872  21.204  21.643  14.397
74147ION    NA+45873   4.172  20.179  11.207
74148ION    NA+45874   2.838  30.180  13.938
74149ION    NA+45875  28.106  12.268  12.013
74150ION    NA+45876  16.457  20.728  10.899
74151ION    NA+45877  40.388  12.124  14.354
74152ION    NA+45878  42.294  15.732  13.821
74153ION    NA+45879  44.530  14.015  13.289
74154ION    NA+45880   9.300  40.310  11.130
74155ION    NA+45881  41.356  42.347  12.598
74156ION    NA+45882   5.933  24.375  11.891
74157ION    NA+45883  17.254  15.064   0.915
74158ION    NA+45884   9.811  35.408   4.789
74159ION    NA+45885  18.716  29.729  14.161
74160ION    NA+45886  40.849  25.726   5.045
74161ION    NA+45887   3.890  30.135  14.737
74162ION    NA+45888  31.741   2.398  12.497
74163ION    NA+45889   8.734  40.219   3.306
74164ION    NA+45890  27.202  17.060   0.841
74165ION    NA+45891   5.981  34.695  12.925
74166ION    NA+45892  20.296  16.208  12.013
74167ION    NA+45893  39.878  27.648   4.306
74168ION    NA+45894  33.155  24.136   2.369
74169ION    NA+45895   8.786  12.054  13.867
74170ION    NA+45896   9.202   9.502  13.509
74171ION    NA+45897  23.884  39.117   0.073
74172ION    NA+45898  35.021  36.106   5.094
74173ION    NA+45899  12.018  35.272   0.996
74174ION    NA+45900   2.057  26.231  13.414
74175ION    NA+45901  41.391  26.783  12.996
74176ION    NA+45902  30.015  42.861   1.843
74177ION    NA+45903  39.439  41.188   3.311
74178ION    NA+45904  28.912  23.518   5.497
74179ION    NA+45905  12.088  36.229  13.415
74180ION    NA+45906   7.957  25.440  13.467
74181ION    NA+45907   5.725  40.212  10.752
74182ION    NA+45908  37.544  10.706   0.029
74183ION    NA+45909  33.354  39.317   3.051
74184ION    NA+45910  33.073  15.310  14.690
74185ION    NA+45911  12.890  34.915  10.695
74186ION    NA+45912  29.832  37.677   4.591
74187ION    NA+45913  29.968  39.998   1.849
74188ION    NA+45914  43.487  38.477  11.567
74189ION    NA+45915   9.770  28.241  12.379
74190ION    NA+45916  18.195  11.254  12.540
74191ION    NA+45917  27.262  21.213   0.397
74192ION    NA+45918  15.342  42.183  14.918
74193ION    NA+45919  21.325  21.014   1.581
74194ION    NA+45920  26.284  23.233   2.600
74195ION    NA+45921  42.410  25.145  11.903
74196ION    NA+45922  27.614   5.736  12.439
74197ION    NA+45923  35.358   0.823   4.037
74198ION    NA+45924   7.731  41.964   4.010
74199ION    NA+45925   0.802  25.041  11.499
74200ION    NA+45926  23.274   7.245   4.166
74201ION    NA+45927  17.039  18.775  10.765
74202ION    NA+45928  38.890  31.093   5.211
74203ION    NA+45929  20.711  15.543   2.204
74204ION    NA+45930   0.919  37.171   0.407
74205ION    NA+45931  34.910   9.322  13.969
74206ION    NA+45932  23.502   4.795  12.686
74207ION    NA+45933  30.466   7.330  11.661
74208ION    NA+45934  19.737  28.339   2.725
74209ION    NA+45935  43.663  35.062   2.276
74210ION    NA+45936   0.225  36.558   4.407
74211ION    NA+45937  37.483  37.790  14.307
74212ION    NA+45938  13.561  23.097   3.289
74213ION    NA+45939  26.895   1.975   3.180
74214ION    NA+45940  31.274  35.705   4.123
74215ION    NA+45941  17.815  35.767  10.778
74216ION    NA+45942  25.727   7.989  13.064
74217ION    NA+45943  29.389  26.864   4.149
74218ION    NA+45944  22.949  18.145   1.796
74219ION    NA+45945   9.637  40.066   1.360
74220ION    NA+45946  44.707  41.786  12.383
74221ION    NA+45947  16.637  16.710  12.470
74222ION    NA+45948  21.806  17.284  12.849
74223ION    NA+45949   5.328  26.962   2.183
74224ION    NA+45950   0.377   2.824  13.228
74225ION    NA+45951  38.888   2.456  13.901
74226ION    NA+45952  23.833  43.782   1.246
74227ION    NA+45953  21.146  32.840   2.815
74228ION    NA+45954   6.163  25.067  10.812
74229ION    NA+45955   6.128  35.050  14.755
74230ION    NA+45956   8.834  23.318  14.734
74231ION    NA+45957  38.584  25.060  12.979
74232ION    NA+45958   5.970  44.938   0.399
74233ION    NA+45959  37.432   6.880   3.164
74234ION    NA+45960  22.735  24.817  10.789
74235ION    NA+45961  33.562  31.691  13.892
74236ION    NA+45962  35.055  26.673  14.396
74237ION    NA+45963  14.162  41.734  11.617
74238ION    NA+45964  41.776  11.880   1.783
74239ION    NA+45965  12.724   1.592  13.501
74240ION    NA+45966  22.701  12.166  14.089
74241ION    NA+45967   2.215   9.901  12.894
74242ION    NA+45968  22.069  24.991  13.400
74243ION    NA+45969  44.470  12.447  14.849
74244ION    NA+45970  28.693  28.213  13.918
74245ION    NA+45971  16.037  23.523  12.408
74246ION    NA+45972  20.269  30.671  11.474
74247ION    NA+45973  23.564  20.769  12.646
74248ION    NA+45974  30.716  13.153  12.866
74249ION    NA+45975   2.482  25.027   0.850
74250ION    NA+45976   5.633   6.738  12.352
74251ION    NA+45977  34.092   7.416  11.607
74252ION    NA+45978  17.233   7.317   3.659
74253ION    NA+45979  26.885   6.432   3.537
74254ION    NA+45980  37.796  40.104   2.930
74255ION    NA+45981  22.984  19.082   1.086
74256ION    NA+45982  28.553   7.881   1.990
74257ION    NA+45983  42.347  37.037   0.358
74258ION    NA+45984  13.371  17.779   1.624
74259ION    NA+45985  30.829  15.408  12.610
74260ION    NA+45986  15.947  11.607   2.581
74261ION    NA+45987  26.586  12.193  12.104
74262ION    NA+45988  31.367   6.545  12.013
74263ION    NA+45989   3.860  15.730   2.335
74264ION    NA+45990  32.044  31.610   3.110
74265ION    NA+45991  24.510  10.739   2.432
74266ION    NA+45992  27.618   8.185  13.077
74267ION    NA+45993  17.953  17.964   0.219
74268ION    NA+45994  36.977  24.833  12.778
74269ION    NA+45995  31.327  33.039   0.696
74270ION    NA+45996  32.701  23.276  12.063
74271ION    NA+45997  27.977  14.817  13.504
74272ION    NA+45998   7.492   9.395   0.803
74273ION    NA+45999  30.999  40.097   1.349
74274ION    NA+46000   3.208  26.226  10.929
74275ION    NA+46001  10.224  29.925   4.386
74276ION    NA+46002  14.687  39.397   3.300
74277ION    NA+46003  34.652  38.081  13.118
74278ION    NA+46004  34.590   4.951   5.157
74279ION    NA+46005  17.991  42.702   1.239
74280ION    NA+46006  11.690  17.015   0.325
74281ION    NA+46007  35.574   0.672   5.001
74282ION    NA+46008  20.397  41.602   9.919
74283ION    NA+46009  13.218   0.220   1.234
74284ION    NA+46010   5.532  25.909  14.208
74285ION    NA+46011   2.257  27.030  12.216
74286ION    NA+46012  20.154  33.311   1.926
74287ION    NA+46013  38.322  13.822   3.816
74288ION    NA+46014  37.282  29.219  14.454
74289ION    NA+46015  33.853  42.325   0.849
74290ION    NA+46016   9.257  42.906  12.788
74291ION    NA+46017  29.505  18.758  13.514
74292ION    NA+46018  39.691  31.655  14.613
74293ION    NA+46019  39.827  33.547  11.411
74294ION    NA+46020  21.002  44.665   3.886
74295ION    NA+46021  26.283  22.512  12.065
74296ION    NA+46022  34.346   8.031   0.480
74297ION    NA+46023  23.905  21.542   4.875
74298ION    NA+46024  24.853  22.569   3.717
74299ION    NA+46025  36.073   4.542  12.745
74300ION    NA+46026   6.903  21.998  11.597
74301ION    NA+46027   5.896  38.881   1.327
74302ION    NA+46028  30.689  20.751  13.473
74303ION    NA+46029  41.617  40.400  13.349
74304ION    NA+46030   1.669   5.844  12.586
74305ION    NA+46031   3.273  12.571   2.235
74306ION    NA+46032   9.696  22.909  12.556
74307ION    NA+46033  15.419   5.579  14.038
74308ION    NA+46034  27.132   8.921   3.820
74309ION    NA+46035  39.965  11.894   1.206
74310ION    NA+46036   3.956  17.369  13.242
74311ION    NA+46037   9.291  41.256  10.751
74312ION    NA+46038  27.949   6.770   0.543
74313ION    NA+46039  21.026  37.142   2.325
74314ION    NA+46040   1.647   8.782   1.716
74315ION    NA+46041  19.113  10.659   4.294
74316ION    NA+46042  39.656  22.391   1.295
74317ION    NA+46043  37.099   4.081   4.610
74318ION    NA+46044  18.284  14.861  14.012
74319ION    NA+46045  35.723  42.918  13.178
74320ION    NA+46046   8.340  32.073   2.783
74321ION    NA+46047  15.541  41.381  11.344
74322ION    NA+46048  41.964  43.238   2.735
74323ION    NA+46049  24.804  13.407   3.462
74324ION    NA+46050  13.283  41.882   0.699
74325ION    NA+46051   8.973  42.516  13.505
74326ION    NA+46052   6.929  12.687  12.442
74327ION    NA+46053  28.421  32.513   3.343
74328ION    NA+46054  34.706  34.931  13.201
74329ION    NA+46055  20.707  35.038   0.852
74330ION    NA+46056  33.177   6.712  13.114
74331ION    NA+46057  14.280  25.131  14.297
74332ION    NA+46058  44.011  19.229  11.441
74333ION    NA+46059  19.051   0.224   3.860
74334ION    NA+46060  39.710  33.235  13.657
74335ION    NA+46061  10.766  14.121  11.691
74336ION    NA+46062   8.324  15.393  10.986
74337ION    NA+46063  20.936   6.678  11.156
74338ION    NA+46064  40.240  27.097  14.296
74339ION    NA+46065   9.805   3.966  10.686
74340ION    NA+46066  40.088  16.957  10.322
74341ION    NA+46067  19.724  20.240   1.771
74342ION    NA+46068  21.483  31.052  11.052
74343ION    NA+46069  11.348  41.749  11.984
74344ION    NA+46070  13.575   0.302   3.780
74345ION    NA+46071  26.597  40.314   4.688
74346ION    NA+46072  34.047  24.696  12.140
74347ION    NA+46073  42.746   5.370   0.353
74348ION    NA+46074  10.756  20.243  11.605
74349ION    NA+46075  16.369  17.284  10.020
74350ION    NA+46076   6.924  21.260  14.891
74351ION    NA+46077  27.924  16.277   3.575
74352ION    NA+46078  35.564  20.617   2.749
74353ION    NA+46079  26.243  30.638  14.818
74354ION    NA+46080  24.729  38.380  14.836
74355ION    NA+46081  16.751  12.312  10.641
74356ION    NA+46082  44.075  22.098  13.032
74357ION    NA+46083  31.143  33.009   3.654
74358ION    NA+46084   3.264  40.825  11.979
74359ION    NA+46085   3.692  19.830   4.037
74360ION    NA+46086  43.989   6.172   0.991
74361ION    NA+46087   9.412  22.194  11.204
74362ION    NA+46088  33.424  36.132   3.883
74363ION    NA+46089  21.647  38.362   4.594
74364ION    NA+46090  29.108  37.059   4.896
74365ION    NA+46091  42.245  42.956   4.596
74366ION    NA+46092   1.791  18.161   2.579
74367ION    NA+46093  38.959  10.745  13.903
74368ION    NA+46094  20.323  21.105  14.216
74369ION    NA+46095  30.257  14.546   4.193
74370ION    NA+46096  21.668   0.930   3.947
74371ION    NA+46097  12.276  30.088   1.857
74372ION    NA+46098  39.742  34.285  13.293
74373ION    NA+46099  33.627   5.252   1.421
74374ION    NA+46100  19.671  14.287   2.981
74375ION    NA+46101  29.916   3.233   4.520
74376ION    NA+46102  27.396  29.840   3.539
74377ION    NA+46103  13.288  38.294   3.383
74378ION    NA+46104  26.766  38.719   4.593
74379ION    NA+46105  16.325  40.588   1.752
74380ION    NA+46106  22.151  41.268   0.873
74381ION    NA+46107  16.790   6.902  10.794
74382ION    NA+46108  10.143  31.550   1.065
74383ION    NA+46109  16.100  32.278  10.280
74384ION    NA+46110  11.906  20.281   3.503
74385ION    NA+46111   4.630   4.446  14.500
74386ION    NA+46112  30.483  32.012  12.584
74387ION    NA+46113  23.465  23.700   1.963
74388ION    NA+46114  38.259  35.296   2.365
74389ION    NA+46115  24.041  13.685   0.456
74390ION    NA+46116  34.092  36.435   4.669
74391ION    NA+46117  31.695  13.645  14.128
74392ION    NA+46118  12.048  22.946  11.431
74393ION    NA+46119  33.974  25.848  12.921
74394ION    NA+46120  43.555   0.743  13.764
74395ION    NA+46121  29.430   9.999   4.829
74396ION    NA+46122  23.161  11.858   5.568
74397ION    NA+46123  26.433  28.027   2.626
74398ION    NA+46124  14.586  26.941  13.153
74399ION    NA+46125   5.276  35.390  11.526
74400ION    NA+46126  42.253   3.034   2.742
74401ION    NA+46127  33.990  34.047   4.546
74402ION    NA+46128   6.858  12.848  11.457
74403ION    NA+46129  43.060  44.249  14.902
74404ION    NA+46130  35.127   2.941   3.787
74405ION    NA+46131   2.573  22.490   9.594
74406ION    NA+46132   7.842   2.532   0.902
74407ION    NA+46133  16.223  27.506  13.361
74408ION    NA+46134   2.122  23.676  10.948
74409ION    NA+46135   9.963   5.353   3.994
74410ION    NA+46136  35.557   5.957  14.448
74411ION    NA+46137   9.163   7.373   3.314
74412ION    NA+46138   1.801   3.335   3.597
74413ION    NA+46139  33.506   7.326   0.049
74414ION    NA+46140  19.820  23.620  13.345
74415ION    NA+46141  16.780  31.863  13.398
74416ION    NA+46142   0.032   0.236  11.212
74417ION    NA+46143  30.560  38.138  10.727
74418ION    NA+46144   1.186  44.746  10.527
74419ION    NA+46145  31.392  33.857  11.537
74420ION    NA+46146  22.023   4.963   0.614
74421ION    NA+46147  10.928  22.453  13.287
74422ION    NA+46148  11.876  19.522   1.639
74423ION    NA+46149   9.854  36.108  14.276
74424ION    NA+46150  40.535  39.431  14.219
74425ION    NA+46151   6.281  16.351   5.419
74426ION    NA+46152  35.614  31.068  14.435
74427ION    NA+46153  34.749   4.734  12.077
74428ION    NA+46154  29.564  43.714   4.134
74429ION    NA+46155  11.974  30.863  10.823
74430ION    NA+46156   1.426  11.174   2.381
74431ION    NA+46157  30.287  29.051   0.288
74432ION    NA+46158  26.227  37.885   1.108
74433ION    NA+46159  35.606  41.250  13.044
74434ION    NA+46160  22.565   7.613   2.188
74435ION    NA+46161  10.910  17.234  13.649
74436ION    NA+46162   8.553  37.225  11.010
74437ION    NA+46163  44.266  43.341   3.594
74438ION    NA+46164  23.632  41.257   2.772
74439ION    NA+46165  40.990  21.590   3.354
74440ION    NA+46166  13.498  35.822  13.492
74441ION    NA+46167  11.286   0.064  13.833
74442ION    NA+46168  44.213  31.495  11.133
74443ION    NA+46169  33.665  40.079   3.620
74444ION    NA+46170  16.203  35.086   3.658
74445ION    NA+46171  28.797  40.103  10.826
74446ION    NA+46172  29.638  36.887   2.511
74447ION    NA+46173  27.838  11.086  12.080
74448ION    NA+46174   1.010  30.014  13.664
74449ION    NA+46175   6.839  38.868  11.983
74450ION    NA+46176  36.191  28.089   1.371
74451ION    NA+46177  22.774   8.862   4.924
74452ION    NA+46178  19.604  15.095   2.959
74453ION    NA+46179   5.516  42.828  11.911
74454ION    NA+46180  40.320   4.409  13.445
74455ION    NA+46181  41.599   1.267   3.813
74456ION    NA+46182  24.178  14.747  14.775
74457ION    NA+46183  34.938  42.240   1.395
74458ION    NA+46184   5.874  23.781  12.566
74459ION    NA+46185  18.976  12.527  12.896
74460ION    NA+46186  24.818  42.168   1.809
74461ION    NA+46187  24.251  10.476   0.952
74462ION    NA+46188  14.746  17.010  13.046
74463ION    NA+46189  12.346  44.170   3.161
74464ION    NA+46190  10.882  10.830   2.226
74465ION    NA+46191  37.516  21.887  10.605
74466ION    NA+46192  18.498  37.299   3.246
74467ION    NA+46193  37.347  16.189   2.168
74468ION    NA+46194   5.183   3.440  14.319
74469ION    NA+46195   9.137  12.625  12.970
74470ION    NA+46196  17.469  29.330  14.477
74471ION    NA+46197  33.212  43.496   3.040
74472ION    NA+46198   6.098  23.712   3.736
74473ION    NA+46199  13.503   0.816  10.532
74474ION    NA+46200  36.428   2.490  11.987
74475ION    NA+46201  26.536  36.034  11.510
74476ION    NA+46202  10.820  43.670  13.699
74477ION    NA+46203   0.399   5.996  12.380
74478ION    NA+46204  34.985  17.103   4.575
74479ION    NA+46205   6.467  25.041   4.048
74480ION    NA+46206  20.277  44.396   0.423
74481ION    NA+46207  23.166   0.051  12.102
74482ION    NA+46208  32.231  44.258   1.986
74483ION    NA+46209  34.097  13.377  14.431
74484ION    NA+46210  28.279  21.718  11.397
74485ION    NA+46211   9.646   5.793   3.117
74486ION    NA+46212  42.893  26.834   3.743
74487ION    NA+46213   8.797  25.773   4.176
74488ION    NA+46214   4.408   3.460   4.631
74489ION    CL-46215  11.387  31.823   1.735
74490ION    CL-46216   3.770  22.465   1.024
74491ION    CL-46217   7.813  10.872   0.001
74492ION    CL-46218  13.274   0.234   3.453
74493ION    CL-46219  25.236  14.337   2.755
74494ION    CL-46220  14.244  20.235  12.308
74495ION    CL-46221   1.885  17.115   2.141
74496ION    CL-46222   5.119  32.787  14.733
74497ION    CL-46223  25.249  39.999   2.927
74498ION    CL-46224   6.683   4.013  11.591
74499ION    CL-46225  18.142  28.495   3.562
74500ION    CL-46226  23.363  17.168  13.836
74501ION    CL-46227   4.353  24.117  10.955
74502ION    CL-46228   9.926  26.552   3.650
74503ION    CL-46229  36.552   7.613  13.373
74504ION    CL-46230  25.561  15.608  12.781
74505ION    CL-46231  38.387  14.016   4.211
74506ION    CL-46232   2.851  38.564  14.112
74507ION    CL-46233   0.407   9.326   0.764
74508ION    CL-46234  37.401  29.086   1.280
74509ION    CL-46235  19.363  11.924  13.863
74510ION    CL-46236   7.305  17.216  13.840
74511ION    CL-46237  36.564  17.436   2.524
74512ION    CL-46238   4.727  12.575   4.208
74513ION    CL-46239  22.996  10.756  13.668
74514ION    CL-46240  41.051   3.011  13.913
74515ION    CL-46241  10.323  13.096  14.403
74516ION    CL-46242   5.430  15.414  14.684
74517ION    CL-46243  27.813  44.991  13.803
74518ION    CL-46244  42.283  44.783  14.479
74519ION    CL-46245  20.977  23.197   4.100
74520ION    CL-46246  29.158  28.289   0.995
74521ION    CL-46247  13.087  30.668  14.109
74522ION    CL-46248   7.496  32.584   3.603
74523ION    CL-46249   0.855  17.872  10.381
74524ION    CL-46250   9.783   3.690   3.423
74525ION    CL-46251  14.000  36.049   5.034
74526ION    CL-46252  30.625  17.112   2.766
74527ION    CL-46253  36.508   9.149  14.079
74528ION    CL-46254  42.178  30.241  11.950
74529ION    CL-46255  27.848  40.131  13.841
74530ION    CL-46256  11.573  18.255  11.122
74531ION    CL-46257  16.941  33.722   1.626
74532ION    CL-46258  10.185  21.968   4.257
74533ION    CL-46259  35.118  39.616  13.138
74534ION    CL-46260  39.127   3.232   9.740
74535ION    CL-46261  41.997  29.355   4.947
74536ION    CL-46262  10.344  41.783   1.320
74537ION    CL-46263  35.082  31.199   1.291
74538ION    CL-46264  34.598  27.855  12.097
74539ION    CL-46265  35.562  32.037   3.072
74540ION    CL-46266  36.993  11.860   2.790
74541ION    CL-46267  14.671  38.506  14.383
74542ION    CL-46268  43.933   6.307   4.537
74543ION    CL-46269  19.529   9.632   1.283
74544ION    CL-46270  34.721  36.840   1.495
74545ION    CL-46271   8.890  35.416   3.246
74546ION    CL-46272  30.470  16.053  14.801
74547ION    CL-46273   9.610  31.831   2.111
74548ION    CL-46274   2.339  44.263  12.496
74549ION    CL-46275  16.806  28.979  13.478
74550ION    CL-46276  23.305   1.753  11.808
74551ION    CL-46277  44.554  39.532  11.596
74552ION    CL-46278  13.156  31.870  13.646
74553ION    CL-46279  21.279  16.108  11.278
74554ION    CL-46280   0.982  16.378  10.944
74555ION    CL-46281  41.511  43.226   2.784
74556ION    CL-46282  35.268  28.875   0.860
74557ION    CL-46283  22.867  33.609   1.065
74558ION    CL-46284  21.463  20.689   1.292
74559ION    CL-46285  35.065  23.169   1.326
74560ION    CL-46286  34.355   4.810  13.555
74561ION    CL-46287  14.802  21.305   4.058
74562ION    CL-46288   0.666  26.110   1.936
74563ION    CL-46289  34.511  29.352  11.923
74564ION    CL-46290  42.736  40.824  12.203
74565ION    CL-46291   4.955  27.311  13.999
74566ION    CL-46292  32.451  44.564  13.953
74567ION    CL-46293  31.331  16.203   2.167
74568ION    CL-46294  24.920  37.802   2.939
74569ION    CL-46295  16.592  38.852   3.554
74570ION    CL-46296  28.711   1.535   4.179
74571ION    CL-46297  29.024  21.759  12.414
74572ION    CL-46298  42.400  43.261   2.604
74573ION    CL-46299  31.986  23.833  10.238
74574ION    CL-46300  20.664  16.462  11.984
74575ION    CL-46301  15.176  19.342  14.169
74576ION    CL-46302  25.185  44.395  13.574
74577ION    CL-46303   8.133   2.943  14.315
74578ION    CL-46304  14.775  29.769  13.040
74579ION    CL-46305   5.839  23.660   1.725
74580ION    CL-46306  30.808  17.227  11.190
74581ION    CL-46307  15.816  15.810  10.784
74582ION    CL-46308  41.276  14.286   4.056
74583ION    CL-46309  32.729  40.889  13.825
74584ION    CL-46310  44.497  12.224  14.452
74585ION    CL-46311  44.959  22.755  13.833
74586ION    CL-46312  22.965   7.670   1.973
74587ION    CL-46313  28.313  20.443   4.567
74588ION    CL-46314  33.649  10.934   2.683
74589ION    CL-46315  32.305  26.065  12.212
74590ION    CL-46316  23.433   8.562   1.254
74591ION    CL-46317   3.618  22.229  10.428
74592ION    CL-46318   6.000   3.326   3.782
74593ION    CL-46319  31.541  22.769   1.718
74594ION    CL-46320  35.893  20.309   0.883
74595ION    CL-46321  15.163  30.025  12.086
74596ION    CL-46322   8.763  18.460  14.945
74597ION    CL-46323  41.110  16.080  11.189
74598ION    CL-46324  11.892  41.074   3.494
74599ION    CL-46325  25.970   3.335  11.149
74600ION    CL-46326  30.865  38.966   4.963
74601ION    CL-46327  21.601   4.458  12.372
74602ION    CL-46328  32.185  43.415   4.755
74603ION    CL-46329   5.558   8.803   1.901
74604ION    CL-46330  44.594  17.617  14.258
74605ION    CL-46331  29.644  22.132   0.852
74606ION    CL-46332  19.995  38.929  14.005
74607ION    CL-46333  14.343  30.934  11.541
74608ION    CL-46334  14.869  11.978  11.763
74609ION    CL-46335  41.919  18.404  14.750
74610ION    CL-46336   0.393  16.792   2.257
74611ION    CL-46337  29.208  36.875   2.634
74612ION    CL-46338  35.151  15.159   3.312
74613ION    CL-46339  32.354  15.122   2.593
74614ION    CL-46340  38.190  30.298   1.657
74615ION    CL-46341   5.199  35.301   2.266
74616ION    CL-46342   4.140  39.961   2.824
74617ION    CL-46343  25.554  15.620   3.773
74618ION    CL-46344   3.422  31.922  10.545
74619ION    CL-46345  41.864  30.058   0.740
74620ION    CL-46346  32.314   0.628   0.833
74621ION    CL-46347  42.469  26.621  13.752
74622ION    CL-46348  22.739  28.313  12.120
74623ION    CL-46349  18.982  38.444  10.557
74624ION    CL-46350  25.214  38.885   4.194
74625ION    CL-46351  41.383  30.147   2.573
74626ION    CL-46352  41.872   8.179   2.285
74627ION    CL-46353   6.311  14.774  14.578
74628ION    CL-46354  43.437  23.566   4.695
74629ION    CL-46355  42.180   6.651   0.629
74630ION    CL-46356  42.843  17.880   2.487
74631ION    CL-46357  18.602  11.077  12.480
74632ION    CL-46358  12.644  31.343  10.906
74633ION    CL-46359  42.502   2.116   3.674
74634ION    CL-46360   5.943  25.519  13.335
74635ION    CL-46361   1.013   1.770   3.796
74636ION    CL-46362  41.232  24.540   1.881
74637ION    CL-46363   7.172  40.276   2.315
74638ION    CL-46364  21.661   5.798  12.215
74639ION    CL-46365  34.623  20.886   1.337
74640ION    CL-46366  43.397  30.109  11.482
74641ION    CL-46367  18.661  43.873  12.154
74642ION    CL-46368  37.739  40.630   4.317
74643ION    CL-46369  18.621  41.904  14.751
74644ION    CL-46370  17.806  18.988  12.606
74645ION    CL-46371  30.058  14.859   3.929
74646ION    CL-46372  22.998  44.646  12.216
74647ION    CL-46373   2.613  37.478   3.283
74648ION    CL-46374   7.135   9.376   3.211
74649ION    CL-46375  40.934  33.043  12.427
74650ION    CL-46376  20.489  25.054  11.378
74651ION    CL-46377  13.792  23.159   2.284
74652ION    CL-46378  44.181  13.767  13.133
74653ION    CL-46379  39.808  26.203  10.810
74654ION    CL-46380  25.341   7.743  13.178
74655ION    CL-46381  33.532  39.026  13.767
74656ION    CL-46382  11.807  22.898  14.642
74657ION    CL-46383  10.597  27.129   1.301
74658ION    CL-46384  30.774  26.649  10.579
74659ION    CL-46385  15.719   5.634  13.679
74660ION    CL-46386  20.312  34.162   3.700
74661ION    CL-46387  33.161  26.696   1.829
74662ION    CL-46388  31.790  11.482  12.900
74663ION    CL-46389  22.125  30.403   3.510
74664ION    CL-46390   7.734   0.028   3.626
74665ION    CL-46391   4.257   7.892  14.919
74666ION    CL-46392   2.090   6.439   5.049
74667ION    CL-46393  15.151  12.104  12.623
74668ION    CL-46394  17.395   9.739   2.745
74669ION    CL-46395  38.396   6.176  12.047
74670ION    CL-46396   3.802   7.632   3.090
74671ION    CL-46397  11.814  33.579  10.550
74672ION    CL-46398  22.479  41.506   1.100
74673ION    CL-46399  36.638  36.032   1.873
74674ION    CL-46400   9.683   2.964  14.424
74675ION    CL-46401  43.514  36.527   1.198
74676ION    CL-46402  32.837  34.051  13.979
74677ION    CL-46403  31.079  32.484   2.030
74678ION    CL-46404   8.367  37.734   2.619
74679ION    CL-46405   6.669   1.882   1.186
74680ION    CL-46406  18.094  40.888  12.481
74681ION    CL-46407   9.313   6.813  10.719
74682ION    CL-46408   4.170  17.032  14.372
74683ION    CL-46409  22.115  35.024   3.399
74684ION    CL-46410  26.035   8.218  13.307
74685ION    CL-46411  12.693   2.330  10.619
74686ION    CL-46412  30.562   4.166  14.520
74687ION    CL-46413   1.438   0.577   2.794
74688ION    CL-46414  36.538  28.412  10.782
74689ION    CL-46415  33.070  36.249   4.130
74690ION    CL-46416  24.657  24.605   3.090
74691ION    CL-46417   2.364  31.849   0.301
74692ION    CL-46418   2.642  18.640   5.013
74693ION    CL-46419  22.765  28.126   2.687
74694ION    CL-46420   9.246   9.931  13.626
74695ION    CL-46421  14.157  11.164  12.013
74696ION    CL-46422  15.088   4.337   3.079
74697ION    CL-46423  27.958  24.635   3.536
74698ION    CL-46424   9.393  23.854   4.939
74699ION    CL-46425  14.346  39.523  11.910
74700ION    CL-46426  17.392   3.102  11.186
74701ION    CL-46427  19.245  36.351  13.393
74702ION    CL-46428  14.820  28.976   2.337
74703ION    CL-46429  14.000  20.282   0.285
74704ION    CL-46430  20.112  27.703  13.152
74705ION    CL-46431  41.017  25.771  14.931
74706ION    CL-46432   9.473  19.163  14.914
74707ION    CL-46433  11.007  11.992   0.006
74708ION    CL-46434  38.230  14.728  14.030
74709ION    CL-46435  35.783  17.379  12.888
74710ION    CL-46436  28.476  34.876  12.112
74711ION    CL-46437  17.998  20.089   3.758
74712ION    CL-46438  19.417   0.831   1.130
74713ION    CL-46439   0.800   7.599   1.404
74714ION    CL-46440  19.375  42.318   2.885
74715ION    CL-46441  29.228   4.360  12.499
74716ION    CL-46442  15.889  36.192   5.042
74717ION    CL-46443  20.936  43.387   1.745
74718ION    CL-46444   2.245  40.801  10.281
74719ION    CL-46445  15.409   4.056   3.880
74720ION    CL-46446  13.658  20.538  10.675
74721ION    CL-46447  35.561  33.006   4.070
74722ION    CL-46448  43.770  36.652  11.986
74723ION    CL-46449  36.823  19.886   0.993
74724ION    CL-46450  23.396  43.859  14.106
74725ION    CL-46451   1.452  43.822  13.349
74726ION    CL-46452   7.943  24.363   5.034
74727ION    CL-46453  31.515  38.726  12.347
74728ION    CL-46454  10.028  40.081  14.838
74729ION    CL-46455  40.251  16.594   1.051
74730ION    CL-46456  22.697   8.409   4.847
74731ION    CL-46457   6.756  31.012   0.175
74732ION    CL-46458   5.620  36.395   1.733
74733ION    CL-46459   1.138   6.178  13.434
74734ION    CL-46460  24.278   3.463   0.058
74735ION    CL-46461   9.669  43.373   2.626
74736ION    CL-46462  37.559  26.733  13.734
74737ION    CL-46463  26.816  39.388  14.289
74738ION    CL-46464  40.751  44.087   2.573
74739ION    CL-46465  43.242   0.162   4.335
74740ION    CL-46466  27.082  12.567   0.846
74741ION    CL-46467  21.093  27.690  14.381
74742ION    CL-46468  27.744  12.265  13.945
74743ION    CL-46469  14.214  35.307  14.899
74744ION    CL-46470  12.423   5.269  12.916
74745ION    CL-46471  37.185   9.405  11.228
74746ION    CL-46472  43.557  34.910  13.459
74747ION    CL-46473  35.361   8.336   2.633
74748ION    CL-46474  42.295  14.597  12.914
74749ION    CL-46475  13.259  24.881   4.136
74750ION    CL-46476  33.092  29.022   3.545
74751ION    CL-46477   2.390  35.135   0.723
74752ION    CL-46478   3.038  25.130   2.048
74753ION    CL-46479  33.644  17.959  13.230
74754ION    CL-46480  35.032   4.250   1.575
74755ION    CL-46481  11.695   5.379   4.481
74756ION    CL-46482  41.893  41.444   1.757
74757ION    CL-46483  39.766  13.690  14.086
74758ION    CL-46484   5.465  12.383   3.263
74759ION    CL-46485  20.103  40.325   1.436
74760ION    CL-46486  29.795  15.260  14.236
74761ION    CL-46487  28.468   7.609   2.354
74762ION    CL-46488   5.792   9.204   3.643
74763ION    CL-46489  14.105  14.884  12.111
74764ION    CL-46490  35.295  15.038   1.465
74765ION    CL-46491  34.778  17.147   4.181
74766ION    CL-46492  23.089  32.970  11.987
74767ION    CL-46493  12.317  34.943   1.033
74768ION    CL-46494  22.168   4.935   1.935
74769ION    CL-46495   4.063  19.592  13.732
74770ION    CL-46496  40.962  14.731  13.520
74771ION    CL-46497  34.799  42.675   5.129
74772ION    CL-46498  20.075   1.660   5.128
74773ION    CL-46499  37.453  24.926  12.647
74774ION    CL-46500  41.868   7.579  14.445
74775ION    CL-46501  38.319  34.512   0.986
74776ION    CL-46502  22.496  16.290  12.223
74777ION    CL-46503  15.239  24.710  11.756
74778ION    CL-46504  11.066  19.518   3.613
74779ION    CL-46505  24.945  13.933  13.698
74780ION    CL-46506  40.605  33.978   4.594
74781ION    CL-46507  15.472  43.210   1.586
74782ION    CL-46508   1.308   5.328  11.554
74783ION    CL-46509  29.053  44.436  14.004
74784ION    CL-46510  15.122  44.802  13.387
74785ION    CL-46511  39.453  42.019  13.280
74786ION    CL-46512   9.780  12.142  11.431
74787ION    CL-46513  12.800  38.356   1.944
74788ION    CL-46514  36.665  20.051   0.019
74789ION    CL-46515   2.182  17.954   2.683
74790ION    CL-46516  12.687   2.196  11.450
74791ION    CL-46517  15.134  38.171   5.390
74792ION    CL-46518  17.907  17.708   1.572
74793ION    CL-46519   1.464  15.362   0.694
74794ION    CL-46520  25.977   9.394   4.478
74795ION    CL-46521  13.119  26.223   1.773
74796ION    CL-46522  11.231  26.028  12.556
74797ION    CL-46523  14.151  32.617  11.432
74798ION    CL-46524   3.120  25.144  13.289
74799ION    CL-46525   4.934  20.596  13.317
74800ION    CL-46526  30.488  37.322   0.992
74801ION    CL-46527   9.373  43.247   1.609
74802ION    CL-46528  40.630  19.185  13.548
74803ION    CL-46529  24.781  27.245  11.087
74804ION    CL-46530  11.485  28.207   3.193
74805ION    CL-46531   1.721  41.806  13.396
74806ION    CL-46532   1.359  31.635  14.714
74807ION    CL-46533   6.291  44.770   2.778
74808ION    CL-46534  43.087   4.732  13.552
74809ION    CL-46535  15.715   9.261   3.783
74810ION    CL-46536   9.042  27.305  14.832
74811ION    CL-46537  36.399   1.924  10.949
74812ION    CL-46538   7.080  33.635  13.635
74813ION    CL-46539  35.023   4.817   5.042
74814ION    CL-46540   3.478  40.914  11.599
74815ION    CL-46541   1.023  41.040   4.187
74816ION    CL-46542   2.050  13.540  11.490
74817ION    CL-46543   1.191   7.711  10.758
74818ION    CL-46544  22.270  17.377   4.979
74819ION    CL-46545  12.926  40.601   2.753
74820ION    CL-46546  30.328  17.420   1.794
74821ION    CL-46547   8.756  35.293  10.583
74822ION    CL-46548  23.520   5.243  10.911
74823ION    CL-46549  40.508   1.369   4.802
74824ION    CL-46550  15.857   1.041  13.471
74825ION    CL-46551   8.551   9.819   0.421
74826ION    CL-46552   4.884  39.567   4.970
74827ION    CL-46553  23.717  38.715  10.568
74828ION    CL-46554   7.448  18.744   2.797
74829ION    CL-46555  39.768  21.996  13.308
74830ION    CL-46556  44.003  29.162   1.666
74831ION    CL-46557  10.794  13.477  12.464
74832ION    CL-46558   0.240  33.612   1.917
74833ION    CL-46559  36.467  42.954   0.836
74834ION    CL-46560  42.423  34.601  13.950
74835ION    CL-46561  33.104  23.316  13.439
74836ION    CL-46562  38.469  23.205   1.366
74837ION    CL-46563  32.501  27.309  11.090
74838ION    CL-46564   2.797   2.295  13.067
74839ION    CL-46565   5.671  38.942  10.465
74840ION    CL-46566  43.780  37.786  13.346
74841ION    CL-46567  23.878  44.329   5.081
74842ION    CL-46568  16.797  44.228   5.011
74843ION    CL-46569  40.878  38.438  11.776
74844ION    CL-46570   7.390  37.830   3.282
74845ION    CL-46571  13.101  33.547  14.872
74846ION    CL-46572  35.353  44.517   0.104
74847ION    CL-46573  14.309  24.282   2.064
74848ION    CL-46574   6.938   7.646   2.917
74849ION    CL-46575   8.757   6.485   0.144
74850ION    CL-46576  43.520   5.736  13.835
74851ION    CL-46577  18.657  37.132   3.629
74852ION    CL-46578  11.837  27.848  14.141
74853ION    CL-46579  11.088   1.236   3.973
74854ION    CL-46580  20.865  32.161  13.558
74855ION    CL-46581  25.366   4.232   0.316
74856ION    CL-46582   5.642  26.252  13.945
74857ION    CL-46583  36.550  19.343  11.609
74858ION    CL-46584   8.389  19.250  10.731
74859ION    CL-46585  12.636  24.136  12.637
74860ION    CL-46586   4.755  37.913   5.090
74861ION    CL-46587  10.802  43.408  14.071
74862ION    CL-46588  23.214  29.374  11.204
74863ION    CL-46589  29.191  12.763  13.380
74864ION    CL-46590  30.371  21.797   1.738
74865ION    CL-46591  17.631   9.261   5.134
74866ION    CL-46592  35.659   6.326  14.207
74867ION    CL-46593  20.373  22.996   0.548
74868ION    CL-46594  22.147  41.370  12.566
74869ION    CL-46595   5.415  44.588   2.163
74870ION    CL-46596  26.762  40.563  11.488
74871ION    CL-46597  19.055   9.368  10.825
74872ION    CL-46598  23.729  17.092   4.898
74873ION    CL-46599  37.256  32.985  13.674
74874ION    CL-46600  35.101   4.013  14.055
74875ION    CL-46601  42.001  26.473  10.110
74876ION    CL-46602   8.108   3.401   2.613
74877ION    CL-46603  16.630  19.120  13.427
74878ION    CL-46604   2.653  43.525   3.685
74879ION    CL-46605   5.158  26.985   4.151
74880ION    CL-46606  30.918  33.250  12.445
74881ION    CL-46607  31.228  36.597   0.747
74882ION    CL-46608  36.348   7.831   4.998
74883ION    CL-46609  36.663  29.232   2.423
74884ION    CL-46610  25.518  13.816  11.506
74885ION    CL-46611   3.678  34.680  12.899
74886ION    CL-46612  39.997  24.432   4.093
74887ION    CL-46613  11.192  13.685   3.920
74888ION    CL-46614   1.375  38.569   1.668
74889ION    CL-46615  24.010  21.225   3.664
74890ION    CL-46616  35.494   6.832   1.703
74891ION    CL-46617   9.972  22.596   1.548
74892ION    CL-46618  36.062  38.329   2.230
74893ION    CL-46619  32.492  39.042   4.083
74894ION    CL-46620  21.988  25.095  11.534
74895ION    CL-46621   6.384   7.250   1.797
74896ION    CL-46622   4.470  36.572  14.616
74897ION    CL-46623  17.648  29.168  14.101
74898ION    CL-46624  13.407  19.561  14.926
74899ION    CL-46625  30.452   2.163  12.457
74900ION    CL-46626  16.268  23.891   5.042
74901ION    CL-46627  15.021   5.733  12.575
74902ION    CL-46628   6.785  14.669   4.067
74903ION    CL-46629   7.987  33.929   4.597
74904ION    CL-46630  29.631  20.443  14.185
74905ION    CL-46631   1.421   7.742   3.628
74906ION    CL-46632  36.556  44.878   4.268
74907ION    CL-46633  39.169  24.961   9.854
74908ION    CL-46634  39.414  13.202   4.186
74909ION    CL-46635  35.123  30.199   1.403
74910ION    CL-46636   2.759   4.350   3.230
74911ION    CL-46637   2.418  44.492   3.520
74912ION    CL-46638  41.545   2.479   0.646
74913ION    CL-46639   8.961  13.737   3.900
74914ION    CL-46640  24.767  25.763   0.161
74915ION    CL-46641  33.437  42.678  14.287
74916ION    CL-46642  10.534   3.019  12.880
74917ION    CL-46643  24.298   9.899  11.661
74918ION    CL-46644  13.892  14.525   3.633
74919ION    CL-46645   8.383  41.459   1.393
74920ION    CL-46646   4.797  44.236   2.707
74921ION    CL-46647  19.948  29.117   0.171
74922ION    CL-46648   2.544  16.272   2.436
74923ION    CL-46649  28.571  33.426   0.859
74924ION    CL-46650   4.402  44.382  14.376
74925ION    CL-46651   2.574  42.149   0.482
74926ION    CL-46652  42.114  20.654  14.907
74927ION    CL-46653  38.772   4.072  11.157
74928ION    CL-46654  29.202  25.424  13.016
74929ION    CL-46655  12.632  43.068  13.093
74930ION    CL-46656  23.199  38.390  12.272
74931ION    CL-46657  35.001  31.976  12.504
74932ION    CL-46658   8.087  39.556   1.392
74933ION    CL-46659   7.208   5.483  11.506
74934ION    CL-46660  13.689  41.685   3.215
74935ION    CL-46661  42.346  33.223  14.032
74936ION    CL-46662  21.623   8.435  13.878
74937ION    CL-46663  16.237  36.933  12.153
74938ION    CL-46664  32.900   8.937  14.992
74939ION    CL-46665  34.956  20.440   3.906
74940ION    CL-46666  15.241   4.281  14.482
74941ION    CL-46667   5.213   3.134  14.654
74942ION    CL-46668  32.226   8.012  14.405
74943ION    CL-46669  10.369  28.589   9.830
74944ION    CL-46670   5.472   1.324   3.648
74945ION    CL-46671  34.635  33.373  13.005
74946ION    CL-46672  27.026   6.844   3.403
74947ION    CL-46673  38.066  42.520  14.845
74948ION    CL-46674  37.827  19.312  11.977
74949ION    CL-46675  39.050  15.966  11.818
74950ION    CL-46676  16.298   2.360   1.335
74951ION    CL-46677   8.872  24.765  13.216
74952ION    CL-46678   1.507  15.967  10.491
74953ION    CL-46679  18.338  29.942  14.308
74954ION    CL-46680   4.162  15.841   2.027
74955ION    CL-46681  12.973  28.021  14.824
74956ION    CL-46682  33.725   1.488  11.028
74957ION    CL-46683   7.339  29.569   1.295
74958ION    CL-46684  20.660  14.601   2.226
74959ION    CL-46685   6.396  22.280   2.038
74960ION    CL-46686  31.695  34.669  13.014
74961ION    CL-46687  37.441   2.954  12.089
74962ION    CL-46688  29.387  11.944   0.266
74963ION    CL-46689  31.375  36.408  13.342
74964ION    CL-46690  12.826  20.735  14.050
74965ION    CL-46691  26.036   1.654   1.324
74966ION    CL-46692  17.495  34.810  13.925
74967ION    CL-46693  31.776   6.576  11.833
74968ION    CL-46694  41.235   3.153   0.128
74969ION    CL-46695  36.103  17.549  11.956
74970ION    CL-46696  11.209  35.209   9.775
74971ION    CL-46697  18.236  38.252  12.054
74972ION    CL-46698   2.371   5.587   1.912
74973ION    CL-46699   7.123  21.207   0.288
74974ION    CL-46700  13.272   2.704  14.182
74975ION    CL-46701  21.240   1.852  13.420
74976ION    CL-46702  24.245  25.173   4.947
74977ION    CL-46703  22.972  22.488   3.636
74978ION    CL-46704  14.651  17.038  12.611
74979ION    CL-46705  25.608  12.322   3.144
74980ION    CL-46706  25.176  19.639   4.006
74981ION    CL-46707  36.012  20.013  14.263
74982ION    CL-46708  43.465  41.426   0.294
74983ION    CL-46709  17.821  10.062   1.876
74984ION    CL-46710  31.370  37.045   1.772
74985ION    CL-46711  19.971  40.990  12.838
74986ION    CL-46712  41.015  30.460   4.914
74987ION    CL-46713  36.174   4.950  14.931
74988ION    CL-46714  10.126  23.005  12.489
74989ION    CL-46715  22.940  21.811  14.985
74990ION    CL-46716  12.643   2.943   3.405
74991ION    CL-46717  16.593  27.350   4.177
74992ION    CL-46718   0.518  42.943  12.943
74993ION    CL-46719  20.168  20.532  12.994
74994ION    CL-46720  15.810   5.449   1.746
74995ION    CL-46721  22.001  22.133  12.009
74996ION    CL-46722  22.602  41.254  10.818
74997ION    CL-46723  17.289  39.269   4.200
74998ION    CL-46724   4.883  19.490  12.095
74999ION    CL-46725   7.434  20.490  11.078
75000ION    CL-46726  34.819  15.887   1.698
75001ION    CL-46727  15.635  21.126   1.320
75002ION    CL-46728   4.138  10.124   3.987
75003ION    CL-46729  22.289  32.392  14.569
75004ION    CL-46730  42.555   6.928   1.513
75005ION    CL-46731  31.497   9.494   2.640
75006ION    CL-46732  38.060  17.599  13.916
75007ION    CL-46733  13.786  42.817  14.360
75008ION    CL-46734  36.360  19.122   0.905
75009ION    CL-46735  21.231  11.207   1.477
75010ION    CL-46736  20.691  30.649  14.962
75011ION    CL-46737  26.850   3.907   1.774
75012ION    CL-46738   5.351  42.996  11.535
75013ION    CL-46739  43.936   2.931  12.925
75014ION    CL-46740  16.871  38.532   2.253
75015ION    CL-46741  41.571  28.474   0.979
75016ION    CL-46742   3.027  27.726   2.804
75017ION    CL-46743  26.774  27.686  13.596
75018ION    CL-46744  40.986  36.010  10.428
75019ION    CL-46745  29.595  41.499  11.441
75020ION    CL-46746  19.824  17.668  10.745
75021ION    CL-46747  25.486  44.856   0.528
75022ION    CL-46748  33.388  12.798   2.379
75023ION    CL-46749  27.073  33.637  13.401
75024ION    CL-46750  39.791  10.415   3.738
75025ION    CL-46751  20.485  34.054  13.889
75026ION    CL-46752   6.834   3.394  13.613
75027ION    CL-46753  34.616  16.705   3.298
75028ION    CL-46754  22.568   0.869   3.253
75029ION    CL-46755  33.058  14.915  14.480
75030ION    CL-46756  14.579   8.900  11.271
75031ION    CL-46757  29.166  25.879   4.158
75032ION    CL-46758   0.890   6.277   1.624
75033ION    CL-46759   2.005  42.486   3.345
75034ION    CL-46760  32.649  35.035  13.198
75035ION    CL-46761   1.008  32.488   0.159
75036ION    CL-46762   5.369  19.592  13.110
75037ION    CL-46763  39.852  41.951   0.820
75038ION    CL-46764  38.445   0.240  12.548
75039ION    CL-46765  32.162  18.540   1.530
75040ION    CL-46766  29.028  36.061   1.048
75041ION    CL-46767  23.362  32.424   0.415
75042ION    CL-46768  43.450   6.637  10.584
75043ION    CL-46769  24.589  20.676  12.352
75044ION    CL-46770  17.610   8.919  11.147
75045ION    CL-46771  39.554  12.799  13.315
75046ION    CL-46772  27.683  24.205   1.600
75047ION    CL-46773  18.094   9.648   4.090
75048ION    CL-46774   9.927  39.883   1.647
75049ION    CL-46775   6.718  44.021   4.214
75050ION    CL-46776   5.405  29.577   0.345
75051ION    CL-46777  19.942   1.065   4.025
75052ION    CL-46778   5.217   7.939  11.945
75053ION    CL-46779  41.287  28.519  13.892
75054ION    CL-46780  32.616   3.943   3.285
75055ION    CL-46781  40.866  29.619  14.222
75056ION    CL-46782   6.459  19.443  11.252
75057ION    CL-46783  37.455   0.296   1.130
75058ION    CL-46784  11.991  18.253  12.967
75059ION    CL-46785   9.844  11.297   3.307
75060ION    CL-46786  42.023  24.031   2.850
75061ION    CL-46787  19.738  20.214   4.963
75062ION    CL-46788   6.748  31.387  14.589
75063ION    CL-46789  24.122  15.204   2.675
75064ION    CL-46790  20.572  38.041   0.428
75065ION    CL-46791  10.404  19.676  12.416
75066ION    CL-46792  41.503  43.817   4.863
75067ION    CL-46793  25.750  12.940  12.036
75068ION    CL-46794  13.103   4.487  11.161
75069ION    CL-46795  12.742  32.864   0.507
75070ION    CL-46796  22.055  16.947  12.678
75071ION    CL-46797  11.631  20.545   0.734
75072ION    CL-46798  16.295   2.083   4.084
75073ION    CL-46799  11.835  14.761  13.054
75074ION    CL-46800  14.377  38.345   3.792
75075ION    CL-46801  38.211  44.817  11.194
75076ION    CL-46802  34.833  15.575   9.855
75077ION    CL-46803  28.609  44.227  12.034
75078ION    CL-46804  11.560  42.045  13.621
75079ION    CL-46805  25.735  11.883   0.995
75080ION    CL-46806   6.127  39.053  12.981
75081ION    CL-46807  11.734  36.023  13.218
75082ION    CL-46808  31.995   5.560  12.605
75083ION    CL-46809  20.980  34.461  11.739
75084ION    CL-46810  14.637  26.671   4.008
75085ION    CL-46811  25.270  21.521   0.335
75086ION    CL-46812  29.655   3.416   0.271
75087ION    CL-46813  30.863  37.183   9.852
75088ION    CL-46814   2.132  17.761   3.966
75089ION    CL-46815   4.181  43.720  11.949
75090ION    CL-46816  38.366  20.032   1.646
75091ION    CL-46817   9.169  29.230  11.180
75092ION    CL-46818  21.102   7.354  12.556
75093ION    CL-46819  38.453   2.386  14.031
75094ION    CL-46820  27.128  16.589   2.389
75095ION    CL-46821  28.089   1.497  12.039
75096ION    CL-46822   8.174  17.563   3.303
75097ION    CL-46823  16.485  17.336   3.393
75098ION    CL-46824  30.851  29.985   2.349
75099ION    CL-46825  34.992   1.797   0.282
75100ION    CL-46826  41.943  32.637   2.738
75101ION    CL-46827  35.390  11.514   3.261
75102ION    CL-46828  39.229  42.292   4.612
75103ION    CL-46829  22.533  24.795   0.998
75104ION    CL-46830  28.116   2.115  14.975
75105ION    CL-46831  21.839  33.896  11.602
75106ION    CL-46832  13.387  19.519  12.614
75107ION    CL-46833  36.941   2.559  14.463
75108ION    CL-46834  40.548  17.260  14.728
75109ION    CL-46835   4.448   6.879   1.262
75110ION    CL-46836  36.608  10.371  10.748
75111ION    CL-46837   9.014  21.360   3.737
75112ION    CL-46838   7.132  44.155  12.105
75113ION    CL-46839  20.512  25.471  14.045
75114ION    CL-46840  43.203  13.818   1.939
75115ION    CL-46841  36.034  11.809  14.337
75116ION    CL-46842  35.077   2.620   3.467
75117ION    CL-46843  32.959  41.851   2.686
75118ION    CL-46844   0.780   9.919   3.015
75119ION    CL-46845  11.476  34.024  14.133
75120ION    CL-46846  14.002  39.215   4.110
75121ION    CL-46847  11.413  25.198  14.051
75122ION    CL-46848  28.922  13.701   4.570
75123ION    CL-46849   3.533  44.250  11.636
75124ION    CL-46850  15.220   9.212  13.709
75125ION    CL-46851  36.235   6.104  12.891
75126ION    CL-46852  42.976  32.576   2.911
75127ION    CL-46853  33.639  33.487  13.780
75128ION    CL-46854   7.974   5.308   2.929
75129ION    CL-46855  13.514   7.866  12.784
75130ION    CL-46856   8.198  22.752  10.945
75131ION    CL-46857   8.062  23.159   3.345
75132ION    CL-46858  43.307  27.218  14.569
75133ION    CL-46859  42.055  34.591   2.449
75134ION    CL-46860  42.504   6.705  13.782
75135ION    CL-46861  37.132   2.475   2.886
75136ION    CL-46862  40.394  10.647   1.415
75137ION    CL-46863  16.866  28.197   3.566
75138ION    CL-46864  41.475  22.693  13.482
75139ION    CL-46865  20.903  24.697  12.839
75140ION    CL-46866  32.356  43.831   2.004
75141ION    CL-46867  42.727  24.486  14.509
75142ION    CL-46868  30.392  36.613  12.219
75143ION    CL-46869   3.907  30.088   0.183
75144ION    CL-46870  24.502   8.993   4.739
75145ION    CL-46871  38.427   7.904  14.996
75146ION    CL-46872  13.102  14.357  11.301
75147ION    CL-46873   5.499  40.548  10.939
75148ION    CL-46874  13.956  23.365   0.037
75149ION    CL-46875   3.726  38.360  14.552
75150ION    CL-46876  39.562  30.619  12.019
75151ION    CL-46877   9.773  33.152   3.250
75152ION    CL-46878  17.311  23.050  13.343
75153ION    CL-46879  41.791   2.502   4.261
75154ION    CL-46880  33.711   6.996   1.368
75155ION    CL-46881   6.419  41.266  11.407
75156ION    CL-46882  13.021  36.681  11.624
75157ION    CL-46883  34.645  20.161  11.006
75158ION    CL-46884  19.347   2.109  11.598
75159ION    CL-46885  29.077   5.855  10.186
75160ION    CL-46886  31.345  24.055   1.986
75161ION    CL-46887  36.064  22.683   1.256
75162ION    CL-46888   6.157  32.774   3.201
75163ION    CL-46889   1.377  14.315   1.177
75164ION    CL-46890  11.739  37.127   1.907
75165ION    CL-46891  20.237   5.622  12.505
75166ION    CL-46892  44.319  19.087   3.578
75167ION    CL-46893  25.663   0.477  12.238
75168ION    CL-46894   2.998  41.665   3.797
75169ION    CL-46895  11.034  27.389  12.887
75170ION    CL-46896   8.854  12.484  12.642
75171ION    CL-46897  36.965  20.727   1.831
75172ION    CL-46898   1.197  24.563   2.759
75173ION    CL-46899  21.162  12.137  10.986
75174ION    CL-46900  41.513  29.508   3.332
75175ION    CL-46901  29.661  13.884  11.586
75176ION    CL-46902  22.261  38.743  11.261
75177ION    CL-46903  39.329  39.023  13.490
75178ION    CL-46904   9.116  33.332   1.989
75179ION    CL-46905   4.151  32.541  13.304
75180ION    CL-46906   7.535  31.356   4.122
75181ION    CL-46907  21.169  14.857   9.949
75182ION    CL-46908  36.648   9.184   2.582
75183ION    CL-46909   2.071  42.839  10.616
75184ION    CL-46910  44.193  34.403   5.044
75185ION    CL-46911   7.239  22.004   2.701
75186ION    CL-46912  15.827  14.265   4.301
75187ION    CL-46913  12.049  27.428   3.764
75188ION    CL-46914  39.022  29.576  13.391
75189ION    CL-46915   5.430  18.221   3.668
75190ION    CL-46916  37.764  38.139  14.281
75191ION    CL-46917  15.379  24.701  10.336
75192ION    CL-46918   3.672   8.031   3.889
75193ION    CL-46919  32.053  10.150  11.041
75194ION    CL-46920  19.136  11.992   2.245
75195ION    CL-46921  43.771  36.454  11.005
75196ION    CL-46922  19.485  35.453  14.680
75197ION    CL-46923  18.963  29.371   2.144
75198ION    CL-46924  38.381  30.886  14.273
75199ION    CL-46925   0.970   4.687   1.344
75200ION    CL-46926  14.769  21.042   0.782
75201ION    CL-46927  32.128  31.767   5.105
75202ION    CL-46928   9.263  23.184   0.856
75203ION    CL-46929   1.933  29.535   3.354
75204ION    CL-46930  33.815  30.904   4.238
75205ION    CL-46931  39.171  13.110  14.198
75206ION    CL-46932  22.816   0.950  11.162
75207ION    CL-46933   2.179   4.991   3.731
75208ION    CL-46934  19.118  33.637   4.383
75209ION    CL-46935  27.679  17.299   2.828
75210ION    CL-46936  15.647  32.897   2.854
75211ION    CL-46937  44.895  44.908  10.930
75212ION    CL-46938   0.964  32.280   3.784
75213ION    CL-46939  31.948  13.818  11.051
75214ION    CL-46940  41.625   6.861  13.763
75215ION    CL-46941   5.832  11.004   3.915
75216ION    CL-46942   5.069  13.750  14.415
75217ION    CL-46943  16.611   5.599   3.738
75218ION    CL-46944  21.059  15.971  13.403
75219ION    CL-46945  11.462   5.455  14.453
75220ION    CL-46946  35.154  34.972  13.139
75221ION    CL-46947  22.142  39.486   2.653
75222ION    CL-46948  25.500  15.674  14.480
75223ION    CL-46949  30.506   2.223   1.170
75224ION    CL-46950  11.831  23.905  14.325
75225ION    CL-46951  13.577  11.439  13.140
75226ION    CL-46952  28.853  39.987   0.826
75227ION    CL-46953  31.260  32.934   3.230
75228ION    CL-46954  39.333  28.659  14.840
75229ION    CL-46955  39.545  27.769   4.598
75230ION    CL-46956  34.765  42.232  11.552
75231ION    CL-46957  39.680  15.625   3.528
75232ION    CL-46958  22.756  20.550   2.553
75233ION    CL-46959  27.907  33.645  14.286
75234ION    CL-46960   6.880  15.743  14.314
75235ION    CL-46961  17.788  16.301   1.762
75236ION    CL-46962   9.130  10.073   3.226
75237ION    CL-46963  32.890  43.367   3.325
75238ION    CL-46964  44.037  30.241   3.175
75239ION    CL-46965  37.006   6.204   2.243
75240ION    CL-46966  44.093  20.429  11.167
75241ION    CL-46967  19.486  35.111  12.923
75242ION    CL-46968  12.125   5.976  11.498
75243ION    CL-46969  37.523  35.146   0.952
75244ION    CL-46970   6.144   1.500  13.570
75245ION    CL-46971  13.407  15.741   3.177
75246ION    CL-46972  13.965  23.300   3.259
75247ION    CL-46973   1.973  39.384   4.271
75248ION    CL-46974  10.046  14.774   9.856
75249ION    CL-46975  12.399  41.583   1.592
75250ION    CL-46976  13.176  23.705  14.415
75251ION    CL-46977  20.008  42.512   3.635
75252ION    CL-46978  34.459  38.035   1.667
75253ION    CL-46979   5.727  42.139   1.692
75254ION    CL-46980  11.747  19.894  13.428
75255ION    CL-46981  39.868  34.035   3.147
75256ION    CL-46982  28.186  21.678  11.831
75257ION    CL-46983  26.320  35.300   3.040
75258ION    CL-46984  20.583  34.614   0.960
75259ION    CL-46985  16.967  21.306  14.763
75260ION    CL-46986  19.815   5.577  14.299
75261ION    CL-46987  16.506  13.258  13.267
75262ION    CL-46988  13.644  19.069   0.777
75263ION    CL-46989  41.268  28.090  12.040
75264ION    CL-46990  42.549  44.790   4.826
75265ION    CL-46991  24.586   5.607   0.843
75266ION    CL-46992   5.248   9.484  12.500
75267ION    CL-46993   0.590  23.912  14.432
75268ION    CL-46994  14.926   1.031  11.943
75269ION    CL-46995  28.787  30.781  12.112
75270ION    CL-46996  38.517  38.009  12.676
75271ION    CL-46997  44.772  30.734   1.143
75272ION    CL-46998  24.091  18.497  14.677
75273ION    CL-46999   4.828   1.349  13.773
75274ION    CL-47000  19.512  16.322  13.818
75275ION    CL-47001  19.980  32.319   3.015
75276ION    CL-47002  36.493  13.402  11.512
75277ION    CL-47003  21.420  18.788  13.692
75278ION    CL-47004   6.214  19.523   3.137
75279ION    CL-47005  10.905  20.151   5.014
75280ION    CL-47006  27.791  14.252  11.412
75281ION    CL-47007  38.474  39.755  12.021
75282ION    CL-47008   0.565  17.133  11.848
75283ION    CL-47009  26.632   8.570  10.333
75284ION    CL-47010  18.678   4.496  13.795
75285ION    CL-47011  12.668  34.520  10.756
75286ION    CL-47012  44.051  10.706   3.431
75287ION    CL-47013  16.720  25.365   4.464
75288ION    CL-47014  28.292  20.241  11.272
75289ION    CL-47015  20.820  31.113   2.353
75290ION    CL-47016   2.311  17.057   0.055
75291ION    CL-47017   7.274   0.046  11.674
75292ION    CL-47018  34.005  44.078   5.508
75293ION    CL-47019   3.849  33.790   4.504
75294ION    CL-47020  27.462  28.867  12.025
75295ION    CL-47021   0.791  38.046   4.982
75296ION    CL-47022  42.293   6.078   1.970
75297ION    CL-47023  35.601   6.767   2.790
75298ION    CL-47024  16.784  26.087  14.508
75299ION    CL-47025  43.840  44.374   2.426
75300ION    CL-47026  13.461   6.018  11.164
75301ION    CL-47027  19.146  26.643  11.431
75302ION    CL-47028  29.035  24.345  11.440
75303ION    CL-47029   4.135  32.135   0.902
75304ION    CL-47030   5.845   4.287   1.516
75305ION    CL-47031   9.595  27.518  13.447
75306ION    CL-47032  14.159  17.035   0.014
75307ION    CL-47033  24.680  26.497  11.875
75308ION    CL-47034  19.686  32.636  11.592
75309ION    CL-47035  28.858  34.640   2.149
75310ION    CL-47036  29.104  42.743  11.629
75311ION    CL-47037  33.868  28.753  11.416
75312ION    CL-47038   1.371  23.469  12.324
75313ION    CL-47039  22.521  10.318  11.535
75314ION    CL-47040  10.793  40.464  14.320
75315ION    CL-47041  12.322   1.699  10.898
75316ION    CL-47042  25.258  32.495   2.666
75317ION    CL-47043  10.683   4.542   4.478
75318ION    CL-47044  17.832  22.906   3.876
75319ION    CL-47045  37.575  17.562  12.076
75320ION    CL-47046   2.706  24.091  12.955
75321ION    CL-47047   7.043  26.709  11.273
75322ION    CL-47048   0.786  20.278  12.523
75323ION    CL-47049  38.656  31.922   5.023
75324ION    CL-47050   5.816  24.528  13.360
75325ION    CL-47051   7.160  44.790  13.812
75326ION    CL-47052  29.179  34.991  14.439
75327ION    CL-47053   5.335   5.330  10.166
75328ION    CL-47054   3.186  18.216   1.254
75329ION    CL-47055   3.624  27.299   4.421
75330ION    CL-47056   0.373  36.416  12.565
75331ION    CL-47057  38.124  43.522   0.810
75332ION    CL-47058  38.798   8.803  11.682
75333ION    CL-47059   2.343  38.131   1.747
75334ION    CL-47060   0.798  26.088   4.119
75335ION    CL-47061  17.796  35.203   1.424
75336ION    CL-47062  17.661  18.978   1.551
75337ION    CL-47063  10.565  33.929  14.124
75338ION    CL-47064  14.387   5.721  10.929
75339ION    CL-47065   5.882  37.597   4.125
75340ION    CL-47066  21.005   7.176   3.758
75341ION    CL-47067  32.336  16.699   4.585
75342ION    CL-47068  32.159  28.625  12.328
75343ION    CL-47069  23.582  33.838  12.069
75344ION    CL-47070   3.736  38.483   4.091
75345ION    CL-47071  12.090  15.195   0.981
75346ION    CL-47072  12.319   0.859   0.411
75347ION    CL-47073   7.209  39.132   3.775
75348ION    CL-47074   9.055  33.854  12.510
75349ION    CL-47075  14.458  24.735   2.987
75350ION    CL-47076  39.313  24.635  12.040
75351ION    CL-47077  13.099  35.318  10.662
75352ION    CL-47078  18.782  17.816   1.292
75353ION    CL-47079   6.072  18.422  11.980
75354ION    CL-47080  19.928  33.889  14.703
75355ION    CL-47081  20.032  18.715   0.540
75356ION    CL-47082  36.491   1.072   0.976
75357ION    CL-47083  31.437  25.112  12.605
75358ION    CL-47084   5.926  44.140  12.378
75359ION    CL-47085  30.414  25.856  10.741
75360ION    CL-47086  20.034  16.450  14.552
75361ION    CL-47087  13.450   3.917   3.345
75362ION    CL-47088  21.806   1.697   4.643
75363ION    CL-47089  12.058  28.888   2.317
75364ION    CL-47090   7.360  23.595   2.783
75365ION    CL-47091  10.871  19.355  14.683
75366ION    CL-47092  11.618   6.288   1.703
75367ION    CL-47093  13.735  30.186  13.005
75368ION    CL-47094  23.406  29.985  12.742
75369ION    CL-47095  37.488  32.025   2.226
75370ION    CL-47096  19.755  14.709   3.167
75371ION    CL-47097  30.204  33.865  12.781
75372ION    CL-47098  11.816   6.426  10.792
75373ION    CL-47099   5.902  11.939   2.264
75374ION    CL-47100  28.130   4.859   1.439
75375ION    CL-47101   5.818  23.922   3.441
75376ION    CL-47102   8.389   5.946  13.659
75377ION    CL-47103  16.631  19.302   1.922
75378ION    CL-47104  34.848  38.426  12.910
75379ION    CL-47105  26.997  11.409   4.187
75380ION    CL-47106  32.134  13.627  14.044
75381ION    CL-47107   2.278  11.869  11.017
75382ION    CL-47108  27.255  28.592   0.753
75383ION    CL-47109  33.390  16.300  13.377
75384ION    CL-47110  28.833   7.755  11.598
75385ION    CL-47111   6.149   3.974   0.256
75386ION    CL-47112  42.586  27.209   1.765
75387ION    CL-47113  22.138  28.570  14.808
75388ION    CL-47114  33.182  27.938   2.217
75389ION    CL-47115  26.761  31.996  13.792
75390ION    CL-47116  34.126  12.827   1.244
75391ION    CL-47117  31.171  30.484   3.251
75392ION    CL-47118  40.125   7.456   0.582
75393ION    CL-47119  39.971  22.217   1.575
75394ION    CL-47120  27.516   4.561   4.356
75395ION    CL-47121  28.318   8.098   1.654
75396ION    CL-47122  41.051  20.702   1.828
75397ION    CL-47123  31.579   5.785  14.803
75398ION    CL-47124  35.685  20.542  11.579
75399ION    CL-47125  39.376   9.684   3.430
75400ION    CL-47126   0.878   1.685  12.528
75401ION    CL-47127  18.537  24.997  12.979
75402ION    CL-47128  26.057  39.363  14.939
75403ION    CL-47129  41.867  30.879   3.052
75404ION    CL-47130  26.430  30.949  11.149
75405ION    CL-47131  41.703   6.772  12.735
75406ION    CL-47132  15.208   2.195   3.983
75407ION    CL-47133  40.303  26.277  12.685
75408ION    CL-47134  23.687  39.525   0.136
75409ION    CL-47135  26.666  42.510  12.124
75410ION    CL-47136  15.622   5.369  11.776
75411ION    CL-47137  29.213   7.372  14.606
75412ION    CL-47138  12.327  44.590   3.003
75413ION    CL-47139  21.936  11.795   2.163
75414ION    CL-47140  33.079  24.489  13.165
75415ION    CL-47141  44.830  29.807   1.514
75416ION    CL-47142  18.932  21.651  12.298
75417ION    CL-47143  21.363  42.896  11.533
75418ION    CL-47144  11.579   9.017  14.365
75419ION    CL-47145  13.117   3.153  11.627
75420ION    CL-47146  22.500  32.191   4.107
75421ION    CL-47147  25.113  37.466  11.607
75422ION    CL-47148   0.183  13.621   0.255
75423ION    CL-47149  16.815  39.506   1.339
75424ION    CL-47150   2.878  19.992   2.753
75425ION    CL-47151  22.919  25.613  13.750
75426ION    CL-47152  40.241  30.030  12.459
75427ION    CL-47153  16.613  17.272   4.515
75428ION    CL-47154  35.083  16.718   1.208
75429ION    CL-47155  13.763  43.827  11.226
75430ION    CL-47156  35.370  35.924   3.920
75431ION    CL-47157  44.491  16.615   3.784
75432ION    CL-47158   6.858  20.155   2.705
75433ION    CL-47159  21.242  40.323   0.448
75434ION    CL-47160  35.208  42.543   2.622
75435ION    CL-47161  31.487  44.502  14.226
75436ION    CL-47162  31.556  21.065  13.973
75437ION    CL-47163  13.057  23.247   1.611
75438ION    CL-47164  17.862  17.960   3.096
75439ION    CL-47165  11.922  35.017  11.436
75440ION    CL-47166  29.096  14.997   4.389
75441ION    CL-47167  31.046   3.031   1.536
75442ION    CL-47168  17.264  34.409   1.129
75443ION    CL-47169  10.396  12.683  12.003
75444ION    CL-47170   1.541  23.510  14.325
75445ION    CL-47171   2.047  19.752  12.715
75446ION    CL-47172  31.413   4.081   0.242
75447ION    CL-47173  28.902  29.515  14.141
75448ION    CL-47174  25.249  26.626   5.094
75449ION    CL-47175  32.278   9.424  11.852
75450ION    CL-47176  16.645  16.984  10.243
75451ION    CL-47177  39.251  22.471   1.104
75452ION    CL-47178  22.733  37.826  10.599
75453ION    CL-47179   3.293  36.455  13.086
75454ION    CL-47180   0.186  39.036   1.742
75455ION    CL-47181  16.598   2.692  11.232
75456ION    CL-47182  34.040   0.441   3.556
75457ION    CL-47183  41.876  11.888  11.516
75458ION    CL-47184  37.346   5.803   1.326
75459ION    CL-47185  41.358  39.450  12.332
75460ION    CL-47186  24.768   7.466  13.849
75461ION    CL-47187  25.467  31.415  13.198
75462ION    CL-47188  30.341  34.933  10.060
75463ION    CL-47189  37.374  41.765   0.024
75464ION    CL-47190  35.711  41.681  13.118
75465ION    CL-47191  20.369  18.652   1.479
75466ION    CL-47192  38.379   4.169   2.760
75467ION    CL-47193  30.494  27.437  11.791
75468ION    CL-47194  13.136  37.115  13.439
75469ION    CL-47195  17.108  19.515   0.788
75470ION    CL-47196   7.759   4.682   3.557
75471ION    CL-47197  16.741   7.153   2.755
75472ION    CL-47198   0.261  43.406   4.967
75473ION    CL-47199  34.407   4.531   0.790
75474ION    CL-47200  10.301   2.993  11.908
75475ION    CL-47201  30.665  43.324  12.433
75476ION    CL-47202  25.319  21.406   2.854
75477ION    CL-47203  32.051  27.320   0.900
75478ION    CL-47204  41.068   6.143   0.415
75479ION    CL-47205  30.362  29.461  14.009
75480ION    CL-47206  21.666  44.849  13.089
75481ION    CL-47207   9.002  42.662  13.073
75482ION    CL-47208  27.455   1.820   1.508
75483ION    CL-47209  40.563  41.053  11.837
75484ION    CL-47210  16.511  14.431  12.067
75485ION    CL-47211  26.488  31.004  14.900
75486ION    CL-47212  13.201  44.712  12.068
75487ION    CL-47213  25.822  27.401  13.830
75488ION    CL-47214  39.683   0.775   1.596
75489ION    CL-47215  30.632  44.473   3.420
75490ION    CL-47216  37.440   1.385  11.498
75491ION    CL-47217  13.206  12.141   0.244
75492ION    CL-47218  17.830  44.660   4.872
75493ION    CL-47219  13.676  16.519   3.745
75494ION    CL-47220  41.055  33.893  11.796
75495ION    CL-47221  34.635  41.260   3.561
75496ION    CL-47222   8.914  40.973   0.143
75497ION    CL-47223   7.185   0.846  10.989
75498ION    CL-47224   8.040   4.961  10.531
75499ION    CL-47225  35.673  36.805   1.495
75500ION    CL-47226   0.233  38.248   2.372
75501ION    CL-47227  22.733   3.243  13.057
75502ION    CL-47228  35.660   8.618   1.563
75503ION    CL-47229  33.067   7.559   0.792
75504ION    CL-47230  36.135   9.085  12.008
75505ION    CL-47231  14.866  20.748   3.342
75506ION    CL-47232  20.249  23.520  13.426
75507ION    CL-47233  17.264  26.644  11.620
75508ION    CL-47234  30.151  15.103   0.157
75509ION    CL-47235   0.966  32.744   3.015
75510ION    CL-47236  29.379  33.836   4.361
75511ION    CL-47237  37.969   9.947  12.475
75512ION    CL-47238   6.106  37.654  10.748
75513ION    CL-47239  39.073   6.291   0.174
75514ION    CL-47240  24.705  33.541   3.806
75515ION    CL-47241  43.294  14.573  12.878
75516ION    CL-47242  21.267  23.096   3.110
75517ION    CL-47243  31.916  15.756  12.202
75518ION    CL-47244  30.891  21.115   9.593
75519ION    CL-47245  30.564  15.758  12.696
75520ION    CL-47246  41.931  23.960  11.929
75521ION    CL-47247   4.849  33.092  13.223
75522ION    CL-47248  19.854  25.501   0.766
75523ION    CL-47249  18.623  12.790  12.971
75524ION    CL-47250  32.987  26.436  11.127
75525ION    CL-47251  11.273  22.214   2.351
75526ION    CL-47252  33.911  32.660   3.621
75527ION    CL-47253  30.537  26.399   2.857
75528ION    CL-47254   7.617   0.573   2.653
75529ION    CL-47255  36.833  41.197  11.173
75530ION    CL-47256  11.064  37.713  11.597
75531ION    CL-47257  24.713  20.098   0.238
75532ION    CL-47258  39.000  30.364   2.924
75533ION    CL-47259  40.909  17.178   3.955
75534ION    CL-47260   7.874   7.328  10.804
75535ION    CL-47261  35.110  16.533   2.403
75536ION    CL-47262   6.742   1.409   3.160
75537ION    CL-47263  22.927  39.178  10.968
75538ION    CL-47264  18.126  44.404   2.832
75539ION    CL-47265  27.354  13.418  13.571
75540ION    CL-47266  15.635   1.256   3.947
75541ION    CL-47267  35.047   4.111  12.803
75542ION    CL-47268  27.542  34.939   1.986
75543ION    CL-47269   5.255   8.028   0.051
75544ION    CL-47270  36.182   3.906  10.240
75545ION    CL-47271  16.187   8.319  12.711
75546ION    CL-47272  29.660  20.517   1.783
75547ION    CL-47273  15.218  15.577  12.809
75548ION    CL-47274  36.640  42.533  14.320
75549ION    CL-47275  27.019  23.240   0.635
75550ION    CL-47276  15.928   2.472  13.257
75551ION    CL-47277   5.660  39.959  12.976
75552ION    CL-47278  16.781  16.621   4.026
75553ION    CL-47279  20.654  14.961  11.086
75554ION    CL-47280  10.312  30.747   3.619
75555ION    CL-47281  20.700   8.692   0.920
75556ION    CL-47282  22.998  20.977  14.270
75557ION    CL-47283  16.068  42.892   3.770
75558ION    CL-47284  32.447  11.796  14.425
75559ION    CL-47285   1.190  36.172  13.087
75560ION    CL-47286  26.072   4.213  12.566
75561ION    CL-47287  38.176   3.568   4.044
75562ION    CL-47288  19.531   4.200   5.060
75563ION    CL-47289  23.211  17.915   3.517
75564ION    CL-47290   1.807  38.329  12.642
75565ION    CL-47291  29.513  32.420  13.987
75566ION    CL-47292  30.705  26.114  13.290
75567ION    CL-47293  20.267  22.431  12.900
75568ION    CL-47294  37.589  40.381   1.226
75569ION    CL-47295  14.029   4.722   2.181
75570ION    CL-47296  11.690  13.088   1.632
75571ION    CL-47297  19.803  11.755  12.144
75572ION    CL-47298  14.945   3.215   1.774
75573ION    CL-47299  14.589  29.978   2.182
75574ION    CL-47300   9.910  15.639  13.002
75575ION    CL-47301  35.259  18.219  11.623
75576ION    CL-47302  14.510  43.670   3.994
75577ION    CL-47303  37.652  24.793   5.142
75578ION    CL-47304   8.629  37.423   0.841
75579ION    CL-47305  23.833  27.967  10.339
75580ION    CL-47306   6.649  16.762   2.951
75581ION    CL-47307   9.616  33.507   0.715
75582ION    CL-47308   3.434  44.948  10.875
75583ION    CL-47309   8.112  20.931   3.684
75584ION    CL-47310  39.151  15.164   1.705
75585ION    CL-47311  29.630  19.497   4.842
75586ION    CL-47312  41.217  23.988  13.986
75587ION    CL-47313  12.824   6.181   2.070
75588ION    CL-47314  23.727  34.749  11.600
75589ION    CL-47315   6.722  14.370   0.969
75590ION    CL-47316  31.093  34.230  12.347
75591ION    CL-47317  30.123  30.215   4.143
75592ION    CL-47318   4.604   4.882  14.632
75593ION    CL-47319  35.921  27.962  11.488
75594ION    CL-47320  22.955  23.510   3.740
75595ION    CL-47321  24.695  23.348  13.563
75596ION    CL-47322  11.118  28.466   2.277
75597ION    CL-47323  26.236   6.859  14.136
75598ION    CL-47324  27.699  37.258   1.772
75599ION    CL-47325  40.315  35.074  12.785
75600ION    CL-47326  10.287  40.214  10.666
75601ION    CL-47327  20.467  22.464   2.276
75602ION    CL-47328   0.462  19.016   0.923
75603ION    CL-47329  19.713  22.376   0.972
75604ION    CL-47330   4.639  22.559   2.116
75605ION    CL-47331  22.547  27.944   3.974
75606ION    CL-47332   7.186  10.888  11.963
75607ION    CL-47333  34.213  36.552   2.781
75608ION    CL-47334  37.930  36.176  13.761
75609ION    CL-47335   1.924  25.597   4.330
75610ION    CL-47336  34.445  37.585   3.881
75611ION    CL-47337   4.757  12.635  13.931
75612ION    CL-47338   8.373  37.640  10.954
75613ION    CL-47339  22.212  28.449   1.919
75614ION    CL-47340  12.135  30.588  10.491
75615ION    CL-47341  26.101   4.899   0.437
75616ION    CL-47342   0.980  39.598  14.039
75617ION    CL-47343  13.031   9.607   0.101
75618ION    CL-47344  19.498  36.319   3.725
75619ION    CL-47345  29.903  36.527   0.800
75620ION    CL-47346  25.833  10.934  14.091
75621ION    CL-47347  17.895  39.931   4.641
75622ION    CL-47348  15.504  41.837   0.153
75623ION    CL-47349   5.981  24.085  12.242
75624ION    CL-47350  34.032  28.149   2.080
75625ION    CL-47351  35.175  43.633  14.991
75626ION    CL-47352  30.802  26.733   0.510
75627ION    CL-47353  22.316  17.780  11.078
75628ION    CL-47354  38.054  26.376   2.332
75629ION    CL-47355  26.394  44.951   0.937
75630ION    CL-47356   7.839  11.214  13.018
75631ION    CL-47357  30.482  24.762   1.871
75632ION    CL-47358   3.482  33.493   2.424
75633ION    CL-47359  40.802  30.546   0.096
75634ION    CL-47360  28.446  16.178  12.512
75635ION    CL-47361  24.947  25.689   5.264
75636ION    CL-47362  42.450  21.032   2.681
75637ION    CL-47363   6.346   3.267  14.577
75638ION    CL-47364   0.794  14.096   9.676
75639ION    CL-47365  44.028  18.797   0.134
75640ION    CL-47366   6.311  44.575  11.718
75641ION    CL-47367  36.970  16.810   3.216
75642ION    CL-47368   5.968  10.006   4.292
75643ION    CL-47369  28.207  11.948   4.210
75644ION    CL-47370  12.794  32.463  11.719
75645ION    CL-47371  22.106  32.692   4.988
75646ION    CL-47372  16.823  29.174  11.470
75647ION    CL-47373  26.414   8.673   2.409
75648ION    CL-47374  25.065  21.660  10.679
75649ION    CL-47375  41.609  16.685   2.918
75650ION    CL-47376  39.138  13.834  11.003
75651ION    CL-47377  37.624  33.908   2.770
75652ION    CL-47378   9.878  31.842   0.851
75653ION    CL-47379   3.419  15.588  11.572
75654ION    CL-47380  15.851   4.154   0.323
75655ION    CL-47381  10.676   4.927  12.870
75656ION    CL-47382  22.640   2.187  12.254
75657ION    CL-47383  44.121  14.186   4.177
75658ION    CL-47384  30.826  13.569   2.035
75659ION    CL-47385  37.369  40.859  12.638
75660ION    CL-47386  20.179   6.507  14.253
75661ION    CL-47387   2.799  17.079   2.545
75662ION    CL-47388  11.312  42.869   3.401
75663ION    CL-47389   9.643  33.203  12.494
75664ION    CL-47390  17.885   7.839  14.050
75665ION    CL-47391   6.102  20.359  11.071
75666ION    CL-47392   0.306   7.864   4.124
75667ION    CL-47393  11.685   6.315   4.973
75668ION    CL-47394  36.527  25.796   2.734
75669ION    CL-47395  19.765   8.467   4.111
75670ION    CL-47396   6.724  13.868  14.330
75671ION    CL-47397  16.286  19.845  11.518
75672ION    CL-47398  43.155  21.646   0.714
75673ION    CL-47399  42.362  23.946   0.483
75674ION    CL-47400  20.602   2.192   4.939
75675ION    CL-47401  17.459   2.812  13.317
75676ION    CL-47402  37.012  29.504   3.638
75677ION    CL-47403  21.538  35.649   2.873
75678ION    CL-47404  16.738  32.193   3.344
75679ION    CL-47405  32.139  16.889   3.503
75680ION    CL-47406  42.241  29.099  12.081
75681ION    CL-47407  31.140  40.351  10.880
75682ION    CL-47408  41.200  24.707   2.866
75683ION    CL-47409   2.254  19.791  11.836
75684ION    CL-47410  32.710  33.128  13.191
75685ION    CL-47411  34.208  36.911  14.822
75686ION    CL-47412  34.466   0.686   1.321
75687ION    CL-47413   2.405  37.347  10.910
75688ION    CL-47414   9.739  13.706  10.202
75689ION    CL-47415  38.785   3.797  13.858
75690ION    CL-47416  43.407  28.141  14.940
75691ION    CL-47417  35.624  28.172   5.155
75692ION    CL-47418   2.784  11.283   2.664
75693ION    CL-47419  10.180  39.978  13.855
75694ION    CL-47420  40.171  33.820  11.332
75695ION    CL-47421  27.454  44.276  14.218
75696ION    CL-47422  41.886  29.399  13.712
75697ION    CL-47423  30.776  17.057  13.912
75698ION    CL-47424  26.746  42.514   1.956
75699ION    CL-47425  41.735  31.361  13.002
75700ION    CL-47426   4.565  10.195   3.084
75701ION    CL-47427  16.570  41.562   3.347
75702ION    CL-47428  28.096   0.305  10.097
75703ION    CL-47429  10.645  37.027  14.956
75704ION    CL-47430  32.951  15.916  12.439
75705ION    CL-47431  24.401  39.708   2.758
75706ION    CL-47432  17.249  37.936   3.234
75707ION    CL-47433  29.588  30.653   1.707
75708ION    CL-47434  13.065  18.514  10.471
75709ION    CL-47435   4.240  15.606  14.357
75710ION    CL-47436  27.672  28.758  13.648
75711ION    CL-47437  20.619  34.938  13.760
75712ION    CL-47438   2.118  24.768   0.870
75713ION    CL-47439  38.357  28.759  13.726
75714ION    CL-47440   7.003  13.644   1.441
75715ION    CL-47441  20.330  34.576  14.975
75716ION    CL-47442   1.399  17.684  11.850
75717ION    CL-47443   4.822  22.915  13.491
75718ION    CL-47444  31.041  29.452  13.275
75719ION    CL-47445  14.326  35.829   0.692
75720ION    CL-47446   7.432   7.216   0.781
75721ION    CL-47447  24.590  20.990   0.841
75722ION    CL-47448  24.703   7.502   3.306
75723ION    CL-47449  42.333  22.351  14.985
75724ION    CL-47450  19.271  16.390   2.574
75725ION    CL-47451  20.025  32.694  13.660
75726ION    CL-47452  30.371   3.489   2.756
75727ION    CL-47453  25.741  16.777   1.967
75728ION    CL-47454   9.887   7.943  10.134
75729ION    CL-47455  17.785  23.305   3.063
75730ION    CL-47456  28.164   6.549   0.864
75731ION    CL-47457  16.600  23.819  10.343
75732ION    CL-47458  12.606   7.489   1.743
75733ION    CL-47459  20.203  41.637   3.577
75734ION    CL-47460  32.959  27.873  13.495
75735ION    CL-47461  34.203  20.370   3.386
75736ION    CL-47462  31.364   4.786  11.148
75737ION    CL-47463  37.979  33.901  14.795
75738ION    CL-47464  38.314  17.302   3.318
75739ION    CL-47465  21.731  41.132   0.774
75740ION    CL-47466  25.194  43.177   1.987
75741ION    CL-47467  20.824  17.033   0.764
75742ION    CL-47468  37.485  32.172  14.234
75743ION    CL-47469   1.008  30.278  14.870
75744ION    CL-47470   2.889  20.524   0.267
75745ION    CL-47471  31.892  22.064  13.360
75746ION    CL-47472   1.161  29.784  14.015
75747ION    CL-47473  32.022  41.891   0.648
75748ION    CL-47474  16.073  40.493  11.099
75749ION    CL-47475   5.976  41.082   0.509
75750ION    CL-47476  30.673   1.245  13.086
75751ION    CL-47477  32.046   5.594  10.428
75752ION    CL-47478  15.258  13.381  11.144
75753ION    CL-47479  17.193  21.289   3.316
75754ION    CL-47480  20.181  43.541  12.401
75755ION    CL-47481  23.298  43.612  11.350
75756ION    CL-47482  33.889  27.247  13.973
75757ION    CL-47483   5.891   1.954  11.007
75758ION    CL-47484  31.123  40.558  12.500
75759ION    CL-47485  16.806  22.315  11.136
75760ION    CL-47486  18.837  35.978  12.560
75761ION    CL-47487  29.648   6.689  12.104
75762ION    CL-47488  39.991  42.296  14.523
75763ION    CL-47489  38.404   1.512  13.064
75764ION    CL-47490  30.926  44.500  10.558
75765ION    CL-47491   0.268  36.170   4.168
75766ION    CL-47492  17.312   9.225   0.857
75767ION    CL-47493   2.620  17.210  10.816
75768ION    CL-47494   0.478  31.956   1.304
75769ION    CL-47495   4.604  34.698  12.944
75770ION    CL-47496  41.590  42.015  14.142
75771ION    CL-47497  18.623  38.981  13.500
75772ION    CL-47498   4.247  43.888   1.841
75773ION    CL-47499   3.426  18.712  13.570
75774ION    CL-47500  27.985  26.016   3.707
75775ION    CL-47501  19.223  19.235  12.051
75776ION    CL-47502  39.330  21.157   4.959
75777ION    CL-47503  41.505  41.876  11.173
75778ION    CL-47504   8.660   6.936   0.879
75779ION    CL-47505  13.197  10.995   3.249
75780ION    CL-47506   8.297  28.559  11.687
75781ION    CL-47507  23.448  15.356  11.499
75782ION    CL-47508  13.144  22.942   3.198
75783ION    CL-47509  39.667   7.249   2.106
75784ION    CL-47510  11.081  18.043   4.305
75785ION    CL-47511  39.271  32.500  10.776
75786ION    CL-47512  12.908  14.834   3.561
75787ION    CL-47513  20.977  23.717  14.083
75788ION    CL-47514  40.867  10.619  10.586
75789ION    CL-47515   3.812  33.919  14.407
75790ION    CL-47516  31.177  12.408  10.727
75791ION    CL-47517  36.956   9.477  12.919
75792ION    CL-47518  38.832   8.930   2.633
75793ION    CL-47519  23.158  29.966   4.545
75794ION    CL-47520   8.869  11.811  11.024
75795ION    CL-47521  30.218  15.039   2.744
75796ION    CL-47522  13.075  10.022   3.049
75797ION    CL-47523  43.279  25.251   5.122
75798ION    CL-47524  11.205  32.896  12.612
75799ION    CL-47525  12.510  27.638  12.377
75800ION    CL-47526  13.690   5.331   1.338
75801ION    CL-47527  44.484  29.503   0.626
75802ION    CL-47528  42.337  26.028  14.766
75803ION    CL-47529  12.096  26.665   2.341
75804ION    CL-47530  17.318   2.701   0.344
75805ION    CL-47531  22.295   4.615   0.700
75806ION    CL-47532  13.361  34.304   1.140
75807ION    CL-47533   7.828  21.551  11.519
75808ION    CL-47534   3.468  26.552   2.362
75809ION    CL-47535   2.584  28.152  14.372
75810ION    CL-47536   5.976  13.311  11.084
75811ION    CL-47537  11.381  24.133   2.548
75812ION    CL-47538  30.334  34.981  11.270
75813ION    CL-47539  44.000   8.074  12.563
75814ION    CL-47540  30.901   0.534   4.080
75815ION    CL-47541  38.722   0.818   1.227
75816ION    CL-47542  21.222   4.293  14.299
75817ION    CL-47543  13.016  21.528   3.261
75818ION    CL-47544  14.477   6.826   1.830
75819ION    CL-47545  24.581  10.536  13.505
75820ION    CL-47546  44.143  21.729  10.512
75821ION    CL-47547  23.651   8.605   2.770
75822ION    CL-47548  21.518   0.887   3.526
75823ION    CL-47549  26.428  25.612  14.059
75824ION    CL-47550  29.117  40.868   1.463
75825ION    CL-47551  24.047   8.460   0.928
75826ION    CL-47552  19.133   0.093  10.305
75827ION    CL-47553  26.166   1.843   2.349
75828ION    CL-47554  42.412  42.533   1.917
75829ION    CL-47555   1.399  18.354   2.451
75830ION    CL-47556  30.541  18.141   1.519
75831ION    CL-47557  10.466  42.616   3.262
75832ION    CL-47558  34.579  28.065  10.485
75833ION    CL-47559  20.949  36.708   2.388
75834ION    CL-47560  30.008   1.840  14.076
75835ION    CL-47561  18.274  23.290  14.751
75836ION    CL-47562  18.681  10.304   1.213
75837ION    CL-47563   2.958  33.412  14.524
75838ION    CL-47564  26.735  13.830   2.131
75839ION    CL-47565  37.244  10.500   0.307
75840ION    CL-47566   7.461  41.909   3.646
75841ION    CL-47567  22.632  18.805  12.567
75842ION    CL-47568  16.865   4.499   0.339
75843ION    CL-47569   0.680  44.250   0.167
75844ION    CL-47570  10.105  13.334   0.795
75845ION    CL-47571  39.082  26.557  11.671
75846ION    CL-47572  15.597   3.251  14.975
75847ION    CL-47573   5.059  27.941   0.409
75848ION    CL-47574   0.263  25.469  14.568
75849ION    CL-47575  19.062  38.479   2.306
75850ION    CL-47576  43.067  18.723  14.460
75851ION    CL-47577  16.764  13.183   0.919
75852ION    CL-47578  30.729  15.330   5.100
75853ION    CL-47579   8.347  42.767   3.240
75854ION    CL-47580  28.843  28.391  13.536
75855ION    CL-47581  29.197  19.894  11.025
75856ION    CL-47582  37.039   4.855   2.817
75857ION    CL-47583   9.690   4.874   1.273
75858ION    CL-47584  16.091  37.032   4.821
75859ION    CL-47585  19.174  25.542  13.904
75860ION    CL-47586  42.779  17.301  11.888
75861ION    CL-47587  24.530   0.459  10.282
75862ION    CL-47588   1.409  25.582   1.524
75863ION    CL-47589  36.424  14.814   0.324
75864ION    CL-47590  44.898  42.288   1.058
75865ION    CL-47591  29.891  16.894  13.360
75866ION    CL-47592  25.009  28.032  13.825
75867ION    CL-47593  32.951  33.074  11.102
75868ION    CL-47594  21.700  19.365  11.526
75869ION    CL-47595  24.839  13.808   3.705
75870ION    CL-47596  21.010  42.876   2.863
75871ION    CL-47597  21.157  44.720   3.470
75872ION    CL-47598  27.779  34.486   3.221
75873ION    CL-47599  31.868   7.161   3.275
75874ION    CL-47600   8.924  13.702  12.145
75875ION    CL-47601  32.201  35.821  11.434
75876ION    CL-47602  32.060  28.630   5.244
75877ION    CL-47603  42.101  27.208   4.257
75878ION    CL-47604  41.800  31.763   3.212
75879ION    CL-47605  21.815  11.878   9.747
75880ION    CL-47606  25.845  38.107   1.159
75881ION    CL-47607  37.389   3.713   4.569
75882ION    CL-47608  35.238  38.766  12.040
75883ION    CL-47609  25.822  16.691  11.041
75884ION    CL-47610  11.932  23.022  11.856
75885ION    CL-47611  24.593  26.336   9.882
75886ION    CL-47612  38.444  18.405   4.225
75887ION    CL-47613   0.071  31.847   3.908
75888ION    CL-47614  44.694  17.796   2.287
75889ION    CL-47615  17.702  16.688  12.566
75890ION    CL-47616   2.783  20.233   1.381
75891ION    CL-47617   5.314  16.917  10.103
75892ION    CL-47618   9.829  15.042   0.435
75893ION    CL-47619   4.241  11.166   1.528
75894ION    CL-47620  44.702   4.725  14.343
75895ION    CL-47621  41.920  32.466  14.292
75896ION    CL-47622   3.172  24.956  12.282
75897ION    CL-47623   1.856  15.583  13.465
75898ION    CL-47624  26.788   3.072   2.769
75899ION    CL-47625  24.423  26.195   2.138
75900ION    CL-47626  32.221  30.701   4.952
75901ION    CL-47627  37.814  19.760   5.114
75902ION    CL-47628  28.509  39.383  13.788
75903ION    CL-47629  44.324  39.073   1.236
75904ION    CL-47630  32.923  44.058   4.547
75905ION    CL-47631  31.152  21.505   0.021
75906ION    CL-47632  42.770  33.502   3.229
75907ION    CL-47633  32.832  32.369  14.420
75908ION    CL-47634  17.356   5.311  11.632
75909ION    CL-47635  11.122  35.670   4.963
75910ION    CL-47636   4.438  20.321  11.535
75911ION    CL-47637  33.550  37.120  13.462
75912ION    CL-47638  40.299  18.807  11.995
75913ION    CL-47639  23.714  20.671  14.897
75914ION    CL-47640  39.805   7.443   3.634
75915ION    CL-47641  14.784  42.488  10.668
75916ION    CL-47642  44.344   3.930  14.833
75917ION    CL-47643  26.729  14.199   1.201
75918ION    CL-47644  33.173  38.899   3.044
75919ION    CL-47645  32.340  33.083  14.624
75920ION    CL-47646  18.360   8.185   4.120
75921ION    CL-47647  29.382  27.918   9.856
75922ION    CL-47648  12.218  17.687   2.450
75923ION    CL-47649  11.677  19.184   1.852
75924ION    CL-47650   7.364   2.638  13.166
75925ION    CL-47651  22.618  33.510  11.103
75926ION    CL-47652  41.275  30.167  12.431
75927ION    CL-47653   5.427  29.375   3.281
75928ION    CL-47654   5.172  30.460  14.439
75929ION    CL-47655   0.979   5.141   3.190
75930ION    CL-47656  32.166  26.203   5.453
75931ION    CL-47657   1.467   8.432   1.500
75932ION    CL-47658  20.238  14.795  10.310
75933ION    CL-47659  27.545  24.849   4.689
75934ION    CL-47660   9.922  30.883   2.177
75935ION    CL-47661  37.020  34.754  12.285
75936ION    CL-47662  39.809  31.553  14.178
75937ION    CL-47663  36.048  18.573   4.725
75938ION    CL-47664  12.568  44.741   3.961
75939ION    CL-47665  24.677   2.394  11.536
75940ION    CL-47666  11.978  25.930   1.505
75941ION    CL-47667  23.646  30.452   2.249
75942ION    CL-47668  35.084  38.111  14.355
75943ION    CL-47669  24.832   2.285  10.554
75944ION    CL-47670  34.296  34.747  13.137
75945ION    CL-47671  24.285  41.727   4.153
75946ION    CL-47672  40.120  25.297  11.829
75947ION    CL-47673  29.725   1.147  12.786
75948ION    CL-47674  43.912  29.409  14.474
75949ION    CL-47675  33.078   2.181   4.065
75950ION    CL-47676   8.983  22.388   1.445
75951ION    CL-47677   0.700  33.486  14.348
75952ION    CL-47678  36.110  24.655   2.726
75953ION    CL-47679   1.995   0.142   4.210
75954ION    CL-47680   7.188   5.673   0.852
75955ION    CL-47681  19.431   1.269  11.899
75956ION    CL-47682  38.738  15.828  14.337
75957ION    CL-47683  31.549   0.624   4.732
75958ION    CL-47684  21.132  30.173  13.635
75959ION    CL-47685  24.986   6.940  11.613
75960ION    CL-47686  42.936  36.568   5.078
75961ION    CL-47687   2.346  32.570   1.306
75962ION    CL-47688  13.649  36.240  13.454
75963ION    CL-47689  43.812  42.140  11.438
75964ION    CL-47690   1.011  16.853  13.241
75965ION    CL-47691   0.149  17.887  12.014
75966ION    CL-47692  28.569   3.615  12.599
75967ION    CL-47693  14.176  41.115  14.002
75968ION    CL-47694  24.731  40.224  14.991
75969ION    CL-47695  42.688  35.968   2.888
75970ION    CL-47696  20.292  33.116   2.305
75971ION    CL-47697  43.707  40.938   1.749
75972ION    CL-47698  25.509  41.409   3.193
75973ION    CL-47699   8.623  31.078   5.199
75974ION    CL-47700  12.101  43.287   1.857
75975ION    CL-47701   1.279   3.923  12.013
75976ION    CL-47702  26.635  28.439   2.636
75977ION    CL-47703  14.350  14.655   2.726
75978ION    CL-47704  41.174  44.683   1.706
75979ION    CL-47705  13.290  35.349   2.427
75980ION    CL-47706   1.792  32.822  14.636
75981ION    CL-47707  36.335   5.910   4.798
75982ION    CL-47708  11.090  38.233   1.463
75983ION    CL-47709  22.035   8.763   3.945
75984ION    CL-47710  10.139  43.387  10.586
75985ION    CL-47711  15.724  18.792   1.683
75986ION    CL-47712   4.964  21.048   2.294
75987ION    CL-47713  41.898  25.889   0.654
75988ION    CL-47714  35.086  38.405  10.805
75989ION    CL-47715   3.940  25.142   1.958
75990ION    CL-47716  44.455  34.385  13.061
75991ION    CL-47717  19.801  34.174   1.042
75992ION    CL-47718  28.472  37.571  12.698
75993ION    CL-47719  31.633  22.492  12.104
75994ION    CL-47720  39.092  17.134  14.423
75995ION    CL-47721  36.416   2.412   9.973
75996ION    CL-47722  34.198  16.354   0.312
75997ION    CL-47723  43.278  28.405  11.572
75998ION    CL-47724   4.795   0.491  14.384
75999ION    CL-47725  18.239   0.263  12.648
76000ION    CL-47726  34.733  44.060   0.973
76001ION    CL-47727   5.304  10.833  11.835
76002ION    CL-47728  42.121  25.052   2.486
76003ION    CL-47729  28.280  18.484   3.110
76004ION    CL-47730  17.369  29.928   1.084
76005ION    CL-47731  13.962   0.635   2.847
76006ION    CL-47732  44.782  17.339  11.542
76007ION    CL-47733  27.828  21.406   3.210
76008ION    CL-47734  32.696   6.534   0.850
76009ION    CL-47735   3.804  28.416  10.349
76010ION    CL-47736   4.009  25.089  10.345
76011ION    CL-47737  20.572  31.993  10.691
76012ION    CL-47738  33.113  42.131  12.623
76013ION    CL-47739  34.597  32.844  10.620
76014ION    CL-47740   5.410  16.379  14.423
76015ION    CL-47741  18.203  43.650  14.109
76016ION    CL-47742   9.317  19.584   2.058
76017ION    CL-47743  37.272  14.950  13.723
76018ION    CL-47744  33.741  15.446  11.670
76019ION    CL-47745  14.751  35.176  11.951
76020ION    CL-47746  35.430  27.209   0.508
76021ION    CL-47747  31.686  41.255   2.792
76022ION    CL-47748  21.172   9.172  12.175
76023ION    CL-47749  14.875  32.323  12.056
76024ION    CL-47750  32.622  40.621  14.665
76025ION    CL-47751   7.389  34.401   2.899
76026ION    CL-47752  17.058  28.899   1.243
76027ION    CL-47753  12.789  10.133  14.412
76028ION    CL-47754  18.682  39.566  14.345
76029ION    CL-47755   7.196  25.729  11.146
76030ION    CL-47756  26.509  14.810  11.253
76031ION    CL-47757   8.738  23.781  13.405
76032ION    CL-47758  34.046  38.580   4.562
76033ION    CL-47759  29.191  32.137   0.780
76034ION    CL-47760  24.503  32.411  11.611
76035ION    CL-47761   0.814  29.532  12.281
76036ION    CL-47762  40.590   8.198   4.315
76037ION    CL-47763  20.006  28.940  13.858
76038ION    CL-47764  41.150  43.765   1.714
76039ION    CL-47765   7.453  35.095  14.361
76040ION    CL-47766  28.633  28.199  11.677
76041ION    CL-47767  30.201   5.317  10.552
76042ION    CL-47768  34.486  27.393   9.980
76043ION    CL-47769  20.416  27.411  10.360
76044ION    CL-47770   5.952  29.413  11.542
76045ION    CL-47771  32.025   9.453  14.119
76046ION    CL-47772  23.954  14.618  11.973
76047ION    CL-47773  12.344  10.849   3.755
76048ION    CL-47774  29.653   8.830   3.069
76049ION    CL-47775  38.537  26.975   0.338
76050ION    CL-47776  24.744  17.138   2.348
76051ION    CL-47777  27.028  30.046   3.685
76052ION    CL-47778  41.946   4.532   2.230
76053ION    CL-47779   8.301   2.977  13.077
76054ION    CL-47780  30.540  14.310   4.504
76055ION    CL-47781   7.907  28.299   4.963
76056ION    CL-47782  40.489  41.166  12.449
76057ION    CL-47783   9.220  15.142   4.865
76058ION    CL-47784  24.589  19.777   4.562
76059ION    CL-47785  31.803   5.176   2.926
76060ION    CL-47786   0.883  21.495   4.982
76061ION    CL-47787  41.960  28.229   3.414
76062ION    CL-47788   1.200   4.379   3.798
76063ION    CL-47789  17.930  27.284   3.960
76064ION    CL-47790  21.570  25.649  14.486
76065ION    CL-47791   7.130   0.862  14.622
76066ION    CL-47792  26.325  27.558   2.635
76067ION    CL-47793  38.919  39.341   3.773
76068ION    CL-47794  34.178  23.774  10.082
76069ION    CL-47795  21.835  40.688  11.905
76070ION    CL-47796  23.206  27.841   4.577
76071ION    CL-47797  12.889  16.636  12.627
76072ION    CL-47798  35.500   5.743  14.843
76073ION    CL-47799  19.639  22.420   2.637
76074ION    CL-47800   0.566  34.922   0.986
76075ION    CL-47801  43.708   7.108   0.618
76076ION    CL-47802  29.591  24.677  12.073
76077ION    CL-47803  15.739   4.968  12.999
76078ION    CL-47804   7.874   5.214  13.350
76079ION    CL-47805  12.573  14.243   9.877
76080ION    CL-47806   7.732  20.595  14.784
76081ION    CL-47807   0.098  35.306   4.021
76082ION    CL-47808  36.973  36.243   3.192
76083ION    CL-47809  33.521  17.585  10.187
76084ION    CL-47810  23.235   0.447  12.318
76085ION    CL-47811  29.474   8.322   3.939
76086ION    CL-47812   9.513  12.757   5.086
76087ION    CL-47813   4.329  38.108  11.554
76088ION    CL-47814   4.207   0.644  12.269
76089ION    CL-47815  14.067  15.806   0.254
76090ION    CL-47816  16.881  15.155   4.718
76091ION    CL-47817  32.897  23.658   3.411
76092ION    CL-47818  27.149  15.890  10.794
76093ION    CL-47819  40.755  10.302  14.945
76094ION    CL-47820  11.159  19.311  10.917
76095ION    CL-47821  36.476  42.768  12.079
76096ION    CL-47822  14.702   6.793  11.932
76097ION    CL-47823   2.498  16.340  14.323
76098ION    CL-47824  15.069  24.891   1.716
76099ION    CL-47825  27.434   9.467  13.377
76100ION    CL-47826   1.592  12.866   3.844
76101ION    CL-47827  44.419  32.375  11.751
76102ION    CL-47828  17.548  25.688  13.521
76103ION    CL-47829  13.563  21.186   4.804
76104ION    CL-47830  34.465  29.099   1.620
76105ION    CL-47831   2.921   5.551   3.204
76106ION    CL-47832  44.441  32.928  10.918
76107ION    CL-47833  15.077  42.262   3.230
76108ION    CL-47834  41.001  33.645  14.956
76109ION    CL-47835  39.763  13.629  11.882
76110ION    CL-47836  23.650   4.252   1.341
76111ION    CL-47837  25.219  25.634   2.366
76112ION    CL-47838  44.237  17.427   3.258
76113ION    CL-47839   3.859  25.619  11.986
76114ION    CL-47840  28.409  32.946  12.511
76115ION    CL-47841  14.020  16.283  13.473
76116ION    CL-47842   2.373   0.998  11.103
76117ION    CL-47843  26.194   2.579   1.672
76118ION    CL-47844  19.279   9.379  14.972
76119ION    CL-47845   8.281  12.352   2.169
76120ION    CL-47846   9.372  23.119   9.813
76121ION    CL-47847  20.646  29.633  12.132
76122ION    CL-47848  24.580  11.864  13.071
76123ION    CL-47849  24.078  28.210  12.507
76124ION    CL-47850   9.881  32.713   1.450
76125ION    CL-47851  26.162  11.474   3.189
76126ION    CL-47852  12.914  14.124   2.252
76127ION    CL-47853  44.287   3.171   1.951
76128ION    CL-47854  12.850   3.791   2.003
76129ION    CL-47855  24.494  20.312   3.722
76130ION    CL-47856  18.337  43.647   2.537
76131ION    CL-47857   7.247  27.059   2.142
76132ION    CL-47858  36.981   4.345  14.343
76133ION    CL-47859  18.690  34.123   0.302
76134ION    CL-47860  13.802  11.684  14.088
76135ION    CL-47861  43.295  23.167   3.639
76136ION    CL-47862   2.084  41.255   3.894
76137ION    CL-47863  42.370  21.443   4.557
76138ION    CL-47864  44.023  44.782   0.851
76139ION    CL-47865  44.455  36.137  12.283
76140ION    CL-47866  38.534  32.680  14.135
76141ION    CL-47867  12.065  16.895  12.063
76142ION    CL-47868  23.687  43.550   1.598
76143ION    CL-47869  29.008  39.804  11.081
76144ION    CL-47870  41.675   1.093   3.406
76145ION    CL-47871  13.926  30.937  13.637
76146ION    CL-47872  11.004   6.182   5.061
76147ION    CL-47873  13.566  34.494   3.798
76148ION    CL-47874   0.420  18.379   3.032
76149ION    CL-47875  21.124  38.161  13.100
76150ION    CL-47876  41.229  35.942   0.419
76151ION    CL-47877  13.177   6.341  14.453
76152ION    CL-47878  40.259  38.051   2.690
76153ION    CL-47879  40.553  19.260   4.192
76154ION    CL-47880  31.309   5.383   2.082
76155ION    CL-47881   1.200  13.764  11.719
76156ION    CL-47882  41.847  15.780   9.956
76157ION    CL-47883  41.226  19.815  13.833
76158ION    CL-47884   6.214  13.777   9.692
76159ION    CL-47885   9.178  13.227  14.089
76160ION    CL-47886  26.500  22.403  12.439
76161ION    CL-47887   3.622  11.371   0.893
76162ION    CL-47888  26.470  32.315  14.557
76163ION    CL-47889   3.292  10.184   5.115
76164ION    CL-47890  29.875   2.330   2.015
76165ION    CL-47891  23.832  34.020   3.894
76166ION    CL-47892  44.305  15.636   0.809
76167ION    CL-47893  38.350  40.927  12.459
76168ION    CL-47894  41.828   9.562   3.097
76169ION    CL-47895  40.390  35.330  13.950
76170ION    CL-47896   1.040  44.648  10.099
76171ION    CL-47897  28.665  42.407   0.443
76172ION    CL-47898  16.226  13.378  12.033
76173ION    CL-47899  35.586   7.383  11.510
76174ION    CL-47900  19.661   4.297   1.570
76175ION    CL-47901  25.427  44.259  12.715
76176ION    CL-47902  27.629  41.677   0.591
76177ION    CL-47903   6.391  17.932  14.002
76178ION    CL-47904  13.771   7.280   1.494
76179ION    CL-47905  27.514  11.032   0.281
76180ION    CL-47906  39.868  26.822   4.617
76181ION    CL-47907  26.210  27.968   0.419
76182ION    CL-47908  17.360  36.607   0.315
76183ION    CL-47909  37.748  10.810  14.634
76184ION    CL-47910   8.054  41.955   4.333
76185ION    CL-47911  34.135  19.176  11.288
76186ION    CL-47912  14.883   4.206   2.109
76187ION    CL-47913   1.595  23.070  13.091
76188ION    CL-47914  10.992  24.654   1.785
76189ION    CL-47915  17.918  26.657   4.641
76190ION    CL-47916  26.640  32.864   0.529
76191ION    CL-47917   6.806  19.188  10.313
76192ION    CL-47918  23.526  14.102  10.952
76193ION    CL-47919  36.747  40.299   1.787
76194ION    CL-47920  38.473   7.408   1.422
76195ION    CL-47921   9.282  32.285   3.341
76196ION    CL-47922  28.822  33.674   1.807
76197ION    CL-47923  43.540   6.166   0.979
76198ION    CL-47924  37.108   5.573  13.882
76199ION    CL-47925  10.904  22.808  14.728
76200ION    CL-47926  18.805  42.817   2.232
76201ION    CL-47927  36.579  24.601  12.815
76202ION    CL-47928  22.843  37.109   5.108
76203ION    CL-47929  26.409  20.808   1.878
76204ION    CL-47930   4.477  31.935   2.292
76205ION    CL-47931  19.042  10.104  13.128
76206ION    CL-47932  28.754   2.631   0.267
76207ION    CL-47933  40.158  23.532  12.405
76208ION    CL-47934  40.709   4.752   0.189
76209ION    CL-47935   9.446  26.209  11.994
76210ION    CL-47936  21.289  12.272  12.904
76211ION    CL-47937  13.638  21.805   1.911
76212ION    CL-47938  30.556  21.697  14.242
76213ION    CL-47939  19.266   4.615   3.186
76214ION    CL-47940   9.591   2.687  13.114
76215ION    CL-47941  33.815  18.206   5.023
76216ION    CL-47942  16.916  18.782  12.517
76217ION    CL-47943  22.464  43.604  13.842
76218ION    CL-47944  13.432  28.420  14.150
76219ION    CL-47945  43.384  27.353  11.336
76220ION    CL-47946  30.478   3.662  11.129
76221ION    CL-47947   1.643  15.978  11.290
76222ION    CL-47948  31.901  22.002   1.576
76223ION    CL-47949   4.322  41.874  12.281
76224ION    CL-47950  15.312  42.281  13.567
76225ION    CL-47951   4.324  37.079  11.567
76226ION    CL-47952  42.944  31.652  10.727
76227ION    CL-47953   0.831   2.870  13.197
76228ION    CL-47954  44.195  25.604   4.932
76229ION    CL-47955   9.896  15.319  11.624
76230ION    CL-47956  20.415  14.943   3.950
76231ION    CL-47957  44.204  12.730   0.106
76232ION    CL-47958   3.130  32.028  12.388
76233ION    CL-47959  43.072  41.471  11.363
76234ION    CL-47960  10.785  15.613  10.792
76235ION    CL-47961  28.077  34.031   2.369
76236ION    CL-47962  42.426  39.779   2.242
76237ION    CL-47963   8.899  16.341  13.380
76238ION    CL-47964  29.266   8.047   1.967
76239ION    CL-47965  17.236   8.462  13.614
76240ION    CL-47966  24.889  13.013   3.250
76241ION    CL-47967  10.649  38.446   0.591
76242ION    CL-47968   1.856  27.217  12.258
76243ION    CL-47969  18.395  44.185  10.006
76244ION    CL-47970  26.779   6.162   3.954
76245ION    CL-47971  21.672  14.365   1.323
76246ION    CL-47972  30.112   7.428  11.406
76247ION    CL-47973   8.719  19.915  14.860
76248ION    CL-47974   1.118  10.881   2.240
76249ION    CL-47975  11.651  42.041  12.134
76250ION    CL-47976  32.403  21.257   4.162
76251ION    CL-47977   1.384  26.535  14.725
76252ION    CL-47978  43.920  24.731  10.703
76253ION    CL-47979   3.489  24.492   3.205
76254ION    CL-47980  28.297  15.404   3.945
76255ION    CL-47981  25.797  38.207   4.727
76256ION    CL-47982  41.796   7.156  11.186
76257ION    CL-47983  16.168  37.387  13.387
76258ION    CL-47984  26.751  42.228  14.215
76259ION    CL-47985   3.277  42.963   2.330
76260ION    CL-47986  33.023  17.135  11.908
76261ION    CL-47987   2.177  16.758   4.223
76262ION    CL-47988  12.490  43.489  13.909
76263ION    CL-47989  20.691  40.803   2.354
76264ION    CL-47990  44.059   1.986   4.061
76265ION    CL-47991  31.455  41.995   2.160
76266ION    CL-47992  37.271   7.491   4.821
76267ION    CL-47993  32.000  32.116   1.906
76268ION    CL-47994   5.062  15.684  13.794
76269ION    CL-47995   7.116  29.333  11.815
76270ION    CL-47996  43.135   3.904   3.645
76271ION    CL-47997  18.563  36.457   2.186
76272ION    CL-47998   6.750   2.270  12.350
76273ION    CL-47999  15.010   1.009  13.708
76274ION    CL-48000  34.558  35.027   2.693
76275ION    CL-48001   4.992  40.916   0.328
76276ION    CL-48002  32.892   7.259   3.282
76277ION    CL-48003   3.510  43.518   3.169
76278ION    CL-48004  29.798  18.051   1.838
76279ION    CL-48005  44.150  35.570  14.172
76280ION    CL-48006   5.908   3.699   2.859
76281ION    CL-48007  34.367   8.441   0.658
76282ION    CL-48008   6.860  25.722  12.902
76283ION    CL-48009  13.056  39.114  14.270
76284ION    CL-48010   6.604  28.180   1.670
76285ION    CL-48011   7.192  30.200  12.049
76286ION    CL-48012  24.351  11.137   2.550
76287ION    CL-48013  17.496  16.074   0.082
76288ION    CL-48014   6.276  44.879   9.909
76289ION    CL-48015  25.861  32.433   0.342
76290ION    CL-48016   3.576  28.597   1.673
76291ION    CL-48017  12.021  28.686  10.945
76292ION    CL-48018  38.938  34.078  11.569
76293ION    CL-48019  10.779  38.814  14.354
76294ION    CL-48020   7.323  35.449   2.994
76295ION    CL-48021  12.274  14.785  12.059
76296ION    CL-48022  43.098   8.415   3.279
76297ION    CL-48023  25.945  14.353   1.808
76298ION    CL-48024  40.458  28.170   9.798
76299ION    CL-48025  21.133  26.718  12.260
76300ION    CL-48026  14.626  34.209  12.402
76301ION    CL-48027  14.145  30.044  14.717
76302ION    CL-48028  16.134  11.622   0.536
76303ION    CL-48029   9.947  34.274  12.345
76304ION    CL-48030  19.085  22.850   0.354
76305ION    CL-48031   7.375   4.803  12.708
76306ION    CL-48032  11.777   3.546  12.895
76307ION    CL-48033  18.849  22.076   4.180
76308ION    CL-48034  31.994  35.359   1.916
76309ION    CL-48035   5.847  26.365  11.007
76310ION    CL-48036   4.683  11.915   2.022
76311ION    CL-48037  17.261  26.057  12.498
76312ION    CL-48038  42.421  19.236   0.030
76313ION    CL-48039  37.143   7.462   1.880
76314ION    CL-48040   2.172  41.066  11.266
76315ION    CL-48041  33.961  40.562   2.118
76316ION    CL-48042   0.582  31.718   0.338
76317ION    CL-48043   5.237  24.533   2.128
76318ION    CL-48044   5.230  22.496   0.802
76319ION    CL-48045  43.708   1.840   3.134
76320ION    CL-48046  14.726  44.502   4.524
  45.00000  45.00000  15.00000
